FOO
138240
    1MOL0     O    1   6.208  10.222   9.051 -0.5276 -0.5367 -0.4152
    1MOL0     C    2   6.110  10.180   8.992  0.4849  0.6090 -0.4371
    1MOL0     O    3   5.980  10.211   9.024  0.0646  0.4372 -0.4607
    1MOL0     C    4   5.941  10.296   9.133 -0.8780  0.1574  0.4733
    1MOL0     C    5   6.015  10.348   9.240  0.9390  0.1001 -0.7607
    1MOL0     C    6   5.960  10.422   9.342  1.0264  0.0483  0.3169
    1MOL0     C    7   5.827  10.470   9.337  0.0968  0.6833  0.0513
    1MOL0     O    8   5.790  10.547   9.438 -0.2835 -0.6321  0.2509
    1MOL0     C    9   5.674  10.625   9.418  0.1957  0.4293  0.1602
    1MOL0     C   10   5.559  10.573   9.493  0.7540 -0.5886 -0.9186
    1MOL0     C   11   5.434  10.670   9.477  0.2165 -0.1909 -0.2561
    1MOL0     C   12   5.350  10.629   9.603  0.6417  0.8423  0.4875
    1MOL0     C   13   5.212  10.694   9.602 -0.5122 -1.2419 -0.2153
    1MOL0     C   14   5.218  10.841   9.652 -0.3940  0.3254  0.0183
    1MOL0     C   15   5.076  10.895   9.634  0.6610  0.4359 -0.1660
    1MOL0     C   16   5.043  10.972   9.508 -0.1498  0.4805  0.0886
    1MOL0     N   17   5.145  11.075   9.484 -0.0445  0.0610 -0.1768
    1MOL0     C   18   5.139  11.202   9.529  0.6405 -0.0267  0.7353
    1MOL0     C   19   5.241  11.265   9.482 -0.1657 -0.6233 -0.6933
    1MOL0     C   20   5.279  11.416   9.497 -0.5720 -0.5548 -0.1780
    1MOL0     C   21   5.325  11.460   9.633 -0.0190 -0.3181 -0.1416
    1MOL0     C   22   5.223  11.481   9.751 -0.0574  0.1781 -0.0701
    1MOL0     C   23   5.278  11.470   9.897  0.7797 -0.5258  0.2344
    1MOL0     O   24   5.378  11.565   9.926 -0.0516 -0.7834  0.5407
    1MOL0     C   25   5.355  11.699   9.955 -0.5727 -0.5457 -0.5202
    1MOL0     C   26   5.224  11.750   9.953  0.4398 -0.7441  0.2286
    1MOL0     C   27   5.207  11.889   9.968 -0.6825  0.3175  0.3453
    1MOL0     C   28   5.074  11.941   9.975 -0.2670 -0.1396 -0.0286
    1MOL0     C   29   5.321  11.970  10.000 -0.0066 -0.0805  0.3828
    1MOL0     C   30   5.305  12.112  10.034  0.3503  0.1426 -0.0674
    1MOL0     O   31   5.398  12.193   9.976  0.1893 -0.0470 -0.0977
    1MOL0     C   32   5.411  12.313  10.025  0.3754  0.1569 -0.4136
    1MOL0     C   33   5.332  12.413   9.959 -0.2696 -1.1664  0.2895
    1MOL0     C   34   5.329  12.546  10.006 -0.1137 -0.3294  0.6282
    1MOL0     C   35   5.379  12.572  10.137 -0.1473 -0.7076 -0.1602
    1MOL0     O   36   5.375  12.689  10.206  0.2434 -0.2196 -0.5328
    1MOL0     C   37   5.418  12.798  10.121  0.1873  0.0163 -0.2895
    1MOL0     C   38   5.565  12.822  10.140  0.1507  0.9321  0.2352
    1MOL0     C   39   5.578  12.891  10.275 -0.2005  0.2816 -0.1811
    1MOL0     C   40   5.662  12.791  10.353  0.2588  0.6367  0.1305
    1MOL0     C   41   5.680  12.858  10.494  0.6237 -0.1112 -0.5346
    1MOL0     C   42   5.806  12.811  10.578  0.0108 -1.2201  0.1943
    1MOL0     C   43   5.794  12.665  10.608 -0.0762  0.6792 -0.0870
    1MOL0     C   44   5.920  12.625  10.681 -0.1080  0.3745 -0.3909
    1MOL0    Cl   45   6.053  12.640  10.569 -0.1337  0.3075  0.4744
    1MOL0     C   46   5.444  12.463  10.212  0.5694 -0.5834  0.6795
    1MOL0     C   47   5.463  12.339  10.153 -0.9361 -0.2918  0.9701
    1MOL0     O   48   5.215  12.147  10.101  0.1540 -0.1824 -0.5475
    1MOL0     C   49   5.448  11.916  10.011 -0.2284  0.0989  1.0249
    1MOL0     C   50   5.467  11.784   9.974  0.3914  0.6506 -0.4959
    1MOL0     N   51   5.302  11.175   9.404  0.5800 -0.6116  0.2903
    1MOL0     N   52   5.254  11.059   9.405  0.2244 -1.6404 -0.1023
    1MOL0     C   53   5.744  10.413   9.235 -0.5291 -0.1952 -0.2545
    1MOL0     C   54   5.806  10.331   9.138  0.8151  0.5280 -1.3525
    1MOL0     C   55   6.137  10.072   8.897 -0.4547  0.2883  0.1872
    1MOL0     C   56   6.249   9.994   8.906 -0.2795 -1.2003 -0.0516
    1MOL0     C   57   6.272   9.882   8.824  1.1888  0.3096  0.2109
    1MOL0     C   58   6.177   9.849   8.726 -0.2949  0.0490 -0.4004
    1MOL0     O   59   6.181   9.742   8.642  0.2980  0.4546  0.2176
    1MOL0     C   60   6.289   9.662   8.638 -1.2071  0.9507  0.0543
    1MOL0     C   61   6.411   9.716   8.557 -0.1336  0.2698 -0.2221
    1MOL0     C   62   6.384   9.715   8.403  0.9273  0.0935 -0.1546
    1MOL0     C   63   6.354   9.578   8.343  0.2941  0.6250  0.3446
    1MOL0     C   64   6.339   9.584   8.193  0.2826 -0.4389  0.1406
    1MOL0     C   65   6.330   9.605   8.075 -0.2395 -0.1850 -0.3409
    1MOL0     C   66   6.063   9.921   8.727 -0.3476  0.1024  0.8656
    1MOL0     C   67   6.038  10.038   8.803 -0.5180  0.2142  0.1263
    1MOL0     H   68   6.116  10.312   9.255  0.5715 -0.9596 -0.7259
    1MOL0     H   69   6.012  10.441   9.435  0.7242 -1.5995  0.8728
    1MOL0     H   70   5.687  10.729   9.448 -0.1165  0.6825 -0.5625
    1MOL0     H   71   5.649  10.632   9.312  1.2518 -1.2707 -0.2410
    1MOL0     H   72   5.527  10.473   9.463 -2.5415  1.3127 -4.7970
    1MOL0     H   73   5.594  10.566   9.596 -1.6713 -3.3251 -0.1323
    1MOL0     H   74   5.455  10.777   9.486  0.3747 -0.2980  0.8441
    1MOL0     H   75   5.380  10.652   9.384  0.1912  2.6738 -0.8864
    1MOL0     H   76   5.334  10.521   9.600  0.0653  0.8850  1.5744
    1MOL0     H   77   5.401  10.656   9.696 -0.8933  0.9540  1.3165
    1MOL0     H   78   5.153  10.701   9.510 -1.0942  2.6167  0.2644
    1MOL0     H   79   5.158  10.634   9.676  1.3329 -3.2229 -0.4053
    1MOL0     H   80   5.250  10.843   9.757  0.2305 -3.4310  0.0223
    1MOL0     H   81   5.293  10.896   9.595  0.4945 -0.5673  0.2975
    1MOL0     H   82   5.003  10.815   9.652 -0.8583  0.9705 -3.2556
    1MOL0     H   83   5.060  10.967   9.715 -2.0618 -1.9617  1.6649
    1MOL0     H   84   4.946  11.022   9.509  2.0310  5.3836 -0.7912
    1MOL0     H   85   5.047  10.894   9.432  1.9823  0.7954 -0.1887
    1MOL0     H   86   5.061  11.245   9.590 -1.1229  0.7515 -1.8848
    1MOL0     H   87   5.363  11.438   9.429 -0.1671 -0.2337  0.4122
    1MOL0     H   88   5.192  11.470   9.458 -0.0132  0.0571 -0.6025
    1MOL0     H   89   5.378  11.554   9.615  0.0773 -0.3020  0.2242
    1MOL0     H   90   5.397  11.386   9.668  0.4664  0.2426  0.0615
    1MOL0     H   91   5.146  11.407   9.729  0.1757  0.1127 -0.6722
    1MOL0     H   92   5.179  11.581   9.741  2.6277  1.7133  1.9251
    1MOL0     H   93   5.311  11.367   9.914 -0.7535 -0.7104  2.5581
    1MOL0     H   94   5.201  11.474   9.975 -0.5640  0.7174 -1.1048
    1MOL0     H   95   5.132  11.692   9.950 -1.1865  1.7167 -2.7953
    1MOL0     H   96   5.007  11.871   9.923  0.2010 -0.1359 -0.6350
    1MOL0     H   97   5.047  11.938  10.081  1.5725 -1.9259  0.4452
    1MOL0     H   98   5.076  12.039   9.927 -2.4974  1.7053  3.1990
    1MOL0     H   99   5.280  12.382   9.869 -2.0609  1.6176  0.2498
    1MOL0     H  100   5.284  12.606   9.928  1.4086  0.0040 -0.0272
    1MOL0     H  101   5.396  12.786  10.014 -0.2855  0.9136 -0.2995
    1MOL0     H  102   5.369  12.893  10.144 -0.5421 -0.2379 -0.7397
    1MOL0     H  103   5.605  12.721  10.130  0.1998  0.8613  1.0686
    1MOL0     H  104   5.616  12.877  10.061  0.0150 -0.2331 -0.6850
    1MOL0     H  105   5.485  12.897  10.332 -0.0761 -1.6554  0.3324
    1MOL0     H  106   5.633  12.985  10.268  0.7517 -0.2528 -0.1717
    1MOL0     H  107   5.616  12.692  10.363 -1.1991  1.3033  0.3184
    1MOL0     H  108   5.756  12.776  10.299  0.2420  0.6036  0.1108
    1MOL0     H  109   5.588  12.845  10.551  0.8418  0.2135 -0.1005
    1MOL0     H  110   5.695  12.965  10.477  1.0779  0.6066  3.4342
    1MOL0     H  111   5.897  12.834  10.523  0.0015  2.8127  1.5244
    1MOL0     H  112   5.807  12.862  10.675  0.0888 -2.3583  0.8190
    1MOL0     H  113   5.789  12.621  10.508 -0.0283  3.7321 -1.5627
    1MOL0     H  114   5.709  12.631  10.668 -0.9491  0.0282 -1.6288
    1MOL0     H  115   5.925  12.519  10.705  1.0689  0.6555  0.7127
    1MOL0     H  116   5.929  12.687  10.771  1.1461 -0.7924  0.3265
    1MOL0     H  117   5.471  12.489  10.314  0.8828 -0.4687  0.5679
    1MOL0     H  118   5.511  12.261  10.211 -0.1554  0.3340  1.1960
    1MOL0     H  119   5.538  11.963  10.046  0.9337  0.4154 -2.0405
    1MOL0     H  120   5.563  11.735   9.967 -1.4061 -3.2576 -0.8434
    1MOL0     H  121   5.636  10.428   9.238 -0.7808 -1.8173 -0.4476
    1MOL0     H  122   5.758  10.264   9.067  0.5836 -1.0670  0.2186
    1MOL0     H  123   6.318  10.033   8.981 -0.6151  0.3869 -0.5397
    1MOL0     H  124   6.360   9.820   8.838 -0.2435 -1.9034 -0.1205
    1MOL0     H  125   6.331   9.640   8.737 -2.1431 -0.7293  0.1217
    1MOL0     H  126   6.271   9.562   8.596  1.9600  1.6271 -3.4989
    1MOL0     H  127   6.492   9.646   8.576 -1.4995 -0.9662  1.3375
    1MOL0     H  128   6.438   9.818   8.586 -2.3688  1.6861 -2.6828
    1MOL0     H  129   6.469   9.754   8.346  0.0173 -1.5516 -2.8040
    1MOL0     H  130   6.304   9.788   8.383  2.5671  1.5436 -1.7712
    1MOL0     H  131   6.261   9.537   8.385 -0.0138 -0.4498 -1.2707
    1MOL0     H  132   6.437   9.515   8.377  1.8843  2.1385 -0.5858
    1MOL0     H  133   6.329   9.627   7.970 -1.8095  0.4074 -0.2258
    1MOL0     H  134   5.988   9.885   8.659  2.8356 -0.0370 -2.9185
    1MOL0     H  135   5.941  10.085   8.802 -0.6449  0.0625 -2.2339
    2MOL0     O  136   4.605   3.456   7.866  0.1385 -1.0948  0.2837
    2MOL0     C  137   4.524   3.393   7.931  0.5763  0.8521 -0.3186
    2MOL0     O  138   4.477   3.267   7.892 -0.2456 -0.4910  0.3986
    2MOL0     C  139   4.549   3.203   7.797  0.2549 -0.7741  0.3294
    2MOL0     C  140   4.508   3.222   7.660 -0.2016  0.1819 -0.1849
    2MOL0     C  141   4.581   3.155   7.561  0.2470  0.1632 -0.1661
    2MOL0     C  142   4.689   3.073   7.590 -0.7737 -0.2171  1.0559
    2MOL0     O  143   4.740   2.990   7.491  0.5508  0.0576  0.0179
    2MOL0     C  144   4.850   2.910   7.519 -0.3382 -0.2326  0.3278
    2MOL0     C  145   4.929   2.882   7.387  0.5524  0.0634  0.5322
    2MOL0     C  146   4.962   3.009   7.299  0.7578  0.7044 -1.3007
    2MOL0     C  147   5.029   2.964   7.173 -0.0784 -0.0565  0.7057
    2MOL0     C  148   5.021   3.088   7.072 -0.5507  0.3684 -0.6350
    2MOL0     C  149   5.156   3.109   6.995  0.9186 -0.4092 -0.0649
    2MOL0     C  150   5.128   3.218   6.889 -0.0989 -0.7211 -1.0022
    2MOL0     C  151   5.077   3.160   6.757  0.3932  0.3969 -0.2222
    2MOL0     N  152   5.186   3.155   6.659 -0.0756 -0.3009 -0.2475
    2MOL0     C  153   5.220   3.040   6.586  0.5017  0.0328  0.0643
    2MOL0     C  154   5.258   3.081   6.465 -0.4279 -0.4321  0.8250
    2MOL0     C  155   5.300   2.997   6.347  0.1945 -0.2331 -0.3552
    2MOL0     C  156   5.189   2.932   6.277  0.1406 -0.0030  0.1111
    2MOL0     C  157   5.107   2.829   6.360 -0.5219 -0.5768  0.9887
    2MOL0     C  158   5.028   2.730   6.278  0.7897  0.7587 -0.1975
    2MOL0     O  159   4.972   2.618   6.358  0.1407 -0.4124 -0.0086
    2MOL0     C  160   4.962   2.509   6.276 -1.0644 -1.1442  0.2380
    2MOL0     C  161   4.844   2.484   6.219  0.0446  0.4164  0.0119
    2MOL0     C  162   4.829   2.390   6.119 -0.1194  0.7927 -1.0493
    2MOL0     C  163   4.699   2.382   6.051  0.2192  0.0874  0.1117
    2MOL0     C  164   4.944   2.311   6.071 -0.9380  0.0509 -0.3624
    2MOL0     C  165   4.936   2.192   5.974  0.8861 -0.1425 -0.5775
    2MOL0     O  166   5.038   2.188   5.882  0.5680  0.4962  0.1880
    2MOL0     C  167   5.043   2.086   5.794 -0.3492  0.4628  0.7222
    2MOL0     C  168   5.111   1.976   5.831 -1.0302  0.4509  0.6435
    2MOL0     C  169   5.114   1.861   5.743  0.8347 -0.2442  0.0188
    2MOL0     C  170   5.047   1.874   5.614 -0.4927  0.4388  1.0913
    2MOL0     O  171   5.061   1.783   5.516  0.4141 -0.0044  0.1378
    2MOL0     C  172   5.151   1.671   5.533  0.6528 -0.6103 -0.3077
    2MOL0     C  173   5.172   1.607   5.396 -0.9989  0.0543 -0.1979
    2MOL0     C  174   5.044   1.565   5.329  0.1806  0.2528 -0.9432
    2MOL0     C  175   5.012   1.425   5.353 -0.5260  0.2883  0.0012
    2MOL0     C  176   4.878   1.391   5.275 -0.8264  0.0788  1.1137
    2MOL0     C  177   4.866   1.238   5.250  0.3201 -0.4120  0.0269
    2MOL0     C  178   4.893   1.154   5.379  0.2488 -0.3211 -0.1699
    2MOL0     C  179   4.865   1.012   5.366  0.3766  0.1578 -0.1832
    2MOL0    Cl  180   5.012   0.956   5.287  0.5831 -0.0280 -0.2688
    2MOL0     C  181   4.985   1.986   5.575 -0.0214 -0.1715 -0.9667
    2MOL0     C  182   4.986   2.096   5.671  0.5557  0.0219 -0.1379
    2MOL0     O  183   4.843   2.108   5.980  0.2332  0.2261 -0.9865
    2MOL0     C  184   5.067   2.335   6.134  0.2852 -1.0314 -1.0179
    2MOL0     C  185   5.075   2.428   6.240  0.3488  0.4552 -0.2355
    2MOL0     N  186   5.254   3.216   6.459 -0.4557 -1.1121 -0.0082
    2MOL0     N  187   5.206   3.256   6.577 -0.9398  0.8747  0.3528
    2MOL0     C  188   4.717   3.045   7.722  0.1958 -0.8640  0.1025
    2MOL0     C  189   4.644   3.106   7.828 -0.0832 -0.6157 -0.1238
    2MOL0     C  190   4.463   3.449   8.050  0.7593  0.0340 -0.4803
    2MOL0     C  191   4.472   3.587   8.066 -0.8398  0.4930  0.2021
    2MOL0     C  192   4.413   3.659   8.166 -0.0447  0.3716 -0.0626
    2MOL0     C  193   4.344   3.591   8.268 -0.0455  0.7425 -0.4576
    2MOL0     O  194   4.275   3.637   8.371 -0.3611 -0.2806  0.2774
    2MOL0     C  195   4.164   3.717   8.317 -0.1384  0.4195  0.0077
    2MOL0     C  196   4.079   3.749   8.445  1.0553  0.3021 -0.0637
    2MOL0     C  197   3.942   3.815   8.406  0.1997 -0.2209  0.4903
    2MOL0     C  198   3.839   3.815   8.518  0.4875  0.0205 -0.4441
    2MOL0     C  199   3.714   3.891   8.487 -0.6499 -0.4990 -0.2156
    2MOL0     C  200   3.608   3.955   8.478  0.1991  1.0464  0.0059
    2MOL0     C  201   4.334   3.450   8.249  0.0833  0.0072  0.2847
    2MOL0     C  202   4.390   3.378   8.147  0.2181 -0.7350  0.2637
    2MOL0     H  203   4.424   3.287   7.637 -0.6370  1.4166  4.0062
    2MOL0     H  204   4.547   3.156   7.458 -1.1006  0.6201  0.2589
    2MOL0     H  205   4.915   2.962   7.590 -0.6480  0.6612 -0.0340
    2MOL0     H  206   4.815   2.819   7.569 -1.5901  0.2495  0.3467
    2MOL0     H  207   5.029   2.847   7.416  0.5095  0.6364  1.4066
    2MOL0     H  208   4.873   2.810   7.327  0.7394 -0.4308  0.9442
    2MOL0     H  209   4.868   3.059   7.277 -0.6615  0.2145  2.7873
    2MOL0     H  210   5.023   3.077   7.360 -1.1107 -0.0039  1.5625
    2MOL0     H  211   5.134   2.932   7.176 -0.5284 -1.8685 -0.8656
    2MOL0     H  212   4.969   2.878   7.141 -0.0234 -0.9221  2.8031
    2MOL0     H  213   4.933   3.068   7.010 -0.6925 -0.0452 -0.3105
    2MOL0     H  214   4.997   3.180   7.125  0.7665  0.4824 -0.2034
    2MOL0     H  215   5.225   3.141   7.073  0.7576  0.2409 -0.1827
    2MOL0     H  216   5.193   3.016   6.950  0.0237 -1.2459  0.8723
    2MOL0     H  217   5.053   3.292   6.919 -2.0006 -0.1931 -6.1066
    2MOL0     H  218   5.229   3.256   6.877  0.5442 -2.4168 -1.2442
    2MOL0     H  219   4.998   3.226   6.721 -2.5219 -1.8034  1.7749
    2MOL0     H  220   5.030   3.062   6.769 -0.7786  1.0469  0.6959
    2MOL0     H  221   5.232   2.937   6.620  1.2109 -0.5135 -1.7039
    2MOL0     H  222   5.356   3.067   6.284  1.0166  2.8365  3.3845
    2MOL0     H  223   5.363   2.916   6.386  2.6144  0.9092 -1.6477
    2MOL0     H  224   5.227   2.885   6.187 -0.7158 -1.5618  0.5250
    2MOL0     H  225   5.115   3.003   6.239  1.1256  1.3417  0.6300
    2MOL0     H  226   5.042   2.885   6.427 -0.2451  2.7576 -1.2412
    2MOL0     H  227   5.179   2.763   6.410  1.0063  0.2174 -0.0499
    2MOL0     H  228   5.097   2.696   6.200  0.0702 -0.3000 -0.3909
    2MOL0     H  229   4.944   2.782   6.232 -1.7870 -0.6609  2.6033
    2MOL0     H  230   4.760   2.541   6.257 -0.8330 -0.5499 -0.4256
    2MOL0     H  231   4.703   2.443   5.960 -1.6118 -0.3392 -0.2951
    2MOL0     H  232   4.665   2.281   6.028  2.4204 -0.7422  0.2507
    2MOL0     H  233   4.618   2.420   6.114 -0.6474  2.3603 -2.1852
    2MOL0     H  234   5.151   1.976   5.932 -2.3836 -3.1583  1.3150
    2MOL0     H  235   5.169   1.776   5.781 -3.1493 -1.9467  2.5714
    2MOL0     H  236   5.250   1.700   5.570 -0.1964 -0.0617  1.6148
    2MOL0     H  237   5.098   1.605   5.601 -1.2757  1.0955 -0.0816
    2MOL0     H  238   5.214   1.688   5.336 -0.4777  2.3367  2.9940
    2MOL0     H  239   5.241   1.523   5.405  1.4981  2.2445  2.6705
    2MOL0     H  240   5.069   1.565   5.222 -0.5840 -1.2456 -1.1410
    2MOL0     H  241   4.957   1.627   5.350 -1.6611 -2.2883 -0.6690
    2MOL0     H  242   5.101   1.365   5.334  0.9830  2.5240 -0.4701
    2MOL0     H  243   4.980   1.403   5.455 -3.3616 -0.9284 -1.0667
    2MOL0     H  244   4.884   1.434   5.174 -0.0717 -0.5762  0.8649
    2MOL0     H  245   4.791   1.440   5.318 -3.8322 -2.2390 -1.7917
    2MOL0     H  246   4.764   1.225   5.210 -0.0215  0.0717  0.7267
    2MOL0     H  247   4.944   1.200   5.184  1.8895 -3.9998  3.5550
    2MOL0     H  248   4.828   1.183   5.462  0.6682 -2.0924  0.8344
    2MOL0     H  249   4.998   1.164   5.408  0.5205 -0.6696 -1.0224
    2MOL0     H  250   4.779   0.997   5.300  0.5233 -0.6708 -0.1957
    2MOL0     H  251   4.861   0.959   5.462  1.6682 -4.0583 -2.1930
    2MOL0     H  252   4.928   1.994   5.483  1.2169 -0.2956 -1.7611
    2MOL0     H  253   4.926   2.180   5.639 -2.5976 -1.5601  1.1861
    2MOL0     H  254   5.150   2.275   6.098  2.0297  1.7802 -1.9745
    2MOL0     H  255   5.163   2.445   6.302 -0.3854 -0.5235  1.1419
    2MOL0     H  256   4.792   2.973   7.753  0.3770 -0.5101  0.5054
    2MOL0     H  257   4.663   3.086   7.933 -2.5915  0.4821  0.6108
    2MOL0     H  258   4.530   3.632   7.986  4.1706 -0.6349  2.7802
    2MOL0     H  259   4.415   3.767   8.161  0.5333  0.3268 -2.7697
    2MOL0     H  260   4.208   3.806   8.271  0.6526  2.1096  3.6640
    2MOL0     H  261   4.100   3.662   8.248 -1.6097  0.5824  1.1956
    2MOL0     H  262   4.140   3.808   8.513 -0.0057 -0.1916  1.3841
    2MOL0     H  263   4.057   3.663   8.510 -2.5079  2.2387  1.6246
    2MOL0     H  264   3.892   3.766   8.322 -1.1864  1.7544  0.0888
    2MOL0     H  265   3.962   3.919   8.380 -1.1958  0.1466  0.7902
    2MOL0     H  266   3.880   3.855   8.612 -1.3324 -0.9245  0.8346
    2MOL0     H  267   3.811   3.714   8.551 -0.1704  0.3602  0.0814
    2MOL0     H  268   3.526   4.021   8.462  0.4463  0.8282 -2.6612
    2MOL0     H  269   4.278   3.396   8.325 -0.0225  1.2024  1.1018
    2MOL0     H  270   4.377   3.271   8.142 -0.3352 -0.7468  1.6475
    3MOL0     O  271   0.902   1.763   2.821  0.4374  0.2427  0.4320
    3MOL0     C  272   1.002   1.710   2.867  0.6127  0.4614  0.1377
    3MOL0     O  273   1.025   1.577   2.886  0.7389  0.8885  0.4854
    3MOL0     C  274   0.929   1.483   2.895 -1.1719 -0.3167  0.1877
    3MOL0     C  275   0.791   1.501   2.888 -0.5684  0.3253 -0.2824
    3MOL0     C  276   0.702   1.392   2.892  0.1871 -0.3485 -0.2128
    3MOL0     C  277   0.756   1.260   2.918 -0.7281 -0.3973  0.3015
    3MOL0     O  278   0.679   1.151   2.923 -0.1160 -0.2794  0.1088
    3MOL0     C  279   0.560   1.148   3.006 -0.0170  0.2617 -0.8268
    3MOL0     C  280   0.450   1.050   2.949  0.0936  0.0132 -0.2744
    3MOL0     C  281   0.391   1.100   2.815 -0.5356  0.2452 -1.0831
    3MOL0     C  282   0.262   1.022   2.751 -0.4872  0.1685 -0.4380
    3MOL0     C  283   0.226   1.069   2.617  0.6000  0.3094 -0.3339
    3MOL0     C  284   0.323   1.018   2.508 -0.5558  0.8826 -1.3826
    3MOL0     C  285   0.264   1.027   2.365 -0.8070  0.3129 -0.8088
    3MOL0     C  286   0.331   0.926   2.269 -0.1011  0.0033  0.5263
    3MOL0     N  287   0.459   0.983   2.214  0.4480 -0.0914 -0.5095
    3MOL0     C  288   0.593   0.947   2.249  0.6659 -0.6515  0.5285
    3MOL0     C  289   0.668   1.037   2.178  0.4180 -0.4694 -0.8019
    3MOL0     C  290   0.819   1.048   2.178  0.3449 -0.2650  0.6580
    3MOL0     C  291   0.874   1.164   2.265 -0.0913  0.1010  0.8339
    3MOL0     C  292   0.897   1.123   2.411 -0.5935 -0.9204  0.5196
    3MOL0     C  293   0.966   1.234   2.487 -0.5468  0.4619 -0.0817
    3MOL0     O  294   1.110   1.228   2.456 -0.2112 -0.2633  0.0840
    3MOL0     C  295   1.212   1.287   2.533  0.8776  0.1362  0.2139
    3MOL0     C  296   1.341   1.248   2.510 -0.6023 -0.1526 -0.2880
    3MOL0     C  297   1.456   1.293   2.581  0.6850  0.1567  0.3699
    3MOL0     C  298   1.586   1.246   2.532  0.2405  0.4517 -0.3845
    3MOL0     C  299   1.438   1.393   2.680  0.1783 -0.0869 -0.1455
    3MOL0     C  300   1.550   1.453   2.757  0.1212  0.7018  0.9063
    3MOL0     O  301   1.518   1.544   2.862 -0.2361 -0.5994  0.7600
    3MOL0     C  302   1.607   1.605   2.946  0.4150 -0.6043  0.4735
    3MOL0     C  303   1.714   1.677   2.899 -0.4391  0.5504 -0.1655
    3MOL0     C  304   1.807   1.728   2.982  0.1477  0.1744 -0.5930
    3MOL0     C  305   1.793   1.711   3.121  0.3031  0.7117 -0.8772
    3MOL0     O  306   1.874   1.759   3.223 -0.3563 -0.0818 -0.7816
    3MOL0     C  307   1.971   1.857   3.207  0.0428  0.1841 -0.8613
    3MOL0     C  308   2.017   1.899   3.337 -0.0854 -0.9483 -0.2626
    3MOL0     C  309   2.145   1.981   3.334 -0.2487  0.3536  0.1402
    3MOL0     C  310   2.151   2.107   3.256  0.4377  0.0424 -0.3159
    3MOL0     C  311   2.284   2.177   3.245  1.0122 -0.1060  0.1364
    3MOL0     C  312   2.336   2.219   3.384 -0.6758  0.4587  0.4744
    3MOL0     C  313   2.468   2.304   3.358 -0.3863 -0.4917  0.4935
    3MOL0     C  314   2.495   2.390   3.479  0.1002  0.0838 -0.4595
    3MOL0    Cl  315   2.646   2.482   3.462 -0.1088 -0.2301 -0.1301
    3MOL0     C  316   1.681   1.640   3.168  0.5104 -0.5244  0.9861
    3MOL0     C  317   1.597   1.581   3.083  0.2283  0.0309  0.1270
    3MOL0     O  318   1.670   1.419   2.726  0.2003 -0.0429  0.7523
    3MOL0     C  319   1.305   1.437   2.689 -0.5199 -0.5910 -0.3444
    3MOL0     C  320   1.196   1.385   2.624  0.4256 -0.5056  0.1671
    3MOL0     N  321   0.584   1.132   2.118  0.5971 -0.2158 -0.1328
    3MOL0     N  322   0.464   1.093   2.141  0.1788  0.2363 -0.7519
    3MOL0     C  323   0.890   1.244   2.945  0.2738 -0.2445  0.2786
    3MOL0     C  324   0.977   1.353   2.924 -0.0245  0.2614  0.2661
    3MOL0     C  325   1.112   1.806   2.893 -0.0677  0.0609  0.6393
    3MOL0     C  326   1.080   1.944   2.913  0.3986  0.5990  0.1885
    3MOL0     C  327   1.175   2.020   2.983 -0.3021  0.0412  0.4547
    3MOL0     C  328   1.302   1.976   3.020 -0.2814 -0.1732 -0.3315
    3MOL0     O  329   1.381   2.069   3.075 -0.0180 -0.2444 -0.0195
    3MOL0     C  330   1.524   2.048   3.055  0.6684  0.0922  0.8965
    3MOL0     C  331   1.576   2.173   3.103 -0.4860 -0.9080  0.3838
    3MOL0     C  332   1.736   2.154   3.103 -0.1587  0.4949  0.3297
    3MOL0     C  333   1.804   2.293   3.143  0.0910  1.1197  0.3138
    3MOL0     C  334   1.771   2.346   3.276  0.7785  0.1993  0.8428
    3MOL0     C  335   1.719   2.407   3.371 -1.0314 -0.7738  0.0367
    3MOL0     C  336   1.332   1.840   2.992  0.4338 -0.9683 -0.7785
    3MOL0     C  337   1.237   1.759   2.930 -1.0967 -0.5916 -0.1564
    3MOL0     H  338   0.750   1.602   2.889 -0.4833  0.3997 -1.6804
    3MOL0     H  339   0.595   1.411   2.885  0.5278  1.8684 -0.0411
    3MOL0     H  340   0.580   1.127   3.112  0.3957  0.8240 -0.7913
    3MOL0     H  341   0.512   1.244   2.988  0.1530  0.1489 -1.9445
    3MOL0     H  342   0.490   0.953   2.919 -1.5715 -0.1925 -2.0175
    3MOL0     H  343   0.372   1.040   3.025 -0.1139 -0.5482 -0.5538
    3MOL0     H  344   0.360   1.205   2.823 -0.6289  0.1017  0.9824
    3MOL0     H  345   0.468   1.083   2.739  1.0837  2.3009 -0.0016
    3MOL0     H  346   0.309   0.923   2.743  2.2334  1.4169 -1.1858
    3MOL0     H  347   0.179   1.033   2.821 -0.0067  1.9479 -0.1072
    3MOL0     H  348   0.125   1.032   2.602  0.9673 -0.8528 -0.0603
    3MOL0     H  349   0.233   1.178   2.612 -1.1595  0.4963  0.5645
    3MOL0     H  350   0.413   1.079   2.519 -0.7585  1.0014 -0.2962
    3MOL0     H  351   0.340   0.911   2.522 -3.6082  0.5232  0.7008
    3MOL0     H  352   0.162   0.988   2.368 -1.0534  0.6759 -2.8094
    3MOL0     H  353   0.260   1.131   2.332 -2.1366  0.9947  1.3067
    3MOL0     H  354   0.256   0.915   2.191 -0.0767  1.7656  0.2178
    3MOL0     H  355   0.349   0.828   2.315 -0.4808  1.2133  3.4639
    3MOL0     H  356   0.627   0.866   2.313  1.4774  0.4749  1.5589
    3MOL0     H  357   0.848   0.951   2.221 -0.1404 -1.3169 -1.2512
    3MOL0     H  358   0.857   1.068   2.077 -0.9947 -0.0161  0.1839
    3MOL0     H  359   0.797   1.241   2.253 -0.4597 -0.0122  2.3232
    3MOL0     H  360   0.966   1.202   2.220 -0.3790 -1.2148 -0.9743
    3MOL0     H  361   0.964   1.037   2.404  0.4775  0.0279 -3.1039
    3MOL0     H  362   0.805   1.105   2.468  0.0486  5.2461  4.5625
    3MOL0     H  363   0.957   1.201   2.591 -0.1871 -0.7305 -0.4102
    3MOL0     H  364   0.928   1.334   2.464 -0.3828  0.3409 -0.9091
    3MOL0     H  365   1.369   1.191   2.422 -0.0841  2.0376 -1.6302
    3MOL0     H  366   1.624   1.344   2.501 -3.2605  2.5838  1.3690
    3MOL0     H  367   1.642   1.204   2.616  0.2972  2.6525  0.7396
    3MOL0     H  368   1.587   1.180   2.445  0.4007 -0.7588  0.4979
    3MOL0     H  369   1.723   1.689   2.792 -3.7612 -1.1519 -0.7420
    3MOL0     H  370   1.893   1.780   2.942 -3.5176  2.4357 -6.9692
    3MOL0     H  371   2.059   1.814   3.158 -0.1254  1.8200 -2.7236
    3MOL0     H  372   1.931   1.945   3.155 -5.2808  1.2744  4.0559
    3MOL0     H  373   1.941   1.947   3.400  0.0591 -1.2865  0.1726
    3MOL0     H  374   2.036   1.810   3.397 -2.0554 -2.1279 -1.2862
    3MOL0     H  375   2.222   1.912   3.299  2.9726  4.1140 -0.9047
    3MOL0     H  376   2.173   2.009   3.436 -2.6869  3.7339  0.0667
    3MOL0     H  377   2.121   2.092   3.152 -0.3071 -1.1521  0.0439
    3MOL0     H  378   2.077   2.177   3.297 -0.4734  0.4900 -2.5683
    3MOL0     H  379   2.281   2.262   3.176  1.7159 -0.9542 -0.9656
    3MOL0     H  380   2.357   2.104   3.210  0.3882 -1.9202  2.3827
    3MOL0     H  381   2.268   2.272   3.451  0.5400 -0.1057  2.2377
    3MOL0     H  382   2.374   2.126   3.427 -3.4873 -2.2931 -2.4858
    3MOL0     H  383   2.460   2.365   3.268  0.2212  2.5512  2.3925
    3MOL0     H  384   2.545   2.228   3.339 -0.6483 -0.0591 -2.9230
    3MOL0     H  385   2.507   2.337   3.574  1.4112  0.0126 -0.6436
    3MOL0     H  386   2.410   2.457   3.492 -0.0609  0.0759 -1.3556
    3MOL0     H  387   1.656   1.626   3.272  2.6866  0.6862  1.7381
    3MOL0     H  388   1.513   1.529   3.128 -1.2867  2.4429  0.2406
    3MOL0     H  389   1.294   1.524   2.754  0.8578  0.6612 -1.6829
    3MOL0     H  390   1.097   1.426   2.640  0.5488  1.2423 -2.8788
    3MOL0     H  391   0.921   1.142   2.960  3.5759  0.0264 -3.1995
    3MOL0     H  392   1.085   1.346   2.933 -0.2947 -1.3871  3.7538
    3MOL0     H  393   0.989   1.994   2.879  1.6696  3.1453  0.2907
    3MOL0     H  394   1.147   2.121   3.010  1.3894  0.8969 -0.7975
    3MOL0     H  395   1.556   1.964   3.118  1.1127  0.3076  0.9602
    3MOL0     H  396   1.550   2.030   2.950  0.4223 -3.8383  1.3572
    3MOL0     H  397   1.548   2.184   3.208  0.7957 -0.9525  0.7454
    3MOL0     H  398   1.539   2.256   3.041  5.3219  0.6788 -1.6118
    3MOL0     H  399   1.774   2.110   3.010 -2.0946 -0.8101  0.0943
    3MOL0     H  400   1.753   2.077   3.180 -3.1730  0.4302  1.0600
    3MOL0     H  401   1.774   2.381   3.085  2.0640  1.8526  0.3242
    3MOL0     H  402   1.913   2.291   3.144  0.0760 -0.3006  1.0601
    3MOL0     H  403   1.670   2.463   3.449 -4.7466 -4.8318  1.0396
    3MOL0     H  404   1.427   1.805   3.031  0.4335  0.3759  0.5468
    3MOL0     H  405   1.254   1.653   2.922  1.6670 -0.3264  1.1567
    4MOL0     O  406   5.911   5.680  10.856  0.0447 -0.3867  0.5709
    4MOL0     C  407   5.930   5.631  10.966 -1.1166 -0.5007 -0.2306
    4MOL0     O  408   6.043   5.658  11.049  0.2958 -0.0435 -0.4651
    4MOL0     C  409   6.112   5.773  11.032  0.4340  1.4955 -0.0908
    4MOL0     C  410   6.166   5.815  10.916  0.8587  0.1682  0.0642
    4MOL0     C  411   6.260   5.923  10.914  0.2246 -0.9514 -0.5814
    4MOL0     C  412   6.286   5.989  11.033 -0.6616 -0.4669 -0.1918
    4MOL0     O  413   6.332   6.118  11.029 -1.0663  0.6414 -0.3989
    4MOL0     C  414   6.258   6.232  11.071  0.6729  0.2426 -0.6626
    4MOL0     C  415   6.142   6.257  10.980  0.1342  0.1557  0.2063
    4MOL0     C  416   6.181   6.293  10.834 -0.1315  1.5451  0.1438
    4MOL0     C  417   6.062   6.319  10.733 -0.3346 -0.0273  0.0120
    4MOL0     C  418   6.117   6.373  10.609  0.6266 -0.1511 -0.2527
    4MOL0     C  419   6.007   6.372  10.497  0.3558  0.3806 -0.4665
    4MOL0     C  420   6.058   6.417  10.358  0.2215 -0.4579  0.4196
    4MOL0     C  421   5.965   6.377  10.248  1.1435 -0.0991 -0.7364
    4MOL0     N  422   5.992   6.470  10.142 -0.5511 -0.1411  0.1790
    4MOL0     C  423   5.912   6.572  10.109 -0.1701 -0.2016  0.0573
    4MOL0     C  424   5.961   6.622   9.994  0.0614  1.0579 -0.7364
    4MOL0     C  425   5.905   6.734   9.914  0.5902  0.8798  0.0800
    4MOL0     C  426   5.915   6.860   9.994  0.2939  0.3961 -1.0201
    4MOL0     C  427   6.044   6.936   9.997 -0.7383 -0.6057  0.0031
    4MOL0     C  428   6.068   7.018   9.869  0.3091 -0.4479 -0.0388
    4MOL0     O  429   6.200   7.076   9.870  0.1477  0.4321  0.7386
    4MOL0     C  430   6.208   7.215   9.898  0.0502  0.5491 -0.5748
    4MOL0     C  431   6.215   7.309   9.793  0.0008  0.0660  0.3631
    4MOL0     C  432   6.244   7.449   9.820 -0.2566 -1.1553  0.6683
    4MOL0     C  433   6.272   7.532   9.707  0.6520 -0.7630  0.2600
    4MOL0     C  434   6.253   7.494   9.956 -0.0751 -1.0565  0.4354
    4MOL0     C  435   6.262   7.636   9.996  0.2475 -0.2894 -0.2047
    4MOL0     O  436   6.270   7.652  10.133 -0.3742  0.1029 -0.1625
    4MOL0     C  437   6.325   7.772  10.191  0.1463  0.6413 -0.2373
    4MOL0     C  438   6.263   7.821  10.304  0.6066 -0.7337  0.2327
    4MOL0     C  439   6.316   7.948  10.362  0.0867  0.0239  0.2469
    4MOL0     C  440   6.439   8.007  10.313 -0.3379  0.0242 -0.0511
    4MOL0     O  441   6.488   8.127  10.359 -0.2790  0.4046 -0.7352
    4MOL0     C  442   6.490   8.149  10.500  0.3866 -0.7699  0.1563
    4MOL0     C  443   6.582   8.271  10.538 -1.0881 -0.4119  0.1344
    4MOL0     C  444   6.565   8.330  10.680 -0.0598 -0.0098  0.3759
    4MOL0     C  445   6.574   8.481  10.679 -0.2510 -0.2145  0.9320
    4MOL0     C  446   6.450   8.556  10.616 -0.1638  0.0768 -0.2841
    4MOL0     C  447   6.437   8.704  10.672 -0.2288  0.1353  1.0833
    4MOL0     C  448   6.539   8.802  10.609  0.0643 -0.0915 -0.1829
    4MOL0     C  449   6.522   8.947  10.614 -0.7248 -0.6675 -0.4323
    4MOL0    Cl  450   6.534   8.992  10.779  0.1594 -0.1082 -0.1208
    4MOL0     C  451   6.498   7.953  10.205  0.7575 -0.1150 -1.2770
    4MOL0     C  452   6.433   7.844  10.137 -0.5075 -0.0729 -0.4670
    4MOL0     O  453   6.274   7.730   9.913 -0.0141  0.2326  0.4493
    4MOL0     C  454   6.235   7.392  10.064 -0.3526 -0.7573  0.1222
    4MOL0     C  455   6.228   7.256  10.028  0.6674  0.1957 -0.7336
    4MOL0     N  456   6.086   6.567   9.966  0.6239  1.0857  0.3905
    4MOL0     N  457   6.103   6.482  10.063  0.0478 -0.0727 -0.5880
    4MOL0     C  458   6.229   5.944  11.151 -0.0671 -0.0092  0.3912
    4MOL0     C  459   6.150   5.834  11.147  1.2061  0.4491 -0.2995
    4MOL0     C  460   5.847   5.526  11.014 -0.2486 -0.1383 -0.1578
    4MOL0     C  461   5.764   5.452  10.929  0.2853 -0.9083 -0.5742
    4MOL0     C  462   5.703   5.332  10.964  0.4972  0.4384  0.1028
    4MOL0     C  463   5.716   5.288  11.091 -0.0795  0.2819  0.0401
    4MOL0     O  464   5.651   5.167  11.110  0.2833 -0.3728  0.3784
    4MOL0     C  465   5.643   5.113  11.241 -0.8727  0.5838 -0.2841
    4MOL0     C  466   5.765   5.018  11.270 -0.1462 -0.1046  1.2923
    4MOL0     C  467   5.774   4.889  11.192 -0.6678 -0.0223 -0.0536
    4MOL0     C  468   5.915   4.850  11.166  0.4698  1.4455 -0.2430
    4MOL0     C  469   5.987   4.821  11.292 -0.1794  0.5327 -0.2366
    4MOL0     C  470   6.034   4.781  11.394 -0.4299 -0.9098 -0.2881
    4MOL0     C  471   5.799   5.363  11.183  0.3421  0.6126 -0.5262
    4MOL0     C  472   5.868   5.474  11.144  0.6368 -0.0606 -0.9304
    4MOL0     H  473   6.127   5.773  10.823 -2.4951  1.9483  0.5093
    4MOL0     H  474   6.322   5.968  10.838  0.5855  0.4068  0.4814
    4MOL0     H  475   6.212   6.208  11.168  2.5555 -0.0525  0.2013
    4MOL0     H  476   6.317   6.322  11.089 -2.1169  2.0410  0.0245
    4MOL0     H  477   6.079   6.168  10.983 -2.1983  1.5729 -2.1716
    4MOL0     H  478   6.088   6.346  11.015 -2.1109 -0.7341 -0.8075
    4MOL0     H  479   6.235   6.387  10.849  1.2028  0.8981 -0.4286
    4MOL0     H  480   6.251   6.217  10.797  0.4621  0.9693  2.2479
    4MOL0     H  481   6.009   6.225  10.715  2.8890 -1.5429 -2.3922
    4MOL0     H  482   5.992   6.387  10.783 -5.5986 -3.5563 -1.7273
    4MOL0     H  483   6.168   6.467  10.629  3.0418 -1.3894 -0.3081
    4MOL0     H  484   6.190   6.305  10.564  1.4196  0.0919  0.6474
    4MOL0     H  485   5.943   6.283  10.494 -0.4272  0.8889  0.6001
    4MOL0     H  486   5.928   6.445  10.516 -0.2188  0.0243 -1.4519
    4MOL0     H  487   6.082   6.523  10.372  1.9920 -0.6824 -0.5790
    4MOL0     H  488   6.158   6.375  10.342 -0.3575 -3.2808  3.2470
    4MOL0     H  489   5.866   6.394  10.291  1.3956  2.2217 -0.9436
    4MOL0     H  490   5.974   6.272  10.219 -1.7815 -1.2514  1.9266
    4MOL0     H  491   5.814   6.604  10.145 -0.9434 -1.5987 -0.7183
    4MOL0     H  492   5.958   6.748   9.819 -1.9059  0.7185 -1.4132
    4MOL0     H  493   5.802   6.708   9.887  0.2800  0.4273  1.5922
    4MOL0     H  494   5.893   6.834  10.098  1.1341  1.8319 -0.4543
    4MOL0     H  495   5.839   6.932   9.964  1.3826  2.2698  0.4891
    4MOL0     H  496   6.127   6.868  10.022 -0.7795  0.0740  2.1855
    4MOL0     H  497   6.042   7.018  10.069 -0.4216  1.6635 -2.4017
    4MOL0     H  498   5.992   7.095   9.853  3.3205  2.7084 -0.6233
    4MOL0     H  499   6.053   6.938   9.797 -1.1625 -0.8501  0.6690
    4MOL0     H  500   6.226   7.272   9.691 -0.5882  0.3412  0.1957
    4MOL0     H  501   6.252   7.471   9.618 -0.0779 -0.5185  0.2476
    4MOL0     H  502   6.201   7.613   9.686  0.7006 -0.9630 -0.7203
    4MOL0     H  503   6.374   7.570   9.700  1.7258 -3.5504 -0.7675
    4MOL0     H  504   6.173   7.779  10.347 -1.3059  2.0257 -0.8068
    4MOL0     H  505   6.263   7.997  10.443 -0.8928 -0.8246  0.1407
    4MOL0     H  506   6.388   8.172  10.530 -0.0114  0.8573 -2.1178
    4MOL0     H  507   6.521   8.056  10.549 -2.2390 -1.3220  0.8967
    4MOL0     H  508   6.687   8.242  10.542 -0.9210  0.1792  0.0414
    4MOL0     H  509   6.582   8.349  10.462  0.5867  2.8188  3.1557
    4MOL0     H  510   6.632   8.279  10.751 -1.5037 -0.5170  1.4134
    4MOL0     H  511   6.465   8.299  10.709 -0.7798 -1.4297 -3.1545
    4MOL0     H  512   6.587   8.527  10.777  0.7082  4.0677 -0.9679
    4MOL0     H  513   6.671   8.500  10.632  0.3311 -0.1518  2.1206
    4MOL0     H  514   6.368   8.501  10.663  0.3157  1.0003  1.6992
    4MOL0     H  515   6.441   8.546  10.507 -2.7602  2.2067 -0.3773
    4MOL0     H  516   6.337   8.749  10.676  0.7069  2.2619  2.1885
    4MOL0     H  517   6.455   8.708  10.780  1.0432  2.1234  0.8346
    4MOL0     H  518   6.546   8.799  10.500  1.8483  4.9422 -0.4535
    4MOL0     H  519   6.639   8.781  10.649  0.0804 -0.3224 -0.3410
    4MOL0     H  520   6.422   8.959  10.571 -0.2486 -3.1822 -2.5132
    4MOL0     H  521   6.608   8.987  10.560 -1.8528 -0.2016 -1.9391
    4MOL0     H  522   6.593   7.997  10.176 -0.4152  3.0738 -0.6145
    4MOL0     H  523   6.471   7.799  10.046 -2.8779 -1.4076 -0.8805
    4MOL0     H  524   6.232   7.424  10.168 -0.5946 -0.4631  0.0249
    4MOL0     H  525   6.220   7.185  10.110  0.8094  0.6982 -0.2805
    4MOL0     H  526   6.274   5.975  11.245  4.4934  0.4825 -1.6730
    4MOL0     H  527   6.125   5.783  11.239 -2.2289 -0.4457 -1.5817
    4MOL0     H  528   5.740   5.484  10.829  2.4332  1.7343 -0.3473
    4MOL0     H  529   5.638   5.270  10.903  0.9212 -0.3849  0.4775
    4MOL0     H  530   5.644   5.192  11.316  3.5953  0.7450 -0.2408
    4MOL0     H  531   5.548   5.059  11.236 -2.7940  3.7530 -0.5193
    4MOL0     H  532   5.730   4.991  11.371 -0.0611  2.5408  2.0979
    4MOL0     H  533   5.866   5.061  11.270 -1.0002  2.0103  0.6217
    4MOL0     H  534   5.733   4.892  11.090  0.0835 -2.4697 -0.4747
    4MOL0     H  535   5.721   4.811  11.246 -0.1572 -0.4184 -0.1249
    4MOL0     H  536   5.968   4.919  11.099 -0.9329  1.3612 -1.4668
    4MOL0     H  537   5.920   4.749  11.126  4.5150  1.3288  0.1060
    4MOL0     H  538   6.094   4.747  11.477  2.7741  2.4332 -0.9601
    4MOL0     H  539   5.804   5.322  11.284  1.3492  0.7142 -0.5223
    4MOL0     H  540   5.922   5.532  11.219  0.2561  1.2196 -1.6083
    5MOL0     O  541   4.489   9.966   7.225 -0.4818 -0.1192 -0.0875
    5MOL0     C  542   4.445   9.870   7.281 -0.7776 -0.4628 -0.4904
    5MOL0     O  543   4.370   9.768   7.215 -0.3342  0.4625 -0.3245
    5MOL0     C  544   4.297   9.792   7.099 -0.5152  0.2973  0.2939
    5MOL0     C  545   4.240   9.920   7.065  0.5423 -0.0763 -0.0662
    5MOL0     C  546   4.181   9.943   6.942 -0.2879 -0.1006 -0.0281
    5MOL0     C  547   4.178   9.839   6.846  0.3374 -0.1322 -0.0888
    5MOL0     O  548   4.116   9.861   6.724  0.3411  0.7183  0.0813
    5MOL0     C  549   3.999   9.789   6.693  0.9832  0.8751 -0.5131
    5MOL0     C  550   3.960   9.795   6.542 -0.2748  0.4843 -0.1611
    5MOL0     C  551   3.848   9.886   6.496 -0.7227 -0.5999 -0.8044
    5MOL0     C  552   3.803   9.860   6.359  0.0465  0.3942 -0.1383
    5MOL0     C  553   3.724   9.973   6.289  0.3433  0.0030 -0.7143
    5MOL0     C  554   3.815  10.086   6.213  0.9729 -0.5302  0.2497
    5MOL0     C  555   3.710  10.179   6.146 -0.5470  0.5200 -0.5546
    5MOL0     C  556   3.781  10.286   6.057  0.6739  1.1473  0.6216
    5MOL0     N  557   3.857  10.222   5.944 -0.2202 -0.9904 -0.2094
    5MOL0     C  558   3.795  10.175   5.834  0.0753 -0.4405  0.4187
    5MOL0     C  559   3.903  10.138   5.761  0.6037 -0.2443  0.4081
    5MOL0     C  560   3.894  10.079   5.620 -0.2662 -0.6671 -0.1198
    5MOL0     C  561   3.889   9.928   5.592  0.7748 -0.4849  0.5382
    5MOL0     C  562   3.790   9.869   5.695  1.2497  0.0219 -0.1079
    5MOL0     C  563   3.649   9.910   5.661 -1.1411 -0.2770 -0.8216
    5MOL0     O  564   3.575   9.853   5.767  0.0131  0.2305  0.0562
    5MOL0     C  565   3.439   9.847   5.742 -0.8206  0.2708 -0.6528
    5MOL0     C  566   3.367   9.930   5.649  0.2023  0.8861 -0.3676
    5MOL0     C  567   3.226   9.927   5.638  0.2856  0.6258 -0.0218
    5MOL0     C  568   3.168  10.028   5.546  0.0924  0.4124  0.6618
    5MOL0     C  569   3.142   9.833   5.717  0.3004  0.2436 -0.0085
    5MOL0     C  570   3.000   9.835   5.713  0.7153  0.3347  0.1834
    5MOL0     O  571   2.934   9.952   5.754  0.4680  0.4981 -0.6824
    5MOL0     C  572   2.795   9.960   5.735 -0.3803  0.3808  0.3998
    5MOL0     C  573   2.691   9.908   5.819  0.4287  0.3869 -0.2179
    5MOL0     C  574   2.560   9.923   5.792 -0.0864  0.9876  0.6232
    5MOL0     C  575   2.527   9.976   5.670 -0.2246 -0.5921 -0.3465
    5MOL0     O  576   2.397   9.989   5.643  0.7017  0.5156 -0.0521
    5MOL0     C  577   2.341  10.119   5.614  0.4214 -0.2810 -0.2942
    5MOL0     C  578   2.298  10.176   5.750  0.4971  0.2753 -0.1488
    5MOL0     C  579   2.208  10.303   5.740  0.7376  0.1520 -0.3333
    5MOL0     C  580   2.062  10.258   5.698  0.1217  0.2081 -0.5968
    5MOL0     C  581   1.970  10.375   5.682  0.2793  1.0643  0.0381
    5MOL0     C  582   1.944  10.443   5.807 -0.5471 -0.1083  0.0625
    5MOL0     C  583   1.844  10.556   5.807 -0.3915 -0.4374 -0.3970
    5MOL0     C  584   1.865  10.659   5.699 -1.6614 -0.0657  0.2638
    5MOL0    Cl  585   2.028  10.732   5.715 -0.3260  0.4379 -0.3299
    5MOL0     C  586   2.623  10.012   5.570  0.5369  0.0051 -0.0543
    5MOL0     C  587   2.760  10.001   5.609  0.2862  0.5458 -0.4948
    5MOL0     O  588   2.946   9.740   5.662 -0.9829  0.1305 -0.1955
    5MOL0     C  589   3.212   9.742   5.799 -0.1871 -0.6487  0.5033
    5MOL0     C  590   3.356   9.751   5.809 -0.0965 -0.7772  0.2995
    5MOL0     N  591   4.019  10.163   5.829  0.6246 -0.3147  0.3216
    5MOL0     N  592   3.990  10.200   5.937  0.7103 -0.0492  0.1419
    5MOL0     C  593   4.211   9.713   6.891  0.4189  1.0477 -0.7987
    5MOL0     C  594   4.274   9.691   7.013  0.3801  0.2714  0.0735
    5MOL0     C  595   4.486   9.851   7.418 -0.6241 -0.0126  0.1041
    5MOL0     C  596   4.398   9.778   7.494 -0.0167 -0.7558 -0.3122
    5MOL0     C  597   4.418   9.757   7.637  0.2519  0.4128  0.3864
    5MOL0     C  598   4.534   9.794   7.697  0.6742  0.2110 -0.2148
    5MOL0     O  599   4.567   9.763   7.826  0.6642  0.1824  0.0569
    5MOL0     C  600   4.470   9.695   7.909 -0.4517  0.2334  0.0462
    5MOL0     C  601   4.518   9.680   8.058 -0.4821  0.1438  0.6903
    5MOL0     C  602   4.408   9.654   8.152 -0.6696  0.6023  0.6645
    5MOL0     C  603   4.432   9.552   8.269 -0.0471 -0.6575  0.8024
    5MOL0     C  604   4.508   9.430   8.224  0.2867 -0.4242  0.0905
    5MOL0     C  605   4.570   9.335   8.179  0.0786  0.1184  0.4281
    5MOL0     C  606   4.626   9.857   7.614  0.0212 -0.2094  0.2686
    5MOL0     C  607   4.604   9.888   7.480 -0.1710  0.3583  1.0887
    5MOL0     H  608   4.243   9.996   7.143 -2.4604 -2.5386  2.7673
    5MOL0     H  609   4.154  10.044   6.913 -3.2310 -0.4330  1.0749
    5MOL0     H  610   4.007   9.682   6.716 -1.8459  0.8204  0.5612
    5MOL0     H  611   3.926   9.838   6.758 -0.5687 -0.1381 -1.4366
    5MOL0     H  612   4.057   9.797   6.492  2.4651 -1.7154  4.3989
    5MOL0     H  613   3.914   9.697   6.529  0.6376  0.1129 -0.6012
    5MOL0     H  614   3.761   9.862   6.558 -1.6932 -0.0387 -1.9085
    5MOL0     H  615   3.870   9.992   6.511 -2.4022 -0.5729  2.4257
    5MOL0     H  616   3.893   9.836   6.300 -0.8902 -0.2904 -1.3360
    5MOL0     H  617   3.739   9.771   6.360  1.7079 -0.8634  0.5158
    5MOL0     H  618   3.671   9.929   6.204  1.0023 -2.5900  0.1239
    5MOL0     H  619   3.651  10.014   6.359 -0.4414 -1.6894 -0.4896
    5MOL0     H  620   3.880  10.142   6.281  1.8896 -0.9918 -0.2258
    5MOL0     H  621   3.872  10.042   6.131  3.2655  1.9598  0.3801
    5MOL0     H  622   3.648  10.121   6.077 -0.1376 -1.4621  0.6877
    5MOL0     H  623   3.649  10.231   6.221  3.9020  2.2386  2.2587
    5MOL0     H  624   3.838  10.357   6.118  2.4390  0.2023  0.1541
    5MOL0     H  625   3.696  10.343   6.020  0.6931 -0.2477 -1.7521
    5MOL0     H  626   3.692  10.156   5.808  0.8799  0.4902 -4.5395
    5MOL0     H  627   3.807  10.127   5.572  1.5933  2.0359 -1.0001
    5MOL0     H  628   3.982  10.120   5.571 -1.3438 -0.9637 -2.4585
    5MOL0     H  629   3.974   9.859   5.599  0.7176 -0.4869  1.2931
    5MOL0     H  630   3.855   9.927   5.489  0.3140 -0.9118  0.6897
    5MOL0     H  631   3.827   9.895   5.794  2.9506  4.2525 -1.5704
    5MOL0     H  632   3.781   9.761   5.683 -0.0909  0.0423  0.5887
    5MOL0     H  633   3.618   9.879   5.561  0.4586  1.8152 -2.0494
    5MOL0     H  634   3.643  10.019   5.665 -1.0652 -0.2839 -0.4643
    5MOL0     H  635   3.425  10.002   5.592 -2.1120 -0.9587 -5.6868
    5MOL0     H  636   3.073   9.997   5.501  1.0842 -3.0694  0.6724
    5MOL0     H  637   3.150  10.125   5.594 -1.7397 -0.0731  1.0145
    5MOL0     H  638   3.225  10.044   5.454 -1.7431 -3.3413 -1.3716
    5MOL0     H  639   2.730   9.871   5.913  0.7416 -1.8557 -1.1835
    5MOL0     H  640   2.485   9.904   5.868 -0.0364 -2.9483 -0.0872
    5MOL0     H  641   2.412  10.183   5.562  1.9316 -0.5702  1.3204
    5MOL0     H  642   2.258  10.104   5.543  0.7248 -1.8249 -0.3534
    5MOL0     H  643   2.251  10.098   5.811 -0.4446 -0.3701 -1.6437
    5MOL0     H  644   2.392  10.201   5.800  1.4027  0.5642 -1.9293
    5MOL0     H  645   2.242  10.376   5.666 -2.9135  2.0735 -0.3354
    5MOL0     H  646   2.204  10.346   5.841  1.3661 -2.7071  1.0135
    5MOL0     H  647   2.072  10.205   5.603  0.7179 -5.0609  2.0164
    5MOL0     H  648   2.023  10.177   5.761  0.0748 -0.7122 -1.7709
    5MOL0     H  649   1.871  10.345   5.645 -0.9702  5.9778 -1.3009
    5MOL0     H  650   2.010  10.443   5.607  1.7722 -1.3777 -1.5328
    5MOL0     H  651   1.893  10.364   5.863 -3.1934  0.0167 -2.0141
    5MOL0     H  652   2.040  10.470   5.854 -1.2976  0.1366  1.5045
    5MOL0     H  653   1.833  10.607   5.903  0.7679  0.1259 -0.5420
    5MOL0     H  654   1.745  10.516   5.787 -0.7376  0.2077 -0.0008
    5MOL0     H  655   1.793  10.741   5.700 -1.1413  0.5499 -2.8178
    5MOL0     H  656   1.868  10.605   5.604 -0.5727 -0.7985  0.6956
    5MOL0     H  657   2.589  10.037   5.470 -0.8046 -2.3294 -0.2607
    5MOL0     H  658   2.835  10.029   5.536  0.2137  2.2483  0.0368
    5MOL0     H  659   3.166   9.671   5.867  0.5258 -0.8681  0.7656
    5MOL0     H  660   3.407   9.685   5.879  1.2401 -1.5378 -1.3145
    5MOL0     H  661   4.199   9.625   6.829  0.4305  0.1733  0.4016
    5MOL0     H  662   4.303   9.594   7.054  0.8640  0.3732 -0.0211
    5MOL0     H  663   4.313   9.737   7.440 -0.6073 -1.1727  0.8844
    5MOL0     H  664   4.355   9.684   7.687 -1.8795  1.3772 -0.7679
    5MOL0     H  665   4.376   9.751   7.907 -1.5371 -1.5088  0.5655
    5MOL0     H  666   4.445   9.595   7.873  1.9516  0.1219 -1.5412
    5MOL0     H  667   4.554   9.779   8.089 -2.0765  0.1959  2.5912
    5MOL0     H  668   4.598   9.607   8.064 -2.4730 -2.5738 -2.3866
    5MOL0     H  669   4.311   9.627   8.108 -0.5452 -1.0251  1.3075
    5MOL0     H  670   4.384   9.747   8.203 -3.2081  0.4544 -0.1180
    5MOL0     H  671   4.335   9.532   8.316  0.7715 -3.6620  1.4139
    5MOL0     H  672   4.482   9.611   8.346 -0.2674 -1.2624  1.4257
    5MOL0     H  673   4.624   9.256   8.130  1.2134  2.5533 -2.5989
    5MOL0     H  674   4.722   9.874   7.662  0.5988 -2.4867  0.0723
    5MOL0     H  675   4.687   9.936   7.428  0.7413  0.0353  2.2011
    6MOL0     O  676   9.396   6.042   1.311  0.0264  0.8466 -0.6775
    6MOL0     C  677   9.462   6.078   1.212 -1.2775  0.1760 -0.0578
    6MOL0     O  678   9.482   6.205   1.177 -0.5483 -0.0243  0.8457
    6MOL0     C  679   9.421   6.304   1.247  0.6274 -0.9012 -0.5279
    6MOL0     C  680   9.287   6.330   1.250 -0.7348  0.3433 -0.2316
    6MOL0     C  681   9.225   6.433   1.332 -0.6907  0.8532  0.2817
    6MOL0     C  682   9.315   6.502   1.413 -0.5752 -0.3093 -0.0650
    6MOL0     O  683   9.278   6.596   1.515  0.4171  0.3697  0.1098
    6MOL0     C  684   9.143   6.639   1.522  0.3047  0.7407  0.1488
    6MOL0     C  685   9.070   6.540   1.615  0.0608  0.2235  0.5620
    6MOL0     C  686   8.926   6.578   1.669 -0.7410 -1.1924  0.4584
    6MOL0     C  687   8.951   6.674   1.786 -0.3724 -0.9461 -0.7658
    6MOL0     C  688   8.820   6.728   1.838 -0.3943  0.6251 -0.1031
    6MOL0     C  689   8.856   6.842   1.939  0.2179 -0.2091 -0.3999
    6MOL0     C  690   8.725   6.915   1.978 -0.3175 -0.0121 -0.6024
    6MOL0     C  691   8.752   7.040   2.061  0.1091 -0.1438 -0.3282
    6MOL0     N  692   8.631   7.086   2.113 -0.1563  0.1550 -0.7200
    6MOL0     C  693   8.525   7.133   2.032  0.3754  0.6444  0.2719
    6MOL0     C  694   8.421   7.139   2.108  0.6925 -0.5596 -0.5326
    6MOL0     C  695   8.287   7.185   2.060 -0.1581  1.2399  0.5223
    6MOL0     C  696   8.192   7.223   2.172  0.6916 -0.1068 -1.5160
    6MOL0     C  697   8.196   7.370   2.215 -0.6807 -0.6829 -0.2742
    6MOL0     C  698   8.300   7.400   2.320 -0.2741  0.1563 -0.1399
    6MOL0     O  699   8.261   7.348   2.443  0.1413 -0.2774  0.5662
    6MOL0     C  700   8.347   7.326   2.548  0.7706  0.0894 -0.1036
    6MOL0     C  701   8.312   7.342   2.680  0.2571  0.4514  0.2069
    6MOL0     C  702   8.401   7.307   2.787  0.5353  0.3268 -0.4924
    6MOL0     C  703   8.363   7.327   2.933 -0.9296  0.4386 -0.1090
    6MOL0     C  704   8.531   7.252   2.760  0.4870  0.7264 -0.5515
    6MOL0     C  705   8.615   7.177   2.859  0.4534 -0.4386 -0.0917
    6MOL0     O  706   8.750   7.170   2.846 -0.1865  0.0470  0.5525
    6MOL0     C  707   8.810   7.091   2.936 -0.1479  0.4470  1.8456
    6MOL0     C  708   8.825   6.959   2.915  0.6499  0.0010  0.7485
    6MOL0     C  709   8.869   6.861   3.007 -0.6064 -0.2354  0.0262
    6MOL0     C  710   8.897   6.905   3.136 -0.8939  0.3280  0.0368
    6MOL0     O  711   8.929   6.814   3.233 -0.1901 -0.3619  0.1240
    6MOL0     C  712   8.998   6.700   3.192  0.1040  1.2743  0.8943
    6MOL0     C  713   9.113   6.674   3.278  0.2496  0.5675  0.4782
    6MOL0     C  714   9.215   6.790   3.273 -0.6561  1.4442 -0.6420
    6MOL0     C  715   9.314   6.772   3.385 -0.1310 -0.7742 -0.4125
    6MOL0     C  716   9.392   6.892   3.429 -0.1239  0.3683  0.7208
    6MOL0     C  717   9.323   7.024   3.466 -0.6256  0.5368 -0.1122
    6MOL0     C  718   9.408   7.098   3.570  0.0177  0.0519 -1.1167
    6MOL0     C  719   9.335   7.236   3.598 -0.5328  0.0996  0.0508
    6MOL0    Cl  720   9.359   7.356   3.471  0.1418  0.6445  0.1380
    6MOL0     C  721   8.879   7.038   3.167  0.0303 -0.3983 -0.7176
    6MOL0     C  722   8.842   7.134   3.068  0.0926 -0.5427 -0.5985
    6MOL0     O  723   8.545   7.113   2.945 -0.7731 -0.1432 -0.5231
    6MOL0     C  724   8.563   7.235   2.627 -1.0268 -1.3806 -0.0628
    6MOL0     C  725   8.472   7.283   2.524 -1.2756  0.9673 -1.0436
    6MOL0     N  726   8.470   7.123   2.238 -0.8844 -0.1844 -0.3324
    6MOL0     N  727   8.596   7.087   2.240  0.0729 -0.3436  0.0515
    6MOL0     C  728   9.459   6.475   1.403  0.1600 -0.1426 -1.2086
    6MOL0     C  729   9.508   6.370   1.333 -0.1739 -0.4993 -0.0051
    6MOL0     C  730   9.543   5.983   1.135 -0.5001 -0.6345  0.4909
    6MOL0     C  731   9.590   6.015   1.005 -0.5367  1.2878  0.0035
    6MOL0     C  732   9.677   5.926   0.934 -0.4143  0.3580  0.4583
    6MOL0     C  733   9.703   5.804   0.985  0.5666  0.5329 -0.3271
    6MOL0     O  734   9.783   5.714   0.916 -0.6336  0.9726  0.2460
    6MOL0     C  735   9.915   5.752   0.870 -0.2151 -0.8783  0.1755
    6MOL0     C  736   9.997   5.768   1.000 -0.5305 -0.1204 -0.6591
    6MOL0     C  737  10.144   5.813   0.983  0.2423  0.2670  0.6601
    6MOL0     C  738  10.236   5.806   1.121  0.5256 -0.1815 -0.4682
    6MOL0     C  739  10.367   5.863   1.096 -1.3401 -0.0370  0.4208
    6MOL0     C  740  10.480   5.909   1.082 -0.5362 -0.6105 -0.4450
    6MOL0     C  741   9.659   5.768   1.110 -0.9201  0.4606  0.9152
    6MOL0     C  742   9.579   5.853   1.183  0.3027  0.7345 -0.7848
    6MOL0     H  743   9.226   6.270   1.182 -1.1411 -2.7583  2.6100
    6MOL0     H  744   9.118   6.450   1.343 -0.6350  0.3292  1.8969
    6MOL0     H  745   9.126   6.736   1.570 -2.6510  1.0582 -1.3176
    6MOL0     H  746   9.106   6.660   1.422  2.1187  1.3977 -0.4144
    6MOL0     H  747   9.064   6.443   1.564 -2.1659  1.1484 -1.0841
    6MOL0     H  748   9.143   6.522   1.694 -0.7211  1.7425  1.6825
    6MOL0     H  749   8.857   6.618   1.593  1.1537 -1.2447 -1.3864
    6MOL0     H  750   8.870   6.498   1.717 -4.7418  2.4631  2.6676
    6MOL0     H  751   8.992   6.632   1.878 -2.9327 -0.7709  0.5346
    6MOL0     H  752   9.023   6.750   1.756 -0.0464 -1.9466 -2.7147
    6MOL0     H  753   8.771   6.771   1.750 -2.3309 -1.7093 -0.2628
    6MOL0     H  754   8.741   6.665   1.880 -3.0138  3.2369 -0.7620
    6MOL0     H  755   8.899   6.786   2.023  1.5236 -1.4491 -1.8378
    6MOL0     H  756   8.925   6.923   1.913 -0.4928  0.5148 -0.1068
    6MOL0     H  757   8.670   6.948   1.889 -1.1915  0.1821  0.0034
    6MOL0     H  758   8.667   6.842   2.035 -0.3919  0.7971  0.3829
    6MOL0     H  759   8.807   7.113   2.002  0.6736  1.6643  2.2518
    6MOL0     H  760   8.825   7.017   2.139  0.8219 -1.1283 -1.2643
    6MOL0     H  761   8.518   7.161   1.927 -0.6884 -0.7415 -0.0622
    6MOL0     H  762   8.290   7.270   1.991 -0.1204  0.4438 -0.4954
    6MOL0     H  763   8.224   7.116   2.004  1.5731  1.7148 -2.2401
    6MOL0     H  764   8.189   7.159   2.261 -1.4668  2.7179  0.6194
    6MOL0     H  765   8.092   7.221   2.129  0.8125  0.2766 -1.8148
    6MOL0     H  766   8.096   7.403   2.245 -0.1100  0.7448  0.1346
    6MOL0     H  767   8.217   7.426   2.123  3.0446 -2.7929 -0.8988
    6MOL0     H  768   8.317   7.505   2.345  0.6486 -0.4054  1.7624
    6MOL0     H  769   8.395   7.365   2.280 -1.3354  1.3892 -4.1555
    6MOL0     H  770   8.211   7.369   2.706  0.6129  0.1096  2.1229
    6MOL0     H  771   8.447   7.372   2.987 -1.4118 -0.1406  1.1730
    6MOL0     H  772   8.274   7.390   2.921 -0.5568  1.1424  0.7043
    6MOL0     H  773   8.330   7.238   2.988  1.5878 -0.1325  0.6356
    6MOL0     H  774   8.801   6.922   2.816  0.0401 -2.0694  1.6214
    6MOL0     H  775   8.880   6.758   2.973  0.0538 -1.0798  2.5896
    6MOL0     H  776   8.930   6.616   3.175  0.9950  0.6342  0.3845
    6MOL0     H  777   9.049   6.704   3.095  1.0717  0.7477  1.3778
    6MOL0     H  778   9.073   6.641   3.375  0.8512 -0.6348  0.3403
    6MOL0     H  779   9.169   6.590   3.236 -2.2376 -0.1023 -1.7676
    6MOL0     H  780   9.165   6.887   3.274 -1.1779  1.1915  1.6732
    6MOL0     H  781   9.265   6.779   3.176  2.7261 -0.8624  1.1794
    6MOL0     H  782   9.266   6.735   3.476  1.2426 -2.1598 -0.2102
    6MOL0     H  783   9.389   6.701   3.350  2.9565  3.8821 -4.6418
    6MOL0     H  784   9.469   6.909   3.354 -0.6709  0.0381  0.0727
    6MOL0     H  785   9.450   6.852   3.513  0.3743 -1.8343 -0.5700
    6MOL0     H  786   9.304   7.088   3.379  2.0365  2.3745  0.5437
    6MOL0     H  787   9.221   7.005   3.502 -0.0013 -3.5084  0.0726
    6MOL0     H  788   9.511   7.120   3.542 -0.0045  1.5591 -0.1947
    6MOL0     H  789   9.403   7.051   3.669  0.6004  0.9545 -0.6370
    6MOL0     H  790   9.387   7.269   3.688  1.0763 -0.8547 -0.4712
    6MOL0     H  791   9.232   7.208   3.619 -0.4957 -0.3588 -0.3688
    6MOL0     H  792   8.885   7.073   3.269  0.7862 -1.6768 -0.3028
    6MOL0     H  793   8.815   7.236   3.093 -0.5904 -0.0238 -3.1560
    6MOL0     H  794   8.660   7.195   2.598 -1.7892 -0.4676 -4.4694
    6MOL0     H  795   8.511   7.271   2.423 -1.1752 -1.5274 -0.7554
    6MOL0     H  796   9.515   6.551   1.457  0.3919  0.2788 -2.0229
    6MOL0     H  797   9.615   6.356   1.326 -0.4161 -1.8569 -1.7347
    6MOL0     H  798   9.573   6.108   0.953 -0.7008  0.4351 -1.5146
    6MOL0     H  799   9.711   5.950   0.834  1.7922 -1.4818  0.6731
    6MOL0     H  800   9.962   5.682   0.801  1.5882  1.1295 -0.7428
    6MOL0     H  801   9.907   5.845   0.813  2.0955  0.0034  1.1671
    6MOL0     H  802   9.994   5.677   1.060  1.1305  0.9232  1.1560
    6MOL0     H  803   9.950   5.846   1.061  0.6597 -0.7848  1.2045
    6MOL0     H  804  10.142   5.908   0.928  1.7216 -0.6076 -1.0067
    6MOL0     H  805  10.194   5.733   0.927 -1.2670 -2.4217  2.9288
    6MOL0     H  806  10.240   5.702   1.153 -1.1951  0.0422  0.5576
    6MOL0     H  807  10.184   5.855   1.204  1.5433 -2.3096  1.5231
    6MOL0     H  808  10.573   5.957   1.063  0.5298 -2.9092 -1.3145
    6MOL0     H  809   9.692   5.667   1.133 -0.0448  0.6395  0.5015
    6MOL0     H  810   9.539   5.820   1.278  0.7054 -0.2795 -0.9581
    7MOL0     O  811   5.601   9.619   6.144 -0.1401  0.5973  0.0764
    7MOL0     C  812   5.565   9.549   6.241  0.2088  0.1117 -0.5516
    7MOL0     O  813   5.630   9.445   6.295  0.0844  0.6940  1.1645
    7MOL0     C  814   5.735   9.382   6.230 -0.6384  0.2396 -0.7022
    7MOL0     C  815   5.813   9.293   6.307  0.2102 -0.0657  0.5724
    7MOL0     C  816   5.917   9.217   6.253 -0.5756  0.3250  0.4052
    7MOL0     C  817   5.946   9.218   6.115  0.5009 -1.0296 -0.3054
    7MOL0     O  818   6.036   9.141   6.056 -0.6336 -0.4030 -0.1432
    7MOL0     C  819   6.124   9.203   5.963  0.5214 -0.5741 -0.4457
    7MOL0     C  820   6.260   9.138   5.986 -0.2713 -0.6338 -0.0401
    7MOL0     C  821   6.346   9.145   5.858  0.2173  0.5267  0.3632
    7MOL0     C  822   6.326   9.020   5.772  0.2213 -1.3130 -0.4745
    7MOL0     C  823   6.410   9.029   5.637 -0.1106  0.2026 -0.7372
    7MOL0     C  824   6.561   8.994   5.669 -0.0402 -0.6802 -0.1512
    7MOL0     C  825   6.625   8.958   5.533  0.2367  0.1527 -0.1903
    7MOL0     C  826   6.619   8.807   5.495 -0.4534 -0.1193 -0.8753
    7MOL0     N  827   6.662   8.780   5.356 -0.4857  0.3894 -0.3671
    7MOL0     C  828   6.763   8.697   5.306  0.0287 -0.3641 -0.5082
    7MOL0     C  829   6.751   8.702   5.171  0.4250 -1.1603 -0.4698
    7MOL0     C  830   6.814   8.601   5.077 -0.3024  0.4950 -0.0000
    7MOL0     C  831   6.722   8.490   5.018 -0.2320 -0.3395  0.6912
    7MOL0     C  832   6.794   8.380   4.945 -0.0024  0.2194 -0.2627
    7MOL0     C  833   6.696   8.295   4.870  0.2928  0.4457 -0.3652
    7MOL0     O  834   6.702   8.339   4.733 -0.7151 -0.2857  0.0017
    7MOL0     C  835   6.593   8.319   4.651 -0.7596 -0.4476  0.1628
    7MOL0     C  836   6.487   8.236   4.686 -0.0996  0.0119 -1.0272
    7MOL0     C  837   6.381   8.206   4.611  0.4716  0.6318 -0.1008
    7MOL0     C  838   6.268   8.122   4.670  0.4751 -0.2423 -0.6249
    7MOL0     C  839   6.367   8.271   4.483  0.2169 -0.3329 -0.5560
    7MOL0     C  840   6.255   8.251   4.392 -0.7736 -0.1133 -0.7456
    7MOL0     O  841   6.195   8.121   4.384  0.7601  0.0190 -0.3023
    7MOL0     C  842   6.089   8.099   4.302 -0.3801 -0.3719  1.4251
    7MOL0     C  843   6.099   8.132   4.165  0.6016  0.2666 -0.2615
    7MOL0     C  844   5.998   8.099   4.073  0.3168 -0.1978 -0.2637
    7MOL0     C  845   5.898   8.018   4.120  0.0025 -1.3681 -1.0070
    7MOL0     O  846   5.788   7.981   4.046  0.4810  0.6346  0.2334
    7MOL0     C  847   5.770   8.022   3.911 -0.6299 -0.4661  0.1560
    7MOL0     C  848   5.646   7.943   3.859  0.2215  0.8051  0.1776
    7MOL0     C  849   5.628   7.928   3.704  0.2123 -0.0872  0.2698
    7MOL0     C  850   5.518   8.028   3.660 -0.3840 -0.6865 -0.1892
    7MOL0     C  851   5.501   8.043   3.510  0.0524  0.0297 -0.9924
    7MOL0     C  852   5.448   7.922   3.444 -0.1255  0.2206 -0.0090
    7MOL0     C  853   5.301   7.883   3.461  0.1573 -1.0971  0.6705
    7MOL0     C  854   5.240   7.812   3.341 -0.2692  0.1066 -0.3904
    7MOL0    Cl  855   5.321   7.657   3.318  0.5758 -0.3359 -0.4867
    7MOL0     C  856   5.891   7.983   4.256  0.3883  0.4674  0.3209
    7MOL0     C  857   5.983   8.027   4.353  0.2447 -0.7189  0.4145
    7MOL0     O  858   6.210   8.357   4.340  0.4881  0.3658 -0.3397
    7MOL0     C  859   6.468   8.360   4.441 -0.3310  0.5140 -0.1210
    7MOL0     C  860   6.578   8.377   4.528 -1.0538 -1.0050 -0.6259
    7MOL0     N  861   6.649   8.780   5.137 -0.3531  0.5378 -0.5603
    7MOL0     N  862   6.606   8.835   5.243 -0.1191 -0.7308 -0.4677
    7MOL0     C  863   5.870   9.312   6.034 -0.0988 -0.4417  0.9629
    7MOL0     C  864   5.768   9.385   6.095 -0.0995  0.0293 -0.2956
    7MOL0     C  865   5.428   9.571   6.293 -0.5084  0.0702  0.4230
    7MOL0     C  866   5.376   9.494   6.401  0.1305  1.4711 -0.0793
    7MOL0     C  867   5.251   9.516   6.454  0.5994 -0.0761 -0.5152
    7MOL0     C  868   5.165   9.610   6.390 -0.2357  0.2766  0.3908
    7MOL0     O  869   5.043   9.652   6.435  0.1752 -0.3503 -1.3327
    7MOL0     C  870   4.971   9.562   6.526  0.5411 -0.4832 -0.5652
    7MOL0     C  871   4.820   9.557   6.514 -0.6778 -0.3094  0.7249
    7MOL0     C  872   4.765   9.429   6.575  0.4720  0.7850  0.3741
    7MOL0     C  873   4.623   9.408   6.521 -0.4625  1.0570  0.1631
    7MOL0     C  874   4.533   9.501   6.578 -0.4369  0.7439  1.1421
    7MOL0     C  875   4.464   9.583   6.634  1.1314  0.5263 -0.5605
    7MOL0     C  876   5.214   9.684   6.276  0.5283  0.1264  0.0149
    7MOL0     C  877   5.344   9.662   6.232  0.3720  0.5593  0.2755
    7MOL0     H  878   5.781   9.294   6.411 -1.2436  0.5795  0.1445
    7MOL0     H  879   5.986   9.165   6.319  1.7521  1.6119 -0.8785
    7MOL0     H  880   6.088   9.177   5.863 -1.6689  1.1940 -0.2064
    7MOL0     H  881   6.125   9.311   5.984  2.7189 -0.7494  0.5910
    7MOL0     H  882   6.315   9.183   6.070  0.4225 -0.3584 -0.6326
    7MOL0     H  883   6.247   9.035   6.019  0.6886 -0.9333 -0.5887
    7MOL0     H  884   6.318   9.235   5.802  2.5971  0.1852 -1.5788
    7MOL0     H  885   6.451   9.143   5.888 -0.3087 -0.5723  2.2834
    7MOL0     H  886   6.357   8.937   5.836  1.1568  0.1228  1.0273
    7MOL0     H  887   6.222   9.003   5.744 -0.2463  2.3525 -1.3948
    7MOL0     H  888   6.382   8.946   5.572  1.7230 -2.2147  1.3475
    7MOL0     H  889   6.384   9.125   5.592 -1.6940  0.7351  1.1429
    7MOL0     H  890   6.601   9.089   5.706 -0.9587  1.0394 -3.2322
    7MOL0     H  891   6.578   8.915   5.744  0.2318  0.6346  1.2226
    7MOL0     H  892   6.577   9.024   5.460 -3.1096 -0.6010  1.1197
    7MOL0     H  893   6.729   8.987   5.551  0.0583  1.6659 -1.4205
    7MOL0     H  894   6.513   8.789   5.513  0.2237 -0.6332  4.0066
    7MOL0     H  895   6.672   8.737   5.561 -2.4533 -1.3788 -0.5258
    7MOL0     H  896   6.831   8.637   5.365  0.1272  1.1616  1.0176
    7MOL0     H  897   6.867   8.654   4.998  3.7470  0.1727  2.2367
    7MOL0     H  898   6.887   8.542   5.133 -1.7780 -0.6140  0.8346
    7MOL0     H  899   6.655   8.540   4.947  0.7306 -0.1861 -0.1272
    7MOL0     H  900   6.657   8.442   5.092 -0.3524 -3.8811 -1.4729
    7MOL0     H  901   6.855   8.327   5.019 -0.1521 -1.0434 -1.0242
    7MOL0     H  902   6.873   8.415   4.877  1.0349 -2.1690 -0.3769
    7MOL0     H  903   6.593   8.305   4.906 -0.3368  0.3542 -2.0838
    7MOL0     H  904   6.719   8.189   4.865 -0.4145  0.3624 -2.8004
    7MOL0     H  905   6.501   8.174   4.774 -0.1315  1.6418  0.1731
    7MOL0     H  906   6.292   8.085   4.770 -0.3002 -0.2197 -0.4196
    7MOL0     H  907   6.189   8.195   4.688  0.0979 -0.8467  0.2882
    7MOL0     H  908   6.229   8.035   4.616 -2.5489  2.2713 -2.8228
    7MOL0     H  909   6.182   8.191   4.128  2.0256  0.2463  2.5609
    7MOL0     H  910   5.992   8.140   3.973  0.6958 -0.8282 -0.5604
    7MOL0     H  911   5.761   8.130   3.897  6.0234  0.7627  1.7550
    7MOL0     H  912   5.865   8.001   3.860 -0.9691 -3.1513  0.4933
    7MOL0     H  913   5.654   7.841   3.897 -0.6951  1.1882  1.5031
    7MOL0     H  914   5.560   7.983   3.913  1.2291  2.5732  0.5865
    7MOL0     H  915   5.605   7.825   3.674  0.4913  0.7168 -3.0174
    7MOL0     H  916   5.722   7.953   3.655 -1.7569  0.8499 -3.3076
    7MOL0     H  917   5.420   7.997   3.698  0.6177 -2.3771  1.1959
    7MOL0     H  918   5.552   8.121   3.708  1.9920 -0.8955 -1.3148
    7MOL0     H  919   5.600   8.063   3.467  1.7248 -3.0703  0.9953
    7MOL0     H  920   5.434   8.127   3.489 -2.0792 -1.7438 -1.6682
    7MOL0     H  921   5.461   7.931   3.336 -1.8278  1.3425 -0.1676
    7MOL0     H  922   5.520   7.840   3.453  2.7214  2.2166 -2.6177
    7MOL0     H  923   5.240   7.973   3.468 -1.7162 -2.2878  0.2919
    7MOL0     H  924   5.288   7.842   3.562 -0.3597 -0.4718  0.8647
    7MOL0     H  925   5.250   7.876   3.253  1.8375 -1.6042 -1.4964
    7MOL0     H  926   5.135   7.798   3.370 -1.1969  3.0579 -1.9024
    7MOL0     H  927   5.815   7.909   4.280  0.4731 -0.9878 -3.2903
    7MOL0     H  928   5.963   7.999   4.456 -2.0928  3.0108  1.1727
    7MOL0     H  929   6.463   8.403   4.342  4.6208  0.4042 -0.6383
    7MOL0     H  930   6.641   8.464   4.513 -2.3885  0.7274  2.8033
    7MOL0     H  931   5.886   9.308   5.926 -0.4309  0.2215  0.8816
    7MOL0     H  932   5.703   9.445   6.033 -1.3795 -1.0036 -0.0223
    7MOL0     H  933   5.441   9.418   6.443 -0.6715  0.7463 -0.1367
    7MOL0     H  934   5.223   9.477   6.552  2.0126  1.4411  0.5396
    7MOL0     H  935   4.999   9.456   6.520 -0.9547 -0.8337 -2.0605
    7MOL0     H  936   4.992   9.588   6.630  0.2070 -3.8456  0.4604
    7MOL0     H  937   4.810   9.569   6.405  3.1870 -2.3921 -0.0354
    7MOL0     H  938   4.775   9.646   6.559  0.0454  1.4255 -1.7189
    7MOL0     H  939   4.759   9.430   6.685 -1.8589 -3.3140  0.5030
    7MOL0     H  940   4.821   9.344   6.536  1.4853  2.2630 -1.5298
    7MOL0     H  941   4.589   9.309   6.552 -1.4651  0.8866 -1.3560
    7MOL0     H  942   4.633   9.410   6.412  2.5944  2.7387  0.3526
    7MOL0     H  943   4.411   9.655   6.694  2.5272 -0.1244  1.5799
    7MOL0     H  944   5.146   9.751   6.225  0.8549  1.6013  1.4672
    7MOL0     H  945   5.369   9.721   6.145 -3.6256  2.0544 -0.0881
    8MOL0     O  946   4.051   1.451   1.195 -0.5765  1.0003  0.6599
    8MOL0     C  947   3.987   1.440   1.298 -0.3078  0.2448  0.4089
    8MOL0     O  948   3.855   1.423   1.309 -0.0769 -0.2791  1.0033
    8MOL0     C  949   3.778   1.433   1.199  0.0350  0.4109 -0.5261
    8MOL0     C  950   3.661   1.503   1.212 -0.3784 -0.3194 -0.2209
    8MOL0     C  951   3.557   1.500   1.118 -0.6434  0.1399 -0.0002
    8MOL0     C  952   3.567   1.429   0.998 -0.0103 -0.2307 -1.5009
    8MOL0     O  953   3.459   1.430   0.905 -0.2568 -0.0611  0.0177
    8MOL0     C  954   3.491   1.372   0.775 -0.5790  0.3272  0.2971
    8MOL0     C  955   3.404   1.440   0.669  0.2381 -0.6322  0.9614
    8MOL0     C  956   3.273   1.356   0.638  0.7896  0.7840  0.6678
    8MOL0     C  957   3.182   1.410   0.529 -0.4508 -1.2400 -0.3020
    8MOL0     C  958   3.043   1.340   0.517  0.4098 -0.5515 -0.8374
    8MOL0     C  959   2.957   1.319   0.642 -0.4524  0.2210  0.7427
    8MOL0     C  960   2.807   1.313   0.602  0.2373  0.5818 -0.3198
    8MOL0     C  961   2.775   1.182   0.531  0.8544  0.0047  0.3426
    8MOL0     N  962   2.629   1.171   0.518 -0.3277 -0.2708  0.1778
    8MOL0     C  963   2.543   1.086   0.581 -0.0159 -0.0978  1.0346
    8MOL0     C  964   2.431   1.109   0.519  0.6595  0.5099 -0.3927
    8MOL0     C  965   2.298   1.031   0.549  0.4349 -0.5274  0.5635
    8MOL0     C  966   2.234   0.975   0.421 -0.1427 -0.0535  0.3367
    8MOL0     C  967   2.096   0.924   0.446  0.6780 -0.5229 -0.2465
    8MOL0     C  968   2.019   0.908   0.321  0.6578  0.2090 -0.2603
    8MOL0     O  969   1.877   0.933   0.332  0.1330 -0.1862 -0.4449
    8MOL0     C  970   1.791   0.839   0.380  0.3074 -0.0190 -0.4783
    8MOL0     C  971   1.823   0.714   0.429  0.2580  0.0215  0.7031
    8MOL0     C  972   1.722   0.628   0.479 -0.1250 -0.3523 -0.0173
    8MOL0     C  973   1.779   0.489   0.523  0.3708  0.8740  0.3171
    8MOL0     C  974   1.582   0.680   0.490 -0.1669  0.2440 -0.1562
    8MOL0     C  975   1.476   0.609   0.564  0.3456  0.4404  0.2738
    8MOL0     O  976   1.338   0.638   0.526  1.4027  0.0152  0.4837
    8MOL0     C  977   1.243   0.562   0.589  0.1736  0.0136  1.2854
    8MOL0     C  978   1.223   0.428   0.555  0.3985 -0.7066  0.3147
    8MOL0     C  979   1.120   0.355   0.616 -0.9285 -0.9584 -0.6198
    8MOL0     C  980   1.036   0.407   0.714  0.4039 -0.3356 -0.2038
    8MOL0     O  981   0.938   0.333   0.776 -0.1150 -0.2173 -0.1573
    8MOL0     C  982   0.804   0.356   0.728 -0.7881  0.4218  0.0516
    8MOL0     C  983   0.721   0.427   0.836  1.2447  0.3272 -0.2312
    8MOL0     C  984   0.672   0.329   0.942 -0.3056 -0.0570 -0.0839
    8MOL0     C  985   0.650   0.393   1.079  0.9001 -0.6658  0.5321
    8MOL0     C  986   0.538   0.316   1.152  0.1062 -0.7511  0.4011
    8MOL0     C  987   0.480   0.389   1.277 -0.1824  0.1588  0.0485
    8MOL0     C  988   0.592   0.433   1.368 -0.3197  0.2705  0.7906
    8MOL0     C  989   0.533   0.459   1.498  0.0607 -0.2585 -0.7616
    8MOL0    Cl  990   0.661   0.477   1.609  0.0741 -0.0374  0.1939
    8MOL0     C  991   1.033   0.549   0.726  0.6202  0.6509  0.4693
    8MOL0     C  992   1.141   0.618   0.667  0.0536  0.0207 -0.0225
    8MOL0     O  993   1.499   0.522   0.651  0.2764 -0.0651  0.1233
    8MOL0     C  994   1.554   0.806   0.429  0.3974 -0.2360  0.4537
    8MOL0     C  995   1.658   0.880   0.379  0.7624 -0.3256  0.7109
    8MOL0     N  996   2.455   1.210   0.419 -0.4286  1.0333 -0.2238
    8MOL0     N  997   2.570   1.256   0.430 -0.3323 -1.3845 -0.1740
    8MOL0     C  998   3.687   1.347   0.991  0.9652 -0.1717  1.5531
    8MOL0     C  999   3.789   1.350   1.085  0.4764  0.6191 -0.6501
    8MOL0     C 1000   4.058   1.434   1.425 -0.3285 -0.3731  0.0430
    8MOL0     C 1001   3.993   1.412   1.545 -0.4842  0.7883 -0.3172
    8MOL0     C 1002   4.055   1.407   1.669  0.5195  0.0683 -0.0773
    8MOL0     C 1003   4.190   1.424   1.674  0.8163 -0.7584  0.0004
    8MOL0     O 1004   4.265   1.436   1.781 -0.0829  0.6747 -0.0561
    8MOL0     C 1005   4.220   1.406   1.917  0.2041  0.5720 -0.1377
    8MOL0     C 1006   4.188   1.258   1.942 -0.6677  0.0014  0.5984
    8MOL0     C 1007   4.130   1.224   2.076  0.6945 -0.2906  0.3022
    8MOL0     C 1008   3.993   1.304   2.109  0.6554  0.3743  0.8773
    8MOL0     C 1009   3.879   1.250   2.013 -0.2684  0.1660  0.3946
    8MOL0     C 1010   3.789   1.208   1.937  0.2888 -0.2461 -0.8695
    8MOL0     C 1011   4.259   1.436   1.556  0.4282  0.5367  0.0407
    8MOL0     C 1012   4.201   1.445   1.433  0.1382  0.4292 -0.7449
    8MOL0     H 1013   3.642   1.559   1.303 -1.6850  0.2523 -0.8192
    8MOL0     H 1014   3.469   1.561   1.135 -0.1003  0.5544  1.3928
    8MOL0     H 1015   3.597   1.382   0.747 -1.3342 -1.6586 -4.2179
    8MOL0     H 1016   3.473   1.265   0.786 -0.4961  0.2778 -0.0179
    8MOL0     H 1017   3.374   1.541   0.697 -2.2046 -1.1860  0.6399
    8MOL0     H 1018   3.459   1.453   0.575 -0.8266  1.1789  0.5488
    8MOL0     H 1019   3.311   1.259   0.604 -0.1628  1.2645 -2.0414
    8MOL0     H 1020   3.209   1.340   0.725  1.8687 -1.6143  1.0969
    8MOL0     H 1021   3.159   1.512   0.560 -0.3842  0.0197 -3.9023
    8MOL0     H 1022   3.233   1.411   0.432 -0.0155 -2.1785 -0.0933
    8MOL0     H 1023   2.997   1.409   0.446  1.5705 -0.3132 -1.3816
    8MOL0     H 1024   3.045   1.247   0.460  1.7848 -1.7538  1.0247
    8MOL0     H 1025   2.999   1.232   0.694  1.0587  1.4456  1.6728
    8MOL0     H 1026   2.971   1.404   0.709  3.6272 -1.1271  1.8975
    8MOL0     H 1027   2.751   1.319   0.696  1.5071 -0.7497  0.5680
    8MOL0     H 1028   2.789   1.395   0.532  1.4091 -1.2526 -2.9392
    8MOL0     H 1029   2.813   1.092   0.580  1.9434  0.4884  0.4204
    8MOL0     H 1030   2.811   1.188   0.427 -1.0770  3.3186 -0.2998
    8MOL0     H 1031   2.576   1.020   0.660 -0.1616 -0.8766  0.4624
    8MOL0     H 1032   2.317   0.949   0.619  0.4201 -1.3079 -0.3392
    8MOL0     H 1033   2.220   1.096   0.590 -0.7361 -1.2672 -0.4426
    8MOL0     H 1034   2.293   0.889   0.389 -0.5880  0.3867 -1.8018
    8MOL0     H 1035   2.224   1.057   0.349 -1.7826  1.8628  2.5763
    8MOL0     H 1036   2.042   0.998   0.506 -1.6096 -0.6976 -1.9933
    8MOL0     H 1037   2.095   0.842   0.519 -3.8370  0.1314  0.6944
    8MOL0     H 1038   2.032   0.806   0.284 -0.5113 -0.5381  1.2902
    8MOL0     H 1039   2.049   0.982   0.246 -2.5333  1.2148 -0.7201
    8MOL0     H 1040   1.924   0.676   0.418  0.4922  0.4728  1.1882
    8MOL0     H 1041   1.715   0.450   0.603 -3.4648  0.8382 -2.4846
    8MOL0     H 1042   1.763   0.422   0.438 -0.1800  2.4968 -0.9038
    8MOL0     H 1043   1.884   0.491   0.551  0.2379 -0.1855  0.9462
    8MOL0     H 1044   1.290   0.378   0.486  0.4771 -0.1713 -0.0013
    8MOL0     H 1045   1.117   0.249   0.596 -1.3903 -0.8860 -0.9699
    8MOL0     H 1046   0.810   0.414   0.636 -1.6200 -0.1948 -0.4011
    8MOL0     H 1047   0.765   0.259   0.697  0.0884  0.3745 -0.9534
    8MOL0     H 1048   0.777   0.515   0.870  2.1969 -0.1283 -0.5662
    8MOL0     H 1049   0.635   0.463   0.779  0.6106 -1.7792 -0.6922
    8MOL0     H 1050   0.736   0.241   0.956  0.6620  0.8083  1.2045
    8MOL0     H 1051   0.573   0.292   0.914  0.1306 -1.6166  0.3296
    8MOL0     H 1052   0.743   0.387   1.135  0.0181  0.4841  2.2238
    8MOL0     H 1053   0.625   0.499   1.076 -2.7361 -1.3856  0.2616
    8MOL0     H 1054   0.577   0.215   1.169  2.0287 -0.1816 -0.3411
    8MOL0     H 1055   0.449   0.307   1.089 -0.8536  0.0623  1.5989
    8MOL0     H 1056   0.432   0.485   1.256  3.0424  1.8131 -0.4067
    8MOL0     H 1057   0.407   0.319   1.317 -0.0420  0.0846  0.1782
    8MOL0     H 1058   0.629   0.523   1.319  0.5674 -1.9811 -3.1004
    8MOL0     H 1059   0.672   0.358   1.361 -2.1044 -1.7924  1.2147
    8MOL0     H 1060   0.472   0.382   1.546  1.6788 -0.2619  1.4316
    8MOL0     H 1061   0.473   0.550   1.487  0.7621  0.2652 -0.3062
    8MOL0     H 1062   0.967   0.604   0.793  2.5844  1.4427  1.8561
    8MOL0     H 1063   1.153   0.723   0.693  2.0371 -0.1935  0.1251
    8MOL0     H 1064   1.457   0.854   0.422  0.5268  0.1097  1.0120
    8MOL0     H 1065   1.646   0.978   0.332 -2.2135 -1.4732 -1.2346
    8MOL0     H 1066   3.705   1.284   0.905  1.4979 -0.3892  1.8198
    8MOL0     H 1067   3.879   1.290   1.076 -0.9919 -1.7833 -0.2727
    8MOL0     H 1068   3.886   1.398   1.553 -0.3442  0.2619  0.9478
    8MOL0     H 1069   3.987   1.382   1.750  0.8759  0.1510  0.2474
    8MOL0     H 1070   4.297   1.437   1.988  0.5171  1.4339 -0.8480
    8MOL0     H 1071   4.136   1.471   1.944  0.8927  1.0444  0.9300
    8MOL0     H 1072   4.273   1.191   1.924 -1.8553 -1.1530 -1.0824
    8MOL0     H 1073   4.124   1.226   1.859 -0.3480  0.6870  0.0776
    8MOL0     H 1074   4.206   1.244   2.152 -0.8474  0.7312  1.6498
    8MOL0     H 1075   4.114   1.116   2.078  0.6478 -0.2995 -0.3262
    8MOL0     H 1076   3.997   1.413   2.100 -0.8416  0.2929 -2.0690
    8MOL0     H 1077   3.960   1.278   2.210 -0.0395  1.8034  1.0292
    8MOL0     H 1078   3.718   1.171   1.865  0.5806  0.4477 -1.5305
    8MOL0     H 1079   4.367   1.451   1.562  0.4910 -0.3861  4.6164
    8MOL0     H 1080   4.261   1.456   1.343 -0.0649  1.4347 -0.7694
    9MOL0     O 1081   5.926   1.009   5.350  0.3739  0.1517 -0.0168
    9MOL0     C 1082   5.824   1.029   5.406  0.1794  0.3871  0.1185
    9MOL0     O 1083   5.737   0.927   5.464 -0.3446  0.1403 -0.2140
    9MOL0     C 1084   5.766   0.800   5.474 -0.1216  0.3432 -0.3160
    9MOL0     C 1085   5.845   0.722   5.393 -0.5131 -0.9827  0.1462
    9MOL0     C 1086   5.865   0.581   5.412  1.0943  0.4255 -0.1369
    9MOL0     C 1087   5.808   0.515   5.522  0.3699 -0.4707  0.1422
    9MOL0     O 1088   5.840   0.383   5.529  0.3371 -0.3650  0.4380
    9MOL0     C 1089   5.844   0.329   5.664 -0.9120  0.3272  1.5929
    9MOL0     C 1090   5.965   0.243   5.669 -0.5350  0.6337  0.6796
    9MOL0     C 1091   5.991   0.140   5.561  0.2049  0.0491  0.5520
    9MOL0     C 1092   5.893   0.017   5.577  0.5027  0.5615  0.2040
    9MOL0     C 1093   5.922  -0.077   5.459 -0.2275 -0.1836 -0.1746
    9MOL0     C 1094   6.035  -0.174   5.492  0.8564  0.1414  0.3504
    9MOL0     C 1095   6.034  -0.282   5.384  0.2537  0.4260  0.0145
    9MOL0     C 1096   6.124  -0.392   5.442  0.0051  0.1710 -0.4119
    9MOL0     N 1097   6.148  -0.511   5.362 -0.5010  0.1376 -0.1488
    9MOL0     C 1098   6.153  -0.495   5.221  0.8538  0.4420 -0.1964
    9MOL0     C 1099   6.141  -0.626   5.177 -0.9082  0.2024 -0.1912
    9MOL0     C 1100   6.120  -0.686   5.040 -0.5000  0.5110 -0.0296
    9MOL0     C 1101   6.009  -0.608   4.967 -0.2950 -0.9592  0.4635
    9MOL0     C 1102   5.881  -0.597   5.056 -0.7492  0.1894 -0.2190
    9MOL0     C 1103   5.761  -0.557   4.966  0.2480  0.8546 -0.7760
    9MOL0     O 1104   5.771  -0.422   4.927  0.4363 -0.3904 -0.0958
    9MOL0     C 1105   5.693  -0.328   4.978  1.2162 -0.7819 -0.1160
    9MOL0     C 1106   5.560  -0.348   5.025 -0.9398  0.2182 -0.3732
    9MOL0     C 1107   5.497  -0.247   5.099 -0.2246 -0.6579  0.2421
    9MOL0     C 1108   5.376  -0.290   5.171 -0.2113  0.1376  0.7476
    9MOL0     C 1109   5.548  -0.115   5.101 -0.4215  0.7990  0.8389
    9MOL0     C 1110   5.471   0.015   5.151 -0.8330 -0.3938  0.2676
    9MOL0     O 1111   5.545   0.124   5.192 -0.1480  0.0914  0.4119
    9MOL0     C 1112   5.490   0.251   5.207 -0.1966  0.1321 -1.0474
    9MOL0     C 1113   5.389   0.303   5.132 -0.3858  0.3455  0.1561
    9MOL0     C 1114   5.336   0.431   5.156 -0.1247  0.2652 -0.4796
    9MOL0     C 1115   5.385   0.516   5.251 -0.3390 -0.1039  0.1502
    9MOL0     O 1116   5.346   0.643   5.296  0.1216 -0.3130  0.2360
    9MOL0     C 1117   5.264   0.728   5.209  0.1656  0.6119 -0.0982
    9MOL0     C 1118   5.353   0.816   5.120 -0.0768 -1.1281 -0.2891
    9MOL0     C 1119   5.426   0.931   5.203  0.1847  0.2357 -0.8687
    9MOL0     C 1120   5.343   1.062   5.213  0.1716 -0.4139  0.6220
    9MOL0     C 1121   5.403   1.174   5.126 -0.1167 -0.2091 -0.3292
    9MOL0     C 1122   5.311   1.291   5.101 -0.6340  0.0079 -0.2734
    9MOL0     C 1123   5.399   1.411   5.078 -0.1659  0.0741 -0.0682
    9MOL0     C 1124   5.465   1.401   4.949 -0.7891 -1.0827 -0.4666
    9MOL0    Cl 1125   5.346   1.430   4.819 -0.2430  0.3340  0.2640
    9MOL0     C 1126   5.506   0.473   5.313  0.3725  0.6626 -1.0764
    9MOL0     C 1127   5.549   0.338   5.299 -0.8790  0.2666  0.1455
    9MOL0     O 1128   5.349   0.007   5.158 -0.9793 -0.0605  0.2357
    9MOL0     C 1129   5.671  -0.102   5.050 -0.3774  0.1703  0.0818
    9MOL0     C 1130   5.742  -0.203   4.985 -0.4093  0.3311  0.4934
    9MOL0     N 1131   6.126  -0.718   5.282 -0.3709 -1.6207  0.3658
    9MOL0     N 1132   6.145  -0.647   5.396 -0.0429 -0.2827 -0.6874
    9MOL0     C 1133   5.715   0.588   5.595 -0.3531  0.3250  0.2253
    9MOL0     C 1134   5.690   0.723   5.566 -0.1035 -0.9166 -0.4058
    9MOL0     C 1135   5.773   1.168   5.388  0.3626  0.4394  0.0608
    9MOL0     C 1136   5.863   1.273   5.362  0.1588  1.0648 -0.5713
    9MOL0     C 1137   5.815   1.404   5.337 -0.2856  0.4809 -0.2810
    9MOL0     C 1138   5.679   1.437   5.353 -0.4169 -0.2418  0.9619
    9MOL0     O 1139   5.631   1.559   5.361 -0.5677 -0.1360 -0.0138
    9MOL0     C 1140   5.694   1.672   5.286 -0.3299  0.2697 -0.3077
    9MOL0     C 1141   5.585   1.789   5.287  0.3572 -0.3559 -0.8776
    9MOL0     C 1142   5.591   1.863   5.427 -0.3153 -0.2157 -0.0574
    9MOL0     C 1143   5.532   2.002   5.436 -0.1481 -0.1581 -1.0822
    9MOL0     C 1144   5.392   2.007   5.388  0.4275 -0.0500 -0.1799
    9MOL0     C 1145   5.279   1.993   5.348  0.3535 -0.1215 -0.3323
    9MOL0     C 1146   5.594   1.336   5.379 -0.0054  0.2146  0.4871
    9MOL0     C 1147   5.640   1.204   5.399 -0.5563 -0.6389  0.5580
    9MOL0     H 1148   5.914   0.765   5.321 -0.2255 -0.8603  0.4899
    9MOL0     H 1149   5.935   0.531   5.346 -0.3423 -1.8005 -0.0915
    9MOL0     H 1150   5.844   0.406   5.742 -0.6970  2.3951 -0.3665
    9MOL0     H 1151   5.754   0.266   5.668 -1.3653  0.4837 -2.6004
    9MOL0     H 1152   6.047   0.315   5.666 -0.3636  0.5139 -3.5874
    9MOL0     H 1153   5.975   0.187   5.763  1.2680 -0.0494  0.1180
    9MOL0     H 1154   5.986   0.190   5.464  3.1486  1.4040  0.9932
    9MOL0     H 1155   6.090   0.094   5.573 -0.0684 -0.7605 -0.1499
    9MOL0     H 1156   5.915  -0.027   5.675  3.3244  6.7345  2.8718
    9MOL0     H 1157   5.791   0.057   5.574  1.4108  3.3696  2.4495
    9MOL0     H 1158   5.828  -0.131   5.446 -0.8318  1.0657 -1.2641
    9MOL0     H 1159   5.938  -0.017   5.369 -0.6026  1.8751  1.0644
    9MOL0     H 1160   6.130  -0.119   5.485  0.1367  1.5133  0.9065
    9MOL0     H 1161   6.025  -0.223   5.589  0.1415 -0.5579 -0.0688
    9MOL0     H 1162   5.935  -0.328   5.380  1.0603 -1.2966 -1.5024
    9MOL0     H 1163   6.073  -0.247   5.288  2.3621 -0.1418  0.6187
    9MOL0     H 1164   6.086  -0.428   5.538 -0.5177 -0.2741 -0.7788
    9MOL0     H 1165   6.217  -0.337   5.455 -0.6457  0.8353  1.9125
    9MOL0     H 1166   6.167  -0.405   5.162 -1.5896  0.3997 -0.9395
    9MOL0     H 1167   6.217  -0.685   4.989  0.0899 -1.5701  0.9636
    9MOL0     H 1168   6.081  -0.786   5.060  1.7789  0.2893  4.7685
    9MOL0     H 1169   5.976  -0.649   4.871  0.4295 -1.0756  0.2525
    9MOL0     H 1170   6.047  -0.507   4.946 -3.5619  0.2443 -0.1791
    9MOL0     H 1171   5.893  -0.524   5.137  2.2188 -1.2819  0.7964
    9MOL0     H 1172   5.866  -0.693   5.105  0.8586  0.8617  1.7651
    9MOL0     H 1173   5.666  -0.577   5.018  0.7149 -0.2887 -0.3287
    9MOL0     H 1174   5.755  -0.622   4.878 -3.3881  0.5454 -0.4625
    9MOL0     H 1175   5.516  -0.447   5.014 -0.4093  0.1821 -2.5616
    9MOL0     H 1176   5.290  -0.244   5.120  0.1374  0.8547  0.7924
    9MOL0     H 1177   5.354  -0.396   5.159  0.5251  0.0101  0.5227
    9MOL0     H 1178   5.379  -0.253   5.274  1.0281 -2.3878  1.6839
    9MOL0     H 1179   5.343   0.231   5.065 -0.8737 -0.8052  1.6411
    9MOL0     H 1180   5.242   0.450   5.105 -0.3427  0.6290  0.0511
    9MOL0     H 1181   5.195   0.664   5.153  1.2559 -0.4223 -0.3242
    9MOL0     H 1182   5.202   0.781   5.281  1.6194  1.1020  0.8430
    9MOL0     H 1183   5.425   0.746   5.077 -0.2508  0.4144 -3.3314
    9MOL0     H 1184   5.295   0.854   5.036  3.7560  0.6547 -2.3536
    9MOL0     H 1185   5.520   0.936   5.147  0.2574  1.0724 -0.6855
    9MOL0     H 1186   5.453   0.889   5.300  0.6674 -3.1750 -2.3552
    9MOL0     H 1187   5.247   1.046   5.163  0.8611  2.2647 -1.8528
    9MOL0     H 1188   5.330   1.102   5.314 -0.0717  1.7435 -0.2132
    9MOL0     H 1189   5.430   1.123   5.033 -2.3031 -2.7873  0.3358
    9MOL0     H 1190   5.493   1.214   5.176  0.6224 -0.8639 -1.1066
    9MOL0     H 1191   5.247   1.271   5.015 -1.8671 -0.4309  0.7275
    9MOL0     H 1192   5.250   1.310   5.190 -1.7850  0.3895 -1.1184
    9MOL0     H 1193   5.459   1.436   5.165 -0.0790  2.2955 -0.6979
    9MOL0     H 1194   5.329   1.496   5.078  0.0173  0.2367 -0.7862
    9MOL0     H 1195   5.518   1.306   4.944 -0.8059 -1.2426  1.4505
    9MOL0     H 1196   5.542   1.477   4.935 -2.6481  1.2468  1.0208
    9MOL0     H 1197   5.556   0.527   5.392 -1.9472  1.5308 -0.0917
    9MOL0     H 1198   5.632   0.311   5.365  1.5847  1.5545 -2.2183
    9MOL0     H 1199   5.723  -0.006   5.053 -0.3504  0.3022 -2.4290
    9MOL0     H 1200   5.822  -0.160   4.924  0.3049 -0.6075  0.7389
    9MOL0     H 1201   5.664   0.528   5.670  2.2370 -0.1603  1.7051
    9MOL0     H 1202   5.611   0.762   5.629 -0.3680 -1.7474 -0.1981
    9MOL0     H 1203   5.966   1.257   5.332 -0.9172  0.0236 -4.2849
    9MOL0     H 1204   5.891   1.479   5.318 -1.9618  2.0920 -0.7901
    9MOL0     H 1205   5.789   1.706   5.327  0.4271 -3.4026  1.3478
    9MOL0     H 1206   5.706   1.651   5.180 -0.1785  1.0114 -0.4435
    9MOL0     H 1207   5.480   1.760   5.275  0.4673 -1.3235  0.2597
    9MOL0     H 1208   5.608   1.862   5.209 -1.2342  0.1894 -0.8790
    9MOL0     H 1209   5.693   1.901   5.433 -1.3509  2.6803  1.2159
    9MOL0     H 1210   5.569   1.797   5.511  1.1503  0.2668  0.7437
    9MOL0     H 1211   5.596   2.080   5.395 -0.4720  1.8380  1.8986
    9MOL0     H 1212   5.529   2.020   5.544  2.0489  0.8693 -1.1504
    9MOL0     H 1213   5.191   1.955   5.301  1.5939 -1.0472 -2.0067
    9MOL0     H 1214   5.490   1.348   5.405 -0.2125  1.5555 -0.7843
    9MOL0     H 1215   5.569   1.127   5.430 -0.3048 -1.2478 -0.3306
   10MOL0     O 1216  10.179   6.064   2.921 -0.0471  0.1772 -0.0420
   10MOL0     C 1217  10.100   6.051   2.828 -0.4748  0.2699  0.9717
   10MOL0     O 1218   9.998   5.962   2.817  0.0242 -0.0256 -0.0081
   10MOL0     C 1219   9.983   5.884   2.928  1.0925 -0.1477 -0.8225
   10MOL0     C 1220   9.899   5.919   3.034 -0.3142 -0.6056 -1.1929
   10MOL0     C 1221   9.869   5.832   3.143 -1.5361  0.2599 -1.2551
   10MOL0     C 1222   9.932   5.708   3.147 -0.6448 -0.3783  0.1009
   10MOL0     O 1223   9.935   5.610   3.239 -0.1092  0.1844 -0.5506
   10MOL0     C 1224   9.823   5.613   3.320 -0.2269 -0.0661 -0.5023
   10MOL0     C 1225   9.759   5.473   3.337 -0.6897 -0.2130 -0.9900
   10MOL0     C 1226   9.713   5.409   3.202 -0.1809  0.3336  0.3325
   10MOL0     C 1227   9.598   5.494   3.133  0.3000  0.8613  1.1259
   10MOL0     C 1228   9.565   5.406   3.013  1.3476  0.2323  0.0809
   10MOL0     C 1229   9.664   5.417   2.901 -0.3274  0.4145  0.7792
   10MOL0     C 1230   9.612   5.370   2.776  0.0626  0.5566  0.6576
   10MOL0     C 1231   9.523   5.468   2.704 -0.5430  0.2980 -0.4475
   10MOL0     N 1232   9.459   5.401   2.584 -0.4512 -0.4144 -0.4102
   10MOL0     C 1233   9.436   5.265   2.561  0.2800  0.3079  0.1970
   10MOL0     C 1234   9.350   5.255   2.459  0.4173  0.5860 -0.0872
   10MOL0     C 1235   9.267   5.131   2.415  1.0958 -1.0386  0.9412
   10MOL0     C 1236   9.173   5.159   2.294 -0.0268  0.3693 -0.7679
   10MOL0     C 1237   9.064   5.050   2.272 -0.3245 -0.2249  0.4757
   10MOL0     C 1238   9.108   4.909   2.248  0.3485 -0.0272 -0.1730
   10MOL0     O 1239   8.997   4.834   2.186  0.6212  0.0158  0.6600
   10MOL0     C 1240   9.031   4.705   2.177 -0.0497  0.8731 -0.4853
   10MOL0     C 1241   9.139   4.660   2.110 -0.9812  0.1269  0.3377
   10MOL0     C 1242   9.179   4.529   2.110 -1.0283 -0.4456  1.2645
   10MOL0     C 1243   9.322   4.509   2.046 -0.9884  0.9411  0.0241
   10MOL0     C 1244   9.100   4.432   2.170 -0.2885  0.2881 -0.8576
   10MOL0     C 1245   9.123   4.295   2.141  0.1054  0.4039 -0.4549
   10MOL0     O 1246   9.091   4.197   2.236  0.1053  0.9204  0.5288
   10MOL0     C 1247   9.087   4.071   2.187 -0.3235  0.0794  0.2888
   10MOL0     C 1248   9.157   3.963   2.242  0.5437 -0.0917  0.4232
   10MOL0     C 1249   9.158   3.840   2.185 -0.4889  0.8584  1.0893
   10MOL0     C 1250   9.074   3.816   2.074 -0.4184  0.7922  0.1835
   10MOL0     O 1251   9.058   3.690   2.016 -0.4542  0.1555  0.0423
   10MOL0     C 1252   9.151   3.599   1.949  0.1541  0.6231 -0.3264
   10MOL0     C 1253   9.113   3.459   1.997  1.1263 -0.0237  0.2168
   10MOL0     C 1254   9.162   3.339   1.908 -0.7584  1.0543 -0.5640
   10MOL0     C 1255   9.076   3.209   1.921  0.0422 -0.4656 -0.0814
   10MOL0     C 1256   9.153   3.071   1.908 -0.8130  0.5126 -0.3253
   10MOL0     C 1257   9.124   3.003   1.765 -0.1325  0.0453 -0.4105
   10MOL0     C 1258   9.158   3.093   1.641  0.1238  1.4961  0.0433
   10MOL0     C 1259   9.100   3.017   1.518 -0.4207 -0.3171 -0.1640
   10MOL0    Cl 1260   9.146   2.841   1.522  0.0599 -0.5410 -0.2532
   10MOL0     C 1261   8.991   3.916   2.027  0.0117  0.9290 -0.3468
   10MOL0     C 1262   8.996   4.042   2.087  0.5755 -0.1640  0.2380
   10MOL0     O 1263   9.164   4.275   2.027 -0.8138 -0.2361  0.4602
   10MOL0     C 1264   8.978   4.473   2.233  0.4664 -0.3707 -0.1418
   10MOL0     C 1265   8.945   4.610   2.231 -0.5456  0.3042 -0.0068
   10MOL0     N 1266   9.316   5.381   2.428 -0.3240 -0.8069  0.1609
   10MOL0     N 1267   9.376   5.464   2.502  0.1515  0.4327  0.2247
   10MOL0     C 1268  10.013   5.677   3.041  0.2608  0.1182 -0.2172
   10MOL0     C 1269  10.040   5.758   2.930 -0.1338  0.0740  0.5407
   10MOL0     C 1270  10.121   6.129   2.707  0.6016 -0.3494 -0.0612
   10MOL0     C 1271  10.246   6.176   2.671 -0.8209 -0.3780  0.4315
   10MOL0     C 1272  10.266   6.222   2.540  0.1026 -0.6166  0.1788
   10MOL0     C 1273  10.166   6.231   2.456  0.6171 -0.8765  1.5605
   10MOL0     O 1274  10.207   6.299   2.331  0.3891  0.4518 -0.0445
   10MOL0     C 1275  10.134   6.259   2.209 -0.3150 -0.1302 -0.6587
   10MOL0     C 1276  10.179   6.118   2.171  0.7951 -0.8220  0.1843
   10MOL0     C 1277  10.312   6.114   2.088  0.1045  0.7644 -0.0679
   10MOL0     C 1278  10.439   6.119   2.174 -0.2883 -0.7716  0.2786
   10MOL0     C 1279  10.479   6.266   2.193 -0.0913 -0.4313 -0.0503
   10MOL0     C 1280  10.511   6.387   2.205 -0.1775  0.0145 -0.1183
   10MOL0     C 1281  10.039   6.190   2.488  0.3643  1.2270  1.2057
   10MOL0     C 1282  10.014   6.146   2.613  0.0057  0.2469  0.7377
   10MOL0     H 1283   9.846   6.014   3.026 -1.0697 -0.9018 -0.0721
   10MOL0     H 1284   9.802   5.869   3.220  0.0694 -2.1221  1.5127
   10MOL0     H 1285   9.857   5.649   3.418  0.9335 -4.3600  0.8950
   10MOL0     H 1286   9.745   5.673   3.273  1.4844  1.8802 -1.0228
   10MOL0     H 1287   9.827   5.407   3.393 -0.0363  0.9434 -0.3769
   10MOL0     H 1288   9.674   5.496   3.402  0.1951  2.4899 -0.6560
   10MOL0     H 1289   9.802   5.407   3.137  1.3968 -0.0492  2.4096
   10MOL0     H 1290   9.665   5.312   3.219 -1.3005 -0.0258 -3.7638
   10MOL0     H 1291   9.523   5.505   3.213  1.4501  1.4885  2.1530
   10MOL0     H 1292   9.627   5.593   3.096  0.1882 -0.2410 -2.2067
   10MOL0     H 1293   9.555   5.305   3.055  3.1771  1.3690  3.7181
   10MOL0     H 1294   9.473   5.446   2.969  1.3066  4.1399  3.1207
   10MOL0     H 1295   9.703   5.517   2.881  1.9705 -0.4019  0.9071
   10MOL0     H 1296   9.756   5.359   2.912 -2.0405 -2.4842  0.9122
   10MOL0     H 1297   9.698   5.336   2.719 -0.1830  1.2578 -0.1528
   10MOL0     H 1298   9.549   5.286   2.805 -2.1779  1.5379 -1.0336
   10MOL0     H 1299   9.577   5.558   2.675 -0.7851  1.8036  3.2453
   10MOL0     H 1300   9.446   5.503   2.772 -2.8576 -0.0254 -2.7542
   10MOL0     H 1301   9.460   5.180   2.624  0.8605 -1.4740 -2.2977
   10MOL0     H 1302   9.321   5.038   2.395 -3.0538 -3.1877 -1.7698
   10MOL0     H 1303   9.190   5.123   2.492  1.5305  2.5303  1.9043
   10MOL0     H 1304   9.234   5.156   2.203 -0.3209 -1.8708 -0.9396
   10MOL0     H 1305   9.115   5.251   2.286 -0.9441 -0.0602  0.5657
   10MOL0     H 1306   9.026   5.084   2.175  0.9270 -2.5780 -0.9411
   10MOL0     H 1307   8.983   5.061   2.345 -1.9386  2.0059 -1.5008
   10MOL0     H 1308   9.143   4.866   2.343  0.7414 -2.0530 -1.1641
   10MOL0     H 1309   9.191   4.903   2.178 -0.7633  0.1560 -1.5464
   10MOL0     H 1310   9.204   4.734   2.065 -1.2201  0.4356  0.4941
   10MOL0     H 1311   9.313   4.520   1.937 -1.1626  1.6211  0.0996
   10MOL0     H 1312   9.404   4.575   2.077  1.8161 -1.6413 -1.4090
   10MOL0     H 1313   9.357   4.407   2.064  0.6010  1.5674  0.6569
   10MOL0     H 1314   9.221   3.979   2.328  1.2354  0.7183 -0.2213
   10MOL0     H 1315   9.223   3.757   2.212 -1.0792 -0.5140 -1.3803
   10MOL0     H 1316   9.119   3.594   1.845 -0.5982 -0.2052 -0.0664
   10MOL0     H 1317   9.256   3.617   1.973 -0.4471  1.7427  1.7394
   10MOL0     H 1318   9.168   3.448   2.091  0.7632  0.5629  0.5042
   10MOL0     H 1319   9.004   3.449   2.003  0.8349 -1.3776 -3.9197
   10MOL0     H 1320   9.264   3.308   1.933 -0.8359 -0.6326 -2.1139
   10MOL0     H 1321   9.152   3.367   1.802 -1.1003  1.0811 -0.5235
   10MOL0     H 1322   9.036   3.196   2.022 -2.3802 -0.3805 -0.9650
   10MOL0     H 1323   8.995   3.200   1.847  2.5517  0.5711 -3.1635
   10MOL0     H 1324   9.118   3.010   1.991 -2.3809 -1.0053 -2.0299
   10MOL0     H 1325   9.258   3.092   1.930 -0.3871 -0.8266 -1.0101
   10MOL0     H 1326   9.175   2.907   1.756 -1.1536 -0.6355  0.7984
   10MOL0     H 1327   9.020   2.970   1.766  0.2614 -1.3563  1.6390
   10MOL0     H 1328   9.266   3.096   1.624 -0.1799 -1.4402 -3.9799
   10MOL0     H 1329   9.107   3.190   1.646  0.4065  1.6243  0.4279
   10MOL0     H 1330   9.144   3.068   1.432 -0.7757 -0.8532 -0.6719
   10MOL0     H 1331   8.991   3.027   1.515 -0.4088 -0.3575 -2.5319
   10MOL0     H 1332   8.925   3.886   1.946 -1.5773  3.2426 -0.0193
   10MOL0     H 1333   8.921   4.120   2.074  0.1687 -0.2309  1.9693
   10MOL0     H 1334   8.904   4.406   2.277  0.2822 -1.2470 -1.7331
   10MOL0     H 1335   8.851   4.635   2.277 -1.2587  1.2874 -1.8742
   10MOL0     H 1336  10.072   5.586   3.035 -0.0051 -0.0584 -0.1947
   10MOL0     H 1337  10.107   5.726   2.851 -0.1996  0.3633  0.3688
   10MOL0     H 1338  10.331   6.159   2.736 -0.9981 -1.9377  0.2819
   10MOL0     H 1339  10.361   6.266   2.512 -1.0442  1.4527 -0.7108
   10MOL0     H 1340  10.026   6.257   2.231 -0.2772 -2.0485 -0.4138
   10MOL0     H 1341  10.139   6.335   2.131  1.2788  1.9188  1.2838
   10MOL0     H 1342  10.103   6.063   2.114  2.3954 -0.4662 -2.4575
   10MOL0     H 1343  10.188   6.069   2.268  1.9800 -1.2118 -0.1163
   10MOL0     H 1344  10.315   6.195   2.014 -0.6440  1.5480  0.7353
   10MOL0     H 1345  10.306   6.023   2.027 -0.0428  0.9868 -0.3904
   10MOL0     H 1346  10.527   6.079   2.122  1.1564  0.9863  1.2553
   10MOL0     H 1347  10.424   6.070   2.271 -2.6433  1.3949  1.1158
   10MOL0     H 1348  10.543   6.489   2.210  0.4687 -0.0805 -1.6850
   10MOL0     H 1349   9.962   6.208   2.414 -1.0843  0.6358  2.5107
   10MOL0     H 1350   9.913   6.112   2.635 -0.2501  0.4414 -0.0847
   11MOL0     O 1351  10.892   4.790   5.054  0.1666  0.6121  0.0136
   11MOL0     C 1352  10.973   4.764   4.959 -0.6990 -0.0282  0.0819
   11MOL0     O 1353  10.968   4.819   4.831 -0.5501  0.1713 -1.3168
   11MOL0     C 1354  10.880   4.924   4.826  0.1145 -0.8130  0.7031
   11MOL0     C 1355  10.931   5.055   4.793 -0.2071 -0.2645 -0.7747
   11MOL0     C 1356  10.847   5.163   4.770  0.2516  0.7454  0.3322
   11MOL0     C 1357  10.707   5.149   4.805 -1.8952 -0.1088  0.5064
   11MOL0     O 1358  10.641   5.265   4.804  0.6273 -0.1072 -0.2438
   11MOL0     C 1359  10.675   5.365   4.900  0.1010 -0.0317 -0.2599
   11MOL0     C 1360  10.576   5.371   5.008 -0.4971  1.5537 -0.9475
   11MOL0     C 1361  10.437   5.442   4.967  0.3583  0.2469 -0.2917
   11MOL0     C 1362  10.441   5.592   5.010  0.7484 -0.1654 -0.2096
   11MOL0     C 1363  10.339   5.676   4.932  0.3073 -0.6808  0.3754
   11MOL0     C 1364  10.352   5.828   4.955 -0.6826 -0.2566 -0.0728
   11MOL0     C 1365  10.219   5.884   4.909  0.2314  0.3015  0.6551
   11MOL0     C 1366  10.179   5.877   4.760 -0.6550  0.4088  0.3493
   11MOL0     N 1367  10.076   5.983   4.743 -0.3163 -0.1642  0.2760
   11MOL0     C 1368   9.943   5.950   4.768 -1.0534 -0.3397 -0.2272
   11MOL0     C 1369   9.886   6.078   4.767 -0.0677 -0.4499 -0.1646
   11MOL0     C 1370   9.735   6.099   4.779 -0.2409 -0.6751  0.6936
   11MOL0     C 1371   9.694   6.237   4.840 -0.1556  0.0369  0.3146
   11MOL0     C 1372   9.735   6.242   4.986  0.6093 -0.6732 -0.3274
   11MOL0     C 1373   9.686   6.369   5.049  0.4542  0.1679 -0.0982
   11MOL0     O 1374   9.548   6.349   5.090 -0.7213  0.2973  0.6675
   11MOL0     C 1375   9.510   6.282   5.209 -0.3571 -0.0888  0.0758
   11MOL0     C 1376   9.595   6.242   5.304  0.3761  0.2240 -0.4663
   11MOL0     C 1377   9.557   6.175   5.422 -0.5095  1.4556 -0.2651
   11MOL0     C 1378   9.661   6.150   5.525 -0.3983 -0.0329  0.2211
   11MOL0     C 1379   9.418   6.137   5.441  0.4567 -0.4203  0.8181
   11MOL0     C 1380   9.364   6.052   5.549  0.4290 -0.2960  0.2720
   11MOL0     O 1381   9.248   6.085   5.615  0.2555 -0.2571 -0.2009
   11MOL0     C 1382   9.190   5.990   5.693  1.1059 -0.8366 -0.4248
   11MOL0     C 1383   9.226   5.962   5.830  0.7064  0.0256  0.3783
   11MOL0     C 1384   9.135   5.897   5.919 -0.1048 -0.1042  0.6925
   11MOL0     C 1385   9.018   5.842   5.867  0.3086  0.4642  0.6010
   11MOL0     O 1386   8.919   5.784   5.957 -0.5641 -0.5446  0.1898
   11MOL0     C 1387   8.804   5.725   5.897  0.7028  0.0454  0.4111
   11MOL0     C 1388   8.706   5.704   6.004 -0.1182 -0.0016 -0.1231
   11MOL0     C 1389   8.766   5.602   6.107  0.3084 -0.0509 -0.6990
   11MOL0     C 1390   8.670   5.544   6.212  0.1271  0.1050 -0.4988
   11MOL0     C 1391   8.752   5.483   6.338  0.6262 -1.4873 -0.0920
   11MOL0     C 1392   8.807   5.347   6.307  0.5876 -0.3753  1.0020
   11MOL0     C 1393   8.913   5.296   6.408  0.8624  0.2422  0.4151
   11MOL0     C 1394   8.875   5.327   6.547 -0.4413 -0.2174 -0.8015
   11MOL0    Cl 1395   8.985   5.232   6.653  0.0123 -0.0066  0.0619
   11MOL0     C 1396   8.985   5.865   5.732 -1.1020  0.6239 -0.5498
   11MOL0     C 1397   9.062   5.949   5.648 -0.7186  0.3316  0.9960
   11MOL0     O 1398   9.433   5.955   5.575 -0.1170 -1.1156  0.0863
   11MOL0     C 1399   9.323   6.173   5.339 -0.1746 -0.1251  0.0878
   11MOL0     C 1400   9.375   6.242   5.225  0.6848  0.3029 -0.0663
   11MOL0     N 1401   9.974   6.177   4.746 -0.0282  1.0221 -0.0497
   11MOL0     N 1402  10.091   6.117   4.738 -0.6091 -0.3348  0.2118
   11MOL0     C 1403  10.657   5.022   4.836 -0.4698 -0.0649 -0.6555
   11MOL0     C 1404  10.741   4.912   4.835  0.7537  0.4904 -0.0179
   11MOL0     C 1405  11.072   4.654   4.986 -0.0401  0.2812  0.5530
   11MOL0     C 1406  11.127   4.585   4.873 -0.0117 -0.5649 -0.5978
   11MOL0     C 1407  11.208   4.481   4.895 -0.6698  0.2083  0.8287
   11MOL0     C 1408  11.238   4.439   5.027  0.5687 -0.6749 -0.1142
   11MOL0     O 1409  11.314   4.323   5.035 -0.4616 -0.1691  0.0084
   11MOL0     C 1410  11.325   4.263   5.168  0.2311 -0.1627  0.7086
   11MOL0     C 1411  11.437   4.159   5.163  0.6845  0.7262  0.4210
   11MOL0     C 1412  11.430   4.065   5.288  0.0385 -0.8859  0.7325
   11MOL0     C 1413  11.527   4.101   5.403 -0.0468 -0.4393 -0.3153
   11MOL0     C 1414  11.665   4.079   5.355 -0.2508  0.2279  0.6718
   11MOL0     C 1415  11.777   4.053   5.304 -0.5901 -0.1098 -0.0932
   11MOL0     C 1416  11.176   4.502   5.142  0.4639  0.3739 -0.4409
   11MOL0     C 1417  11.089   4.601   5.114 -0.7852 -1.2777 -0.1221
   11MOL0     H 1418  11.035   5.078   4.769 -0.4609  0.8035 -0.9125
   11MOL0     H 1419  10.893   5.254   4.731  0.7373 -0.4780 -2.1708
   11MOL0     H 1420  10.766   5.338   4.954 -1.6368 -1.6876  2.0153
   11MOL0     H 1421  10.676   5.461   4.848  1.1911  0.0015 -0.1943
   11MOL0     H 1422  10.554   5.271   5.047  0.0184  1.0592 -1.8924
   11MOL0     H 1423  10.627   5.426   5.088  0.7952 -0.0649 -0.5759
   11MOL0     H 1424  10.422   5.434   4.859 -0.6718 -0.0178 -0.1386
   11MOL0     H 1425  10.346   5.396   5.007  0.4305 -0.8985 -1.3969
   11MOL0     H 1426  10.422   5.602   5.117 -0.8434 -3.0795 -0.0915
   11MOL0     H 1427  10.544   5.621   4.989  0.9356 -0.3179  0.4909
   11MOL0     H 1428  10.341   5.656   4.825 -0.8279  0.9844 -0.0002
   11MOL0     H 1429  10.242   5.649   4.975 -1.6043  3.1781 -0.9352
   11MOL0     H 1430  10.359   5.854   5.061  0.4292 -2.0755  0.3520
   11MOL0     H 1431  10.443   5.860   4.903 -0.5158 -0.6559 -0.0289
   11MOL0     H 1432  10.141   5.854   4.980 -4.5512  4.1709 -2.3822
   11MOL0     H 1433  10.217   5.992   4.922 -1.6680  0.6441 -1.9125
   11MOL0     H 1434  10.129   5.784   4.731  2.8174 -1.5987  0.2467
   11MOL0     H 1435  10.259   5.898   4.688 -1.3021 -0.5178 -0.6729
   11MOL0     H 1436   9.886   5.859   4.760 -3.7781  1.3693 -1.9697
   11MOL0     H 1437   9.698   6.084   4.677  1.4792 -0.4195 -0.0093
   11MOL0     H 1438   9.702   6.013   4.836  1.5390 -0.9339  1.3959
   11MOL0     H 1439   9.590   6.258   4.813  0.5031  1.4035 -1.3967
   11MOL0     H 1440   9.758   6.305   4.783  1.3901 -2.1748 -0.7351
   11MOL0     H 1441   9.844   6.251   4.995  0.4817 -0.1424  0.9294
   11MOL0     H 1442   9.703   6.162   5.053 -3.2967  1.3881  0.6149
   11MOL0     H 1443   9.698   6.442   4.969 -1.7636  1.7590  0.8956
   11MOL0     H 1444   9.734   6.401   5.142 -4.0497  3.4302  1.4747
   11MOL0     H 1445   9.699   6.268   5.292  0.7550 -0.8028  0.4229
   11MOL0     H 1446   9.695   6.047   5.506  2.0828  1.2413 -3.3819
   11MOL0     H 1447   9.744   6.221   5.525  0.3079 -0.8418 -0.3820
   11MOL0     H 1448   9.620   6.151   5.626 -1.2106 -0.8690 -0.0780
   11MOL0     H 1449   9.315   6.012   5.867 -0.7756  0.9775  2.9019
   11MOL0     H 1450   9.171   5.870   6.018 -0.5533 -3.1619  0.1054
   11MOL0     H 1451   8.763   5.798   5.827 -0.9342 -0.7029  0.5347
   11MOL0     H 1452   8.824   5.629   5.847  5.9608  0.4202  1.1958
   11MOL0     H 1453   8.668   5.786   6.066  0.1927 -0.1380  0.2563
   11MOL0     H 1454   8.612   5.662   5.965 -1.3712  3.1258 -0.7202
   11MOL0     H 1455   8.847   5.659   6.153  0.0576  0.5360 -0.9739
   11MOL0     H 1456   8.806   5.517   6.051 -0.1228  1.1314 -2.9291
   11MOL0     H 1457   8.610   5.631   6.239 -0.2597 -0.6336  1.1327
   11MOL0     H 1458   8.608   5.468   6.163 -1.3475  1.1039 -0.2307
   11MOL0     H 1459   8.692   5.477   6.429  1.4473  2.3358  0.8636
   11MOL0     H 1460   8.833   5.553   6.361  0.0387 -0.6637 -0.4685
   11MOL0     H 1461   8.719   5.283   6.297 -0.1529  0.8344 -0.5446
   11MOL0     H 1462   8.852   5.352   6.208 -0.2125  2.2278  0.6914
   11MOL0     H 1463   9.010   5.341   6.385  1.3484 -1.1068 -0.2672
   11MOL0     H 1464   8.913   5.188   6.398 -0.7631  0.1452  1.0680
   11MOL0     H 1465   8.771   5.304   6.570 -0.4599  2.2030  2.2274
   11MOL0     H 1466   8.895   5.434   6.561  0.0945 -0.3166 -0.7652
   11MOL0     H 1467   8.892   5.838   5.684 -1.1081  2.1301 -1.4425
   11MOL0     H 1468   9.021   5.977   5.552  0.9060 -0.7397 -0.0557
   11MOL0     H 1469   9.216   6.155   5.347  0.3537 -4.0414  0.1547
   11MOL0     H 1470   9.306   6.267   5.144  1.0980  2.7278  0.2656
   11MOL0     H 1471  10.552   5.000   4.854 -0.2307 -4.9821 -3.3203
   11MOL0     H 1472  10.702   4.812   4.853 -0.5447  1.1733  1.1632
   11MOL0     H 1473  11.099   4.620   4.774  0.1928 -0.2668 -0.5505
   11MOL0     H 1474  11.247   4.419   4.815 -3.5760  0.4114 -0.8957
   11MOL0     H 1475  11.355   4.338   5.242  0.1269 -0.4653  1.0611
   11MOL0     H 1476  11.226   4.222   5.192  0.0305 -0.1005  0.0040
   11MOL0     H 1477  11.528   4.219   5.153  0.4615  1.0388  0.2698
   11MOL0     H 1478  11.429   4.097   5.073 -0.1553  1.7947 -0.2585
   11MOL0     H 1479  11.455   3.965   5.251  0.4438 -1.2394  1.9001
   11MOL0     H 1480  11.330   4.058   5.331  0.6173  0.5379  2.4302
   11MOL0     H 1481  11.518   4.028   5.484  2.6810  2.4664  2.8919
   11MOL0     H 1482  11.511   4.204   5.436 -4.0597 -1.3263  1.0412
   11MOL0     H 1483  11.864   4.022   5.250 -1.1253 -0.8827 -0.5288
   11MOL0     H 1484  11.179   4.479   5.248  0.1030  0.5074 -0.4002
   11MOL0     H 1485  11.028   4.647   5.192  1.5439  1.3269  0.3451
   12MOL0     O 1486   6.179   5.183   9.536 -0.5126  0.0128  0.2506
   12MOL0     C 1487   6.204   5.128   9.431  0.0201  0.3153  0.7051
   12MOL0     O 1488   6.329   5.092   9.386 -0.0578 -1.1076 -0.2927
   12MOL0     C 1489   6.438   5.106   9.465 -0.9706 -0.0075 -0.0553
   12MOL0     C 1490   6.515   4.988   9.494 -0.4294  0.3225 -0.2874
   12MOL0     C 1491   6.625   4.993   9.581 -0.1189  0.0358  0.3080
   12MOL0     C 1492   6.671   5.120   9.628  1.2115 -0.5516  0.8196
   12MOL0     O 1493   6.784   5.139   9.702  0.3383  0.0798  0.2378
   12MOL0     C 1494   6.879   5.033   9.727 -0.0849  0.3409 -0.3270
   12MOL0     C 1495   7.015   5.093   9.784 -0.4541 -1.4652  0.1747
   12MOL0     C 1496   7.128   4.987   9.787  0.3933 -0.0757  0.9183
   12MOL0     C 1497   7.125   4.872   9.888  0.8160 -0.0154 -0.3363
   12MOL0     C 1498   7.234   4.775   9.881 -0.5955 -0.5557  0.8267
   12MOL0     C 1499   7.229   4.688  10.011 -0.1147 -0.7136  0.1593
   12MOL0     C 1500   7.357   4.602  10.008  0.7858  0.2438  0.1069
   12MOL0     C 1501   7.328   4.507  10.116  1.1464  0.0754 -0.7152
   12MOL0     N 1502   7.454   4.451  10.155 -0.1929  0.0044 -0.0626
   12MOL0     C 1503   7.557   4.525  10.212 -0.7374  0.4071 -0.9673
   12MOL0     C 1504   7.664   4.438  10.220  0.1428  0.6003  0.9980
   12MOL0     C 1505   7.805   4.486  10.270  0.3101  0.7081 -0.1434
   12MOL0     C 1506   7.793   4.546  10.417  0.2391  0.6052 -0.6561
   12MOL0     C 1507   7.731   4.442  10.520 -0.2933 -0.4829 -0.3473
   12MOL0     C 1508   7.723   4.496  10.656 -1.3469  0.6602 -0.7792
   12MOL0     O 1509   7.627   4.413  10.722  0.4405 -0.5607  0.5548
   12MOL0     C 1510   7.600   4.446  10.855  0.0504  0.0588  1.2357
   12MOL0     C 1511   7.679   4.499  10.947 -0.0630  0.0602 -0.5010
   12MOL0     C 1512   7.632   4.525  11.080 -0.3867  0.3872  0.0403
   12MOL0     C 1513   7.731   4.574  11.176 -1.0086  1.2292  0.5941
   12MOL0     C 1514   7.500   4.479  11.121  0.5541  0.3950 -0.5441
   12MOL0     C 1515   7.444   4.480  11.265  0.1991 -0.5548  0.0599
   12MOL0     O 1516   7.344   4.399  11.296 -0.2343  0.1463 -0.1730
   12MOL0     C 1517   7.316   4.396  11.435  0.2649  0.3799  0.2550
   12MOL0     C 1518   7.244   4.503  11.490 -0.3471  0.3118 -1.2780
   12MOL0     C 1519   7.216   4.506  11.626  0.0147  0.2235  0.7608
   12MOL0     C 1520   7.258   4.397  11.704 -0.4866  0.6437 -0.7785
   12MOL0     O 1521   7.236   4.382  11.840  0.1094 -0.2603 -0.1999
   12MOL0     C 1522   7.135   4.457  11.904 -0.0723 -0.0889 -1.1500
   12MOL0     C 1523   7.112   4.412  12.057 -0.2798 -1.0647 -0.1674
   12MOL0     C 1524   7.233   4.453  12.143  0.1831  0.5721  0.8599
   12MOL0     C 1525   7.197   4.493  12.284 -0.1140  0.4082 -0.4585
   12MOL0     C 1526   7.332   4.492  12.366  0.1618 -0.0372 -0.1845
   12MOL0     C 1527   7.321   4.552  12.511 -0.3233  0.6122  0.6276
   12MOL0     C 1528   7.455   4.567  12.588  0.2078 -0.8038  0.7589
   12MOL0     C 1529   7.558   4.462  12.572 -0.0099 -0.5700 -0.0620
   12MOL0    Cl 1530   7.494   4.295  12.568  0.3896 -0.1090  0.0394
   12MOL0     C 1531   7.337   4.289  11.648  0.8565  0.3133  0.0455
   12MOL0     C 1532   7.372   4.299  11.515  0.4131  0.4011 -0.4805
   12MOL0     O 1533   7.491   4.562  11.343  0.6146  0.3493  0.6876
   12MOL0     C 1534   7.425   4.420  11.018 -0.2404  0.1970 -0.8893
   12MOL0     C 1535   7.472   4.416  10.890 -1.2184 -0.3523  0.3060
   12MOL0     N 1536   7.632   4.322  10.159 -0.3517  0.9029  0.3206
   12MOL0     N 1537   7.508   4.328  10.123 -0.2379 -0.6354  0.2793
   12MOL0     C 1538   6.590   5.232   9.614 -0.1917 -0.4207 -0.4809
   12MOL0     C 1539   6.479   5.234   9.525 -0.5642 -0.0255 -0.5976
   12MOL0     C 1540   6.085   5.077   9.358 -0.3088  0.5619 -0.3702
   12MOL0     C 1541   6.085   4.990   9.248 -0.1378 -1.2726  0.1326
   12MOL0     C 1542   5.976   4.956   9.164  0.8523  0.4456 -0.5585
   12MOL0     C 1543   5.855   5.020   9.190 -0.4713 -0.2660 -0.0835
   12MOL0     O 1544   5.743   5.007   9.114  0.3706  0.1191  0.4666
   12MOL0     C 1545   5.739   4.971   8.981 -0.3959  0.0026  0.1681
   12MOL0     C 1546   5.603   4.898   8.943 -0.1764 -0.0451 -0.0560
   12MOL0     C 1547   5.498   5.009   8.959  0.1607  0.2580  0.0565
   12MOL0     C 1548   5.364   4.965   8.880  0.1232 -0.0448  0.5447
   12MOL0     C 1549   5.383   4.945   8.738 -0.5982  0.8093 -0.6132
   12MOL0     C 1550   5.391   4.929   8.618  0.5227  0.9260 -0.5278
   12MOL0     C 1551   5.852   5.102   9.295  1.2056 -0.6470 -0.2468
   12MOL0     C 1552   5.958   5.132   9.376  0.5790 -0.2394 -0.2143
   12MOL0     H 1553   6.481   4.890   9.463  0.1772 -0.7142  2.0969
   12MOL0     H 1554   6.686   4.907   9.607 -0.7937 -0.4697  0.2475
   12MOL0     H 1555   6.838   4.960   9.797  0.2664  0.9276  0.5097
   12MOL0     H 1556   6.886   4.976   9.634  0.5726 -0.2889  0.0963
   12MOL0     H 1557   7.055   5.182   9.735  2.2826 -3.1893 -0.9137
   12MOL0     H 1558   7.004   5.122   9.889  2.0205 -1.7814  0.5727
   12MOL0     H 1559   7.130   4.955   9.683 -1.4378  0.8302  0.5578
   12MOL0     H 1560   7.223   5.029   9.821 -0.7945  1.7473  2.1675
   12MOL0     H 1561   7.111   4.925   9.982  1.5856 -0.8274  0.2402
   12MOL0     H 1562   7.031   4.816   9.889 -1.0314  2.8129  2.3780
   12MOL0     H 1563   7.234   4.713   9.791  0.0413 -2.0166  1.7851
   12MOL0     H 1564   7.330   4.825   9.865 -0.3562 -1.8588 -2.6783
   12MOL0     H 1565   7.234   4.751  10.101  0.1782  0.5556 -0.7234
   12MOL0     H 1566   7.139   4.627  10.020 -1.2255  1.0168  1.6579
   12MOL0     H 1567   7.369   4.545   9.915 -2.3975  0.3949 -0.4858
   12MOL0     H 1568   7.448   4.661  10.022  0.1064  2.1857 -2.6675
   12MOL0     H 1569   7.256   4.433  10.081 -0.9196  1.1838  0.9410
   12MOL0     H 1570   7.271   4.554  10.197 -1.5737 -2.2025 -1.1479
   12MOL0     H 1571   7.555   4.621  10.262 -0.4016  0.5518 -1.2265
   12MOL0     H 1572   7.882   4.409  10.279  0.3794  0.9034  1.1311
   12MOL0     H 1573   7.853   4.562  10.208 -2.3178  1.0133 -1.9680
   12MOL0     H 1574   7.745   4.644  10.411  0.7309  0.7814 -4.9462
   12MOL0     H 1575   7.899   4.569  10.433  0.9195  0.0955 -3.6793
   12MOL0     H 1576   7.803   4.360  10.527 -1.0946 -1.1177  0.6492
   12MOL0     H 1577   7.634   4.408  10.484 -1.6105  3.1759 -0.6922
   12MOL0     H 1578   7.695   4.601  10.641 -2.4912  0.6652  1.0977
   12MOL0     H 1579   7.818   4.476  10.706 -2.0210 -1.2139 -0.1439
   12MOL0     H 1580   7.783   4.519  10.926 -0.4767  1.8629 -1.0700
   12MOL0     H 1581   7.830   4.570  11.128 -2.9388  0.3665 -3.8838
   12MOL0     H 1582   7.712   4.676  11.212 -1.7643 -0.1438  4.5195
   12MOL0     H 1583   7.740   4.502  11.257 -2.1748 -0.3544 -0.6132
   12MOL0     H 1584   7.191   4.586  11.443 -2.2155  0.8225  1.5256
   12MOL0     H 1585   7.166   4.588  11.676 -1.7199  0.9691 -1.9570
   12MOL0     H 1586   7.150   4.564  11.919 -0.4505 -0.3078  1.2424
   12MOL0     H 1587   7.043   4.435  11.848  0.6696 -0.7080 -2.1652
   12MOL0     H 1588   7.016   4.453  12.090 -0.1361  0.6704 -1.7289
   12MOL0     H 1589   7.105   4.303  12.053 -2.1115 -0.9440 -1.7170
   12MOL0     H 1590   7.297   4.524  12.091 -0.5966  0.8270  0.2192
   12MOL0     H 1591   7.290   4.360  12.153  1.5071  1.0072 -1.7661
   12MOL0     H 1592   7.152   4.592  12.272 -1.4133 -0.3712 -2.5941
   12MOL0     H 1593   7.127   4.430  12.340  1.2174  1.0190  2.0509
   12MOL0     H 1594   7.410   4.541  12.308  1.1929 -0.1619  1.0644
   12MOL0     H 1595   7.355   4.386  12.375 -1.5106 -0.3204  1.6391
   12MOL0     H 1596   7.282   4.654  12.501  1.8097  1.2429 -2.5898
   12MOL0     H 1597   7.248   4.501  12.575 -0.4698 -0.0309 -0.0380
   12MOL0     H 1598   7.438   4.575  12.695  1.9246 -0.9551  1.0718
   12MOL0     H 1599   7.503   4.658  12.551 -1.8386 -1.3767 -4.0278
   12MOL0     H 1600   7.631   4.471  12.653 -0.7144 -1.5241  0.7014
   12MOL0     H 1601   7.616   4.477  12.480 -1.6877 -0.0784 -1.0804
   12MOL0     H 1602   7.362   4.208  11.716  0.6780 -0.4569 -0.7927
   12MOL0     H 1603   7.432   4.228  11.459  1.2398  1.4380 -0.9276
   12MOL0     H 1604   7.327   4.377  11.034  0.6977 -1.4386  0.7847
   12MOL0     H 1605   7.412   4.378  10.808  0.3604  0.3347 -1.2109
   12MOL0     H 1606   6.625   5.313   9.678 -0.8632 -1.0899  0.7793
   12MOL0     H 1607   6.430   5.331   9.519 -1.2341 -0.2944  0.2952
   12MOL0     H 1608   6.182   4.944   9.232  0.9320  1.2587 -1.2741
   12MOL0     H 1609   5.991   4.889   9.081 -0.7366 -1.2591  0.4715
   12MOL0     H 1610   5.736   5.056   8.913  0.5661 -2.0737 -2.6537
   12MOL0     H 1611   5.826   4.907   8.961 -2.1915 -1.9850 -1.8586
   12MOL0     H 1612   5.584   4.812   9.009 -1.5744  1.5822  1.7994
   12MOL0     H 1613   5.611   4.868   8.838  1.1199 -1.1474  0.3264
   12MOL0     H 1614   5.520   5.112   8.929 -2.4017  0.6272 -0.8592
   12MOL0     H 1615   5.481   5.017   9.067  0.8391 -1.1972  0.2845
   12MOL0     H 1616   5.294   5.045   8.905  1.8530  1.4553  0.8736
   12MOL0     H 1617   5.331   4.867   8.915  1.5603 -1.1703 -1.0495
   12MOL0     H 1618   5.387   4.921   8.511 -0.8942  0.1154 -0.4390
   12MOL0     H 1619   5.765   5.164   9.315  0.3433 -1.6769 -0.6910
   12MOL0     H 1620   5.935   5.203   9.455  1.0337 -1.6539  1.2355
   13MOL0     O 1621   9.503   2.011   6.249 -0.3066 -0.2644  0.6177
   13MOL0     C 1622   9.463   2.004   6.358  0.6711 -0.2041 -0.5612
   13MOL0     O 1623   9.525   2.024   6.482  0.3897 -0.8686 -0.2576
   13MOL0     C 1624   9.662   2.033   6.491 -0.2320  0.1961 -0.6674
   13MOL0     C 1625   9.731   1.936   6.417 -1.5541  0.1774 -0.8174
   13MOL0     C 1626   9.870   1.954   6.414 -0.6575  0.3763  0.1491
   13MOL0     C 1627   9.932   2.058   6.482  0.5582  0.5224  0.5361
   13MOL0     O 1628  10.063   2.087   6.473  0.3008  0.1969  0.2934
   13MOL0     C 1629  10.162   2.001   6.433  0.0746 -0.2768  0.9886
   13MOL0     C 1630  10.183   1.882   6.523  0.6781 -0.1285  0.2363
   13MOL0     C 1631  10.241   1.925   6.660  0.5048  0.1120 -0.9546
   13MOL0     C 1632  10.144   1.899   6.772  0.0634 -1.0175  0.3015
   13MOL0     C 1633  10.209   1.911   6.908  0.1666 -0.2058 -0.5425
   13MOL0     C 1634  10.104   1.888   7.013 -0.6577 -0.2651  0.1717
   13MOL0     C 1635  10.162   1.848   7.151  0.6484 -0.3917 -0.8650
   13MOL0     C 1636  10.180   1.700   7.152  0.2320  0.5210  1.2661
   13MOL0     N 1637  10.322   1.666   7.188  0.2481 -0.0865 -0.1797
   13MOL0     C 1638  10.412   1.589   7.122 -0.2600 -0.7351  0.6425
   13MOL0     C 1639  10.516   1.576   7.198  0.0600  0.3424 -0.1898
   13MOL0     C 1640  10.644   1.516   7.171  0.4051 -0.2266  0.1975
   13MOL0     C 1641  10.751   1.606   7.127 -0.0681 -0.7045  0.1998
   13MOL0     C 1642  10.861   1.524   7.058 -0.2842 -0.1004  0.1811
   13MOL0     C 1643  10.976   1.618   7.013  0.3454 -0.5656 -0.2220
   13MOL0     O 1644  10.929   1.730   6.938 -0.0141  0.0630 -0.1085
   13MOL0     C 1645  11.027   1.809   6.872  0.1557  0.0886 -0.4245
   13MOL0     C 1646  10.977   1.920   6.817 -0.1267  0.7091 -0.1703
   13MOL0     C 1647  11.049   2.026   6.754 -0.3968  1.0691 -0.6583
   13MOL0     C 1648  10.960   2.144   6.703  0.3865  0.7727  0.0250
   13MOL0     C 1649  11.188   1.997   6.740  0.5529 -0.6072 -0.4719
   13MOL0     C 1650  11.285   2.099   6.677 -0.1329  0.0287  1.0688
   13MOL0     O 1651  11.426   2.080   6.679  0.2440  0.8611  0.3943
   13MOL0     C 1652  11.494   2.173   6.605  0.0537 -0.9177 -0.2990
   13MOL0     C 1653  11.528   2.167   6.471  0.1222 -0.4148  0.5826
   13MOL0     C 1654  11.600   2.270   6.399 -0.3453 -0.7101 -0.3223
   13MOL0     C 1655  11.623   2.395   6.471 -0.0469  1.5851  0.8576
   13MOL0     O 1656  11.683   2.507   6.407  0.4767 -0.3041 -0.7215
   13MOL0     C 1657  11.657   2.642   6.458 -0.2748  0.2875  0.3268
   13MOL0     C 1658  11.666   2.727   6.331  0.0315 -0.3568 -0.2063
   13MOL0     C 1659  11.684   2.874   6.362 -0.5640 -0.8397 -0.2691
   13MOL0     C 1660  11.602   2.926   6.490  0.1000  0.5236 -0.1953
   13MOL0     C 1661  11.631   3.078   6.519  0.0896 -0.0445  0.5541
   13MOL0     C 1662  11.769   3.118   6.571  0.8426 -0.4634  0.4381
   13MOL0     C 1663  11.792   3.271   6.552  0.7954  0.2660  0.2729
   13MOL0     C 1664  11.898   3.318   6.649  1.4292 -0.4859 -0.3195
   13MOL0    Cl 1665  12.069   3.277   6.589  0.2327 -0.5942 -0.5396
   13MOL0     C 1666  11.584   2.399   6.605 -0.2079 -0.1056 -0.0498
   13MOL0     C 1667  11.531   2.291   6.672 -0.8053 -0.8491  0.1899
   13MOL0     O 1668  11.233   2.183   6.603  0.0824  0.2859 -0.1444
   13MOL0     C 1669  11.241   1.875   6.783 -0.3296 -1.2200 -0.0875
   13MOL0     C 1670  11.163   1.782   6.851 -0.6770 -0.2338  0.1326
   13MOL0     N 1671  10.497   1.644   7.318 -0.6195 -1.0681 -0.3487
   13MOL0     N 1672  10.380   1.696   7.308 -0.5640  0.0524  0.3727
   13MOL0     C 1673   9.858   2.144   6.564  0.4304  0.1540  0.4366
   13MOL0     C 1674   9.721   2.138   6.563 -0.1527  0.0827  1.1678
   13MOL0     C 1675   9.322   1.952   6.368  0.6740  0.7861  0.7415
   13MOL0     C 1676   9.244   1.887   6.272  0.2579 -0.3053 -0.3178
   13MOL0     C 1677   9.110   1.846   6.298  0.3565  0.0218  0.0436
   13MOL0     C 1678   9.046   1.873   6.422  0.1593 -0.6863  0.3486
   13MOL0     O 1679   8.920   1.829   6.441  0.4904  0.6719 -1.2573
   13MOL0     C 1680   8.851   1.853   6.563 -0.5307 -0.5590  0.1558
   13MOL0     C 1681   8.717   1.782   6.549  1.5141  0.6122  0.3833
   13MOL0     C 1682   8.731   1.625   6.555 -1.5404 -0.7156 -0.7708
   13MOL0     C 1683   8.606   1.548   6.534 -0.3596  0.1997 -0.8355
   13MOL0     C 1684   8.632   1.405   6.513  0.0926  0.5348 -0.5766
   13MOL0     C 1685   8.618   1.290   6.481 -0.0677  0.1744  0.2074
   13MOL0     C 1686   9.122   1.932   6.521  0.3688 -0.1804 -0.2113
   13MOL0     C 1687   9.250   1.968   6.491 -0.1454 -0.9132 -0.9166
   13MOL0     H 1688   9.688   1.850   6.365 -2.0051 -0.3097  0.3261
   13MOL0     H 1689   9.933   1.883   6.361 -3.4968 -2.3493  0.1418
   13MOL0     H 1690  10.152   1.977   6.326  1.1767  1.8962  0.3341
   13MOL0     H 1691  10.259   2.051   6.436 -0.2358  0.3014  1.6571
   13MOL0     H 1692  10.083   1.842   6.539 -0.1241  1.5172 -0.4166
   13MOL0     H 1693  10.241   1.807   6.470 -1.4452 -0.4782 -1.7018
   13MOL0     H 1694  10.335   1.870   6.675 -0.7359 -1.8148  0.0612
   13MOL0     H 1695  10.269   2.030   6.669  1.1707 -0.1754  0.6689
   13MOL0     H 1696  10.072   1.978   6.751  0.5559 -0.4545  0.6910
   13MOL0     H 1697  10.089   1.805   6.763 -0.7256 -0.5625  0.3677
   13MOL0     H 1698  10.287   1.835   6.914  0.6190  0.2373 -0.7978
   13MOL0     H 1699  10.245   2.013   6.924  0.1005 -0.1535 -0.7117
   13MOL0     H 1700  10.042   1.978   7.014  3.2102  2.6518  1.4448
   13MOL0     H 1701  10.045   1.799   6.989  2.5529 -2.2988 -0.7533
   13MOL0     H 1702  10.243   1.914   7.183  1.5808 -0.5868 -2.7093
   13MOL0     H 1703  10.080   1.873   7.219  1.9983 -1.1680  1.1771
   13MOL0     H 1704  10.142   1.647   7.065 -2.4142 -0.3034  2.8271
   13MOL0     H 1705  10.116   1.664   7.233  2.0032 -1.1210  2.0146
   13MOL0     H 1706  10.386   1.544   7.026 -0.0648  1.3241 -0.4445
   13MOL0     H 1707  10.686   1.468   7.260  1.1066  1.4208  0.8069
   13MOL0     H 1708  10.636   1.437   7.096 -1.0754 -1.2501  1.3871
   13MOL0     H 1709  10.789   1.660   7.214 -0.7610  1.9701 -1.0375
   13MOL0     H 1710  10.713   1.675   7.051 -0.4775 -1.2237 -0.0707
   13MOL0     H 1711  10.826   1.470   6.970  0.1784  1.7241 -1.1953
   13MOL0     H 1712  10.897   1.449   7.128 -3.3771 -3.8411 -1.8679
   13MOL0     H 1713  11.042   1.559   6.949  1.7571  2.8532 -2.2505
   13MOL0     H 1714  11.031   1.650   7.101 -1.4625  2.9279 -0.1799
   13MOL0     H 1715  10.877   1.951   6.843  0.3819  2.0887  0.2320
   13MOL0     H 1716  10.853   2.124   6.718  0.5122  0.2264  0.2064
   13MOL0     H 1717  10.975   2.234   6.763  0.4679  0.1719  0.9329
   13MOL0     H 1718  10.982   2.168   6.599  2.3281  0.7516  0.3991
   13MOL0     H 1719  11.504   2.078   6.413 -1.6271  0.9444 -0.9292
   13MOL0     H 1720  11.629   2.249   6.296 -2.1433 -4.1047 -0.2996
   13MOL0     H 1721  11.558   2.659   6.503 -0.6458 -3.2715  1.1038
   13MOL0     H 1722  11.729   2.673   6.535  1.6048 -0.6924 -0.9695
   13MOL0     H 1723  11.759   2.697   6.282  0.7975  2.5471 -0.6721
   13MOL0     H 1724  11.586   2.708   6.258 -0.2209  0.1608 -0.0659
   13MOL0     H 1725  11.662   2.937   6.275 -4.1014  1.8838  2.3348
   13MOL0     H 1726  11.792   2.875   6.379 -0.8279 -0.7337  1.6527
   13MOL0     H 1727  11.495   2.910   6.476  0.4360 -0.1555 -2.2209
   13MOL0     H 1728  11.633   2.866   6.577 -2.4194  1.1835  1.2509
   13MOL0     H 1729  11.554   3.113   6.587  1.9854  0.6059  2.4825
   13MOL0     H 1730  11.604   3.128   6.426  0.1968  0.1232  0.6124
   13MOL0     H 1731  11.769   3.098   6.678 -2.7779  3.2992  1.3719
   13MOL0     H 1732  11.855   3.064   6.529  0.5335  1.1000 -2.4738
   13MOL0     H 1733  11.702   3.328   6.574  1.2859  0.9806  0.4671
   13MOL0     H 1734  11.817   3.297   6.449 -0.3425  1.1597  0.2065
   13MOL0     H 1735  11.889   3.255   6.738  0.6726 -1.0125 -0.7608
   13MOL0     H 1736  11.888   3.424   6.673 -1.4151 -0.5404 -0.9406
   13MOL0     H 1737  11.629   2.476   6.667 -1.5226 -0.5005  1.4811
   13MOL0     H 1738  11.546   2.300   6.779  2.0532  3.1426 -0.3139
   13MOL0     H 1739  11.348   1.862   6.771 -0.1055 -0.3528  0.8097
   13MOL0     H 1740  11.204   1.688   6.886 -1.5423 -0.2461  1.1791
   13MOL0     H 1741   9.908   2.210   6.633 -0.2516  2.1367 -0.8875
   13MOL0     H 1742   9.673   2.212   6.626 -1.4857  0.0423  0.2271
   13MOL0     H 1743   9.296   1.861   6.180  1.6059 -3.3215  1.1296
   13MOL0     H 1744   9.053   1.792   6.224 -0.8273  0.6089  0.5046
   13MOL0     H 1745   8.910   1.802   6.639  1.3969 -0.9539 -1.5098
   13MOL0     H 1746   8.837   1.961   6.577  1.6497  0.0802 -1.9436
   13MOL0     H 1747   8.679   1.804   6.449 -2.0669 -0.9517  1.2098
   13MOL0     H 1748   8.645   1.817   6.624 -1.0795  2.9353 -2.8666
   13MOL0     H 1749   8.771   1.591   6.651  1.5940 -0.5373 -1.9060
   13MOL0     H 1750   8.809   1.591   6.486  0.7935  1.9904  0.3148
   13MOL0     H 1751   8.553   1.576   6.442  0.5764  0.0652 -1.4264
   13MOL0     H 1752   8.532   1.554   6.614 -2.2385  2.2535 -2.5771
   13MOL0     H 1753   8.605   1.184   6.477 -0.7992  0.2581  0.2870
   13MOL0     H 1754   9.082   1.942   6.621  1.4839  1.1035  0.1287
   13MOL0     H 1755   9.303   2.002   6.580 -0.2996  2.9661 -2.1201
   14MOL0     O 1756   6.450   9.507   7.267 -0.6074  0.4841 -0.0476
   14MOL0     C 1757   6.330   9.483   7.286 -1.1184 -0.5520 -0.1160
   14MOL0     O 1758   6.249   9.548   7.365  0.3176  0.6326  0.3838
   14MOL0     C 1759   6.287   9.665   7.414 -0.3806  0.4900  0.2605
   14MOL0     C 1760   6.362   9.764   7.343  0.3618 -0.6363  1.1953
   14MOL0     C 1761   6.406   9.883   7.411  0.7217 -0.1118 -0.0701
   14MOL0     C 1762   6.359   9.909   7.540  1.0928  0.4172  0.2328
   14MOL0     O 1763   6.374  10.025   7.609  0.2376 -0.2469 -0.0752
   14MOL0     C 1764   6.467  10.129   7.565  0.3128 -0.0489  0.2057
   14MOL0     C 1765   6.450  10.249   7.654 -0.3978  0.2692 -0.2527
   14MOL0     C 1766   6.513  10.377   7.587 -0.1766 -0.0644  0.3118
   14MOL0     C 1767   6.471  10.505   7.671  0.8580  0.4006 -0.6688
   14MOL0     C 1768   6.556  10.621   7.620  0.5226  0.1973 -0.4743
   14MOL0     C 1769   6.533  10.748   7.700 -0.5567  0.3342 -0.0569
   14MOL0     C 1770   6.384  10.781   7.703  0.3917 -0.4239 -0.4187
   14MOL0     C 1771   6.375  10.909   7.793 -0.8262  0.5244 -0.3203
   14MOL0     N 1772   6.420  11.032   7.731 -0.7753 -0.8161 -0.1210
   14MOL0     C 1773   6.400  11.064   7.599 -0.2846 -1.1422 -0.7139
   14MOL0     C 1774   6.474  11.169   7.574  0.6548 -0.0038 -0.0964
   14MOL0     C 1775   6.495  11.216   7.433 -1.0970 -0.3080 -0.3785
   14MOL0     C 1776   6.368  11.232   7.351 -0.5443 -1.2122 -0.2049
   14MOL0     C 1777   6.401  11.263   7.203  0.1790 -0.0370  0.6651
   14MOL0     C 1778   6.278  11.242   7.112  1.1528  0.6110  0.1653
   14MOL0     O 1779   6.275  11.105   7.077 -0.6242 -0.2432 -0.1936
   14MOL0     C 1780   6.301  11.071   6.947 -0.1891  0.1234  0.2641
   14MOL0     C 1781   6.211  10.986   6.885 -0.2209  0.4246  0.5843
   14MOL0     C 1782   6.229  10.940   6.746 -0.3358 -0.1097 -0.7139
   14MOL0     C 1783   6.134  10.847   6.687 -0.6772 -0.4747  0.2226
   14MOL0     C 1784   6.350  10.975   6.681 -0.5727  0.3491  0.1863
   14MOL0     C 1785   6.382  10.937   6.545 -0.1681 -0.5257 -0.7009
   14MOL0     O 1786   6.507  10.889   6.514 -0.4103  0.0418 -0.4423
   14MOL0     C 1787   6.540  10.853   6.380  0.8529 -0.6482 -0.2611
   14MOL0     C 1788   6.618  10.740   6.363 -0.0920 -0.9301 -0.1636
   14MOL0     C 1789   6.662  10.705   6.236  0.3940  0.0681 -0.8915
   14MOL0     C 1790   6.634  10.781   6.123  0.3970  1.0348 -0.6218
   14MOL0     O 1791   6.693  10.767   6.001 -0.4354 -0.0978 -0.4437
   14MOL0     C 1792   6.599  10.765   5.893  0.1370 -0.7478  0.0642
   14MOL0     C 1793   6.670  10.741   5.763  0.8882 -0.2268 -0.0112
   14MOL0     C 1794   6.792  10.837   5.737  0.5762  1.3004 -0.4935
   14MOL0     C 1795   6.768  10.976   5.791 -0.4403 -0.9319  0.4851
   14MOL0     C 1796   6.890  11.068   5.752 -0.3858  0.9399  0.4491
   14MOL0     C 1797   6.847  11.209   5.755  0.4722 -0.9376  0.4108
   14MOL0     C 1798   6.810  11.257   5.891  0.0371  0.2757  0.1231
   14MOL0     C 1799   6.707  11.368   5.913 -0.0319 -0.3415  0.0336
   14MOL0    Cl 1800   6.713  11.509   5.794 -0.5931  0.5366  0.2301
   14MOL0     C 1801   6.555  10.903   6.146 -0.2174  1.0204 -0.3320
   14MOL0     C 1802   6.519  10.938   6.274  0.6916 -0.6555 -0.3436
   14MOL0     O 1803   6.293  10.956   6.467  0.0591  0.1266 -0.3854
   14MOL0     C 1804   6.438  11.055   6.751 -0.7667  0.3415  0.6169
   14MOL0     C 1805   6.417  11.094   6.881  0.0574  0.2370 -0.8288
   14MOL0     N 1806   6.521  11.216   7.696  0.0790 -0.1014  0.6610
   14MOL0     N 1807   6.476  11.138   7.788 -0.8262 -0.9232 -0.1817
   14MOL0     C 1808   6.293   9.806   7.610  0.3823  0.4439  0.2929
   14MOL0     C 1809   6.258   9.687   7.550  0.8640  0.5524 -0.1450
   14MOL0     C 1810   6.281   9.361   7.218 -0.4244  0.1203 -0.2852
   14MOL0     C 1811   6.336   9.315   7.098  0.3432  0.2522 -0.1635
   14MOL0     C 1812   6.292   9.194   7.033 -0.8037  0.3249 -0.6248
   14MOL0     C 1813   6.194   9.116   7.086  0.0262  0.2097 -0.2451
   14MOL0     O 1814   6.167   9.001   7.016 -1.5981 -0.1017 -0.5609
   14MOL0     C 1815   6.079   8.906   7.067  0.3264 -0.7412  1.0742
   14MOL0     C 1816   5.931   8.950   7.040  0.3131  0.3245 -1.3633
   14MOL0     C 1817   5.833   8.840   7.077 -0.2068 -0.0739  0.3547
   14MOL0     C 1818   5.679   8.878   7.059  0.0354 -0.3567  0.2957
   14MOL0     C 1819   5.640   8.998   7.126 -0.2808 -0.3641 -0.8559
   14MOL0     C 1820   5.595   9.095   7.191  0.1077 -0.2809  0.3952
   14MOL0     C 1821   6.142   9.163   7.211  0.7216 -0.3134 -0.4845
   14MOL0     C 1822   6.183   9.281   7.275 -0.1209 -0.8288  0.0833
   14MOL0     H 1823   6.377   9.742   7.238 -2.4427  1.1733  0.2725
   14MOL0     H 1824   6.459   9.956   7.350  0.9037  0.4700  0.7679
   14MOL0     H 1825   6.573  10.103   7.569  0.5979  0.3821 -2.5654
   14MOL0     H 1826   6.452  10.175   7.467  0.9118  0.9396  0.5704
   14MOL0     H 1827   6.346  10.264   7.684 -0.7211 -1.3613 -0.4403
   14MOL0     H 1828   6.499  10.233   7.750 -0.1354 -2.1890 -0.7143
   14MOL0     H 1829   6.621  10.383   7.605 -0.3655  3.6721  0.9248
   14MOL0     H 1830   6.487  10.382   7.481 -1.8120 -0.1642  0.6844
   14MOL0     H 1831   6.363  10.507   7.658  0.5188 -2.1660  1.0771
   14MOL0     H 1832   6.487  10.485   7.777  4.4196 -1.4957 -1.3899
   14MOL0     H 1833   6.663  10.602   7.634  1.0344  3.1041  0.2661
   14MOL0     H 1834   6.531  10.628   7.514  0.0770  0.4241 -0.3604
   14MOL0     H 1835   6.564  10.729   7.803  0.6905  1.5362 -0.1867
   14MOL0     H 1836   6.588  10.831   7.654  0.8253  0.0799  1.0649
   14MOL0     H 1837   6.339  10.789   7.604 -0.0589 -0.5882 -0.2331
   14MOL0     H 1838   6.324  10.708   7.760  1.2518 -0.2440  0.7476
   14MOL0     H 1839   6.425  10.911   7.891  1.0098 -0.1319 -1.2033
   14MOL0     H 1840   6.267  10.918   7.805 -0.8929 -0.1259 -0.4117
   14MOL0     H 1841   6.369  11.002   7.515  0.7160 -0.8488 -1.3064
   14MOL0     H 1842   6.551  11.310   7.439  0.3135 -1.1597  0.4447
   14MOL0     H 1843   6.556  11.147   7.374  1.0989 -0.5424  1.9526
   14MOL0     H 1844   6.307  11.311   7.396 -1.0386 -2.4781  1.4458
   14MOL0     H 1845   6.311  11.139   7.360  0.6732 -1.7379  4.0252
   14MOL0     H 1846   6.479  11.192   7.175  0.0132  0.2018 -0.4384
   14MOL0     H 1847   6.447  11.361   7.187  1.7483 -1.2074 -3.4213
   14MOL0     H 1848   6.299  11.307   7.027  0.8781  0.0637 -0.3257
   14MOL0     H 1849   6.180  11.275   7.149 -0.5091 -3.4769 -0.0699
   14MOL0     H 1850   6.133  10.951   6.953  0.4079 -2.1818  0.0932
   14MOL0     H 1851   6.095  10.887   6.593 -3.2011  1.4279  1.9386
   14MOL0     H 1852   6.177  10.748   6.669 -0.4264 -0.2482 -0.4843
   14MOL0     H 1853   6.042  10.833   6.744 -0.5440 -0.8170  0.3522
   14MOL0     H 1854   6.649  10.688   6.453 -0.8162 -3.6614 -1.3969
   14MOL0     H 1855   6.720  10.613   6.225  3.1777  1.5684  0.3139
   14MOL0     H 1856   6.520  10.691   5.911 -0.2761  0.3391  3.5374
   14MOL0     H 1857   6.553  10.863   5.884  2.5747  0.5515  0.8813
   14MOL0     H 1858   6.709  10.639   5.760  1.1981 -0.1070 -0.2450
   14MOL0     H 1859   6.595  10.750   5.684  1.2764  0.1297 -0.3488
   14MOL0     H 1860   6.812  10.842   5.630 -0.1450  2.2578 -0.5966
   14MOL0     H 1861   6.887  10.798   5.776 -0.6456 -1.9400 -0.4198
   14MOL0     H 1862   6.681  11.023   5.745  0.2423 -0.3831 -0.2857
   14MOL0     H 1863   6.761  10.981   5.900  0.5328  1.1841  0.5156
   14MOL0     H 1864   6.919  11.064   5.646  2.1195  3.0109  0.9696
   14MOL0     H 1865   6.977  11.038   5.811 -1.0351  0.8330  1.3715
   14MOL0     H 1866   6.935  11.267   5.724 -0.7153  0.9994  0.5078
   14MOL0     H 1867   6.765  11.229   5.686  1.7834  4.5317 -0.0666
   14MOL0     H 1868   6.908  11.285   5.931  1.3643 -1.4997 -1.6483
   14MOL0     H 1869   6.788  11.173   5.958  1.6146  0.1282  0.4950
   14MOL0     H 1870   6.706  11.417   6.011 -0.7160 -1.0272  0.3899
   14MOL0     H 1871   6.611  11.320   5.894  0.3865 -0.2136 -2.8410
   14MOL0     H 1872   6.536  10.966   6.060 -0.1047  0.7123 -0.5848
   14MOL0     H 1873   6.480  11.037   6.294 -1.3522 -1.2727 -0.9940
   14MOL0     H 1874   6.526  11.088   6.696 -1.9759  1.1046 -0.9677
   14MOL0     H 1875   6.490  11.158   6.932 -0.7389 -0.6798  1.5962
   14MOL0     H 1876   6.259   9.822   7.712  0.2510 -0.4079  0.3872
   14MOL0     H 1877   6.212   9.597   7.589  1.1621  0.2299 -0.5222
   14MOL0     H 1878   6.411   9.359   7.033  0.5842 -3.2370 -2.5356
   14MOL0     H 1879   6.341   9.160   6.943 -0.4787  0.0589 -0.3496
   14MOL0     H 1880   6.085   8.809   7.016 -2.8537 -0.6734  0.3243
   14MOL0     H 1881   6.094   8.898   7.175  0.6666  0.8831  1.1761
   14MOL0     H 1882   5.931   8.996   6.940 -0.9019  1.2583 -0.9576
   14MOL0     H 1883   5.918   9.034   7.109 -2.4224 -1.0143 -0.1017
   14MOL0     H 1884   5.860   8.807   7.178  0.7687  1.0336  0.4920
   14MOL0     H 1885   5.849   8.754   7.013  0.6278 -0.9751  1.7241
   14MOL0     H 1886   5.619   8.799   7.105  0.2036 -1.5150 -1.4015
   14MOL0     H 1887   5.656   8.883   6.952 -0.8585 -0.7274  0.4641
   14MOL0     H 1888   5.544   9.163   7.257  0.4853  0.0452  0.3566
   14MOL0     H 1889   6.078   9.097   7.267  0.6295  1.0274  1.0685
   14MOL0     H 1890   6.142   9.323   7.367  3.0512  0.9983  0.8158
   15MOL0     O 1891   7.859   7.775   2.004 -0.5174  0.7639 -0.3949
   15MOL0     C 1892   7.802   7.875   2.040  0.7985 -0.7563 -0.4422
   15MOL0     O 1893   7.702   7.941   1.968 -0.5883 -0.2307 -0.1973
   15MOL0     C 1894   7.692   7.909   1.836  0.0709  1.1621  0.5133
   15MOL0     C 1895   7.611   7.792   1.806 -0.4634 -0.1942 -0.1181
   15MOL0     C 1896   7.615   7.749   1.677 -0.0733 -1.1094  0.0865
   15MOL0     C 1897   7.690   7.815   1.578  0.2558  0.1631  0.0410
   15MOL0     O 1898   7.694   7.767   1.451 -0.0446  0.3483  0.1690
   15MOL0     C 1899   7.695   7.862   1.334 -1.1210  0.4363 -0.4770
   15MOL0     C 1900   7.661   7.791   1.205  0.5429 -0.0389 -0.8454
   15MOL0     C 1901   7.776   7.743   1.128  0.0201  0.9036  0.7963
   15MOL0     C 1902   7.748   7.608   1.059 -0.3308  0.8741 -0.6545
   15MOL0     C 1903   7.877   7.560   0.977  0.0343  0.7698  0.0624
   15MOL0     C 1904   7.860   7.578   0.826  0.6302 -0.2903  0.1545
   15MOL0     C 1905   7.875   7.726   0.790  0.2562 -0.6654  1.0567
   15MOL0     C 1906   7.741   7.779   0.742  0.0767  0.4512 -0.3984
   15MOL0     N 1907   7.740   7.923   0.720 -0.3566 -1.0375 -0.0148
   15MOL0     C 1908   7.702   8.011   0.820 -0.2901 -0.5490 -0.4065
   15MOL0     C 1909   7.715   8.133   0.763  1.1559 -0.3784  0.0443
   15MOL0     C 1910   7.663   8.261   0.826  0.3248 -0.0202 -0.5245
   15MOL0     C 1911   7.771   8.367   0.842 -0.0010  0.6125 -0.1799
   15MOL0     C 1912   7.708   8.497   0.878  0.5557  0.1094  0.5091
   15MOL0     C 1913   7.809   8.597   0.919 -0.2351  0.7031 -0.1441
   15MOL0     O 1914   7.760   8.717   0.965 -0.0738 -0.8806 -0.3585
   15MOL0     C 1915   7.840   8.816   1.022 -0.5933  0.2977  0.5060
   15MOL0     C 1916   7.782   8.931   1.086 -0.2319  0.6372  0.2221
   15MOL0     C 1917   7.869   9.025   1.148  0.0642  0.4925 -0.1478
   15MOL0     C 1918   7.809   9.142   1.211  1.0140 -0.9589 -0.8197
   15MOL0     C 1919   8.011   9.007   1.141  0.8215  0.1538  0.1260
   15MOL0     C 1920   8.108   9.099   1.209 -0.2707 -0.3979  0.2207
   15MOL0     O 1921   8.240   9.068   1.195 -0.5868 -0.1446  0.1860
   15MOL0     C 1922   8.337   9.091   1.287 -0.8631 -0.5709  0.0474
   15MOL0     C 1923   8.414   8.981   1.326  0.6831 -0.3079 -0.1159
   15MOL0     C 1924   8.509   8.989   1.432 -0.7008  0.3284 -0.2090
   15MOL0     C 1925   8.540   9.113   1.490 -0.0531 -0.7370 -0.2698
   15MOL0     O 1926   8.635   9.128   1.590  0.4608  0.2106 -1.5399
   15MOL0     C 1927   8.717   9.015   1.621 -0.5866  0.0578 -0.2377
   15MOL0     C 1928   8.817   9.083   1.720 -0.2588 -0.4419  0.0840
   15MOL0     C 1929   8.904   8.997   1.818  0.3440  0.3561  1.1132
   15MOL0     C 1930   8.810   8.923   1.925  0.3352  0.5292 -0.6823
   15MOL0     C 1931   8.759   8.995   2.041 -0.0639 -0.6821  0.6422
   15MOL0     C 1932   8.871   9.041   2.133 -0.6340  0.6457 -0.4812
   15MOL0     C 1933   8.810   9.118   2.253 -0.6363  0.0387 -1.0866
   15MOL0     C 1934   8.916   9.173   2.346 -0.4960  0.6751  0.5308
   15MOL0    Cl 1935   8.849   9.284   2.474  0.5052  0.4436 -0.4622
   15MOL0     C 1936   8.477   9.227   1.435  0.0610  0.4733 -0.0985
   15MOL0     C 1937   8.370   9.210   1.348  0.1929 -0.4171 -0.6936
   15MOL0     O 1938   8.075   9.187   1.283 -0.0324 -0.6321  0.9575
   15MOL0     C 1939   8.062   8.898   1.080  0.2996  0.5155 -0.3839
   15MOL0     C 1940   7.984   8.804   1.016  0.7108  0.4115 -0.3286
   15MOL0     N 1941   7.754   8.115   0.624 -0.5391 -0.4587 -0.0902
   15MOL0     N 1942   7.770   7.995   0.601 -0.8537 -0.3006  0.4795
   15MOL0     C 1943   7.778   7.920   1.610 -0.5443  0.6293  0.7643
   15MOL0     C 1944   7.779   7.960   1.741 -0.5241  0.5546  0.0337
   15MOL0     C 1945   7.829   7.915   2.183  0.1125 -0.7062 -0.5693
   15MOL0     C 1946   7.763   8.028   2.245  0.4589 -0.3893  0.8726
   15MOL0     C 1947   7.793   8.064   2.369  0.3507  0.3761 -1.0890
   15MOL0     C 1948   7.894   7.998   2.443  0.4576 -0.5181 -0.3867
   15MOL0     O 1949   7.914   8.042   2.573 -0.3730 -0.3323 -0.0436
   15MOL0     C 1950   8.011   7.990   2.666  0.2767 -1.2158  0.5279
   15MOL0     C 1951   8.048   8.109   2.758  0.3628 -0.2011  0.4859
   15MOL0     C 1952   8.127   8.224   2.685 -0.4485 -0.0874  0.9903
   15MOL0     C 1953   8.117   8.349   2.769  0.4450  0.3886 -1.2235
   15MOL0     C 1954   7.981   8.407   2.766 -0.4041  0.4830  1.1640
   15MOL0     C 1955   7.860   8.433   2.777 -0.1512 -0.3121  0.5248
   15MOL0     C 1956   7.959   7.887   2.390 -0.2346  0.5078  0.1248
   15MOL0     C 1957   7.925   7.844   2.263  0.4426 -0.3647  0.8590
   15MOL0     H 1958   7.561   7.732   1.881 -2.1044  3.3607  1.8957
   15MOL0     H 1959   7.554   7.668   1.638  0.5482 -1.0014 -1.1439
   15MOL0     H 1960   7.619   7.941   1.332 -1.6589 -0.0966 -1.7590
   15MOL0     H 1961   7.797   7.902   1.338 -0.5447 -0.9389 -1.0626
   15MOL0     H 1962   7.598   7.705   1.230  0.6609  0.3172  0.7798
   15MOL0     H 1963   7.611   7.870   1.147 -0.3414 -0.8230 -1.1732
   15MOL0     H 1964   7.793   7.825   1.057 -3.1557  0.8108 -0.2001
   15MOL0     H 1965   7.871   7.732   1.182  0.4652  0.3239 -0.0898
   15MOL0     H 1966   7.728   7.527   1.130 -0.9161  0.5876 -1.1358
   15MOL0     H 1967   7.667   7.605   0.986  1.6984  2.5754 -3.1836
   15MOL0     H 1968   7.961   7.612   1.023 -1.5680  2.1125  1.6138
   15MOL0     H 1969   7.890   7.452   0.992  2.0605  1.0449  0.5637
   15MOL0     H 1970   7.927   7.514   0.769 -0.3132  0.4198 -1.8807
   15MOL0     H 1971   7.758   7.546   0.799  0.7020  1.4791 -2.7217
   15MOL0     H 1972   7.916   7.785   0.872  0.8910 -1.4867  1.3413
   15MOL0     H 1973   7.953   7.733   0.714  0.5451  1.7878  1.5262
   15MOL0     H 1974   7.666   7.761   0.819  1.2257  0.5887  0.7852
   15MOL0     H 1975   7.719   7.712   0.658  3.0052 -0.1950 -0.7616
   15MOL0     H 1976   7.662   7.993   0.919  1.5028 -1.5722  0.1543
   15MOL0     H 1977   7.577   8.298   0.769 -0.2047  0.6032  0.6402
   15MOL0     H 1978   7.616   8.246   0.924 -0.7724 -0.2942 -1.0704
   15MOL0     H 1979   7.819   8.366   0.743 -1.6276 -1.3377 -1.0265
   15MOL0     H 1980   7.852   8.351   0.913  2.7348 -0.2981 -3.2438
   15MOL0     H 1981   7.637   8.479   0.959 -0.7505 -1.7685 -0.9529
   15MOL0     H 1982   7.646   8.536   0.797  1.3702 -2.1381 -1.3259
   15MOL0     H 1983   7.878   8.620   0.837  0.0034  2.1017  0.4299
   15MOL0     H 1984   7.862   8.564   1.008  0.3864  3.8755  0.7897
   15MOL0     H 1985   7.678   8.947   1.111 -0.7119  2.8797 -2.7254
   15MOL0     H 1986   7.835   9.143   1.317  0.7752  0.6328 -0.7514
   15MOL0     H 1987   7.849   9.230   1.159 -1.4497  0.2390 -0.8118
   15MOL0     H 1988   7.700   9.156   1.209  0.7781 -2.3135  0.6853
   15MOL0     H 1989   8.390   8.888   1.276 -1.0634  2.0202 -4.0875
   15MOL0     H 1990   8.551   8.891   1.455 -1.4465  0.2550  0.9458
   15MOL0     H 1991   8.666   8.931   1.668 -0.3164 -0.5092 -0.9479
   15MOL0     H 1992   8.764   8.977   1.531 -1.6487 -0.6705 -0.5075
   15MOL0     H 1993   8.884   9.142   1.657  0.2225  0.7716  1.6520
   15MOL0     H 1994   8.773   9.159   1.785  0.9737  1.3456 -1.0940
   15MOL0     H 1995   8.979   9.056   1.871  0.4764  0.3783  0.8973
   15MOL0     H 1996   8.961   8.921   1.765 -1.6621 -0.8466  0.5588
   15MOL0     H 1997   8.719   8.874   1.887 -0.8426  0.8381  1.5423
   15MOL0     H 1998   8.861   8.833   1.960  1.0452  0.6639 -1.3597
   15MOL0     H 1999   8.706   8.929   2.110  0.0426  0.2179  1.6108
   15MOL0     H 2000   8.692   9.074   2.004  1.5790  1.5573  2.1516
   15MOL0     H 2001   8.944   8.964   2.161 -1.6722 -0.2314 -0.1064
   15MOL0     H 2002   8.934   9.111   2.078 -2.9464  2.6099 -0.7945
   15MOL0     H 2003   8.748   9.052   2.314 -0.7746  1.2213  0.1034
   15MOL0     H 2004   8.743   9.198   2.220 -2.4552  0.0948  2.2778
   15MOL0     H 2005   9.001   9.205   2.284  0.1549  0.8226  1.4742
   15MOL0     H 2006   8.957   9.088   2.401  2.0024  2.3773  1.5263
   15MOL0     H 2007   8.484   9.325   1.481 -0.6243  0.0502  0.9472
   15MOL0     H 2008   8.296   9.289   1.338  2.3764  2.1071  1.4967
   15MOL0     H 2009   8.167   8.872   1.071  0.4939  0.2742  1.9401
   15MOL0     H 2010   8.026   8.711   0.978 -2.6448 -0.7554 -1.4647
   15MOL0     H 2011   7.837   7.960   1.528  0.5370 -2.4020 -0.0742
   15MOL0     H 2012   7.861   8.030   1.755  0.8191 -0.0564 -3.7946
   15MOL0     H 2013   7.695   8.099   2.199  0.1170 -1.3002 -0.0655
   15MOL0     H 2014   7.738   8.152   2.402 -3.5839 -0.2254 -5.0140
   15MOL0     H 2015   7.970   7.905   2.721  0.6101  0.4157  3.5349
   15MOL0     H 2016   8.099   7.959   2.609  1.8098  3.1571  0.1035
   15MOL0     H 2017   8.091   8.084   2.855 -0.8374  2.1242  1.6898
   15MOL0     H 2018   7.948   8.147   2.780 -1.0895 -3.7540  0.6732
   15MOL0     H 2019   8.091   8.231   2.581 -1.1272  0.8479  1.2734
   15MOL0     H 2020   8.234   8.205   2.687 -0.3605 -1.6296 -3.7660
   15MOL0     H 2021   8.200   8.411   2.733  3.1449 -2.2508 -0.0726
   15MOL0     H 2022   8.135   8.334   2.876 -4.0859  2.6478  0.1128
   15MOL0     H 2023   7.762   8.477   2.781  0.1846  0.7991 -1.9093
   15MOL0     H 2024   8.045   7.832   2.429 -0.7261 -3.6632 -3.7531
   15MOL0     H 2025   7.975   7.762   2.214  0.0733  0.6652 -1.3940
   16MOL0     O 2026   7.342   3.322   0.174 -0.4571 -0.2869 -0.8368
   16MOL0     C 2027   7.436   3.362   0.242  0.2312 -0.3061 -1.3092
   16MOL0     O 2028   7.445   3.375   0.379  0.2229 -0.3801  0.6084
   16MOL0     C 2029   7.346   3.343   0.469 -0.6606  0.0869  0.3144
   16MOL0     C 2030   7.363   3.406   0.591 -0.0225  0.0239  0.5715
   16MOL0     C 2031   7.287   3.368   0.700  0.0387  0.0744 -0.5250
   16MOL0     C 2032   7.179   3.275   0.699  0.5612 -0.3663 -0.3286
   16MOL0     O 2033   7.091   3.244   0.803  0.0395  0.7911  1.0181
   16MOL0     C 2034   7.133   3.275   0.932 -0.1559  0.1733  0.4873
   16MOL0     C 2035   7.023   3.220   1.016  0.7975 -0.1760  0.4172
   16MOL0     C 2036   7.031   3.281   1.156 -0.4534  0.1834  0.2219
   16MOL0     C 2037   6.910   3.233   1.251  1.1737 -0.7580  1.1550
   16MOL0     C 2038   6.916   3.303   1.384  0.1002 -0.6756  0.5613
   16MOL0     C 2039   6.834   3.212   1.484 -0.1856 -0.0895  0.8767
   16MOL0     C 2040   6.834   3.260   1.625  0.1911 -0.6113 -0.2186
   16MOL0     C 2041   6.717   3.220   1.710  0.1800  0.8036  0.3951
   16MOL0     N 2042   6.715   3.073   1.745 -1.1697  0.5582  0.1682
   16MOL0     C 2043   6.741   2.971   1.667 -0.2871 -0.2087 -0.4188
   16MOL0     C 2044   6.737   2.862   1.740  0.3911 -0.4556  0.4449
   16MOL0     C 2045   6.749   2.721   1.683  0.5702  0.5295 -0.8292
   16MOL0     C 2046   6.628   2.661   1.614 -1.1152  0.2057  0.2149
   16MOL0     C 2047   6.513   2.648   1.714  0.6757 -0.2318  0.5685
   16MOL0     C 2048   6.510   2.511   1.794 -0.6979 -0.4663  0.6910
   16MOL0     O 2049   6.422   2.516   1.909 -0.0107  0.1783 -0.3042
   16MOL0     C 2050   6.411   2.421   2.003  0.2334 -0.7584 -0.0547
   16MOL0     C 2051   6.507   2.313   2.018  0.3310  0.2136  0.2173
   16MOL0     C 2052   6.505   2.231   2.127 -0.0039  0.2779 -0.0359
   16MOL0     C 2053   6.612   2.120   2.126 -1.2304 -0.1366 -0.1471
   16MOL0     C 2054   6.409   2.244   2.226 -0.0149  0.2638 -0.1888
   16MOL0     C 2055   6.401   2.162   2.345 -0.2530 -0.2677  0.0351
   16MOL0     O 2056   6.317   2.202   2.440 -0.0535  0.4883 -0.2883
   16MOL0     C 2057   6.304   2.137   2.558  0.5174  0.2769 -0.2500
   16MOL0     C 2058   6.298   2.213   2.680  0.5423 -0.8551 -0.1506
   16MOL0     C 2059   6.274   2.147   2.801  1.1792 -0.0222 -0.1608
   16MOL0     C 2060   6.268   2.004   2.809 -0.1586  1.5776  0.7750
   16MOL0     O 2061   6.251   1.952   2.934  0.4209  0.0423 -0.8427
   16MOL0     C 2062   6.271   1.821   2.966 -0.0644 -0.7903 -0.2799
   16MOL0     C 2063   6.414   1.774   2.962 -0.1973  0.0886  0.4826
   16MOL0     C 2064   6.426   1.624   2.981  0.5048  0.2252 -0.0583
   16MOL0     C 2065   6.332   1.569   3.088  1.0614 -0.2969 -0.5013
   16MOL0     C 2066   6.350   1.421   3.112  0.8191  0.1920 -0.0220
   16MOL0     C 2067   6.252   1.374   3.227 -0.5246  1.6919  0.3670
   16MOL0     C 2068   6.312   1.232   3.259  0.1073 -0.8300  0.0662
   16MOL0     C 2069   6.249   1.171   3.384 -1.0143  0.1224  0.2260
   16MOL0    Cl 2070   6.322   0.997   3.409 -0.5725 -0.6646 -0.2769
   16MOL0     C 2071   6.288   1.926   2.692 -0.0501  0.0337  0.2811
   16MOL0     C 2072   6.298   1.992   2.575 -0.1019 -0.4330 -0.1670
   16MOL0     O 2073   6.473   2.058   2.355  0.1548  0.4105 -0.0317
   16MOL0     C 2074   6.312   2.349   2.208  0.6187  0.4584  0.3015
   16MOL0     C 2075   6.317   2.426   2.098 -0.1573  0.0568  0.1858
   16MOL0     N 2076   6.699   2.898   1.873  0.5378  0.4451 -0.8949
   16MOL0     N 2077   6.679   3.025   1.865  0.0582 -0.4188 -0.1659
   16MOL0     C 2078   7.155   3.219   0.570 -0.1629 -0.5259 -0.0492
   16MOL0     C 2079   7.239   3.250   0.458 -0.1920 -0.4153 -0.0042
   16MOL0     C 2080   7.557   3.376   0.155 -0.9761  1.1388  0.2770
   16MOL0     C 2081   7.553   3.360   0.020  0.5152  0.6636  0.2645
   16MOL0     C 2082   7.669   3.366  -0.059 -0.8122  0.1113 -0.0715
   16MOL0     C 2083   7.797   3.398  -0.000  0.8521  0.5794 -0.2275
   16MOL0     O 2084   7.910   3.424  -0.073 -0.2398  0.0082 -0.3504
   16MOL0     C 2085   7.918   3.408  -0.215  0.2109 -0.7624  0.0658
   16MOL0     C 2086   8.059   3.437  -0.255  0.5307 -0.0129 -1.0466
   16MOL0     C 2087   8.148   3.312  -0.233 -0.0547  0.0414  0.2515
   16MOL0     C 2088   8.287   3.341  -0.290 -0.0620  0.3300  0.4021
   16MOL0     C 2089   8.364   3.216  -0.287  0.1132  0.4860 -0.4987
   16MOL0     C 2090   8.412   3.107  -0.260 -0.3659 -1.0634 -0.4614
   16MOL0     C 2091   7.797   3.417   0.139 -0.0559 -0.1168 -0.8557
   16MOL0     C 2092   7.682   3.404   0.222 -0.3354 -0.1755 -0.8385
   16MOL0     H 2093   7.452   3.468   0.599  2.4434 -3.0272 -1.0057
   16MOL0     H 2094   7.295   3.422   0.795  1.1466 -1.0345  0.0487
   16MOL0     H 2095   7.232   3.236   0.957  0.4176  0.9818 -0.4340
   16MOL0     H 2096   7.136   3.384   0.943  2.3079  0.2525 -0.4101
   16MOL0     H 2097   6.924   3.240   0.974  1.4064 -0.0847 -1.0388
   16MOL0     H 2098   7.032   3.111   1.018 -0.1253 -0.2550  0.5885
   16MOL0     H 2099   7.125   3.253   1.203 -0.9709 -2.4544 -0.1646
   16MOL0     H 2100   7.019   3.390   1.152 -0.6948  0.2791  2.4153
   16MOL0     H 2101   6.811   3.247   1.206  1.0359  2.5861  2.2093
   16MOL0     H 2102   6.927   3.126   1.261 -1.1028 -1.2021  0.8067
   16MOL0     H 2103   7.023   3.308   1.406  0.2930  3.0565 -0.5426
   16MOL0     H 2104   6.873   3.403   1.386  1.9076  0.1847 -1.1530
   16MOL0     H 2105   6.730   3.201   1.451 -0.7474  3.0429  1.2855
   16MOL0     H 2106   6.884   3.116   1.469  0.4137  0.5516 -1.6977
   16MOL0     H 2107   6.927   3.225   1.671 -0.3050 -3.6484 -1.2497
   16MOL0     H 2108   6.840   3.368   1.612  0.6734 -0.9592 -3.8716
   16MOL0     H 2109   6.619   3.230   1.661  1.3413  2.1045 -1.8382
   16MOL0     H 2110   6.731   3.272   1.805  1.8604 -1.7410  1.6370
   16MOL0     H 2111   6.748   2.982   1.559 -4.1627  5.2832 -0.5631
   16MOL0     H 2112   6.834   2.704   1.616  2.3681 -0.1652  1.4965
   16MOL0     H 2113   6.773   2.659   1.770 -0.2566  1.3410  0.0009
   16MOL0     H 2114   6.649   2.559   1.579  0.2128  0.5772 -0.1145
   16MOL0     H 2115   6.600   2.724   1.529 -6.1105 -1.0805  0.6049
   16MOL0     H 2116   6.424   2.633   1.653 -0.2888 -0.0714  1.9123
   16MOL0     H 2117   6.499   2.727   1.789 -2.0965 -0.7759  0.6989
   16MOL0     H 2118   6.614   2.495   1.826 -0.3932 -0.5542 -0.2871
   16MOL0     H 2119   6.473   2.426   1.735 -4.2011  1.9310 -0.8781
   16MOL0     H 2120   6.588   2.304   1.946  0.0862 -1.9568  0.1625
   16MOL0     H 2121   6.591   2.017   2.159 -1.2792 -0.8124 -2.1405
   16MOL0     H 2122   6.647   2.103   2.023  1.8538 -1.8519  1.0606
   16MOL0     H 2123   6.698   2.151   2.186 -1.3409 -0.9179  0.4375
   16MOL0     H 2124   6.311   2.321   2.674  1.0480 -0.6795  2.8279
   16MOL0     H 2125   6.271   2.208   2.891  1.3807 -2.1578  1.3673
   16MOL0     H 2126   6.222   1.807   3.062  1.5317 -3.4976  0.2548
   16MOL0     H 2127   6.215   1.764   2.891  0.1069  0.1502 -1.1472
   16MOL0     H 2128   6.456   1.797   2.863 -0.7515 -2.7691 -0.4975
   16MOL0     H 2129   6.474   1.827   3.036  1.0004  0.8053 -0.9316
   16MOL0     H 2130   6.528   1.599   3.013  0.9772 -0.8165 -2.1498
   16MOL0     H 2131   6.401   1.578   2.885 -1.6985 -0.9895  1.0124
   16MOL0     H 2132   6.341   1.629   3.179  0.2287 -0.2601 -0.4353
   16MOL0     H 2133   6.233   1.590   3.047  2.1426  3.6135 -1.5206
   16MOL0     H 2134   6.452   1.397   3.142  0.5973 -2.5911 -1.1298
   16MOL0     H 2135   6.326   1.364   3.021 -0.6105  3.0002 -1.5163
   16MOL0     H 2136   6.249   1.446   3.309  0.4042 -0.3136  2.2683
   16MOL0     H 2137   6.146   1.371   3.198 -1.8791  0.8997  4.5978
   16MOL0     H 2138   6.420   1.234   3.278 -0.3432 -4.1537  4.8665
   16MOL0     H 2139   6.292   1.168   3.173 -1.2118  1.6682 -1.6124
   16MOL0     H 2140   6.142   1.153   3.368 -0.6704 -2.1125  0.1139
   16MOL0     H 2141   6.257   1.236   3.472 -0.2823  0.2859  0.0398
   16MOL0     H 2142   6.286   1.818   2.692 -1.3335  0.0491  0.3733
   16MOL0     H 2143   6.318   1.928   2.489 -0.9737  0.3843 -0.9979
   16MOL0     H 2144   6.223   2.365   2.268 -1.0941  2.4618 -2.5539
   16MOL0     H 2145   6.235   2.498   2.099 -0.5328 -0.3502 -0.3971
   16MOL0     H 2146   7.068   3.153   0.571  0.9872 -2.1120 -1.0220
   16MOL0     H 2147   7.221   3.194   0.367  0.8602  0.8498 -1.0498
   16MOL0     H 2148   7.465   3.333  -0.038 -0.2037 -2.1868  2.4486
   16MOL0     H 2149   7.665   3.330  -0.162 -2.7709  2.6208 -0.9965
   16MOL0     H 2150   7.884   3.309  -0.249 -3.3831  0.2536  0.2473
   16MOL0     H 2151   7.853   3.476  -0.272 -1.9901 -2.1167  0.8230
   16MOL0     H 2152   8.097   3.522  -0.197  0.0198 -0.9718  0.7391
   16MOL0     H 2153   8.061   3.467  -0.360 -1.2271  1.6384 -0.6757
   16MOL0     H 2154   8.103   3.217  -0.266 -0.6272 -0.0225  1.1978
   16MOL0     H 2155   8.159   3.316  -0.125  0.2575  0.1851  0.2168
   16MOL0     H 2156   8.324   3.432  -0.242 -3.6058  2.6269 -0.8360
   16MOL0     H 2157   8.277   3.370  -0.395  2.7002  4.1193  0.9886
   16MOL0     H 2158   8.439   3.005  -0.241  1.0806  0.0372  4.8571
   16MOL0     H 2159   7.889   3.452   0.186 -0.2010 -0.7750 -0.0756
   16MOL0     H 2160   7.691   3.406   0.330 -2.1040  0.5042 -0.6649
   17MOL0     O 2161   0.145   2.396   8.725 -0.2200  0.6739 -0.4705
   17MOL0     C 2162   0.270   2.394   8.726 -0.4779  0.4967 -0.6643
   17MOL0     O 2163   0.345   2.308   8.804 -0.3452 -0.7784 -0.5326
   17MOL0     C 2164   0.282   2.237   8.904  0.6624 -0.4566 -0.8563
   17MOL0     C 2165   0.163   2.161   8.903 -0.6120  0.0326  0.5130
   17MOL0     C 2166   0.125   2.074   9.011 -0.4265 -0.0928  0.5110
   17MOL0     C 2167   0.206   2.055   9.124  0.1751 -0.1604  0.9732
   17MOL0     O 2168   0.174   1.966   9.222 -0.3154 -0.3094 -1.5124
   17MOL0     C 2169   0.272   1.905   9.305 -0.1606  0.8250  0.6001
   17MOL0     C 2170   0.354   1.813   9.205 -0.5621 -0.3547  1.2010
   17MOL0     C 2171   0.488   1.766   9.277 -0.5983 -0.2782  0.1581
   17MOL0     C 2172   0.461   1.661   9.382 -0.6119 -0.2009 -0.1525
   17MOL0     C 2173   0.584   1.634   9.480 -0.3877 -0.5169 -0.2420
   17MOL0     C 2174   0.567   1.496   9.543  0.8328 -0.2715  0.3094
   17MOL0     C 2175   0.444   1.498   9.633 -1.4857  0.7936 -0.1605
   17MOL0     C 2176   0.433   1.367   9.720 -0.0270 -0.1854  0.4261
   17MOL0     N 2177   0.526   1.368   9.833 -0.7429 -0.9020 -0.3593
   17MOL0     C 2178   0.505   1.442   9.954 -0.4659  0.4165 -0.7836
   17MOL0     C 2179   0.583   1.384  10.047  1.1034  0.3060  0.8614
   17MOL0     C 2180   0.619   1.439  10.180 -0.5985 -0.0285 -0.0557
   17MOL0     C 2181   0.668   1.576  10.182  0.7379 -1.1022 -0.9783
   17MOL0     C 2182   0.807   1.576  10.116  0.2432 -0.3108 -0.1657
   17MOL0     C 2183   0.885   1.711  10.165  0.5517 -0.2431 -0.5027
   17MOL0     O 2184   0.795   1.821  10.150  0.1842 -1.1567  0.1940
   17MOL0     C 2185   0.843   1.948  10.186 -0.1260 -0.1082 -0.3083
   17MOL0     C 2186   0.764   2.055  10.149 -0.0085 -0.2266 -0.3209
   17MOL0     C 2187   0.804   2.188  10.172  0.4018 -0.3872 -0.7747
   17MOL0     C 2188   0.708   2.294  10.128  0.2843  0.3178 -0.4564
   17MOL0     C 2189   0.920   2.218  10.240  0.3871 -0.5214  0.4204
   17MOL0     C 2190   0.953   2.360  10.277  0.3254  0.3895  0.3915
   17MOL0     O 2191   0.997   2.385  10.412 -0.5117  0.1533  0.0106
   17MOL0     C 2192   1.030   2.516  10.437 -0.8868  0.0063 -0.3097
   17MOL0     C 2193   1.164   2.551  10.487  0.1022 -0.0643 -0.8913
   17MOL0     C 2194   1.193   2.676  10.535 -0.0541  0.1456 -0.0938
   17MOL0     C 2195   1.100   2.782  10.525 -0.6799  0.5027  0.4647
   17MOL0     O 2196   1.138   2.907  10.577 -0.1249  0.0292 -0.5153
   17MOL0     C 2197   1.037   2.994  10.623  0.9999  0.3310 -0.4519
   17MOL0     C 2198   1.084   3.112  10.723  0.4040  0.4617  0.2546
   17MOL0     C 2199   1.126   3.059  10.862  0.9020 -1.1906  0.1483
   17MOL0     C 2200   1.151   3.175  10.957 -1.0955 -0.6776  0.4339
   17MOL0     C 2201   1.204   3.126  11.094  0.7437  0.0639 -0.0765
   17MOL0     C 2202   1.356   3.097  11.097  0.4851 -0.4094  0.5237
   17MOL0     C 2203   1.435   3.091  11.228 -0.6457  0.3286 -0.3499
   17MOL0     C 2204   1.588   3.051  11.229 -0.2337 -1.1086 -0.3748
   17MOL0    Cl 2205   1.628   3.011  11.395 -0.3999 -0.1502 -0.1937
   17MOL0     C 2206   0.982   2.752  10.458  0.7050  1.0833  1.6929
   17MOL0     C 2207   0.943   2.624  10.427  0.0336 -0.1722 -0.3901
   17MOL0     O 2208   0.950   2.447  10.189 -0.0386 -0.0673 -0.4310
   17MOL0     C 2209   0.992   2.114  10.284 -0.4656 -0.0870  0.7313
   17MOL0     C 2210   0.962   1.975  10.252 -0.8280 -1.0566  0.2860
   17MOL0     N 2211   0.642   1.276   9.987  0.1829  0.4006  0.3783
   17MOL0     N 2212   0.619   1.272   9.859 -0.7739 -0.1546  0.8842
   17MOL0     C 2213   0.335   2.127   9.124  0.0927  0.5880 -0.0212
   17MOL0     C 2214   0.366   2.221   9.019  0.0304 -0.1134 -0.0330
   17MOL0     C 2215   0.356   2.482   8.647 -0.4321 -0.6460  0.5424
   17MOL0     C 2216   0.307   2.600   8.588  0.0723  0.3816 -0.8536
   17MOL0     C 2217   0.378   2.678   8.492  0.1646 -0.3043 -0.5560
   17MOL0     C 2218   0.515   2.655   8.457 -0.1307 -0.2751 -0.5319
   17MOL0     O 2219   0.577   2.739   8.373  0.2940  0.8223  0.9426
   17MOL0     C 2220   0.702   2.792   8.418  0.6890  0.2958 -0.0999
   17MOL0     C 2221   0.825   2.768   8.321 -0.0010 -0.2660  0.0137
   17MOL0     C 2222   0.795   2.817   8.172  0.0397  0.4057  0.4680
   17MOL0     C 2223   0.871   2.948   8.155 -0.8962 -1.5875 -0.0182
   17MOL0     C 2224   0.822   3.062   8.237 -0.5321 -0.2499 -0.2121
   17MOL0     C 2225   0.794   3.160   8.295 -0.0558  0.6894  0.3900
   17MOL0     C 2226   0.568   2.541   8.527  0.2316  0.1550  0.7102
   17MOL0     C 2227   0.500   2.459   8.618  0.0424 -0.0553 -0.7331
   17MOL0     H 2228   0.096   2.177   8.820 -0.7385  0.9070  0.7717
   17MOL0     H 2229   0.023   2.035   9.014  0.2485 -1.9524  0.5668
   17MOL0     H 2230   0.338   1.975   9.357 -0.2283 -0.3870  2.4388
   17MOL0     H 2231   0.219   1.843   9.378 -1.4423  3.7611  2.3849
   17MOL0     H 2232   0.294   1.730   9.166 -0.5401  0.5254 -0.8055
   17MOL0     H 2233   0.386   1.858   9.111 -1.2464 -0.8506  0.7217
   17MOL0     H 2234   0.553   1.715   9.205 -0.2972  0.6257 -0.2297
   17MOL0     H 2235   0.546   1.848   9.320  0.5908  0.3714 -2.4500
   17MOL0     H 2236   0.366   1.686   9.432 -1.8701 -1.0195 -2.0005
   17MOL0     H 2237   0.433   1.564   9.340  1.9026 -1.2802  0.4810
   17MOL0     H 2238   0.680   1.636   9.427  1.1805  1.0359  2.4367
   17MOL0     H 2239   0.592   1.712   9.556 -1.0048  0.2116 -0.8928
   17MOL0     H 2240   0.579   1.415   9.471  3.5884  1.1333 -0.9575
   17MOL0     H 2241   0.660   1.493   9.602  0.4259  0.7125  1.0404
   17MOL0     H 2242   0.448   1.575   9.711 -1.6314 -0.8245  1.5197
   17MOL0     H 2243   0.359   1.506   9.565 -0.0658  2.6690 -1.8746
   17MOL0     H 2244   0.435   1.273   9.665  2.3986 -1.6132  2.6932
   17MOL0     H 2245   0.334   1.376   9.766 -0.5717  1.5506 -0.9868
   17MOL0     H 2246   0.454   1.536   9.969  4.0051  3.2059 -1.4338
   17MOL0     H 2247   0.525   1.450  10.233 -1.7016 -0.0727 -1.9128
   17MOL0     H 2248   0.690   1.368  10.224  3.9036  4.4041  0.8145
   17MOL0     H 2249   0.697   1.602  10.284  1.8999  1.3608 -1.8525
   17MOL0     H 2250   0.595   1.648  10.145  1.9138 -0.6677 -2.5621
   17MOL0     H 2251   0.797   1.572  10.007  1.4156  0.5030 -0.3287
   17MOL0     H 2252   0.871   1.492  10.143 -0.7561 -0.4201  2.0872
   17MOL0     H 2253   0.971   1.731  10.100  1.4778  0.9854  1.0421
   17MOL0     H 2254   0.912   1.703  10.271  0.5453 -2.0044 -0.6040
   17MOL0     H 2255   0.672   2.032  10.097 -0.5647  1.2408 -0.0349
   17MOL0     H 2256   0.601   2.271  10.120 -0.0406  0.3387  2.5516
   17MOL0     H 2257   0.702   2.382  10.193  0.5236  1.0435 -1.3943
   17MOL0     H 2258   0.740   2.328  10.029 -2.3128 -2.0419 -2.2520
   17MOL0     H 2259   1.231   2.466  10.502  0.6836  0.7514  1.4857
   17MOL0     H 2260   1.284   2.694  10.592 -1.2073  0.2988  1.8088
   17MOL0     H 2261   1.003   3.050  10.536 -1.4715  0.2080  0.3598
   17MOL0     H 2262   0.953   2.938  10.665  0.1642  1.0015 -1.2071
   17MOL0     H 2263   1.155   3.185  10.684 -0.5749  1.8243  0.9483
   17MOL0     H 2264   0.993   3.169  10.743 -2.5872 -3.3902 -0.9359
   17MOL0     H 2265   1.217   2.999  10.851 -0.4359 -3.5501  1.1043
   17MOL0     H 2266   1.054   2.989  10.906  0.1419 -1.6638 -1.7370
   17MOL0     H 2267   1.222   3.240  10.906  0.7266  0.5128  4.1630
   17MOL0     H 2268   1.056   3.228  10.968 -1.2001 -0.9720  0.9802
   17MOL0     H 2269   1.150   3.042  11.138  1.2028  0.4974  1.3433
   17MOL0     H 2270   1.186   3.206  11.165 -0.3753 -1.7027  1.7431
   17MOL0     H 2271   1.374   3.002  11.045  1.5158  0.5644 -0.9687
   17MOL0     H 2272   1.398   3.171  11.029  0.0903  0.4283  1.1720
   17MOL0     H 2273   1.382   3.017  11.289  2.1550 -0.6885  1.0399
   17MOL0     H 2274   1.439   3.196  11.259  3.2627  1.2239 -3.1210
   17MOL0     H 2275   1.640   3.135  11.183  2.3469 -1.0296  2.3641
   17MOL0     H 2276   1.609   2.961  11.170 -1.2206 -0.0887 -2.3683
   17MOL0     H 2277   0.912   2.834  10.442  1.2164  1.4179  1.1241
   17MOL0     H 2278   0.842   2.600  10.397 -0.8431 -0.1383  2.2809
   17MOL0     H 2279   1.080   2.124  10.346 -0.9621 -0.9123  1.5970
   17MOL0     H 2280   1.013   1.892  10.299 -3.3771 -0.7340  4.0336
   17MOL0     H 2281   0.405   2.103   9.203 -0.9467  0.0087  0.7458
   17MOL0     H 2282   0.467   2.259   9.024  0.8477 -2.3011  2.4754
   17MOL0     H 2283   0.204   2.625   8.610 -0.4485  0.7154 -3.3394
   17MOL0     H 2284   0.332   2.759   8.435  1.0903 -1.3358 -2.8925
   17MOL0     H 2285   0.694   2.900   8.433 -0.2258  0.0125  1.5952
   17MOL0     H 2286   0.738   2.749   8.511  1.1222 -3.9370 -2.0006
   17MOL0     H 2287   0.831   2.658   8.321  0.4265 -0.2839  2.1536
   17MOL0     H 2288   0.906   2.815   8.377 -2.4225  1.6191  2.1837
   17MOL0     H 2289   0.690   2.840   8.148  0.4518  3.2794  1.0292
   17MOL0     H 2290   0.830   2.746   8.097 -0.0018 -1.4972  2.1419
   17MOL0     H 2291   0.859   2.979   8.051  0.5105 -0.7808  0.0330
   17MOL0     H 2292   0.973   2.927   8.188 -0.0172  0.4889 -1.2241
   17MOL0     H 2293   0.749   3.247   8.339  1.2566  0.6003  1.9726
   17MOL0     H 2294   0.672   2.515   8.509  1.9433  4.8637  2.1874
   17MOL0     H 2295   0.558   2.378   8.662 -0.9936 -0.3278  0.1581
   18MOL0     O 2296   2.667   1.947   4.663 -0.0182 -0.4901 -0.2555
   18MOL0     C 2297   2.696   1.875   4.569 -0.9392  0.3118  0.3358
   18MOL0     O 2298   2.821   1.857   4.521 -0.4519  0.0158 -0.1817
   18MOL0     C 2299   2.917   1.952   4.550 -0.3529  0.5657 -0.4156
   18MOL0     C 2300   3.045   1.890   4.556  0.5614  0.4475  1.0341
   18MOL0     C 2301   3.150   1.980   4.582 -0.5297  0.4861  0.4950
   18MOL0     C 2302   3.135   2.120   4.587 -0.1616 -0.0459  0.1143
   18MOL0     O 2303   3.253   2.199   4.612  0.5403  0.0797  0.3354
   18MOL0     C 2304   3.253   2.319   4.685 -0.0276  0.3037  0.4316
   18MOL0     C 2305   3.394   2.359   4.745  0.2743  0.4053  0.7764
   18MOL0     C 2306   3.454   2.236   4.823  0.0757 -0.4026  0.7350
   18MOL0     C 2307   3.578   2.282   4.897 -0.2323  0.0008 -0.9013
   18MOL0     C 2308   3.675   2.161   4.934  0.3381 -0.7914  0.0852
   18MOL0     C 2309   3.607   2.088   5.053 -0.2101 -0.8791  0.5963
   18MOL0     C 2310   3.685   1.964   5.102  0.8697 -0.2326  0.2655
   18MOL0     C 2311   3.626   1.838   5.035 -0.5197 -0.8832  0.4480
   18MOL0     N 2312   3.700   1.722   5.076  0.9939  0.6058 -0.0788
   18MOL0     C 2313   3.780   1.669   4.988 -0.3017  0.8851 -0.8370
   18MOL0     C 2314   3.867   1.598   5.056  0.2897  0.1679  0.2668
   18MOL0     C 2315   3.978   1.512   4.988  1.0231 -0.5641  0.0270
   18MOL0     C 2316   4.021   1.403   5.076 -0.7587 -1.0797 -1.1509
   18MOL0     C 2317   4.115   1.433   5.191  0.7298  0.3742 -0.5108
   18MOL0     C 2318   4.138   1.298   5.264  0.2284 -0.2796 -0.5100
   18MOL0     O 2319   4.271   1.296   5.309 -0.0690 -0.5344  0.8191
   18MOL0     C 2320   4.317   1.195   5.382  0.3685 -0.0374  0.3055
   18MOL0     C 2321   4.244   1.084   5.413 -0.4083  0.0018 -0.3538
   18MOL0     C 2322   4.292   0.995   5.509  0.0471 -0.5467  0.7512
   18MOL0     C 2323   4.199   0.877   5.538  0.4668 -0.6840 -0.3424
   18MOL0     C 2324   4.433   1.000   5.565  0.9303 -0.2938  0.7352
   18MOL0     C 2325   4.488   0.914   5.674 -0.2370  0.2486  0.8552
   18MOL0     O 2326   4.618   0.923   5.707  0.4493 -0.4547 -0.3866
   18MOL0     C 2327   4.666   0.873   5.828  0.4618 -0.1468  0.0875
   18MOL0     C 2328   4.645   0.734   5.869  0.4624 -0.2178 -0.0460
   18MOL0     C 2329   4.685   0.701   6.004 -0.1071 -0.0696 -0.7181
   18MOL0     C 2330   4.734   0.796   6.096  0.3859  0.3569 -0.2120
   18MOL0     O 2331   4.763   0.756   6.225 -0.1408 -0.3128 -0.3481
   18MOL0     C 2332   4.887   0.803   6.282  1.1153  0.2115 -0.0951
   18MOL0     C 2333   4.933   0.717   6.400  0.2964  0.5339 -0.5445
   18MOL0     C 2334   4.948   0.567   6.377  0.6378  0.2686 -0.5254
   18MOL0     C 2335   5.053   0.532   6.274 -0.4938  0.2611 -0.2635
   18MOL0     C 2336   5.064   0.378   6.282  0.7963 -0.2995  0.5593
   18MOL0     C 2337   5.175   0.327   6.191 -0.0994  0.4039  0.4045
   18MOL0     C 2338   5.163   0.355   6.039  0.6166  0.3579 -0.4282
   18MOL0     C 2339   5.272   0.271   5.967  0.4942 -0.1923 -0.3053
   18MOL0    Cl 2340   5.228   0.102   5.995  0.3509  0.8135 -0.0774
   18MOL0     C 2341   4.752   0.928   6.051 -0.2342 -0.6808 -0.0498
   18MOL0     C 2342   4.712   0.969   5.924  1.3316 -0.7550  0.1495
   18MOL0     O 2343   4.407   0.849   5.734 -0.1030  0.1894 -0.4536
   18MOL0     C 2344   4.494   1.123   5.524 -0.2579  0.3024  0.3207
   18MOL0     C 2345   4.444   1.215   5.438 -0.7713  0.3307 -0.1819
   18MOL0     N 2346   3.831   1.606   5.189 -0.1438 -0.3559 -0.1142
   18MOL0     N 2347   3.723   1.670   5.201 -0.7008 -0.2364 -0.2834
   18MOL0     C 2348   3.013   2.173   4.587  0.4691  0.3704 -0.2452
   18MOL0     C 2349   2.906   2.093   4.565  0.8974 -0.6027 -0.3518
   18MOL0     C 2350   2.582   1.794   4.518 -0.6171 -0.5496  0.2493
   18MOL0     C 2351   2.447   1.832   4.543  0.3010 -1.1385 -0.3027
   18MOL0     C 2352   2.343   1.753   4.489 -0.0024  0.3356 -0.1166
   18MOL0     C 2353   2.367   1.643   4.407  0.2457  0.4031 -0.8433
   18MOL0     O 2354   2.274   1.571   4.347  0.2702  0.0026  0.3125
   18MOL0     C 2355   2.216   1.473   4.424  0.3200  0.7644 -0.5387
   18MOL0     C 2356   2.152   1.359   4.339 -1.6131  0.8155  0.4233
   18MOL0     C 2357   2.044   1.293   4.419  1.0220 -0.4965  0.0253
   18MOL0     C 2358   1.962   1.202   4.335 -0.3714  0.0055 -0.7508
   18MOL0     C 2359   1.877   1.126   4.427 -0.3112  0.9149 -1.1160
   18MOL0     C 2360   1.805   1.064   4.505  0.0550  0.2475 -1.0035
   18MOL0     C 2361   2.500   1.606   4.397  0.6355  0.1683 -0.0566
   18MOL0     C 2362   2.612   1.676   4.453 -0.2542  0.4560 -0.3375
   18MOL0     H 2363   3.054   1.782   4.546  1.7323  0.7521 -3.3156
   18MOL0     H 2364   3.251   1.938   4.588 -0.2579  0.5440 -2.2236
   18MOL0     H 2365   3.222   2.404   4.622  0.2946  1.0471  1.2528
   18MOL0     H 2366   3.178   2.309   4.763  0.4623  0.9247  0.9921
   18MOL0     H 2367   3.456   2.394   4.663 -1.0803 -0.9962 -0.9489
   18MOL0     H 2368   3.390   2.435   4.823 -0.1888  3.3306 -1.9253
   18MOL0     H 2369   3.381   2.200   4.896  0.1675 -0.2621  0.8969
   18MOL0     H 2370   3.480   2.155   4.754  0.0709  1.0135 -0.9974
   18MOL0     H 2371   3.629   2.344   4.823  1.0677  1.1897  0.9003
   18MOL0     H 2372   3.552   2.343   4.984  0.9158 -0.7470  0.0061
   18MOL0     H 2373   3.684   2.083   4.858 -1.8771 -0.4064 -0.6365
   18MOL0     H 2374   3.764   2.210   4.975 -0.8921  0.3866  1.4704
   18MOL0     H 2375   3.597   2.155   5.139  1.2091  0.2774 -0.0970
   18MOL0     H 2376   3.512   2.044   5.021  0.3568 -1.5861 -0.1513
   18MOL0     H 2377   3.790   1.968   5.073  0.7287 -0.1066 -0.2381
   18MOL0     H 2378   3.676   1.955   5.211 -0.5547  1.4190  0.3389
   18MOL0     H 2379   3.627   1.840   4.925 -0.9768  0.7270  0.4475
   18MOL0     H 2380   3.521   1.818   5.060 -1.1146  0.1622 -1.0187
   18MOL0     H 2381   3.783   1.681   4.880 -0.3713 -0.4606 -1.0107
   18MOL0     H 2382   3.947   1.467   4.893 -1.3025  1.9483 -0.5485
   18MOL0     H 2383   4.060   1.580   4.964  0.4996  0.8775  2.0034
   18MOL0     H 2384   4.071   1.330   5.012 -1.1481 -1.3654 -1.1316
   18MOL0     H 2385   3.935   1.353   5.121  1.7538 -3.8585  1.0700
   18MOL0     H 2386   4.069   1.500   5.264  1.0093 -0.7741  0.7600
   18MOL0     H 2387   4.209   1.472   5.151  1.8949 -1.3527  0.4104
   18MOL0     H 2388   4.110   1.221   5.191 -0.5572  0.0581 -0.5653
   18MOL0     H 2389   4.071   1.295   5.350  0.2650  0.3348 -0.4556
   18MOL0     H 2390   4.143   1.075   5.375 -0.7597 -1.0182  0.7664
   18MOL0     H 2391   4.171   0.873   5.644  0.7585 -2.6081 -0.3086
   18MOL0     H 2392   4.116   0.877   5.467 -2.9065  1.8218  3.1386
   18MOL0     H 2393   4.252   0.784   5.517  1.4934 -0.0105 -0.7708
   18MOL0     H 2394   4.608   0.664   5.795 -1.6208  0.8235 -0.0561
   18MOL0     H 2395   4.660   0.602   6.040  0.9100 -0.7340 -1.7497
   18MOL0     H 2396   4.970   0.796   6.211  1.6635 -1.5713  0.6662
   18MOL0     H 2397   4.887   0.910   6.305 -1.3286  0.2683 -0.1087
   18MOL0     H 2398   5.036   0.745   6.424  0.2500 -1.2979  2.2637
   18MOL0     H 2399   4.877   0.729   6.494  0.0975 -2.1231 -0.2274
   18MOL0     H 2400   4.851   0.526   6.348 -0.6106  2.4674  0.3046
   18MOL0     H 2401   4.976   0.515   6.469 -4.1976 -1.7357  0.1136
   18MOL0     H 2402   5.025   0.556   6.171  2.5208  1.7536 -0.8384
   18MOL0     H 2403   5.140   0.590   6.305 -1.9944  1.9331  1.0450
   18MOL0     H 2404   4.971   0.325   6.262  2.5693 -2.6815 -2.3073
   18MOL0     H 2405   5.082   0.338   6.381 -1.3363  0.8409  1.4765
   18MOL0     H 2406   5.265   0.378   6.225 -0.9190  0.2903  2.9427
   18MOL0     H 2407   5.197   0.222   6.210 -1.3268  0.5772  3.2339
   18MOL0     H 2408   5.188   0.460   6.025 -2.8357  1.3142 -0.1834
   18MOL0     H 2409   5.061   0.342   6.002  1.0346  1.1122 -1.9232
   18MOL0     H 2410   5.367   0.300   6.013 -1.6638  3.7913  2.2373
   18MOL0     H 2411   5.261   0.290   5.860  1.5640  2.8829  0.0234
   18MOL0     H 2412   4.792   0.997   6.126  0.9011 -0.2817 -0.9944
   18MOL0     H 2413   4.711   1.071   5.886  0.0288 -2.2306 -4.3844
   18MOL0     H 2414   4.601   1.127   5.543 -0.2766 -0.7820  0.7467
   18MOL0     H 2415   4.500   1.304   5.412 -1.1613  0.4437 -0.6616
   18MOL0     H 2416   3.018   2.280   4.607  4.0763  0.0870  1.1513
   18MOL0     H 2417   2.809   2.141   4.563  0.8941 -0.5813  0.2578
   18MOL0     H 2418   2.425   1.907   4.617  1.6429  0.2309 -1.2386
   18MOL0     H 2419   2.240   1.772   4.516 -0.9522 -0.3724 -2.8947
   18MOL0     H 2420   2.278   1.428   4.502 -1.7514  2.4032  2.2529
   18MOL0     H 2421   2.148   1.528   4.489  1.2928  1.2100  0.1273
   18MOL0     H 2422   2.236   1.293   4.317  0.8753  2.7361  3.4268
   18MOL0     H 2423   2.111   1.395   4.244 -0.5736 -2.8868 -1.6502
   18MOL0     H 2424   1.982   1.372   4.461  1.6807 -0.7234  1.4936
   18MOL0     H 2425   2.083   1.233   4.502  0.6631 -0.1294  0.4637
   18MOL0     H 2426   2.018   1.118   4.291 -2.9489 -0.9986 -2.3310
   18MOL0     H 2427   1.909   1.260   4.259  1.7622 -0.2673 -2.5633
   18MOL0     H 2428   1.733   1.022   4.572  1.7517 -1.0784  0.0985
   18MOL0     H 2429   2.523   1.514   4.343 -2.3907 -1.5874  1.3609
   18MOL0     H 2430   2.716   1.648   4.439 -0.2484 -1.5450  2.7049
   19MOL0     O 2431   5.971   7.967  10.126  0.1592 -0.3404  0.5165
   19MOL0     C 2432   5.855   7.990  10.098 -0.0481 -0.6911  0.5473
   19MOL0     O 2433   5.766   7.890  10.086  0.1877 -0.5549  0.3719
   19MOL0     C 2434   5.782   7.759  10.088 -0.6669  0.5420  0.7526
   19MOL0     C 2435   5.667   7.682  10.057  0.3970 -0.3089 -0.0091
   19MOL0     C 2436   5.669   7.546  10.063 -0.3103  0.7974 -1.9224
   19MOL0     C 2437   5.786   7.480  10.109 -0.6150 -0.2648  0.0720
   19MOL0     O 2438   5.787   7.343  10.128 -0.6406 -0.4317  0.4694
   19MOL0     C 2439   5.712   7.278  10.229  0.1855  0.4723  1.0718
   19MOL0     C 2440   5.695   7.144  10.151  0.3329 -1.0150  0.1074
   19MOL0     C 2441   5.609   7.049  10.244  0.5978 -0.0181 -0.9275
   19MOL0     C 2442   5.605   6.893  10.203 -0.4194 -0.8452  0.8097
   19MOL0     C 2443   5.489   6.813  10.265  0.0894 -0.5549 -0.8438
   19MOL0     C 2444   5.483   6.667  10.198  0.0042 -1.1283  0.7052
   19MOL0     C 2445   5.378   6.577  10.263 -0.1557  0.5326  0.4523
   19MOL0     C 2446   5.338   6.461  10.164 -0.5770  0.6065  1.1437
   19MOL0     N 2447   5.452   6.374  10.132  0.7630 -0.3399 -0.4506
   19MOL0     C 2448   5.498   6.354  10.006  0.8245  0.0593  0.0437
   19MOL0     C 2449   5.618   6.301  10.022 -0.4513  0.1185  0.1591
   19MOL0     C 2450   5.722   6.250   9.922  0.0389  0.2544  0.1362
   19MOL0     C 2451   5.745   6.352   9.808  0.0315  0.7503 -0.8693
   19MOL0     C 2452   5.868   6.313   9.729 -0.2402 -0.0348 -0.5108
   19MOL0     C 2453   5.906   6.397   9.606 -0.6505 -0.5698  0.3210
   19MOL0     O 2454   6.015   6.332   9.539  0.1647 -0.2631 -0.3806
   19MOL0     C 2455   6.149   6.386   9.559  0.3299  0.5193  0.4446
   19MOL0     C 2456   6.192   6.484   9.646 -0.6685  0.7981 -0.2972
   19MOL0     C 2457   6.327   6.513   9.662  0.5340 -0.3778 -0.9418
   19MOL0     C 2458   6.373   6.631   9.754  0.5863 -0.5060  0.0283
   19MOL0     C 2459   6.430   6.441   9.581  1.0977 -0.1050  0.2468
   19MOL0     C 2460   6.575   6.473   9.570  0.4346  0.6501  0.0723
   19MOL0     O 2461   6.656   6.383   9.498 -0.1868 -0.4687 -1.1676
   19MOL0     C 2462   6.781   6.422   9.474  0.1907  0.1221  0.3181
   19MOL0     C 2463   6.823   6.456   9.340  0.8472  0.2527 -0.1270
   19MOL0     C 2464   6.955   6.475   9.311 -0.1452  0.0771 -0.2837
   19MOL0     C 2465   7.052   6.480   9.414  0.9091 -0.2905 -0.5275
   19MOL0     O 2466   7.185   6.514   9.403 -0.5196  0.0085 -0.2304
   19MOL0     C 2467   7.223   6.587   9.283  0.1875  0.4730  0.0471
   19MOL0     C 2468   7.374   6.609   9.283  0.2501  0.1063 -0.3962
   19MOL0     C 2469   7.407   6.681   9.155  0.3827  0.3829  0.1454
   19MOL0     C 2470   7.546   6.748   9.159 -0.1281  0.5945  0.0059
   19MOL0     C 2471   7.560   6.826   9.036 -0.4813  1.0756 -2.2528
   19MOL0     C 2472   7.690   6.905   9.025  0.3235  0.0764  1.1347
   19MOL0     C 2473   7.795   6.849   8.935 -0.2080  0.3660  0.0497
   19MOL0     C 2474   7.923   6.930   8.947 -0.4000 -1.0922  0.4001
   19MOL0    Cl 2475   8.021   6.920   9.095 -0.4026  0.1364  0.4353
   19MOL0     C 2476   7.015   6.453   9.540 -0.1566  0.3001 -0.5069
   19MOL0     C 2477   6.885   6.404   9.562  0.3110 -0.5922  0.0136
   19MOL0     O 2478   6.613   6.586   9.610 -0.7035 -0.4889  0.2727
   19MOL0     C 2479   6.379   6.336   9.506  0.2570 -0.0889  0.5912
   19MOL0     C 2480   6.246   6.308   9.497  0.6649 -0.0891 -0.3856
   19MOL0     N 2481   5.644   6.297  10.157  1.2776  0.0481 -0.3790
   19MOL0     N 2482   5.547   6.351  10.217  0.0118  0.1050 -0.6731
   19MOL0     C 2483   5.903   7.549  10.129  0.5116  0.1333  0.3412
   19MOL0     C 2484   5.902   7.687  10.121 -0.3481  0.4761  0.3314
   19MOL0     C 2485   5.791   8.130  10.110  0.8964  0.0263  0.3961
   19MOL0     C 2486   5.851   8.248  10.103  0.6576  0.2901 -0.6202
   19MOL0     C 2487   5.795   8.373  10.121  0.4416 -1.3155  0.2614
   19MOL0     C 2488   5.651   8.387  10.124  0.3433  0.1663  0.0562
   19MOL0     O 2489   5.581   8.505  10.158  0.2909 -0.0742 -0.2195
   19MOL0     C 2490   5.657   8.616  10.193  0.9753  0.0617  0.0084
   19MOL0     C 2491   5.736   8.608  10.318 -0.2659  0.2086 -1.5016
   19MOL0     C 2492   5.644   8.668  10.434 -0.9803 -0.0270 -0.0535
   19MOL0     C 2493   5.620   8.824  10.422 -0.4848  0.4168 -0.7941
   19MOL0     C 2494   5.526   8.857  10.532 -0.1592 -1.0485  0.1828
   19MOL0     C 2495   5.446   8.889  10.615  0.5276  0.2464  0.5313
   19MOL0     C 2496   5.589   8.270  10.135  0.7935  0.3968  0.2969
   19MOL0     C 2497   5.653   8.143  10.126  0.5683  1.2704  1.3692
   19MOL0     H 2498   5.580   7.734  10.018  1.4875  1.9291  0.3572
   19MOL0     H 2499   5.578   7.498  10.031  0.7352 -0.0409 -3.8009
   19MOL0     H 2500   5.761   7.264  10.326  1.0941  0.0420  0.5649
   19MOL0     H 2501   5.615   7.327  10.241 -0.3484 -0.3663  0.3590
   19MOL0     H 2502   5.663   7.147  10.047  1.1817 -0.3750 -0.1450
   19MOL0     H 2503   5.797   7.104  10.145 -0.3716 -2.8335 -0.2770
   19MOL0     H 2504   5.659   7.045  10.341  1.8516  2.8232 -1.3514
   19MOL0     H 2505   5.508   7.090  10.245  0.1550 -1.0852 -0.6884
   19MOL0     H 2506   5.620   6.898  10.095  2.2843  0.3551  1.1511
   19MOL0     H 2507   5.694   6.838  10.238 -1.2894 -2.0563  1.1858
   19MOL0     H 2508   5.493   6.821  10.374  0.1429 -0.7074 -0.8351
   19MOL0     H 2509   5.397   6.867  10.238  1.0028  2.2636  1.2005
   19MOL0     H 2510   5.452   6.669  10.093 -2.0368  0.2081  1.2624
   19MOL0     H 2511   5.587   6.633  10.208  0.7863  0.9614  0.2156
   19MOL0     H 2512   5.403   6.555  10.368  0.5031  3.5412  1.0245
   19MOL0     H 2513   5.282   6.628  10.276 -1.0222 -0.2500 -2.2431
   19MOL0     H 2514   5.290   6.504  10.075 -1.3906 -0.3705  1.0968
   19MOL0     H 2515   5.265   6.392  10.207 -1.1701  1.2995  1.2712
   19MOL0     H 2516   5.445   6.365   9.912 -0.9007 -1.9571  0.7169
   19MOL0     H 2517   5.819   6.227   9.967 -0.4890 -5.9662 -1.0015
   19MOL0     H 2518   5.687   6.152   9.889 -0.8877 -0.6564  3.4948
   19MOL0     H 2519   5.767   6.452   9.846  1.7885 -0.4805  1.7138
   19MOL0     H 2520   5.661   6.342   9.739 -0.7812 -0.8503  0.2779
   19MOL0     H 2521   5.862   6.210   9.693  3.2461 -0.4786 -0.1983
   19MOL0     H 2522   5.954   6.312   9.796 -0.5840  0.3051 -0.0567
   19MOL0     H 2523   5.928   6.501   9.632  1.1597 -0.6119 -0.8795
   19MOL0     H 2524   5.814   6.395   9.547 -1.0783  0.7872  0.8851
   19MOL0     H 2525   6.121   6.536   9.710 -2.2646  0.2738 -1.5675
   19MOL0     H 2526   6.473   6.618   9.797  1.3736 -0.1586 -1.6168
   19MOL0     H 2527   6.393   6.720   9.694  1.8312 -0.7577  0.0449
   19MOL0     H 2528   6.302   6.657   9.832 -1.9261  0.4992 -2.4147
   19MOL0     H 2529   6.749   6.467   9.262 -0.4289  1.3386  1.1717
   19MOL0     H 2530   6.992   6.510   9.215 -2.0736  0.8866 -0.7885
   19MOL0     H 2531   7.194   6.529   9.194 -0.2301 -2.4833  1.9475
   19MOL0     H 2532   7.162   6.678   9.284  0.8013  0.9049  2.2304
   19MOL0     H 2533   7.382   6.688   9.359 -2.7341 -0.4003  0.5583
   19MOL0     H 2534   7.446   6.527   9.295 -1.0690 -0.9524  0.5469
   19MOL0     H 2535   7.340   6.768   9.151  1.3055  1.1690  1.1537
   19MOL0     H 2536   7.390   6.612   9.072 -2.5281  1.6003 -0.4094
   19MOL0     H 2537   7.553   6.816   9.244  3.4402  2.1548 -1.3587
   19MOL0     H 2538   7.626   6.673   9.163  1.1857  1.9808  0.6521
   19MOL0     H 2539   7.476   6.897   9.038 -1.8798 -0.5192  0.4172
   19MOL0     H 2540   7.546   6.761   8.949 -1.4962 -4.8445  1.7754
   19MOL0     H 2541   7.668   7.001   8.977 -1.3309 -0.4825  0.7155
   19MOL0     H 2542   7.724   6.929   9.126  0.5621  1.4969  0.7382
   19MOL0     H 2543   7.760   6.861   8.832 -1.7640 -3.3743 -0.0193
   19MOL0     H 2544   7.819   6.744   8.950  0.9502  0.5486 -0.4526
   19MOL0     H 2545   7.896   7.035   8.932  1.6037 -0.7700 -1.4758
   19MOL0     H 2546   7.993   6.906   8.866  1.4518 -0.4587  1.7641
   19MOL0     H 2547   7.097   6.439   9.610  3.3815 -0.0266 -4.3614
   19MOL0     H 2548   6.853   6.355   9.654 -1.9088 -0.7588 -0.7948
   19MOL0     H 2549   6.449   6.275   9.451  1.4915  3.2431 -1.7995
   19MOL0     H 2550   6.208   6.232   9.430  1.0425  2.6507 -4.0354
   19MOL0     H 2551   5.984   7.483  10.158 -2.3503 -2.6037  2.9529
   19MOL0     H 2552   5.999   7.734  10.138  0.5594 -0.8651 -0.9570
   19MOL0     H 2553   5.958   8.244  10.087  0.9848  0.8558  1.1880
   19MOL0     H 2554   5.866   8.450  10.148 -4.0542  2.5010  2.6056
   19MOL0     H 2555   5.726   8.622  10.109  0.6607 -2.2906 -0.4968
   19MOL0     H 2556   5.585   8.698  10.191 -0.9967 -1.3238  3.4849
   19MOL0     H 2557   5.830   8.662  10.305  1.1882 -1.3183  1.5504
   19MOL0     H 2558   5.761   8.505  10.346  0.8631  0.6628 -0.7615
   19MOL0     H 2559   5.692   8.662  10.532 -2.5883 -1.4031  0.6872
   19MOL0     H 2560   5.542   8.630  10.432 -1.7174  1.6987  1.4675
   19MOL0     H 2561   5.580   8.862  10.327 -5.4502  1.1988  1.3072
   19MOL0     H 2562   5.710   8.878  10.453 -0.4266 -0.1069 -0.0192
   19MOL0     H 2563   5.379   8.935  10.685  0.6300 -1.1208  1.5788
   19MOL0     H 2564   5.481   8.270  10.147  0.7957 -0.8175  0.4015
   19MOL0     H 2565   5.586   8.059  10.139  0.0479  1.5541  0.5998
   20MOL0     O 2566   2.259   3.586   3.839 -0.3478  0.0804 -0.4959
   20MOL0     C 2567   2.219   3.577   3.722 -0.4136 -0.0705  0.2618
   20MOL0     O 2568   2.216   3.678   3.637 -0.0499  1.4275  0.2970
   20MOL0     C 2569   2.258   3.797   3.689 -0.0324 -0.8985  0.6043
   20MOL0     C 2570   2.162   3.880   3.754  0.1281  0.3015 -0.5456
   20MOL0     C 2571   2.208   3.986   3.828 -0.2015 -0.4303  1.1482
   20MOL0     C 2572   2.343   4.006   3.855 -0.0849  0.1891  0.3257
   20MOL0     O 2573   2.380   4.095   3.949 -0.2648  0.0443  0.3558
   20MOL0     C 2574   2.500   4.166   3.935  0.2332 -0.6715  0.3512
   20MOL0     C 2575   2.520   4.254   4.056  0.7708  0.3406 -0.1036
   20MOL0     C 2576   2.403   4.323   4.123 -0.7791  0.0357 -0.9791
   20MOL0     C 2577   2.357   4.435   4.031 -0.3202  0.1212  0.4399
   20MOL0     C 2578   2.309   4.549   4.111 -0.1109 -0.2182  0.6741
   20MOL0     C 2579   2.280   4.667   4.008  0.1288  0.0217 -0.3141
   20MOL0     C 2580   2.398   4.744   3.966 -0.0221 -0.6192  0.9849
   20MOL0     C 2581   2.378   4.807   3.824 -0.6322  0.1523  0.7137
   20MOL0     N 2582   2.491   4.887   3.780  0.0148  0.1431  0.2877
   20MOL0     C 2583   2.593   4.855   3.693 -0.3027 -0.2152 -1.1421
   20MOL0     C 2584   2.657   4.968   3.672  0.2995 -0.1566 -0.4456
   20MOL0     C 2585   2.789   4.989   3.603  0.5938  0.3356  0.3808
   20MOL0     C 2586   2.884   5.075   3.681 -0.2370  0.2439  0.4374
   20MOL0     C 2587   2.935   4.991   3.803  0.5003  0.4221  0.4747
   20MOL0     C 2588   2.973   5.081   3.926 -0.3608  0.0339  0.3904
   20MOL0     O 2589   3.089   5.163   3.897 -0.7184 -1.1178 -0.1129
   20MOL0     C 2590   3.084   5.295   3.878 -0.3218 -0.7606 -0.3178
   20MOL0     C 2591   3.202   5.354   3.831 -0.2704 -0.2595  0.4449
   20MOL0     C 2592   3.221   5.490   3.815 -0.6269  0.4595 -0.6239
   20MOL0     C 2593   3.365   5.520   3.759  0.4625  0.6900  0.5296
   20MOL0     C 2594   3.120   5.582   3.852  0.8618  0.6216 -0.6762
   20MOL0     C 2595   3.127   5.729   3.829 -0.5350  0.3965 -0.6282
   20MOL0     O 2596   3.020   5.800   3.886 -0.5376 -0.4976 -0.8248
   20MOL0     C 2597   3.014   5.937   3.864 -0.2361 -0.5961  0.0558
   20MOL0     C 2598   3.052   6.016   3.961 -0.1719  1.2223 -0.1737
   20MOL0     C 2599   3.033   6.151   3.962 -1.1637 -0.4281  0.1950
   20MOL0     C 2600   2.981   6.213   3.851  0.5306 -0.7858 -0.3293
   20MOL0     O 2601   2.977   6.351   3.843  0.3025  0.0146  0.4035
   20MOL0     C 2602   2.911   6.420   3.737  1.0110 -0.1967 -0.9900
   20MOL0     C 2603   2.898   6.562   3.768 -0.4821  0.0900  0.0605
   20MOL0     C 2604   2.839   6.581   3.909 -0.2411 -0.5291  0.2309
   20MOL0     C 2605   2.757   6.711   3.927 -0.0739  0.2615 -0.1255
   20MOL0     C 2606   2.855   6.826   3.939 -0.0142  0.0630  0.2503
   20MOL0     C 2607   2.789   6.965   3.916  0.0738 -0.0866  0.3839
   20MOL0     C 2608   2.834   7.077   4.017  1.0389 -0.6194  0.7778
   20MOL0     C 2609   2.971   7.135   4.017 -0.3198  1.1036 -0.8261
   20MOL0    Cl 2610   2.985   7.229   3.873  0.4494  0.1919 -0.2741
   20MOL0     C 2611   2.932   6.132   3.742  0.2885  0.5393  0.2277
   20MOL0     C 2612   2.953   5.992   3.752 -0.3695 -0.0223  0.0320
   20MOL0     O 2613   3.219   5.782   3.764  1.0307 -0.1298 -0.4231
   20MOL0     C 2614   2.998   5.518   3.901  0.5776  0.3481  0.6752
   20MOL0     C 2615   2.982   5.384   3.909  0.6227 -0.2990  0.2193
   20MOL0     N 2616   2.595   5.065   3.742 -0.6137  0.6000  0.3719
   20MOL0     N 2617   2.508   5.021   3.810  0.0138 -0.4161 -0.9640
   20MOL0     C 2618   2.439   3.927   3.791 -0.3946  0.3420  0.8911
   20MOL0     C 2619   2.391   3.827   3.706 -0.1687 -0.6767 -0.0940
   20MOL0     C 2620   2.129   3.462   3.675  0.1783 -0.9312  0.7062
   20MOL0     C 2621   2.107   3.352   3.762 -0.1842 -0.6699  0.0312
   20MOL0     C 2622   2.023   3.248   3.727 -0.7859 -0.3266 -0.8627
   20MOL0     C 2623   1.971   3.245   3.596  0.6773  0.3389  0.1822
   20MOL0     O 2624   1.881   3.141   3.566  0.4536 -0.0749  0.4782
   20MOL0     C 2625   1.865   3.094   3.429  0.2913 -0.3796  0.1713
   20MOL0     C 2626   1.767   2.974   3.428  0.7376  0.3772 -0.0747
   20MOL0     C 2627   1.619   3.024   3.457 -0.4225  0.0281 -0.8238
   20MOL0     C 2628   1.527   2.899   3.483  0.6277 -0.3888 -0.9353
   20MOL0     C 2629   1.522   2.815   3.360 -0.1823  0.0990 -0.3197
   20MOL0     C 2630   1.533   2.731   3.269 -0.8879  0.7841  0.3207
   20MOL0     C 2631   2.001   3.345   3.505  0.5598  0.4803  0.4126
   20MOL0     C 2632   2.082   3.454   3.543 -0.3974 -0.2958  0.3790
   20MOL0     H 2633   2.057   3.851   3.751  0.5275 -1.3565  0.2488
   20MOL0     H 2634   2.134   4.048   3.877  1.6966  1.6964  1.5441
   20MOL0     H 2635   2.596   4.115   3.919 -0.1259 -0.9620 -0.9598
   20MOL0     H 2636   2.488   4.229   3.847  0.8008 -1.1956 -0.1132
   20MOL0     H 2637   2.562   4.187   4.131 -1.7788  2.2303  3.2891
   20MOL0     H 2638   2.594   4.330   4.027  0.5803  1.9921  3.3097
   20MOL0     H 2639   2.333   4.248   4.161 -0.5161  0.3959  0.2528
   20MOL0     H 2640   2.460   4.366   4.206  0.2254 -0.4191 -1.4145
   20MOL0     H 2641   2.430   4.479   3.962  1.3356 -1.9520  0.7597
   20MOL0     H 2642   2.276   4.402   3.966  1.8765 -1.1100 -1.8367
   20MOL0     H 2643   2.224   4.509   4.168 -1.6901 -1.3361 -2.2472
   20MOL0     H 2644   2.382   4.577   4.188  1.0379  0.6499 -0.6846
   20MOL0     H 2645   2.217   4.622   3.930 -1.1884  2.3699 -0.7072
   20MOL0     H 2646   2.213   4.739   4.055 -0.9889  0.5005 -2.4616
   20MOL0     H 2647   2.422   4.828   4.031  1.3572 -0.0495 -0.1924
   20MOL0     H 2648   2.487   4.681   3.957 -0.2666 -0.7383 -1.5387
   20MOL0     H 2649   2.291   4.873   3.823 -0.2621  0.6424  0.5802
   20MOL0     H 2650   2.370   4.733   3.744 -1.5164  2.3206 -1.3175
   20MOL0     H 2651   2.628   4.757   3.662 -1.6726 -1.1412  0.1118
   20MOL0     H 2652   2.828   4.888   3.590  1.6112  0.8432 -0.6901
   20MOL0     H 2653   2.767   5.028   3.503  1.2518  1.9294  0.8225
   20MOL0     H 2654   2.853   5.178   3.705 -2.0033 -0.6788  2.5071
   20MOL0     H 2655   2.968   5.078   3.612 -3.0394 -1.7482 -3.4434
   20MOL0     H 2656   3.021   4.926   3.783  0.1404 -0.6951  2.2549
   20MOL0     H 2657   2.852   4.932   3.844  1.1614  0.2593  1.6121
   20MOL0     H 2658   2.993   5.015   4.011 -4.6509 -0.2919  1.3849
   20MOL0     H 2659   2.895   5.153   3.952  0.3334  1.4976 -1.3942
   20MOL0     H 2660   3.288   5.296   3.798 -0.9648 -0.3236 -1.4296
   20MOL0     H 2661   3.439   5.495   3.835  0.3515  2.7647  1.3606
   20MOL0     H 2662   3.381   5.445   3.680  0.1266 -0.3440  1.4218
   20MOL0     H 2663   3.380   5.614   3.706 -0.7362  0.5331 -0.1196
   20MOL0     H 2664   3.084   5.977   4.057  0.8697 -0.8407 -1.3066
   20MOL0     H 2665   3.082   6.212   4.037  0.8818 -1.1333 -0.4881
   20MOL0     H 2666   2.966   6.393   3.647  0.9658 -1.0160 -0.7835
   20MOL0     H 2667   2.809   6.379   3.739  0.5182  0.9620 -1.5766
   20MOL0     H 2668   2.989   6.621   3.753 -1.3752  1.1553 -1.3743
   20MOL0     H 2669   2.825   6.599   3.696 -3.5265  2.7547  4.1336
   20MOL0     H 2670   2.927   6.583   3.974 -0.0620  3.8428  0.1198
   20MOL0     H 2671   2.764   6.502   3.922 -1.3937  0.0673 -2.1489
   20MOL0     H 2672   2.691   6.723   3.841  1.3759  0.1138 -1.3122
   20MOL0     H 2673   2.697   6.701   4.018  0.2135  1.3282  0.1972
   20MOL0     H 2674   2.941   6.817   3.872  0.5924  2.1496  0.6744
   20MOL0     H 2675   2.904   6.825   4.037  2.8562  0.8910 -1.0679
   20MOL0     H 2676   2.815   7.006   3.818  0.8758  0.6170  0.8772
   20MOL0     H 2677   2.681   6.959   3.930 -0.5293  1.4978 -2.7222
   20MOL0     H 2678   2.804   7.040   4.116  1.0814 -3.1752 -0.0767
   20MOL0     H 2679   2.773   7.166   4.001 -0.5126 -1.7636  0.0334
   20MOL0     H 2680   3.031   7.044   4.008 -2.4297 -0.7466  2.0549
   20MOL0     H 2681   2.982   7.184   4.114 -0.8807 -2.2035  1.0402
   20MOL0     H 2682   2.899   6.182   3.651  1.8759  1.4030  0.0915
   20MOL0     H 2683   2.937   5.931   3.664 -0.3539 -1.0192  0.6982
   20MOL0     H 2684   2.912   5.580   3.926 -1.4266 -1.1181 -1.9801
   20MOL0     H 2685   2.884   5.341   3.925 -0.0182 -0.7025 -3.7488
   20MOL0     H 2686   2.545   3.949   3.797 -0.1893 -0.6974  1.2476
   20MOL0     H 2687   2.459   3.768   3.645 -0.6723 -0.2541 -1.0990
   20MOL0     H 2688   2.157   3.356   3.858  0.0596  0.5791 -0.1266
   20MOL0     H 2689   1.995   3.167   3.794  1.3365 -0.0938  0.3887
   20MOL0     H 2690   1.810   3.165   3.368 -2.4208 -1.4239  1.2411
   20MOL0     H 2691   1.965   3.064   3.395  0.7763  2.5801 -1.3197
   20MOL0     H 2692   1.805   2.897   3.496  0.3302  1.7334  1.7742
   20MOL0     H 2693   1.769   2.917   3.335 -1.6590 -2.2763  1.3534
   20MOL0     H 2694   1.581   3.082   3.372 -0.9546 -1.2159 -1.4761
   20MOL0     H 2695   1.621   3.097   3.538 -1.2618 -2.0283  1.1703
   20MOL0     H 2696   1.426   2.935   3.505  1.0972  1.1997 -1.2473
   20MOL0     H 2697   1.561   2.846   3.572 -0.8872  0.6065  0.2985
   20MOL0     H 2698   1.544   2.656   3.193 -0.8723  2.1693 -1.1074
   20MOL0     H 2699   1.962   3.343   3.404 -0.7767 -0.6207  0.9158
   20MOL0     H 2700   2.118   3.528   3.471 -1.2098  0.1005  0.3729
   21MOL0     O 2701   3.864   8.093   9.125 -0.1849  0.3229 -0.2707
   21MOL0     C 2702   3.967   8.041   9.154  0.7648  0.3803 -0.2105
   21MOL0     O 2703   4.062   8.013   9.057  0.5316  0.2539 -0.3562
   21MOL0     C 2704   4.038   8.032   8.925 -0.2693  0.8057 -0.3772
   21MOL0     C 2705   4.025   8.165   8.876  1.3361  0.4507 -0.4662
   21MOL0     C 2706   3.996   8.176   8.736  0.3806  0.0008  0.0040
   21MOL0     C 2707   4.011   8.065   8.648 -0.5874 -0.3748 -0.8915
   21MOL0     O 2708   4.016   8.093   8.509  0.1934  0.2752 -0.3337
   21MOL0     C 2709   3.990   7.982   8.423  0.2351 -0.7649  0.0060
   21MOL0     C 2710   4.003   8.007   8.278 -0.5980  0.5219 -0.5715
   21MOL0     C 2711   3.955   7.893   8.181 -0.1707  0.1129 -0.8939
   21MOL0     C 2712   3.809   7.885   8.190  0.1663  0.0455  1.7343
   21MOL0     C 2713   3.758   7.744   8.137  0.7317  0.4016 -0.3022
   21MOL0     C 2714   3.616   7.754   8.074 -0.8446 -0.3595 -0.3141
   21MOL0     C 2715   3.536   7.625   8.091  0.2746  0.7064 -0.3082
   21MOL0     C 2716   3.403   7.629   8.023  0.2953  0.3845 -0.4151
   21MOL0     N 2717   3.324   7.731   8.085 -0.5896  0.2634 -0.3752
   21MOL0     C 2718   3.223   7.714   8.170  0.5212 -0.5434  0.1768
   21MOL0     C 2719   3.145   7.830   8.152  0.4525 -0.1769 -0.1743
   21MOL0     C 2720   3.012   7.851   8.217 -0.2781  0.4132  0.2799
   21MOL0     C 2721   3.011   7.948   8.331 -0.3333 -0.0222 -0.3312
   21MOL0     C 2722   3.036   8.100   8.285 -0.5809  0.2161  0.5053
   21MOL0     C 2723   2.950   8.145   8.167 -0.5890 -0.1880  0.1743
   21MOL0     O 2724   2.957   8.293   8.172 -0.7180  0.3495 -0.3542
   21MOL0     C 2725   2.886   8.362   8.086  0.3472  0.1969  0.4592
   21MOL0     C 2726   2.866   8.503   8.101  0.4956 -0.5663 -1.0022
   21MOL0     C 2727   2.792   8.584   8.015  0.3020  0.2346  0.1465
   21MOL0     C 2728   2.773   8.734   8.055 -0.0228  0.0140 -0.1701
   21MOL0     C 2729   2.731   8.522   7.906  0.1184  0.5412  0.4256
   21MOL0     C 2730   2.655   8.586   7.807 -0.0730  0.7241  0.4127
   21MOL0     O 2731   2.556   8.503   7.751  0.2269 -0.3355  0.2222
   21MOL0     C 2732   2.474   8.552   7.655  0.1449 -0.1383 -0.0299
   21MOL0     C 2733   2.528   8.579   7.530 -0.2648  0.8035  0.0338
   21MOL0     C 2734   2.453   8.634   7.428  0.0176  0.1268 -0.8099
   21MOL0     C 2735   2.314   8.645   7.445  0.2268 -0.0721  0.6522
   21MOL0     O 2736   2.230   8.684   7.350  0.4861  0.7906  0.0808
   21MOL0     C 2737   2.227   8.608   7.228 -0.5232  0.8486  0.7236
   21MOL0     C 2738   2.134   8.693   7.140  0.4807  0.0627  0.6893
   21MOL0     C 2739   2.128   8.642   6.998  0.4129 -0.7365  0.2804
   21MOL0     C 2740   2.003   8.698   6.923  0.7882  0.0268  0.6271
   21MOL0     C 2741   2.025   8.673   6.778  0.7071 -0.2324  0.0392
   21MOL0     C 2742   1.888   8.697   6.706  1.1883 -0.4460 -0.0366
   21MOL0     C 2743   1.781   8.589   6.744 -0.2969  0.2478  0.2100
   21MOL0     C 2744   1.662   8.604   6.660  0.4194  1.0738  0.3744
   21MOL0    Cl 2745   1.699   8.577   6.489 -0.1146 -0.4280  0.0973
   21MOL0     C 2746   2.259   8.629   7.572  0.3107 -0.2809 -0.1057
   21MOL0     C 2747   2.338   8.584   7.674  0.6373 -0.0209 -0.7944
   21MOL0     O 2748   2.686   8.691   7.754 -0.4783  0.1206  0.2966
   21MOL0     C 2749   2.749   8.381   7.890 -0.3417 -0.1367 -0.2688
   21MOL0     C 2750   2.826   8.309   7.975 -0.2883 -0.2179 -0.4261
   21MOL0     N 2751   3.202   7.917   8.068 -0.7481  0.7268 -0.4762
   21MOL0     N 2752   3.308   7.853   8.023 -0.2192 -0.1562  0.8335
   21MOL0     C 2753   4.031   7.939   8.702  0.0275  0.8328 -0.3185
   21MOL0     C 2754   4.041   7.921   8.836 -1.0505  0.0393 -0.3990
   21MOL0     C 2755   3.999   8.033   9.306  0.4222  0.3060 -0.2602
   21MOL0     C 2756   4.113   7.969   9.346 -0.2613  0.6487  0.0436
   21MOL0     C 2757   4.133   7.931   9.482 -0.3366 -0.1124  0.2420
   21MOL0     C 2758   4.047   7.979   9.574  0.5739 -0.1361 -0.2182
   21MOL0     O 2759   4.059   7.924   9.701 -0.9466  0.0979 -0.0285
   21MOL0     C 2760   3.937   7.901   9.774  0.9451 -0.2284 -0.7785
   21MOL0     C 2761   3.965   7.942   9.920  0.2219  0.2130  0.7811
   21MOL0     C 2762   3.998   8.092   9.910  0.3656  0.9727 -0.6161
   21MOL0     C 2763   4.051   8.143  10.057  0.6859 -0.5287 -0.5196
   21MOL0     C 2764   3.932   8.167  10.146 -0.4783  0.4064 -1.2820
   21MOL0     C 2765   3.834   8.178  10.220  0.3782  0.4964  0.3944
   21MOL0     C 2766   3.937   8.063   9.530  0.0344  0.0618 -0.3439
   21MOL0     C 2767   3.911   8.081   9.394  0.8911  0.3570  0.6099
   21MOL0     H 2768   4.027   8.246   8.948  1.8242  0.1463 -0.1342
   21MOL0     H 2769   3.962   8.274   8.701 -1.4183 -0.8822 -0.8815
   21MOL0     H 2770   4.076   7.917   8.440 -0.0229 -1.0704  0.1594
   21MOL0     H 2771   3.898   7.927   8.448  0.2251 -0.4633  0.6482
   21MOL0     H 2772   3.946   8.099   8.270 -0.4671  0.9657  2.6056
   21MOL0     H 2773   4.109   8.029   8.264  0.1977 -2.4582  0.0509
   21MOL0     H 2774   3.988   7.928   8.082  1.7539 -1.7966 -0.9940
   21MOL0     H 2775   4.006   7.804   8.219 -0.3011  2.0216  4.5775
   21MOL0     H 2776   3.759   7.909   8.285 -1.3333 -3.0773  1.8418
   21MOL0     H 2777   3.768   7.958   8.120 -0.5553 -0.5239  1.5506
   21MOL0     H 2778   3.818   7.687   8.066 -0.6004 -2.4376  0.6873
   21MOL0     H 2779   3.750   7.681   8.226  3.0927 -0.9706 -0.9796
   21MOL0     H 2780   3.557   7.820   8.138 -2.3166 -0.9358 -1.0352
   21MOL0     H 2781   3.619   7.789   7.971  0.2071  0.1146 -0.1307
   21MOL0     H 2782   3.597   7.543   8.051  1.5261  2.4859 -2.2474
   21MOL0     H 2783   3.511   7.597   8.194 -4.9677 -0.5879 -1.6509
   21MOL0     H 2784   3.351   7.533   8.031  1.9800 -0.4650  1.1101
   21MOL0     H 2785   3.423   7.654   7.919 -0.0466 -1.9419 -1.0972
   21MOL0     H 2786   3.197   7.626   8.228 -0.0159 -1.2214 -1.0531
   21MOL0     H 2787   2.946   7.872   8.133 -1.7923 -0.9736  1.0738
   21MOL0     H 2788   2.976   7.754   8.254  0.2082  0.6598  1.4471
   21MOL0     H 2789   3.090   7.921   8.402  0.4197 -2.6039 -2.0043
   21MOL0     H 2790   2.912   7.943   8.378 -1.8279 -0.2574 -3.2679
   21MOL0     H 2791   3.141   8.108   8.254 -1.3978 -0.7752 -2.8902
   21MOL0     H 2792   3.027   8.164   8.373  2.4430  1.6144 -0.0540
   21MOL0     H 2793   2.846   8.114   8.180 -0.8138 -0.0366 -1.0777
   21MOL0     H 2794   2.989   8.103   8.074  1.8774 -0.2226  1.1326
   21MOL0     H 2795   2.905   8.562   8.183 -3.8016 -0.4090  1.2127
   21MOL0     H 2796   2.862   8.788   8.023  1.1576 -2.2503 -0.8913
   21MOL0     H 2797   2.681   8.769   8.007  1.6457 -0.3882 -4.0610
   21MOL0     H 2798   2.774   8.736   8.164 -0.8986 -1.1544 -0.1181
   21MOL0     H 2799   2.635   8.559   7.525 -0.5782 -1.7048  1.5668
   21MOL0     H 2800   2.498   8.666   7.335 -0.2534  1.5993 -0.4583
   21MOL0     H 2801   2.325   8.612   7.178  0.1783 -1.7188  1.6982
   21MOL0     H 2802   2.194   8.506   7.247 -2.5421  2.0136  4.3155
   21MOL0     H 2803   2.037   8.682   7.189  1.4967  0.3139  2.8980
   21MOL0     H 2804   2.153   8.800   7.141 -3.3855  1.0242 -2.4507
   21MOL0     H 2805   2.123   8.533   7.006  0.5777 -1.2045 -3.7755
   21MOL0     H 2806   2.226   8.661   6.952  0.9315 -1.7487  0.9131
   21MOL0     H 2807   1.913   8.650   6.962  1.2640 -0.7692  0.7749
   21MOL0     H 2808   2.000   8.807   6.931  2.0321 -0.0205  2.0782
   21MOL0     H 2809   2.045   8.568   6.754 -1.4827 -0.4937 -0.9443
   21MOL0     H 2810   2.101   8.745   6.747 -1.0082  2.5329  1.7843
   21MOL0     H 2811   1.849   8.797   6.728 -1.7730 -1.5071  0.0648
   21MOL0     H 2812   1.900   8.698   6.598  1.5918  1.2672  0.0016
   21MOL0     H 2813   1.746   8.611   6.845 -2.4538  0.9090 -0.6252
   21MOL0     H 2814   1.819   8.487   6.730  0.9693  0.7187  0.0264
   21MOL0     H 2815   1.647   8.712   6.657 -1.7497  0.8251  0.5772
   21MOL0     H 2816   1.576   8.553   6.704  2.1470 -3.4823 -0.9107
   21MOL0     H 2817   2.152   8.642   7.586  0.4170  1.1662 -0.4229
   21MOL0     H 2818   2.317   8.583   7.780  0.2056  4.9238 -0.6069
   21MOL0     H 2819   2.699   8.338   7.804  1.6927 -0.4444 -1.3470
   21MOL0     H 2820   2.830   8.203   7.950  4.1769  0.1669 -2.1599
   21MOL0     H 2821   4.061   7.849   8.648 -1.4918 -0.1772  0.4495
   21MOL0     H 2822   4.058   7.823   8.880 -2.3593  0.9526  2.3701
   21MOL0     H 2823   4.183   7.937   9.270 -2.1306 -2.2056 -0.6332
   21MOL0     H 2824   4.212   7.864   9.518 -2.2043 -1.0778  2.8818
   21MOL0     H 2825   3.857   7.962   9.730  0.7128 -0.4890 -0.7226
   21MOL0     H 2826   3.910   7.796   9.757  0.6489  0.1582 -3.0930
   21MOL0     H 2827   4.047   7.879   9.954  1.3487  0.7440 -0.8396
   21MOL0     H 2828   3.886   7.902   9.985  0.0512  0.0261  0.4623
   21MOL0     H 2829   3.914   8.155   9.880 -2.0398  0.9182  4.8947
   21MOL0     H 2830   4.079   8.098   9.837  0.6767 -2.0996 -0.6325
   21MOL0     H 2831   4.116   8.231  10.057 -0.3168  0.2450 -0.7920
   21MOL0     H 2832   4.123   8.069  10.092  0.7127 -0.9554 -1.4263
   21MOL0     H 2833   3.746   8.194  10.278 -0.1210  1.6514 -0.6273
   21MOL0     H 2834   3.872   8.111   9.602  0.1450  0.6999 -0.6573
   21MOL0     H 2835   3.821   8.131   9.360 -0.0747 -1.1342  0.8646
   22MOL0     O 2836  11.235   3.983   2.684 -0.1532 -0.2394 -0.1027
   22MOL0     C 2837  11.129   3.948   2.737  0.2362  0.1221  0.8367
   22MOL0     O 2838  11.043   3.855   2.683  0.2613 -0.0602 -0.6937
   22MOL0     C 2839  11.097   3.769   2.587  0.1417 -0.6143  0.9865
   22MOL0     C 2840  11.019   3.763   2.477 -0.3513  0.0327  0.4870
   22MOL0     C 2841  11.052   3.671   2.372  0.0090 -0.3510  0.0784
   22MOL0     C 2842  11.163   3.589   2.392 -1.0614  0.1191  0.6855
   22MOL0     O 2843  11.206   3.498   2.293  0.0091  0.6455  0.0679
   22MOL0     C 2844  11.172   3.538   2.158 -0.4112  0.0222 -0.9408
   22MOL0     C 2845  11.213   3.450   2.044 -0.7309  0.3074  0.0525
   22MOL0     C 2846  11.364   3.410   2.051 -0.1200  1.2280  0.5576
   22MOL0     C 2847  11.392   3.324   1.922 -0.0981  0.0623  1.0798
   22MOL0     C 2848  11.487   3.203   1.949 -0.4995 -0.0922  0.2572
   22MOL0     C 2849  11.409   3.070   1.976 -0.0655  0.2382 -0.1421
   22MOL0     C 2850  11.360   3.004   1.846  0.3788 -0.9930  0.8521
   22MOL0     C 2851  11.246   2.908   1.857  0.9918 -0.1114 -0.3474
   22MOL0     N 2852  11.129   2.959   1.923  0.7232 -0.2303 -0.0824
   22MOL0     C 2853  11.070   2.928   2.051 -0.2748  0.1110 -0.5762
   22MOL0     C 2854  10.973   3.024   2.061 -0.0105  0.5238 -1.3920
   22MOL0     C 2855  10.867   3.052   2.166  0.3903 -0.6127  0.4094
   22MOL0     C 2856  10.831   2.936   2.260  0.4921  0.3528 -0.0287
   22MOL0     C 2857  10.771   2.976   2.402 -1.5934  1.0488 -0.2574
   22MOL0     C 2858  10.741   2.849   2.493  0.2351 -0.2987 -0.5573
   22MOL0     O 2859  10.673   2.888   2.620  0.5033 -0.1363 -0.1256
   22MOL0     C 2860  10.746   2.921   2.731 -0.1121  0.0836 -0.0610
   22MOL0     C 2861  10.883   2.878   2.741  0.1359 -0.6145 -0.0385
   22MOL0     C 2862  10.956   2.900   2.851 -0.8387 -0.7985 -0.3623
   22MOL0     C 2863  11.110   2.868   2.854 -0.4444 -0.2781 -1.0386
   22MOL0     C 2864  10.890   2.960   2.959 -0.2860  0.8995  1.0814
   22MOL0     C 2865  10.968   2.976   3.085  0.9914  0.4920  0.1428
   22MOL0     O 2866  10.942   3.090   3.153 -0.5329 -0.2358  0.4350
   22MOL0     C 2867  11.010   3.116   3.278 -0.1502  0.5349  0.3095
   22MOL0     C 2868  10.942   3.155   3.396  0.4163 -0.1195  0.9614
   22MOL0     C 2869  11.001   3.150   3.522 -0.7024  0.1884  0.0627
   22MOL0     C 2870  11.142   3.144   3.526  1.2170  0.3130 -0.1370
   22MOL0     O 2871  11.207   3.155   3.654  0.1421  0.8202  0.9049
   22MOL0     C 2872  11.344   3.168   3.655 -0.3134 -0.0782  0.0131
   22MOL0     C 2873  11.385   3.198   3.793 -0.3438 -0.2182  0.3742
   22MOL0     C 2874  11.533   3.254   3.800 -1.3323 -0.6065 -0.1857
   22MOL0     C 2875  11.545   3.317   3.942 -0.1371  0.0663 -0.5843
   22MOL0     C 2876  11.679   3.392   3.965  0.4792  0.0802 -0.7499
   22MOL0     C 2877  11.671   3.485   4.096  0.7901  0.9156  0.2807
   22MOL0     C 2878  11.798   3.572   4.114  0.9165  0.1084  0.0468
   22MOL0     C 2879  11.920   3.493   4.142 -0.2966  1.2711  0.1030
   22MOL0    Cl 2880  12.057   3.588   4.207  0.4687  0.2994 -0.1034
   22MOL0     C 2881  11.214   3.124   3.404  0.3974  0.2547  0.2839
   22MOL0     C 2882  11.145   3.101   3.282  0.0948 -0.1449  1.3382
   22MOL0     O 2883  11.030   2.879   3.128 -0.0976 -0.7395 -0.2814
   22MOL0     C 2884  10.759   3.004   2.950  1.0076  0.3998 -0.3945
   22MOL0     C 2885  10.682   2.984   2.840 -0.1337  0.7221  0.4966
   22MOL0     N 2886  10.973   3.102   1.949  0.4969  0.1298 -0.1077
   22MOL0     N 2887  11.063   3.063   1.868 -0.1634  0.0292  0.4604
   22MOL0     C 2888  11.238   3.592   2.506  0.6206  0.0976 -0.6558
   22MOL0     C 2889  11.197   3.683   2.606 -0.2110 -0.0712 -0.5191
   22MOL0     C 2890  11.062   4.043   2.835  0.8242 -0.0747 -0.3524
   22MOL0     C 2891  10.920   4.024   2.863 -0.2394 -0.9461 -0.0692
   22MOL0     C 2892  10.863   4.126   2.944  0.3785 -0.3340 -0.4893
   22MOL0     C 2893  10.935   4.229   2.999 -0.6836 -0.7725 -0.2480
   22MOL0     O 2894  10.886   4.334   3.067  0.2667 -0.8521 -0.3052
   22MOL0     C 2895  10.778   4.305   3.164  0.8884  0.4434  0.1023
   22MOL0     C 2896  10.791   4.409   3.280  0.4732  0.0597 -0.5395
   22MOL0     C 2897  10.802   4.556   3.229  0.0983  0.7959 -0.3076
   22MOL0     C 2898  10.666   4.608   3.178 -0.5219 -0.1789  0.4203
   22MOL0     C 2899  10.569   4.634   3.286 -0.0031 -0.2559 -0.3034
   22MOL0     C 2900  10.479   4.643   3.374 -0.4243 -0.8699  0.6482
   22MOL0     C 2901  11.070   4.235   2.971  0.3744  0.0885 -0.1108
   22MOL0     C 2902  11.137   4.153   2.883  0.0483  0.6313 -0.0108
   22MOL0     H 2903  10.937   3.828   2.452 -1.6692 -2.1182 -1.1488
   22MOL0     H 2904  10.999   3.686   2.279  2.2033  2.2414 -0.8866
   22MOL0     H 2905  11.062   3.543   2.156 -0.4842 -0.3944  0.6877
   22MOL0     H 2906  11.211   3.637   2.132  0.6419 -0.4069 -1.0095
   22MOL0     H 2907  11.155   3.357   2.044  0.7576 -0.6493  0.8707
   22MOL0     H 2908  11.183   3.494   1.949  0.6790  1.5913  0.1639
   22MOL0     H 2909  11.416   3.506   2.056 -0.3121  1.3553  0.1237
   22MOL0     H 2910  11.386   3.343   2.135  0.7002  0.3913 -0.2925
   22MOL0     H 2911  11.300   3.281   1.881  0.2058 -0.9540  1.4528
   22MOL0     H 2912  11.429   3.383   1.837 -0.3522  0.4341  1.2218
   22MOL0     H 2913  11.557   3.184   1.867 -1.0113 -1.8040  0.1684
   22MOL0     H 2914  11.546   3.211   2.040 -2.2410 -1.6096  1.5981
   22MOL0     H 2915  11.476   3.006   2.034  3.6138  1.8577 -2.2469
   22MOL0     H 2916  11.321   3.084   2.040 -0.6003 -0.8935 -0.5905
   22MOL0     H 2917  11.317   3.085   1.786  2.0884  1.3546  2.6307
   22MOL0     H 2918  11.442   2.962   1.787 -1.5007 -1.1811 -1.8709
   22MOL0     H 2919  11.285   2.821   1.912  0.3797 -0.3123 -0.2318
   22MOL0     H 2920  11.219   2.878   1.756  2.7150 -2.6537 -0.1656
   22MOL0     H 2921  11.080   2.837   2.110  0.2924 -0.1538 -1.0690
   22MOL0     H 2922  10.903   3.140   2.221 -0.2594  0.1802 -0.3987
   22MOL0     H 2923  10.773   3.088   2.124  1.3895  0.5878 -0.9121
   22MOL0     H 2924  10.915   2.867   2.274 -0.2999 -0.4419  0.9486
   22MOL0     H 2925  10.748   2.885   2.211 -0.0732  0.7209  0.5294
   22MOL0     H 2926  10.673   3.023   2.392 -1.5788  0.9025 -1.1596
   22MOL0     H 2927  10.849   3.032   2.455  0.8449 -2.1034 -0.1658
   22MOL0     H 2928  10.834   2.792   2.497  1.3666  1.3735 -1.7849
   22MOL0     H 2929  10.660   2.795   2.443 -2.2855  1.2034  1.6125
   22MOL0     H 2930  10.937   2.837   2.656  0.2244 -0.1941 -0.1872
   22MOL0     H 2931  11.120   2.776   2.912  1.1505 -0.2800 -1.2718
   22MOL0     H 2932  11.145   2.836   2.755 -0.0280 -3.8281  0.1182
   22MOL0     H 2933  11.165   2.950   2.901 -1.6770  0.4119 -0.7743
   22MOL0     H 2934  10.838   3.182   3.409  0.2770 -0.4263  0.4691
   22MOL0     H 2935  10.960   3.163   3.622 -1.7822 -0.7004 -0.2515
   22MOL0     H 2936  11.394   3.080   3.612  0.3084  0.5163 -0.5119
   22MOL0     H 2937  11.371   3.257   3.597  1.7028 -1.0760 -0.7091
   22MOL0     H 2938  11.327   3.278   3.839  0.8901 -0.3149  2.2322
   22MOL0     H 2939  11.375   3.106   3.851 -0.9202  0.0662  0.7364
   22MOL0     H 2940  11.559   3.329   3.724  0.1377 -3.0772 -2.2758
   22MOL0     H 2941  11.600   3.171   3.778  0.6645  1.0713 -0.7390
   22MOL0     H 2942  11.466   3.392   3.955 -0.0128  0.2453 -0.8480
   22MOL0     H 2943  11.531   3.239   4.017  3.5599 -0.6578 -0.4961
   22MOL0     H 2944  11.700   3.445   3.871  1.2737  0.2089 -0.5097
   22MOL0     H 2945  11.752   3.319   4.001 -1.3479 -2.6678 -2.3078
   22MOL0     H 2946  11.583   3.548   4.083 -0.2812  0.0096  2.6648
   22MOL0     H 2947  11.639   3.435   4.188  2.1164 -2.4703 -0.9109
   22MOL0     H 2948  11.774   3.644   4.193 -3.7272  0.7270 -1.5730
   22MOL0     H 2949  11.826   3.625   4.023  5.2880 -1.3576  0.3380
   22MOL0     H 2950  11.963   3.443   4.054  1.2457  2.1645  0.3127
   22MOL0     H 2951  11.893   3.417   4.215 -0.6425 -0.5591 -1.8123
   22MOL0     H 2952  11.320   3.150   3.410  0.5846  0.0714 -1.5830
   22MOL0     H 2953  11.203   3.062   3.199 -0.9736 -1.3580  1.1306
   22MOL0     H 2954  10.716   3.052   3.037  1.1626  2.8143 -1.5531
   22MOL0     H 2955  10.576   3.005   2.841  0.1215  2.1528  2.3444
   22MOL0     H 2956  11.321   3.530   2.537 -0.5248 -1.0018  0.3409
   22MOL0     H 2957  11.257   3.677   2.696 -1.1098  0.2120  0.1194
   22MOL0     H 2958  10.865   3.951   2.805  0.3524 -2.8404  1.6457
   22MOL0     H 2959  10.756   4.134   2.963  0.7686 -0.0549  1.9646
   22MOL0     H 2960  10.677   4.314   3.124  0.6384  1.3071  0.9019
   22MOL0     H 2961  10.791   4.205   3.207  0.8747  1.1086  1.7439
   22MOL0     H 2962  10.880   4.378   3.337 -0.7881 -4.1688 -0.5235
   22MOL0     H 2963  10.708   4.399   3.351  0.4337 -0.2181 -0.6229
   22MOL0     H 2964  10.880   4.556   3.152  0.4485 -0.2665  0.0279
   22MOL0     H 2965  10.844   4.615   3.311  4.4613 -1.4508 -0.6323
   22MOL0     H 2966  10.617   4.531   3.116  1.8992 -0.4674 -1.2533
   22MOL0     H 2967  10.673   4.700   3.120  0.9762  0.2063  1.1682
   22MOL0     H 2968  10.397   4.658   3.441 -2.3607  0.6071 -1.8579
   22MOL0     H 2969  11.128   4.309   3.026 -0.8084  0.6662  0.4133
   22MOL0     H 2970  11.242   4.174   2.867 -0.1404  1.1542 -0.6178
   23MOL0     O 2971  11.157   9.635   1.504  0.0575  0.1858  0.0398
   23MOL0     C 2972  11.262   9.630   1.429 -0.4549 -0.2222 -0.2532
   23MOL0     O 2973  11.351   9.740   1.405  0.0309  0.4784  0.2354
   23MOL0     C 2974  11.340   9.866   1.465 -0.5788 -0.3211 -0.4542
   23MOL0     C 2975  11.432   9.958   1.421  1.0351 -0.0196  0.1032
   23MOL0     C 2976  11.445  10.090   1.460 -0.4120 -0.5785  0.1898
   23MOL0     C 2977  11.359  10.137   1.556 -0.1280  0.2425 -0.1018
   23MOL0     O 2978  11.377  10.258   1.620 -0.2390  0.0067  0.2171
   23MOL0     C 2979  11.493  10.340   1.578 -0.0371 -0.7392  0.5081
   23MOL0     C 2980  11.507  10.462   1.658  0.6568  0.3757 -0.2187
   23MOL0     C 2981  11.605  10.444   1.781 -0.2052  0.3933 -0.1128
   23MOL0     C 2982  11.561  10.341   1.892  0.2104  0.1276 -0.1286
   23MOL0     C 2983  11.435  10.376   1.963 -0.4445  0.5687  0.1008
   23MOL0     C 2984  11.422  10.523   2.012 -0.6479  0.5181 -0.5268
   23MOL0     C 2985  11.478  10.569   2.141  1.1490  1.2184  1.9837
   23MOL0     C 2986  11.360  10.640   2.209 -1.1458 -0.3648 -0.1195
   23MOL0     N 2987  11.384  10.694   2.350  0.3223  0.1186 -1.3485
   23MOL0     C 2988  11.506  10.760   2.384  0.1588 -0.5276 -0.4833
   23MOL0     C 2989  11.508  10.779   2.518  0.6014  0.2253  0.7333
   23MOL0     C 2990  11.620  10.840   2.598 -0.3511 -0.4086 -0.1602
   23MOL0     C 2991  11.752  10.764   2.552 -0.5877  0.3818 -0.1807
   23MOL0     C 2992  11.881  10.826   2.621 -0.1368 -0.0007  0.4023
   23MOL0     C 2993  11.999  10.731   2.597 -0.8632  1.0354  0.4651
   23MOL0     O 2994  12.065  10.786   2.478  1.1009  0.4800  0.0232
   23MOL0     C 2995  12.183  10.743   2.432 -0.0147  0.7275 -1.5463
   23MOL0     C 2996  12.239  10.619   2.469  0.0615 -0.9694  0.5045
   23MOL0     C 2997  12.368  10.586   2.423  0.0837 -0.2182 -0.2960
   23MOL0     C 2998  12.409  10.447   2.475 -0.3803 -0.4399 -0.0231
   23MOL0     C 2999  12.433  10.675   2.333 -0.0248 -0.8503 -0.9790
   23MOL0     C 3000  12.559  10.647   2.259  0.1011  0.9096  0.1748
   23MOL0     O 3001  12.568  10.691   2.127 -0.2736  0.4183 -0.5454
   23MOL0     C 3002  12.693  10.678   2.067  0.2275  1.1189  0.0081
   23MOL0     C 3003  12.739  10.555   2.004  0.3771 -0.6181 -0.7806
   23MOL0     C 3004  12.864  10.566   1.937 -0.1592 -0.2932 -0.3630
   23MOL0     C 3005  12.945  10.673   1.948  0.2711 -1.3548 -1.0935
   23MOL0     O 3006  13.070  10.664   1.886  0.7493  0.5260  0.3091
   23MOL0     C 3007  13.188  10.702   1.963 -0.8706  0.0120 -0.2881
   23MOL0     C 3008  13.247  10.580   2.022  0.6251 -0.8819  0.1299
   23MOL0     C 3009  13.310  10.494   1.904  0.2924  0.8096  0.4788
   23MOL0     C 3010  13.408  10.387   1.958  0.1049 -1.4423  0.7463
   23MOL0     C 3011  13.473  10.292   1.864 -0.9269  0.8437  0.2128
   23MOL0     C 3012  13.598  10.344   1.796 -0.5995  0.0983  0.3500
   23MOL0     C 3013  13.603  10.299   1.656 -0.3081 -0.4556  0.3688
   23MOL0     C 3014  13.725  10.347   1.579 -0.7394  0.6641  0.4741
   23MOL0    Cl 3015  13.860  10.264   1.655 -0.3615  0.0140 -0.3809
   23MOL0     C 3016  12.895  10.791   2.008  0.3299  0.3261  0.2727
   23MOL0     C 3017  12.774  10.791   2.065 -0.1535  0.1928 -0.4529
   23MOL0     O 3018  12.648  10.591   2.326 -0.8925  0.1132 -0.0013
   23MOL0     C 3019  12.374  10.796   2.303 -0.4553  0.0188  0.2481
   23MOL0     C 3020  12.256  10.832   2.361  0.0807 -0.8667  0.3273
   23MOL0     N 3021  11.392  10.723   2.570  0.4623 -0.0032  0.0964
   23MOL0     N 3022  11.316  10.670   2.466  0.4206 -0.5079 -0.4018
   23MOL0     C 3023  11.259  10.044   1.597  0.5606 -0.1760 -0.2116
   23MOL0     C 3024  11.249   9.915   1.557 -0.2952  0.2169 -1.1575
   23MOL0     C 3025  11.286   9.508   1.354  0.3930  0.0067 -0.3017
   23MOL0     C 3026  11.387   9.491   1.257  0.5641 -1.1818  0.4799
   23MOL0     C 3027  11.390   9.390   1.167 -0.3742 -0.3892  0.3238
   23MOL0     C 3028  11.298   9.281   1.172  0.0939 -0.9118 -0.7290
   23MOL0     O 3029  11.293   9.169   1.091 -0.1682  0.4432 -0.6679
   23MOL0     C 3030  11.391   9.133   1.005 -0.6418  0.1435  0.6454
   23MOL0     C 3031  11.511   9.085   1.083  0.1644 -0.2393  0.2747
   23MOL0     C 3032  11.609   9.010   0.997  0.2511  0.1780 -0.0495
   23MOL0     C 3033  11.734   8.956   1.066 -0.5635 -0.3530  0.9788
   23MOL0     C 3034  11.712   8.862   1.166 -0.3568  0.0834 -0.8779
   23MOL0     C 3035  11.702   8.770   1.252  0.1090 -0.6792 -0.8416
   23MOL0     C 3036  11.202   9.284   1.278  0.0002 -0.4900  1.2140
   23MOL0     C 3037  11.192   9.402   1.366  0.0407  0.1289  0.3785
   23MOL0     H 3038  11.502   9.912   1.353 -1.6275  0.7868 -3.4943
   23MOL0     H 3039  11.512  10.157   1.407 -2.7886 -0.2240 -2.6283
   23MOL0     H 3040  11.581  10.277   1.597 -1.8559 -3.1126  1.6419
   23MOL0     H 3041  11.484  10.379   1.477  0.8616  0.8804  1.0156
   23MOL0     H 3042  11.546  10.540   1.592 -0.7961 -0.3542 -2.0126
   23MOL0     H 3043  11.409  10.496   1.691 -0.5413 -1.6002 -1.4850
   23MOL0     H 3044  11.699  10.412   1.736 -1.0746 -1.2950 -0.8111
   23MOL0     H 3045  11.628  10.540   1.829  0.0535  0.0657  0.4181
   23MOL0     H 3046  11.560  10.240   1.850  2.5557 -0.3008  0.7256
   23MOL0     H 3047  11.637  10.330   1.970 -1.1908 -4.2244  0.9320
   23MOL0     H 3048  11.352  10.350   1.897 -1.8986  3.3041  0.7138
   23MOL0     H 3049  11.426  10.309   2.048 -0.1565 -2.6624 -2.2241
   23MOL0     H 3050  11.460  10.587   1.932  1.2341  0.1849  0.0394
   23MOL0     H 3051  11.314  10.534   2.007 -0.6198  0.5402 -1.2469
   23MOL0     H 3052  11.516  10.484   2.199 -2.1290 -0.2698  2.1781
   23MOL0     H 3053  11.560  10.638   2.119 -1.8470  4.0100 -1.6809
   23MOL0     H 3054  11.276  10.571   2.201 -2.7858  1.6783 -1.7105
   23MOL0     H 3055  11.336  10.726   2.145 -0.9651 -1.0887 -1.1918
   23MOL0     H 3056  11.590  10.795   2.324 -0.6321  1.2284 -0.6170
   23MOL0     H 3057  11.624  10.948   2.579 -2.1570  0.2058  2.4418
   23MOL0     H 3058  11.604  10.820   2.704  0.5864  0.5517  0.1790
   23MOL0     H 3059  11.763  10.790   2.446  0.7498  0.4114 -0.0510
   23MOL0     H 3060  11.755  10.657   2.575 -0.0844  0.6781  1.1743
   23MOL0     H 3061  11.868  10.820   2.729 -1.4077 -0.3009  0.2510
   23MOL0     H 3062  11.910  10.924   2.583  0.4296 -1.7206 -4.2404
   23MOL0     H 3063  11.961  10.630   2.581 -0.4109  0.6689  1.6109
   23MOL0     H 3064  12.068  10.733   2.682 -0.4189  1.2301  0.1068
   23MOL0     H 3065  12.179  10.548   2.525 -1.8570  1.9483  2.4517
   23MOL0     H 3066  12.424  10.379   2.391  3.0687  1.4589 -1.1152
   23MOL0     H 3067  12.507  10.462   2.521 -0.2813  0.0521 -0.3882
   23MOL0     H 3068  12.336  10.417   2.551 -0.3070  0.8550  0.5951
   23MOL0     H 3069  12.676  10.467   2.004 -3.4706  1.8931 -1.8232
   23MOL0     H 3070  12.902  10.482   1.879  0.5441 -0.4332  0.2864
   23MOL0     H 3071  13.261  10.723   1.885  0.6844 -0.3479  1.0132
   23MOL0     H 3072  13.180  10.786   2.032  1.6651 -0.7701  1.0920
   23MOL0     H 3073  13.303  10.609   2.112 -1.7018  0.5713  1.2203
   23MOL0     H 3074  13.169  10.528   2.078  1.4269 -0.2376  1.9392
   23MOL0     H 3075  13.350  10.550   1.819 -4.3593  1.4729 -1.5500
   23MOL0     H 3076  13.229  10.434   1.863 -0.2486 -0.1738  2.7841
   23MOL0     H 3077  13.482  10.429   2.027  1.5944  1.0973 -2.1616
   23MOL0     H 3078  13.342  10.317   2.010 -1.9382  0.0895  0.3738
   23MOL0     H 3079  13.399  10.259   1.790  1.2540 -2.0530 -0.8561
   23MOL0     H 3080  13.499  10.196   1.909 -1.2043 -0.1530 -1.6438
   23MOL0     H 3081  13.616  10.451   1.813  0.1781 -0.0701  0.6469
   23MOL0     H 3082  13.686  10.302   1.845 -2.0333 -1.7151  1.5093
   23MOL0     H 3083  13.515  10.335   1.601 -0.8597 -3.1891 -0.7128
   23MOL0     H 3084  13.592  10.190   1.646 -1.4351 -0.4738  1.5024
   23MOL0     H 3085  13.732  10.456   1.573 -2.7404  0.7645 -0.8634
   23MOL0     H 3086  13.716  10.319   1.474 -1.8429  2.5585  0.0145
   23MOL0     H 3087  12.954  10.881   2.017  1.0297 -0.0574 -0.4342
   23MOL0     H 3088  12.747  10.881   2.120  0.7112  2.3888 -3.3461
   23MOL0     H 3089  12.424  10.858   2.229  0.7822 -0.0967  0.9791
   23MOL0     H 3090  12.225  10.935   2.342  3.5235  0.4986  1.2778
   23MOL0     H 3091  11.181  10.075   1.666  0.8654 -0.7542  0.4006
   23MOL0     H 3092  11.160   9.867   1.597  0.2230  0.1326 -0.0631
   23MOL0     H 3093  11.457   9.572   1.237  0.5648 -1.3266 -0.1369
   23MOL0     H 3094  11.463   9.396   1.087 -0.1644  1.4399  0.5970
   23MOL0     H 3095  11.351   9.056   0.938 -1.1962 -0.5537  1.7562
   23MOL0     H 3096  11.424   9.208   0.932  3.1641  0.1924  2.1687
   23MOL0     H 3097  11.464   9.011   1.148 -2.5132 -1.1585 -2.4637
   23MOL0     H 3098  11.559   9.162   1.145  1.0300  0.2664 -0.9901
   23MOL0     H 3099  11.648   9.085   0.927 -0.5966 -1.9492 -3.0199
   23MOL0     H 3100  11.565   8.926   0.942 -1.2832  0.9388 -0.0336
   23MOL0     H 3101  11.778   9.040   1.121  0.3815  0.5824 -1.0938
   23MOL0     H 3102  11.808   8.920   0.993 -1.4283 -0.9060  0.3558
   23MOL0     H 3103  11.726   8.707   1.335  3.5948 -0.4888 -1.5282
   23MOL0     H 3104  11.140   9.203   1.315  0.4251 -0.8402  1.1605
   23MOL0     H 3105  11.114   9.404   1.441 -1.4561 -1.6154 -1.0240
   24MOL0     O 3106   7.595   0.330   3.001 -0.5903  0.7634  0.4633
   24MOL0     C 3107   7.487   0.388   3.001 -0.6940  0.1216  0.2796
   24MOL0     O 3108   7.413   0.405   3.112  0.5102 -0.6308 -0.3495
   24MOL0     C 3109   7.471   0.393   3.231  0.3718 -0.0178 -0.8610
   24MOL0     C 3110   7.590   0.462   3.262  0.3211 -0.0942  0.4542
   24MOL0     C 3111   7.658   0.458   3.387  0.4915  0.8393  0.3290
   24MOL0     C 3112   7.592   0.392   3.492 -0.9587 -0.4492  0.5794
   24MOL0     O 3113   7.646   0.394   3.615  0.2944  0.2336  0.3560
   24MOL0     C 3114   7.686   0.523   3.662  0.2253  0.7069 -0.3923
   24MOL0     C 3115   7.656   0.525   3.810  1.3812 -1.4671 -0.5559
   24MOL0     C 3116   7.768   0.590   3.902  0.4847  0.1502 -0.2641
   24MOL0     C 3117   7.889   0.501   3.923 -0.7300  0.0998  0.2254
   24MOL0     C 3118   7.868   0.368   3.989 -0.4586  0.6151  0.4943
   24MOL0     C 3119   7.987   0.275   3.940  0.7493 -0.9982 -0.5120
   24MOL0     C 3120   7.980   0.215   3.805  0.0612 -0.7628  0.3638
   24MOL0     C 3121   7.886   0.104   3.790 -0.5132  0.2435  0.7190
   24MOL0     N 3122   7.889   0.034   3.659  0.5434  0.0670 -0.2320
   24MOL0     C 3123   7.853   0.090   3.542  0.0095 -0.1089  0.3219
   24MOL0     C 3124   7.862  -0.020   3.464  0.1483 -0.2670 -0.1517
   24MOL0     C 3125   7.869  -0.003   3.309  0.5834  0.1244 -1.1279
   24MOL0     C 3126   7.916  -0.126   3.239  0.2355  1.3502  0.1339
   24MOL0     C 3127   7.818  -0.241   3.247 -0.9880 -0.4832 -0.3438
   24MOL0     C 3128   7.851  -0.338   3.136  0.2237  0.1589 -0.4988
   24MOL0     O 3129   7.751  -0.447   3.144 -0.0838  0.3745  0.2889
   24MOL0     C 3130   7.652  -0.465   3.058 -0.6134  0.5117 -0.1356
   24MOL0     C 3131   7.579  -0.583   3.061 -0.1648 -0.0643 -0.6560
   24MOL0     C 3132   7.464  -0.608   2.974  0.7619 -0.7996 -0.1460
   24MOL0     C 3133   7.394  -0.737   2.983 -0.0614 -0.6431 -0.2754
   24MOL0     C 3134   7.419  -0.501   2.890  0.3859 -0.2028 -0.7359
   24MOL0     C 3135   7.309  -0.504   2.784 -0.3588 -0.1074  0.1352
   24MOL0     O 3136   7.204  -0.580   2.815  0.0938  0.1854 -0.5689
   24MOL0     C 3137   7.087  -0.574   2.751 -0.0717  0.0931  0.0385
   24MOL0     C 3138   6.966  -0.576   2.820 -0.0891  0.1146 -0.4207
   24MOL0     C 3139   6.848  -0.588   2.753  0.7222  0.3009 -0.3382
   24MOL0     C 3140   6.835  -0.613   2.613 -0.8464  0.5971 -0.4892
   24MOL0     O 3141   6.712  -0.640   2.559 -0.0305 -0.0863  1.2493
   24MOL0     C 3142   6.697  -0.657   2.413 -0.1737 -0.4374 -0.8336
   24MOL0     C 3143   6.552  -0.670   2.365  0.0530  0.9209  0.0618
   24MOL0     C 3144   6.541  -0.674   2.211 -0.6300 -0.0025  0.7014
   24MOL0     C 3145   6.418  -0.756   2.153  0.1367 -0.7468 -0.5000
   24MOL0     C 3146   6.423  -0.787   2.003 -0.6841 -0.4617  0.5449
   24MOL0     C 3147   6.339  -0.905   1.961  0.1762 -0.3527  0.2177
   24MOL0     C 3148   6.187  -0.872   1.984 -0.5732  0.1239  0.2522
   24MOL0     C 3149   6.093  -0.964   1.919 -0.8546  0.6469 -0.2185
   24MOL0    Cl 3150   5.918  -0.918   1.945 -0.4756 -0.0172  0.5265
   24MOL0     C 3151   6.954  -0.607   2.544  0.7823  0.2712 -0.6656
   24MOL0     C 3152   7.077  -0.590   2.606  1.0040  0.0974  0.4342
   24MOL0     O 3153   7.332  -0.446   2.681  0.2109 -0.0358 -0.0082
   24MOL0     C 3154   7.497  -0.386   2.887  0.4618  0.4630 -0.0648
   24MOL0     C 3155   7.608  -0.371   2.966  0.6826  0.2581 -0.9723
   24MOL0     N 3156   7.884  -0.134   3.538 -0.1263 -0.4772  0.8849
   24MOL0     N 3157   7.904  -0.103   3.664  0.9158  0.1942  0.0306
   24MOL0     C 3158   7.456   0.348   3.476 -0.5565 -0.3972 -0.8136
   24MOL0     C 3159   7.410   0.341   3.342  1.2129 -0.0859  0.1160
   24MOL0     C 3160   7.416   0.428   2.879 -0.3859 -0.8889 -0.0958
   24MOL0     C 3161   7.469   0.396   2.762 -0.7760 -0.7748 -0.1496
   24MOL0     C 3162   7.392   0.393   2.646 -1.3494  0.3871  0.0859
   24MOL0     C 3163   7.259   0.446   2.640  0.0520  0.2937  0.1729
   24MOL0     O 3164   7.182   0.448   2.529  0.0538  0.8109 -0.7174
   24MOL0     C 3165   7.219   0.346   2.429 -1.1934  0.7824 -0.6481
   24MOL0     C 3166   7.095   0.285   2.363 -0.5960 -0.2579  0.8387
   24MOL0     C 3167   7.033   0.382   2.274  1.0039  0.3754 -0.3973
   24MOL0     C 3168   6.884   0.342   2.244  0.1380 -0.5498  0.0156
   24MOL0     C 3169   6.832   0.440   2.142 -0.2839 -1.1176 -0.7933
   24MOL0     C 3170   6.799   0.515   2.053  0.3611 -0.6249 -0.1049
   24MOL0     C 3171   7.207   0.487   2.766 -0.6548  0.1117 -0.3991
   24MOL0     C 3172   7.288   0.475   2.882  0.2974 -0.6108 -0.2543
   24MOL0     H 3173   7.649   0.513   3.187 -1.1174 -2.7611 -2.7480
   24MOL0     H 3174   7.758   0.500   3.395  1.7325 -1.3327 -2.2627
   24MOL0     H 3175   7.794   0.531   3.650  0.2368 -0.6927 -1.4220
   24MOL0     H 3176   7.633   0.606   3.614 -1.4401  1.1813  2.0998
   24MOL0     H 3177   7.571   0.592   3.825  2.4989 -0.0222 -0.5317
   24MOL0     H 3178   7.623   0.430   3.854  1.4178 -0.5243  1.6142
   24MOL0     H 3179   7.799   0.684   3.855  3.3058 -0.0380  1.0246
   24MOL0     H 3180   7.730   0.609   4.003  1.2663  1.8247 -0.2424
   24MOL0     H 3181   7.928   0.493   3.821  2.7948  0.2480  1.4013
   24MOL0     H 3182   7.963   0.557   3.982 -0.6106 -0.9765  1.1205
   24MOL0     H 3183   7.887   0.380   4.096  2.9453  1.0237 -0.0623
   24MOL0     H 3184   7.767   0.329   3.971 -0.9688  0.5117  3.1686
   24MOL0     H 3185   8.084   0.324   3.953 -0.3250  0.3779  3.9643
   24MOL0     H 3186   7.987   0.188   4.006 -3.5596 -0.5131  0.4499
   24MOL0     H 3187   7.967   0.290   3.727 -1.5786  1.7077  2.8314
   24MOL0     H 3188   8.081   0.175   3.792 -0.3956 -1.7514 -0.2284
   24MOL0     H 3189   7.783   0.138   3.806 -1.7711 -2.7895 -0.2052
   24MOL0     H 3190   7.904   0.034   3.871 -0.2469 -3.6189 -2.3755
   24MOL0     H 3191   7.820   0.190   3.515  0.0504 -0.5626 -1.6011
   24MOL0     H 3192   7.771   0.025   3.269 -1.7692 -1.8294  2.6553
   24MOL0     H 3193   7.935   0.082   3.291 -0.3205  1.4285  1.1747
   24MOL0     H 3194   8.012  -0.159   3.280  1.2488  4.5865  0.6610
   24MOL0     H 3195   7.933  -0.097   3.135 -1.2574 -0.6418 -0.7225
   24MOL0     H 3196   7.716  -0.202   3.233  0.8955  4.4213 -2.5560
   24MOL0     H 3197   7.841  -0.290   3.342  3.0085  3.2797  0.9427
   24MOL0     H 3198   7.955  -0.368   3.152  0.9295  2.5043 -0.4081
   24MOL0     H 3199   7.840  -0.293   3.037  2.5148  1.0190 -0.4188
   24MOL0     H 3200   7.622  -0.651   3.134 -0.4575 -0.0085 -0.4278
   24MOL0     H 3201   7.306  -0.729   3.048  0.0752  0.5328 -0.2216
   24MOL0     H 3202   7.356  -0.771   2.886 -2.2329  0.4118  0.1376
   24MOL0     H 3203   7.470  -0.809   3.014 -0.2576 -1.2845 -1.2487
   24MOL0     H 3204   6.984  -0.565   2.927  1.9220  3.3057 -0.9496
   24MOL0     H 3205   6.753  -0.583   2.806 -0.9738 -0.7581 -3.0586
   24MOL0     H 3206   6.738  -0.571   2.359 -0.1064 -1.3501 -2.3051
   24MOL0     H 3207   6.761  -0.739   2.380  0.5792 -0.8931  1.5896
   24MOL0     H 3208   6.511  -0.767   2.395 -1.5698  0.2673 -3.6621
   24MOL0     H 3209   6.488  -0.592   2.409 -1.4621 -0.9662  1.4260
   24MOL0     H 3210   6.635  -0.714   2.171 -0.0154  1.4569  0.6265
   24MOL0     H 3211   6.533  -0.572   2.173 -0.9701 -0.3293 -0.1350
   24MOL0     H 3212   6.425  -0.853   2.203  0.3719 -1.2600 -1.4921
   24MOL0     H 3213   6.329  -0.701   2.181  2.3129  3.1966 -0.5852
   24MOL0     H 3214   6.525  -0.810   1.969 -0.7979  1.3639 -1.2474
   24MOL0     H 3215   6.383  -0.702   1.946  0.9826 -0.0543 -0.0997
   24MOL0     H 3216   6.355  -0.933   1.856  1.5521 -2.8194  1.0286
   24MOL0     H 3217   6.351  -0.996   2.020 -0.8469 -3.8140 -4.3424
   24MOL0     H 3218   6.163  -0.776   1.938  2.6152 -0.5033 -3.3578
   24MOL0     H 3219   6.174  -0.885   2.091  1.4423 -3.1347  0.2350
   24MOL0     H 3220   6.103  -1.072   1.934  0.8792  0.7175 -0.5829
   24MOL0     H 3221   6.090  -0.953   1.810 -0.6724 -1.2895 -0.4555
   24MOL0     H 3222   6.963  -0.609   2.436 -1.7619 -0.4715 -0.9481
   24MOL0     H 3223   7.168  -0.600   2.546  0.2962  1.1600 -0.8579
   24MOL0     H 3224   7.473  -0.302   2.824 -1.7333 -1.5429 -2.1086
   24MOL0     H 3225   7.662  -0.276   2.961  1.7324 -0.1123  1.4813
   24MOL0     H 3226   7.395   0.307   3.556  0.6711 -1.2152 -0.2748
   24MOL0     H 3227   7.311   0.298   3.332  2.2282 -2.3748 -0.8356
   24MOL0     H 3228   7.573   0.363   2.765 -0.7034 -0.5112  0.8075
   24MOL0     H 3229   7.445   0.366   2.556 -0.9554  1.8115 -0.1381
   24MOL0     H 3230   7.282   0.392   2.352 -1.9678  2.6206 -0.2342
   24MOL0     H 3231   7.270   0.261   2.476 -0.1001  0.8328 -1.7045
   24MOL0     H 3232   7.017   0.250   2.432 -2.5634 -1.7101 -1.9247
   24MOL0     H 3233   7.130   0.204   2.299  1.7932  0.7453  0.7530
   24MOL0     H 3234   7.093   0.395   2.184  0.4912  3.0493 -0.4549
   24MOL0     H 3235   7.031   0.478   2.326 -1.9201  0.0287  0.2964
   24MOL0     H 3236   6.822   0.344   2.334 -0.4995 -0.9972 -0.4069
   24MOL0     H 3237   6.874   0.245   2.193 -1.3752  0.2587 -1.2842
   24MOL0     H 3238   6.767   0.580   1.973  0.8836 -2.4539 -1.8614
   24MOL0     H 3239   7.109   0.533   2.773 -0.6956 -0.2949  2.6952
   24MOL0     H 3240   7.244   0.497   2.979  0.7691  2.7043 -0.6718
   25MOL0     O 3241   5.416   1.320   1.340  0.2402  0.2500 -0.3281
   25MOL0     C 3242   5.464   1.319   1.227  0.4954 -0.7835  0.1385
   25MOL0     O 3243   5.583   1.376   1.199  0.3260  0.4947  0.3507
   25MOL0     C 3244   5.663   1.424   1.298  1.2657 -0.0760 -0.1823
   25MOL0     C 3245   5.638   1.552   1.347 -0.1044  0.6127  0.2731
   25MOL0     C 3246   5.715   1.601   1.448 -0.7214  0.4750 -0.5035
   25MOL0     C 3247   5.814   1.527   1.507 -0.1461 -0.5420 -0.5749
   25MOL0     O 3248   5.888   1.596   1.603  0.4530  0.5535  0.8298
   25MOL0     C 3249   6.008   1.538   1.648  0.0109 -0.0397 -0.3306
   25MOL0     C 3250   6.082   1.645   1.725 -0.9980 -0.4821  0.2411
   25MOL0     C 3251   6.117   1.768   1.633  0.3573  0.7304  0.0410
   25MOL0     C 3252   6.217   1.857   1.699 -0.6208 -0.8578 -0.1658
   25MOL0     C 3253   6.359   1.798   1.728  0.4180 -0.2619  0.3752
   25MOL0     C 3254   6.466   1.885   1.803  1.7153 -0.4950 -0.1008
   25MOL0     C 3255   6.478   2.025   1.737 -0.1371 -0.9416  1.2620
   25MOL0     C 3256   6.540   2.019   1.601  0.4747 -0.1235  0.4357
   25MOL0     N 3257   6.452   2.062   1.487  0.9313 -0.3746 -0.1684
   25MOL0     C 3258   6.380   1.980   1.405  0.5164 -0.0123  0.0394
   25MOL0     C 3259   6.282   2.054   1.340 -0.1289 -0.9435  0.3193
   25MOL0     C 3260   6.166   2.008   1.249  0.0155  0.1980  0.0287
   25MOL0     C 3261   6.042   2.089   1.262  0.4890 -0.1122 -0.8012
   25MOL0     C 3262   5.975   2.019   1.388 -0.2942 -0.1897 -1.0434
   25MOL0     C 3263   5.862   2.103   1.461 -0.6161 -0.1937 -0.6281
   25MOL0     O 3264   5.880   2.251   1.446  0.5324 -0.1651  0.2671
   25MOL0     C 3265   5.817   2.338   1.534 -0.9181 -0.4076 -0.3267
   25MOL0     C 3266   5.745   2.302   1.648  0.1229 -0.0623  0.3333
   25MOL0     C 3267   5.688   2.398   1.737  0.9967 -0.1433  0.0207
   25MOL0     C 3268   5.630   2.343   1.864 -0.4366  0.2031 -0.5102
   25MOL0     C 3269   5.704   2.541   1.706 -0.1884  0.3097 -0.8868
   25MOL0     C 3270   5.651   2.656   1.795 -0.6138  1.2776 -1.0262
   25MOL0     O 3271   5.693   2.784   1.752  0.5008  0.6962  0.5733
   25MOL0     C 3272   5.634   2.893   1.797 -0.1386 -0.1116 -0.7487
   25MOL0     C 3273   5.502   2.906   1.851  0.2851  0.2497  1.3099
   25MOL0     C 3274   5.452   3.027   1.894  1.0124 -0.3392  0.7753
   25MOL0     C 3275   5.542   3.136   1.898 -0.2741  0.5530  0.9025
   25MOL0     O 3276   5.516   3.250   1.962  0.4308 -0.1555 -0.2696
   25MOL0     C 3277   5.383   3.303   1.948  0.7344  0.4567  0.3903
   25MOL0     C 3278   5.385   3.450   1.947  0.0200 -0.3264 -0.1556
   25MOL0     C 3279   5.265   3.518   1.878 -0.8101  0.2623 -0.6589
   25MOL0     C 3280   5.273   3.672   1.908 -0.1701 -0.1993  0.2808
   25MOL0     C 3281   5.143   3.732   1.863 -0.9304  0.2991 -0.8863
   25MOL0     C 3282   5.131   3.884   1.855  1.0145  0.2350 -0.0635
   25MOL0     C 3283   5.001   3.933   1.782  0.5419 -0.6398  0.7949
   25MOL0     C 3284   4.982   4.082   1.779 -0.7030  0.1274 -0.6527
   25MOL0    Cl 3285   4.804   4.117   1.786  0.0191 -0.1242 -0.2644
   25MOL0     C 3286   5.659   3.125   1.838  0.5536  0.3830  0.9621
   25MOL0     C 3287   5.714   3.002   1.796 -0.6715 -0.0326  0.1867
   25MOL0     O 3288   5.570   2.630   1.879 -0.0100 -0.2433  0.1048
   25MOL0     C 3289   5.764   2.568   1.585 -0.7800 -0.2488  0.7337
   25MOL0     C 3290   5.827   2.472   1.502  0.0534  0.1990  0.0051
   25MOL0     N 3291   6.297   2.180   1.389 -0.7528 -0.9261  0.1196
   25MOL0     N 3292   6.397   2.189   1.473  1.1525  0.0640 -0.7490
   25MOL0     C 3293   5.836   1.395   1.466 -0.6440  0.5149 -0.6139
   25MOL0     C 3294   5.756   1.341   1.362  0.1425 -0.4835  1.1856
   25MOL0     C 3295   5.385   1.253   1.115 -0.8615 -0.0689  0.7202
   25MOL0     C 3296   5.249   1.271   1.100  0.1570 -0.1839  0.5317
   25MOL0     C 3297   5.182   1.230   0.983 -0.0036 -0.3576  0.3736
   25MOL0     C 3298   5.250   1.146   0.893  0.3821 -0.4756  0.1395
   25MOL0     O 3299   5.200   1.091   0.772 -0.6428  0.1498 -0.8751
   25MOL0     C 3300   5.093   1.171   0.723 -0.8204  0.0174 -0.0660
   25MOL0     C 3301   5.029   1.094   0.609  0.4018 -0.0223  0.3555
   25MOL0     C 3302   4.953   1.193   0.520 -0.1385  0.8211 -0.7634
   25MOL0     C 3303   4.849   1.117   0.442  0.6715  1.0964 -0.8536
   25MOL0     C 3304   4.775   1.223   0.367 -0.9776 -0.0786  1.1736
   25MOL0     C 3305   4.710   1.311   0.316 -0.1113  0.4162  0.5192
   25MOL0     C 3306   5.378   1.113   0.914  0.3333 -0.4560  0.0428
   25MOL0     C 3307   5.455   1.174   1.013 -0.0027  0.2434  0.2098
   25MOL0     H 3308   5.555   1.613   1.313 -0.2217  0.0120 -0.5394
   25MOL0     H 3309   5.682   1.702   1.469 -1.4787  0.7274 -2.6877
   25MOL0     H 3310   5.991   1.445   1.702  1.9484 -0.2905 -0.0824
   25MOL0     H 3311   6.075   1.512   1.566 -0.0463  4.2866 -2.0134
   25MOL0     H 3312   6.019   1.679   1.808 -0.8428 -3.2342  1.6160
   25MOL0     H 3313   6.171   1.607   1.776  0.3886  0.8264 -1.1258
   25MOL0     H 3314   6.157   1.733   1.538  2.9418  5.2663 -0.8149
   25MOL0     H 3315   6.020   1.811   1.609  0.4295  0.8446 -0.0461
   25MOL0     H 3316   6.223   1.943   1.632 -1.4889  0.4007  1.3251
   25MOL0     H 3317   6.175   1.894   1.793  0.5958 -3.7401  1.6690
   25MOL0     H 3318   6.344   1.712   1.794 -1.0771  0.0778  0.5007
   25MOL0     H 3319   6.402   1.760   1.635  2.6829 -2.6679  2.2159
   25MOL0     H 3320   6.429   1.912   1.902 -1.1164 -3.0467 -0.3127
   25MOL0     H 3321   6.563   1.833   1.805  1.0966 -1.7232 -0.4767
   25MOL0     H 3322   6.384   2.080   1.744  2.3854  3.9868  1.3458
   25MOL0     H 3323   6.554   2.081   1.792  0.4261  2.0552 -2.1682
   25MOL0     H 3324   6.581   1.918   1.590 -1.0467 -0.6849 -0.4094
   25MOL0     H 3325   6.617   2.096   1.607 -1.3054  1.7678  0.2198
   25MOL0     H 3326   6.385   1.872   1.417 -0.8803  0.1946  3.3629
   25MOL0     H 3327   6.210   2.024   1.150 -0.6890  3.7499  0.1827
   25MOL0     H 3328   6.148   1.901   1.262  2.4063 -0.1147  1.4691
   25MOL0     H 3329   5.976   2.072   1.177 -3.8161  0.3891  2.1221
   25MOL0     H 3330   6.062   2.196   1.275  1.1234 -0.2714 -0.4327
   25MOL0     H 3331   6.051   1.984   1.459 -2.5383  0.4163  1.8906
   25MOL0     H 3332   5.919   1.930   1.360 -0.8468 -0.6962  1.4240
   25MOL0     H 3333   5.857   2.075   1.567 -0.1625  0.0281 -0.5412
   25MOL0     H 3334   5.768   2.067   1.419  0.2517 -3.2805 -0.1759
   25MOL0     H 3335   5.744   2.197   1.677 -1.3091 -0.0442  0.4276
   25MOL0     H 3336   5.607   2.236   1.866  1.5805 -0.3395  3.2635
   25MOL0     H 3337   5.708   2.354   1.940  0.5419  3.8447 -1.8283
   25MOL0     H 3338   5.533   2.389   1.886 -0.5622  1.0726 -2.6477
   25MOL0     H 3339   5.436   2.820   1.849 -2.2471  2.0973  0.3470
   25MOL0     H 3340   5.356   3.029   1.945 -0.7490 -2.3990 -2.1775
   25MOL0     H 3341   5.343   3.260   1.856  1.1275 -0.1328  0.4859
   25MOL0     H 3342   5.327   3.273   2.038 -0.3441  1.6156  0.1173
   25MOL0     H 3343   5.403   3.499   2.043 -0.0023  0.0355 -0.3353
   25MOL0     H 3344   5.471   3.473   1.883 -0.4468  0.5276 -0.4940
   25MOL0     H 3345   5.176   3.487   1.933  0.1057 -0.9084  0.2014
   25MOL0     H 3346   5.268   3.501   1.770  1.3110 -2.0885 -0.3258
   25MOL0     H 3347   5.280   3.693   2.015  0.1873  3.7180 -0.3591
   25MOL0     H 3348   5.356   3.717   1.852  0.2947  0.2609  1.3047
   25MOL0     H 3349   5.063   3.710   1.934  3.2280  0.8047  4.5998
   25MOL0     H 3350   5.125   3.678   1.770  1.3587  1.1441 -1.8847
   25MOL0     H 3351   5.150   3.929   1.953  0.8842 -2.2698  1.1813
   25MOL0     H 3352   5.215   3.909   1.789  1.9519  2.6487  1.8674
   25MOL0     H 3353   4.935   3.867   1.838 -1.2546 -0.4342 -0.9547
   25MOL0     H 3354   4.999   3.901   1.677 -1.7027 -2.6760  1.3711
   25MOL0     H 3355   5.018   4.123   1.684  0.6862  0.2428 -0.0961
   25MOL0     H 3356   5.031   4.125   1.867 -0.8992  0.1380 -0.5486
   25MOL0     H 3357   5.711   3.218   1.822  0.8060 -0.2224 -2.4214
   25MOL0     H 3358   5.811   3.005   1.748 -0.6421  0.0110  0.2493
   25MOL0     H 3359   5.771   2.672   1.555  4.6206  0.0863  2.0814
   25MOL0     H 3360   5.884   2.488   1.411  0.5344 -3.8151 -0.5944
   25MOL0     H 3361   5.909   1.331   1.514  0.9549  1.1652 -2.0876
   25MOL0     H 3362   5.753   1.237   1.329 -3.7458  0.7831 -3.6877
   25MOL0     H 3363   5.202   1.345   1.164 -2.6036 -0.1518 -1.3305
   25MOL0     H 3364   5.085   1.276   0.963 -0.2064 -0.8364  0.2224
   25MOL0     H 3365   5.018   1.188   0.801  1.9656 -1.9671  3.3307
   25MOL0     H 3366   5.128   1.272   0.698 -2.0140  1.1873  2.5538
   25MOL0     H 3367   4.958   1.018   0.642  1.1857  0.7501  4.3263
   25MOL0     H 3368   5.109   1.045   0.553  1.0219 -0.1741  1.3452
   25MOL0     H 3369   5.019   1.248   0.453  1.5974  0.3414  0.4963
   25MOL0     H 3370   4.900   1.271   0.577  0.6481  2.1736 -1.8069
   25MOL0     H 3371   4.777   1.068   0.508  1.8314  0.4060 -0.0641
   25MOL0     H 3372   4.895   1.034   0.387  0.1848  0.5904 -0.5050
   25MOL0     H 3373   4.662   1.391   0.262 -0.8504 -1.8453 -2.4575
   25MOL0     H 3374   5.434   1.047   0.848 -2.1032 -1.5527 -1.0646
   25MOL0     H 3375   5.563   1.173   1.000 -0.0497 -0.0139 -0.1820
   26MOL0     O 3376   9.387   7.215   2.568  0.8777 -0.3195  0.1167
   26MOL0     C 3377   9.481   7.215   2.490 -0.2900 -0.2791  0.1724
   26MOL0     O 3378   9.488   7.282   2.372 -0.1757  0.4043 -0.1048
   26MOL0     C 3379   9.389   7.368   2.338  0.5534 -0.9629 -0.5636
   26MOL0     C 3380   9.349   7.474   2.426  0.1811 -0.5134  0.6031
   26MOL0     C 3381   9.256   7.572   2.385  0.3126  0.2063 -0.0018
   26MOL0     C 3382   9.182   7.549   2.264 -0.8341 -0.1053 -0.6837
   26MOL0     O 3383   9.085   7.635   2.213  0.5792 -0.5771 -0.3281
   26MOL0     C 3384   9.119   7.776   2.206 -0.3221 -0.2781  0.6091
   26MOL0     C 3385   9.229   7.788   2.098 -0.3849  0.3500 -0.5817
   26MOL0     C 3386   9.293   7.924   2.075  0.4608 -0.9087 -0.4592
   26MOL0     C 3387   9.369   7.962   2.207 -0.2401  1.4544  0.0027
   26MOL0     C 3388   9.463   8.084   2.174  0.6881 -0.8984 -0.2458
   26MOL0     C 3389   9.551   8.118   2.298 -0.7164  0.5547  0.4076
   26MOL0     C 3390   9.662   8.221   2.251  0.0219  0.0828  0.1785
   26MOL0     C 3391   9.616   8.362   2.233 -0.7659 -0.1109 -0.3515
   26MOL0     N 3392   9.708   8.434   2.143  0.0830 -0.2090  0.6279
   26MOL0     C 3393   9.839   8.422   2.152 -0.2483  0.2275  1.1650
   26MOL0     C 3394   9.888   8.521   2.080 -0.3164 -0.1398 -0.2169
   26MOL0     C 3395  10.038   8.558   2.062  0.2168  0.9489  0.0079
   26MOL0     C 3396  10.142   8.449   2.087 -0.0549  0.3340 -0.1424
   26MOL0     C 3397  10.135   8.331   1.989  0.6059 -0.8294 -0.4900
   26MOL0     C 3398  10.167   8.198   2.068 -0.4753  0.1671  0.5904
   26MOL0     O 3399  10.194   8.104   1.963 -0.3381  0.6796 -0.5838
   26MOL0     C 3400  10.331   8.094   1.922  0.8926 -0.6695 -0.7347
   26MOL0     C 3401  10.413   8.188   1.860 -1.0843  0.2110  0.3962
   26MOL0     C 3402  10.549   8.164   1.836 -0.0182 -0.4820  0.3825
   26MOL0     C 3403  10.637   8.274   1.776  0.6070 -0.2029 -0.2836
   26MOL0     C 3404  10.613   8.042   1.871  0.8170 -0.0993  0.3163
   26MOL0     C 3405  10.761   8.020   1.856 -0.1573 -0.3113  1.1014
   26MOL0     O 3406  10.802   7.906   1.807  0.2439 -0.5690  0.2278
   26MOL0     C 3407  10.927   7.858   1.829 -0.0062 -0.9968  0.1351
   26MOL0     C 3408  10.993   7.883   1.954  0.7880 -0.1363  0.2336
   26MOL0     C 3409  11.112   7.832   1.969 -0.6257  0.5535  1.1229
   26MOL0     C 3410  11.187   7.753   1.875 -0.1861 -1.2006  0.5151
   26MOL0     O 3411  11.306   7.692   1.908 -1.0147  0.8188 -0.1865
   26MOL0     C 3412  11.339   7.563   1.846  0.3847 -0.2952  0.5563
   26MOL0     C 3413  11.451   7.503   1.916  0.3483  0.8951 -0.1472
   26MOL0     C 3414  11.486   7.367   1.854 -0.4337 -0.0342 -0.1618
   26MOL0     C 3415  11.623   7.313   1.903  0.2660  0.0725 -0.5850
   26MOL0     C 3416  11.662   7.176   1.834  0.2961  0.2037 -0.3339
   26MOL0     C 3417  11.782   7.099   1.897 -0.2682 -0.4206  0.2127
   26MOL0     C 3418  11.905   7.087   1.799  0.1726  0.8062 -0.4664
   26MOL0     C 3419  11.947   6.942   1.768  0.4187  0.3605  0.0956
   26MOL0    Cl 3420  11.836   6.873   1.644  0.0864 -0.2629 -0.3926
   26MOL0     C 3421  11.114   7.725   1.754  0.0059  0.2134 -0.5950
   26MOL0     C 3422  10.985   7.773   1.734  0.0330 -0.3046  0.2215
   26MOL0     O 3423  10.834   8.108   1.896  0.2339  0.6847  0.4125
   26MOL0     C 3424  10.527   7.941   1.911  0.4763 -0.2244  0.4898
   26MOL0     C 3425  10.392   7.972   1.952 -0.4572 -0.1630  1.2368
   26MOL0     N 3426   9.786   8.591   2.023 -0.3279  0.1554 -0.2744
   26MOL0     N 3427   9.674   8.537   2.060  0.4665  0.5586 -0.5260
   26MOL0     C 3428   9.223   7.445   2.184  0.8850 -0.3550  0.0207
   26MOL0     C 3429   9.315   7.359   2.222 -0.6434  0.5023 -0.3019
   26MOL0     C 3430   9.591   7.136   2.538  0.1045 -0.4316 -0.1170
   26MOL0     C 3431   9.716   7.165   2.486 -0.5079  0.0756  1.0266
   26MOL0     C 3432   9.823   7.090   2.528 -0.3286  0.1695 -0.6093
   26MOL0     C 3433   9.808   6.971   2.609  1.2724  0.2843 -0.4085
   26MOL0     O 3434   9.900   6.887   2.658  0.3567 -0.7509  0.6652
   26MOL0     C 3435  10.031   6.903   2.607 -1.1672  0.1208 -0.0265
   26MOL0     C 3436  10.048   6.803   2.502  0.2158  0.1359 -1.0818
   26MOL0     C 3437   9.974   6.825   2.376  0.3255  0.8061 -0.1124
   26MOL0     C 3438   9.987   6.707   2.282 -0.2748  0.6751 -0.9630
   26MOL0     C 3439  10.026   6.738   2.146 -0.4239 -1.0021 -0.6705
   26MOL0     C 3440  10.059   6.768   2.035  0.8603 -0.1606  0.5791
   26MOL0     C 3441   9.675   6.948   2.661 -0.8353  0.4772 -0.2102
   26MOL0     C 3442   9.569   7.028   2.618  0.3766  0.5541  1.2157
   26MOL0     H 3443   9.391   7.492   2.525 -0.4869  1.3178  0.6046
   26MOL0     H 3444   9.239   7.654   2.455  2.3991 -2.0513  3.4892
   26MOL0     H 3445   9.027   7.828   2.178  1.1697  2.0062 -0.3236
   26MOL0     H 3446   9.158   7.819   2.299  1.0942 -0.0693 -0.0605
   26MOL0     H 3447   9.315   7.723   2.117  0.7299  2.0759  0.5836
   26MOL0     H 3448   9.187   7.757   2.002  0.4703  0.7498 -1.1008
   26MOL0     H 3449   9.352   7.929   1.983  0.4203  0.4908 -0.4248
   26MOL0     H 3450   9.214   7.997   2.057  0.2332 -0.8180  0.8158
   26MOL0     H 3451   9.298   7.980   2.289 -2.4130 -2.2041 -0.8547
   26MOL0     H 3452   9.434   7.878   2.234  0.0604  1.9462  0.8519
   26MOL0     H 3453   9.535   8.063   2.093  0.4496 -1.2156 -0.3765
   26MOL0     H 3454   9.404   8.173   2.151  0.4970 -0.5023  1.6689
   26MOL0     H 3455   9.493   8.151   2.385 -2.0003 -1.0816  0.2418
   26MOL0     H 3456   9.601   8.025   2.328 -1.4099 -1.9528 -4.9162
   26MOL0     H 3457   9.737   8.221   2.331 -0.6675 -0.7487  0.8341
   26MOL0     H 3458   9.701   8.191   2.154 -0.1670 -0.2498  0.2037
   26MOL0     H 3459   9.623   8.404   2.333 -1.0240 -1.2879  0.1809
   26MOL0     H 3460   9.514   8.362   2.193 -0.8213 -1.1553 -0.2631
   26MOL0     H 3461   9.904   8.370   2.222  0.6590  1.0776  0.9776
   26MOL0     H 3462  10.046   8.585   1.956  3.2653 -0.5394 -0.2738
   26MOL0     H 3463  10.057   8.650   2.118  0.1559  3.3873 -3.6371
   26MOL0     H 3464  10.120   8.409   2.186 -0.5329  0.3044 -0.2554
   26MOL0     H 3465  10.243   8.491   2.082 -0.4005  1.3941  1.1167
   26MOL0     H 3466  10.212   8.355   1.916  2.2208  0.0998  1.4212
   26MOL0     H 3467  10.037   8.319   1.943 -0.5622  2.5864  0.7825
   26MOL0     H 3468  10.083   8.166   2.130 -1.4786  1.1050 -0.2476
   26MOL0     H 3469  10.242   8.224   2.143  1.0961 -1.0825 -0.4760
   26MOL0     H 3470  10.363   8.279   1.829 -1.0618 -0.3455 -1.4458
   26MOL0     H 3471  10.568   8.353   1.745 -0.2988 -0.1116  1.7988
   26MOL0     H 3472  10.697   8.320   1.855  0.2537  1.3433 -0.8864
   26MOL0     H 3473  10.695   8.239   1.691  0.0876  1.3659 -1.3211
   26MOL0     H 3474  10.950   7.927   2.043  1.5478  0.4953  0.2884
   26MOL0     H 3475  11.155   7.862   2.064  0.6493  0.5039  0.5754
   26MOL0     H 3476  11.249   7.502   1.847  0.2736 -0.1636 -0.5406
   26MOL0     H 3477  11.371   7.568   1.741 -1.2067  0.4022  0.0739
   26MOL0     H 3478  11.539   7.568   1.920  0.6172  0.5036  0.4635
   26MOL0     H 3479  11.425   7.484   2.020  1.3484  1.9487  0.3141
   26MOL0     H 3480  11.502   7.377   1.746  3.2464 -2.9923 -0.0861
   26MOL0     H 3481  11.420   7.284   1.879  0.4805 -0.6945  0.1260
   26MOL0     H 3482  11.697   7.393   1.897  2.8070 -1.9922  1.0528
   26MOL0     H 3483  11.623   7.294   2.011 -1.1307 -0.3013 -0.6252
   26MOL0     H 3484  11.678   7.184   1.726 -0.3278 -0.4192 -0.4826
   26MOL0     H 3485  11.577   7.107   1.845 -0.1657  0.7136 -0.6217
   26MOL0     H 3486  11.815   7.131   1.996  0.9993 -1.7768  0.2642
   26MOL0     H 3487  11.756   6.996   1.923 -0.2888 -0.3904  0.3101
   26MOL0     H 3488  11.981   7.140   1.856 -1.5126 -1.6507  4.6986
   26MOL0     H 3489  11.888   7.129   1.699 -0.4493 -0.0522 -0.7377
   26MOL0     H 3490  11.949   6.878   1.856 -4.0028 -2.0250 -1.2446
   26MOL0     H 3491  12.046   6.936   1.721  0.4809 -2.4007  0.4090
   26MOL0     H 3492  11.146   7.654   1.679 -1.1108 -0.1921 -0.6997
   26MOL0     H 3493  10.941   7.745   1.639 -1.0403  0.9462  0.3154
   26MOL0     H 3494  10.575   7.846   1.932  1.1424 -0.5456 -2.0817
   26MOL0     H 3495  10.338   7.889   1.997 -0.2977 -3.1537 -3.4661
   26MOL0     H 3496   9.170   7.436   2.090 -0.1307  2.2071  0.2619
   26MOL0     H 3497   9.324   7.277   2.152  0.4479 -0.5813  1.0596
   26MOL0     H 3498   9.739   7.234   2.405  0.6567 -0.5234  0.8147
   26MOL0     H 3499   9.925   7.104   2.493  0.5905 -0.0076  1.8468
   26MOL0     H 3500  10.076   6.999   2.582  0.1785 -0.1370  1.2466
   26MOL0     H 3501  10.098   6.866   2.685 -0.7548 -0.7893 -0.7873
   26MOL0     H 3502  10.020   6.703   2.535  1.7354 -0.6514 -2.0412
   26MOL0     H 3503  10.155   6.792   2.480  0.1173 -2.0124 -0.6657
   26MOL0     H 3504  10.010   6.915   2.326  1.6288 -0.6632 -2.0143
   26MOL0     H 3505   9.868   6.842   2.396 -0.1742 -1.8330 -0.0983
   26MOL0     H 3506   9.892   6.652   2.278  1.3517 -2.4156 -0.4634
   26MOL0     H 3507  10.064   6.635   2.310 -0.5193  0.3631 -1.0748
   26MOL0     H 3508  10.073   6.787   1.930 -1.2575  1.6754  0.5594
   26MOL0     H 3509   9.667   6.869   2.735  5.5699 -2.0395 -1.5086
   26MOL0     H 3510   9.464   7.019   2.646 -1.0084  2.0245 -2.6529
   27MOL0     O 3511   3.775   2.623   6.054  0.3566  0.0372 -0.0821
   27MOL0     C 3512   3.781   2.499   6.041 -0.6349 -0.9175 -0.4418
   27MOL0     O 3513   3.741   2.436   5.927  0.5642 -0.1139  0.5326
   27MOL0     C 3514   3.764   2.483   5.797  0.6981  0.1060  0.9503
   27MOL0     C 3515   3.786   2.606   5.750  0.4605  0.0068 -0.5257
   27MOL0     C 3516   3.812   2.638   5.615  0.7086  0.2675 -0.3211
   27MOL0     C 3517   3.807   2.543   5.518  0.3121 -0.1381  0.3182
   27MOL0     O 3518   3.811   2.584   5.390 -0.2125 -0.0804 -0.3673
   27MOL0     C 3519   3.764   2.499   5.286  0.7432 -0.2043 -0.5994
   27MOL0     C 3520   3.791   2.562   5.143 -0.6584  0.1869 -0.0834
   27MOL0     C 3521   3.746   2.708   5.130  1.0644 -0.5470  0.0370
   27MOL0     C 3522   3.605   2.728   5.089 -0.2939  0.4683  0.1980
   27MOL0     C 3523   3.554   2.654   4.959  0.5847  0.1987  0.0480
   27MOL0     C 3524   3.621   2.690   4.825  0.1931 -0.5080 -0.8985
   27MOL0     C 3525   3.565   2.820   4.768  0.2132  0.3882  0.1668
   27MOL0     C 3526   3.424   2.797   4.690 -0.3228  0.9772  0.5355
   27MOL0     N 3527   3.446   2.745   4.553  0.3508  0.0949 -0.6045
   27MOL0     C 3528   3.502   2.822   4.449  1.1385 -0.4544 -0.4352
   27MOL0     C 3529   3.532   2.733   4.353 -0.5469  0.3044  0.1286
   27MOL0     C 3530   3.605   2.764   4.228 -0.7506  0.2584 -0.6201
   27MOL0     C 3531   3.498   2.795   4.118  0.4916  0.6675  0.6813
   27MOL0     C 3532   3.455   2.674   4.027 -0.5062 -0.3440  0.0400
   27MOL0     C 3533   3.352   2.574   4.099  0.3262  0.0297  0.1007
   27MOL0     O 3534   3.230   2.636   4.143 -0.6132 -0.2370 -0.4827
   27MOL0     C 3535   3.140   2.668   4.044 -0.0876 -0.5430  1.3946
   27MOL0     C 3536   3.027   2.744   4.080  0.0145  0.3689 -0.3542
   27MOL0     C 3537   2.927   2.778   3.999 -0.4806 -0.3176 -0.3331
   27MOL0     C 3538   2.816   2.863   4.056  0.6115 -0.2117  0.1015
   27MOL0     C 3539   2.937   2.747   3.855  0.3863 -0.2619  0.3129
   27MOL0     C 3540   2.843   2.797   3.753 -0.1188  0.0395  0.4025
   27MOL0     O 3541   2.890   2.817   3.617  0.0081  0.0523 -0.3895
   27MOL0     C 3542   2.803   2.877   3.534 -0.4912 -0.1630  0.7083
   27MOL0     C 3543   2.804   2.834   3.396 -1.1039 -0.3402  0.0837
   27MOL0     C 3544   2.705   2.884   3.307  0.5230  0.0609  0.5856
   27MOL0     C 3545   2.629   2.993   3.339  1.4698  0.1216  0.2481
   27MOL0     O 3546   2.531   3.018   3.244  0.6204  0.1156  0.3711
   27MOL0     C 3547   2.466   3.140   3.238 -0.4093 -0.7387 -0.0690
   27MOL0     C 3548   2.322   3.140   3.270 -0.4038  0.1050  0.2097
   27MOL0     C 3549   2.236   3.126   3.142 -0.2602 -1.1339 -0.0778
   27MOL0     C 3550   2.244   2.987   3.082  1.0368  1.3036  0.1007
   27MOL0     C 3551   2.178   2.990   2.945 -0.1782  0.8273 -0.1865
   27MOL0     C 3552   2.164   2.847   2.890 -0.0616 -0.0936 -0.2925
   27MOL0     C 3553   2.094   2.860   2.755  0.3466 -0.7229  0.8606
   27MOL0     C 3554   2.145   2.753   2.659 -0.5914  0.2930 -0.6699
   27MOL0    Cl 3555   2.098   2.802   2.497 -0.4313 -0.0737 -0.3172
   27MOL0     C 3556   2.633   3.038   3.471 -0.1813 -0.5823 -0.2496
   27MOL0     C 3557   2.727   2.985   3.570 -0.5121 -0.4971  0.3626
   27MOL0     O 3558   2.731   2.800   3.789 -0.2007 -0.0882 -0.1119
   27MOL0     C 3559   3.034   2.664   3.818  0.4942 -0.4919  0.2105
   27MOL0     C 3560   3.136   2.622   3.905  0.3116  0.1382 -0.5240
   27MOL0     N 3561   3.502   2.609   4.397 -0.2736 -0.5728  0.1580
   27MOL0     N 3562   3.440   2.611   4.510 -0.5584  0.0364 -0.6786
   27MOL0     C 3563   3.788   2.406   5.560  0.1539 -1.0799  0.3973
   27MOL0     C 3564   3.764   2.378   5.697  0.3067  0.0516  1.1943
   27MOL0     C 3565   3.819   2.417   6.155  0.3488  0.5517 -0.4843
   27MOL0     C 3566   3.878   2.477   6.273 -0.4942 -0.4107 -0.7049
   27MOL0     C 3567   3.921   2.396   6.372  0.1984 -0.1081 -0.2361
   27MOL0     C 3568   3.931   2.255   6.359 -0.3451  0.3859  0.5235
   27MOL0     O 3569   4.010   2.197   6.451 -0.4876 -0.2758 -0.7140
   27MOL0     C 3570   4.123   2.126   6.408  0.0725 -0.1478 -0.0498
   27MOL0     C 3571   4.212   2.200   6.317 -0.8403  0.9742  1.3090
   27MOL0     C 3572   4.339   2.134   6.269 -0.8425 -0.1598 -0.9760
   27MOL0     C 3573   4.458   2.162   6.356  0.1917 -1.0879  0.2590
   27MOL0     C 3574   4.447   2.090   6.480  0.6714 -0.1052 -0.2546
   27MOL0     C 3575   4.439   2.042   6.593  1.3324 -0.4149 -0.5168
   27MOL0     C 3576   3.877   2.199   6.243 -1.1588  0.6177  0.2324
   27MOL0     C 3577   3.825   2.275   6.141  0.6329 -0.4820 -0.3868
   27MOL0     H 3578   3.791   2.684   5.825 -3.3556  0.7357 -0.8078
   27MOL0     H 3579   3.832   2.740   5.585 -0.1489 -0.3238 -3.2315
   27MOL0     H 3580   3.823   2.407   5.294 -0.1205 -0.6017  4.8411
   27MOL0     H 3581   3.657   2.480   5.289  0.3443  1.9190  1.0461
   27MOL0     H 3582   3.900   2.562   5.142 -0.5063  0.4534  3.3612
   27MOL0     H 3583   3.756   2.487   5.072  1.0698 -4.0862  3.1473
   27MOL0     H 3584   3.764   2.758   5.226 -2.4102  1.8709 -0.3756
   27MOL0     H 3585   3.810   2.753   5.053  0.4622 -0.7580 -0.6036
   27MOL0     H 3586   3.546   2.692   5.174 -0.5482  1.2266  0.3505
   27MOL0     H 3587   3.599   2.836   5.071  0.0526  0.2908 -1.0637
   27MOL0     H 3588   3.566   2.546   4.977  0.1552  0.2322  0.5519
   27MOL0     H 3589   3.447   2.669   4.946 -0.1028 -3.0155  0.9930
   27MOL0     H 3590   3.730   2.679   4.826  0.5185  1.9928 -2.1265
   27MOL0     H 3591   3.591   2.611   4.755 -0.5330 -0.8647 -0.1932
   27MOL0     H 3592   3.547   2.899   4.842 -3.2039 -0.8048  0.8107
   27MOL0     H 3593   3.638   2.860   4.698 -0.3563  0.1704 -0.5606
   27MOL0     H 3594   3.361   2.886   4.691 -2.3504 -0.2697 -1.9242
   27MOL0     H 3595   3.356   2.728   4.741 -0.0404 -0.8832 -1.4325
   27MOL0     H 3596   3.511   2.930   4.457 -0.6751 -0.2083 -1.1204
   27MOL0     H 3597   3.654   2.861   4.240 -2.1979  0.8655  0.6974
   27MOL0     H 3598   3.674   2.682   4.204 -0.9873 -0.6538  1.5573
   27MOL0     H 3599   3.548   2.871   4.057  1.2441  0.5427  1.1288
   27MOL0     H 3600   3.403   2.838   4.151 -1.1889 -1.6676 -0.8307
   27MOL0     H 3601   3.543   2.624   3.985  0.4088  2.2310 -1.3891
   27MOL0     H 3602   3.403   2.709   3.938  0.1418 -0.7260 -0.4976
   27MOL0     H 3603   3.405   2.536   4.187  0.0140 -3.0671 -0.9463
   27MOL0     H 3604   3.322   2.486   4.042 -3.3508  0.6125  0.8665
   27MOL0     H 3605   3.022   2.761   4.187  1.8401 -0.7852 -0.0375
   27MOL0     H 3606   2.819   2.877   4.164  0.7603  2.2895 -0.1731
   27MOL0     H 3607   2.825   2.964   4.015  1.3591  0.3414  1.5544
   27MOL0     H 3608   2.718   2.821   4.032  0.0052  0.9256  0.5194
   27MOL0     H 3609   2.875   2.755   3.373 -2.3939 -0.7148 -3.2651
   27MOL0     H 3610   2.711   2.840   3.208  0.0409 -1.4731  1.2153
   27MOL0     H 3611   2.529   3.210   3.294  0.4681 -0.7356 -1.0236
   27MOL0     H 3612   2.487   3.180   3.138  0.3690 -1.8117 -0.3523
   27MOL0     H 3613   2.291   3.073   3.351  0.7137  0.5880  1.0802
   27MOL0     H 3614   2.314   3.242   3.308 -0.3553  2.7633 -5.9032
   27MOL0     H 3615   2.263   3.206   3.072 -1.3266 -0.0133  0.7397
   27MOL0     H 3616   2.133   3.155   3.167 -0.3543 -0.8312 -0.7985
   27MOL0     H 3617   2.343   2.942   3.075  0.4887 -0.5406  2.8105
   27MOL0     H 3618   2.190   2.913   3.142  1.6276  0.4203 -0.4170
   27MOL0     H 3619   2.225   3.049   2.866 -1.7142 -0.4922 -2.1947
   27MOL0     H 3620   2.075   3.029   2.951 -1.3506 -1.4983 -3.0291
   27MOL0     H 3621   2.268   2.814   2.899  0.0468  0.6507  1.9707
   27MOL0     H 3622   2.101   2.777   2.946 -1.1642  1.4077  0.4164
   27MOL0     H 3623   2.099   2.960   2.710 -1.4824 -1.1203 -0.3399
   27MOL0     H 3624   1.989   2.856   2.785  0.2976  1.4557  1.1943
   27MOL0     H 3625   2.094   2.660   2.688  0.3110  0.7391  2.7780
   27MOL0     H 3626   2.254   2.742   2.661 -0.1747  3.6294  0.7455
   27MOL0     H 3627   2.570   3.113   3.518 -0.7088 -3.1479  3.5458
   27MOL0     H 3628   2.732   3.037   3.665  3.2854  0.2615 -0.1187
   27MOL0     H 3629   3.034   2.634   3.714  0.9701 -2.2715  0.6739
   27MOL0     H 3630   3.218   2.563   3.866 -0.5147 -1.4651  0.0887
   27MOL0     H 3631   3.792   2.328   5.486 -2.3389 -1.3389  0.4710
   27MOL0     H 3632   3.767   2.276   5.736 -2.1535  0.5994  3.1045
   27MOL0     H 3633   3.880   2.586   6.276  0.8076 -0.4210 -0.9115
   27MOL0     H 3634   3.955   2.443   6.463  1.2770 -2.0382  0.4161
   27MOL0     H 3635   4.177   2.107   6.502 -1.3936 -0.3605  0.7686
   27MOL0     H 3636   4.100   2.033   6.356 -0.4800 -0.1635  0.2219
   27MOL0     H 3637   4.235   2.299   6.355  0.0398  1.0047  0.7096
   27MOL0     H 3638   4.153   2.208   6.225  0.9387 -2.1023 -0.2832
   27MOL0     H 3639   4.359   2.171   6.168 -2.2724  3.1745 -0.1723
   27MOL0     H 3640   4.321   2.028   6.254  3.1762 -1.0020 -0.9593
   27MOL0     H 3641   4.466   2.266   6.389  0.3589 -1.9910  3.3306
   27MOL0     H 3642   4.551   2.128   6.309 -0.1817  0.3473 -1.6419
   27MOL0     H 3643   4.424   2.018   6.697 -1.2521 -0.8383 -0.9177
   27MOL0     H 3644   3.880   2.095   6.213  0.9380  1.3099 -2.3617
   27MOL0     H 3645   3.764   2.242   6.058  0.1258  1.9677 -1.0632
   28MOL0     O 3646  10.775   0.376   9.436  0.8495 -0.5133  0.3710
   28MOL0     C 3647  10.753   0.488   9.401  0.1086 -0.2141  0.2749
   28MOL0     O 3648  10.640   0.561   9.438  1.0217 -0.3660  0.1952
   28MOL0     C 3649  10.533   0.493   9.500  0.3545  0.1259 -0.6346
   28MOL0     C 3650  10.489   0.528   9.630 -0.3705  0.5381  0.4618
   28MOL0     C 3651  10.386   0.457   9.692 -0.6054  0.1777 -0.4509
   28MOL0     C 3652  10.317   0.353   9.628 -0.2622  0.9886 -0.6518
   28MOL0     O 3653  10.217   0.271   9.672 -0.1661  0.5440  0.6971
   28MOL0     C 3654  10.106   0.342   9.739  0.3106  0.2506  0.2464
   28MOL0     C 3655   9.972   0.330   9.660  0.0135 -0.3037 -0.5796
   28MOL0     C 3656   9.893   0.208   9.706  0.5993  0.4352 -1.6184
   28MOL0     C 3657   9.926   0.080   9.640  0.3561  0.5789  0.2786
   28MOL0     C 3658   9.820  -0.031   9.664  0.6458  0.1614  0.3969
   28MOL0     C 3659   9.691   0.008   9.588  0.2402  1.1119 -0.9412
   28MOL0     C 3660   9.594  -0.118   9.591  0.3455 -0.3658  0.6302
   28MOL0     C 3661   9.459  -0.111   9.511  0.5471 -0.4227  0.0432
   28MOL0     N 3662   9.395   0.019   9.540  0.3007  0.3427 -0.1911
   28MOL0     C 3663   9.333   0.038   9.656 -0.5022  0.2531 -0.3179
   28MOL0     C 3664   9.284   0.163   9.649  0.3786 -1.0943  0.4537
   28MOL0     C 3665   9.201   0.248   9.750 -0.7791  0.8355  0.8787
   28MOL0     C 3666   9.180   0.160   9.883  1.0597 -0.0410  0.5578
   28MOL0     C 3667   9.086   0.041   9.862  0.4014  0.0374 -0.2265
   28MOL0     C 3668   9.018  -0.000   9.988 -0.4989 -0.4080 -0.1376
   28MOL0     O 3669   9.104  -0.019  10.093 -0.5137 -0.7708  0.8993
   28MOL0     C 3670   9.075  -0.096  10.201 -0.0316  0.0510  0.2761
   28MOL0     C 3671   9.166  -0.188  10.264  1.2467  0.0303 -0.4108
   28MOL0     C 3672   9.130  -0.277  10.369 -0.0638 -0.8403  0.2979
   28MOL0     C 3673   9.241  -0.371  10.411  0.4068 -0.5058 -0.4743
   28MOL0     C 3674   8.989  -0.282  10.409  0.7241  0.4360 -0.1588
   28MOL0     C 3675   8.935  -0.373  10.513  0.6956  0.5390 -0.3141
   28MOL0     O 3676   8.806  -0.349  10.565 -0.0955 -0.2699  0.2025
   28MOL0     C 3677   8.753  -0.447  10.638 -0.5994 -0.0807  0.2517
   28MOL0     C 3678   8.789  -0.468  10.770 -0.0259  0.5577 -0.3761
   28MOL0     C 3679   8.729  -0.569  10.852  0.4576 -0.0995  0.1194
   28MOL0     C 3680   8.624  -0.643  10.796 -0.4960  0.4771 -1.2363
   28MOL0     O 3681   8.560  -0.714  10.888  1.0117 -0.5639 -0.1640
   28MOL0     C 3682   8.437  -0.787  10.860 -0.4500  0.0755  0.1897
   28MOL0     C 3683   8.467  -0.927  10.801  0.5792 -0.0806 -1.0919
   28MOL0     C 3684   8.497  -1.029  10.915  0.8153 -0.4825 -1.1309
   28MOL0     C 3685   8.612  -1.110  10.875  0.4742 -0.5096 -0.3372
   28MOL0     C 3686   8.601  -1.241  10.948 -0.2577 -0.5714 -0.5025
   28MOL0     C 3687   8.692  -1.342  10.878 -0.1168 -0.1285 -0.5810
   28MOL0     C 3688   8.727  -1.457  10.969  0.2463  0.8118  0.2432
   28MOL0     C 3689   8.678  -1.588  10.904  0.1909  0.3407 -0.6484
   28MOL0    Cl 3690   8.509  -1.605  10.919  0.3300 -0.2385 -0.4105
   28MOL0     C 3691   8.597  -0.632  10.658 -0.3889 -0.6295  0.6939
   28MOL0     C 3692   8.659  -0.529  10.582  0.2984 -0.5370  0.1666
   28MOL0     O 3693   8.992  -0.472  10.534 -0.0753  0.3836 -0.2892
   28MOL0     C 3694   8.912  -0.187  10.354  0.6173  0.9299  0.3728
   28MOL0     C 3695   8.951  -0.097  10.247  0.5896  0.5645 -0.3034
   28MOL0     N 3696   9.305   0.215   9.522  0.3056 -0.0644  0.1375
   28MOL0     N 3697   9.371   0.126   9.453 -0.4606 -0.1623 -0.5237
   28MOL0     C 3698  10.354   0.327   9.495  0.9770 -0.2445  0.2180
   28MOL0     C 3699  10.460   0.395   9.426 -0.3242  0.4734 -0.0102
   28MOL0     C 3700  10.854   0.560   9.314 -0.0443 -0.5773  0.1021
   28MOL0     C 3701  10.873   0.693   9.335  0.5858  0.0531 -0.3795
   28MOL0     C 3702  10.971   0.766   9.274  0.1108 -0.5859 -0.3469
   28MOL0     C 3703  11.073   0.714   9.191  0.3605 -0.6907  0.0254
   28MOL0     O 3704  11.182   0.779   9.140 -0.1311  0.1572 -0.4933
   28MOL0     C 3705  11.180   0.922   9.155  0.4192  0.7745 -0.1844
   28MOL0     C 3706  11.282   1.004   9.072  0.0542 -0.2020 -0.5923
   28MOL0     C 3707  11.431   1.018   9.138  0.2127 -0.3293 -0.0486
   28MOL0     C 3708  11.515   0.900   9.099  0.3781 -1.0607  0.4425
   28MOL0     C 3709  11.559   0.921   8.963  0.9156 -0.2503 -1.6035
   28MOL0     C 3710  11.606   0.916   8.854  0.0529 -0.4678  0.0432
   28MOL0     C 3711  11.056   0.578   9.167  0.6047 -0.5628  1.6676
   28MOL0     C 3712  10.945   0.504   9.218  0.4165 -0.9807  0.0186
   28MOL0     H 3713  10.549   0.609   9.672  0.7610  0.4046 -0.8319
   28MOL0     H 3714  10.351   0.475   9.793  1.5852  1.7069  0.1171
   28MOL0     H 3715  10.093   0.288   9.834 -1.1354 -1.7398 -1.0019
   28MOL0     H 3716  10.130   0.446   9.759 -1.5501  0.6730  0.5077
   28MOL0     H 3717   9.914   0.422   9.669  2.1621  0.9782  1.3410
   28MOL0     H 3718   9.986   0.313   9.553  0.6511  0.0148 -0.5514
   28MOL0     H 3719   9.903   0.203   9.815  0.8477 -0.8584 -1.6920
   28MOL0     H 3720   9.788   0.236   9.687  0.3668 -0.5226 -1.7593
   28MOL0     H 3721   9.943   0.101   9.534 -2.8637 -1.9588 -0.9119
   28MOL0     H 3722  10.016   0.043   9.690  0.3958 -1.9006 -1.4475
   28MOL0     H 3723   9.852  -0.131   9.635 -2.7532 -0.3185 -2.5376
   28MOL0     H 3724   9.811  -0.032   9.773 -0.9210  0.2650  0.2966
   28MOL0     H 3725   9.635   0.093   9.628  0.8635  2.2600 -2.4154
   28MOL0     H 3726   9.704   0.029   9.482 -0.7045  2.2694 -0.8412
   28MOL0     H 3727   9.657  -0.199   9.553  1.8355  0.3676  1.4267
   28MOL0     H 3728   9.560  -0.134   9.693 -1.4263 -0.1375  0.1051
   28MOL0     H 3729   9.389  -0.188   9.545  1.7688 -0.5561  2.5018
   28MOL0     H 3730   9.480  -0.126   9.405 -0.8298  0.1416 -0.3364
   28MOL0     H 3731   9.333  -0.025   9.745  1.0294  0.8253  0.1339
   28MOL0     H 3732   9.261   0.338   9.764  0.5375  0.1061  0.1915
   28MOL0     H 3733   9.103   0.274   9.711 -1.4716 -2.9623 -0.2878
   28MOL0     H 3734   9.146   0.220   9.968  5.1421  0.1187  2.2763
   28MOL0     H 3735   9.273   0.108   9.908  2.4389  1.8830 -0.3348
   28MOL0     H 3736   9.152  -0.040   9.828  2.2139  1.5302 -0.3941
   28MOL0     H 3737   9.017   0.058   9.779 -0.9076  0.6439  0.9368
   28MOL0     H 3738   8.972  -0.098   9.974  0.3655 -0.6795 -1.2224
   28MOL0     H 3739   8.939   0.069  10.018  1.3497  0.2976  3.7156
   28MOL0     H 3740   9.265  -0.201  10.219  1.7296 -1.9905  1.1199
   28MOL0     H 3741   9.233  -0.465  10.356 -1.5655 -0.9059  0.3944
   28MOL0     H 3742   9.338  -0.325  10.391 -0.8022  0.8053 -3.9387
   28MOL0     H 3743   9.226  -0.404  10.515 -3.0068  0.4391 -0.5415
   28MOL0     H 3744   8.869  -0.401  10.797  2.6845 -1.8435 -1.8412
   28MOL0     H 3745   8.748  -0.586  10.957  2.3801  0.7919 -0.0253
   28MOL0     H 3746   8.380  -0.799  10.953 -1.4497  0.2825 -0.3778
   28MOL0     H 3747   8.378  -0.718  10.799 -0.3601  0.3596  0.4180
   28MOL0     H 3748   8.379  -0.957  10.742  0.8421 -1.3334 -0.8748
   28MOL0     H 3749   8.547  -0.927  10.726  0.1724  0.2085 -1.5353
   28MOL0     H 3750   8.407  -1.091  10.923  0.4081  0.0260 -1.6909
   28MOL0     H 3751   8.520  -0.971  11.005  4.4864 -0.5613 -1.8982
   28MOL0     H 3752   8.599  -1.136  10.770 -0.8744 -0.4970 -0.1896
   28MOL0     H 3753   8.697  -1.047  10.902 -0.3168 -0.4844  2.4125
   28MOL0     H 3754   8.502  -1.288  10.943  0.3166 -2.0705  1.0555
   28MOL0     H 3755   8.633  -1.224  11.051  1.2750 -1.3820 -0.8194
   28MOL0     H 3756   8.643  -1.377  10.786 -3.4445 -0.3202  1.1001
   28MOL0     H 3757   8.786  -1.289  10.861 -0.8197  2.0933  1.7107
   28MOL0     H 3758   8.676  -1.443  11.065  0.5023  3.2728  0.0674
   28MOL0     H 3759   8.830  -1.464  11.002  0.2914  2.2298  0.4561
   28MOL0     H 3760   8.712  -1.684  10.945 -0.5413 -0.1461 -1.1529
   28MOL0     H 3761   8.698  -1.590  10.796  0.9704  1.6718 -0.5506
   28MOL0     H 3762   8.518  -0.690  10.612 -1.0879  1.3875 -0.8008
   28MOL0     H 3763   8.644  -0.512  10.476 -1.5472 -2.0911  0.1332
   28MOL0     H 3764   8.807  -0.179  10.383  0.5137 -0.1036  0.3040
   28MOL0     H 3765   8.888  -0.016  10.211  2.1876  3.0651  2.0649
   28MOL0     H 3766  10.296   0.244   9.457 -0.3706 -0.6271  2.8995
   28MOL0     H 3767  10.506   0.362   9.333  0.7047  0.6729  0.4063
   28MOL0     H 3768  10.804   0.751   9.396 -0.4399 -2.5451  1.1010
   28MOL0     H 3769  10.961   0.872   9.295 -0.9624 -0.7307 -0.1142
   28MOL0     H 3770  11.086   0.966   9.121  0.6401 -0.2933 -2.3864
   28MOL0     H 3771  11.190   0.947   9.261  1.7574  0.2472 -0.1678
   28MOL0     H 3772  11.241   1.104   9.054 -1.1869 -0.4569  0.6396
   28MOL0     H 3773  11.290   0.955   8.975  1.1796 -3.0019  0.8038
   28MOL0     H 3774  11.425   1.019   9.248 -0.1789 -2.3812 -0.0195
   28MOL0     H 3775  11.482   1.112   9.116 -0.0633  0.4239  2.2044
   28MOL0     H 3776  11.452   0.812   9.114 -0.3559 -0.2031  2.7434
   28MOL0     H 3777  11.601   0.891   9.166 -0.9164  0.6059  2.4614
   28MOL0     H 3778  11.662   0.891   8.766 -0.9650  0.9534 -1.0706
   28MOL0     H 3779  11.133   0.531   9.107  0.3123  0.6679  0.2566
   28MOL0     H 3780  10.941   0.400   9.185 -0.5114 -1.2389  0.8814
   29MOL0     O 3781   0.356   6.355   2.548 -0.4861 -0.5623 -0.3240
   29MOL0     C 3782   0.419   6.361   2.653 -0.7330  1.3868 -0.4375
   29MOL0     O 3783   0.503   6.267   2.700  0.3384 -0.2291  0.1815
   29MOL0     C 3784   0.493   6.146   2.635 -0.8442 -0.0997 -0.2610
   29MOL0     C 3785   0.558   6.111   2.517 -0.4338  0.1685 -0.6881
   29MOL0     C 3786   0.587   5.981   2.481  0.4526  0.5843 -0.4065
   29MOL0     C 3787   0.533   5.881   2.545  0.3757 -0.2103 -1.1917
   29MOL0     O 3788   0.562   5.752   2.519 -0.1432 -0.8644 -0.6306
   29MOL0     C 3789   0.697   5.735   2.495 -0.9560  0.0346  0.1548
   29MOL0     C 3790   0.726   5.704   2.348 -0.2700  0.3246 -1.0109
   29MOL0     C 3791   0.696   5.549   2.330  0.4605  0.1868 -0.1915
   29MOL0     C 3792   0.725   5.498   2.185 -1.4938  1.0149  0.1597
   29MOL0     C 3793   0.697   5.348   2.165 -0.5454  0.1604 -0.1987
   29MOL0     C 3794   0.648   5.333   2.021  0.2837 -0.6956 -0.5451
   29MOL0     C 3795   0.637   5.186   1.974  0.3853 -0.2369  0.7342
   29MOL0     C 3796   0.503   5.124   2.014  0.1956  1.4369  0.2520
   29MOL0     N 3797   0.385   5.188   1.953 -0.1036 -0.5423  0.1174
   29MOL0     C 3798   0.362   5.181   1.818  0.2679  0.1427 -0.0536
   29MOL0     C 3799   0.236   5.217   1.806  0.5856 -0.8048  0.0898
   29MOL0     C 3800   0.153   5.229   1.672 -0.5177  0.6737 -0.5796
   29MOL0     C 3801   0.131   5.380   1.629 -0.5326 -0.2543 -0.0331
   29MOL0     C 3802   0.274   5.431   1.589 -0.1762  0.2834 -0.4023
   29MOL0     C 3803   0.258   5.576   1.533  0.1130 -0.5923  0.6798
   29MOL0     O 3804   0.163   5.584   1.423  0.3852  0.1821 -0.3459
   29MOL0     C 3805   0.200   5.562   1.289 -0.1499 -0.2521 -0.3009
   29MOL0     C 3806   0.329   5.559   1.232 -0.9799  0.2169  0.1560
   29MOL0     C 3807   0.356   5.507   1.097  0.1352 -0.0200  0.1921
   29MOL0     C 3808   0.503   5.492   1.062 -1.2300 -0.7005  0.2534
   29MOL0     C 3809   0.249   5.464   1.019 -0.9253  0.1571  0.0912
   29MOL0     C 3810   0.265   5.414   0.877 -0.4871  0.5554 -0.7004
   29MOL0     O 3811   0.156   5.427   0.796 -0.2488 -0.0147 -0.4368
   29MOL0     C 3812   0.162   5.364   0.676 -0.0592  0.2922 -0.0534
   29MOL0     C 3813   0.047   5.315   0.611  0.7840 -0.1228 -0.3088
   29MOL0     C 3814   0.033   5.282   0.473  0.2432  0.1861 -0.7916
   29MOL0     C 3815   0.151   5.306   0.396  0.8156  0.1772  0.4369
   29MOL0     O 3816   0.151   5.278   0.256 -0.2169 -0.5020  0.5321
   29MOL0     C 3817   0.102   5.152   0.215 -0.2711  0.3830  0.2691
   29MOL0     C 3818   0.112   5.135   0.065  0.7343  0.4283  0.4313
   29MOL0     C 3819  -0.021   5.154  -0.016 -0.4129 -1.0016 -0.6514
   29MOL0     C 3820  -0.101   5.031   0.010  0.7668  0.7759 -0.2081
   29MOL0     C 3821  -0.241   5.054  -0.037  0.1044 -0.8882  0.3342
   29MOL0     C 3822  -0.254   5.122  -0.174  0.7063  0.3470 -0.0190
   29MOL0     C 3823  -0.390   5.093  -0.218  0.1903  0.0309  0.8067
   29MOL0     C 3824  -0.445   5.172  -0.340 -0.3303 -0.1701  0.5601
   29MOL0    Cl 3825  -0.436   5.356  -0.322 -0.1228  0.4279  0.1355
   29MOL0     C 3826   0.271   5.335   0.457 -0.3118  0.0214 -0.6328
   29MOL0     C 3827   0.276   5.372   0.589 -0.0196  0.0801 -0.5077
   29MOL0     O 3828   0.362   5.337   0.856  0.9421  0.1372 -0.1978
   29MOL0     C 3829   0.124   5.486   1.074  1.0588  0.0919 -1.1055
   29MOL0     C 3830   0.095   5.530   1.202  0.0615  0.4430  0.5327
   29MOL0     N 3831   0.180   5.246   1.922  0.5165  0.1006 -0.0036
   29MOL0     N 3832   0.270   5.238   2.022 -0.0722  0.2484  0.1360
   29MOL0     C 3833   0.456   5.912   2.665  0.8180  0.3895 -0.0167
   29MOL0     C 3834   0.448   6.041   2.712 -0.5678 -0.8214  0.7668
   29MOL0     C 3835   0.381   6.467   2.750 -0.0911 -0.2047 -0.6865
   29MOL0     C 3836   0.453   6.491   2.864 -0.7671 -0.5988 -0.4907
   29MOL0     C 3837   0.423   6.603   2.952 -0.1159 -0.4571 -0.6338
   29MOL0     C 3838   0.312   6.689   2.936 -0.7233  0.2324 -0.1632
   29MOL0     O 3839   0.286   6.773   3.036 -0.2947 -0.5539 -0.4012
   29MOL0     C 3840   0.163   6.849   3.036  0.7700 -0.7692 -0.1937
   29MOL0     C 3841   0.158   6.937   3.153 -0.7582 -0.7018  0.1721
   29MOL0     C 3842   0.063   7.062   3.138 -0.0128  0.3345  0.4912
   29MOL0     C 3843   0.056   7.130   3.272  0.0523 -0.4796  0.1989
   29MOL0     C 3844  -0.045   7.073   3.363 -1.0689  0.3800  0.3935
   29MOL0     C 3845  -0.135   7.026   3.428 -0.3159  0.5528  0.4682
   29MOL0     C 3846   0.236   6.664   2.821 -0.3611  0.9166  0.7822
   29MOL0     C 3847   0.276   6.561   2.727  0.3418 -0.4426 -0.0753
   29MOL0     H 3848   0.594   6.182   2.444 -0.0979 -1.7855 -2.5286
   29MOL0     H 3849   0.633   5.960   2.385  3.0980 -1.3012  1.1376
   29MOL0     H 3850   0.763   5.815   2.527  1.2215 -0.2545 -3.1247
   29MOL0     H 3851   0.723   5.649   2.557 -2.7491  0.9904  2.3736
   29MOL0     H 3852   0.660   5.768   2.288  1.3814  0.4469 -2.7970
   29MOL0     H 3853   0.829   5.725   2.319 -0.1041  0.1469 -0.5559
   29MOL0     H 3854   0.759   5.492   2.399 -0.5968 -1.7631 -0.7691
   29MOL0     H 3855   0.591   5.525   2.350  1.0471 -2.1355  0.4109
   29MOL0     H 3856   0.666   5.570   2.127 -3.4797 -0.6328  0.0184
   29MOL0     H 3857   0.830   5.513   2.157 -0.4395 -2.9076  1.4371
   29MOL0     H 3858   0.790   5.294   2.189  0.2400  2.1471  1.4877
   29MOL0     H 3859   0.629   5.317   2.245  2.8943 -0.3605  2.8228
   29MOL0     H 3860   0.562   5.395   1.998  0.9593  0.4374 -0.0876
   29MOL0     H 3861   0.728   5.387   1.970  0.1006  3.9068  3.3143
   29MOL0     H 3862   0.640   5.179   1.865 -3.6178 -2.9071  0.5883
   29MOL0     H 3863   0.716   5.132   2.027  1.0837 -1.4135 -1.3948
   29MOL0     H 3864   0.478   5.134   2.120 -3.7397  1.5299 -0.5369
   29MOL0     H 3865   0.520   5.019   1.991  3.5275  0.8197  4.3221
   29MOL0     H 3866   0.437   5.154   1.745  1.1803 -2.7564  1.8052
   29MOL0     H 3867   0.196   5.172   1.590  1.8572 -1.4002  1.9055
   29MOL0     H 3868   0.052   5.197   1.699  0.6652 -0.8474  2.4347
   29MOL0     H 3869   0.109   5.426   1.726  0.8149  2.1647 -0.7927
   29MOL0     H 3870   0.054   5.392   1.552 -0.5121  1.6069  0.1903
   29MOL0     H 3871   0.312   5.357   1.519  1.1016 -1.2268  1.7702
   29MOL0     H 3872   0.351   5.432   1.667  0.9356 -1.8559 -1.4034
   29MOL0     H 3873   0.347   5.620   1.488 -1.0625  0.7317 -0.4633
   29MOL0     H 3874   0.232   5.642   1.616 -0.3279  0.2545 -0.1015
   29MOL0     H 3875   0.412   5.581   1.299 -0.5677 -4.2754  1.4700
   29MOL0     H 3876   0.535   5.404   1.005  3.7069  0.9753 -0.0708
   29MOL0     H 3877   0.521   5.584   1.006 -2.1090 -0.8202 -0.2418
   29MOL0     H 3878   0.572   5.470   1.144 -2.6022 -0.4725  1.5155
   29MOL0     H 3879  -0.052   5.309   0.655 -0.1629 -0.5711 -2.3852
   29MOL0     H 3880  -0.065   5.252   0.437 -0.1717  0.3011  0.2161
   29MOL0     H 3881   0.158   5.074   0.268 -1.8081 -0.6471  0.4636
   29MOL0     H 3882  -0.002   5.148   0.251  0.2572  1.5323  2.0517
   29MOL0     H 3883   0.195   5.193   0.024  0.3645 -0.7864 -2.2451
   29MOL0     H 3884   0.132   5.031   0.037  0.7836  1.0894 -2.2691
   29MOL0     H 3885  -0.012   5.156  -0.125  1.5728 -0.6358 -0.5329
   29MOL0     H 3886  -0.090   5.229   0.023 -1.3879 -2.5135  0.6224
   29MOL0     H 3887  -0.064   4.949  -0.053 -0.7779  0.2216 -0.4231
   29MOL0     H 3888  -0.099   4.986   0.110  1.5554  2.8358  0.7727
   29MOL0     H 3889  -0.297   5.114   0.035 -1.4071  0.1321 -1.6300
   29MOL0     H 3890  -0.285   4.954  -0.046  1.3283 -1.3228 -1.0973
   29MOL0     H 3891  -0.231   5.228  -0.169 -1.0422  0.8860 -2.2372
   29MOL0     H 3892  -0.184   5.076  -0.245  2.8469  2.0855  0.8396
   29MOL0     H 3893  -0.459   5.117  -0.136 -0.3220  3.3317 -0.4716
   29MOL0     H 3894  -0.396   4.989  -0.251 -1.5830  0.3269  0.1249
   29MOL0     H 3895  -0.550   5.145  -0.354 -1.0273  2.0827  0.9694
   29MOL0     H 3896  -0.387   5.146  -0.429  1.4706  2.6024  0.7880
   29MOL0     H 3897   0.359   5.364   0.401  1.1802  0.5771  1.8510
   29MOL0     H 3898   0.370   5.410   0.628 -0.2245 -0.2790  0.3669
   29MOL0     H 3899   0.035   5.480   1.011 -0.7227  1.7717  1.0672
   29MOL0     H 3900  -0.010   5.546   1.228  0.1499  2.5109 -0.1814
   29MOL0     H 3901   0.419   5.834   2.730 -1.4110  2.8325  1.8901
   29MOL0     H 3902   0.392   6.058   2.804 -4.2646  2.1230 -1.6999
   29MOL0     H 3903   0.539   6.434   2.898 -1.0944  1.0746  3.6774
   29MOL0     H 3904   0.470   6.609   3.050 -3.2600 -1.2070  1.0595
   29MOL0     H 3905   0.152   6.909   2.945 -2.2983 -1.5633 -0.4565
   29MOL0     H 3906   0.084   6.773   3.037 -1.9561  1.8106  2.7344
   29MOL0     H 3907   0.258   6.972   3.182 -2.1160  1.1151  3.1502
   29MOL0     H 3908   0.126   6.885   3.244 -0.1200 -0.0617  0.7743
   29MOL0     H 3909  -0.036   7.028   3.107 -0.2933 -1.4082  3.0244
   29MOL0     H 3910   0.113   7.130   3.068  0.0792  0.4753  0.6913
   29MOL0     H 3911   0.018   7.232   3.262  0.1791 -0.4488  0.0350
   29MOL0     H 3912   0.156   7.136   3.317  0.7082  0.9997 -1.3508
   29MOL0     H 3913  -0.225   6.997   3.478 -0.2756  1.1701  0.9064
   29MOL0     H 3914   0.153   6.730   2.797 -2.9250 -0.2435  5.2991
   29MOL0     H 3915   0.224   6.536   2.634 -1.2877 -3.0202  1.4081
   30MOL0     O 3916   6.401   2.829  10.335 -0.1360  0.2916  0.2040
   30MOL0     C 3917   6.465   2.788  10.432  0.3618  0.0447  0.3444
   30MOL0     O 3918   6.602   2.805  10.454 -0.0496 -0.1213  0.3555
   30MOL0     C 3919   6.670   2.880  10.361 -0.9655 -0.0432  0.4282
   30MOL0     C 3920   6.654   2.904  10.215  0.9332  0.5683 -0.6877
   30MOL0     C 3921   6.764   2.969  10.146  0.3098  0.7923  0.2824
   30MOL0     C 3922   6.873   3.015  10.202 -0.9286  0.6601 -0.5728
   30MOL0     O 3923   6.982   3.064  10.133  0.0611 -0.7391 -0.3767
   30MOL0     C 3924   7.002   3.045   9.991 -0.1768  0.4169 -0.3672
   30MOL0     C 3925   7.141   3.068   9.958 -0.1601 -0.4827  0.3626
   30MOL0     C 3926   7.188   3.207  10.014 -0.7295  0.0348  0.1880
   30MOL0     C 3927   7.325   3.250   9.939  0.4517  0.7293  0.6074
   30MOL0     C 3928   7.387   3.388   9.977 -0.4802 -0.0120  0.6965
   30MOL0     C 3929   7.314   3.502   9.909  0.5967  0.0546  0.0589
   30MOL0     C 3930   7.364   3.646   9.950 -0.0422 -0.2545 -0.5103
   30MOL0     C 3931   7.262   3.757   9.903 -0.2174 -0.4251 -0.5272
   30MOL0     N 3932   7.124   3.722   9.957 -0.1893 -0.7490 -0.2376
   30MOL0     C 3933   7.092   3.717  10.085 -0.0432  0.1146 -0.5597
   30MOL0     C 3934   6.960   3.685  10.098 -0.4365  0.4855 -0.3826
   30MOL0     C 3935   6.877   3.667  10.222 -0.5692  0.4450  0.9671
   30MOL0     C 3936   6.952   3.594  10.337 -0.4343  0.1785  0.2072
   30MOL0     C 3937   7.016   3.468  10.270 -0.1429  0.1865 -0.4347
   30MOL0     C 3938   7.110   3.401  10.377 -0.1352 -0.1941  0.3644
   30MOL0     O 3939   7.035   3.378  10.491 -0.4565  0.2177 -0.0432
   30MOL0     C 3940   7.067   3.279  10.584  1.0441 -0.8669  0.1550
   30MOL0     C 3941   7.180   3.205  10.592 -1.1623  0.0500 -0.2259
   30MOL0     C 3942   7.193   3.108  10.685 -0.3202  0.4991 -0.0464
   30MOL0     C 3943   7.327   3.031  10.684 -0.5495 -0.8415 -0.1354
   30MOL0     C 3944   7.095   3.082  10.783  0.3700  0.4977  0.1586
   30MOL0     C 3945   7.102   2.972  10.881 -0.7865  0.0442  0.8839
   30MOL0     O 3946   7.164   2.856  10.844  0.1094  0.0504  0.2570
   30MOL0     C 3947   7.170   2.747  10.929  0.5169 -0.7167  0.4067
   30MOL0     C 3948   7.146   2.733  11.069 -0.3142  0.0244  0.3480
   30MOL0     C 3949   7.162   2.622  11.148  0.0569  0.5022 -0.1455
   30MOL0     C 3950   7.208   2.508  11.086 -0.0972  0.2146 -0.0279
   30MOL0     O 3951   7.237   2.402  11.172  0.0221 -0.4307  0.7911
   30MOL0     C 3952   7.280   2.276  11.113 -0.0264  0.0407 -0.0306
   30MOL0     C 3953   7.249   2.169  11.216  0.3199  0.5787 -0.9594
   30MOL0     C 3954   7.227   2.028  11.165  0.9964  0.1039  0.2978
   30MOL0     C 3955   7.329   1.980  11.060 -0.0824 -0.6045  0.3234
   30MOL0     C 3956   7.472   1.980  11.104  0.2733  0.2691  0.1881
   30MOL0     C 3957   7.498   1.887  11.226  0.1774 -0.3968  0.1833
   30MOL0     C 3958   7.645   1.883  11.264  0.8924 -1.0454 -0.2964
   30MOL0     C 3959   7.695   1.753  11.333  0.3109  0.8079 -1.2017
   30MOL0    Cl 3960   7.615   1.739  11.493 -0.4223  0.1359  0.2041
   30MOL0     C 3961   7.213   2.507  10.946 -0.8338 -0.1337  0.3787
   30MOL0     C 3962   7.200   2.628  10.871 -0.2453 -0.8314 -0.6510
   30MOL0     O 3963   7.055   3.000  10.989  0.4007  0.4452 -0.3876
   30MOL0     C 3964   6.994   3.181  10.791 -0.2882  0.1765  0.4642
   30MOL0     C 3965   6.989   3.286  10.694  0.4797  0.0355 -0.3833
   30MOL0     N 3966   6.911   3.672   9.971 -0.4989  0.4095  0.1129
   30MOL0     N 3967   7.007   3.698   9.887 -0.7064 -0.2165  1.4330
   30MOL0     C 3968   6.882   2.997  10.337 -0.3189  0.2959  0.5671
   30MOL0     C 3969   6.784   2.937  10.417  0.2015 -0.5329 -0.0447
   30MOL0     C 3970   6.396   2.691  10.508 -0.5119 -0.5941  0.1927
   30MOL0     C 3971   6.466   2.591  10.592 -0.7943  0.2564  0.0798
   30MOL0     C 3972   6.394   2.487  10.652  0.5684 -0.0568  0.1356
   30MOL0     C 3973   6.262   2.469  10.627  0.3887 -0.2048  0.5206
   30MOL0     O 3974   6.207   2.357  10.680  0.6720 -1.3387 -0.0122
   30MOL0     C 3975   6.079   2.313  10.633 -0.2692  0.6561 -0.0844
   30MOL0     C 3976   6.051   2.179  10.700 -0.1300 -0.3826 -0.6211
   30MOL0     C 3977   5.915   2.120  10.667 -0.1226 -0.0311 -0.3386
   30MOL0     C 3978   5.916   2.060  10.529 -0.9594 -0.7848  0.1330
   30MOL0     C 3979   5.800   1.967  10.503 -0.6924 -1.4463 -0.2961
   30MOL0     C 3980   5.704   1.892  10.494 -0.4738  0.3014  0.4494
   30MOL0     C 3981   6.193   2.568  10.563 -0.0702 -0.9979 -0.4769
   30MOL0     C 3982   6.259   2.678  10.508  0.1010  0.4645 -0.0425
   30MOL0     H 3983   6.566   2.860  10.170 -0.4729  3.4863 -1.0334
   30MOL0     H 3984   6.757   2.971  10.038  1.2174  0.6999  0.2162
   30MOL0     H 3985   6.971   2.946   9.954 -1.6395  1.5125 -2.2602
   30MOL0     H 3986   6.947   3.128   9.947  2.4345  2.4514 -0.0667
   30MOL0     H 3987   7.206   2.986   9.990  0.3575 -0.0105  0.5361
   30MOL0     H 3988   7.150   3.071   9.849 -0.0538 -0.3449  0.3746
   30MOL0     H 3989   7.111   3.278   9.981 -1.2438 -1.0440 -1.0262
   30MOL0     H 3990   7.194   3.207  10.123  1.2147  1.4426  0.1219
   30MOL0     H 3991   7.401   3.180   9.976  1.4766  2.3993  1.8429
   30MOL0     H 3992   7.318   3.240   9.831  2.6775 -0.2536  0.4965
   30MOL0     H 3993   7.377   3.400  10.085 -0.1784  2.3101  0.5159
   30MOL0     H 3994   7.493   3.385   9.951 -0.6375  1.1035 -0.1608
   30MOL0     H 3995   7.331   3.502   9.801  1.5642  0.6081  0.1962
   30MOL0     H 3996   7.207   3.486   9.925  0.4838  0.7625  0.0615
   30MOL0     H 3997   7.373   3.652  10.059 -2.6426 -3.4433  0.0350
   30MOL0     H 3998   7.467   3.658   9.916  0.2221 -2.0515 -0.4208
   30MOL0     H 3999   7.281   3.764   9.795  0.7476 -2.1746 -0.5048
   30MOL0     H 4000   7.299   3.850   9.948 -0.4653 -0.8100  0.4796
   30MOL0     H 4001   7.157   3.732  10.171 -0.1042  1.0205 -0.6713
   30MOL0     H 4002   6.842   3.759  10.269 -0.2876 -0.6057  3.3475
   30MOL0     H 4003   6.793   3.599  10.200 -0.6550 -0.2558  3.2370
   30MOL0     H 4004   6.880   3.565  10.414 -0.0175  0.4268  0.6923
   30MOL0     H 4005   7.034   3.662  10.361 -0.3001  1.0805 -2.4097
   30MOL0     H 4006   7.073   3.479  10.178 -2.7136  1.9740 -1.9502
   30MOL0     H 4007   6.943   3.391  10.241  0.7984 -0.9152  0.0225
   30MOL0     H 4008   7.193   3.470  10.392 -1.7235  1.8968  0.0933
   30MOL0     H 4009   7.148   3.308  10.334 -1.2418  0.8785 -3.3001
   30MOL0     H 4010   7.252   3.203  10.511  0.4041 -3.8571  1.0192
   30MOL0     H 4011   7.353   3.031  10.791 -3.0062  1.6873  0.5745
   30MOL0     H 4012   7.325   2.929  10.644  4.1192 -1.5606  0.8130
   30MOL0     H 4013   7.410   3.085  10.638 -1.3070  2.0844  1.6134
   30MOL0     H 4014   7.113   2.823  11.121  0.7279  1.2764 -1.0763
   30MOL0     H 4015   7.143   2.628  11.255  0.9753  1.0920 -0.0054
   30MOL0     H 4016   7.224   2.242  11.026  2.9971 -0.3366 -1.9989
   30MOL0     H 4017   7.386   2.279  11.086  0.0212  2.7614  0.1882
   30MOL0     H 4018   7.323   2.152  11.295 -1.2554  3.2106  1.2749
   30MOL0     H 4019   7.156   2.199  11.265 -2.2697 -1.3415 -4.2625
   30MOL0     H 4020   7.129   2.028  11.116  0.4852 -0.4060  1.3040
   30MOL0     H 4021   7.236   1.957  11.248  0.8294 -1.1063 -0.6824
   30MOL0     H 4022   7.311   1.877  11.028 -1.9347  0.0934 -1.0739
   30MOL0     H 4023   7.311   2.036  10.967 -1.4181 -1.7229 -0.1175
   30MOL0     H 4024   7.497   2.084  11.131  4.2108 -1.1964  3.2549
   30MOL0     H 4025   7.532   1.944  11.020  0.5456 -0.7241  0.7919
   30MOL0     H 4026   7.437   1.915  11.313  0.2030 -1.9691  0.7311
   30MOL0     H 4027   7.463   1.788  11.196 -0.1562  0.3165 -1.9711
   30MOL0     H 4028   7.669   1.969  11.326  2.1393 -2.3901  1.1599
   30MOL0     H 4029   7.702   1.892  11.171  1.8130  4.4514  0.4875
   30MOL0     H 4030   7.803   1.756  11.350  0.4802 -1.6538 -1.4571
   30MOL0     H 4031   7.674   1.672  11.262  3.1619 -1.2870  0.1268
   30MOL0     H 4032   7.247   2.427  10.882 -1.4943 -1.2048  1.3327
   30MOL0     H 4033   7.231   2.638  10.767  1.6492  3.3209  0.0990
   30MOL0     H 4034   6.931   3.185  10.879  0.5958 -2.4354  1.3070
   30MOL0     H 4035   6.912   3.362  10.708  1.4740  1.4296 -2.1389
   30MOL0     H 4036   6.967   3.045  10.384 -0.7913  1.9052 -0.1571
   30MOL0     H 4037   6.782   2.930  10.525  0.2074 -2.1745 -0.1253
   30MOL0     H 4038   6.573   2.593  10.609 -0.9907  1.1157  1.3459
   30MOL0     H 4039   6.456   2.412  10.701  2.5666 -1.6683 -4.2810
   30MOL0     H 4040   5.993   2.376  10.657 -1.7627 -1.8248  1.5142
   30MOL0     H 4041   6.073   2.286  10.527  0.6584 -2.9781  0.6611
   30MOL0     H 4042   6.052   2.183  10.809 -1.8204  0.2121 -0.5942
   30MOL0     H 4043   6.122   2.101  10.675  0.5593  0.1272 -0.3022
   30MOL0     H 4044   5.840   2.195  10.693 -0.3979 -0.1555 -0.7595
   30MOL0     H 4045   5.904   2.031  10.729 -5.5408  2.2835  2.7027
   30MOL0     H 4046   6.009   2.003  10.522 -0.1179  0.4066  0.9542
   30MOL0     H 4047   5.915   2.138  10.452  0.2216 -1.4831 -0.6138
   30MOL0     H 4048   5.624   1.822  10.508 -0.6898  0.7720  1.6088
   30MOL0     H 4049   6.086   2.565  10.546 -0.7758  3.4105  1.6970
   30MOL0     H 4050   6.201   2.744  10.443  1.4280 -1.6456 -3.6768
   31MOL0     O 4051   5.785   7.743   1.108  0.5821 -0.4433  0.2087
   31MOL0     C 4052   5.903   7.714   1.102 -0.6889  0.4597 -1.3647
   31MOL0     O 4053   5.953   7.589   1.129  0.2624  0.1601  0.0526
   31MOL0     C 4054   5.862   7.488   1.158 -0.3769 -0.1226  0.9002
   31MOL0     C 4055   5.817   7.398   1.060  0.1441  0.6626  0.1282
   31MOL0     C 4056   5.743   7.290   1.099  0.4710 -0.1755 -0.0446
   31MOL0     C 4057   5.696   7.267   1.233 -0.3223 -0.4597  0.0525
   31MOL0     O 4058   5.614   7.161   1.285 -0.8581  0.7103 -0.1548
   31MOL0     C 4059   5.504   7.129   1.213  0.0252 -0.9903 -0.6825
   31MOL0     C 4060   5.395   7.238   1.216  0.3011 -0.1033  0.8265
   31MOL0     C 4061   5.281   7.190   1.134 -0.2815 -0.9959 -0.1421
   31MOL0     C 4062   5.306   7.156   0.984 -0.0239 -0.0007 -1.0364
   31MOL0     C 4063   5.179   7.152   0.911  0.2889  0.1115 -0.2755
   31MOL0     C 4064   5.076   7.041   0.974  0.1449 -0.6871 -0.6676
   31MOL0     C 4065   4.951   7.032   0.893  0.3782  0.1661  0.8834
   31MOL0     C 4066   4.865   6.921   0.959  0.0377 -0.0631  0.0407
   31MOL0     N 4067   4.731   6.931   0.903 -0.0844  0.7636 -0.7709
   31MOL0     C 4068   4.707   6.924   0.780  1.1004  0.0008  0.7595
   31MOL0     C 4069   4.577   6.942   0.766  0.1924  0.6604 -0.2659
   31MOL0     C 4070   4.524   6.972   0.632  0.8180 -0.0068 -1.0416
   31MOL0     C 4071   4.443   7.109   0.638  0.2527 -0.0640  0.7156
   31MOL0     C 4072   4.403   7.164   0.501  0.1669  0.3355  0.1460
   31MOL0     C 4073   4.338   7.305   0.503 -0.8470 -0.6849  0.2592
   31MOL0     O 4074   4.334   7.342   0.360 -0.3158 -0.8703 -0.3497
   31MOL0     C 4075   4.221   7.312   0.292 -0.1678 -1.6896  0.5692
   31MOL0     C 4076   4.226   7.214   0.185  0.1006 -0.0531  0.4289
   31MOL0     C 4077   4.109   7.185   0.110 -0.5212 -0.1123 -0.2120
   31MOL0     C 4078   4.121   7.083  -0.002 -0.6653  0.4517  0.3460
   31MOL0     C 4079   3.985   7.262   0.132 -0.7884 -0.2127 -0.0603
   31MOL0     C 4080   3.864   7.258   0.055  0.0948 -0.2577  0.9942
   31MOL0     O 4081   3.777   7.363   0.079  0.2617  0.0180  0.2134
   31MOL0     C 4082   3.678   7.373  -0.012  0.6393  0.3680 -0.1097
   31MOL0     C 4083   3.583   7.279  -0.026  0.3432  0.6372 -0.9434
   31MOL0     C 4084   3.481   7.287  -0.125  0.2140  0.2788 -1.1731
   31MOL0     C 4085   3.476   7.402  -0.207 -0.7385  0.9099 -0.2736
   31MOL0     O 4086   3.378   7.402  -0.302 -0.0123 -0.1805 -0.4245
   31MOL0     C 4087   3.373   7.506  -0.404 -0.6451 -0.2913 -1.2727
   31MOL0     C 4088   3.295   7.470  -0.526  0.2497 -0.8643 -0.0063
   31MOL0     C 4089   3.303   7.553  -0.658 -0.0117  1.0528 -0.0892
   31MOL0     C 4090   3.209   7.478  -0.755 -0.6779  0.2190 -0.3011
   31MOL0     C 4091   3.203   7.539  -0.892 -0.0161  0.2804  0.3638
   31MOL0     C 4092   3.338   7.583  -0.940 -0.2106  0.2365 -0.0468
   31MOL0     C 4093   3.360   7.573  -1.093 -0.5824  0.5451  0.8801
   31MOL0     C 4094   3.259   7.671  -1.162  0.8203  0.4396  0.0481
   31MOL0    Cl 4095   3.094   7.589  -1.182 -0.4687  0.0995 -0.1352
   31MOL0     C 4096   3.572   7.499  -0.198 -0.3525 -0.0923 -0.0219
   31MOL0     C 4097   3.670   7.485  -0.097 -0.2811  0.1402 -0.7196
   31MOL0     O 4098   3.849   7.171  -0.035  0.3735  0.1573 -0.7568
   31MOL0     C 4099   3.996   7.364   0.230  0.3894 -0.9187 -0.0346
   31MOL0     C 4100   4.110   7.386   0.303  0.8417  0.0259  1.2900
   31MOL0     N 4101   4.523   6.959   0.888  0.6818 -0.3444 -0.4666
   31MOL0     N 4102   4.625   6.952   0.970 -0.2311 -0.2425 -0.0280
   31MOL0     C 4103   5.746   7.352   1.331  0.2236 -0.5576 -0.4485
   31MOL0     C 4104   5.825   7.465   1.295 -0.1026  0.0376  0.9528
   31MOL0     C 4105   6.011   7.812   1.069 -0.5100 -0.2276 -0.1005
   31MOL0     C 4106   6.144   7.777   1.078 -1.0509 -0.6151  0.4012
   31MOL0     C 4107   6.248   7.860   1.045  0.2940  0.1575  0.9419
   31MOL0     C 4108   6.223   7.994   1.016  0.6467  0.6840  0.3223
   31MOL0     O 4109   6.333   8.073   0.983 -0.5727  0.5626  0.1412
   31MOL0     C 4110   6.316   8.219   0.982 -0.0959 -0.1828 -0.1301
   31MOL0     C 4111   6.426   8.301   0.921  0.4150 -1.0643  0.5966
   31MOL0     C 4112   6.556   8.267   0.982  0.5199  0.2081  0.2149
   31MOL0     C 4113   6.664   8.368   0.933 -0.1839  0.6530 -0.9549
   31MOL0     C 4114   6.791   8.332   0.994 -0.8393  0.0295 -0.1724
   31MOL0     C 4115   6.894   8.305   1.052 -0.4012 -0.6527  0.0776
   31MOL0     C 4116   6.091   8.040   1.022  0.3703 -0.2364 -0.1312
   31MOL0     C 4117   5.985   7.947   1.041 -0.8547 -0.4812  0.1952
   31MOL0     H 4118   5.853   7.405   0.958 -1.7245 -0.7794 -0.6881
   31MOL0     H 4119   5.691   7.225   1.029  0.1164 -0.8377  0.8167
   31MOL0     H 4120   5.530   7.110   1.109  1.8773  0.6212 -0.5552
   31MOL0     H 4121   5.466   7.038   1.260 -0.5285 -1.0090 -1.1562
   31MOL0     H 4122   5.368   7.259   1.320  2.5519 -0.9735  1.6498
   31MOL0     H 4123   5.428   7.326   1.160 -3.2486  0.3076 -0.8813
   31MOL0     H 4124   5.252   7.102   1.191 -3.2198 -1.5998 -2.2985
   31MOL0     H 4125   5.209   7.272   1.140  1.0414  0.4017 -1.9430
   31MOL0     H 4126   5.373   7.227   0.935 -0.8227  1.2093 -0.4127
   31MOL0     H 4127   5.363   7.063   0.974  0.3409  0.1987 -0.8366
   31MOL0     H 4128   5.139   7.252   0.929  0.3306 -0.4457  3.9265
   31MOL0     H 4129   5.215   7.132   0.810  3.0319 -1.5417  0.9321
   31MOL0     H 4130   5.129   6.945   0.977  2.4200  0.4338 -1.8214
   31MOL0     H 4131   5.054   7.063   1.078  0.4841 -0.6511 -0.6007
   31MOL0     H 4132   4.904   7.131   0.887  2.0750  0.9245 -2.5228
   31MOL0     H 4133   4.976   7.005   0.790 -0.1397 -1.2162  1.0978
   31MOL0     H 4134   4.866   6.925   1.068 -0.4073 -1.1181  0.0972
   31MOL0     H 4135   4.907   6.823   0.934  2.2575  1.1896 -1.5019
   31MOL0     H 4136   4.775   6.932   0.695  0.4670 -1.1341  0.1131
   31MOL0     H 4137   4.596   6.959   0.551  2.6291 -2.8186  0.8348
   31MOL0     H 4138   4.450   6.894   0.610 -0.3073  0.2310  1.5811
   31MOL0     H 4139   4.496   7.193   0.684 -2.8529  2.2108  0.4680
   31MOL0     H 4140   4.356   7.086   0.701 -0.4849 -1.2421 -0.6860
   31MOL0     H 4141   4.330   7.092   0.461  0.6279 -1.0215  1.6098
   31MOL0     H 4142   4.494   7.168   0.442  1.5286  2.2896  2.1993
   31MOL0     H 4143   4.413   7.369   0.551 -1.0983 -1.0565  1.1866
   31MOL0     H 4144   4.243   7.306   0.558 -0.4608 -0.7119  0.9423
   31MOL0     H 4145   4.315   7.156   0.161  1.0583  1.3851  0.4034
   31MOL0     H 4146   4.155   7.122  -0.098  1.4093 -1.7367  0.0975
   31MOL0     H 4147   4.192   7.005   0.028 -2.1647 -1.0300  0.1931
   31MOL0     H 4148   4.032   7.021  -0.017 -1.9541  2.3854 -0.3223
   31MOL0     H 4149   3.581   7.193   0.041 -2.4126  1.0149 -0.4455
   31MOL0     H 4150   3.417   7.201  -0.141 -2.7570  1.7939  1.4186
   31MOL0     H 4151   3.331   7.594  -0.355 -1.6909 -1.5281  0.1686
   31MOL0     H 4152   3.472   7.543  -0.432 -1.3691  1.3347 -1.8013
   31MOL0     H 4153   3.319   7.364  -0.539 -0.8735 -1.7495  3.8328
   31MOL0     H 4154   3.188   7.479  -0.510  0.1641 -0.0392 -0.9286
   31MOL0     H 4155   3.408   7.569  -0.685  0.4099 -0.2718  0.6627
   31MOL0     H 4156   3.278   7.659  -0.648 -2.1199  0.5735  0.0916
   31MOL0     H 4157   3.243   7.375  -0.768 -2.1289 -0.4395  0.7936
   31MOL0     H 4158   3.108   7.469  -0.712 -0.7145 -0.4253 -0.5116
   31MOL0     H 4159   3.128   7.618  -0.884  1.0340  1.5555 -1.7289
   31MOL0     H 4160   3.178   7.467  -0.970  3.6770  2.3888 -3.0823
   31MOL0     H 4161   3.363   7.687  -0.915  3.0079 -0.1769 -1.1002
   31MOL0     H 4162   3.418   7.523  -0.897  0.4183  1.7591  1.0254
   31MOL0     H 4163   3.335   7.473  -1.131 -0.8716  1.3549 -1.2344
   31MOL0     H 4164   3.464   7.600  -1.111 -1.2641  2.1060 -1.0233
   31MOL0     H 4165   3.297   7.690  -1.263  0.4673 -2.0535 -0.6424
   31MOL0     H 4166   3.256   7.768  -1.111 -0.5176  0.4521 -0.0262
   31MOL0     H 4167   3.589   7.586  -0.260  2.5973  0.0608  0.8173
   31MOL0     H 4168   3.754   7.552  -0.089  4.2027 -4.9511  0.8147
   31MOL0     H 4169   3.913   7.429   0.256  1.8460  3.2416 -4.3821
   31MOL0     H 4170   4.117   7.454   0.387  1.6338 -2.2043  3.1660
   31MOL0     H 4171   5.713   7.336   1.433  2.1871  0.7818  0.4570
   31MOL0     H 4172   5.860   7.535   1.370  2.1338 -0.7188  0.6977
   31MOL0     H 4173   6.179   7.677   1.101 -4.7409 -2.4732 -1.1543
   31MOL0     H 4174   6.348   7.822   1.027  0.1656  0.4014 -0.3988
   31MOL0     H 4175   6.230   8.251   0.922  2.0939 -0.0274 -3.4217
   31MOL0     H 4176   6.302   8.261   1.082  0.6461  1.0805 -0.5313
   31MOL0     H 4177   6.398   8.406   0.926  1.4666 -0.6554 -1.2719
   31MOL0     H 4178   6.426   8.275   0.814  1.3464  3.3825 -0.6774
   31MOL0     H 4179   6.579   8.164   0.954  1.9308  0.5124  0.1648
   31MOL0     H 4180   6.553   8.261   1.091  1.0288 -1.1739  0.1705
   31MOL0     H 4181   6.637   8.470   0.962  1.1143  0.5216  0.8875
   31MOL0     H 4182   6.678   8.365   0.824  1.7291 -1.6406 -0.7111
   31MOL0     H 4183   6.979   8.285   1.114 -0.7428 -2.1136  0.1004
   31MOL0     H 4184   6.059   8.144   1.017  2.7698  0.7484  2.4069
   31MOL0     H 4185   5.887   7.992   1.052 -1.3455 -1.0378 -1.5729
   32MOL0     O 4186   8.808   8.744   9.119  0.1303 -0.1977 -0.1771
   32MOL0     C 4187   8.756   8.833   9.178 -1.1266 -0.1799 -0.7710
   32MOL0     O 4188   8.631   8.832   9.224  0.1876 -0.4708  0.3144
   32MOL0     C 4189   8.552   8.736   9.158 -0.1173  0.6913  0.6742
   32MOL0     C 4190   8.502   8.744   9.028  0.5970  0.4252 -1.0702
   32MOL0     C 4191   8.422   8.650   8.961 -0.0084 -0.2414  0.1555
   32MOL0     C 4192   8.389   8.533   9.037 -0.0465 -0.0637  0.0212
   32MOL0     O 4193   8.334   8.428   8.967 -0.2379  0.4808 -0.0659
   32MOL0     C 4194   8.308   8.306   9.038  0.1921  0.1499 -0.0898
   32MOL0     C 4195   8.293   8.175   8.969 -0.2283 -0.0167 -0.5864
   32MOL0     C 4196   8.296   8.057   9.073 -0.3522  0.2757  0.5088
   32MOL0     C 4197   8.435   8.014   9.109  0.8757  0.5282  0.4976
   32MOL0     C 4198   8.443   7.882   9.176 -0.1210  0.3588 -0.0123
   32MOL0     C 4199   8.573   7.819   9.168 -0.4807  0.4161 -0.1694
   32MOL0     C 4200   8.569   7.678   9.203 -0.7998  0.2517 -0.8219
   32MOL0     C 4201   8.707   7.604   9.214  0.4237 -0.2329  0.4266
   32MOL0     N 4202   8.684   7.462   9.246 -0.5462  0.2065  0.4378
   32MOL0     C 4203   8.768   7.387   9.327 -0.0588  0.1626  0.1844
   32MOL0     C 4204   8.695   7.268   9.339 -0.1944  0.2599 -0.0449
   32MOL0     C 4205   8.728   7.154   9.441 -0.0393  0.5673  0.4862
   32MOL0     C 4206   8.672   7.187   9.578 -0.1409  0.3154 -0.4935
   32MOL0     C 4207   8.681   7.074   9.684  0.1092  0.0679  1.0214
   32MOL0     C 4208   8.568   6.977   9.696 -0.0600 -0.1946 -0.3178
   32MOL0     O 4209   8.590   6.888   9.808 -0.0325  0.0763  0.2981
   32MOL0     C 4210   8.511   6.780   9.808 -0.5004  0.6210  0.6045
   32MOL0     C 4211   8.382   6.780   9.866  0.9141  0.1259 -0.0280
   32MOL0     C 4212   8.284   6.678   9.851  0.0757  0.2856  0.6117
   32MOL0     C 4213   8.158   6.687   9.924  0.7282  0.0408 -0.0577
   32MOL0     C 4214   8.317   6.572   9.759 -0.0847  0.4433 -0.3159
   32MOL0     C 4215   8.216   6.466   9.712 -0.9687  0.2357  0.1775
   32MOL0     O 4216   8.276   6.357   9.680 -0.5000  0.0128  0.2777
   32MOL0     C 4217   8.240   6.267   9.590 -0.4452 -0.8853  0.8111
   32MOL0     C 4218   8.129   6.290   9.504  0.1363  0.2285  0.8792
   32MOL0     C 4219   8.105   6.198   9.398  0.8932  0.3266 -0.7987
   32MOL0     C 4220   8.188   6.085   9.378  0.7238 -0.5723 -0.8707
   32MOL0     O 4221   8.177   6.004   9.267  0.6464  0.4247 -0.6753
   32MOL0     C 4222   8.149   6.057   9.135  0.1632 -0.0045 -0.5422
   32MOL0     C 4223   8.139   5.945   9.034 -0.3974 -0.1605 -0.3874
   32MOL0     C 4224   8.012   5.875   9.022  0.5496 -0.4999  0.3366
   32MOL0     C 4225   7.897   5.958   8.964  0.2626  0.1440 -0.2924
   32MOL0     C 4226   7.909   5.979   8.804 -0.0707  0.0070 -0.9052
   32MOL0     C 4227   7.763   5.967   8.750  0.7758 -0.4125  1.0713
   32MOL0     C 4228   7.767   5.986   8.600 -0.0086  0.3254 -0.1613
   32MOL0     C 4229   7.628   5.960   8.541  1.3348  0.0789  0.5959
   32MOL0    Cl 4230   7.509   6.101   8.564 -0.1505 -0.0961  0.0231
   32MOL0     C 4231   8.295   6.060   9.463 -0.4114 -0.9149 -0.4948
   32MOL0     C 4232   8.320   6.159   9.566  0.4644 -0.0557 -1.0809
   32MOL0     O 4233   8.098   6.490   9.710  0.1408  0.5429  0.3111
   32MOL0     C 4234   8.441   6.572   9.699 -0.0977  0.0633 -0.1763
   32MOL0     C 4235   8.543   6.667   9.730  0.4944  0.3933 -0.5540
   32MOL0     N 4236   8.584   7.272   9.251 -0.1391  0.7031 -0.3068
   32MOL0     N 4237   8.582   7.383   9.193  0.4108  0.0758 -0.3436
   32MOL0     C 4238   8.427   8.524   9.171 -0.8787 -0.9528 -0.1985
   32MOL0     C 4239   8.514   8.631   9.229 -0.4131  0.2169  0.4121
   32MOL0     C 4240   8.832   8.957   9.178 -0.0644 -0.1898  0.4791
   32MOL0     C 4241   8.971   8.953   9.162 -0.7611 -0.7272 -0.0190
   32MOL0     C 4242   9.055   9.063   9.191  0.1390 -0.5169 -0.0437
   32MOL0     C 4243   8.993   9.180   9.240 -1.0883  0.0559  0.0963
   32MOL0     O 4244   9.059   9.294   9.264 -0.3798 -0.2171 -0.6765
   32MOL0     C 4245   9.202   9.289   9.277 -0.6175  0.5427 -0.3999
   32MOL0     C 4246   9.253   9.425   9.331 -0.1779 -0.0165  0.1672
   32MOL0     C 4247   9.396   9.413   9.360 -0.2251  0.3078 -0.5081
   32MOL0     C 4248   9.446   9.547   9.417  0.1669  0.2495 -0.1452
   32MOL0     C 4249   9.587   9.539   9.457  0.0435 -0.3705  0.1884
   32MOL0     C 4250   9.704   9.535   9.489  0.2981 -0.4099  0.2561
   32MOL0     C 4251   8.857   9.182   9.257  0.1663 -0.3823  0.1430
   32MOL0     C 4252   8.775   9.076   9.216 -0.0018 -0.1318 -0.7202
   32MOL0     H 4253   8.533   8.834   8.977  3.2927  0.8080  0.9759
   32MOL0     H 4254   8.390   8.664   8.859  0.0880 -1.5900 -0.0765
   32MOL0     H 4255   8.396   8.279   9.097  2.5653  0.6569 -3.1765
   32MOL0     H 4256   8.218   8.317   9.100 -0.2489  0.5723 -0.7938
   32MOL0     H 4257   8.198   8.164   8.916 -1.8453 -0.8607  2.2589
   32MOL0     H 4258   8.369   8.158   8.893 -0.0567 -0.1446 -0.3888
   32MOL0     H 4259   8.224   8.076   9.153  0.3149 -0.6155  1.3485
   32MOL0     H 4260   8.262   7.972   9.014 -0.3313 -0.2699  1.2644
   32MOL0     H 4261   8.494   7.996   9.018  1.2110 -0.5738  0.9086
   32MOL0     H 4262   8.484   8.085   9.176  3.0674 -1.8918  1.6858
   32MOL0     H 4263   8.414   7.895   9.281 -0.0916  2.3316 -0.2080
   32MOL0     H 4264   8.368   7.818   9.129 -1.4065  0.4401  1.8174
   32MOL0     H 4265   8.603   7.837   9.064  2.8102  0.0589  0.6093
   32MOL0     H 4266   8.642   7.879   9.228  1.1781 -0.2358 -1.3582
   32MOL0     H 4267   8.528   7.663   9.303  0.3170  1.0110 -0.2409
   32MOL0     H 4268   8.505   7.621   9.133 -3.6595  0.1662  1.6547
   32MOL0     H 4269   8.761   7.650   9.297  0.9937  0.5011 -0.3283
   32MOL0     H 4270   8.764   7.606   9.121  2.0257 -0.7854  1.3616
   32MOL0     H 4271   8.863   7.415   9.373  1.9360 -2.0876 -2.2393
   32MOL0     H 4272   8.687   7.059   9.409 -2.0555  1.3093  0.7189
   32MOL0     H 4273   8.836   7.137   9.442 -0.2420 -0.9370  2.2883
   32MOL0     H 4274   8.564   7.204   9.579 -0.1470  0.2517 -0.0597
   32MOL0     H 4275   8.721   7.280   9.609 -1.5150  1.8230 -2.5415
   32MOL0     H 4276   8.682   7.121   9.783 -1.1220 -0.1032  1.1254
   32MOL0     H 4277   8.783   7.033   9.678 -0.1849 -1.3946  3.9275
   32MOL0     H 4278   8.566   6.923   9.601  1.6785 -0.7350 -0.0760
   32MOL0     H 4279   8.467   7.013   9.719  0.0254 -1.1329  1.7241
   32MOL0     H 4280   8.362   6.871   9.922  4.7511  1.0401  0.1376
   32MOL0     H 4281   8.145   6.593   9.977  2.1657  0.4564  1.0970
   32MOL0     H 4282   8.161   6.764  10.003  0.5608 -1.6922  1.7073
   32MOL0     H 4283   8.068   6.706   9.865  0.5869 -0.6393 -0.0671
   32MOL0     H 4284   8.058   6.371   9.508 -2.2848 -1.5834 -1.3083
   32MOL0     H 4285   8.018   6.196   9.334 -2.6596 -1.8658  3.5277
   32MOL0     H 4286   8.051   6.104   9.152  0.0564 -0.2654 -0.4189
   32MOL0     H 4287   8.232   6.121   9.106 -1.0408  0.6368 -2.7724
   32MOL0     H 4288   8.161   5.978   8.932 -1.3260  2.1932  0.1034
   32MOL0     H 4289   8.216   5.873   9.063  0.2885  0.4874 -0.5864
   32MOL0     H 4290   7.992   5.833   9.121  1.4859 -2.0711 -0.1159
   32MOL0     H 4291   8.036   5.788   8.961  1.8427  0.6206 -0.8252
   32MOL0     H 4292   7.808   5.896   8.976  1.6197 -2.0390 -0.8301
   32MOL0     H 4293   7.881   6.059   9.003  1.1073  2.0973 -4.4636
   32MOL0     H 4294   7.973   5.897   8.770  0.4111  0.0732 -0.1893
   32MOL0     H 4295   7.961   6.075   8.796  2.8936 -1.5491 -1.8644
   32MOL0     H 4296   7.730   5.868   8.784 -0.3650 -1.0556 -1.6420
   32MOL0     H 4297   7.696   6.046   8.786 -0.4670 -0.5757 -0.7767
   32MOL0     H 4298   7.836   5.907   8.569  1.1101  0.1703  2.4410
   32MOL0     H 4299   7.805   6.083   8.568 -1.7591  1.0851 -0.0804
   32MOL0     H 4300   7.568   5.876   8.577 -2.5705  1.6932 -1.5247
   32MOL0     H 4301   7.645   5.941   8.434  2.2389 -0.1970  0.7786
   32MOL0     H 4302   8.369   5.981   9.453 -0.4938 -0.9004 -1.2636
   32MOL0     H 4303   8.419   6.162   9.610  0.3042  1.8430 -0.7427
   32MOL0     H 4304   8.471   6.492   9.632 -0.0015 -0.3126  0.3134
   32MOL0     H 4305   8.634   6.664   9.671  1.3230  2.1753  0.5662
   32MOL0     H 4306   8.420   8.441   9.241 -2.4349  0.4253  1.3892
   32MOL0     H 4307   8.548   8.627   9.332  0.9220 -1.8998 -0.0510
   32MOL0     H 4308   9.014   8.860   9.125  1.8651  0.4343 -0.1049
   32MOL0     H 4309   9.160   9.047   9.170  0.0868  0.3403 -1.0279
   32MOL0     H 4310   9.243   9.209   9.339  2.1137  1.2073 -1.1892
   32MOL0     H 4311   9.234   9.277   9.173  1.7279  1.9076  0.0756
   32MOL0     H 4312   9.208   9.452   9.427  0.3285  0.7454  0.1969
   32MOL0     H 4313   9.227   9.497   9.253  1.0766 -0.3118 -0.5456
   32MOL0     H 4314   9.453   9.389   9.270 -2.7114  1.0176 -2.3934
   32MOL0     H 4315   9.408   9.329   9.428 -1.0189  1.1719  0.7301
   32MOL0     H 4316   9.387   9.583   9.501 -0.7971  0.3357 -0.8368
   32MOL0     H 4317   9.432   9.623   9.339 -1.2160  1.1851  0.9775
   32MOL0     H 4318   9.806   9.535   9.520  0.5647 -0.3024 -0.5756
   32MOL0     H 4319   8.819   9.282   9.276  1.8312  0.3310 -0.0492
   32MOL0     H 4320   8.667   9.081   9.214 -0.1175 -1.0161  0.9958
   33MOL0     O 4321  11.236   8.890   1.364 -0.4740 -0.4073 -0.2473
   33MOL0     C 4322  11.261   8.915   1.475  0.1586 -0.0430  0.3786
   33MOL0     O 4323  11.176   8.973   1.565 -0.3997 -0.4809  0.6424
   33MOL0     C 4324  11.041   8.987   1.535  0.7266 -0.5354 -0.5448
   33MOL0     C 4325  10.976   9.105   1.573  0.5524  0.7658 -0.5715
   33MOL0     C 4326  10.837   9.134   1.553  0.7507  0.7681 -0.7140
   33MOL0     C 4327  10.749   9.041   1.514  0.8307  0.0619 -0.5169
   33MOL0     O 4328  10.611   9.063   1.508 -0.0330 -0.5560  0.4018
   33MOL0     C 4329  10.567   9.192   1.460 -0.2749  0.4493  0.0007
   33MOL0     C 4330  10.429   9.178   1.400 -0.0950  0.0937 -1.0494
   33MOL0     C 4331  10.371   9.310   1.368  0.0472 -0.8304 -0.9172
   33MOL0     C 4332  10.252   9.284   1.267 -0.2900  0.2146 -1.0152
   33MOL0     C 4333  10.181   9.420   1.254  0.0679  0.4362  0.8112
   33MOL0     C 4334  10.073   9.399   1.135  1.0713 -0.1042  0.2009
   33MOL0     C 4335   9.976   9.517   1.112 -0.2328  0.1130  0.0907
   33MOL0     C 4336   9.878   9.540   1.220  0.8620  0.1745 -0.7162
   33MOL0     N 4337   9.787   9.419   1.241  0.5354  0.5375  0.1327
   33MOL0     C 4338   9.718   9.360   1.141 -1.1799 -0.4483  1.3000
   33MOL0     C 4339   9.663   9.256   1.201 -0.5885 -0.7629 -0.2895
   33MOL0     C 4340   9.607   9.140   1.127  0.9689  0.0265  0.6379
   33MOL0     C 4341   9.506   9.181   1.026 -0.6413  0.5100  0.8735
   33MOL0     C 4342   9.379   9.232   1.087  0.2443 -0.8303 -0.1078
   33MOL0     C 4343   9.280   9.310   0.985 -0.5776 -0.0215 -0.7519
   33MOL0     O 4344   9.151   9.335   1.040 -0.0673  0.2682 -0.1082
   33MOL0     C 4345   9.047   9.373   0.953 -0.5756  0.3477 -0.2562
   33MOL0     C 4346   9.071   9.398   0.814 -0.1955 -0.1379  0.3840
   33MOL0     C 4347   8.962   9.452   0.733  0.6446 -0.3181 -0.7704
   33MOL0     C 4348   8.993   9.483   0.594 -0.2391 -0.2976  0.7601
   33MOL0     C 4349   8.829   9.455   0.786  0.3376 -0.3520 -0.1768
   33MOL0     C 4350   8.712   9.494   0.702 -0.0829  0.0621 -0.8452
   33MOL0     O 4351   8.586   9.472   0.763 -0.3228 -0.2359 -0.3624
   33MOL0     C 4352   8.469   9.519   0.708 -0.1892 -0.2462 -1.1569
   33MOL0     C 4353   8.366   9.562   0.792 -0.5360 -0.3284  0.1716
   33MOL0     C 4354   8.237   9.590   0.744  0.1840 -0.3678  0.1968
   33MOL0     C 4355   8.219   9.598   0.594 -0.3404 -0.5365  0.4348
   33MOL0     O 4356   8.116   9.630   0.528  0.8632  0.4294  0.6325
   33MOL0     C 4357   7.993   9.618   0.606 -0.0877 -0.3430  0.2472
   33MOL0     C 4358   7.867   9.641   0.515  0.9234 -0.1754 -0.1007
   33MOL0     C 4359   7.837   9.522   0.416 -0.1468 -0.8112 -0.1052
   33MOL0     C 4360   7.693   9.524   0.373  0.1798 -0.3691  0.3706
   33MOL0     C 4361   7.675   9.424   0.260  0.0220  0.5327 -0.4467
   33MOL0     C 4362   7.530   9.398   0.205 -0.0780  0.4185 -0.0373
   33MOL0     C 4363   7.441   9.319   0.300  0.1523 -0.5848  0.6023
   33MOL0     C 4364   7.444   9.172   0.256  0.9527  0.0903  0.0169
   33MOL0    Cl 4365   7.349   9.128   0.113 -0.1671 -0.8339 -0.1589
   33MOL0     C 4366   8.330   9.567   0.508 -0.5773  0.3219 -1.3278
   33MOL0     C 4367   8.454   9.537   0.568  0.7374 -0.0039  0.6836
   33MOL0     O 4368   8.731   9.570   0.610  0.3235 -0.0486 -0.2294
   33MOL0     C 4369   8.811   9.423   0.919  0.6748 -0.2156 -0.2305
   33MOL0     C 4370   8.916   9.389   1.004  0.2867  0.0527  0.5388
   33MOL0     N 4371   9.698   9.254   1.329  0.7405  0.3771 -0.2675
   33MOL0     N 4372   9.763   9.355   1.359 -0.3813  0.5568  0.0776
   33MOL0     C 4373  10.814   8.924   1.461 -0.4461 -0.7089  0.4961
   33MOL0     C 4374  10.956   8.900   1.467 -0.2095  0.5624 -0.3065
   33MOL0     C 4375  11.392   8.902   1.539  0.4434 -0.9166  0.6156
   33MOL0     C 4376  11.412   8.884   1.678 -0.3814 -0.5036 -0.0392
   33MOL0     C 4377  11.538   8.876   1.733 -0.7948 -0.3625  0.0625
   33MOL0     C 4378  11.654   8.905   1.652  0.4830  0.9006 -0.4679
   33MOL0     O 4379  11.770   8.891   1.725  0.0096  0.2008  0.2482
   33MOL0     C 4380  11.838   8.763   1.715 -0.6348  0.5818 -1.1318
   33MOL0     C 4381  11.872   8.702   1.848  0.0240 -0.0197 -0.3051
   33MOL0     C 4382  11.951   8.567   1.835  0.0850 -0.6566  0.4159
   33MOL0     C 4383  11.959   8.485   1.967  0.1572  0.2903 -0.9660
   33MOL0     C 4384  12.031   8.542   2.080 -0.7252  0.1110 -0.2403
   33MOL0     C 4385  12.116   8.590   2.151 -0.3124 -0.7729 -0.0942
   33MOL0     C 4386  11.636   8.912   1.513 -0.3849  0.1891 -0.4000
   33MOL0     C 4387  11.506   8.912   1.458 -0.0574 -0.5890  0.0486
   33MOL0     H 4388  11.032   9.184   1.620 -1.2856  0.9610  1.4449
   33MOL0     H 4389  10.796   9.222   1.602  1.4322  0.0998  1.1521
   33MOL0     H 4390  10.557   9.254   1.549  3.7465 -0.6588  1.3995
   33MOL0     H 4391  10.643   9.249   1.406 -2.9002  1.8477 -2.5264
   33MOL0     H 4392  10.435   9.125   1.305  4.2602  0.6852 -1.2925
   33MOL0     H 4393  10.382   9.118   1.478  1.9740 -2.9264 -1.9447
   33MOL0     H 4394  10.330   9.354   1.459  0.6769  0.7599 -1.3738
   33MOL0     H 4395  10.440   9.382   1.323 -0.3107 -0.2504 -0.5574
   33MOL0     H 4396  10.289   9.255   1.169  1.6822  0.4837 -0.3894
   33MOL0     H 4397  10.180   9.212   1.308 -0.0243  1.7094  2.4020
   33MOL0     H 4398  10.129   9.438   1.348 -0.4859  1.8959  0.2682
   33MOL0     H 4399  10.238   9.510   1.226 -1.2266  0.4314 -2.3633
   33MOL0     H 4400  10.118   9.392   1.036 -0.3281 -1.8619 -0.3623
   33MOL0     H 4401  10.019   9.308   1.164  3.1254 -1.7960 -0.9431
   33MOL0     H 4402  10.034   9.609   1.100 -0.1898 -0.2165 -2.7082
   33MOL0     H 4403   9.926   9.510   1.015  0.8126  2.4194 -0.6878
   33MOL0     H 4404   9.824   9.632   1.195  0.4531 -0.0310 -0.5870
   33MOL0     H 4405   9.930   9.554   1.315  3.4229 -0.3648 -1.9546
   33MOL0     H 4406   9.713   9.376   1.033  2.8755  1.9632  1.2234
   33MOL0     H 4407   9.692   9.094   1.075  1.3148  2.6352 -1.2810
   33MOL0     H 4408   9.556   9.065   1.188  0.4570 -0.2448 -0.1089
   33MOL0     H 4409   9.489   9.095   0.960  0.5214  0.5554  0.4846
   33MOL0     H 4410   9.539   9.255   0.952  0.2273 -2.2323 -1.6720
   33MOL0     H 4411   9.391   9.284   1.183 -0.4291 -1.6683  0.4527
   33MOL0     H 4412   9.319   9.144   1.115  1.3040 -1.9302 -1.1584
   33MOL0     H 4413   9.262   9.240   0.902  0.2335 -3.7269  1.9256
   33MOL0     H 4414   9.330   9.398   0.944  1.5592 -1.4653 -1.4451
   33MOL0     H 4415   9.165   9.390   0.761 -0.2398 -1.7242  0.4958
   33MOL0     H 4416   8.916   9.436   0.533  0.8950  1.1003 -1.9177
   33MOL0     H 4417   8.990   9.589   0.568  2.5625 -0.8593 -2.5904
   33MOL0     H 4418   9.093   9.451   0.563 -0.7117 -0.2022 -0.9359
   33MOL0     H 4419   8.395   9.557   0.896  3.5935 -0.0638 -0.7883
   33MOL0     H 4420   8.156   9.618   0.811  1.3722  0.3043  1.4141
   33MOL0     H 4421   7.985   9.515   0.640  1.7689 -0.7771 -0.5421
   33MOL0     H 4422   7.986   9.696   0.682 -0.5046  2.9207 -2.8490
   33MOL0     H 4423   7.781   9.649   0.582  0.3988  1.6302 -0.9263
   33MOL0     H 4424   7.863   9.733   0.456 -0.8419 -0.1386  0.0137
   33MOL0     H 4425   7.840   9.423   0.461 -3.5624 -1.5709 -1.2071
   33MOL0     H 4426   7.911   9.532   0.336 -1.6453  0.5106 -1.3909
   33MOL0     H 4427   7.630   9.501   0.460  2.5788 -0.3156  2.2061
   33MOL0     H 4428   7.667   9.624   0.337 -0.0947  0.1604  1.9629
   33MOL0     H 4429   7.715   9.327   0.292  0.2324  1.2628  1.7168
   33MOL0     H 4430   7.742   9.467   0.185 -0.8021 -0.7890 -2.0036
   33MOL0     H 4431   7.488   9.495   0.176 -1.1441  0.0764  0.3150
   33MOL0     H 4432   7.552   9.346   0.111  1.4166  0.4739  0.2451
   33MOL0     H 4433   7.338   9.354   0.289 -0.0966 -0.0052  3.8403
   33MOL0     H 4434   7.476   9.334   0.402  1.3692  0.6124  0.0426
   33MOL0     H 4435   7.395   9.120   0.338 -0.7414  3.8605  1.6646
   33MOL0     H 4436   7.547   9.136   0.264  2.2363  2.9714 -1.7045
   33MOL0     H 4437   8.313   9.567   0.401  0.8144  0.9098 -1.5679
   33MOL0     H 4438   8.530   9.512   0.495 -0.3315 -0.7219 -0.2192
   33MOL0     H 4439   8.711   9.429   0.960 -0.1858  3.3390 -2.3886
   33MOL0     H 4440   8.896   9.368   1.109 -1.4185  0.4255  0.3152
   33MOL0     H 4441  10.746   8.847   1.429 -0.0453 -2.1610  2.9244
   33MOL0     H 4442  11.003   8.816   1.416  2.3164  1.5874  0.2219
   33MOL0     H 4443  11.332   8.868   1.749  0.4379  0.4482  1.1497
   33MOL0     H 4444  11.544   8.853   1.839  1.1387  0.0314  0.0846
   33MOL0     H 4445  11.771   8.691   1.666  0.6201 -0.1555 -1.8069
   33MOL0     H 4446  11.926   8.771   1.651  1.4395 -1.5608  1.2300
   33MOL0     H 4447  11.781   8.681   1.906  0.7271  0.3758  0.9626
   33MOL0     H 4448  11.938   8.762   1.910  2.3253 -2.5037 -0.1512
   33MOL0     H 4449  12.058   8.584   1.822 -0.1896  1.3003  0.3611
   33MOL0     H 4450  11.909   8.520   1.745 -2.8807  2.0109  0.1917
   33MOL0     H 4451  12.032   8.408   1.940  1.5437  0.9845  0.5564
   33MOL0     H 4452  11.862   8.446   1.998  1.3989 -0.4498  2.4641
   33MOL0     H 4453  12.183   8.649   2.211 -0.1967  0.5829 -1.4853
   33MOL0     H 4454  11.724   8.931   1.451  1.5436  0.7603  2.3246
   33MOL0     H 4455  11.506   8.917   1.350  1.9877  0.5139  0.0488
   34MOL0     O 4456  10.203   3.957   9.277  0.4628  0.7933  0.0724
   34MOL0     C 4457  10.132   3.916   9.180 -0.1068  0.0639 -0.3025
   34MOL0     O 4458  10.175   3.845   9.070 -0.0286  0.2143 -0.2354
   34MOL0     C 4459  10.298   3.800   9.046 -0.1912  0.1065  0.6022
   34MOL0     C 4460  10.314   3.688   8.961 -0.3045 -0.3679  0.3283
   34MOL0     C 4461  10.446   3.645   8.929  0.4425 -0.5587 -0.0140
   34MOL0     C 4462  10.554   3.704   8.986 -1.0360  0.8058  0.0076
   34MOL0     O 4463  10.690   3.661   8.960 -0.1777 -0.3581  0.3260
   34MOL0     C 4464  10.731   3.543   9.041 -0.0368 -0.0395 -0.8244
   34MOL0     C 4465  10.873   3.515   8.990  0.7843  0.6886 -0.2419
   34MOL0     C 4466  10.974   3.631   9.010 -0.3907  0.1735  0.7920
   34MOL0     C 4467  11.090   3.604   8.928 -0.5166  1.0739 -0.2318
   34MOL0     C 4468  11.194   3.711   8.951 -0.3484 -1.2078  0.0091
   34MOL0     C 4469  11.146   3.847   8.897 -0.0252  0.1176 -0.6258
   34MOL0     C 4470  11.266   3.941   8.884 -1.3192 -0.4190 -0.4712
   34MOL0     C 4471  11.234   4.067   8.797 -0.3981  0.9532  0.0702
   34MOL0     N 4472  11.347   4.163   8.788  0.2340  0.7063 -0.0574
   34MOL0     C 4473  11.410   4.197   8.669 -0.3571  0.8079  0.3420
   34MOL0     C 4474  11.523   4.269   8.707  0.1321 -0.4368 -0.6447
   34MOL0     C 4475  11.625   4.344   8.619  0.5154 -0.3477 -1.0433
   34MOL0     C 4476  11.609   4.314   8.466 -0.0744 -0.2270  0.7250
   34MOL0     C 4477  11.743   4.303   8.388 -1.1064 -0.9801  0.7771
   34MOL0     C 4478  11.723   4.338   8.241  0.9682  1.0807 -0.1148
   34MOL0     O 4479  11.657   4.226   8.173  0.4369 -0.2542  0.3071
   34MOL0     C 4480  11.734   4.118   8.132 -1.2493 -0.4827  0.6724
   34MOL0     C 4481  11.665   4.000   8.107 -0.2128  1.0846  0.1997
   34MOL0     C 4482  11.726   3.884   8.059  1.1215 -0.0586 -0.1843
   34MOL0     C 4483  11.628   3.763   8.031  0.2359 -0.4782  0.0114
   34MOL0     C 4484  11.863   3.872   8.048 -0.1663  0.6285  0.3297
   34MOL0     C 4485  11.939   3.751   8.033  0.7245 -0.3191  0.0915
   34MOL0     O 4486  12.062   3.764   7.968  0.7584  0.0131 -0.7865
   34MOL0     C 4487  12.136   3.653   7.961  0.0577  1.6955 -0.0517
   34MOL0     C 4488  12.175   3.583   8.066 -0.8977 -0.2348 -0.0593
   34MOL0     C 4489  12.266   3.480   8.047  0.1335 -0.2145 -0.7672
   34MOL0     C 4490  12.318   3.438   7.929 -1.1169 -0.4213 -0.6509
   34MOL0     O 4491  12.408   3.334   7.915 -0.2403 -0.9168  0.4146
   34MOL0     C 4492  12.495   3.300   8.030  0.1928  0.3254  0.3961
   34MOL0     C 4493  12.560   3.168   7.983  0.0054  0.1427 -0.4934
   34MOL0     C 4494  12.679   3.188   7.893 -0.5312 -0.5291  0.5194
   34MOL0     C 4495  12.724   3.062   7.829  0.2479 -0.4010  0.0773
   34MOL0     C 4496  12.779   3.077   7.683 -0.5377  0.7397 -0.2043
   34MOL0     C 4497  12.807   2.937   7.618 -0.2014  0.0972  0.4974
   34MOL0     C 4498  12.812   2.934   7.463  0.5336 -0.7445  0.2352
   34MOL0     C 4499  12.935   3.015   7.424 -0.4122  0.5464 -0.1554
   34MOL0    Cl 4500  13.092   2.913   7.440 -0.2454 -0.3635  0.2573
   34MOL0     C 4501  12.270   3.508   7.819  0.5404 -0.2734 -0.0383
   34MOL0     C 4502  12.177   3.615   7.835 -1.0474  0.4674 -0.2597
   34MOL0     O 4503  11.892   3.649   8.074 -0.2156 -0.0553  0.3909
   34MOL0     C 4504  11.934   3.991   8.069  0.3840 -0.4476 -0.5584
   34MOL0     C 4505  11.872   4.113   8.120 -0.1161 -0.4855  0.7714
   34MOL0     N 4506  11.530   4.274   8.848  0.6570  0.0003  0.0456
   34MOL0     N 4507  11.422   4.221   8.885  0.4073  0.1261  0.8461
   34MOL0     C 4508  10.543   3.809   9.071  0.3896 -0.6214 -0.2965
   34MOL0     C 4509  10.420   3.857   9.103  0.7312  0.1346 -0.2397
   34MOL0     C 4510   9.991   3.953   9.178 -0.0480 -0.3900  0.3894
   34MOL0     C 4511   9.959   4.073   9.241  0.7482 -0.2268  0.4444
   34MOL0     C 4512   9.833   4.122   9.224 -0.3213 -0.1891  0.0535
   34MOL0     C 4513   9.734   4.051   9.147  0.1873 -0.5144 -0.2811
   34MOL0     O 4514   9.603   4.084   9.133  0.2725 -0.0162  0.1163
   34MOL0     C 4515   9.558   4.196   9.202  0.3463  0.4837  0.4057
   34MOL0     C 4516   9.405   4.190   9.183  0.1209  0.4699  0.0884
   34MOL0     C 4517   9.368   4.200   9.039  1.0152 -0.7233 -0.8140
   34MOL0     C 4518   9.221   4.244   9.025  0.6450  0.2315  0.0390
   34MOL0     C 4519   9.130   4.124   9.037  0.2378 -0.1577 -1.0544
   34MOL0     C 4520   9.055   4.029   9.041  0.7975 -0.1394  0.1808
   34MOL0     C 4521   9.770   3.927   9.089  0.4559 -0.1314 -0.1123
   34MOL0     C 4522   9.893   3.876   9.111 -0.2025 -0.1389 -0.7291
   34MOL0     H 4523  10.230   3.643   8.910  0.7544 -0.3745 -1.4717
   34MOL0     H 4524  10.433   3.559   8.865 -3.1492 -1.2551  1.3813
   34MOL0     H 4525  10.734   3.570   9.147 -1.0907  3.1946 -1.5113
   34MOL0     H 4526  10.656   3.465   9.025 -1.5663  0.7687  1.8605
   34MOL0     H 4527  10.903   3.430   9.053  0.7705  1.4370  0.8091
   34MOL0     H 4528  10.874   3.482   8.886  0.1220  3.2487 -1.1128
   34MOL0     H 4529  10.934   3.729   8.981  0.3547  0.6583  1.3820
   34MOL0     H 4530  11.004   3.638   9.114  1.0914 -3.0056  0.6765
   34MOL0     H 4531  11.131   3.506   8.950 -0.6066  0.6828 -1.7324
   34MOL0     H 4532  11.063   3.611   8.822  4.1984  1.2294 -1.6405
   34MOL0     H 4533  11.227   3.732   9.053  1.1573  1.4519 -0.9038
   34MOL0     H 4534  11.286   3.680   8.900  0.5441 -0.5579  1.1766
   34MOL0     H 4535  11.107   3.822   8.798  2.2419 -1.6907 -1.1382
   34MOL0     H 4536  11.065   3.887   8.959 -0.8042  1.4525 -2.3896
   34MOL0     H 4537  11.302   3.961   8.985  3.0099 -1.5795 -1.5383
   34MOL0     H 4538  11.352   3.881   8.853  0.8797  1.4780  1.5684
   34MOL0     H 4539  11.142   4.109   8.839 -0.4627 -1.1739  2.3316
   34MOL0     H 4540  11.206   4.027   8.699 -1.0467 -2.3483  1.4613
   34MOL0     H 4541  11.387   4.166   8.568  1.5322 -1.0294  0.4002
   34MOL0     H 4542  11.597   4.448   8.638  2.0043 -0.5191  2.9787
   34MOL0     H 4543  11.723   4.321   8.660  0.0221 -2.6634 -0.9889
   34MOL0     H 4544  11.542   4.387   8.421 -1.2403 -1.1009  0.9959
   34MOL0     H 4545  11.550   4.222   8.460 -2.0805  1.1087 -2.0028
   34MOL0     H 4546  11.795   4.207   8.396  0.2123 -0.5525 -1.5201
   34MOL0     H 4547  11.807   4.384   8.425 -0.9738 -1.0524  0.7078
   34MOL0     H 4548  11.814   4.369   8.189  1.1707 -1.0999 -1.2074
   34MOL0     H 4549  11.645   4.413   8.239 -2.0900 -1.8415  0.5031
   34MOL0     H 4550  11.558   4.003   8.124 -0.7214  0.4385 -2.3650
   34MOL0     H 4551  11.648   3.723   7.931 -0.4394  2.3908 -1.3846
   34MOL0     H 4552  11.640   3.686   8.107  1.8832  1.7267  2.1183
   34MOL0     H 4553  11.522   3.791   8.024 -0.3141 -2.4660 -0.2676
   34MOL0     H 4554  12.151   3.611   8.168  2.7947 -2.6992  1.6927
   34MOL0     H 4555  12.294   3.433   8.140 -0.8522 -0.5513 -0.6331
   34MOL0     H 4556  12.576   3.373   8.041  4.6776 -4.0813  0.2070
   34MOL0     H 4557  12.436   3.279   8.119  0.9585 -1.0685  0.5980
   34MOL0     H 4558  12.595   3.125   8.077 -3.3219 -1.8564  0.0180
   34MOL0     H 4559  12.490   3.094   7.942 -0.6557  0.9582 -0.8819
   34MOL0     H 4560  12.756   3.253   7.935  1.1286 -2.3709  0.4790
   34MOL0     H 4561  12.631   3.243   7.812  0.8671 -0.2549 -0.1515
   34MOL0     H 4562  12.799   3.012   7.890 -1.4188 -0.9664  1.7467
   34MOL0     H 4563  12.638   2.997   7.809  0.1376 -0.5456  0.9808
   34MOL0     H 4564  12.869   3.140   7.680  0.9351 -1.0866  2.0786
   34MOL0     H 4565  12.704   3.131   7.624 -0.6551  0.1151 -0.6494
   34MOL0     H 4566  12.902   2.893   7.650 -0.3735 -0.2788  0.4930
   34MOL0     H 4567  12.733   2.864   7.653  0.9406 -1.6617 -0.5979
   34MOL0     H 4568  12.739   2.989   7.403  4.4969  0.5721 -3.9414
   34MOL0     H 4569  12.814   2.830   7.429 -2.1776 -0.2266 -1.8871
   34MOL0     H 4570  12.945   3.119   7.457 -0.1466  1.4383 -2.7501
   34MOL0     H 4571  12.940   3.028   7.315 -0.0905  0.0578 -0.2025
   34MOL0     H 4572  12.294   3.494   7.714  3.2213  0.0773  0.4427
   34MOL0     H 4573  12.156   3.666   7.742  1.3741  0.0896 -1.0668
   34MOL0     H 4574  12.042   3.992   8.077  0.4015  2.2669 -0.4649
   34MOL0     H 4575  11.932   4.194   8.160  2.0786 -1.5125 -0.2874
   34MOL0     H 4576  10.625   3.851   9.129 -0.7859  0.9928  0.2457
   34MOL0     H 4577  10.413   3.932   9.181 -1.4615 -0.8196  0.5519
   34MOL0     H 4578  10.021   4.126   9.312  2.4342  0.2954 -1.3333
   34MOL0     H 4579   9.814   4.217   9.272 -2.9559  0.0004 -1.2056
   34MOL0     H 4580   9.578   4.158   9.302  1.2118 -1.7829 -0.5559
   34MOL0     H 4581   9.613   4.288   9.180  2.4338 -0.1506  2.5232
   34MOL0     H 4582   9.367   4.272   9.244  2.1274  1.7507 -0.2628
   34MOL0     H 4583   9.367   4.093   9.217 -1.1506  1.5330  1.8610
   34MOL0     H 4584   9.377   4.106   8.985  0.2924 -1.4811  0.3453
   34MOL0     H 4585   9.443   4.264   8.992  1.7139 -0.3518  0.7296
   34MOL0     H 4586   9.202   4.272   8.921 -1.2387  1.0865  0.5760
   34MOL0     H 4587   9.175   4.319   9.090 -1.5210 -2.0210  1.2887
   34MOL0     H 4588   8.985   3.949   9.032 -0.4411  1.0617 -1.4583
   34MOL0     H 4589   9.696   3.862   9.041 -0.7590 -0.6744  2.3262
   34MOL0     H 4590   9.920   3.776   9.078  0.2009 -0.4676  0.5099
   35MOL0     O 4591   7.962   6.639  11.100 -0.6428 -0.4185  0.6411
   35MOL0     C 4592   7.887   6.565  11.170 -0.1492  0.2608  0.0673
   35MOL0     O 4593   7.904   6.438  11.193 -0.5102  0.3685 -0.3784
   35MOL0     C 4594   8.025   6.376  11.193 -0.8761 -0.6178 -0.1223
   35MOL0     C 4595   8.154   6.414  11.151  1.0901  0.3155  0.5441
   35MOL0     C 4596   8.263   6.334  11.172  0.6631  1.2005  0.2353
   35MOL0     C 4597   8.253   6.209  11.227 -0.0690 -0.0991  0.0742
   35MOL0     O 4598   8.366   6.117  11.228  0.2341  0.5286  0.3388
   35MOL0     C 4599   8.490   6.158  11.176 -0.6031  0.3681 -0.0133
   35MOL0     C 4600   8.593   6.038  11.193 -0.1732 -0.3914 -1.1697
   35MOL0     C 4601   8.733   6.096  11.160 -0.1285  0.0298  0.6790
   35MOL0     C 4602   8.840   5.989  11.178 -0.0762 -0.0141  0.2941
   35MOL0     C 4603   8.968   6.057  11.130  0.1355 -0.1211 -0.3019
   35MOL0     C 4604   9.043   6.143  11.230 -0.3084  0.2087  0.4908
   35MOL0     C 4605   9.141   6.238  11.164 -0.1361  1.2470 -0.3431
   35MOL0     C 4606   9.253   6.162  11.095  0.3771  0.7370  0.3493
   35MOL0     N 4607   9.336   6.090  11.187 -0.6315 -0.0786 -1.0247
   35MOL0     C 4608   9.449   6.137  11.254 -0.2203  0.1408 -0.6385
   35MOL0     C 4609   9.501   6.035  11.325  0.3027  0.0520  0.5942
   35MOL0     C 4610   9.598   6.044  11.439 -0.1534  0.0843  0.4369
   35MOL0     C 4611   9.521   6.072  11.567  0.0453 -0.3582 -0.0740
   35MOL0     C 4612   9.418   5.962  11.600 -0.5231  0.3736 -0.2509
   35MOL0     C 4613   9.334   5.987  11.720  0.4961  0.0727  0.1030
   35MOL0     O 4614   9.226   5.895  11.720 -0.4727 -0.8832  0.2983
   35MOL0     C 4615   9.140   5.887  11.827  0.3886 -0.0098 -0.2445
   35MOL0     C 4616   9.111   5.767  11.887  0.7385 -0.0220 -0.5776
   35MOL0     C 4617   9.029   5.756  12.004  0.2205 -1.0725  0.6444
   35MOL0     C 4618   9.000   5.616  12.061 -0.7989 -1.3629 -0.2933
   35MOL0     C 4619   8.961   5.876  12.051 -1.3877  0.4531  0.9603
   35MOL0     C 4620   8.866   5.882  12.161  0.1583 -1.4277 -0.3427
   35MOL0     O 4621   8.777   5.995  12.149  1.0766  0.1535  0.5891
   35MOL0     C 4622   8.671   6.027  12.233 -0.2571  0.5645 -1.3385
   35MOL0     C 4623   8.629   5.949  12.346 -0.1011  0.7298  0.0045
   35MOL0     C 4624   8.549   6.011  12.438  0.4320 -0.0582 -0.3112
   35MOL0     C 4625   8.508   6.141  12.428  0.4430 -0.2503  0.7026
   35MOL0     O 4626   8.427   6.201  12.514  0.1760  0.1027 -0.1582
   35MOL0     C 4627   8.475   6.318  12.577  0.2695  0.5971  0.8578
   35MOL0     C 4628   8.393   6.354  12.690 -0.8225 -0.0299 -0.2758
   35MOL0     C 4629   8.462   6.451  12.782  0.1962  0.7800 -0.0525
   35MOL0     C 4630   8.392   6.492  12.910  0.3652  0.5616  0.8137
   35MOL0     C 4631   8.473   6.597  12.998 -1.0333  0.3351  0.6788
   35MOL0     C 4632   8.389   6.646  13.112 -0.7639 -0.0104  0.0526
   35MOL0     C 4633   8.474   6.702  13.229  0.9085  0.1536  0.9135
   35MOL0     C 4634   8.402   6.799  13.318 -0.3732 -1.0974  0.6303
   35MOL0    Cl 4635   8.379   6.957  13.232  0.1255  0.0978  0.1104
   35MOL0     C 4636   8.546   6.221  12.319  0.1478 -0.3584 -0.3917
   35MOL0     C 4637   8.629   6.160  12.221 -0.2658  0.5836  0.4792
   35MOL0     O 4638   8.870   5.806  12.255 -0.7504 -0.2963 -0.1387
   35MOL0     C 4639   8.986   5.997  11.979  0.1300 -0.3405 -0.6249
   35MOL0     C 4640   9.077   6.004  11.873 -0.2819  0.0514 -0.2768
   35MOL0     N 4641   9.421   5.924  11.295 -0.5310 -0.1331 -0.4979
   35MOL0     N 4642   9.324   5.959  11.223  0.1853 -0.0012 -0.9822
   35MOL0     C 4643   8.126   6.166  11.277 -1.0455 -0.1350  0.1798
   35MOL0     C 4644   8.011   6.250  11.253 -0.3206  0.6521  0.8515
   35MOL0     C 4645   7.768   6.630  11.226 -0.0386 -0.0827 -0.4537
   35MOL0     C 4646   7.639   6.582  11.216 -0.4283 -1.0476  0.7072
   35MOL0     C 4647   7.528   6.635  11.288 -1.1296  0.2915  0.3160
   35MOL0     C 4648   7.561   6.745  11.372  0.3618 -1.1290 -0.4469
   35MOL0     O 4649   7.474   6.810  11.449 -0.2603 -0.5383  0.5215
   35MOL0     C 4650   7.332   6.813  11.429 -0.5181  1.1242  0.2647
   35MOL0     C 4651   7.273   6.954  11.419 -0.2632 -0.4661 -0.9564
   35MOL0     C 4652   7.288   7.025  11.279  0.6221 -0.0958 -0.1442
   35MOL0     C 4653   7.233   7.160  11.268  0.3503 -0.4075 -0.7053
   35MOL0     C 4654   7.239   7.204  11.132 -0.2687 -0.1342 -0.1624
   35MOL0     C 4655   7.238   7.224  11.012 -0.4889  0.7890  0.2213
   35MOL0     C 4656   7.693   6.789  11.383  0.2427 -1.2850  0.7676
   35MOL0     C 4657   7.794   6.731  11.313  0.5319 -0.1386 -0.7107
   35MOL0     H 4658   8.166   6.515  11.113  0.7985  0.5128  0.9680
   35MOL0     H 4659   8.362   6.369  11.147  0.4090  1.0223 -1.1175
   35MOL0     H 4660   8.472   6.182  11.071 -2.1996  0.4235  0.2390
   35MOL0     H 4661   8.508   6.255  11.224 -0.3555  0.2647  0.1022
   35MOL0     H 4662   8.600   6.007  11.297 -0.0866  0.4181 -0.9263
   35MOL0     H 4663   8.587   5.957  11.120  1.0563 -3.0005  1.4536
   35MOL0     H 4664   8.720   6.125  11.055  1.4508  0.6168  0.6068
   35MOL0     H 4665   8.751   6.180  11.228 -1.7238  0.9913 -0.0271
   35MOL0     H 4666   8.847   5.945  11.278  3.5806  2.7272  1.4978
   35MOL0     H 4667   8.832   5.904  11.111 -0.6233  0.5689 -0.3989
   35MOL0     H 4668   9.034   5.977  11.096 -0.9204 -0.2737 -2.1172
   35MOL0     H 4669   8.948   6.122  11.044  2.2559  0.8824 -0.1095
   35MOL0     H 4670   8.976   6.212  11.282  0.8106  2.3386 -0.7472
   35MOL0     H 4671   9.091   6.076  11.302  4.6862 -0.7573 -3.1542
   35MOL0     H 4672   9.109   6.306  11.085  0.2875  0.2111 -1.4363
   35MOL0     H 4673   9.182   6.303  11.241  0.1701 -0.3520  0.9028
   35MOL0     H 4674   9.314   6.236  11.042 -1.2548 -0.5607 -3.8262
   35MOL0     H 4675   9.219   6.087  11.022 -1.0195  2.2827 -0.6682
   35MOL0     H 4676   9.492   6.236  11.257  1.9219 -0.5198 -3.7211
   35MOL0     H 4677   9.655   5.950  11.440  0.6396  0.4926 -1.1790
   35MOL0     H 4678   9.668   6.127  11.426 -1.9482  1.2311 -3.9866
   35MOL0     H 4679   9.474   6.170  11.557 -1.7016 -1.1523 -0.0372
   35MOL0     H 4680   9.596   6.088  11.645 -2.1704 -0.9341  2.3185
   35MOL0     H 4681   9.461   5.865  11.628  0.4134  0.1392 -2.3514
   35MOL0     H 4682   9.341   5.957  11.522 -0.6036  0.6482 -0.1904
   35MOL0     H 4683   9.297   6.089  11.703 -1.4461 -0.8594 -1.7667
   35MOL0     H 4684   9.397   5.977  11.809 -0.8657 -0.9567  0.9917
   35MOL0     H 4685   9.149   5.675  11.844 -2.0448 -0.7708 -1.6590
   35MOL0     H 4686   8.927   5.616  12.143 -2.1351 -0.1701 -1.4255
   35MOL0     H 4687   8.945   5.569  11.979 -4.4992  0.6193  0.8070
   35MOL0     H 4688   9.093   5.567  12.091  0.9815  1.5267 -0.6905
   35MOL0     H 4689   8.661   5.849  12.371 -2.5588 -0.0033  0.5577
   35MOL0     H 4690   8.521   5.953  12.525  0.5314  1.0341  0.4544
   35MOL0     H 4691   8.570   6.278  12.614 -0.6518 -1.1772  1.4574
   35MOL0     H 4692   8.482   6.409  12.518 -4.0278  1.6398  1.5954
   35MOL0     H 4693   8.307   6.401  12.643 -1.5245 -2.0492 -1.1115
   35MOL0     H 4694   8.366   6.266  12.750  1.6110 -0.1961  0.6790
   35MOL0     H 4695   8.485   6.535  12.716 -1.5146 -0.3759 -2.2436
   35MOL0     H 4696   8.553   6.401  12.817 -1.4405 -1.2529  1.5614
   35MOL0     H 4697   8.303   6.547  12.878  0.9038  1.5200  0.9161
   35MOL0     H 4698   8.357   6.406  12.968  0.4898 -1.4109 -1.8895
   35MOL0     H 4699   8.501   6.682  12.935  0.5251 -1.0297 -0.5824
   35MOL0     H 4700   8.562   6.541  13.029 -1.0088  0.1031  0.2127
   35MOL0     H 4701   8.313   6.718  13.079  1.0172  3.3292  2.4875
   35MOL0     H 4702   8.338   6.555  13.145  0.2034 -0.2734  0.8572
   35MOL0     H 4703   8.560   6.756  13.189  0.0709  0.3330 -0.6863
   35MOL0     H 4704   8.507   6.613  13.284 -2.0189 -0.9593  1.0671
   35MOL0     H 4705   8.455   6.825  13.410  0.3219  0.7252 -0.2250
   35MOL0     H 4706   8.301   6.765  13.342 -2.1978  4.1680  1.6532
   35MOL0     H 4707   8.498   6.315  12.297  0.9098  0.2281  0.3955
   35MOL0     H 4708   8.648   6.229  12.140  1.4362 -0.1138  0.2480
   35MOL0     H 4709   8.937   6.090  12.004  0.7883 -0.3460  0.7937
   35MOL0     H 4710   9.080   6.103  11.829 -0.7758  1.3160  2.3095
   35MOL0     H 4711   8.121   6.064  11.313 -1.4643 -1.0634 -2.2900
   35MOL0     H 4712   7.917   6.215  11.293 -0.8621 -0.7406 -1.5146
   35MOL0     H 4713   7.615   6.502  11.146  3.2278 -0.9766 -0.8497
   35MOL0     H 4714   7.429   6.591  11.284 -2.6123  3.0502  2.7636
   35MOL0     H 4715   7.297   6.759  11.341 -0.6316  0.0290  0.9648
   35MOL0     H 4716   7.281   6.753  11.506 -2.1505 -1.7686 -2.8105
   35MOL0     H 4717   7.305   7.018  11.502  0.3163  0.2957 -1.7521
   35MOL0     H 4718   7.170   6.920  11.436  0.5424 -2.6411  0.0362
   35MOL0     H 4719   7.226   6.967  11.211 -0.8204 -1.9918  2.6362
   35MOL0     H 4720   7.394   7.032  11.251  0.4202  2.9552 -0.5097
   35MOL0     H 4721   7.287   7.234  11.329  2.2765 -1.1340 -1.4517
   35MOL0     H 4722   7.128   7.154  11.298  0.2975 -1.0369 -1.0097
   35MOL0     H 4723   7.266   7.240  10.909 -0.3287  3.6766  0.6363
   35MOL0     H 4724   7.718   6.874  11.446 -0.9609  0.7394 -1.3558
   35MOL0     H 4725   7.891   6.777  11.329 -0.6088  1.0004  4.8684
   36MOL0     O 4726   8.883   7.003  10.940  0.1505  0.5878 -0.4232
   36MOL0     C 4727   8.910   6.906  11.014 -0.0078  0.3115 -0.1332
   36MOL0     O 4728   8.863   6.877  11.137  0.4197 -0.0606  0.0888
   36MOL0     C 4729   8.791   6.975  11.200  0.2116  0.0949  0.0886
   36MOL0     C 4730   8.657   6.953  11.214  0.2502  0.2773 -0.1506
   36MOL0     C 4731   8.576   7.030  11.290  0.4016 -0.2362 -0.7943
   36MOL0     C 4732   8.627   7.142  11.366  0.2316 -0.0896  0.6074
   36MOL0     O 4733   8.550   7.232  11.445  0.1900 -0.1383 -0.6614
   36MOL0     C 4734   8.410   7.243  11.417  0.2677  0.1232 -0.6971
   36MOL0     C 4735   8.374   7.385  11.457  0.2494  0.7605 -0.0837
   36MOL0     C 4736   8.363   7.394  11.606 -0.0285 -0.4014  0.0421
   36MOL0     C 4737   8.281   7.508  11.650 -0.5616 -0.0307  1.3498
   36MOL0     C 4738   8.294   7.546  11.798  0.4695 -0.9351  0.6578
   36MOL0     C 4739   8.201   7.667  11.840  0.1468 -0.4194 -0.3822
   36MOL0     C 4740   8.055   7.631  11.892  0.2617 -0.7503  0.3377
   36MOL0     C 4741   7.965   7.543  11.804  0.3045 -0.3962 -0.5306
   36MOL0     N 4742   7.846   7.502  11.886 -0.0331 -0.9803 -0.1648
   36MOL0     C 4743   7.721   7.528  11.856  0.9150  0.2478  0.8772
   36MOL0     C 4744   7.640   7.473  11.955  0.1371  0.9212  0.3113
   36MOL0     C 4745   7.491   7.461  11.958 -0.1721  0.9604  0.2495
   36MOL0     C 4746   7.422   7.517  12.082 -0.3248  0.5952  0.3053
   36MOL0     C 4747   7.277   7.503  12.038 -0.4432  0.2225 -1.1682
   36MOL0     C 4748   7.174   7.538  12.150  0.5346 -0.9292  0.5466
   36MOL0     O 4749   7.036   7.506  12.129  0.2186 -0.6643 -0.0527
   36MOL0     C 4750   6.955   7.479  12.233 -1.0312 -0.5237 -0.4234
   36MOL0     C 4751   6.984   7.491  12.374 -0.5931  0.2737  0.3544
   36MOL0     C 4752   6.885   7.452  12.470  0.3943  0.9362  0.9102
   36MOL0     C 4753   6.911   7.491  12.614  0.1586 -0.0313 -0.0652
   36MOL0     C 4754   6.757   7.403  12.437  0.6571  0.0513 -0.4918
   36MOL0     C 4755   6.659   7.344  12.533  0.7179 -0.1032 -0.5176
   36MOL0     O 4756   6.695   7.307  12.656 -0.1398  0.1772  0.6918
   36MOL0     C 4757   6.618   7.220  12.730  0.1555 -0.2863  0.5938
   36MOL0     C 4758   6.620   7.078  12.701  0.3241 -0.0821 -0.2894
   36MOL0     C 4759   6.556   6.991  12.796 -0.0601 -0.5588 -0.6208
   36MOL0     C 4760   6.461   7.047  12.890  0.5659  0.5351 -0.4615
   36MOL0     O 4761   6.388   6.954  12.962 -0.7089 -1.0530 -0.3866
   36MOL0     C 4762   6.248   6.954  12.935 -0.3258 -0.5451  0.1574
   36MOL0     C 4763   6.182   6.889  13.051  0.3455  1.0327 -0.0211
   36MOL0     C 4764   6.037   6.843  13.009  0.1758  0.4028  0.9735
   36MOL0     C 4765   5.962   6.816  13.141  0.8462 -0.4603  0.2093
   36MOL0     C 4766   5.819   6.776  13.131  0.1633 -0.4783 -0.2832
   36MOL0     C 4767   5.726   6.891  13.166  0.0128  0.4256 -0.1680
   36MOL0     C 4768   5.580   6.848  13.181 -0.2872 -0.0751 -0.8826
   36MOL0     C 4769   5.479   6.959  13.234 -0.4647  0.5885 -0.7629
   36MOL0    Cl 4770   5.436   7.078  13.105  0.0331  0.0324  0.5962
   36MOL0     C 4771   6.458   7.186  12.910  1.2793 -0.5409  0.3497
   36MOL0     C 4772   6.537   7.273  12.832 -0.5130 -0.3368 -0.3977
   36MOL0     O 4773   6.550   7.329  12.481  0.1275 -0.4346 -0.1061
   36MOL0     C 4774   6.734   7.402  12.296  0.8548 -1.3638 -0.1598
   36MOL0     C 4775   6.831   7.436  12.193  0.0762  0.9292  0.8223
   36MOL0     N 4776   7.726   7.429  12.053 -0.1985 -0.1380  0.4135
   36MOL0     N 4777   7.845   7.448  12.007  0.0389 -0.1035 -0.2751
   36MOL0     C 4778   8.763   7.158  11.359 -0.6825 -0.6836 -0.5263
   36MOL0     C 4779   8.849   7.082  11.274 -0.0222  0.6481  0.5696
   36MOL0     C 4780   9.001   6.800  10.961  0.0133 -0.8996 -0.7202
   36MOL0     C 4781   9.107   6.845  10.882  0.5283 -0.5723  0.7738
   36MOL0     C 4782   9.208   6.761  10.827  0.6600  1.0094 -0.0788
   36MOL0     C 4783   9.191   6.621  10.843 -0.2805  0.5470 -0.4570
   36MOL0     O 4784   9.244   6.536  10.757 -0.1891  0.6074 -0.7441
   36MOL0     C 4785   9.393   6.527  10.753  0.7476 -0.6212 -0.1782
   36MOL0     C 4786   9.460   6.448  10.865  0.5421 -0.0494 -0.6932
   36MOL0     C 4787   9.427   6.505  11.003  0.7454  0.7621 -0.1702
   36MOL0     C 4788   9.543   6.475  11.102 -0.6170 -0.3017  0.5728
   36MOL0     C 4789   9.665   6.551  11.072 -0.6353  0.1753 -0.1497
   36MOL0     C 4790   9.758   6.630  11.045 -0.3938  0.8360 -0.9967
   36MOL0     C 4791   9.082   6.570  10.919 -0.2112  0.7625 -0.2762
   36MOL0     C 4792   8.995   6.661  10.978 -1.2343 -0.3884  0.1498
   36MOL0     H 4793   8.602   6.865  11.181 -0.4590  1.0862 -1.1915
   36MOL0     H 4794   8.469   7.015  11.295 -0.1761  3.3925  1.8980
   36MOL0     H 4795   8.387   7.244  11.310 -1.6835  1.9181 -0.3374
   36MOL0     H 4796   8.353   7.171  11.476 -1.2116  0.1072 -2.0835
   36MOL0     H 4797   8.444   7.455  11.409 -2.0374  2.6361 -0.8777
   36MOL0     H 4798   8.276   7.406  11.414 -2.1522 -3.6829  2.5000
   36MOL0     H 4799   8.307   7.309  11.646 -3.5246  1.0854 -1.3198
   36MOL0     H 4800   8.464   7.406  11.646 -0.5307  1.1439  0.9529
   36MOL0     H 4801   8.327   7.595  11.603  0.2094 -0.1424  1.8747
   36MOL0     H 4802   8.185   7.480  11.607  1.2965 -1.6363 -2.1289
   36MOL0     H 4803   8.267   7.459  11.859 -1.0450 -1.6926 -0.9793
   36MOL0     H 4804   8.396   7.573  11.826  0.7290  0.7055 -1.5722
   36MOL0     H 4805   8.257   7.724  11.914  3.5964 -1.5925 -1.8497
   36MOL0     H 4806   8.199   7.719  11.744  1.0194  0.8896  0.2794
   36MOL0     H 4807   8.074   7.576  11.985 -1.2445 -0.3826  0.9024
   36MOL0     H 4808   7.994   7.719  11.915  0.6769 -1.4039  5.0985
   36MOL0     H 4809   8.008   7.444  11.787 -1.2394 -1.4181  1.1853
   36MOL0     H 4810   7.949   7.583  11.703  1.9237  1.7720 -0.0043
   36MOL0     H 4811   7.685   7.567  11.762  1.0468 -3.5633 -0.9570
   36MOL0     H 4812   7.455   7.525  11.877 -2.0266  1.5577  1.4863
   36MOL0     H 4813   7.464   7.357  11.939  0.5618  0.9115 -0.6036
   36MOL0     H 4814   7.455   7.617  12.112  0.6992 -0.8151  4.6145
   36MOL0     H 4815   7.451   7.462  12.172  0.7933  2.0728  0.9000
   36MOL0     H 4816   7.266   7.398  12.011  4.8216 -0.7754 -0.4411
   36MOL0     H 4817   7.255   7.570  11.954 -0.5757 -1.9586 -2.9423
   36MOL0     H 4818   7.180   7.645  12.171 -0.2073 -0.5031 -1.1755
   36MOL0     H 4819   7.210   7.486  12.239  1.8779  1.1886  1.3110
   36MOL0     H 4820   7.086   7.522  12.396  1.1772 -1.3960 -4.1951
   36MOL0     H 4821   6.823   7.532  12.663 -2.4144 -4.4736 -0.3730
   36MOL0     H 4822   6.946   7.404  12.670  2.3710 -1.4496 -3.3169
   36MOL0     H 4823   6.978   7.576  12.623  0.6454  0.1729 -3.8328
   36MOL0     H 4824   6.688   7.043  12.624  1.2335  0.4370  0.2561
   36MOL0     H 4825   6.554   6.887  12.767 -0.7496 -0.7709  0.1434
   36MOL0     H 4826   6.210   7.048  12.895  1.9279  0.0282 -0.7955
   36MOL0     H 4827   6.251   6.884  12.851 -2.7776  0.3071 -0.7332
   36MOL0     H 4828   6.244   6.809  13.093 -0.8864 -0.7206 -1.3789
   36MOL0     H 4829   6.173   6.964  13.130  0.0123  0.6116  0.3499
   36MOL0     H 4830   6.043   6.754  12.946  4.7908  0.3228  1.1793
   36MOL0     H 4831   5.987   6.917  12.946  0.0969  0.9427  1.6558
   36MOL0     H 4832   6.011   6.730  13.188  0.2602 -1.0948 -0.3197
   36MOL0     H 4833   5.970   6.902  13.208 -2.4414  1.0092 -1.1166
   36MOL0     H 4834   5.803   6.690  13.197 -0.4423  0.7184  1.1799
   36MOL0     H 4835   5.791   6.746  13.030  1.9239  0.8179 -1.2113
   36MOL0     H 4836   5.752   6.945  13.258 -2.7904 -0.7806  1.4841
   36MOL0     H 4837   5.732   6.975  13.096  3.3382  2.0532  1.8176
   36MOL0     H 4838   5.588   6.759  13.245 -0.0776 -0.8736 -1.9846
   36MOL0     H 4839   5.541   6.818  13.083  2.6137 -0.9476 -1.8772
   36MOL0     H 4840   5.522   7.005  13.324 -2.2089 -0.1555  0.5084
   36MOL0     H 4841   5.392   6.902  13.267 -1.8302  0.4708 -4.2036
   36MOL0     H 4842   6.391   7.227  12.985  0.5227  1.3932 -1.2879
   36MOL0     H 4843   6.522   7.380  12.844 -1.2736 -0.3053 -1.5482
   36MOL0     H 4844   6.638   7.368  12.260 -1.2056  2.1085  1.5523
   36MOL0     H 4845   6.809   7.445  12.087 -0.0269  0.0726  0.7599
   36MOL0     H 4846   8.805   7.233  11.425 -2.0011 -0.1093 -0.3013
   36MOL0     H 4847   8.953   7.111  11.262  0.2126  0.5230  2.1450
   36MOL0     H 4848   9.116   6.951  10.860  2.0312 -0.5449  1.4008
   36MOL0     H 4849   9.286   6.812  10.771  0.5420  1.7085  0.3740
   36MOL0     H 4850   9.402   6.476  10.656 -2.8890  0.6283 -1.3288
   36MOL0     H 4851   9.438   6.626  10.754 -1.2488  0.3351  1.3790
   36MOL0     H 4852   9.568   6.451  10.851  0.3633  2.4243 -2.1122
   36MOL0     H 4853   9.429   6.344  10.853 -2.2387  0.6837 -0.6070
   36MOL0     H 4854   9.327   6.473  11.033  0.7277  0.4377 -0.5735
   36MOL0     H 4855   9.419   6.614  10.995  1.7655  0.7113 -2.6588
   36MOL0     H 4856   9.579   6.374  11.126  0.1842 -0.0727  0.3946
   36MOL0     H 4857   9.493   6.506  11.193 -1.9742  1.1735 -0.6228
   36MOL0     H 4858   9.840   6.696  11.029 -1.2556  2.9926  2.4929
   36MOL0     H 4859   9.056   6.466  10.903 -2.4374  1.7676 -5.3017
   36MOL0     H 4860   8.914   6.617  11.036 -4.1314  0.9275 -2.5937
   37MOL0     O 4861   2.289   6.425   7.404  0.2238  0.0636 -0.0125
   37MOL0     C 4862   2.293   6.546   7.384  0.3422  0.9549  0.0385
   37MOL0     O 4863   2.355   6.606   7.275 -0.6271 -0.5209 -0.1001
   37MOL0     C 4864   2.414   6.527   7.182  0.5607  0.2728  0.3049
   37MOL0     C 4865   2.368   6.535   7.049  0.3120  0.2191  0.5258
   37MOL0     C 4866   2.443   6.483   6.941 -0.1926  0.7718 -0.2259
   37MOL0     C 4867   2.556   6.406   6.968  0.1281  0.9137 -0.0719
   37MOL0     O 4868   2.633   6.356   6.861 -0.8383 -0.6185 -0.5556
   37MOL0     C 4869   2.711   6.234   6.882  0.3796  0.2571  0.1589
   37MOL0     C 4870   2.749   6.177   6.746  0.5199  0.7042  1.7112
   37MOL0     C 4871   2.645   6.176   6.639 -0.0185  0.8346 -0.5315
   37MOL0     C 4872   2.520   6.091   6.670 -0.4182 -0.2500 -1.1781
   37MOL0     C 4873   2.546   5.939   6.699 -0.0274  0.2387 -0.2322
   37MOL0     C 4874   2.425   5.844   6.703  0.1828  0.3708  0.3524
   37MOL0     C 4875   2.464   5.701   6.681 -0.0489  0.3587 -0.0469
   37MOL0     C 4876   2.571   5.665   6.790  0.9920  0.0798 -0.6419
   37MOL0     N 4877   2.576   5.520   6.782  0.9277  0.2332 -1.1876
   37MOL0     C 4878   2.668   5.464   6.702  0.1053 -0.3304  0.3256
   37MOL0     C 4879   2.625   5.332   6.690  0.4993 -1.0942 -0.7075
   37MOL0     C 4880   2.690   5.221   6.604  1.1050  0.2067  0.7742
   37MOL0     C 4881   2.767   5.133   6.703 -0.7625  0.0109  0.5028
   37MOL0     C 4882   2.822   5.011   6.627 -0.9091  0.1471  0.4312
   37MOL0     C 4883   2.870   4.903   6.720 -0.1868  0.5033 -0.5824
   37MOL0     O 4884   2.951   4.815   6.649 -0.4096 -0.4170  0.7486
   37MOL0     C 4885   2.904   4.743   6.548 -0.8310 -0.9737 -0.3611
   37MOL0     C 4886   2.823   4.633   6.584  0.8107  0.2914  0.0272
   37MOL0     C 4887   2.755   4.553   6.491 -0.3230  0.9800 -0.2589
   37MOL0     C 4888   2.670   4.455   6.548  0.0363  0.6064  1.0938
   37MOL0     C 4889   2.775   4.589   6.359 -0.2528 -0.0028  0.9519
   37MOL0     C 4890   2.725   4.505   6.250 -0.1287  0.5329 -0.0496
   37MOL0     O 4891   2.727   4.363   6.273  0.3716  0.2996  0.3674
   37MOL0     C 4892   2.707   4.268   6.180  0.0973 -0.8631  0.8647
   37MOL0     C 4893   2.655   4.145   6.205 -0.7924 -1.0337  0.0392
   37MOL0     C 4894   2.615   4.052   6.105 -0.0430  0.3625 -0.7450
   37MOL0     C 4895   2.641   4.080   5.974  0.2506  0.4152  0.3564
   37MOL0     O 4896   2.605   3.996   5.871 -1.0720  0.2233  0.1437
   37MOL0     C 4897   2.537   3.873   5.893 -0.0710 -1.2189 -0.1949
   37MOL0     C 4898   2.487   3.814   5.760 -0.0860  0.0800  0.1989
   37MOL0     C 4899   2.509   3.665   5.750 -0.2314 -0.0103 -0.7262
   37MOL0     C 4900   2.545   3.626   5.606  0.6300  0.4452 -0.9011
   37MOL0     C 4901   2.563   3.473   5.603  0.8800 -0.1918  0.0125
   37MOL0     C 4902   2.535   3.417   5.459 -0.3297  0.4959  0.1462
   37MOL0     C 4903   2.632   3.486   5.364  0.3738 -0.4878  1.1839
   37MOL0     C 4904   2.596   3.458   5.222 -0.7180 -0.2128  0.2599
   37MOL0    Cl 4905   2.717   3.523   5.112 -0.3546  0.2020  0.3241
   37MOL0     C 4906   2.692   4.203   5.941 -0.1596 -0.1117 -0.3503
   37MOL0     C 4907   2.721   4.300   6.042  0.0055  0.6984  1.0077
   37MOL0     O 4908   2.678   4.560   6.150 -0.3792 -0.1840  0.0000
   37MOL0     C 4909   2.861   4.694   6.321 -0.3021 -0.4803  1.8006
   37MOL0     C 4910   2.920   4.778   6.416 -0.2955  0.5583 -0.1743
   37MOL0     N 4911   2.512   5.318   6.769 -0.8360  0.0883  0.5839
   37MOL0     N 4912   2.483   5.423   6.830 -0.4336 -0.0793  0.0518
   37MOL0     C 4913   2.599   6.391   7.100 -0.3759  0.4960  0.7365
   37MOL0     C 4914   2.531   6.450   7.202 -0.4383 -0.2282 -0.4973
   37MOL0     C 4915   2.203   6.628   7.470 -0.1511 -0.1971 -0.4736
   37MOL0     C 4916   2.128   6.576   7.580 -0.2797 -0.0549 -0.1770
   37MOL0     C 4917   2.026   6.664   7.639  0.6522 -0.6538  0.3276
   37MOL0     C 4918   2.010   6.799   7.601 -0.3317  0.0596  0.2384
   37MOL0     O 4919   1.898   6.868   7.648 -0.4833  0.4939  0.1591
   37MOL0     C 4920   1.915   7.003   7.691 -0.2082 -0.2011  0.1152
   37MOL0     C 4921   1.819   7.108   7.644  0.0760 -0.1832  0.6092
   37MOL0     C 4922   1.669   7.079   7.646 -0.1231  0.9164 -0.3659
   37MOL0     C 4923   1.598   7.135   7.770 -0.3095  0.3344 -0.1151
   37MOL0     C 4924   1.668   7.118   7.891 -0.4880 -0.0386  0.1554
   37MOL0     C 4925   1.730   7.114   7.996 -0.0116  0.7809  0.4162
   37MOL0     C 4926   2.095   6.846   7.503  1.0155  0.2191  0.2986
   37MOL0     C 4927   2.177   6.760   7.433 -0.2764 -0.3731  0.6972
   37MOL0     H 4928   2.282   6.601   7.038  0.2107  0.1992  1.2068
   37MOL0     H 4929   2.406   6.507   6.842 -2.4524  2.5984  0.9771
   37MOL0     H 4930   2.802   6.277   6.924 -1.0944  2.8763  0.8639
   37MOL0     H 4931   2.663   6.156   6.943 -0.8405 -0.3393 -1.4991
   37MOL0     H 4932   2.828   6.239   6.702 -0.0289 -0.6461 -1.4031
   37MOL0     H 4933   2.798   6.080   6.759  0.3420  0.7431  2.7726
   37MOL0     H 4934   2.611   6.278   6.618 -0.3100  0.8148 -0.1818
   37MOL0     H 4935   2.692   6.125   6.555 -3.5362  1.3159 -3.0302
   37MOL0     H 4936   2.456   6.120   6.754 -1.7604 -2.2627 -1.4131
   37MOL0     H 4937   2.462   6.111   6.580 -0.1377 -3.2388 -2.1309
   37MOL0     H 4938   2.607   5.913   6.612 -0.9084 -0.0866 -0.7760
   37MOL0     H 4939   2.604   5.929   6.791 -1.5168 -0.6423  0.6594
   37MOL0     H 4940   2.379   5.839   6.802 -0.2723  2.1971  0.2694
   37MOL0     H 4941   2.344   5.872   6.635 -1.7187  0.0933  2.3907
   37MOL0     H 4942   2.373   5.641   6.689  0.3115 -0.1529  0.3298
   37MOL0     H 4943   2.504   5.693   6.580 -0.9253 -1.7848 -0.2859
   37MOL0     H 4944   2.536   5.707   6.885  0.4492 -0.3945 -0.6272
   37MOL0     H 4945   2.669   5.703   6.759 -0.2520  0.6889 -4.2759
   37MOL0     H 4946   2.748   5.521   6.656 -1.4435  1.6836 -0.0372
   37MOL0     H 4947   2.620   5.159   6.547 -0.1764 -0.4186  2.9228
   37MOL0     H 4948   2.762   5.263   6.534  0.2222 -1.4696 -1.2683
   37MOL0     H 4949   2.701   5.094   6.781  0.7344 -4.0368  0.0150
   37MOL0     H 4950   2.846   5.196   6.746 -0.4670 -0.8011  1.1706
   37MOL0     H 4951   2.905   5.050   6.568 -2.0834  0.1556 -1.3099
   37MOL0     H 4952   2.742   4.967   6.566  0.3782 -2.8694  0.7257
   37MOL0     H 4953   2.784   4.849   6.763  0.9159 -0.6515  0.2583
   37MOL0     H 4954   2.916   4.943   6.811  0.2330  1.2818 -1.1260
   37MOL0     H 4955   2.812   4.618   6.691  1.3071 -0.8753 -0.0709
   37MOL0     H 4956   2.704   4.356   6.517  2.1908  1.6563 -0.1241
   37MOL0     H 4957   2.664   4.456   6.657  0.7835 -1.9548  1.2168
   37MOL0     H 4958   2.569   4.462   6.507  1.5201 -0.3563 -3.2651
   37MOL0     H 4959   2.637   4.108   6.306  0.0377  0.3250  0.7068
   37MOL0     H 4960   2.582   3.958   6.147  2.2816 -0.5639 -0.8018
   37MOL0     H 4961   2.598   3.796   5.941  0.4908 -1.7061 -1.6365
   37MOL0     H 4962   2.447   3.897   5.950 -0.9177 -1.5740 -1.3524
   37MOL0     H 4963   2.380   3.835   5.747  0.3696  0.7596 -3.7862
   37MOL0     H 4964   2.539   3.857   5.674  2.0465 -3.2865 -0.3908
   37MOL0     H 4965   2.427   3.603   5.787 -3.2823  3.0103 -1.8685
   37MOL0     H 4966   2.599   3.626   5.798 -2.7272 -2.9944  1.9254
   37MOL0     H 4967   2.461   3.652   5.542 -1.2225 -0.3620  1.0939
   37MOL0     H 4968   2.631   3.688   5.579  1.7089 -0.4115  0.4350
   37MOL0     H 4969   2.496   3.420   5.671  1.2728 -0.7534 -0.0259
   37MOL0     H 4970   2.662   3.438   5.634  1.1666 -1.1193 -1.7700
   37MOL0     H 4971   2.566   3.312   5.454  4.0175  1.6004 -0.9656
   37MOL0     H 4972   2.431   3.436   5.432 -1.1708 -1.0219  2.0844
   37MOL0     H 4973   2.730   3.445   5.388  0.1705 -0.5859  1.8794
   37MOL0     H 4974   2.632   3.595   5.375 -1.1779  0.0571 -2.7372
   37MOL0     H 4975   2.499   3.503   5.201 -0.4181  0.9457  1.2227
   37MOL0     H 4976   2.599   3.352   5.196  4.7590  0.1406 -1.9539
   37MOL0     H 4977   2.707   4.226   5.836  0.4892 -2.1266 -0.7427
   37MOL0     H 4978   2.759   4.395   6.006 -0.9636 -0.1031 -2.4390
   37MOL0     H 4979   2.881   4.715   6.216  0.4896 -1.7021  1.6870
   37MOL0     H 4980   2.981   4.860   6.380  0.9331 -0.3687 -0.2500
   37MOL0     H 4981   2.685   6.328   7.118 -0.9247 -0.3734  0.3685
   37MOL0     H 4982   2.573   6.439   7.302  1.0277  0.5967 -1.0124
   37MOL0     H 4983   2.135   6.469   7.596  2.6288 -0.0722 -1.0035
   37MOL0     H 4984   1.965   6.612   7.713  2.8257 -0.2937  2.4931
   37MOL0     H 4985   1.909   7.013   7.799 -4.1876 -0.5940  0.0586
   37MOL0     H 4986   2.019   7.028   7.666 -0.2262 -1.5566 -1.4819
   37MOL0     H 4987   1.831   7.107   7.535 -1.1755  1.1574  0.4257
   37MOL0     H 4988   1.851   7.205   7.682 -2.0549  0.4822  0.8538
   37MOL0     H 4989   1.649   6.974   7.666 -0.5752  1.0197 -0.2615
   37MOL0     H 4990   1.616   7.121   7.559  1.7848 -1.6607 -2.9603
   37MOL0     H 4991   1.502   7.082   7.774  1.1760 -2.7993 -1.6645
   37MOL0     H 4992   1.571   7.240   7.762  3.4004  1.4383  0.3856
   37MOL0     H 4993   1.789   7.107   8.085  0.0378  3.7050  0.7061
   37MOL0     H 4994   2.080   6.949   7.470  1.5716 -0.1047 -1.0365
   37MOL0     H 4995   2.220   6.794   7.340 -3.3810 -2.4752 -1.7142
   38MOL0     O 4996   2.269   4.088   0.622 -0.0666  0.6254 -0.3890
   38MOL0     C 4997   2.149   4.107   0.595  0.2824  0.0808 -0.2557
   38MOL0     O 4998   2.064   4.159   0.688  0.0308  0.5171 -0.0401
   38MOL0     C 4999   2.093   4.200   0.813 -0.4923  0.0175 -0.3776
   38MOL0     C 5000   1.998   4.171   0.909  1.2828 -0.2202 -0.0789
   38MOL0     C 5001   2.015   4.187   1.050  0.0403  0.6902 -0.2551
   38MOL0     C 5002   2.134   4.250   1.096  0.9387 -0.2101  0.2575
   38MOL0     O 5003   2.132   4.273   1.233  0.1029 -0.2943  0.5024
   38MOL0     C 5004   2.168   4.161   1.317  0.4778  0.5339  0.0892
   38MOL0     C 5005   2.144   4.170   1.464 -0.8231  0.4103  0.3206
   38MOL0     C 5006   1.998   4.148   1.505  0.0873 -0.0000 -0.2078
   38MOL0     C 5007   1.906   4.247   1.436 -0.2821 -0.0112  0.1528
   38MOL0     C 5008   1.778   4.266   1.505 -0.4196 -0.2402  0.0178
   38MOL0     C 5009   1.705   4.378   1.440 -0.9997 -0.1156  0.2306
   38MOL0     C 5010   1.579   4.420   1.514  0.7177 -0.2377 -0.3558
   38MOL0     C 5011   1.472   4.307   1.501  0.7792  0.7042  0.4282
   38MOL0     N 5012   1.342   4.354   1.544  0.3405 -0.9453 -1.1615
   38MOL0     C 5013   1.306   4.401   1.672  0.1221  0.0824 -0.6150
   38MOL0     C 5014   1.166   4.395   1.682 -0.8191 -0.2242  0.3064
   38MOL0     C 5015   1.070   4.432   1.796 -0.2229 -1.0084 -0.1286
   38MOL0     C 5016   0.943   4.510   1.764  0.9244  0.9071 -0.2175
   38MOL0     C 5017   0.943   4.644   1.701 -0.5514  0.6965  0.0913
   38MOL0     C 5018   0.807   4.690   1.645 -0.1939  0.2446 -0.2376
   38MOL0     O 5019   0.721   4.704   1.759  0.2852  0.1997  0.5433
   38MOL0     C 5020   0.600   4.761   1.736  0.4744  0.3264  0.1035
   38MOL0     C 5021   0.567   4.821   1.614 -0.4628 -0.1671 -0.8395
   38MOL0     C 5022   0.440   4.858   1.578  0.5848 -0.2089 -0.7063
   38MOL0     C 5023   0.432   4.930   1.445  0.6118  0.1823 -0.1147
   38MOL0     C 5024   0.336   4.849   1.679 -0.0753 -0.5446 -1.0615
   38MOL0     C 5025   0.199   4.882   1.653  0.3970  0.2315 -0.9447
   38MOL0     O 5026   0.118   4.911   1.771 -0.5381 -0.2914  0.0435
   38MOL0     C 5027  -0.018   4.911   1.757  0.2915 -0.6968  0.4365
   38MOL0     C 5028  -0.085   4.986   1.857  0.0367  0.9035  0.3894
   38MOL0     C 5029  -0.222   4.969   1.875 -0.2915  0.4116  0.7071
   38MOL0     C 5030  -0.288   4.880   1.796  0.5966 -0.2497  0.4953
   38MOL0     O 5031  -0.422   4.883   1.813  0.4318 -0.1622  0.0688
   38MOL0     C 5032  -0.517   4.895   1.701  0.1007 -0.3721 -0.3496
   38MOL0     C 5033  -0.554   5.039   1.682 -0.2093  0.0358 -0.1434
   38MOL0     C 5034  -0.701   5.056   1.629  0.0497 -0.6229  0.2881
   38MOL0     C 5035  -0.740   5.200   1.588 -0.7293 -0.1112 -0.0881
   38MOL0     C 5036  -0.883   5.208   1.541 -0.4372 -0.0831 -0.8543
   38MOL0     C 5037  -0.901   5.341   1.478 -0.4025 -0.2410  0.5336
   38MOL0     C 5038  -1.045   5.390   1.500  0.1632  0.2426 -0.1198
   38MOL0     C 5039  -1.099   5.525   1.436  0.7244  0.2895 -0.2933
   38MOL0    Cl 5040  -0.993   5.662   1.449  0.0800  0.3145 -0.4974
   38MOL0     C 5041  -0.229   4.818   1.684  0.2364 -0.7736  0.2386
   38MOL0     C 5042  -0.089   4.821   1.672  0.6177  0.3243  0.2687
   38MOL0     O 5043   0.158   4.888   1.539  0.2851  0.0562 -0.5654
   38MOL0     C 5044   0.374   4.802   1.809 -0.1783 -1.2789 -0.7704
   38MOL0     C 5045   0.503   4.760   1.834  0.4220  0.4369  0.9996
   38MOL0     N 5046   1.122   4.327   1.575 -0.0472 -0.1089  0.5813
   38MOL0     N 5047   1.230   4.304   1.497  0.3194  0.0511  0.9822
   38MOL0     C 5048   2.229   4.280   0.994  0.2106  0.4736 -0.3157
   38MOL0     C 5049   2.209   4.256   0.853 -0.1857 -0.5911  1.1490
   38MOL0     C 5050   2.091   4.087   0.458  0.8436  0.2188 -0.8499
   38MOL0     C 5051   2.166   4.079   0.346  0.0305  0.5000  0.6707
   38MOL0     C 5052   2.110   4.065   0.217 -0.1952  1.0452  0.3540
   38MOL0     C 5053   1.977   4.075   0.194  0.4972  0.4513  0.0324
   38MOL0     O 5054   1.924   4.066   0.069 -0.1127 -0.3136 -0.2154
   38MOL0     C 5055   1.785   4.044   0.050  1.1566 -0.1668 -0.4961
   38MOL0     C 5056   1.742   3.986  -0.082  0.4084  0.2417 -0.3243
   38MOL0     C 5057   1.722   4.094  -0.192 -0.2985  1.1313 -0.0797
   38MOL0     C 5058   1.657   4.026  -0.313 -0.3308 -0.4976 -0.6910
   38MOL0     C 5059   1.627   4.120  -0.422  0.2903 -0.3825 -0.4093
   38MOL0     C 5060   1.607   4.200  -0.520 -0.1718 -0.1136 -0.2094
   38MOL0     C 5061   1.896   4.085   0.312 -0.2570 -0.7501  0.5248
   38MOL0     C 5062   1.953   4.100   0.438 -0.7883 -0.3061  0.1646
   38MOL0     H 5063   1.912   4.124   0.863  1.7249  1.4432 -2.8488
   38MOL0     H 5064   1.937   4.167   1.123 -1.8686  3.2937 -1.4332
   38MOL0     H 5065   2.108   4.080   1.274  0.8028 -0.2237  1.0268
   38MOL0     H 5066   2.272   4.135   1.294 -0.1914 -3.4331  0.7517
   38MOL0     H 5067   2.207   4.088   1.499  0.8825  1.5111 -0.0407
   38MOL0     H 5068   2.187   4.260   1.509  0.3594 -0.3554  0.7672
   38MOL0     H 5069   1.970   4.043   1.492  2.0113 -1.2506  3.7921
   38MOL0     H 5070   1.989   4.176   1.611  3.2804  1.1734 -0.1373
   38MOL0     H 5071   1.959   4.342   1.430  0.1217 -0.2255  0.2863
   38MOL0     H 5072   1.887   4.212   1.334 -0.9669  2.4932 -0.6414
   38MOL0     H 5073   1.727   4.171   1.484  2.8261 -2.5510  1.6216
   38MOL0     H 5074   1.793   4.279   1.613 -0.0338 -0.4199 -0.0101
   38MOL0     H 5075   1.770   4.466   1.436  1.5530 -1.9130 -0.2360
   38MOL0     H 5076   1.698   4.353   1.334 -1.0485 -1.2393  0.4942
   38MOL0     H 5077   1.598   4.444   1.619  0.4057 -0.3067 -0.2831
   38MOL0     H 5078   1.550   4.512   1.461 -4.3225 -1.1748  0.2852
   38MOL0     H 5079   1.497   4.217   1.557 -1.3195  0.8581  1.6734
   38MOL0     H 5080   1.460   4.280   1.395 -0.5947 -0.0659  0.7592
   38MOL0     H 5081   1.375   4.433   1.750  1.7195  0.0435 -1.9529
   38MOL0     H 5082   1.037   4.340   1.845 -1.5535 -0.6981 -0.3953
   38MOL0     H 5083   1.133   4.492   1.863 -1.4496  0.0031  0.1662
   38MOL0     H 5084   0.888   4.529   1.856  0.0392  0.5288 -0.6634
   38MOL0     H 5085   0.884   4.443   1.702 -1.1403  2.3785  0.0733
   38MOL0     H 5086   1.016   4.640   1.620  0.3265 -0.9090  0.9232
   38MOL0     H 5087   0.976   4.713   1.779 -4.9025  1.7588  1.2689
   38MOL0     H 5088   0.778   4.625   1.562  2.4060  0.7768 -1.7066
   38MOL0     H 5089   0.830   4.792   1.610 -2.4376  0.5092 -1.1072
   38MOL0     H 5090   0.634   4.824   1.529 -0.6437 -1.1153 -1.0265
   38MOL0     H 5091   0.442   4.861   1.361 -1.2205  1.0618 -1.1242
   38MOL0     H 5092   0.348   4.997   1.425  0.5367  0.3400  0.7074
   38MOL0     H 5093   0.513   5.004   1.449  1.1307 -0.4262  1.3190
   38MOL0     H 5094  -0.024   5.049   1.923 -2.0168  0.6628  2.6646
   38MOL0     H 5095  -0.267   5.020   1.960 -0.1115 -0.9110  1.6188
   38MOL0     H 5096  -0.474   4.862   1.605 -4.1676  1.4109 -3.1701
   38MOL0     H 5097  -0.602   4.829   1.724  0.3757 -1.5811 -2.4601
   38MOL0     H 5098  -0.542   5.089   1.779 -1.6328  1.7737 -0.8032
   38MOL0     H 5099  -0.477   5.076   1.614 -1.9498  0.3137 -2.0664
   38MOL0     H 5100  -0.777   5.030   1.703 -0.9028  2.1941  0.3993
   38MOL0     H 5101  -0.709   4.981   1.550  1.6084 -0.4820 -0.0416
   38MOL0     H 5102  -0.711   5.272   1.665  1.3809 -1.1474  0.1688
   38MOL0     H 5103  -0.684   5.214   1.495  0.2733  0.5088  0.5934
   38MOL0     H 5104  -0.943   5.210   1.632  3.3290  1.5850  1.8734
   38MOL0     H 5105  -0.909   5.120   1.482 -1.1172 -0.8717  0.5743
   38MOL0     H 5106  -0.826   5.411   1.516 -0.6231 -1.5199  3.6116
   38MOL0     H 5107  -0.866   5.331   1.375  2.8787  1.2922  1.3829
   38MOL0     H 5108  -1.057   5.406   1.608 -0.8197 -3.7964  0.5410
   38MOL0     H 5109  -1.108   5.303   1.476  2.4116 -1.1171 -1.4037
   38MOL0     H 5110  -1.199   5.539   1.478  0.5063 -0.5858 -0.4861
   38MOL0     H 5111  -1.112   5.500   1.330  2.3437  1.6918 -0.8561
   38MOL0     H 5112  -0.284   4.746   1.625  1.0164 -1.7247  0.6354
   38MOL0     H 5113  -0.034   4.751   1.609 -0.9200 -0.7241  0.0507
   38MOL0     H 5114   0.306   4.794   1.893 -1.9019 -0.1217 -1.9928
   38MOL0     H 5115   0.531   4.720   1.931  0.2243  1.8102  1.6554
   38MOL0     H 5116   2.321   4.324   1.030  0.8614 -0.0897 -1.2263
   38MOL0     H 5117   2.277   4.293   0.776  0.3182 -2.6549  0.5562
   38MOL0     H 5118   2.273   4.070   0.364 -0.0888 -3.3664  0.1266
   38MOL0     H 5119   2.175   4.056   0.130 -1.7823 -0.4037 -0.7384
   38MOL0     H 5120   1.750   3.976   0.128 -1.3758  2.8128  1.1776
   38MOL0     H 5121   1.723   4.131   0.070 -0.6167 -1.5979  0.5580
   38MOL0     H 5122   1.647   3.933  -0.067 -0.5193  1.6536 -0.9917
   38MOL0     H 5123   1.824   3.918  -0.108  0.8957  0.3020  0.9762
   38MOL0     H 5124   1.814   4.142  -0.225  0.7279 -0.5022  0.2808
   38MOL0     H 5125   1.646   4.161  -0.150 -1.5422 -0.1750 -0.1440
   38MOL0     H 5126   1.563   3.984  -0.275  0.0986 -2.3831 -1.5978
   38MOL0     H 5127   1.730   3.952  -0.346 -0.2665 -0.6154 -0.2891
   38MOL0     H 5128   1.616   4.270  -0.601  3.0291 -0.6777 -0.4719
   38MOL0     H 5129   1.788   4.093   0.305 -0.0898  0.5934 -1.6560
   38MOL0     H 5130   1.897   4.111   0.530 -2.1493  2.4537 -0.9090
   39MOL0     O 5131  10.592   5.254   7.320 -0.9035 -0.5638  0.4873
   39MOL0     C 5132  10.670   5.178   7.375  0.1225  0.3342 -0.8932
   39MOL0     O 5133  10.646   5.112   7.492  0.2871 -0.3323 -0.0338
   39MOL0     C 5134  10.544   5.147   7.575  0.1576 -0.0668  0.0460
   39MOL0     C 5135  10.555   5.110   7.704 -0.7571 -0.5178 -0.7122
   39MOL0     C 5136  10.455   5.128   7.796 -0.0269 -0.7989 -0.7221
   39MOL0     C 5137  10.339   5.197   7.762 -0.7906  0.1043 -0.4600
   39MOL0     O 5138  10.235   5.211   7.849  0.1426  0.1613 -0.6984
   39MOL0     C 5139  10.248   5.183   7.989  0.5137  0.9754 -0.5076
   39MOL0     C 5140  10.111   5.225   8.046  0.4092  0.3143  0.2183
   39MOL0     C 5141  10.084   5.167   8.187  0.9692 -0.0648 -0.2002
   39MOL0     C 5142  10.184   5.177   8.294  0.8176  0.1232  0.1541
   39MOL0     C 5143  10.131   5.123   8.420  1.3814  0.4497 -0.3342
   39MOL0     C 5144  10.242   5.075   8.511  0.4899  0.5746  0.5862
   39MOL0     C 5145  10.346   5.185   8.538 -0.6283  0.2470  0.8186
   39MOL0     C 5146  10.457   5.133   8.637 -0.1002 -0.3698 -0.5157
   39MOL0     N 5147  10.564   5.234   8.638  1.2970  0.0181 -0.0637
   39MOL0     C 5148  10.636   5.278   8.528  0.1809  0.4670  0.5147
   39MOL0     C 5149  10.727   5.364   8.579  0.5633 -0.4424 -0.3913
   39MOL0     C 5150  10.831   5.437   8.505 -0.9129  0.2711 -0.1958
   39MOL0     C 5151  10.773   5.553   8.419 -0.3740  0.6129 -0.0708
   39MOL0     C 5152  10.789   5.676   8.505 -0.7769 -0.1205 -0.6502
   39MOL0     C 5153  10.756   5.809   8.450  0.3070 -0.0961  0.7958
   39MOL0     O 5154  10.805   5.818   8.310 -0.0048  0.2814 -0.6462
   39MOL0     C 5155  10.735   5.887   8.212 -0.0199 -0.4853  0.6481
   39MOL0     C 5156  10.781   5.862   8.088  0.4500 -0.0222  0.5445
   39MOL0     C 5157  10.708   5.911   7.973 -0.7321 -0.2110  0.8980
   39MOL0     C 5158  10.763   5.868   7.836 -0.4556 -0.1926 -0.6239
   39MOL0     C 5159  10.578   5.964   7.985  0.1406 -0.5833  0.5848
   39MOL0     C 5160  10.487   6.008   7.874  0.5573 -0.5021 -0.1371
   39MOL0     O 5161  10.540   6.030   7.750 -0.5907 -0.9196 -0.5175
   39MOL0     C 5162  10.471   6.080   7.646 -0.2156 -0.1094 -0.9843
   39MOL0     C 5163  10.373   6.178   7.666  0.3041  0.3529  1.8055
   39MOL0     C 5164  10.328   6.246   7.546  0.3807 -0.3992  0.0348
   39MOL0     C 5165  10.386   6.233   7.421 -0.4473  0.0194 -0.3154
   39MOL0     O 5166  10.335   6.298   7.316 -0.2951  0.6021  0.8142
   39MOL0     C 5167  10.292   6.208   7.213  0.5424 -0.4726  0.8740
   39MOL0     C 5168  10.174   6.274   7.142  0.5282  0.8329  0.4288
   39MOL0     C 5169  10.213   6.404   7.071  0.2920 -0.7902 -0.3973
   39MOL0     C 5170  10.101   6.436   6.968  0.2047  1.0580  0.6124
   39MOL0     C 5171  10.130   6.563   6.892  0.6068 -0.2577  0.3999
   39MOL0     C 5172  10.052   6.591   6.764  0.2021  1.0220  0.0265
   39MOL0     C 5173  10.125   6.697   6.682 -0.2510 -0.4881  0.0035
   39MOL0     C 5174  10.050   6.763   6.567 -0.2181  0.5281  0.0663
   39MOL0    Cl 5175   9.973   6.918   6.643  0.6308  0.2071 -0.2465
   39MOL0     C 5176  10.468   6.122   7.409  0.5156  0.0369  0.7104
   39MOL0     C 5177  10.508   6.042   7.521  1.0400 -0.3554 -0.0619
   39MOL0     O 5178  10.370   6.028   7.906  0.5268  0.1219 -0.4016
   39MOL0     C 5179  10.543   5.996   8.122  0.7119  0.0330  0.3189
   39MOL0     C 5180  10.626   5.960   8.231  0.1853 -0.4556 -0.4343
   39MOL0     N 5181  10.707   5.372   8.712  0.3557  0.7517 -0.3809
   39MOL0     N 5182  10.617   5.290   8.754 -0.1891  0.1483 -0.3779
   39MOL0     C 5183  10.313   5.229   7.630  0.0890  0.6518 -1.0422
   39MOL0     C 5184  10.408   5.198   7.543 -0.6435  0.4408 -0.2234
   39MOL0     C 5185  10.801   5.135   7.307 -0.9235 -0.5838 -0.2425
   39MOL0     C 5186  10.872   5.022   7.348  0.3027 -0.0920  0.1463
   39MOL0     C 5187  10.995   4.989   7.285 -0.1396 -0.4250 -0.1278
   39MOL0     C 5188  11.047   5.069   7.183  0.1184 -1.0202  0.2635
   39MOL0     O 5189  11.164   5.036   7.121  0.2999 -0.0377 -0.1223
   39MOL0     C 5190  11.174   4.899   7.074  0.0941 -0.7192 -0.3622
   39MOL0     C 5191  11.284   4.903   6.963 -0.6223  1.2939  0.7724
   39MOL0     C 5192  11.238   4.952   6.820  0.2298  1.2046 -0.0038
   39MOL0     C 5193  11.350   4.988   6.724  0.4701  0.7677 -1.6296
   39MOL0     C 5194  11.406   5.111   6.766 -0.0341  0.2135 -1.0946
   39MOL0     C 5195  11.459   5.216   6.798  0.2102  0.0282  0.4980
   39MOL0     C 5196  10.983   5.188   7.148  0.4445 -0.1291  0.6170
   39MOL0     C 5197  10.861   5.230   7.219  0.4104 -0.2777  0.1619
   39MOL0     H 5198  10.639   5.050   7.736  0.6367  0.5502 -2.2444
   39MOL0     H 5199  10.471   5.106   7.900  1.4608  4.1824  0.3945
   39MOL0     H 5200  10.257   5.076   8.007  1.1875  1.0745 -0.2307
   39MOL0     H 5201  10.332   5.240   8.029  1.4315 -0.1081 -0.8189
   39MOL0     H 5202  10.107   5.334   8.041  2.0716  0.4044  0.4661
   39MOL0     H 5203  10.038   5.188   7.974  0.3866  1.2739 -0.2684
   39MOL0     H 5204   9.999   5.223   8.228  1.0657  0.3095 -0.4977
   39MOL0     H 5205  10.040   5.067   8.189 -2.4019  1.2410 -1.1888
   39MOL0     H 5206  10.273   5.120   8.266 -0.1237 -1.5055  0.3753
   39MOL0     H 5207  10.222   5.274   8.327  0.1945 -0.0803  1.5346
   39MOL0     H 5208  10.065   5.196   8.467 -0.2740 -1.1650 -0.0428
   39MOL0     H 5209  10.066   5.037   8.402  0.7992  1.0067 -0.9737
   39MOL0     H 5210  10.205   5.044   8.609  0.2179 -0.5950  0.1306
   39MOL0     H 5211  10.293   4.988   8.470  0.4749  0.6268  0.4566
   39MOL0     H 5212  10.395   5.213   8.444 -3.2439  0.9445 -0.4472
   39MOL0     H 5213  10.289   5.270   8.576 -0.6132 -0.9770  3.7939
   39MOL0     H 5214  10.503   5.037   8.610  1.6881  0.6985 -1.4639
   39MOL0     H 5215  10.418   5.116   8.738  0.7108  0.0240 -0.1288
   39MOL0     H 5216  10.620   5.258   8.423  0.6868  2.3327  0.0453
   39MOL0     H 5217  10.909   5.458   8.579  0.9007 -2.2933 -1.2235
   39MOL0     H 5218  10.885   5.362   8.445 -1.2422  0.4552 -0.7349
   39MOL0     H 5219  10.669   5.521   8.403  0.4595 -1.4171 -1.9779
   39MOL0     H 5220  10.824   5.568   8.324  1.8573  3.1127  1.4057
   39MOL0     H 5221  10.895   5.677   8.532 -0.7807  2.1785 -0.4873
   39MOL0     H 5222  10.727   5.673   8.595 -0.4263  1.8328 -0.3043
   39MOL0     H 5223  10.795   5.896   8.502 -0.0928  0.8355 -0.4213
   39MOL0     H 5224  10.648   5.826   8.452  0.6539  2.5006  1.3080
   39MOL0     H 5225  10.869   5.800   8.073  0.2276 -0.1309 -0.4023
   39MOL0     H 5226  10.817   5.938   7.771 -0.8521  0.6350 -0.0887
   39MOL0     H 5227  10.835   5.787   7.850 -2.2704 -2.0835 -1.6825
   39MOL0     H 5228  10.676   5.838   7.778 -0.9279  2.4325 -1.4046
   39MOL0     H 5229  10.325   6.200   7.760  0.5313 -1.1270  2.3072
   39MOL0     H 5230  10.253   6.323   7.565  1.8321  1.2562 -0.7121
   39MOL0     H 5231  10.364   6.192   7.133  1.8817  3.1481  1.1785
   39MOL0     H 5232  10.255   6.111   7.247 -1.3232  0.6613  2.2962
   39MOL0     H 5233  10.131   6.209   7.065 -2.5486  2.9707  0.1640
   39MOL0     H 5234  10.090   6.291   7.210 -0.7948  1.1018 -1.1891
   39MOL0     H 5235  10.307   6.393   7.016  1.6879 -1.1061  1.9183
   39MOL0     H 5236  10.222   6.485   7.144  1.2198  1.4361 -2.8274
   39MOL0     H 5237  10.088   6.347   6.906  1.0965  0.6245  1.0265
   39MOL0     H 5238  10.003   6.445   7.015  1.0160  2.8309  2.1079
   39MOL0     H 5239  10.238   6.560   6.875  0.4177  0.7134 -1.1597
   39MOL0     H 5240  10.116   6.644   6.965 -0.5300  0.0456 -0.1194
   39MOL0     H 5241  10.051   6.509   6.692  1.0824  3.8861 -3.5713
   39MOL0     H 5242   9.946   6.618   6.773 -0.6254 -1.4593 -1.3058
   39MOL0     H 5243  10.209   6.656   6.624  0.6367  4.0028 -2.3177
   39MOL0     H 5244  10.173   6.773   6.744  0.2056 -2.5637  2.3667
   39MOL0     H 5245   9.972   6.703   6.519  0.6866  0.4571 -1.3776
   39MOL0     H 5246  10.125   6.784   6.490 -0.4439  0.2889 -0.2190
   39MOL0     H 5247  10.515   6.098   7.314 -0.5785 -2.3323  0.7050
   39MOL0     H 5248  10.569   5.957   7.491 -0.8296 -0.7946 -3.0152
   39MOL0     H 5249  10.451   6.053   8.133 -0.3802 -1.3774 -1.0480
   39MOL0     H 5250  10.596   5.998   8.328  2.1106 -0.8711  0.3680
   39MOL0     H 5251  10.209   5.257   7.614 -0.0676  1.4669  1.0367
   39MOL0     H 5252  10.386   5.218   7.439 -0.9913 -1.3893 -0.5507
   39MOL0     H 5253  10.827   4.947   7.413  1.1900  2.0640  3.4208
   39MOL0     H 5254  11.052   4.901   7.313 -0.1693  0.1829  1.9506
   39MOL0     H 5255  11.219   4.824   7.140 -1.5403 -5.4144 -3.9887
   39MOL0     H 5256  11.078   4.852   7.049  0.0860 -1.0982  0.3555
   39MOL0     H 5257  11.322   4.801   6.959 -0.6234  1.3086 -1.6796
   39MOL0     H 5258  11.370   4.965   6.990  1.4004  0.5515 -3.2428
   39MOL0     H 5259  11.168   5.037   6.821 -2.9309 -1.1782 -0.6453
   39MOL0     H 5260  11.185   4.868   6.772 -1.0257  0.9282  1.7781
   39MOL0     H 5261  11.307   5.012   6.626  0.1755  0.0158 -1.6882
   39MOL0     H 5262  11.423   4.907   6.725  0.5146  0.7888  0.7282
   39MOL0     H 5263  11.503   5.308   6.832  1.3208 -0.7109  1.1406
   39MOL0     H 5264  11.024   5.256   7.074  1.6867  1.5798  2.7403
   39MOL0     H 5265  10.810   5.325   7.207 -1.4351 -0.7846  2.8384
   40MOL0     O 5266   6.093   8.207   5.550 -0.4333 -0.9504 -0.4213
   40MOL0     C 5267   6.148   8.209   5.656 -0.0667  0.3824  0.5663
   40MOL0     O 5268   6.225   8.111   5.702  0.4188  0.0894  0.5688
   40MOL0     C 5269   6.208   7.982   5.649  0.6895 -0.1246 -0.7634
   40MOL0     C 5270   6.071   7.927   5.627  0.1064 -0.3822  0.2497
   40MOL0     C 5271   6.057   7.793   5.583 -0.0862  0.5105  1.0955
   40MOL0     C 5272   6.179   7.721   5.556  0.1447 -0.0744 -0.0979
   40MOL0     O 5273   6.172   7.591   5.514 -0.3999 -0.6621 -0.3912
   40MOL0     C 5274   6.204   7.576   5.369  0.5179 -0.7860 -0.1704
   40MOL0     C 5275   6.188   7.428   5.349 -1.2069 -0.1983  0.5209
   40MOL0     C 5276   6.323   7.357   5.388  0.0261  0.5870  0.5092
   40MOL0     C 5277   6.371   7.273   5.263  0.2035  0.6789  0.1733
   40MOL0     C 5278   6.500   7.206   5.300 -0.0071  0.3810 -0.4379
   40MOL0     C 5279   6.531   7.079   5.210  0.0826 -0.4007  0.2984
   40MOL0     C 5280   6.643   6.998   5.286  0.1077 -0.3518 -0.3917
   40MOL0     C 5281   6.727   6.902   5.209  0.2889  0.2556  0.1325
   40MOL0     N 5282   6.821   6.817   5.292 -0.8655 -0.1062 -0.0308
   40MOL0     C 5283   6.793   6.692   5.338  0.3862  0.2990 -0.1346
   40MOL0     C 5284   6.882   6.669   5.436 -0.0535 -0.1194 -0.1054
   40MOL0     C 5285   6.897   6.538   5.511 -0.4698  0.5312  0.9649
   40MOL0     C 5286   6.994   6.439   5.445 -0.1770  0.9709 -0.0849
   40MOL0     C 5287   7.142   6.460   5.481  0.1545  0.1051  1.1165
   40MOL0     C 5288   7.237   6.360   5.411 -0.4857 -0.7777 -0.5834
   40MOL0     O 5289   7.161   6.234   5.386 -0.5504  0.2304  0.1204
   40MOL0     C 5290   7.190   6.121   5.468  0.1590  0.4119 -0.4134
   40MOL0     C 5291   7.214   6.143   5.600 -0.4921  0.3701 -0.2620
   40MOL0     C 5292   7.248   6.031   5.686 -1.6088 -0.0546 -1.2877
   40MOL0     C 5293   7.306   6.059   5.826 -0.2400 -0.8694 -0.2555
   40MOL0     C 5294   7.263   5.900   5.628  0.3452 -0.3223  0.4489
   40MOL0     C 5295   7.295   5.779   5.712 -0.7835  0.3306  0.4574
   40MOL0     O 5296   7.386   5.681   5.659  0.4486  0.1653 -0.7743
   40MOL0     C 5297   7.409   5.571   5.736 -0.6721  0.0651  0.5766
   40MOL0     C 5298   7.342   5.452   5.752  0.1316  0.2810  0.0476
   40MOL0     C 5299   7.384   5.333   5.825  0.6844 -0.1350  0.4176
   40MOL0     C 5300   7.503   5.348   5.900 -0.5947 -0.5322  0.2553
   40MOL0     O 5301   7.555   5.249   5.983 -0.6636  0.6997 -0.0278
   40MOL0     C 5302   7.497   5.119   5.950 -0.1217 -0.0514  0.8023
   40MOL0     C 5303   7.566   4.995   6.022  0.0426 -0.3067 -0.4630
   40MOL0     C 5304   7.558   4.871   5.925 -0.6382  0.1007  0.0884
   40MOL0     C 5305   7.434   4.777   5.928 -0.4234  0.7141  0.4053
   40MOL0     C 5306   7.466   4.628   5.891 -0.3076 -0.0807  0.0677
   40MOL0     C 5307   7.351   4.544   5.952  0.0145 -0.4705  0.0516
   40MOL0     C 5308   7.214   4.571   5.874 -0.4817  0.5133  0.1789
   40MOL0     C 5309   7.145   4.437   5.842  0.4269 -0.7691  0.0707
   40MOL0    Cl 5310   7.117   4.347   5.999 -0.0188  0.2297  0.3462
   40MOL0     C 5311   7.576   5.472   5.893  0.4666 -0.1300 -0.4417
   40MOL0     C 5312   7.533   5.578   5.812  0.4458 -0.3924  0.6110
   40MOL0     O 5313   7.236   5.761   5.817 -0.2257 -0.2367 -0.1193
   40MOL0     C 5314   7.217   5.876   5.494  0.6256 -0.4954 -0.7580
   40MOL0     C 5315   7.177   5.989   5.420  0.9878 -0.4097  0.1911
   40MOL0     N 5316   6.976   6.766   5.433  0.2029  0.1841  0.5738
   40MOL0     N 5317   6.943   6.860   5.347  0.7190  0.3744 -0.0128
   40MOL0     C 5318   6.306   7.770   5.584 -0.0060 -0.6229 -0.3242
   40MOL0     C 5319   6.319   7.905   5.626  0.2536  0.1558 -0.1819
   40MOL0     C 5320   6.137   8.333   5.734  0.9276 -0.3575 -1.3105
   40MOL0     C 5321   6.043   8.433   5.706 -0.0370 -0.1608 -0.1944
   40MOL0     C 5322   6.030   8.542   5.791  0.6585 -0.1279  0.1986
   40MOL0     C 5323   6.102   8.553   5.910  1.4187 -0.7707 -0.5995
   40MOL0     O 5324   6.088   8.663   5.996 -0.9088  0.4549  0.3843
   40MOL0     C 5325   5.984   8.761   5.970  0.4414  0.1284  1.1316
   40MOL0     C 5326   5.930   8.825   6.103 -0.0893 -0.4757 -0.7329
   40MOL0     C 5327   5.833   8.720   6.178 -0.3886 -0.5287  0.2222
   40MOL0     C 5328   5.813   8.783   6.311 -0.0720 -1.3171 -1.3637
   40MOL0     C 5329   5.713   8.716   6.393  0.7943 -0.6118 -0.8890
   40MOL0     C 5330   5.607   8.681   6.440 -1.0095  0.3293 -0.0146
   40MOL0     C 5331   6.196   8.454   5.945 -0.2357  0.0831  0.1601
   40MOL0     C 5332   6.212   8.355   5.850 -0.3502 -0.1296 -0.4520
   40MOL0     H 5333   5.995   8.003   5.640  1.5500  0.8493  2.0716
   40MOL0     H 5334   5.958   7.751   5.567  1.7675 -5.3964  2.6998
   40MOL0     H 5335   6.129   7.631   5.310  0.1833  1.0908  1.8476
   40MOL0     H 5336   6.301   7.621   5.344  0.5591 -0.2235  0.9234
   40MOL0     H 5337   6.104   7.379   5.399  0.3709 -0.4865  3.0431
   40MOL0     H 5338   6.168   7.404   5.244 -2.1575 -3.3340  1.3103
   40MOL0     H 5339   6.403   7.423   5.424  0.4549 -0.2815  1.2077
   40MOL0     H 5340   6.309   7.283   5.468 -0.2791 -0.5620 -0.5654
   40MOL0     H 5341   6.308   7.188   5.234  0.5003  1.0406 -1.6590
   40MOL0     H 5342   6.381   7.327   5.169 -0.4090 -2.0684 -1.6042
   40MOL0     H 5343   6.583   7.276   5.294  0.2787  0.0433 -0.4044
   40MOL0     H 5344   6.483   7.178   5.404  0.6071  0.8283 -0.2086
   40MOL0     H 5345   6.449   7.012   5.181  2.5727 -3.3552 -0.4195
   40MOL0     H 5346   6.581   7.124   5.124  0.2298  1.0059  1.0860
   40MOL0     H 5347   6.703   7.060   5.354 -2.3299  3.5620 -1.5098
   40MOL0     H 5348   6.588   6.941   5.362 -1.2531  0.7431 -0.5251
   40MOL0     H 5349   6.794   6.970   5.156  0.0983  2.4802  2.5468
   40MOL0     H 5350   6.664   6.850   5.136  1.2684 -1.2353  0.3076
   40MOL0     H 5351   6.715   6.620   5.314  1.7697 -2.6167  3.1215
   40MOL0     H 5352   6.937   6.558   5.611  0.4661 -0.5460  0.8175
   40MOL0     H 5353   6.796   6.500   5.530 -0.3013  0.9940  3.0056
   40MOL0     H 5354   6.992   6.445   5.336  0.7403  0.2763 -0.1482
   40MOL0     H 5355   6.963   6.342   5.485  0.4128  1.0411  0.5504
   40MOL0     H 5356   7.154   6.460   5.590 -0.8023  0.7641  1.2353
   40MOL0     H 5357   7.170   6.562   5.453 -0.1363 -0.2178 -0.4216
   40MOL0     H 5358   7.328   6.342   5.469 -2.2262 -2.1948  1.9451
   40MOL0     H 5359   7.254   6.416   5.318 -0.8346  1.3883  0.5924
   40MOL0     H 5360   7.203   6.244   5.637  1.3479  0.5164 -0.0483
   40MOL0     H 5361   7.241   6.036   5.911  4.5174 -4.0742  3.0111
   40MOL0     H 5362   7.394   5.998   5.847  0.0430 -2.0287 -4.1110
   40MOL0     H 5363   7.341   6.163   5.829  1.1756 -1.2881 -1.2187
   40MOL0     H 5364   7.247   5.465   5.701 -0.5276 -3.1449  0.1808
   40MOL0     H 5365   7.318   5.248   5.841  0.0506  0.1700 -0.4391
   40MOL0     H 5366   7.392   5.118   5.982 -0.3029 -0.1390  0.2346
   40MOL0     H 5367   7.508   5.101   5.842 -0.3443  0.2217  0.7324
   40MOL0     H 5368   7.670   5.026   6.039 -0.5215 -0.0536  3.4316
   40MOL0     H 5369   7.525   4.974   6.121 -0.5124  3.4347  0.2425
   40MOL0     H 5370   7.647   4.812   5.951 -0.2951  1.1542  1.4179
   40MOL0     H 5371   7.572   4.902   5.821  2.1406  1.4950  0.7782
   40MOL0     H 5372   7.407   4.784   6.034  1.5456 -0.5751  1.0368
   40MOL0     H 5373   7.350   4.816   5.870 -0.9082 -1.6759 -0.6315
   40MOL0     H 5374   7.562   4.599   5.935  0.9304 -0.2759 -2.5484
   40MOL0     H 5375   7.485   4.613   5.784  0.0087 -0.0402  0.1191
   40MOL0     H 5376   7.384   4.441   5.961  3.3875  0.5990  1.4043
   40MOL0     H 5377   7.346   4.572   6.058  1.3039  1.9213 -0.4359
   40MOL0     H 5378   7.234   4.621   5.779 -1.3681  0.1287 -0.2295
   40MOL0     H 5379   7.156   4.642   5.934 -0.9328 -0.4462  0.9212
   40MOL0     H 5380   7.210   4.374   5.781  0.5898  0.0443 -0.6102
   40MOL0     H 5381   7.055   4.454   5.781  0.0029  1.6068  1.2251
   40MOL0     H 5382   7.661   5.483   5.960  0.2782 -0.6920 -0.1021
   40MOL0     H 5383   7.582   5.675   5.806 -1.0189  0.3138 -0.5696
   40MOL0     H 5384   7.210   5.770   5.469 -5.0853 -0.4404 -0.6695
   40MOL0     H 5385   7.124   5.984   5.325  2.1679  2.7133 -0.7400
   40MOL0     H 5386   6.400   7.716   5.573  0.8162 -0.1735  3.2879
   40MOL0     H 5387   6.416   7.953   5.631  0.4271 -0.1161 -0.8083
   40MOL0     H 5388   5.975   8.432   5.622 -0.2008 -1.6920 -0.0618
   40MOL0     H 5389   5.960   8.620   5.762  1.1408 -0.3357 -1.6162
   40MOL0     H 5390   6.011   8.843   5.903 -0.3853  1.9288  2.8903
   40MOL0     H 5391   5.889   8.717   5.937 -0.2115  2.9981 -1.2942
   40MOL0     H 5392   5.871   8.917   6.092  0.8254  0.2187 -0.0212
   40MOL0     H 5393   6.023   8.856   6.152 -1.0039  0.0422  0.7661
   40MOL0     H 5394   5.874   8.618   6.179  0.8151 -0.1513 -2.3062
   40MOL0     H 5395   5.740   8.706   6.121 -0.8181  0.3887  0.6875
   40MOL0     H 5396   5.771   8.883   6.297  0.3634 -0.7438  1.0772
   40MOL0     H 5397   5.911   8.800   6.356 -1.0947  2.8663 -0.2917
   40MOL0     H 5398   5.521   8.651   6.497  0.1153 -2.1137  0.5401
   40MOL0     H 5399   6.247   8.470   6.039  0.5961 -1.8045  0.0683
   40MOL0     H 5400   6.285   8.279   5.877 -1.3270 -0.6481  0.8082
   41MOL0     O 5401   5.909   8.382   0.887  0.4151  0.4945  0.1097
   41MOL0     C 5402   5.899   8.438   0.996  0.6868 -0.8081 -0.5037
   41MOL0     O 5403   5.930   8.572   1.011 -0.8099  0.1618 -0.0124
   41MOL0     C 5404   5.963   8.646   0.893 -0.1622 -0.4320  0.2220
   41MOL0     C 5405   6.075   8.734   0.901 -0.3233  0.1236  0.3176
   41MOL0     C 5406   6.130   8.808   0.795  0.7065  0.5294 -0.7407
   41MOL0     C 5407   6.069   8.796   0.671 -0.1205  0.4784  0.0949
   41MOL0     O 5408   6.107   8.868   0.553  0.6277 -0.5531 -0.4535
   41MOL0     C 5409   6.187   8.980   0.567 -0.6960 -0.2010  0.4489
   41MOL0     C 5410   6.231   9.045   0.432 -0.4813  0.7210  0.8844
   41MOL0     C 5411   6.340   8.979   0.358 -0.1187 -0.5588  0.8388
   41MOL0     C 5412   6.368   9.053   0.222  0.3861 -0.1682 -0.5694
   41MOL0     C 5413   6.489   8.980   0.158  0.1568  0.7169  0.3428
   41MOL0     C 5414   6.544   9.065   0.034 -0.0543 -0.4438 -0.0203
   41MOL0     C 5415   6.585   9.194   0.087 -0.0882 -0.1170 -0.7418
   41MOL0     C 5416   6.704   9.263   0.019 -1.1260  0.1741  0.2945
   41MOL0     N 5417   6.723   9.395   0.078 -0.5564 -0.0636  0.4299
   41MOL0     C 5418   6.642   9.499   0.056  1.3416  0.3404 -0.2371
   41MOL0     C 5419   6.674   9.595   0.146 -0.4266  0.5723 -0.1945
   41MOL0     C 5420   6.600   9.730   0.173 -0.0464 -0.0035 -0.5525
   41MOL0     C 5421   6.655   9.844   0.078  0.4488 -0.4847  0.1459
   41MOL0     C 5422   6.807   9.851   0.076 -0.5715 -1.1269  0.0180
   41MOL0     C 5423   6.875   9.948  -0.015  0.8692  0.3662  0.1682
   41MOL0     O 5424   6.871  10.073   0.050  0.3830 -0.3575  0.0759
   41MOL0     C 5425   6.925  10.175  -0.026 -0.4964 -0.1594  0.6258
   41MOL0     C 5426   7.062  10.210  -0.008  0.4297 -0.1422  0.5519
   41MOL0     C 5427   7.124  10.322  -0.063 -0.7274  0.4162  0.6430
   41MOL0     C 5428   7.266  10.355  -0.011 -0.7722  0.2341  0.1616
   41MOL0     C 5429   7.039  10.390  -0.163 -0.2941 -0.2710  0.3110
   41MOL0     C 5430   7.099  10.473  -0.266  0.3272  0.0846 -0.2569
   41MOL0     O 5431   7.010  10.517  -0.361 -0.7151 -0.2158  0.0994
   41MOL0     C 5432   7.059  10.578  -0.466  0.4244 -0.0586 -0.4787
   41MOL0     C 5433   7.128  10.499  -0.568  0.5631 -0.6237  0.1271
   41MOL0     C 5434   7.161  10.560  -0.699  0.2943 -0.3418  0.3511
   41MOL0     C 5435   7.140  10.694  -0.715  0.4122 -0.4452  0.5558
   41MOL0     O 5436   7.195  10.750  -0.831  0.0816  0.5301 -0.8466
   41MOL0     C 5437   7.108  10.839  -0.900  0.6313 -0.4052 -0.1479
   41MOL0     C 5438   7.132  10.836  -1.053 -0.9520  0.4297 -0.1043
   41MOL0     C 5439   7.038  10.911  -1.142  0.4463 -0.5171 -0.2266
   41MOL0     C 5440   6.902  10.844  -1.154  0.2069  0.0525  0.1857
   41MOL0     C 5441   6.785  10.930  -1.215  0.1906 -0.4479  0.0431
   41MOL0     C 5442   6.807  10.975  -1.363  0.5250  0.5979 -0.1746
   41MOL0     C 5443   6.684  11.048  -1.416  0.0763  0.6022 -0.9809
   41MOL0     C 5444   6.702  11.103  -1.552  1.2133  0.4173  0.8486
   41MOL0    Cl 5445   6.698  10.971  -1.663 -0.2865 -0.2484  0.4108
   41MOL0     C 5446   7.084  10.769  -0.611  0.3717 -0.0796 -0.5556
   41MOL0     C 5447   7.035  10.713  -0.495  0.1480 -0.0101  0.6064
   41MOL0     O 5448   7.222  10.478  -0.278  0.1024  0.6792  0.3186
   41MOL0     C 5449   6.901  10.359  -0.172  0.2242  0.0161  0.1785
   41MOL0     C 5450   6.849  10.251  -0.116  0.1254  0.7203 -1.1749
   41MOL0     N 5451   6.776   9.549   0.224 -0.7663 -0.2295  0.8468
   41MOL0     N 5452   6.815   9.433   0.176  0.3781 -0.2314  0.0686
   41MOL0     C 5453   5.955   8.716   0.665 -0.8995  0.7181  0.8548
   41MOL0     C 5454   5.896   8.638   0.768 -0.3255 -0.4236  0.7361
   41MOL0     C 5455   5.864   8.353   1.118  0.0083  0.2408  0.4466
   41MOL0     C 5456   5.886   8.402   1.245  1.0138 -0.4332  0.3792
   41MOL0     C 5457   5.847   8.335   1.358  0.5432 -0.3593  0.1517
   41MOL0     C 5458   5.795   8.209   1.349 -0.8524  1.1447  0.2578
   41MOL0     O 5459   5.773   8.136   1.461  0.7735 -0.6327  0.5477
   41MOL0     C 5460   5.741   7.994   1.453 -0.3737  0.9743  0.1847
   41MOL0     C 5461   5.864   7.906   1.421 -0.1753 -0.3262 -0.0771
   41MOL0     C 5462   5.996   7.962   1.494 -0.4990 -1.6374 -0.3959
   41MOL0     C 5463   6.126   7.888   1.460  0.4855 -0.3850 -1.2483
   41MOL0     C 5464   6.129   7.748   1.499  0.7718 -0.5790 -0.2747
   41MOL0     C 5465   6.108   7.631   1.539 -0.1740 -0.3630  0.0523
   41MOL0     C 5466   5.775   8.155   1.219  0.6362 -0.0776  0.5291
   41MOL0     C 5467   5.796   8.232   1.107  0.4498  0.0028  0.4242
   41MOL0     H 5468   6.126   8.752   0.995  0.7620  0.5835 -0.3366
   41MOL0     H 5469   6.213   8.875   0.813  0.7359  0.2921  0.0606
   41MOL0     H 5470   6.125   9.047   0.627  1.7650 -1.4699  4.9123
   41MOL0     H 5471   6.277   8.972   0.630 -0.6991  3.8119  1.1943
   41MOL0     H 5472   6.138   9.032   0.375  0.2088  1.7572 -0.5336
   41MOL0     H 5473   6.242   9.153   0.444  1.4349  0.7854 -0.9589
   41MOL0     H 5474   6.433   8.983   0.414  0.0239  0.5182  0.5586
   41MOL0     H 5475   6.299   8.881   0.333 -0.3418 -0.4593  0.8080
   41MOL0     H 5476   6.281   9.051   0.156 -1.2425 -1.6674  1.4830
   41MOL0     H 5477   6.376   9.160   0.242  0.0813 -0.0782 -0.9210
   41MOL0     H 5478   6.563   8.964   0.237 -2.7852 -1.4434  2.9384
   41MOL0     H 5479   6.473   8.881   0.116  1.2797  1.0402 -0.9156
   41MOL0     H 5480   6.629   9.009  -0.007 -0.8815 -0.8421 -1.2617
   41MOL0     H 5481   6.469   9.075  -0.044  1.6192  1.4793 -1.5067
   41MOL0     H 5482   6.495   9.255   0.073 -1.0492 -1.3199 -0.0267
   41MOL0     H 5483   6.616   9.192   0.192 -2.3177  1.8815  0.0500
   41MOL0     H 5484   6.669   9.279  -0.084  3.1910  0.2328 -1.3780
   41MOL0     H 5485   6.798   9.208   0.020 -1.6533 -0.7632 -0.2101
   41MOL0     H 5486   6.566   9.506  -0.021  1.9418 -1.7526 -1.1046
   41MOL0     H 5487   6.492   9.719   0.159  0.0927 -3.3498  0.0948
   41MOL0     H 5488   6.613   9.754   0.279 -3.7510 -1.6145  0.4254
   41MOL0     H 5489   6.614   9.934   0.124  1.9948  0.0403  0.5426
   41MOL0     H 5490   6.619   9.832  -0.025  3.4531 -2.1965 -0.8156
   41MOL0     H 5491   6.844   9.755   0.039  1.8552  0.5981 -2.4562
   41MOL0     H 5492   6.847   9.875   0.175  0.3214 -1.8995 -0.1442
   41MOL0     H 5493   6.830   9.947  -0.115  0.8032  0.4358  0.1966
   41MOL0     H 5494   6.976   9.910  -0.029  0.9958 -0.9811  3.7258
   41MOL0     H 5495   7.111  10.152   0.069  1.1800  0.1139  0.2799
   41MOL0     H 5496   7.277  10.463   0.007  1.0899  0.0481  0.3817
   41MOL0     H 5497   7.277  10.308   0.087 -2.0540  2.5041  1.4642
   41MOL0     H 5498   7.336  10.313  -0.084 -2.4613 -2.3248 -0.0929
   41MOL0     H 5499   7.160  10.397  -0.552  2.8060 -0.0157 -0.0965
   41MOL0     H 5500   7.213  10.497  -0.771 -1.0677  0.1145 -1.0856
   41MOL0     H 5501   7.009  10.795  -0.886  0.7046  0.2246  3.1634
   41MOL0     H 5502   7.112  10.939  -0.856 -2.4467 -0.2077 -0.0978
   41MOL0     H 5503   7.234  10.871  -1.072 -1.5059  0.8249 -2.7041
   41MOL0     H 5504   7.130  10.730  -1.078 -0.1497 -0.0192  1.5483
   41MOL0     H 5505   7.085  10.921  -1.241  3.3995 -1.6037  0.9447
   41MOL0     H 5506   7.020  11.013  -1.107  2.0081  0.2939 -1.6012
   41MOL0     H 5507   6.908  10.743  -1.197 -0.4522 -1.2616  2.9580
   41MOL0     H 5508   6.875  10.826  -1.050 -0.9939 -1.3997 -0.3258
   41MOL0     H 5509   6.772  11.020  -1.154  0.5009  1.2427 -2.2516
   41MOL0     H 5510   6.694  10.869  -1.208 -0.6101  0.8542  1.6050
   41MOL0     H 5511   6.892  11.044  -1.358  3.5989 -2.9237  0.7847
   41MOL0     H 5512   6.831  10.886  -1.421  1.0340  1.6459 -1.6414
   41MOL0     H 5513   6.675  11.138  -1.356  0.0664 -1.0303  1.6015
   41MOL0     H 5514   6.591  10.990  -1.408  0.2224  0.4319 -0.4698
   41MOL0     H 5515   6.796  11.156  -1.568  0.6382  1.9370  2.3138
   41MOL0     H 5516   6.628  11.178  -1.582  2.3035  1.7248  1.3587
   41MOL0     H 5517   7.091  10.876  -0.626  2.2565 -0.4707 -3.2191
   41MOL0     H 5518   6.985  10.771  -0.419  0.6429  0.0901  0.8585
   41MOL0     H 5519   6.832  10.420  -0.229  0.3309  0.2439  0.2914
   41MOL0     H 5520   6.742  10.237  -0.129  0.4902 -1.7333 -2.0108
   41MOL0     H 5521   5.908   8.701   0.569  2.7137  2.3933 -1.3871
   41MOL0     H 5522   5.811   8.573   0.749 -1.5700  1.7865 -1.8875
   41MOL0     H 5523   5.938   8.496   1.263  1.0876 -0.4998  0.5206
   41MOL0     H 5524   5.837   8.392   1.450 -0.6421 -0.1158 -0.1005
   41MOL0     H 5525   5.702   7.968   1.552 -0.1655  2.3875  0.6585
   41MOL0     H 5526   5.662   7.978   1.379 -1.2618  2.5361  0.7350
   41MOL0     H 5527   5.892   7.914   1.316 -0.0064  2.1043  0.0758
   41MOL0     H 5528   5.841   7.803   1.450  2.7461 -1.2308 -0.6687
   41MOL0     H 5529   5.986   7.965   1.602  1.5769 -1.8633 -0.1551
   41MOL0     H 5530   5.992   8.069   1.469 -2.5171 -1.4557  0.5453
   41MOL0     H 5531   6.215   7.933   1.503  0.7649 -1.9948 -0.0659
   41MOL0     H 5532   6.145   7.896   1.352 -3.3622 -0.0810 -2.0752
   41MOL0     H 5533   6.085   7.529   1.565 -4.0519 -0.0462 -1.5496
   41MOL0     H 5534   5.737   8.054   1.228 -1.4493  0.8205  3.9212
   41MOL0     H 5535   5.780   8.190   1.008 -2.6916 -2.1154  1.6889
   42MOL0     O 5536  10.324   7.030   2.780  0.7299 -0.0348 -0.1722
   42MOL0     C 5537  10.319   7.100   2.884  0.1866 -0.1391 -0.2855
   42MOL0     O 5538  10.355   7.231   2.902  0.1189  0.0511 -0.0105
   42MOL0     C 5539  10.375   7.318   2.793 -1.1327 -0.5571 -0.2790
   42MOL0     C 5540  10.472   7.413   2.817 -0.4968  0.6085 -0.3138
   42MOL0     C 5541  10.519   7.501   2.714 -0.4213 -0.1135  0.4346
   42MOL0     C 5542  10.477   7.472   2.583 -0.7609 -0.2683  0.1296
   42MOL0     O 5543  10.535   7.539   2.478 -0.4206  0.4501 -0.1547
   42MOL0     C 5544  10.448   7.641   2.422  0.3659 -0.7944 -0.3910
   42MOL0     C 5545  10.488   7.662   2.278  0.1407  0.9170 -0.8222
   42MOL0     C 5546  10.639   7.694   2.265  1.1944 -0.3381  0.2985
   42MOL0     C 5547  10.675   7.811   2.357 -0.1866  0.0605 -0.3975
   42MOL0     C 5548  10.783   7.887   2.282  0.8200  1.2355  0.8858
   42MOL0     C 5549  10.808   8.019   2.344 -0.4200 -0.6368 -0.6052
   42MOL0     C 5550  10.878   8.019   2.490 -0.5145  0.2751  1.1448
   42MOL0     C 5551  11.013   7.943   2.501 -0.2435  1.2718 -0.8299
   42MOL0     N 5552  11.133   8.019   2.467 -0.2454  0.1537  0.3292
   42MOL0     C 5553  11.187   8.129   2.519 -0.0763  0.3515 -0.0117
   42MOL0     C 5554  11.295   8.156   2.438 -0.1006 -0.5813  0.2451
   42MOL0     C 5555  11.367   8.285   2.455  0.2672 -0.5270  0.8162
   42MOL0     C 5556  11.517   8.290   2.464 -0.4357  2.0390 -0.4142
   42MOL0     C 5557  11.586   8.214   2.355  0.7526 -0.0992  0.7296
   42MOL0     C 5558  11.720   8.274   2.338 -0.3604  0.1939  0.5206
   42MOL0     O 5559  11.795   8.213   2.445 -0.2018 -0.5085 -0.0910
   42MOL0     C 5560  11.898   8.273   2.502 -0.0395  0.3143  0.0435
   42MOL0     C 5561  11.943   8.217   2.617 -0.7917 -0.5690  0.7210
   42MOL0     C 5562  12.041   8.277   2.702  0.0143  0.3855 -0.9015
   42MOL0     C 5563  12.078   8.192   2.824 -0.1495  1.1082  0.1524
   42MOL0     C 5564  12.102   8.400   2.662  0.7304  0.1758  0.5667
   42MOL0     C 5565  12.197   8.479   2.748 -0.2323 -1.4956 -0.2093
   42MOL0     O 5566  12.273   8.413   2.831  0.7810  1.0357 -0.0496
   42MOL0     C 5567  12.314   8.466   2.948  0.4115 -0.9027  0.2713
   42MOL0     C 5568  12.221   8.515   3.046 -0.2389  0.0723 -0.0007
   42MOL0     C 5569  12.253   8.555   3.178  0.1427  0.5840 -0.2473
   42MOL0     C 5570  12.377   8.545   3.223 -0.6012 -0.4857  0.2097
   42MOL0     O 5571  12.431   8.590   3.342  1.0213 -0.1007  0.7015
   42MOL0     C 5572  12.338   8.624   3.453 -0.3381 -0.3162 -0.7788
   42MOL0     C 5573  12.413   8.673   3.582 -0.1283  0.1409 -1.7304
   42MOL0     C 5574  12.494   8.558   3.653 -0.5087  0.5235 -1.0961
   42MOL0     C 5575  12.571   8.580   3.785 -0.8056 -0.7337  0.3012
   42MOL0     C 5576  12.681   8.469   3.820 -0.4737  0.2178  0.1573
   42MOL0     C 5577  12.723   8.483   3.970  0.1955  0.2243 -0.1361
   42MOL0     C 5578  12.799   8.614   4.006 -0.9598 -0.8054 -0.1496
   42MOL0     C 5579  12.723   8.742   4.023 -0.0216 -0.1987 -0.0958
   42MOL0    Cl 5580  12.808   8.876   4.103  0.3067 -0.2024 -0.5316
   42MOL0     C 5581  12.481   8.508   3.130 -0.4066 -0.2945  0.1051
   42MOL0     C 5582  12.453   8.475   3.001  0.1719  0.1916  0.9507
   42MOL0     O 5583  12.192   8.600   2.739  0.0741 -0.0555  0.2577
   42MOL0     C 5584  12.052   8.465   2.541 -0.4055  1.3933  0.2517
   42MOL0     C 5585  11.953   8.396   2.468 -0.8677 -0.2894 -0.8395
   42MOL0     N 5586  11.308   8.066   2.335 -0.5504 -0.1278  0.7997
   42MOL0     N 5587  11.214   7.983   2.357 -0.5487  0.2289 -0.2317
   42MOL0     C 5588  10.378   7.385   2.560  0.0701  0.6181  0.2831
   42MOL0     C 5589  10.334   7.306   2.660  0.2811  0.9607  0.0382
   42MOL0     C 5590  10.263   7.037   2.998 -0.9199 -0.0078  0.0643
   42MOL0     C 5591  10.213   6.908   2.992 -0.7392 -0.3386 -0.4454
   42MOL0     C 5592  10.171   6.831   3.100  0.4646  0.4642 -0.1242
   42MOL0     C 5593  10.155   6.890   3.220  0.0313  0.7874 -0.5488
   42MOL0     O 5594  10.108   6.812   3.327  1.0258 -0.3652  0.2406
   42MOL0     C 5595  10.064   6.877   3.449  0.7098 -0.4728 -0.1536
   42MOL0     C 5596  10.042   6.778   3.563 -0.9301  0.1696 -0.1719
   42MOL0     C 5597  10.182   6.755   3.635  0.7268  0.0834 -1.1500
   42MOL0     C 5598  10.162   6.651   3.754 -0.6093 -0.2318 -0.2578
   42MOL0     C 5599  10.085   6.720   3.863 -0.1161  0.1622 -0.0942
   42MOL0     C 5600  10.039   6.771   3.962 -0.7137  0.0506  0.1365
   42MOL0     C 5601  10.197   7.027   3.229  0.6956  0.6809  0.6143
   42MOL0     C 5602  10.244   7.095   3.117  0.7270  0.1752 -0.1293
   42MOL0     H 5603  10.488   7.415   2.925 -1.5872  0.4176 -0.1344
   42MOL0     H 5604  10.581   7.589   2.726 -0.5843 -0.0063  0.4886
   42MOL0     H 5605  10.344   7.607   2.421  0.8083 -2.2028 -1.6676
   42MOL0     H 5606  10.452   7.737   2.474 -0.2480 -0.5851 -0.7075
   42MOL0     H 5607  10.455   7.570   2.228  3.2872 -0.0435 -1.3357
   42MOL0     H 5608  10.422   7.742   2.242 -1.8564 -0.9799 -1.5911
   42MOL0     H 5609  10.704   7.613   2.299 -1.4071 -1.5299  2.9118
   42MOL0     H 5610  10.662   7.707   2.159  1.3633 -2.1088  0.0859
   42MOL0     H 5611  10.586   7.871   2.377 -1.1314 -1.6447  0.7572
   42MOL0     H 5612  10.710   7.777   2.455  1.0465 -0.4630 -0.9978
   42MOL0     H 5613  10.876   7.830   2.272  1.2349  2.2030 -1.2164
   42MOL0     H 5614  10.744   7.905   2.181 -1.4074 -0.2690  1.3994
   42MOL0     H 5615  10.856   8.091   2.278 -2.3136  1.5856  0.3286
   42MOL0     H 5616  10.712   8.069   2.355  0.2350  0.7042 -0.8600
   42MOL0     H 5617  10.872   8.122   2.527 -1.8877  0.3765  0.7039
   42MOL0     H 5618  10.809   7.975   2.562  0.4306 -1.2278  1.1710
   42MOL0     H 5619  11.012   7.854   2.438 -3.5531  0.5228  0.0853
   42MOL0     H 5620  11.029   7.905   2.602  0.2348 -0.1390 -1.4149
   42MOL0     H 5621  11.141   8.190   2.597 -0.2217  1.4773 -0.9571
   42MOL0     H 5622  11.326   8.349   2.376  0.5951 -1.2634  0.0209
   42MOL0     H 5623  11.318   8.337   2.537 -0.6748  0.0263 -0.0669
   42MOL0     H 5624  11.537   8.238   2.558 -1.2802  1.2407 -0.6565
   42MOL0     H 5625  11.551   8.393   2.480  0.4730  1.7386 -0.3245
   42MOL0     H 5626  11.524   8.234   2.267 -0.1079 -2.2733  0.7776
   42MOL0     H 5627  11.603   8.108   2.376 -1.3282 -1.2707 -2.6785
   42MOL0     H 5628  11.717   8.383   2.341  0.2651  0.2745 -0.8485
   42MOL0     H 5629  11.757   8.254   2.237  0.3125  2.0118  0.3673
   42MOL0     H 5630  11.880   8.138   2.656 -1.2569 -0.4281  0.2704
   42MOL0     H 5631  12.181   8.203   2.860  0.0190 -0.5613  0.2651
   42MOL0     H 5632  12.007   8.220   2.902  0.6313  2.2178  0.4771
   42MOL0     H 5633  12.080   8.083   2.811  1.0440  1.0461  0.7338
   42MOL0     H 5634  12.122   8.533   3.006 -0.9286 -1.4946  0.9238
   42MOL0     H 5635  12.160   8.592   3.219  0.5469 -0.6685  1.9729
   42MOL0     H 5636  12.265   8.699   3.421 -0.4378 -1.4917 -3.6737
   42MOL0     H 5637  12.296   8.528   3.485  1.4861 -0.8192  0.2156
   42MOL0     H 5638  12.484   8.749   3.550  4.1060 -2.5065  0.4964
   42MOL0     H 5639  12.349   8.716   3.661  3.4170  0.3663  1.2923
   42MOL0     H 5640  12.569   8.512   3.588  1.1304  1.7627 -0.1423
   42MOL0     H 5641  12.427   8.477   3.683  0.4570  1.0880  3.3382
   42MOL0     H 5642  12.628   8.673   3.772 -1.8071 -0.1968 -0.4396
   42MOL0     H 5643  12.503   8.601   3.869 -2.3901 -1.4739 -0.7341
   42MOL0     H 5644  12.774   8.480   3.764  3.1724  0.2306  5.4131
   42MOL0     H 5645  12.633   8.372   3.803  0.7433  0.1328 -3.3606
   42MOL0     H 5646  12.637   8.475   4.037 -3.4073 -1.6338 -4.3790
   42MOL0     H 5647  12.794   8.406   4.001  0.5684  0.9823  0.9250
   42MOL0     H 5648  12.873   8.628   3.926  1.5729  2.9434  2.5025
   42MOL0     H 5649  12.851   8.588   4.098 -0.6957  0.4824  0.0848
   42MOL0     H 5650  12.628   8.726   4.075  0.3541 -0.1771  0.6085
   42MOL0     H 5651  12.710   8.784   3.923  4.1079  0.9350 -0.3428
   42MOL0     H 5652  12.585   8.502   3.160 -0.8647 -0.2999  1.7978
   42MOL0     H 5653  12.531   8.419   2.950 -0.8446 -1.4104  1.0628
   42MOL0     H 5654  12.108   8.551   2.504  1.2143 -0.1126 -0.9884
   42MOL0     H 5655  11.919   8.451   2.380 -2.0229  0.8923  0.2966
   42MOL0     H 5656  10.340   7.377   2.459 -1.1924 -1.3967  0.8864
   42MOL0     H 5657  10.271   7.221   2.637  1.1651 -0.0031  1.0557
   42MOL0     H 5658  10.226   6.847   2.903  0.2247  0.6833 -1.0390
   42MOL0     H 5659  10.136   6.730   3.085  0.4164  0.4281  0.2431
   42MOL0     H 5660  10.128   6.953   3.494  0.4740 -0.6712  0.5382
   42MOL0     H 5661   9.967   6.922   3.425  1.3702  0.2283 -1.6557
   42MOL0     H 5662  10.000   6.684   3.526  0.9029 -0.4896 -0.6689
   42MOL0     H 5663   9.977   6.819   3.641  0.2399 -2.1126  2.1240
   42MOL0     H 5664  10.228   6.847   3.671 -1.0631  0.8118 -0.5976
   42MOL0     H 5665  10.258   6.709   3.571  2.9278  1.8412  0.0681
   42MOL0     H 5666  10.254   6.614   3.802 -1.2681  0.9826  2.0908
   42MOL0     H 5667  10.103   6.565   3.720  0.9814 -1.8441  0.8538
   42MOL0     H 5668  10.015   6.824   4.052  3.1325  2.1137  0.1557
   42MOL0     H 5669  10.198   7.080   3.323 -1.1828  0.1464  0.9710
   42MOL0     H 5670  10.263   7.201   3.128  0.4878  0.0589  1.5351
   43MOL0     O 5671  11.093   5.901   8.445  0.0243  1.0164 -0.3024
   43MOL0     C 5672  11.206   5.950   8.444 -0.3073 -0.0525 -0.6692
   43MOL0     O 5673  11.257   6.040   8.367 -0.6128 -0.6665  0.6206
   43MOL0     C 5674  11.175   6.124   8.290  0.8503  0.0646  0.4925
   43MOL0     C 5675  11.238   6.195   8.187  0.6162  0.5297 -0.0127
   43MOL0     C 5676  11.159   6.278   8.103 -0.7352  0.1160 -0.6601
   43MOL0     C 5677  11.022   6.297   8.128 -0.6712 -0.0664  0.3605
   43MOL0     O 5678  10.935   6.369   8.044  0.1768  1.0091 -0.8448
   43MOL0     C 5679  10.972   6.504   8.020 -1.0075 -0.0479 -0.0842
   43MOL0     C 5680  10.978   6.597   8.145 -0.4653  1.6446 -1.1855
   43MOL0     C 5681  10.978   6.744   8.110  0.4210  0.2782 -0.5005
   43MOL0     C 5682  11.007   6.843   8.220  0.2298  0.5836  0.5558
   43MOL0     C 5683  10.910   6.840   8.340  0.1653 -0.6512  0.0824
   43MOL0     C 5684  10.903   6.969   8.414 -0.1853  0.0911  0.0525
   43MOL0     C 5685  10.797   6.958   8.521  0.5528 -0.7669 -0.2505
   43MOL0     C 5686  10.764   7.095   8.576 -0.7033 -0.1428 -0.0954
   43MOL0     N 5687  10.853   7.136   8.686 -0.8823 -0.0722 -0.0371
   43MOL0     C 5688  10.960   7.216   8.676  0.6531  0.3436 -0.2321
   43MOL0     C 5689  11.002   7.250   8.806  0.3845  0.0090  0.8509
   43MOL0     C 5690  11.127   7.320   8.851 -0.1547  0.6463  0.3037
   43MOL0     C 5691  11.234   7.337   8.742  0.0926 -0.6455 -0.7751
   43MOL0     C 5692  11.359   7.418   8.780  0.3188  0.2822 -0.1642
   43MOL0     C 5693  11.480   7.339   8.830  0.3959  0.5320 -0.0212
   43MOL0     O 5694  11.511   7.230   8.731  0.8790  0.3579 -0.0780
   43MOL0     C 5695  11.612   7.141   8.754  0.1092 -0.1775 -0.2153
   43MOL0     C 5696  11.631   7.048   8.651  0.0018 -0.1695  0.5334
   43MOL0     C 5697  11.743   6.964   8.646  0.3789 -0.1981 -0.1796
   43MOL0     C 5698  11.752   6.861   8.534 -0.3929  0.7457 -0.8150
   43MOL0     C 5699  11.841   6.982   8.745  0.3897  0.5101  0.3674
   43MOL0     C 5700  11.978   6.916   8.749  1.2522  0.4392  0.0744
   43MOL0     O 5701  12.063   6.956   8.852  0.6746  0.3251  0.0453
   43MOL0     C 5702  12.178   6.885   8.862  0.8300 -0.6531 -0.6701
   43MOL0     C 5703  12.291   6.921   8.797 -0.1060 -1.1745  0.9622
   43MOL0     C 5704  12.411   6.868   8.836 -0.2344 -1.1162 -0.6665
   43MOL0     C 5705  12.420   6.754   8.919 -0.1318 -0.2376 -0.5517
   43MOL0     O 5706  12.543   6.688   8.945 -0.2691  0.2060 -0.7112
   43MOL0     C 5707  12.661   6.752   8.891  0.0431 -0.1079 -0.3747
   43MOL0     C 5708  12.789   6.673   8.936  0.6928  0.5123  0.7897
   43MOL0     C 5709  12.794   6.670   9.092 -0.5713  0.3678 -0.0308
   43MOL0     C 5710  12.890   6.558   9.144  0.7310  0.0167 -0.3517
   43MOL0     C 5711  12.919   6.550   9.299  0.0449 -0.1934  0.8006
   43MOL0     C 5712  13.003   6.422   9.340  0.0755 -0.2681 -0.1314
   43MOL0     C 5713  13.140   6.417   9.281 -0.7350 -0.1760  0.2933
   43MOL0     C 5714  13.246   6.368   9.384 -0.7513  0.1959 -1.0250
   43MOL0    Cl 5715  13.180   6.222   9.480  0.2942  0.3632 -0.3676
   43MOL0     C 5716  12.304   6.701   8.974  0.5206  0.8490  0.6849
   43MOL0     C 5717  12.186   6.774   8.943 -0.1487  0.4154  0.0268
   43MOL0     O 5718  12.020   6.848   8.652 -0.1289  0.0558  0.1517
   43MOL0     C 5719  11.815   7.068   8.858  0.9214 -0.9529 -1.2780
   43MOL0     C 5720  11.696   7.142   8.858  1.3415  0.9411 -0.6570
   43MOL0     N 5721  10.922   7.183   8.891  0.2663  0.1113 -0.2244
   43MOL0     N 5722  10.838   7.109   8.815 -1.0048  0.0583 -0.3700
   43MOL0     C 5723  10.967   6.239   8.240 -0.7248  0.2237 -0.4337
   43MOL0     C 5724  11.040   6.152   8.318 -0.4522 -0.3982  0.8394
   43MOL0     C 5725  11.292   5.883   8.540 -1.0845  0.3427  0.3797
   43MOL0     C 5726  11.351   5.975   8.638 -0.2805  0.3615 -0.0038
   43MOL0     C 5727  11.429   5.928   8.747  0.7799  0.8107 -0.4721
   43MOL0     C 5728  11.446   5.785   8.758 -0.8328 -0.1412 -0.7076
   43MOL0     O 5729  11.538   5.728   8.851  0.3861  0.6067 -0.6103
   43MOL0     C 5730  11.541   5.798   8.980 -0.5413 -0.8337 -0.3849
   43MOL0     C 5731  11.602   5.710   9.088  0.6911  0.0040 -0.0632
   43MOL0     C 5732  11.572   5.763   9.231 -0.3742  0.6699  0.0479
   43MOL0     C 5733  11.653   5.681   9.334  0.2932 -0.0793  0.5703
   43MOL0     C 5734  11.601   5.688   9.469 -0.6594  0.3064 -1.1690
   43MOL0     C 5735  11.555   5.674   9.578 -0.0308  0.4833 -0.1011
   43MOL0     C 5736  11.389   5.706   8.667  0.9173 -0.3818 -0.2128
   43MOL0     C 5737  11.301   5.748   8.569  0.2611  0.1290 -0.1835
   43MOL0     H 5738  11.343   6.190   8.161  0.5357  2.2906 -0.8296
   43MOL0     H 5739  11.194   6.318   8.009 -1.9867 -1.1013 -1.6951
   43MOL0     H 5740  11.067   6.513   7.967  1.2392  2.4893  3.8675
   43MOL0     H 5741  10.897   6.536   7.947 -1.1988 -1.1972 -0.4082
   43MOL0     H 5742  10.904   6.570   8.222  1.9507  0.2320  0.7843
   43MOL0     H 5743  11.076   6.582   8.192  0.0080  0.7965 -2.4209
   43MOL0     H 5744  11.047   6.757   8.026 -1.2234  1.8427 -1.6918
   43MOL0     H 5745  10.880   6.762   8.064  1.0749 -1.9840 -3.0080
   43MOL0     H 5746  11.108   6.820   8.255  0.8503  1.0781 -0.8356
   43MOL0     H 5747  11.005   6.940   8.168 -2.8247 -1.2706 -3.3165
   43MOL0     H 5748  10.815   6.800   8.306  0.0167  1.5392 -2.3471
   43MOL0     H 5749  10.959   6.762   8.399 -1.8094 -2.7335 -0.9117
   43MOL0     H 5750  11.001   6.986   8.460  0.5023  0.9421 -1.6288
   43MOL0     H 5751  10.901   7.045   8.335  1.2917 -0.9806 -1.0683
   43MOL0     H 5752  10.706   6.916   8.478 -0.8209 -0.0783  1.8720
   43MOL0     H 5753  10.837   6.891   8.598 -1.1147 -1.3481  0.1390
   43MOL0     H 5754  10.660   7.096   8.608 -1.4050 -1.4400 -2.1487
   43MOL0     H 5755  10.768   7.168   8.495 -3.8795 -0.6513 -0.8278
   43MOL0     H 5756  10.999   7.233   8.577  0.9289 -1.9454 -0.5654
   43MOL0     H 5757  11.096   7.418   8.888  1.2246  0.5964  1.6679
   43MOL0     H 5758  11.170   7.269   8.938 -0.7523  0.6367  0.6044
   43MOL0     H 5759  11.187   7.404   8.669  6.3793  3.6700 -1.7036
   43MOL0     H 5760  11.267   7.243   8.698 -3.2454 -0.7157 -3.5247
   43MOL0     H 5761  11.347   7.505   8.845  0.2695 -0.6606  1.1251
   43MOL0     H 5762  11.384   7.463   8.683  2.2828 -0.6759 -0.1438
   43MOL0     H 5763  11.452   7.280   8.917 -0.5191 -1.1078 -1.3578
   43MOL0     H 5764  11.562   7.411   8.831 -0.0529  1.0539 -0.2116
   43MOL0     H 5765  11.561   7.055   8.569  0.9201 -0.1495 -0.2646
   43MOL0     H 5766  11.650   6.832   8.508 -1.2628  0.4703  2.4083
   43MOL0     H 5767  11.799   6.910   8.448 -0.5158  4.6800  1.1408
   43MOL0     H 5768  11.809   6.773   8.565  2.4812  2.5598 -0.5922
   43MOL0     H 5769  12.290   7.009   8.734 -1.6805 -1.4193  0.6017
   43MOL0     H 5770  12.494   6.932   8.810 -1.6396  0.9142 -0.4373
   43MOL0     H 5771  12.645   6.754   8.782  1.3033 -0.4539 -0.5845
   43MOL0     H 5772  12.673   6.856   8.922 -0.9927  0.1987 -0.9293
   43MOL0     H 5773  12.770   6.573   8.896  0.9473  1.4872 -1.9847
   43MOL0     H 5774  12.877   6.720   8.891  0.1908  0.8832  0.1865
   43MOL0     H 5775  12.696   6.646   9.133 -0.2171  2.8997  2.5976
   43MOL0     H 5776  12.826   6.765   9.137  0.3426 -0.1163  0.3605
   43MOL0     H 5777  12.844   6.465   9.109 -0.3388 -0.4416  2.0468
   43MOL0     H 5778  12.981   6.572   9.084  2.1331 -2.2043  1.0982
   43MOL0     H 5779  12.823   6.531   9.350 -1.0006 -0.8499 -1.3020
   43MOL0     H 5780  12.971   6.641   9.329  0.0147 -0.2907  1.1571
   43MOL0     H 5781  13.002   6.424   9.449  0.5520  1.2094 -0.1245
   43MOL0     H 5782  12.935   6.344   9.305 -1.9176  0.7326  1.2899
   43MOL0     H 5783  13.162   6.521   9.257 -1.4410  0.2175  1.2430
   43MOL0     H 5784  13.142   6.351   9.194  1.5778  0.8359 -0.5129
   43MOL0     H 5785  13.278   6.450   9.449  0.4727 -0.5998 -0.5949
   43MOL0     H 5786  13.331   6.337   9.323 -1.6448  3.3436 -4.2242
   43MOL0     H 5787  12.294   6.607   9.027 -1.5563 -0.5601 -1.9353
   43MOL0     H 5788  12.090   6.741   8.981 -0.1516  2.0128  1.5501
   43MOL0     H 5789  11.891   7.075   8.935 -0.1477  3.4307 -0.3673
   43MOL0     H 5790  11.680   7.207   8.943  2.8420 -3.7682  3.7935
   43MOL0     H 5791  10.860   6.245   8.252 -1.0952 -3.2918 -0.8208
   43MOL0     H 5792  10.981   6.107   8.397 -0.9590  0.0185  0.6979
   43MOL0     H 5793  11.339   6.080   8.615  0.7029  0.9349  1.8802
   43MOL0     H 5794  11.482   5.987   8.821  1.5145  0.6748 -0.8820
   43MOL0     H 5795  11.592   5.895   8.986 -0.5428 -0.9196  1.1892
   43MOL0     H 5796  11.438   5.815   9.014 -0.3964  1.1501 -0.8010
   43MOL0     H 5797  11.711   5.706   9.083  1.1837  2.5696  4.1963
   43MOL0     H 5798  11.564   5.610   9.065  1.7864  0.4855 -5.3510
   43MOL0     H 5799  11.464   5.750   9.244 -0.5676  1.7051 -0.3613
   43MOL0     H 5800  11.596   5.869   9.245  1.5608  0.7874 -3.2087
   43MOL0     H 5801  11.755   5.718   9.331 -0.5338  2.2905 -0.8499
   43MOL0     H 5802  11.651   5.576   9.304 -1.5695  0.2475 -0.6220
   43MOL0     H 5803  11.510   5.667   9.675  1.1549  0.1547  0.4393
   43MOL0     H 5804  11.419   5.601   8.668 -3.4756 -1.8564  2.1131
   43MOL0     H 5805  11.252   5.668   8.513  1.6999  0.0040 -1.3169
   44MOL0     O 5806   0.658   4.809   7.169 -0.2177  0.4243 -0.1166
   44MOL0     C 5807   0.777   4.827   7.175  0.5947 -0.1492 -0.8356
   44MOL0     O 5808   0.828   4.936   7.244 -0.0402  0.4316  0.6471
   44MOL0     C 5809   0.727   5.029   7.280 -0.6436  0.6399  0.0026
   44MOL0     C 5810   0.701   5.141   7.195 -0.0839  1.0741  0.6624
   44MOL0     C 5811   0.603   5.236   7.233  0.4942 -0.0971  0.7180
   44MOL0     C 5812   0.534   5.217   7.352 -0.4472 -0.2546 -0.2004
   44MOL0     O 5813   0.443   5.313   7.364 -1.2387 -0.0378 -0.0480
   44MOL0     C 5814   0.352   5.281   7.474  0.1466 -0.6233 -0.4674
   44MOL0     C 5815   0.269   5.405   7.498 -1.1283 -0.5136  0.4968
   44MOL0     C 5816   0.173   5.419   7.388  0.6433  0.4798  0.0244
   44MOL0     C 5817   0.097   5.552   7.405 -0.5328 -1.2658  0.3928
   44MOL0     C 5818   0.176   5.673   7.348  0.5269 -0.0357  0.0569
   44MOL0     C 5819   0.113   5.809   7.360 -0.4393  1.1259  0.6388
   44MOL0     C 5820   0.179   5.919   7.272  0.0971  0.1954 -0.7853
   44MOL0     C 5821   0.160   5.883   7.119 -0.1232 -0.9096 -0.6204
   44MOL0     N 5822   0.036   5.952   7.082  0.0982 -0.4233 -0.3199
   44MOL0     C 5823  -0.081   5.880   7.080 -0.3939  0.1841 -1.1126
   44MOL0     C 5824  -0.181   5.965   7.065  0.6818 -0.4885  0.6039
   44MOL0     C 5825  -0.330   5.917   7.060 -0.3314 -0.1965  0.4036
   44MOL0     C 5826  -0.383   5.917   7.207  0.0581 -0.0589  0.0824
   44MOL0     C 5827  -0.518   5.856   7.238 -0.8313 -0.0809 -0.6272
   44MOL0     C 5828  -0.522   5.701   7.221 -0.0705  0.2108 -0.7956
   44MOL0     O 5829  -0.656   5.656   7.191 -0.0488 -0.2783 -0.0726
   44MOL0     C 5830  -0.742   5.641   7.301 -0.1690  0.0720 -0.4349
   44MOL0     C 5831  -0.713   5.564   7.415  0.5710 -0.1647  0.1160
   44MOL0     C 5832  -0.802   5.570   7.530  0.0480  0.7941  0.7173
   44MOL0     C 5833  -0.771   5.488   7.647 -0.1139 -0.1708  0.1395
   44MOL0     C 5834  -0.922   5.640   7.518  0.4430  0.6380 -0.0034
   44MOL0     C 5835  -1.035   5.654   7.617  0.3873  0.1538 -0.2831
   44MOL0     O 5836  -1.162   5.644   7.568 -0.4929  0.5526  0.1926
   44MOL0     C 5837  -1.256   5.660   7.664 -0.8016 -0.0808  0.0051
   44MOL0     C 5838  -1.306   5.551   7.741 -0.8935 -0.9500  1.0645
   44MOL0     C 5839  -1.392   5.573   7.847  0.1174 -0.2936  0.3410
   44MOL0     C 5840  -1.436   5.700   7.887 -0.3961 -0.8043  0.5497
   44MOL0     O 5841  -1.526   5.736   7.983 -0.5361 -0.4308 -0.4678
   44MOL0     C 5842  -1.587   5.641   8.068  0.0202 -0.2702  0.9863
   44MOL0     C 5843  -1.498   5.604   8.184 -0.5452  0.0799 -0.4786
   44MOL0     C 5844  -1.559   5.507   8.286 -0.6513 -0.0028  0.5066
   44MOL0     C 5845  -1.644   5.583   8.376 -0.2118 -0.4595 -0.8397
   44MOL0     C 5846  -1.741   5.495   8.447 -0.2070  0.0077  0.1878
   44MOL0     C 5847  -1.805   5.576   8.560  0.3314  0.5518 -0.6821
   44MOL0     C 5848  -1.872   5.709   8.532 -0.8037  0.2623  0.3406
   44MOL0     C 5849  -1.995   5.710   8.444 -1.1877 -0.1140 -0.2770
   44MOL0    Cl 5850  -2.122   5.814   8.515 -0.0671 -0.4062 -0.3047
   44MOL0     C 5851  -1.389   5.814   7.808 -0.0629 -0.9101 -0.0709
   44MOL0     C 5852  -1.299   5.789   7.701 -0.4630 -0.5915 -0.4063
   44MOL0     O 5853  -1.006   5.672   7.742 -0.7520 -0.1896  0.1034
   44MOL0     C 5854  -0.944   5.703   7.401 -0.0000  0.2395  0.7108
   44MOL0     C 5855  -0.854   5.714   7.299 -0.0649 -0.0188 -0.1138
   44MOL0     N 5856  -0.124   6.089   7.067 -0.3054 -1.2921  0.4756
   44MOL0     N 5857   0.006   6.080   7.071  0.1362 -0.4416 -0.3865
   44MOL0     C 5858   0.552   5.101   7.426 -0.5390 -0.3918  0.6436
   44MOL0     C 5859   0.651   5.013   7.396 -0.1961 -0.0448 -1.2817
   44MOL0     C 5860   0.864   4.720   7.126 -0.6207 -1.3832 -0.1668
   44MOL0     C 5861   0.814   4.636   7.033  0.3167 -0.2539  0.2379
   44MOL0     C 5862   0.901   4.548   6.965 -0.3136 -1.2939  0.7451
   44MOL0     C 5863   1.039   4.521   7.008 -0.0787  0.3060  0.5893
   44MOL0     O 5864   1.132   4.451   6.942 -0.1144  0.7631 -0.0323
   44MOL0     C 5865   1.107   4.394   6.807 -0.3894 -0.5318  0.0159
   44MOL0     C 5866   1.080   4.240   6.811  0.6362  0.6733  0.1825
   44MOL0     C 5867   1.158   4.160   6.916  0.5224  0.5109 -0.0720
   44MOL0     C 5868   1.189   4.026   6.870  0.8033  0.0186  0.7399
   44MOL0     C 5869   1.286   4.009   6.771 -0.6973  0.2336 -0.7576
   44MOL0     C 5870   1.363   4.002   6.682 -1.1260 -0.0422  0.7437
   44MOL0     C 5871   1.075   4.587   7.128  0.3611 -0.1654  0.0161
   44MOL0     C 5872   0.993   4.696   7.180  0.1817  0.6516  0.2517
   44MOL0     H 5873   0.748   5.164   7.100  0.2189  0.3832  0.6382
   44MOL0     H 5874   0.582   5.314   7.160  0.8365 -1.5866 -1.0450
   44MOL0     H 5875   0.292   5.190   7.463  2.8411 -2.7263  1.1067
   44MOL0     H 5876   0.408   5.266   7.566  0.7822 -0.1845 -0.7731
   44MOL0     H 5877   0.220   5.399   7.595  1.5481 -0.3084  1.9370
   44MOL0     H 5878   0.330   5.495   7.508 -0.7519 -0.8359  1.1365
   44MOL0     H 5879   0.210   5.426   7.286 -0.4603  3.4153 -0.2483
   44MOL0     H 5880   0.101   5.337   7.398  2.1816 -0.8829  0.3171
   44MOL0     H 5881   0.009   5.547   7.339 -1.1258  1.2235  0.8961
   44MOL0     H 5882   0.077   5.566   7.511  2.3081 -0.8198  0.9455
   44MOL0     H 5883   0.265   5.687   7.409 -0.2588  3.4930  0.6347
   44MOL0     H 5884   0.209   5.654   7.245  4.2018  1.8175  0.7369
   44MOL0     H 5885   0.015   5.795   7.313  0.5573  0.9402 -1.5039
   44MOL0     H 5886   0.117   5.840   7.465  2.1119  5.0505 -0.4057
   44MOL0     H 5887   0.133   6.016   7.295  1.2079  0.5462  0.0355
   44MOL0     H 5888   0.286   5.939   7.286 -0.0716 -0.2256  1.3416
   44MOL0     H 5889   0.158   5.776   7.097 -1.3704 -1.3095  1.1991
   44MOL0     H 5890   0.236   5.941   7.067  0.0120  0.5191  1.0762
   44MOL0     H 5891  -0.100   5.778   7.109  3.6554 -0.1942  0.9544
   44MOL0     H 5892  -0.376   5.984   6.986  0.6732  0.2891  0.2028
   44MOL0     H 5893  -0.341   5.813   7.029 -2.1325  0.0062  0.2372
   44MOL0     H 5894  -0.368   6.018   7.248  2.6408 -0.2000 -0.3136
   44MOL0     H 5895  -0.308   5.862   7.264 -1.2624 -1.0722  0.8951
   44MOL0     H 5896  -0.593   5.898   7.170 -0.5637  1.0649 -0.2189
   44MOL0     H 5897  -0.550   5.887   7.338 -1.5589 -1.8719 -0.2620
   44MOL0     H 5898  -0.485   5.660   7.316 -2.5857  0.6029  0.4364
   44MOL0     H 5899  -0.456   5.669   7.140  1.6654  3.8185 -1.0372
   44MOL0     H 5900  -0.634   5.490   7.419  0.2830 -0.5180 -0.5068
   44MOL0     H 5901  -0.784   5.383   7.623 -1.2012 -0.0241  0.0344
   44MOL0     H 5902  -0.669   5.516   7.673 -1.6035  2.3355  4.3043
   44MOL0     H 5903  -0.845   5.508   7.725 -0.3399  0.8150 -0.3016
   44MOL0     H 5904  -1.266   5.452   7.720 -0.3173 -0.2900 -1.1294
   44MOL0     H 5905  -1.429   5.479   7.885  0.6259 -0.5975  0.0964
   44MOL0     H 5906  -1.678   5.689   8.104  0.3820  1.0668  0.1732
   44MOL0     H 5907  -1.603   5.546   8.016  1.7010 -1.1266  1.9283
   44MOL0     H 5908  -1.410   5.557   8.139  0.4611 -0.0094  1.4545
   44MOL0     H 5909  -1.456   5.691   8.237  1.9172 -0.6769 -1.0556
   44MOL0     H 5910  -1.468   5.460   8.324 -0.4177 -1.2051 -1.4162
   44MOL0     H 5911  -1.611   5.442   8.215  1.7375  1.2066 -2.6011
   44MOL0     H 5912  -1.572   5.618   8.451  0.2844  0.8412 -1.8890
   44MOL0     H 5913  -1.692   5.668   8.328  0.2882  1.0131  1.1347
   44MOL0     H 5914  -1.663   5.430   8.489  1.7847 -0.7640 -4.1499
   44MOL0     H 5915  -1.815   5.440   8.387 -1.6709  2.0022  0.0623
   44MOL0     H 5916  -1.886   5.528   8.615 -0.9244  2.9722 -0.2893
   44MOL0     H 5917  -1.732   5.597   8.639  1.0878 -2.3759 -0.5057
   44MOL0     H 5918  -1.809   5.783   8.480 -0.3140  1.1026  2.0682
   44MOL0     H 5919  -1.889   5.763   8.625  1.3564 -0.8638  1.4565
   44MOL0     H 5920  -2.033   5.608   8.431  3.3874 -2.3683  1.7054
   44MOL0     H 5921  -1.963   5.749   8.347 -1.5388  0.3422 -0.2093
   44MOL0     H 5922  -1.412   5.918   7.829 -0.5118 -0.9927 -0.1373
   44MOL0     H 5923  -1.274   5.878   7.645 -0.6702  1.4855  2.5389
   44MOL0     H 5924  -1.038   5.751   7.376  0.1286  0.5496  0.8184
   44MOL0     H 5925  -0.886   5.764   7.209 -2.9174 -0.7747  0.3843
   44MOL0     H 5926   0.502   5.082   7.520 -0.8264 -3.3266 -0.0148
   44MOL0     H 5927   0.669   4.928   7.461  4.6831  2.3030  0.9692
   44MOL0     H 5928   0.718   4.655   6.987  0.4274 -0.5100 -0.1029
   44MOL0     H 5929   0.860   4.492   6.881  0.2241 -1.9760  0.9255
   44MOL0     H 5930   1.031   4.452   6.753  1.9562 -0.1346 -3.1935
   44MOL0     H 5931   1.199   4.409   6.749  2.1186 -3.7912  2.7765
   44MOL0     H 5932   1.113   4.212   6.711  2.3450  1.7740  0.3867
   44MOL0     H 5933   0.973   4.227   6.827  0.3556 -1.5094 -2.8537
   44MOL0     H 5934   1.087   4.159   7.000 -0.3965 -0.0455 -0.8415
   44MOL0     H 5935   1.259   4.193   6.942  0.5588  0.7162 -0.4843
   44MOL0     H 5936   1.095   3.990   6.826 -1.0831  2.1503  2.7567
   44MOL0     H 5937   1.201   3.957   6.954 -0.9942 -0.6731  0.4848
   44MOL0     H 5938   1.438   3.994   6.606 -1.7525  1.8376 -0.1445
   44MOL0     H 5939   1.174   4.570   7.169  1.0257  1.3122 -0.8658
   44MOL0     H 5940   1.028   4.754   7.265  4.6755 -1.2528 -0.0104
   45MOL0     O 5941   4.591   2.840   9.939 -1.3376 -0.1359 -0.3940
   45MOL0     C 5942   4.469   2.823   9.964 -0.1566  0.8674 -0.0518
   45MOL0     O 5943   4.387   2.897  10.050 -0.0737  0.3554  0.0347
   45MOL0     C 5944   4.428   3.012  10.121  0.8678  1.2451  0.7834
   45MOL0     C 5945   4.558   3.062  10.141  0.2025  0.7834 -0.0202
   45MOL0     C 5946   4.578   3.181  10.226 -0.0757 -0.1278 -0.2380
   45MOL0     C 5947   4.466   3.249  10.277 -0.2028 -0.3347 -0.2539
   45MOL0     O 5948   4.500   3.365  10.344  0.6745  0.3393 -0.1907
   45MOL0     C 5949   4.422   3.480  10.329  0.1436 -0.3610 -0.2251
   45MOL0     C 5950   4.402   3.549  10.461  0.3851 -0.0299 -0.3063
   45MOL0     C 5951   4.305   3.456  10.547 -1.0965 -0.8934  0.3137
   45MOL0     C 5952   4.233   3.533  10.669 -0.2318 -0.5848  0.8402
   45MOL0     C 5953   4.156   3.439  10.743  0.1512  0.4242 -0.0176
   45MOL0     C 5954   4.033   3.377  10.673  1.3473 -0.6783  0.7600
   45MOL0     C 5955   3.951   3.280  10.765 -0.1167  0.0528  0.0082
   45MOL0     C 5956   3.816   3.340  10.820 -0.4361  0.1694  0.0212
   45MOL0     N 5957   3.815   3.466  10.884 -0.6798 -0.1770 -0.3947
   45MOL0     C 5958   3.837   3.587  10.829 -0.1473  0.4731 -0.4950
   45MOL0     C 5959   3.862   3.666  10.940  0.1580 -0.1820  0.3928
   45MOL0     C 5960   3.922   3.806  10.944 -0.0765  0.2468  0.2350
   45MOL0     C 5961   3.816   3.901  10.886  0.6227  0.4395  0.5112
   45MOL0     C 5962   3.871   4.049  10.907 -0.3553  0.1781 -0.7091
   45MOL0     C 5963   3.757   4.139  10.873  0.6253  0.0705 -0.0287
   45MOL0     O 5964   3.788   4.279  10.901 -0.1466 -1.0873  0.3039
   45MOL0     C 5965   3.697   4.366  10.830 -0.7836  0.6097  0.1032
   45MOL0     C 5966   3.595   4.451  10.889  0.1019  0.1746 -0.0185
   45MOL0     C 5967   3.503   4.532  10.804 -0.1738  0.2722 -0.2353
   45MOL0     C 5968   3.410   4.633  10.868  0.0969  0.3156 -0.2462
   45MOL0     C 5969   3.520   4.533  10.663  0.3565  0.5159 -0.5074
   45MOL0     C 5970   3.441   4.607  10.566 -0.2899  0.5013  1.0291
   45MOL0     O 5971   3.487   4.621  10.435  0.1424 -0.0929 -0.7162
   45MOL0     C 5972   3.409   4.687  10.349  0.2319 -0.0976  0.0459
   45MOL0     C 5973   3.419   4.824  10.343 -0.6485 -0.5635  0.9977
   45MOL0     C 5974   3.349   4.900  10.243  0.5585  1.2978 -0.2333
   45MOL0     C 5975   3.256   4.839  10.161  0.5352  0.8718  0.2279
   45MOL0     O 5976   3.195   4.892  10.054 -0.2873  0.0626 -0.2232
   45MOL0     C 5977   3.154   5.034  10.065  1.2433 -0.2594  0.5253
   45MOL0     C 5978   3.068   5.060   9.943 -0.7810  0.6302  0.2115
   45MOL0     C 5979   2.939   4.986   9.940  0.3825 -0.4236 -0.3854
   45MOL0     C 5980   2.857   5.033   9.814 -0.1113 -0.6660  0.0892
   45MOL0     C 5981   2.730   4.956   9.791 -0.7016  0.5239 -1.2731
   45MOL0     C 5982   2.653   5.014   9.678  0.1857 -0.3951  0.1657
   45MOL0     C 5983   2.546   4.914   9.615 -0.0741  0.4580 -0.5508
   45MOL0     C 5984   2.505   4.944   9.474  0.7427 -1.3094  0.1080
   45MOL0    Cl 5985   2.407   4.813   9.409 -0.9131  0.3337 -0.3098
   45MOL0     C 5986   3.239   4.698  10.177  0.4701  0.7230 -0.2191
   45MOL0     C 5987   3.321   4.625  10.263  0.1939 -0.5536  0.1347
   45MOL0     O 5988   3.329   4.658  10.605 -0.3591 -0.6231  0.2062
   45MOL0     C 5989   3.620   4.456  10.618 -0.1573 -0.1844  0.8342
   45MOL0     C 5990   3.699   4.366  10.695 -0.0613 -0.8691  0.7325
   45MOL0     N 5991   3.850   3.596  11.056 -0.1820  0.6729  0.0212
   45MOL0     N 5992   3.828   3.478  11.018 -0.3761  0.5935  0.0531
   45MOL0     C 5993   4.340   3.198  10.276 -1.0582  0.7820 -0.5145
   45MOL0     C 5994   4.326   3.083  10.195 -0.9058 -0.1979  0.1797
   45MOL0     C 5995   4.398   2.728   9.873  0.6928 -0.2436  0.6365
   45MOL0     C 5996   4.276   2.668   9.922 -0.0193 -0.3249 -0.5426
   45MOL0     C 5997   4.213   2.567   9.847 -0.3360  0.2901 -0.5374
   45MOL0     C 5998   4.256   2.536   9.723  0.0330 -0.5589  0.9469
   45MOL0     O 5999   4.180   2.434   9.671  0.6437  0.5863  0.3983
   45MOL0     C 6000   4.192   2.406   9.534  0.4061  0.0143  0.0694
   45MOL0     C 6001   4.080   2.315   9.483  0.0380  0.0701 -0.4014
   45MOL0     C 6002   3.972   2.379   9.410  0.1037  0.5374 -0.0749
   45MOL0     C 6003   3.884   2.476   9.487  0.3636 -0.1197 -0.3314
   45MOL0     C 6004   3.737   2.460   9.451 -0.1654 -0.9320 -0.5406
   45MOL0     C 6005   3.619   2.452   9.429  0.5587  0.6282 -0.5714
   45MOL0     C 6006   4.374   2.599   9.672 -0.2392  0.1924 -0.2296
   45MOL0     C 6007   4.445   2.687   9.750  0.7587  0.4011 -1.3533
   45MOL0     H 6008   4.644   3.014  10.095  0.5483  3.2648 -2.2621
   45MOL0     H 6009   4.677   3.225  10.238 -1.2195  3.8547 -3.3627
   45MOL0     H 6010   4.464   3.546  10.252 -4.2697  0.8155 -1.9276
   45MOL0     H 6011   4.328   3.453  10.281 -0.2814  2.0610 -0.9064
   45MOL0     H 6012   4.499   3.563  10.510  1.7500 -1.0680 -2.5539
   45MOL0     H 6013   4.360   3.649  10.445  3.5056  1.4683  0.0753
   45MOL0     H 6014   4.234   3.417  10.474  1.1200  0.2589 -2.6555
   45MOL0     H 6015   4.376   3.382  10.585 -0.5402 -0.2855  0.4839
   45MOL0     H 6016   4.314   3.590  10.714  0.5104  0.6467 -1.8288
   45MOL0     H 6017   4.171   3.604  10.614  3.6260 -0.4535 -4.0620
   45MOL0     H 6018   4.224   3.362  10.781 -0.0713  0.2964  0.1242
   45MOL0     H 6019   4.123   3.498  10.829  0.3446  2.5249 -1.3236
   45MOL0     H 6020   3.971   3.458  10.631 -0.6264 -1.7487  1.5066
   45MOL0     H 6021   4.074   3.319  10.590 -0.2918  1.6469 -1.8869
   45MOL0     H 6022   3.934   3.193  10.701  0.9498  1.4233 -2.3120
   45MOL0     H 6023   4.020   3.249  10.844  2.3184  2.3850 -1.0426
   45MOL0     H 6024   3.768   3.260  10.877 -3.5840  1.6199 -0.3737
   45MOL0     H 6025   3.747   3.353  10.736  1.3074  4.2994 -1.0107
   45MOL0     H 6026   3.853   3.620  10.727 -0.9115 -1.7820 -1.4099
   45MOL0     H 6027   3.953   3.829  11.046  0.5175  1.9556 -0.3114
   45MOL0     H 6028   4.013   3.802  10.883  1.1208 -1.0026  2.0032
   45MOL0     H 6029   3.714   3.901  10.927 -0.3874 -0.0588 -1.8387
   45MOL0     H 6030   3.806   3.885  10.779 -2.7967  4.5677 -0.0795
   45MOL0     H 6031   3.960   4.064  10.846  0.7233 -0.5706  0.6320
   45MOL0     H 6032   3.903   4.070  11.009  1.5826 -1.2632 -0.9638
   45MOL0     H 6033   3.681   4.105  10.944  0.7530 -2.1426 -0.8621
   45MOL0     H 6034   3.714   4.124  10.773 -2.9024  1.6677  1.0923
   45MOL0     H 6035   3.594   4.446  10.997  4.0641  3.0854  0.3902
   45MOL0     H 6036   3.409   4.611  10.975 -2.5278 -0.5440 -0.3844
   45MOL0     H 6037   3.442   4.737  10.856  1.4874 -0.1595 -0.8756
   45MOL0     H 6038   3.307   4.627  10.833 -0.4575  1.1127  1.1684
   45MOL0     H 6039   3.486   4.879  10.408 -1.7212  3.8677 -1.2919
   45MOL0     H 6040   3.378   5.005  10.243 -0.7143  1.7807  2.7508
   45MOL0     H 6041   3.094   5.058  10.153 -2.1140  0.8643 -1.8664
   45MOL0     H 6042   3.233   5.110  10.064  0.8998  0.0978  0.3579
   45MOL0     H 6043   3.052   5.168   9.934  1.5406  0.9518 -0.6150
   45MOL0     H 6044   3.130   5.023   9.862 -1.6033 -1.8733  0.6452
   45MOL0     H 6045   2.893   5.015  10.035  0.9504  3.0556 -1.0437
   45MOL0     H 6046   2.957   4.879   9.926  1.3163 -0.2653 -0.4372
   45MOL0     H 6047   2.836   5.140   9.816  0.6952 -0.5134  0.9305
   45MOL0     H 6048   2.914   5.008   9.724 -0.7206 -3.8653  0.4838
   45MOL0     H 6049   2.668   4.952   9.881 -0.9692  0.0977 -1.4697
   45MOL0     H 6050   2.767   4.855   9.769 -0.8172  0.1559  0.0895
   45MOL0     H 6051   2.597   5.102   9.711  2.5502  2.1551 -2.1359
   45MOL0     H 6052   2.721   5.038   9.596 -0.6581 -3.5927 -1.6462
   45MOL0     H 6053   2.457   4.910   9.680  2.1880 -2.8561  2.7333
   45MOL0     H 6054   2.596   4.817   9.616 -0.1604  0.4028 -1.1524
   45MOL0     H 6055   2.599   4.969   9.425  1.2930 -0.3891  1.5958
   45MOL0     H 6056   2.435   5.028   9.468  2.9055  1.2046  4.7692
   45MOL0     H 6057   3.161   4.653  10.117  0.7661 -1.1592  0.7242
   45MOL0     H 6058   3.316   4.517  10.272  0.8329 -0.9667 -3.1860
   45MOL0     H 6059   3.639   4.461  10.511 -1.0215  2.9917  0.7241
   45MOL0     H 6060   3.773   4.313  10.637 -0.4615 -2.1238  1.3458
   45MOL0     H 6061   4.259   3.250  10.326  0.7288  0.7806  2.6259
   45MOL0     H 6062   4.231   3.033  10.182  0.7157 -3.8146  0.9697
   45MOL0     H 6063   4.234   2.691  10.019  0.2778  1.1251 -0.7357
   45MOL0     H 6064   4.125   2.517   9.886 -0.0597 -0.0775 -0.3869
   45MOL0     H 6065   4.189   2.499   9.477 -1.1324 -0.5060 -0.7635
   45MOL0     H 6066   4.283   2.350   9.514  0.0222 -0.6873  0.2630
   45MOL0     H 6067   4.033   2.254   9.561 -2.8444  1.0293 -1.2457
   45MOL0     H 6068   4.133   2.246   9.418 -0.9162  0.7273 -1.9489
   45MOL0     H 6069   3.900   2.301   9.382 -3.0537  2.6191  1.6029
   45MOL0     H 6070   4.020   2.429   9.325  0.8798 -0.1742 -0.0667
   45MOL0     H 6071   3.915   2.579   9.467 -0.4954  0.8331  2.6331
   45MOL0     H 6072   3.897   2.459   9.595  0.4930 -2.1839 -0.6327
   45MOL0     H 6073   3.514   2.436   9.421  0.8160 -0.5954 -1.9935
   45MOL0     H 6074   4.407   2.585   9.570 -1.5271 -2.0050 -0.4045
   45MOL0     H 6075   4.539   2.733   9.721 -0.0864  2.7513 -0.6111
   46MOL0     O 6076  11.069   8.981   3.596 -0.8209 -0.0940  0.4766
   46MOL0     C 6077  10.997   8.980   3.495  0.2572 -0.4950  0.1614
   46MOL0     O 6078  10.972   9.089   3.414 -0.0030 -0.5554  0.1705
   46MOL0     C 6079  11.053   9.208   3.439 -0.4825 -0.4698 -0.1096
   46MOL0     C 6080  11.156   9.238   3.343 -1.1881 -0.3889  0.0775
   46MOL0     C 6081  11.246   9.344   3.366 -0.6636 -0.5041  0.0320
   46MOL0     C 6082  11.220   9.432   3.478 -0.0146 -0.0248  0.3275
   46MOL0     O 6083  11.311   9.536   3.516 -1.3122  0.5306 -0.4671
   46MOL0     C 6084  11.443   9.552   3.457  0.5054 -0.1546  0.9586
   46MOL0     C 6085  11.456   9.687   3.379 -0.1110 -1.2430 -0.3999
   46MOL0     C 6086  11.608   9.727   3.334  0.3956  0.0473  0.0779
   46MOL0     C 6087  11.616   9.887   3.316  0.6132  0.5924  0.1123
   46MOL0     C 6088  11.763   9.927   3.298 -0.0532  0.0823  0.8000
   46MOL0     C 6089  11.810   9.924   3.152  0.7866  1.1385  0.3078
   46MOL0     C 6090  11.962   9.952   3.149 -0.2363 -0.6294 -0.5852
   46MOL0     C 6091  12.026   9.966   3.004  0.4604  0.6637  0.4856
   46MOL0     N 6092  12.174   9.983   3.024 -0.4460 -0.9564 -0.3355
   46MOL0     C 6093  12.275   9.898   2.997  0.5897  0.2817 -0.5846
   46MOL0     C 6094  12.385   9.941   3.061 -0.7564  0.9366  0.5390
   46MOL0     C 6095  12.527   9.883   3.039  1.0028 -0.9081  0.0938
   46MOL0     C 6096  12.568   9.788   3.158 -0.5168  0.6737  0.1596
   46MOL0     C 6097  12.698   9.706   3.137  0.3632  1.0127  0.8225
   46MOL0     C 6098  12.687   9.628   3.007 -0.0585  0.4475 -0.0322
   46MOL0     O 6099  12.569   9.543   2.997 -0.2450 -0.3467 -0.2147
   46MOL0     C 6100  12.595   9.422   3.045 -0.3306  0.1176 -0.7042
   46MOL0     C 6101  12.659   9.321   2.973 -0.3418 -0.0935  0.3452
   46MOL0     C 6102  12.663   9.187   3.021 -0.3635  0.3171  0.6904
   46MOL0     C 6103  12.720   9.099   2.920 -0.3528  0.7486 -0.0191
   46MOL0     C 6104  12.614   9.151   3.145 -0.1590  0.2040 -0.3170
   46MOL0     C 6105  12.659   9.014   3.216  0.5110 -0.3685  0.0901
   46MOL0     O 6106  12.626   9.004   3.344 -0.1729 -0.0378 -0.2991
   46MOL0     C 6107  12.693   8.912   3.427  0.0897  0.3691  0.0688
   46MOL0     C 6108  12.687   8.774   3.404 -0.0903  0.5825  0.2341
   46MOL0     C 6109  12.779   8.696   3.473 -0.1062  1.1200 -0.6110
   46MOL0     C 6110  12.868   8.748   3.573 -0.2791 -0.4365 -0.9154
   46MOL0     O 6111  12.953   8.662   3.626  0.1925  0.2701 -0.0334
   46MOL0     C 6112  13.057   8.697   3.709  0.3336 -0.5286 -0.5801
   46MOL0     C 6113  13.121   8.561   3.756  0.1866  0.0509  0.1441
   46MOL0     C 6114  13.250   8.579   3.840  0.2967 -0.2273  0.3338
   46MOL0     C 6115  13.281   8.458   3.928 -0.0919  0.1100  0.4547
   46MOL0     C 6116  13.429   8.453   3.971  0.2821  0.1553  0.6698
   46MOL0     C 6117  13.483   8.319   4.012  0.2722 -0.4252  0.2131
   46MOL0     C 6118  13.416   8.254   4.134  0.8183  0.4625  0.1055
   46MOL0     C 6119  13.428   8.352   4.259  0.6614  0.4099  0.0334
   46MOL0    Cl 6120  13.363   8.264   4.408 -0.0812  0.1441 -0.0532
   46MOL0     C 6121  12.852   8.886   3.609  0.1448 -0.2028 -0.2403
   46MOL0     C 6122  12.764   8.970   3.536  0.5686 -0.3667  0.5941
   46MOL0     O 6123  12.731   8.934   3.153  0.1499 -0.8833 -0.0510
   46MOL0     C 6124  12.549   9.259   3.225 -0.3739  0.2215  0.4066
   46MOL0     C 6125  12.533   9.380   3.169  0.5402 -0.5594 -0.3952
   46MOL0     N 6126  12.364  10.066   3.110 -0.3104 -0.1910 -0.7271
   46MOL0     N 6127  12.239  10.087   3.089 -0.3274 -0.0031 -0.0871
   46MOL0     C 6128  11.108   9.409   3.558  0.4052 -0.2149 -0.1726
   46MOL0     C 6129  11.023   9.299   3.540 -0.6091 -0.2175  0.1439
   46MOL0     C 6130  10.949   8.841   3.460  0.0689  0.8281 -0.4217
   46MOL0     C 6131  10.955   8.730   3.564 -0.4054  0.3565  0.2747
   46MOL0     C 6132  10.906   8.602   3.522 -0.1946 -0.1128  0.2260
   46MOL0     C 6133  10.843   8.590   3.403 -0.3619 -0.1094  0.6066
   46MOL0     O 6134  10.801   8.465   3.370  0.0627  0.1847 -0.2814
   46MOL0     C 6135  10.745   8.453   3.239 -0.1423 -0.3889  0.4610
   46MOL0     C 6136  10.735   8.304   3.207 -0.2820 -0.5989 -0.3568
   46MOL0     C 6137  10.635   8.221   3.286 -0.4765 -0.7359  0.1273
   46MOL0     C 6138  10.635   8.069   3.236  0.5738 -0.2602 -0.0162
   46MOL0     C 6139  10.749   7.992   3.287  0.2679  0.2043  0.1798
   46MOL0     C 6140  10.846   7.929   3.337 -0.2495 -0.3759  0.0474
   46MOL0     C 6141  10.831   8.702   3.322  0.0740  0.2829 -0.1489
   46MOL0     C 6142  10.896   8.817   3.332  0.4979  0.1497 -0.5020
   46MOL0     H 6143  11.181   9.181   3.254  1.2429  1.0589 -0.2620
   46MOL0     H 6144  11.326   9.367   3.297 -0.2273 -1.4101  0.2264
   46MOL0     H 6145  11.509   9.555   3.545  3.7009 -0.6907 -1.2511
   46MOL0     H 6146  11.478   9.466   3.399 -4.3425 -1.8768  0.1258
   46MOL0     H 6147  11.390   9.687   3.292  0.8045  1.8342 -1.1949
   46MOL0     H 6148  11.418   9.767   3.443  0.0074 -2.4274  1.2183
   46MOL0     H 6149  11.683   9.705   3.410  0.9547  0.5856 -0.3055
   46MOL0     H 6150  11.643   9.673   3.245  2.2413 -1.4410  1.6339
   46MOL0     H 6151  11.549   9.928   3.240 -1.2198  0.7783  1.7441
   46MOL0     H 6152  11.575   9.922   3.411  2.5503  1.1765  0.7657
   46MOL0     H 6153  11.777  10.028   3.337 -0.6728  0.4044  0.2077
   46MOL0     H 6154  11.832   9.865   3.358 -0.0077  0.7014  1.3981
   46MOL0     H 6155  11.780   9.824   3.120 -1.5717  1.4404  1.3631
   46MOL0     H 6156  11.756  10.000   3.095 -2.0761 -1.4366 -0.6931
   46MOL0     H 6157  11.998  10.042   3.200  0.1006  1.6111 -4.4235
   46MOL0     H 6158  12.018   9.869   3.195  1.1677  1.4092  1.6255
   46MOL0     H 6159  11.989  10.056   2.953 -0.8052 -0.7807 -1.3062
   46MOL0     H 6160  11.996   9.879   2.945  0.4608 -0.5557  2.2089
   46MOL0     H 6161  12.264   9.799   2.953  1.3681 -0.5968  1.0664
   46MOL0     H 6162  12.520   9.825   2.946 -0.7135 -2.2977  1.0243
   46MOL0     H 6163  12.596   9.966   3.023  0.0484  0.0732  0.9374
   46MOL0     H 6164  12.485   9.720   3.180  1.3972 -1.4709  1.1834
   46MOL0     H 6165  12.579   9.837   3.256  0.2081 -1.0764  0.9932
   46MOL0     H 6166  12.722   9.636   3.217  1.1166 -1.3757 -1.3679
   46MOL0     H 6167  12.781   9.775   3.120  0.5848  0.7434  0.8155
   46MOL0     H 6168  12.778   9.566   3.003 -0.2961 -0.1423  2.4615
   46MOL0     H 6169  12.702   9.695   2.921  1.9739 -0.4842 -0.4586
   46MOL0     H 6170  12.709   9.347   2.880 -0.2857  0.5683  0.5565
   46MOL0     H 6171  12.817   9.074   2.962  1.2049  1.8703 -2.6651
   46MOL0     H 6172  12.656   9.011   2.921 -1.7219  1.6410  3.5332
   46MOL0     H 6173  12.737   9.137   2.818  3.0423 -0.4229 -0.0164
   46MOL0     H 6174  12.632   8.732   3.320  0.4950 -0.6781  0.4488
   46MOL0     H 6175  12.788   8.591   3.444 -3.1953  1.0693 -1.7866
   46MOL0     H 6176  13.140   8.742   3.654  0.4313  0.4598  0.3645
   46MOL0     H 6177  13.028   8.758   3.794  0.6124  0.1927 -0.9967
   46MOL0     H 6178  13.049   8.504   3.816 -1.5242  1.8596 -0.0869
   46MOL0     H 6179  13.141   8.502   3.666 -1.4125  0.4951 -0.5501
   46MOL0     H 6180  13.235   8.659   3.913 -0.1540  0.0010 -0.0103
   46MOL0     H 6181  13.340   8.604   3.783 -0.8380  0.5193 -1.1825
   46MOL0     H 6182  13.222   8.459   4.021  0.2009  0.8874  0.6421
   46MOL0     H 6183  13.249   8.367   3.878  1.3603 -0.2106  0.0831
   46MOL0     H 6184  13.455   8.542   4.029  0.1375  2.8759 -3.1176
   46MOL0     H 6185  13.486   8.485   3.883 -0.2365  1.7599  0.8964
   46MOL0     H 6186  13.484   8.262   3.919  2.7319 -0.6298  0.3054
   46MOL0     H 6187  13.589   8.333   4.034  0.2629 -3.4366  2.9804
   46MOL0     H 6188  13.451   8.152   4.157 -2.5991 -0.9549 -0.3787
   46MOL0     H 6189  13.311   8.230   4.117  1.4044 -2.2104 -0.2975
   46MOL0     H 6190  13.380   8.447   4.234 -1.1761 -0.2983  0.6828
   46MOL0     H 6191  13.533   8.382   4.267  0.0921  3.1190 -1.2887
   46MOL0     H 6192  12.912   8.919   3.693  0.2802  1.7632 -1.0648
   46MOL0     H 6193  12.758   9.074   3.566  0.9816 -0.9664  2.9837
   46MOL0     H 6194  12.507   9.245   3.325 -0.2967  1.7237  0.6701
   46MOL0     H 6195  12.462   9.451   3.211 -2.0371 -1.7225 -2.5326
   46MOL0     H 6196  11.079   9.474   3.641 -0.1459 -0.6019 -0.0557
   46MOL0     H 6197  10.942   9.293   3.612  0.1795  1.6709  1.2589
   46MOL0     H 6198  10.999   8.722   3.663  0.1116 -1.3220 -0.0662
   46MOL0     H 6199  10.915   8.511   3.580  1.4929 -0.5568 -0.6662
   46MOL0     H 6200  10.646   8.499   3.238 -0.9962 -2.1785 -0.0966
   46MOL0     H 6201  10.804   8.497   3.158  1.0792  0.6002  1.8378
   46MOL0     H 6202  10.834   8.257   3.212 -0.5099 -1.7729 -3.6599
   46MOL0     H 6203  10.712   8.280   3.102  2.9830 -1.8482 -0.9239
   46MOL0     H 6204  10.540   8.271   3.267  0.1165 -0.1857 -1.6023
   46MOL0     H 6205  10.664   8.225   3.391 -1.9189  1.7342  0.5017
   46MOL0     H 6206  10.636   8.057   3.127 -0.2331  0.0989 -0.0732
   46MOL0     H 6207  10.544   8.025   3.277 -0.9750  2.8225  0.1317
   46MOL0     H 6208  10.930   7.882   3.384  0.6975 -0.2395 -1.4411
   46MOL0     H 6209  10.780   8.693   3.226  3.2252  0.0828 -1.9371
   46MOL0     H 6210  10.882   8.896   3.258  1.0197 -1.2292 -2.1456
   47MOL0     O 6211   3.863  10.759   8.295  0.2652  0.4894  0.2515
   47MOL0     C 6212   3.788  10.848   8.249 -0.0626  0.1267  0.3189
   47MOL0     O 6213   3.788  10.976   8.282  0.4222 -0.4134  0.1530
   47MOL0     C 6214   3.797  11.002   8.426  0.0931  0.2538  1.1477
   47MOL0     C 6215   3.731  10.922   8.522 -0.1264  0.5590  0.3759
   47MOL0     C 6216   3.734  10.965   8.655 -0.8259  0.1427 -0.0810
   47MOL0     C 6217   3.807  11.079   8.697 -0.2616 -0.3078  0.2648
   47MOL0     O 6218   3.826  11.100   8.826 -0.6092 -0.0044 -0.1009
   47MOL0     C 6219   3.958  11.164   8.857 -0.3176 -0.3127  0.6781
   47MOL0     C 6220   3.996  11.150   9.002  1.0055  0.4496  0.0120
   47MOL0     C 6221   3.890  11.186   9.105 -0.1655  0.6224 -0.6174
   47MOL0     C 6222   3.965  11.172   9.252  0.0685 -0.2549  0.5514
   47MOL0     C 6223   3.983  11.023   9.297  0.3556  0.1174  0.7243
   47MOL0     C 6224   4.046  11.006   9.434  0.5780 -0.1016 -0.8111
   47MOL0     C 6225   3.963  11.085   9.537 -0.1725 -1.2077  0.0086
   47MOL0     C 6226   4.006  11.056   9.681  0.4994  0.9978 -0.2281
   47MOL0     N 6227   4.117  11.131   9.731  0.1457 -0.8120  0.6012
   47MOL0     C 6228   4.104  11.244   9.810  0.0344  0.4701  0.7849
   47MOL0     C 6229   4.230  11.284   9.845  0.6660  0.3179 -0.6676
   47MOL0     C 6230   4.262  11.410   9.915 -0.2966 -0.2868  0.1330
   47MOL0     C 6231   4.289  11.521   9.811 -0.5212 -1.2430 -0.4254
   47MOL0     C 6232   4.373  11.640   9.877  0.1125 -0.9097 -0.6490
   47MOL0     C 6233   4.290  11.722   9.983  0.5348 -0.2638  0.3372
   47MOL0     O 6234   4.171  11.782   9.924  0.6832 -0.7493 -0.6942
   47MOL0     C 6235   4.087  11.845  10.009 -0.1392 -0.0253  1.2102
   47MOL0     C 6236   3.971  11.893   9.948 -0.2191 -0.2372 -0.4086
   47MOL0     C 6237   3.864  11.956  10.009  0.3770  0.2483  0.3112
   47MOL0     C 6238   3.730  11.967   9.928 -0.2999  0.3804  0.3678
   47MOL0     C 6239   3.876  11.991  10.144  0.6667 -0.5051 -0.0054
   47MOL0     C 6240   3.757  12.045  10.221  0.1367 -0.0224  0.2636
   47MOL0     O 6241   3.785  12.140  10.309  1.0141 -0.4921 -0.1709
   47MOL0     C 6242   3.680  12.170  10.387 -0.0152  0.1358  0.1127
   47MOL0     C 6243   3.657  12.092  10.506 -0.4552  0.5429 -0.4824
   47MOL0     C 6244   3.558  12.138  10.596  0.0442  0.0523 -0.0337
   47MOL0     C 6245   3.482  12.255  10.559  0.1213 -0.7320 -0.5448
   47MOL0     O 6246   3.373  12.294  10.628 -0.3974 -0.7331  0.3792
   47MOL0     C 6247   3.307  12.223  10.725 -0.5182  0.5918 -0.2113
   47MOL0     C 6248   3.329  12.265  10.865  0.2368 -0.2657  0.8424
   47MOL0     C 6249   3.277  12.162  10.956  0.2612 -0.6187  0.4350
   47MOL0     C 6250   3.377  12.051  10.963  0.2735 -0.1577 -0.3351
   47MOL0     C 6251   3.411  12.011  11.108 -0.1794 -0.8350 -0.2185
   47MOL0     C 6252   3.510  12.106  11.165  0.3929 -0.6258  0.4299
   47MOL0     C 6253   3.456  12.202  11.278  0.7791 -0.7340  0.1786
   47MOL0     C 6254   3.413  12.122  11.401  0.1324 -0.8397  0.3868
   47MOL0    Cl 6255   3.562  12.055  11.488 -0.1639  0.1282 -0.2893
   47MOL0     C 6256   3.513  12.320  10.440  0.0603  0.0457 -0.1876
   47MOL0     C 6257   3.614  12.288  10.356 -0.4597  0.3112  0.5921
   47MOL0     O 6258   3.648  11.991  10.201  0.5888 -0.1546 -0.2940
   47MOL0     C 6259   3.994  11.952  10.211 -0.4765  0.3382  0.4315
   47MOL0     C 6260   4.103  11.890  10.142  0.1082 -0.5870 -0.3368
   47MOL0     N 6261   4.318  11.201   9.783 -0.8494  0.4369 -0.3771
   47MOL0     N 6262   4.250  11.117   9.708 -0.4701  0.0882  0.8092
   47MOL0     C 6263   3.878  11.148   8.593  0.7403 -0.0050  0.6912
   47MOL0     C 6264   3.862  11.114   8.464 -1.3639  0.3185  1.1286
   47MOL0     C 6265   3.714  10.799   8.139 -0.0253  0.3964  0.8002
   47MOL0     C 6266   3.785  10.721   8.037 -0.2255 -0.2701 -0.4045
   47MOL0     C 6267   3.712  10.689   7.925 -0.7714  0.6861  0.3449
   47MOL0     C 6268   3.581  10.719   7.904  0.4430  0.2451  0.1193
   47MOL0     O 6269   3.532  10.688   7.777 -0.1109 -0.0782 -0.9494
   47MOL0     C 6270   3.496  10.555   7.766 -0.2083  0.5624 -0.7625
   47MOL0     C 6271   3.359  10.547   7.707 -0.6255  0.4052  0.5947
   47MOL0     C 6272   3.341  10.613   7.568  1.1643 -1.3840 -0.5064
   47MOL0     C 6273   3.198  10.594   7.506  0.2823  0.3420  0.1569
   47MOL0     C 6274   3.199  10.613   7.355 -0.5231 -0.9895 -0.6049
   47MOL0     C 6275   3.216  10.620   7.235 -0.2096 -0.4420 -0.3499
   47MOL0     C 6276   3.511  10.796   8.000 -0.3763  0.5873  0.5784
   47MOL0     C 6277   3.578  10.829   8.117  0.0236  0.1333 -0.3386
   47MOL0     H 6278   3.673  10.831   8.512 -0.5316  0.4704  2.8910
   47MOL0     H 6279   3.681  10.908   8.730 -2.5534  0.0405 -1.3238
   47MOL0     H 6280   4.044  11.126   8.802  0.4148 -1.5784  2.6171
   47MOL0     H 6281   3.950  11.270   8.828 -0.4941 -0.0248  1.7412
   47MOL0     H 6282   4.018  11.045   9.022 -1.2714  0.2874  2.1979
   47MOL0     H 6283   4.080  11.218   9.019  2.0850 -0.5782 -1.0003
   47MOL0     H 6284   3.846  11.286   9.096 -0.7433  0.4033 -0.3216
   47MOL0     H 6285   3.812  11.110   9.090  2.2060 -2.2962  0.6711
   47MOL0     H 6286   4.059  11.229   9.257  0.6996 -1.2610  0.4863
   47MOL0     H 6287   3.889  11.217   9.317  0.6186 -0.0893  1.0971
   47MOL0     H 6288   3.888  10.968   9.298  0.2346  0.3055  2.0976
   47MOL0     H 6289   4.041  10.958   9.231 -1.5285 -0.0869 -0.8016
   47MOL0     H 6290   4.048  10.901   9.464 -1.2490  0.7345  2.6733
   47MOL0     H 6291   4.150  11.038   9.426  0.1053  2.1445  1.1742
   47MOL0     H 6292   3.966  11.193   9.519 -1.8754 -0.6555  2.4566
   47MOL0     H 6293   3.858  11.059   9.522 -0.6846  0.9200 -0.4481
   47MOL0     H 6294   4.047  10.954   9.688 -1.4588  0.3190  3.6627
   47MOL0     H 6295   3.919  11.063   9.746 -1.6738  0.9557 -2.9594
   47MOL0     H 6296   4.021  11.308   9.836 -1.3787 -0.5413 -1.0246
   47MOL0     H 6297   4.179  11.430   9.983 -1.8127 -1.2787 -1.3449
   47MOL0     H 6298   4.351  11.381   9.971  1.3644 -0.2099 -2.3070
   47MOL0     H 6299   4.199  11.561   9.763 -0.9498  1.8820  2.5525
   47MOL0     H 6300   4.342  11.491   9.720 -1.6354  2.9801 -2.7643
   47MOL0     H 6301   4.404  11.713   9.802 -2.2340  1.3771  0.4419
   47MOL0     H 6302   4.455  11.595   9.932  0.8247  0.5785 -0.4473
   47MOL0     H 6303   4.349  11.811  10.010  0.1986  0.9956 -2.7221
   47MOL0     H 6304   4.268  11.655  10.067 -2.1522  1.0409  0.7876
   47MOL0     H 6305   3.957  11.876   9.841 -3.2890  3.8399 -0.8966
   47MOL0     H 6306   3.664  11.891   9.973 -1.0494  0.2718 -0.8817
   47MOL0     H 6307   3.682  12.065   9.923  1.4764  1.2226 -3.5391
   47MOL0     H 6308   3.759  11.938   9.827 -1.9665  0.7882 -0.2481
   47MOL0     H 6309   3.723  12.006  10.511  1.5256  2.0097 -0.0312
   47MOL0     H 6310   3.539  12.084  10.687  0.7880  0.0331  0.1188
   47MOL0     H 6311   3.202  12.236  10.696 -0.5798 -2.2476 -1.6001
   47MOL0     H 6312   3.320  12.116  10.710 -1.2253  0.6589 -1.4765
   47MOL0     H 6313   3.433  12.296  10.877 -0.0737  1.0877  0.3071
   47MOL0     H 6314   3.269  12.356  10.872 -1.3198 -1.3429  2.0642
   47MOL0     H 6315   3.175  12.134  10.929  0.0750 -0.6416  1.1321
   47MOL0     H 6316   3.264  12.197  11.059  0.1198 -2.7919  1.2133
   47MOL0     H 6317   3.334  11.962  10.916 -1.4334 -0.5797  1.8318
   47MOL0     H 6318   3.471  12.079  10.914 -0.1780  3.1128  0.4521
   47MOL0     H 6319   3.466  11.917  11.103  2.2741  0.5489 -0.5404
   47MOL0     H 6320   3.316  11.986  11.157 -0.0679  0.7380  0.8687
   47MOL0     H 6321   3.592  12.043  11.200  0.1228  0.1319  2.5589
   47MOL0     H 6322   3.540  12.176  11.086 -0.4605  0.0775  0.7117
   47MOL0     H 6323   3.368  12.250  11.232 -0.5863 -1.4757  1.9067
   47MOL0     H 6324   3.539  12.272  11.286  1.4389 -1.2291 -1.7969
   47MOL0     H 6325   3.342  12.042  11.380  0.3709 -0.4338 -2.3015
   47MOL0     H 6326   3.366  12.188  11.475 -0.0158  1.8134 -1.9070
   47MOL0     H 6327   3.465  12.413  10.412  3.0592  1.5957 -0.6163
   47MOL0     H 6328   3.648  12.338  10.266 -1.3573 -2.3349 -1.3482
   47MOL0     H 6329   4.006  11.975  10.316  1.7422  2.0317 -0.1392
   47MOL0     H 6330   4.202  11.882  10.185  0.2465 -2.7612 -0.9389
   47MOL0     H 6331   3.934  11.239   8.614  2.1534 -0.3358 -1.3714
   47MOL0     H 6332   3.923  11.165   8.391 -0.2807  0.8116  2.3384
   47MOL0     H 6333   3.887  10.684   8.046 -0.1062  0.5466  3.7413
   47MOL0     H 6334   3.753  10.624   7.849 -3.6105 -1.0192  0.1030
   47MOL0     H 6335   3.553  10.509   7.685 -0.5717  0.7630 -1.1320
   47MOL0     H 6336   3.512  10.486   7.850 -1.4974 -2.3773 -2.7665
   47MOL0     H 6337   3.282  10.579   7.778 -1.0640  0.0887  0.2573
   47MOL0     H 6338   3.328  10.442   7.707  0.1128  0.1059  3.0237
   47MOL0     H 6339   3.428  10.591   7.506  0.4752  0.0133 -2.0375
   47MOL0     H 6340   3.350  10.720   7.590  1.6887 -0.9483 -2.6383
   47MOL0     H 6341   3.133  10.671   7.550  0.0102 -0.7519  1.7792
   47MOL0     H 6342   3.161  10.494   7.530  1.1057  0.1288  0.5571
   47MOL0     H 6343   3.222  10.619   7.128 -0.5653 -0.5108 -0.3687
   47MOL0     H 6344   3.409  10.833   8.001 -0.7768 -0.4814  2.5758
   47MOL0     H 6345   3.512  10.875   8.190  0.3639  0.4834 -0.2479
   48MOL0     O 6346   2.661  11.023   0.670  0.2512 -0.3805 -0.4500
   48MOL0     C 6347   2.662  10.901   0.652 -0.2753  0.4960 -0.4775
   48MOL0     O 6348   2.768  10.828   0.580  0.2536 -0.4643 -0.1816
   48MOL0     C 6349   2.895  10.883   0.563 -0.0857 -0.6978 -1.1735
   48MOL0     C 6350   2.934  10.917   0.433  0.4969  1.1849 -0.5405
   48MOL0     C 6351   3.052  10.985   0.407  0.3512  0.1681 -0.1502
   48MOL0     C 6352   3.152  11.009   0.511 -0.5447  0.1757  0.1140
   48MOL0     O 6353   3.276  11.050   0.465 -0.0133 -0.4069 -0.5806
   48MOL0     C 6354   3.371  11.065   0.571 -0.6758 -1.0487  0.2100
   48MOL0     C 6355   3.503  11.112   0.513  0.5191 -0.0743 -0.1403
   48MOL0     C 6356   3.626  11.078   0.596 -1.2599  0.1141  0.4862
   48MOL0     C 6357   3.658  11.183   0.710 -0.8161  0.3316  0.2694
   48MOL0     C 6358   3.778  11.123   0.786 -1.4109  0.2770  0.6774
   48MOL0     C 6359   3.900  11.087   0.703 -1.3130  0.3734 -0.1754
   48MOL0     C 6360   3.992  10.983   0.773 -0.0343  0.0297 -0.6034
   48MOL0     C 6361   4.075  11.055   0.872  0.7272 -0.3979  0.3700
   48MOL0     N 6362   4.128  10.962   0.964 -0.1117 -0.8991 -0.6674
   48MOL0     C 6363   4.263  10.924   0.963  0.7207 -0.3640  0.0673
   48MOL0     C 6364   4.289  10.864   1.075 -0.1645  0.0113  0.1649
   48MOL0     C 6365   4.410  10.785   1.115 -0.4409  1.0106 -0.6346
   48MOL0     C 6366   4.392  10.770   1.271 -0.5690  0.1698  0.0427
   48MOL0     C 6367   4.523  10.731   1.349 -0.3060  0.0326  0.1278
   48MOL0     C 6368   4.621  10.843   1.348 -0.6205  0.2629  0.5761
   48MOL0     O 6369   4.720  10.813   1.446  0.6655 -0.4826 -0.9538
   48MOL0     C 6370   4.819  10.907   1.458 -0.4550 -0.0558  0.1804
   48MOL0     C 6371   4.817  11.030   1.393 -0.0738 -0.4131 -0.0689
   48MOL0     C 6372   4.917  11.124   1.417 -0.7814  0.1842 -1.0848
   48MOL0     C 6373   4.896  11.252   1.352 -0.0580 -0.2938 -0.9396
   48MOL0     C 6374   5.034  11.099   1.489  0.4747  0.3191  1.1801
   48MOL0     C 6375   5.150  11.197   1.506  0.6556  0.9869  0.3524
   48MOL0     O 6376   5.279  11.150   1.531 -0.6796  0.2629  0.2098
   48MOL0     C 6377   5.385  11.238   1.515  0.1982 -0.4000 -0.4101
   48MOL0     C 6378   5.498  11.190   1.582  0.3668  0.0558 -0.3035
   48MOL0     C 6379   5.620  11.259   1.581  0.3553  1.0342 -0.3842
   48MOL0     C 6380   5.636  11.372   1.499 -0.0800  0.7008  0.3561
   48MOL0     O 6381   5.758  11.431   1.465  0.2854 -0.6182  0.5408
   48MOL0     C 6382   5.845  11.442   1.574  0.1626  0.2070  0.6592
   48MOL0     C 6383   5.963  11.541   1.557  0.9422  0.0631  0.5729
   48MOL0     C 6384   6.072  11.490   1.468 -0.1906  0.1411  0.0198
   48MOL0     C 6385   6.179  11.595   1.434  0.2890 -1.2679  0.3264
   48MOL0     C 6386   6.312  11.516   1.438 -0.2613 -0.4892 -0.9787
   48MOL0     C 6387   6.423  11.611   1.408  0.6327  0.3812 -0.3721
   48MOL0     C 6388   6.559  11.537   1.425  0.2231  0.1589 -0.5150
   48MOL0     C 6389   6.578  11.420   1.329  0.1045  0.0970  0.8622
   48MOL0    Cl 6390   6.735  11.333   1.356  0.4035 -0.1334 -0.2795
   48MOL0     C 6391   5.522  11.420   1.425 -0.0934 -1.0751 -0.1326
   48MOL0     C 6392   5.400  11.346   1.433  0.7302 -1.2675  0.2574
   48MOL0     O 6393   5.118  11.315   1.507  0.5701 -0.5614 -0.1803
   48MOL0     C 6394   5.034  10.974   1.548 -0.7656  0.2882  0.7708
   48MOL0     C 6395   4.932  10.879   1.536 -0.3304  0.2524  0.0434
   48MOL0     N 6396   4.167  10.875   1.144 -0.4319  0.2593 -0.1080
   48MOL0     N 6397   4.075  10.938   1.075 -0.2012 -0.0472  0.0828
   48MOL0     C 6398   3.106  10.982   0.640 -0.9723 -0.0192  0.0832
   48MOL0     C 6399   2.986  10.921   0.669  0.6060  0.4519  0.2237
   48MOL0     C 6400   2.548  10.816   0.702 -0.5718  0.1248  0.3676
   48MOL0     C 6401   2.424  10.859   0.684  0.1086  0.2475 -0.2996
   48MOL0     C 6402   2.324  10.767   0.719 -0.5523  0.4017  0.5260
   48MOL0     C 6403   2.351  10.648   0.789 -1.1114  0.8044  0.3593
   48MOL0     O 6404   2.261  10.558   0.832 -0.2966 -0.0646 -0.1694
   48MOL0     C 6405   2.120  10.594   0.835 -0.0001 -0.2680 -0.5223
   48MOL0     C 6406   2.067  10.539   0.968  0.1912 -0.4131 -0.5001
   48MOL0     C 6407   2.073  10.621   1.091 -0.3192  0.0433  0.6306
   48MOL0     C 6408   2.023  10.532   1.205  0.1473  0.0954  0.0020
   48MOL0     C 6409   2.020  10.603   1.331  0.6455 -0.1207 -0.2425
   48MOL0     C 6410   1.998  10.658   1.438 -0.1377  0.5761  0.2130
   48MOL0     C 6411   2.480  10.614   0.821 -0.2451  0.6729 -0.0824
   48MOL0     C 6412   2.578  10.697   0.769 -0.4602 -0.3711 -0.7798
   48MOL0     H 6413   2.866  10.884   0.355 -1.4386 -1.4413  2.0064
   48MOL0     H 6414   3.067  10.991   0.300  1.2581 -0.1991 -0.0495
   48MOL0     H 6415   3.337  11.143   0.640  1.2929  2.6846 -2.6939
   48MOL0     H 6416   3.385  10.968   0.620 -2.7512 -0.9587  1.0962
   48MOL0     H 6417   3.512  11.082   0.408 -0.2591  1.3567 -0.6425
   48MOL0     H 6418   3.503  11.222   0.520 -1.8556 -0.1097  1.5129
   48MOL0     H 6419   3.617  10.975   0.631  1.0364 -0.5961 -0.7951
   48MOL0     H 6420   3.701  11.089   0.518 -2.3755 -2.9368 -1.2028
   48MOL0     H 6421   3.688  11.284   0.681 -3.0011  0.6012 -1.2595
   48MOL0     H 6422   3.565  11.194   0.766 -0.3878 -1.7287  1.4996
   48MOL0     H 6423   3.811  11.200   0.856  0.6454  0.3878 -0.3288
   48MOL0     H 6424   3.742  11.038   0.844  2.1855 -1.0635  1.1887
   48MOL0     H 6425   3.871  11.035   0.611 -3.6903  3.6728 -1.4964
   48MOL0     H 6426   3.940  11.177   0.656 -4.0532  1.3856 -0.7350
   48MOL0     H 6427   3.930  10.909   0.825 -1.0551  0.9996 -0.3829
   48MOL0     H 6428   4.059  10.929   0.706 -0.4797 -1.6311  0.2438
   48MOL0     H 6429   4.013  11.125   0.929  0.4290 -1.0725  0.8927
   48MOL0     H 6430   4.151  11.106   0.812  0.0348 -0.9661 -1.0249
   48MOL0     H 6431   4.339  10.918   0.886  1.0063 -0.3051  0.3440
   48MOL0     H 6432   4.414  10.694   1.054  0.4302  1.1332 -0.7811
   48MOL0     H 6433   4.500  10.843   1.091  0.3889 -1.0312 -2.9634
   48MOL0     H 6434   4.312  10.706   1.307 -0.6978  1.1501  1.5973
   48MOL0     H 6435   4.357  10.869   1.304 -1.7361 -0.3859  0.5073
   48MOL0     H 6436   4.557  10.637   1.304 -0.5569 -0.0735  0.1580
   48MOL0     H 6437   4.504  10.700   1.453  0.5265 -2.1608 -0.3097
   48MOL0     H 6438   4.568  10.933   1.380 -2.8946 -0.7777 -0.0262
   48MOL0     H 6439   4.667  10.855   1.250 -0.0188  1.0115  0.9437
   48MOL0     H 6440   4.732  11.060   1.332 -1.2910  1.3530  2.3178
   48MOL0     H 6441   4.833  11.237   1.264  0.6944 -0.4387 -1.4677
   48MOL0     H 6442   4.855  11.321   1.426 -1.8312 -1.1073 -1.1155
   48MOL0     H 6443   4.988  11.294   1.311 -0.1683  0.0659 -0.8224
   48MOL0     H 6444   5.499  11.086   1.614  2.1702  0.2160  0.2871
   48MOL0     H 6445   5.702  11.217   1.639 -0.7522 -0.6201  0.0560
   48MOL0     H 6446   5.787  11.443   1.667 -1.0508 -2.5447  0.0488
   48MOL0     H 6447   5.901  11.349   1.587  0.8441  0.7857  2.0459
   48MOL0     H 6448   5.938  11.635   1.507  1.6350  0.8067  1.5680
   48MOL0     H 6449   5.994  11.555   1.661 -1.1484  0.3607  1.2145
   48MOL0     H 6450   6.049  11.440   1.374  2.5189 -1.3506  0.0551
   48MOL0     H 6451   6.113  11.413   1.533 -0.0279  0.9669  0.9221
   48MOL0     H 6452   6.171  11.643   1.336  2.2264 -1.4030  0.0671
   48MOL0     H 6453   6.185  11.677   1.506  1.8222 -2.3312  1.4631
   48MOL0     H 6454   6.314  11.443   1.357 -2.6225 -0.9178 -0.7187
   48MOL0     H 6455   6.337  11.485   1.540  1.5958  3.2531 -0.1049
   48MOL0     H 6456   6.410  11.633   1.301  2.3337 -2.4774 -1.2707
   48MOL0     H 6457   6.421  11.701   1.469  0.9299  0.1748 -0.0535
   48MOL0     H 6458   6.569  11.508   1.530 -1.4627  1.6819  0.1055
   48MOL0     H 6459   6.639  11.608   1.401  1.4642 -0.9741  0.0616
   48MOL0     H 6460   6.580  11.454   1.226 -0.2649 -3.4547 -0.4662
   48MOL0     H 6461   6.497  11.347   1.337 -1.2062  1.4712  0.5299
   48MOL0     H 6462   5.518  11.508   1.361 -0.8672 -0.8370  0.2280
   48MOL0     H 6463   5.309  11.372   1.378  1.9653 -0.0185 -1.2985
   48MOL0     H 6464   5.124  10.925   1.583  0.0731  0.9058 -0.4784
   48MOL0     H 6465   4.926  10.782   1.584 -1.6687  0.0545 -0.4766
   48MOL0     H 6466   3.175  11.008   0.720 -0.8461  2.4527 -0.7290
   48MOL0     H 6467   2.961  10.884   0.768 -0.0422 -2.5107 -0.9500
   48MOL0     H 6468   2.397  10.949   0.630  1.0759  0.7007 -0.0472
   48MOL0     H 6469   2.221  10.792   0.696 -0.1357  0.6887 -1.2358
   48MOL0     H 6470   2.106  10.703   0.832  1.6198  0.0964  2.1604
   48MOL0     H 6471   2.059  10.550   0.756 -0.9752 -0.6977  0.4484
   48MOL0     H 6472   2.112  10.442   0.987 -2.2319 -1.5999 -0.4172
   48MOL0     H 6473   1.962  10.507   0.964 -0.4932  1.5951  0.0780
   48MOL0     H 6474   2.006  10.707   1.086  0.2433  0.4519 -0.0509
   48MOL0     H 6475   2.170  10.665   1.117 -1.5396  3.9048 -0.5804
   48MOL0     H 6476   2.081  10.440   1.216  0.7559  0.6376  1.6370
   48MOL0     H 6477   1.917  10.513   1.183 -0.6273  1.3091  2.2902
   48MOL0     H 6478   1.966  10.701   1.531 -1.8472 -0.6778  0.2578
   48MOL0     H 6479   2.499  10.532   0.890  5.0642  1.0947 -0.6522
   48MOL0     H 6480   2.681  10.679   0.797  0.3375  0.5184 -2.9353
   49MOL0     O 6481   6.110   3.423   8.205 -0.3792  0.3676  0.3161
   49MOL0     C 6482   6.062   3.500   8.122  0.1013 -0.0246 -0.6092
   49MOL0     O 6483   6.077   3.497   7.992  0.1313  0.3750  0.5306
   49MOL0     C 6484   6.180   3.445   7.925 -0.4964 -0.2186 -0.4093
   49MOL0     C 6485   6.307   3.452   7.980 -0.0596 -0.1924 -0.7218
   49MOL0     C 6486   6.413   3.395   7.906  0.9371 -0.0149 -0.8627
   49MOL0     C 6487   6.389   3.334   7.774  0.2747  0.3493 -0.1894
   49MOL0     O 6488   6.485   3.280   7.699 -0.3038 -0.4641  0.0881
   49MOL0     C 6489   6.495   3.138   7.703 -0.5164 -0.5282 -0.4606
   49MOL0     C 6490   6.623   3.087   7.648 -0.1284  0.4893 -0.0745
   49MOL0     C 6491   6.739   3.138   7.727 -0.2191  0.1154 -0.4965
   49MOL0     C 6492   6.770   3.057   7.841 -1.4392  0.4521  0.5601
   49MOL0     C 6493   6.908   3.090   7.920  0.2480  1.1974 -0.0332
   49MOL0     C 6494   7.035   3.068   7.844  0.2932  0.0254  0.5647
   49MOL0     C 6495   7.166   3.109   7.921  0.5872 -0.1887  0.0764
   49MOL0     C 6496   7.297   3.082   7.842 -0.1415 -0.1201 -0.2097
   49MOL0     N 6497   7.365   3.204   7.783 -0.8734 -0.5142  0.1813
   49MOL0     C 6498   7.503   3.212   7.769 -0.3138  0.3251 -0.5849
   49MOL0     C 6499   7.522   3.327   7.695 -0.3545  0.1611  0.1758
   49MOL0     C 6500   7.655   3.371   7.629  0.1537 -0.0546  0.3101
   49MOL0     C 6501   7.749   3.440   7.727  1.0096 -0.8487 -0.0695
   49MOL0     C 6502   7.704   3.588   7.755  0.5204 -0.2878  0.2006
   49MOL0     C 6503   7.779   3.636   7.882 -0.0314  0.1952 -0.4386
   49MOL0     O 6504   7.743   3.771   7.919  0.1684  0.5124  0.8327
   49MOL0     C 6505   7.610   3.798   7.950 -0.1562  0.0788 -0.4115
   49MOL0     C 6506   7.505   3.706   7.973  0.9280  0.3445  1.3560
   49MOL0     C 6507   7.372   3.746   8.007  0.7917 -0.2898 -0.2042
   49MOL0     C 6508   7.274   3.629   8.032  0.3141 -0.2087  0.3925
   49MOL0     C 6509   7.345   3.880   8.041  0.0814 -0.3655 -0.1117
   49MOL0     C 6510   7.212   3.931   8.095 -0.6780 -0.3054  0.7199
   49MOL0     O 6511   7.196   4.062   8.077  0.5236 -0.2454 -0.1502
   49MOL0     C 6512   7.081   4.115   8.125  0.4737  0.3764 -0.3109
   49MOL0     C 6513   7.019   4.199   8.035  0.5189  0.2022 -0.4599
   49MOL0     C 6514   6.912   4.276   8.086 -0.3211 -0.1617 -0.8269
   49MOL0     C 6515   6.846   4.259   8.210 -0.5236  0.2301  0.4115
   49MOL0     O 6516   6.723   4.309   8.237  0.6677 -0.6727  1.2092
   49MOL0     C 6517   6.634   4.314   8.120 -0.2639 -0.0162 -0.0449
   49MOL0     C 6518   6.488   4.327   8.157 -0.0523  0.2253 -0.1049
   49MOL0     C 6519   6.455   4.461   8.243  0.1279  0.2185 -0.9165
   49MOL0     C 6520   6.314   4.504   8.216  0.8291 -0.7052 -0.7331
   49MOL0     C 6521   6.203   4.409   8.258 -0.2199 -0.2215 -0.5021
   49MOL0     C 6522   6.222   4.352   8.404 -0.0751  0.1727  0.6947
   49MOL0     C 6523   6.088   4.316   8.469 -0.2454 -0.3087 -0.2905
   49MOL0     C 6524   6.120   4.244   8.603  0.4613  0.4089  0.5881
   49MOL0    Cl 6525   6.194   4.352   8.721 -0.6962  0.5166 -0.2170
   49MOL0     C 6526   6.910   4.164   8.295  0.9634 -0.6484 -0.0892
   49MOL0     C 6527   7.032   4.098   8.262 -0.0527  0.3214 -0.1999
   49MOL0     O 6528   7.124   3.856   8.133  0.3678 -0.2706  0.5997
   49MOL0     C 6529   7.451   3.972   8.025 -0.4036  0.2719  0.5003
   49MOL0     C 6530   7.575   3.930   7.970 -0.2360 -0.4086  0.0750
   49MOL0     N 6531   7.398   3.396   7.676  0.0654  0.5445 -0.5649
   49MOL0     N 6532   7.305   3.320   7.729 -0.0012 -0.8487 -0.3006
   49MOL0     C 6533   6.255   3.331   7.718 -0.5970 -0.7596 -0.5991
   49MOL0     C 6534   6.154   3.389   7.801 -0.8899  0.9779  0.0882
   49MOL0     C 6535   5.981   3.607   8.170 -0.0764  0.2399  0.3100
   49MOL0     C 6536   5.997   3.646   8.299  0.0888  0.3833 -0.1680
   49MOL0     C 6537   5.911   3.736   8.357 -0.6914  0.6521  0.2954
   49MOL0     C 6538   5.803   3.801   8.284  0.8964 -0.3561  1.1547
   49MOL0     O 6539   5.711   3.868   8.363  0.2272  0.3516  0.3117
   49MOL0     C 6540   5.577   3.855   8.310  0.6388  0.3476 -0.1675
   49MOL0     C 6541   5.512   3.758   8.403 -0.1424 -0.2061 -0.2068
   49MOL0     C 6542   5.391   3.700   8.343 -0.6102  0.1088  0.0756
   49MOL0     C 6543   5.271   3.794   8.358  0.8905  0.0041  0.4482
   49MOL0     C 6544   5.168   3.730   8.270  0.5557 -0.8361  0.6820
   49MOL0     C 6545   5.076   3.668   8.218 -0.2642 -0.5290  0.6197
   49MOL0     C 6546   5.780   3.755   8.150 -0.6559 -0.8758  0.2963
   49MOL0     C 6547   5.870   3.662   8.095 -0.2805 -1.3001 -0.3721
   49MOL0     H 6548   6.324   3.515   8.067  1.2064  0.7195 -1.5904
   49MOL0     H 6549   6.510   3.419   7.946  0.3556 -1.3132  1.5210
   49MOL0     H 6550   6.484   3.098   7.805  0.7223  1.8914  0.6984
   49MOL0     H 6551   6.409   3.114   7.639 -1.2812  0.0009  0.3480
   49MOL0     H 6552   6.623   2.977   7.647  1.1523  0.4441 -1.8222
   49MOL0     H 6553   6.641   3.130   7.549 -1.8414  0.9389 -0.2177
   49MOL0     H 6554   6.820   3.140   7.654  0.5074  0.8307  0.2891
   49MOL0     H 6555   6.735   3.245   7.751  0.5112 -0.3238  1.9863
   49MOL0     H 6556   6.685   3.082   7.905 -2.2222  2.4329 -1.1424
   49MOL0     H 6557   6.757   2.958   7.796 -1.9726  0.6443  0.2811
   49MOL0     H 6558   6.904   3.190   7.962 -1.8436  0.6479  1.2092
   49MOL0     H 6559   6.915   3.023   8.007 -0.9975  0.6268 -0.3544
   49MOL0     H 6560   7.051   2.963   7.819 -1.5465 -0.5375  1.6147
   49MOL0     H 6561   7.020   3.125   7.752  1.4731 -0.6888 -0.0937
   49MOL0     H 6562   7.171   3.212   7.958 -0.7705 -0.9852  2.7488
   49MOL0     H 6563   7.165   3.050   8.013  1.7355  0.7075  0.6939
   49MOL0     H 6564   7.275   3.009   7.763 -0.3174 -1.0918  0.7170
   49MOL0     H 6565   7.366   3.034   7.912  0.6648  1.3594  0.0308
   49MOL0     H 6566   7.577   3.141   7.803 -1.0770  0.1800  0.8972
   49MOL0     H 6567   7.693   3.279   7.583 -4.0851 -1.1434 -1.5657
   49MOL0     H 6568   7.638   3.449   7.554  0.7686  0.0349  0.2594
   49MOL0     H 6569   7.847   3.447   7.679  1.5140  0.0031  1.0527
   49MOL0     H 6570   7.756   3.379   7.818 -1.4792  2.0835  2.2873
   49MOL0     H 6571   7.595   3.599   7.758  0.6082  0.4896  0.9870
   49MOL0     H 6572   7.744   3.653   7.677 -0.5498  0.6499  0.3988
   49MOL0     H 6573   7.888   3.635   7.871  0.0689  4.0599 -1.4279
   49MOL0     H 6574   7.761   3.571   7.968 -1.1661  0.9100 -0.1293
   49MOL0     H 6575   7.514   3.599   7.953 -0.8155  0.6450 -1.7410
   49MOL0     H 6576   7.312   3.547   7.970  1.4054  1.3303 -1.0778
   49MOL0     H 6577   7.266   3.593   8.135 -2.1946 -0.1274  0.2904
   49MOL0     H 6578   7.171   3.651   8.001  0.1755 -0.8144  0.4059
   49MOL0     H 6579   7.060   4.185   7.936 -1.0128  0.6409 -1.1932
   49MOL0     H 6580   6.856   4.336   8.015 -1.0611  2.2713  1.6430
   49MOL0     H 6581   6.651   4.405   8.061  2.1078  1.2551  2.4101
   49MOL0     H 6582   6.636   4.228   8.053 -4.9711 -0.9858  0.6762
   49MOL0     H 6583   6.434   4.330   8.062 -1.8049 -0.0832  0.8302
   49MOL0     H 6584   6.463   4.232   8.204 -1.2596 -0.3867 -1.8830
   49MOL0     H 6585   6.519   4.542   8.209 -1.1060  1.7354  0.2200
   49MOL0     H 6586   6.478   4.442   8.348  2.6397 -2.9930 -1.8782
   49MOL0     H 6587   6.301   4.598   8.270 -0.0681 -1.7739  1.0351
   49MOL0     H 6588   6.304   4.531   8.111 -0.4915  1.4720 -0.1112
   49MOL0     H 6589   6.201   4.329   8.184 -2.0074 -0.7443  0.0759
   49MOL0     H 6590   6.115   4.473   8.261 -0.5137 -0.5838 -1.1829
   49MOL0     H 6591   6.288   4.267   8.384 -0.3660  0.6625 -3.3521
   49MOL0     H 6592   6.275   4.429   8.461  1.2191  0.3682 -0.7107
   49MOL0     H 6593   6.037   4.239   8.411 -1.4716 -0.6977  1.2300
   49MOL0     H 6594   6.012   4.394   8.482 -2.0223 -2.0511  0.1803
   49MOL0     H 6595   6.188   4.162   8.579 -0.3561  0.6280 -2.9429
   49MOL0     H 6596   6.036   4.187   8.645  2.7308 -2.4514  1.6303
   49MOL0     H 6597   6.864   4.117   8.381  1.8044  0.6913  1.1388
   49MOL0     H 6598   7.079   4.025   8.327  0.4706 -1.3952 -2.4022
   49MOL0     H 6599   7.447   4.075   8.061 -0.0281 -0.5749  3.2028
   49MOL0     H 6600   7.660   3.996   7.954 -0.4166 -0.4202 -0.9807
   49MOL0     H 6601   6.243   3.289   7.619  0.8333 -1.6816 -0.4142
   49MOL0     H 6602   6.057   3.373   7.754 -1.7092 -0.0721  2.0546
   49MOL0     H 6603   6.079   3.625   8.368 -1.3409 -0.0173  1.5013
   49MOL0     H 6604   5.910   3.750   8.465 -2.1250 -0.7606  0.5107
   49MOL0     H 6605   5.530   3.953   8.310 -2.0883 -0.8509 -0.2736
   49MOL0     H 6606   5.561   3.819   8.208  0.7372  2.6056 -1.0195
   49MOL0     H 6607   5.474   3.802   8.496  1.4604 -0.1287  0.4473
   49MOL0     H 6608   5.575   3.673   8.431 -1.8736 -1.2239  0.7989
   49MOL0     H 6609   5.374   3.601   8.386  0.5826 -0.7532 -1.3344
   49MOL0     H 6610   5.404   3.673   8.238 -2.9436 -1.7230  0.1816
   49MOL0     H 6611   5.298   3.899   8.349 -2.8857  1.2888  2.0884
   49MOL0     H 6612   5.223   3.777   8.455  1.7609 -1.6624  0.6325
   49MOL0     H 6613   5.006   3.595   8.183 -2.3615 -0.4078  4.0497
   49MOL0     H 6614   5.696   3.779   8.085 -1.4531 -0.3714  1.4890
   49MOL0     H 6615   5.851   3.621   7.996 -4.8116 -1.6640  0.4137
   50MOL0     O 6616  10.749   2.451   9.507 -0.2856  0.3226 -0.6272
   50MOL0     C 6617  10.705   2.390   9.409  0.5309 -0.6410  0.4623
   50MOL0     O 6618  10.787   2.336   9.319 -0.1583  0.3472  0.7962
   50MOL0     C 6619  10.921   2.328   9.348  0.5481 -0.1320  0.1372
   50MOL0     C 6620  11.003   2.445   9.347  0.4353  0.5249  0.0472
   50MOL0     C 6621  11.140   2.436   9.374  0.1337  0.5667  0.2499
   50MOL0     C 6622  11.197   2.307   9.401  0.1490 -0.1814  0.2307
   50MOL0     O 6623  11.335   2.309   9.420 -0.5023  0.3225 -0.2432
   50MOL0     C 6624  11.422   2.201   9.381 -0.2089 -0.0320  0.8339
   50MOL0     C 6625  11.561   2.238   9.422 -0.2769  0.8871  0.2731
   50MOL0     C 6626  11.617   2.338   9.321  0.3327 -0.3325 -0.0274
   50MOL0     C 6627  11.764   2.367   9.357 -0.1035  0.4420  0.5317
   50MOL0     C 6628  11.842   2.468   9.277 -0.2073  0.3658 -0.4341
   50MOL0     C 6629  11.882   2.591   9.361  0.4409 -0.4848  0.3990
   50MOL0     C 6630  11.929   2.698   9.262 -0.1494  0.0361 -0.0824
   50MOL0     C 6631  11.981   2.818   9.345  1.1549 -0.3326  0.1995
   50MOL0     N 6632  11.991   2.939   9.258  0.2292  0.8486 -0.1292
   50MOL0     C 6633  11.914   3.046   9.250  0.6063 -0.7910  0.0758
   50MOL0     C 6634  11.972   3.122   9.153 -0.8727 -0.6031 -0.2733
   50MOL0     C 6635  11.922   3.253   9.115 -0.7219  0.1833  0.5358
   50MOL0     C 6636  11.946   3.367   9.218 -0.5319  1.1292 -0.1268
   50MOL0     C 6637  11.852   3.387   9.330  1.0234  0.0860  0.0007
   50MOL0     C 6638  11.859   3.515   9.408 -0.1821 -0.4813 -1.2117
   50MOL0     O 6639  11.743   3.536   9.494 -1.0744  0.4850 -1.0922
   50MOL0     C 6640  11.735   3.639   9.582  0.1432 -0.4532 -0.3422
   50MOL0     C 6641  11.651   3.750   9.553  0.4231 -0.5743 -0.3458
   50MOL0     C 6642  11.636   3.869   9.627  0.5934  0.0042  0.2548
   50MOL0     C 6643  11.545   3.984   9.590  0.2780  0.7942 -0.1785
   50MOL0     C 6644  11.708   3.872   9.751  0.3864  0.2976 -0.5871
   50MOL0     C 6645  11.694   3.997   9.840  0.0521  0.8859  0.5654
   50MOL0     O 6646  11.694   3.970   9.974 -0.5922 -0.2352 -0.1976
   50MOL0     C 6647  11.682   4.077  10.053  0.5712  0.2874 -0.2523
   50MOL0     C 6648  11.564   4.141  10.075  1.3026  0.0974  1.5094
   50MOL0     C 6649  11.560   4.248  10.155 -0.6432 -0.4480 -0.0414
   50MOL0     C 6650  11.673   4.290  10.230  1.2038 -0.2418 -0.2510
   50MOL0     O 6651  11.650   4.390  10.321 -0.9902  0.1661  0.9129
   50MOL0     C 6652  11.751   4.479  10.370  0.3180 -0.0808 -0.6099
   50MOL0     C 6653  11.793   4.447  10.517  0.1512 -0.6891 -0.4109
   50MOL0     C 6654  11.864   4.317  10.546 -0.3781  0.2890  0.5088
   50MOL0     C 6655  11.888   4.309  10.697 -0.8546 -0.5859  0.1618
   50MOL0     C 6656  11.962   4.176  10.730 -0.2291 -0.3367  0.3511
   50MOL0     C 6657  12.048   4.184  10.853 -0.2256 -0.8709 -0.1213
   50MOL0     C 6658  12.179   4.260  10.829  0.0490 -0.5944  0.5372
   50MOL0     C 6659  12.258   4.302  10.950 -0.7493  0.0723 -0.5079
   50MOL0    Cl 6660  12.179   4.444  11.026  0.3775  0.3062  0.2920
   50MOL0     C 6661  11.796   4.227  10.206 -0.2408 -0.4684  0.0612
   50MOL0     C 6662  11.797   4.121  10.116  0.4457 -0.4609 -0.1934
   50MOL0     O 6663  11.700   4.104   9.789 -0.2119 -0.5991  0.5423
   50MOL0     C 6664  11.788   3.765   9.783 -0.4243  0.5545  1.1526
   50MOL0     C 6665  11.798   3.650   9.702 -0.1721 -0.5320 -0.8679
   50MOL0     N 6666  12.092   3.067   9.117  0.5937  0.0184  0.3102
   50MOL0     N 6667  12.086   2.945   9.159 -0.2549  0.4456 -0.5805
   50MOL0     C 6668  11.118   2.193   9.393  0.3039 -0.1542 -0.0489
   50MOL0     C 6669  10.978   2.204   9.363 -0.9439  1.6510  0.8481
   50MOL0     C 6670  10.564   2.411   9.366 -0.0403 -0.2342 -0.9408
   50MOL0     C 6671  10.476   2.493   9.443  0.2513  0.0950 -0.1120
   50MOL0     C 6672  10.345   2.505   9.419 -1.1724  1.8738  0.1414
   50MOL0     C 6673  10.292   2.445   9.304 -0.7293  0.1619 -1.2063
   50MOL0     O 6674  10.164   2.486   9.269  0.5853 -0.0994 -0.0119
   50MOL0     C 6675  10.061   2.443   9.356 -0.4973  0.6015 -0.8710
   50MOL0     C 6676  10.013   2.294   9.347  0.3914  0.1808 -0.9554
   50MOL0     C 6677   9.898   2.287   9.253  0.3273 -0.3659  0.8095
   50MOL0     C 6678   9.881   2.144   9.197 -0.4304  0.8323  0.7308
   50MOL0     C 6679   9.747   2.130   9.134  0.3264  0.8386  0.2210
   50MOL0     C 6680   9.651   2.123   9.062  1.3416 -0.3590 -0.0062
   50MOL0     C 6681  10.386   2.384   9.212  0.0526  0.7471 -0.2379
   50MOL0     C 6682  10.515   2.353   9.253 -1.2312  0.6915 -0.4852
   50MOL0     H 6683  10.976   2.545   9.314  3.7023  0.6498 -2.8178
   50MOL0     H 6684  11.200   2.526   9.360 -0.1217  0.8261  0.7897
   50MOL0     H 6685  11.386   2.112   9.435  0.3538 -0.4913  0.4658
   50MOL0     H 6686  11.423   2.177   9.274  1.7525  3.3154 -0.0399
   50MOL0     H 6687  11.561   2.297   9.514  0.6678  3.2010 -1.0960
   50MOL0     H 6688  11.623   2.148   9.434  0.1044  0.9847 -0.8317
   50MOL0     H 6689  11.612   2.298   9.220  2.4184 -0.0253 -0.3068
   50MOL0     H 6690  11.568   2.435   9.326  2.2443  0.6957 -0.1906
   50MOL0     H 6691  11.764   2.406   9.460 -0.1836  0.0741  0.6706
   50MOL0     H 6692  11.811   2.269   9.367 -1.4061 -0.6530 -2.8537
   50MOL0     H 6693  11.936   2.420   9.251 -0.7842 -1.7455  1.1436
   50MOL0     H 6694  11.789   2.503   9.188  0.4019 -0.5737 -1.1765
   50MOL0     H 6695  11.798   2.627   9.421  1.4235  0.4702  1.2369
   50MOL0     H 6696  11.965   2.569   9.429  0.3306 -1.4370  0.2409
   50MOL0     H 6697  12.011   2.664   9.199 -0.4345 -1.1254  0.1374
   50MOL0     H 6698  11.849   2.726   9.194 -1.1899  1.1454  1.5227
   50MOL0     H 6699  12.067   2.797   9.409  2.1939  0.3008 -0.9583
   50MOL0     H 6700  11.902   2.846   9.415  3.2558  1.3716  2.0488
   50MOL0     H 6701  11.825   3.071   9.307  0.8091  1.4133 -0.4522
   50MOL0     H 6702  11.971   3.276   9.020 -1.7365  0.5268  0.0726
   50MOL0     H 6703  11.813   3.246   9.103 -0.5138 -0.9997 -0.9093
   50MOL0     H 6704  11.941   3.455   9.152  2.7018  1.6110  0.1109
   50MOL0     H 6705  12.041   3.358   9.271 -1.0742 -0.7625  0.6039
   50MOL0     H 6706  11.859   3.302   9.398 -1.8776 -1.5813 -1.5721
   50MOL0     H 6707  11.752   3.383   9.286  0.8162 -1.4075  0.5471
   50MOL0     H 6708  11.855   3.598   9.336 -0.1669 -0.9691 -1.7758
   50MOL0     H 6709  11.946   3.513   9.475 -2.5939  1.3518  2.3265
   50MOL0     H 6710  11.608   3.754   9.453 -4.1569  1.1086  1.4439
   50MOL0     H 6711  11.456   3.990   9.654  1.4917 -4.5144  2.5063
   50MOL0     H 6712  11.594   4.082   9.586  1.4581  0.1917 -1.5816
   50MOL0     H 6713  11.508   3.969   9.488 -1.3303 -0.7018  0.5726
   50MOL0     H 6714  11.468   4.101  10.044  1.9651  1.0540 -2.2407
   50MOL0     H 6715  11.456   4.273  10.173 -1.6518 -4.6320  1.0569
   50MOL0     H 6716  11.841   4.467  10.310  1.3670 -1.3649  1.1339
   50MOL0     H 6717  11.718   4.583  10.371  0.9832  0.1323 -0.3406
   50MOL0     H 6718  11.855   4.532  10.550 -3.1206  1.9057 -0.3509
   50MOL0     H 6719  11.701   4.445  10.576  1.0947 -1.5675  1.1045
   50MOL0     H 6720  11.955   4.313  10.486 -2.4162 -0.9488 -2.7734
   50MOL0     H 6721  11.802   4.230  10.524  1.6479 -1.3015  0.7751
   50MOL0     H 6722  11.948   4.394  10.731 -1.2405 -0.1464 -0.2447
   50MOL0     H 6723  11.803   4.313  10.765 -0.5274  1.2551  0.5054
   50MOL0     H 6724  12.027   4.145  10.647 -1.3437  2.3938 -1.6623
   50MOL0     H 6725  11.885   4.100  10.747 -0.1487 -0.1985  1.4096
   50MOL0     H 6726  11.982   4.236  10.923  1.9450  1.1691  0.5380
   50MOL0     H 6727  12.074   4.086  10.894 -0.7902 -2.6500 -3.5782
   50MOL0     H 6728  12.154   4.344  10.763 -3.1832 -2.1374 -0.4099
   50MOL0     H 6729  12.242   4.195  10.769 -1.1242 -1.7435  0.4949
   50MOL0     H 6730  12.361   4.331  10.925 -0.7512  1.1377  0.6301
   50MOL0     H 6731  12.260   4.214  11.015 -1.2503  1.8435  2.0534
   50MOL0     H 6732  11.892   4.257  10.246  0.6363  1.0437 -2.8205
   50MOL0     H 6733  11.894   4.074  10.107  1.1908  0.8068  0.8387
   50MOL0     H 6734  11.844   3.775   9.875 -1.6611 -3.7383  2.5905
   50MOL0     H 6735  11.853   3.561   9.731  1.4790  0.5705 -0.5048
   50MOL0     H 6736  11.164   2.097   9.414 -0.2227 -0.7853 -1.6288
   50MOL0     H 6737  10.917   2.115   9.364 -0.4122  1.2817  0.7431
   50MOL0     H 6738  10.520   2.540   9.530 -1.4536 -0.1107  0.9067
   50MOL0     H 6739  10.286   2.569   9.483 -0.8174  1.2902  1.0783
   50MOL0     H 6740  10.089   2.449   9.461  0.8269  0.2068 -1.1835
   50MOL0     H 6741   9.984   2.522   9.352  0.1646  1.2529 -1.1321
   50MOL0     H 6742   9.970   2.259   9.441  1.5769  1.8370  0.2479
   50MOL0     H 6743  10.090   2.220   9.323  0.7992  0.5312 -0.7401
   50MOL0     H 6744   9.916   2.359   9.173 -0.5184  1.4182  2.1393
   50MOL0     H 6745   9.800   2.323   9.288 -0.1742  0.0157 -0.9206
   50MOL0     H 6746   9.899   2.061   9.266 -0.3108  2.2586  2.5074
   50MOL0     H 6747   9.957   2.134   9.119 -1.7975 -2.9332 -0.3312
   50MOL0     H 6748   9.555   2.132   9.015  0.6771  1.5357  1.5934
   50MOL0     H 6749  10.337   2.355   9.120 -1.2881  4.7276 -0.9718
   50MOL0     H 6750  10.573   2.296   9.181  0.4941  0.3369  1.0939
   51MOL0     O 6751   0.796   6.174   8.272  0.5217 -0.9288 -0.3392
   51MOL0     C 6752   0.902   6.240   8.262  0.2724  0.0519  0.0016
   51MOL0     O 6753   1.004   6.227   8.348  0.0066 -0.3098  0.3283
   51MOL0     C 6754   1.003   6.128   8.448 -0.1763  0.5403  0.1204
   51MOL0     C 6755   1.118   6.057   8.478 -0.5559 -0.3588  0.4864
   51MOL0     C 6756   1.132   5.970   8.591  0.5228 -0.4618 -0.9747
   51MOL0     C 6757   1.024   5.964   8.685  0.1560  1.2151  0.4350
   51MOL0     O 6758   1.044   5.866   8.779  0.7688  0.1884 -0.5260
   51MOL0     C 6759   0.926   5.834   8.853 -0.2565  0.2351  0.0555
   51MOL0     C 6760   0.981   5.749   8.963  0.2940  0.2297 -0.4195
   51MOL0     C 6761   0.888   5.769   9.083  0.3622  0.2648 -1.0717
   51MOL0     C 6762   0.933   5.670   9.192 -0.6208 -0.9259  0.8492
   51MOL0     C 6763   0.874   5.694   9.327 -1.0462  0.3834  0.3551
   51MOL0     C 6764   0.884   5.831   9.407  0.0191  0.2587  1.4154
   51MOL0     C 6765   0.866   5.811   9.560 -0.6441  0.1294 -0.2409
   51MOL0     C 6766   0.871   5.944   9.629 -0.4707  0.2837 -0.2463
   51MOL0     N 6767   0.859   5.928   9.780  0.0551 -0.7040  0.3099
   51MOL0     C 6768   0.742   5.887   9.844 -0.3127  0.1623  0.0852
   51MOL0     C 6769   0.754   5.936   9.963 -0.7617 -0.5305 -0.1101
   51MOL0     C 6770   0.648   5.931  10.067  1.2796 -0.4397  0.0513
   51MOL0     C 6771   0.521   6.015  10.024  0.1697 -0.0345  0.3437
   51MOL0     C 6772   0.404   5.993  10.113 -0.5188  0.7231  0.2638
   51MOL0     C 6773   0.277   6.051  10.063  0.3817  0.1948  0.5163
   51MOL0     O 6774   0.220   5.947   9.978  0.3127  0.4675  0.0366
   51MOL0     C 6775   0.081   5.953   9.962 -0.0449  0.7402  0.6933
   51MOL0     C 6776   0.008   5.835   9.942  0.5192 -1.3408  0.3527
   51MOL0     C 6777  -0.131   5.832   9.927  0.4477  0.6750  0.1694
   51MOL0     C 6778  -0.197   5.688   9.923  0.4665  0.4515 -0.4153
   51MOL0     C 6779  -0.200   5.960   9.924  0.2140 -0.2121 -0.2605
   51MOL0     C 6780  -0.350   5.971   9.920  0.0656 -0.6189 -0.6996
   51MOL0     O 6781  -0.399   6.097   9.928  0.0525  0.5819  0.5438
   51MOL0     C 6782  -0.537   6.123   9.928  0.0421  1.0249  0.4648
   51MOL0     C 6783  -0.619   6.078  10.028  0.3124  0.1623 -0.6063
   51MOL0     C 6784  -0.753   6.107  10.029  0.7354 -0.5457 -0.5295
   51MOL0     C 6785  -0.816   6.172   9.926  0.6969 -0.4565  0.9481
   51MOL0     O 6786  -0.955   6.189   9.916  0.1529  0.0752 -0.1106
   51MOL0     C 6787  -1.007   6.204   9.781 -0.6069  0.4642 -0.2350
   51MOL0     C 6788  -1.155   6.167   9.784  0.8613 -0.6617 -0.0456
   51MOL0     C 6789  -1.239   6.260   9.864 -0.2919  0.7327  1.0492
   51MOL0     C 6790  -1.379   6.214   9.859 -0.5820  0.2878  0.4636
   51MOL0     C 6791  -1.460   6.320   9.916 -0.1668 -0.2261 -0.2276
   51MOL0     C 6792  -1.604   6.274   9.930  0.0926  0.6143 -0.0526
   51MOL0     C 6793  -1.686   6.380   9.992 -0.1975  0.3926 -0.1723
   51MOL0     C 6794  -1.819   6.406   9.920 -0.1921  0.2033 -0.4556
   51MOL0    Cl 6795  -1.793   6.481   9.761 -0.0623 -0.1834  0.6076
   51MOL0     C 6796  -0.726   6.229   9.825  0.1131 -0.0533  0.2860
   51MOL0     C 6797  -0.591   6.197   9.826  0.0117 -0.3738 -0.8626
   51MOL0     O 6798  -0.417   5.876   9.912 -0.3562  0.2334  0.4390
   51MOL0     C 6799  -0.128   6.079   9.943  0.2788 -0.8883 -0.1407
   51MOL0     C 6800   0.009   6.073   9.970  0.0775  0.1088 -0.2215
   51MOL0     N 6801   0.870   6.010   9.969  0.0680 -0.4943  0.1812
   51MOL0     N 6802   0.930   6.002   9.862  1.1388  0.4375  0.6135
   51MOL0     C 6803   0.907   6.030   8.658  0.1140  0.6921 -0.3221
   51MOL0     C 6804   0.898   6.112   8.541  0.7473  0.4515  1.4256
   51MOL0     C 6805   0.915   6.352   8.165  0.9880 -0.4454  0.7529
   51MOL0     C 6806   1.030   6.417   8.133 -0.8640 -0.3181 -0.5687
   51MOL0     C 6807   1.034   6.508   8.034 -0.3976 -0.2008 -0.1312
   51MOL0     C 6808   0.925   6.530   7.950  0.5247 -0.2463 -0.7697
   51MOL0     O 6809   0.928   6.628   7.857  0.8330 -1.3691 -0.7802
   51MOL0     C 6810   1.037   6.728   7.848  1.0708  0.5130  0.6700
   51MOL0     C 6811   1.144   6.678   7.738  0.2128  0.2492  0.4142
   51MOL0     C 6812   1.097   6.684   7.581  0.6022 -1.3601 -0.0309
   51MOL0     C 6813   1.076   6.822   7.513 -0.0165  0.3724 -0.2232
   51MOL0     C 6814   1.210   6.887   7.493 -0.0534  0.7189  1.1936
   51MOL0     C 6815   1.316   6.948   7.472 -0.1491 -0.6989 -1.1049
   51MOL0     C 6816   0.805   6.467   7.976 -0.1845  0.4961  0.5249
   51MOL0     C 6817   0.801   6.377   8.086  0.3579 -0.5055  0.8870
   51MOL0     H 6818   1.205   6.074   8.416 -1.1247 -1.7170 -0.7251
   51MOL0     H 6819   1.224   5.922   8.623  0.2396 -0.7370 -0.5634
   51MOL0     H 6820   0.880   5.923   8.897 -0.8443  0.4961 -1.0572
   51MOL0     H 6821   0.850   5.779   8.797  0.6496 -0.3017 -0.7007
   51MOL0     H 6822   0.985   5.645   8.930  0.6578 -0.7148  2.3801
   51MOL0     H 6823   1.080   5.771   9.003 -0.4878 -0.7914  2.2323
   51MOL0     H 6824   0.897   5.871   9.120  0.6754  0.0069 -0.4261
   51MOL0     H 6825   0.781   5.759   9.061 -0.3623  1.7616  1.3418
   51MOL0     H 6826   0.891   5.573   9.164 -0.4466 -0.6259 -0.4928
   51MOL0     H 6827   1.041   5.654   9.200 -0.7830 -1.6978  1.8419
   51MOL0     H 6828   0.769   5.666   9.326 -0.6457 -1.2218 -1.6601
   51MOL0     H 6829   0.926   5.620   9.388 -1.9445  1.9735  3.2596
   51MOL0     H 6830   0.974   5.888   9.384 -0.4512  0.4805  0.0305
   51MOL0     H 6831   0.805   5.895   9.368  1.8247  0.1396 -2.9683
   51MOL0     H 6832   0.773   5.762   9.591 -1.0781  0.8556 -0.3612
   51MOL0     H 6833   0.954   5.756   9.596 -2.4384 -1.4217  2.1329
   51MOL0     H 6834   0.784   6.005   9.604 -1.5518 -1.6321 -1.4350
   51MOL0     H 6835   0.965   5.998   9.613  0.4732 -1.3716 -0.5121
   51MOL0     H 6836   0.650   5.852   9.798 -1.2990  1.4357  1.0191
   51MOL0     H 6837   0.620   5.825  10.070 -2.8338  0.5048  1.8558
   51MOL0     H 6838   0.686   5.962  10.165  0.9066  1.1183 -0.2779
   51MOL0     H 6839   0.483   5.983   9.926 -0.5901  0.2989  0.5240
   51MOL0     H 6840   0.553   6.118  10.009  3.2694 -0.8476  0.7655
   51MOL0     H 6841   0.420   6.053  10.203 -2.4576  0.8403  0.5722
   51MOL0     H 6842   0.385   5.887  10.133 -1.4551  0.9085  0.4270
   51MOL0     H 6843   0.303   6.144  10.011  3.2078 -0.0725  1.2441
   51MOL0     H 6844   0.211   6.070  10.148 -0.1712 -2.9955  0.9222
   51MOL0     H 6845   0.067   5.745   9.937 -0.0629 -1.7500  0.7062
   51MOL0     H 6846  -0.123   5.608   9.919  0.8839  0.8078  0.0192
   51MOL0     H 6847  -0.261   5.676  10.011 -2.7540  0.2235 -2.6040
   51MOL0     H 6848  -0.261   5.662   9.839  0.0210 -3.7436  0.9916
   51MOL0     H 6849  -0.582   6.009  10.103 -0.2589 -1.5970 -1.8848
   51MOL0     H 6850  -0.813   6.076  10.114  3.4747 -0.1243  1.6660
   51MOL0     H 6851  -0.988   6.302   9.736  0.0292  0.4836  0.0611
   51MOL0     H 6852  -0.957   6.136   9.711 -0.2352  2.0950 -1.6238
   51MOL0     H 6853  -1.174   6.182   9.677  2.9258  0.0755 -0.3460
   51MOL0     H 6854  -1.171   6.061   9.807 -3.9508  0.0100  0.7178
   51MOL0     H 6855  -1.245   6.362   9.826 -2.4930  0.1990 -0.1958
   51MOL0     H 6856  -1.206   6.280   9.966 -2.6052  2.5326  1.5258
   51MOL0     H 6857  -1.417   6.191   9.759 -1.0694  0.3580  0.6326
   51MOL0     H 6858  -1.378   6.131   9.930 -0.8610 -0.6542 -0.6006
   51MOL0     H 6859  -1.457   6.411   9.855 -2.5482  2.9168  3.8179
   51MOL0     H 6860  -1.421   6.360  10.011 -2.6750  0.7359  0.4736
   51MOL0     H 6861  -1.652   6.250   9.835 -1.4605  1.2571  0.5487
   51MOL0     H 6862  -1.613   6.179   9.982 -3.2367 -0.0316 -1.5526
   51MOL0     H 6863  -1.623   6.467   9.973  2.1866 -1.7502 -2.9292
   51MOL0     H 6864  -1.682   6.361  10.100  1.1014  2.1747  0.1283
   51MOL0     H 6865  -1.877   6.469   9.988  0.8613 -3.1192  3.9201
   51MOL0     H 6866  -1.867   6.309   9.907  3.1724 -1.4303 -2.0064
   51MOL0     H 6867  -0.762   6.299   9.749 -0.0212  0.0122  0.4078
   51MOL0     H 6868  -0.520   6.227   9.749 -1.6461 -2.2470 -3.2825
   51MOL0     H 6869  -0.174   6.177   9.944 -0.7445 -1.3372  1.5642
   51MOL0     H 6870   0.066   6.165   9.979  1.1919 -0.6196  0.5447
   51MOL0     H 6871   0.825   6.023   8.728 -0.2980  0.8444 -0.7813
   51MOL0     H 6872   0.815   6.180   8.528  0.8772  0.3009 -0.4771
   51MOL0     H 6873   1.119   6.387   8.187  0.0532 -2.9735 -3.3072
   51MOL0     H 6874   1.127   6.560   8.013 -1.6887  3.3585  2.0330
   51MOL0     H 6875   0.994   6.819   7.806 -0.5285 -1.6509 -2.9113
   51MOL0     H 6876   1.088   6.746   7.943 -0.4087  1.4067  1.3236
   51MOL0     H 6877   1.177   6.574   7.753  1.8691  0.6769 -0.1218
   51MOL0     H 6878   1.237   6.734   7.752  1.7320 -2.0984  0.3934
   51MOL0     H 6879   1.002   6.633   7.561 -0.1539 -0.8043  1.9627
   51MOL0     H 6880   1.171   6.635   7.517  1.1161  0.2655 -0.7327
   51MOL0     H 6881   1.014   6.890   7.573 -0.5298  1.6217 -2.0775
   51MOL0     H 6882   1.019   6.811   7.420 -0.6446  1.6510 -0.0118
   51MOL0     H 6883   1.396   7.018   7.460 -2.2331  2.2451  0.8346
   51MOL0     H 6884   0.731   6.488   7.900 -0.4036  0.4628  0.7240
   51MOL0     H 6885   0.714   6.322   8.121  0.6819  0.3128  3.1296
   52MOL0     O 6886  11.104  10.927   3.786 -0.4753 -0.3186  0.6020
   52MOL0     C 6887  11.004  10.957   3.849 -0.3795 -0.5048  0.8089
   52MOL0     O 6888  10.897  11.022   3.799  0.3462 -1.4614  0.2559
   52MOL0     C 6889  10.887  11.055   3.667 -0.3592  0.1376  1.1903
   52MOL0     C 6890  10.835  11.178   3.631  0.4744  0.0459 -0.0095
   52MOL0     C 6891  10.830  11.214   3.496 -0.2836 -0.8548  1.0957
   52MOL0     C 6892  10.869  11.124   3.394  0.0555 -0.5684 -0.0986
   52MOL0     O 6893  10.856  11.168   3.264  0.4301  0.4788 -0.3431
   52MOL0     C 6894  10.966  11.144   3.179  0.3966  0.5839 -0.9183
   52MOL0     C 6895  10.929  11.038   3.063 -0.3609  0.2199  0.1035
   52MOL0     C 6896  11.038  11.027   2.949 -0.2536  0.1476 -0.3170
   52MOL0     C 6897  11.051  11.152   2.867 -0.6312 -0.2651  0.3719
   52MOL0     C 6898  11.125  11.135   2.729 -0.6729 -0.2905 -0.2245
   52MOL0     C 6899  11.285  11.122   2.734  0.2917 -0.1204 -0.3725
   52MOL0     C 6900  11.359  11.153   2.604  1.2747  0.4058  0.2471
   52MOL0     C 6901  11.280  11.104   2.485 -0.8056  0.5347  0.1182
   52MOL0     N 6902  11.352  11.121   2.356  0.3590 -0.7555 -0.3527
   52MOL0     C 6903  11.343  11.246   2.295  0.2202  0.0852  0.2432
   52MOL0     C 6904  11.426  11.230   2.187  0.2329 -0.4601  0.7586
   52MOL0     C 6905  11.470  11.350   2.105  0.2621 -0.2387  0.0241
   52MOL0     C 6906  11.601  11.396   2.164  1.1344  1.2344 -0.1509
   52MOL0     C 6907  11.642  11.525   2.107 -0.7848  0.2939 -0.6094
   52MOL0     C 6908  11.717  11.618   2.203 -0.2484  0.2890  0.6063
   52MOL0     O 6909  11.636  11.686   2.298  0.7809 -0.5557  0.0970
   52MOL0     C 6910  11.707  11.785   2.364 -0.0830  0.5495 -0.4761
   52MOL0     C 6911  11.637  11.879   2.438  0.4803  0.0822 -0.6269
   52MOL0     C 6912  11.708  11.975   2.515 -0.2264 -0.0405 -0.7038
   52MOL0     C 6913  11.618  12.063   2.605 -0.3794  0.3624  0.0595
   52MOL0     C 6914  11.847  11.977   2.505  0.1921 -0.4080 -0.5071
   52MOL0     C 6915  11.931  12.077   2.584 -0.6472 -0.0579 -0.9498
   52MOL0     O 6916  12.053  12.107   2.535  0.2859  0.8107  0.0227
   52MOL0     C 6917  12.137  12.182   2.609 -0.4873  0.3178  0.3493
   52MOL0     C 6918  12.246  12.119   2.671 -0.4090 -0.8910  0.3717
   52MOL0     C 6919  12.330  12.202   2.745  0.2855 -0.2358  1.2491
   52MOL0     C 6920  12.302  12.346   2.754 -0.0729  1.1241  0.4146
   52MOL0     O 6921  12.390  12.426   2.827  0.7289  0.5841  0.7308
   52MOL0     C 6922  12.527  12.384   2.843 -0.0531  0.6894 -0.4388
   52MOL0     C 6923  12.602  12.394   2.709  0.0604  0.2355  0.3137
   52MOL0     C 6924  12.720  12.288   2.705  0.5639 -0.6748  0.2797
   52MOL0     C 6925  12.782  12.264   2.573 -0.1870 -0.2462  0.1471
   52MOL0     C 6926  12.918  12.183   2.579  0.5404 -0.4331  0.8200
   52MOL0     C 6927  12.931  12.121   2.441 -1.0144  0.4234  0.2243
   52MOL0     C 6928  13.044  12.022   2.422 -0.2585  0.1119  0.4548
   52MOL0     C 6929  13.177  12.087   2.374  0.0949 -0.3043 -0.0536
   52MOL0    Cl 6930  13.233  12.205   2.491 -0.2212  0.0066  0.0115
   52MOL0     C 6931  12.200  12.406   2.686  0.7790 -1.0517 -0.3800
   52MOL0     C 6932  12.112  12.314   2.621 -0.3154 -0.8376 -0.6141
   52MOL0     O 6933  11.890  12.115   2.698 -0.3372 -0.2537  0.0425
   52MOL0     C 6934  11.916  11.895   2.415 -0.6363  0.1240  0.7904
   52MOL0     C 6935  11.846  11.791   2.353 -0.6008  0.0098  0.3978
   52MOL0     N 6936  11.472  11.099   2.181 -0.6923  0.2321 -0.5103
   52MOL0     N 6937  11.422  11.033   2.284  0.0573  0.3800  0.7489
   52MOL0     C 6938  10.913  11.000   3.438 -0.4830 -0.5176  1.2924
   52MOL0     C 6939  10.937  10.967   3.568  0.6260 -0.5359 -0.0574
   52MOL0     C 6940  11.001  10.929   3.994 -0.1316 -0.1710  0.6477
   52MOL0     C 6941  11.115  10.867   4.057  1.0178  0.8960 -0.2978
   52MOL0     C 6942  11.104  10.827   4.187 -0.0803 -0.6689 -0.3832
   52MOL0     C 6943  10.994  10.850   4.268  0.3436  0.6504 -0.2319
   52MOL0     O 6944  10.973  10.805   4.395 -0.0219 -0.8639  0.5195
   52MOL0     C 6945  11.061  10.708   4.451 -0.3509  0.8800 -0.0433
   52MOL0     C 6946  11.053  10.567   4.388  1.0387 -0.7936 -0.0246
   52MOL0     C 6947  11.122  10.451   4.468 -0.9782 -0.4543  0.1229
   52MOL0     C 6948  11.035  10.389   4.580 -0.6498  0.0216 -0.2181
   52MOL0     C 6949  10.907  10.341   4.544  0.9991  0.3942  1.0033
   52MOL0     C 6950  10.792  10.324   4.512 -0.7324  0.2527 -0.0938
   52MOL0     C 6951  10.892  10.918   4.212  0.6535 -0.1075  0.2314
   52MOL0     C 6952  10.895  10.963   4.074  0.0523  0.4293  0.5079
   52MOL0     H 6953  10.809  11.252   3.705  2.1967  1.2646 -0.5633
   52MOL0     H 6954  10.806  11.314   3.461  3.6754 -0.5811 -1.4583
   52MOL0     H 6955  10.987  11.242   3.136  0.2786  0.5585 -1.0343
   52MOL0     H 6956  11.052  11.121   3.242 -2.3961 -0.2109  2.9919
   52MOL0     H 6957  10.920  10.943   3.116 -0.0911  1.0021  1.6156
   52MOL0     H 6958  10.832  11.073   3.025  0.2600  1.4613 -0.4172
   52MOL0     H 6959  11.128  11.015   3.009 -0.3076 -0.5851 -0.3830
   52MOL0     H 6960  11.014  10.945   2.881 -2.4319  1.2041 -0.9553
   52MOL0     H 6961  10.950  11.182   2.838 -0.8257 -0.7268  0.5671
   52MOL0     H 6962  11.113  11.216   2.931  3.6712 -3.1561 -0.4175
   52MOL0     H 6963  11.084  11.051   2.673 -1.9435 -0.9337  1.5931
   52MOL0     H 6964  11.092  11.218   2.665  0.6457 -0.8294 -1.6743
   52MOL0     H 6965  11.331  11.194   2.803  1.1448  0.4391 -1.4905
   52MOL0     H 6966  11.304  11.024   2.778 -0.1871 -0.3061 -0.5774
   52MOL0     H 6967  11.384  11.258   2.585  0.6278  0.8814  1.8924
   52MOL0     H 6968  11.446  11.089   2.616  0.8669  0.1039  1.7969
   52MOL0     H 6969  11.192  11.168   2.478 -1.5971 -0.6822 -2.2161
   52MOL0     H 6970  11.273  10.995   2.487  1.4471  0.1097 -3.6598
   52MOL0     H 6971  11.291  11.335   2.327 -1.0688 -1.6138  3.3589
   52MOL0     H 6972  11.483  11.326   1.999  0.0710  0.5281 -0.1812
   52MOL0     H 6973  11.397  11.431   2.117  0.6107 -0.1016  1.4093
   52MOL0     H 6974  11.671  11.318   2.133  0.8598  1.7459 -2.1802
   52MOL0     H 6975  11.591  11.393   2.273 -1.2095  1.2315 -0.3330
   52MOL0     H 6976  11.551  11.575   2.072  0.3328  1.5391 -1.8678
   52MOL0     H 6977  11.710  11.501   2.024 -0.2853 -4.3120  0.8547
   52MOL0     H 6978  11.761  11.700   2.144 -1.2342  1.2281  1.1457
   52MOL0     H 6979  11.805  11.568   2.245 -0.0851  0.1880  0.1602
   52MOL0     H 6980  11.528  11.875   2.437  0.3317  0.6287  2.5944
   52MOL0     H 6981  11.514  12.040   2.581 -0.1106  1.4692 -2.3918
   52MOL0     H 6982  11.641  12.033   2.708  0.1277  3.2640  0.8674
   52MOL0     H 6983  11.629  12.170   2.585 -1.1549  0.6894  1.2850
   52MOL0     H 6984  12.259  12.012   2.657 -3.0554 -1.3204  0.8377
   52MOL0     H 6985  12.420  12.155   2.782  1.9903  1.1961 -0.7894
   52MOL0     H 6986  12.571  12.446   2.922 -0.6076  1.0484 -0.4004
   52MOL0     H 6987  12.540  12.292   2.900 -0.4768  2.1659  2.2251
   52MOL0     H 6988  12.532  12.384   2.625  0.4442  1.8440 -0.2392
   52MOL0     H 6989  12.650  12.492   2.720  3.0495 -1.2900  2.0273
   52MOL0     H 6990  12.689  12.190   2.744  0.1442  0.1512  2.0869
   52MOL0     H 6991  12.794  12.324   2.777  1.2768  0.8128 -1.1393
   52MOL0     H 6992  12.711  12.202   2.518 -0.1189  0.1984 -0.4432
   52MOL0     H 6993  12.786  12.359   2.520 -1.8244  0.0225  0.4791
   52MOL0     H 6994  12.914  12.105   2.656 -0.6222  0.3862  1.6223
   52MOL0     H 6995  13.000  12.248   2.612  2.1864 -2.1829  0.3872
   52MOL0     H 6996  12.837  12.071   2.417 -1.9362  1.5751  1.2800
   52MOL0     H 6997  12.941  12.206   2.373 -0.3375  0.7857  0.7636
   52MOL0     H 6998  13.011  11.945   2.352  1.9781 -2.0754  1.6275
   52MOL0     H 6999  13.071  11.971   2.515 -1.2825 -2.1583 -0.4479
   52MOL0     H 7000  13.158  12.142   2.282  0.2515  0.1454  0.1789
   52MOL0     H 7001  13.247  12.006   2.350 -1.3832 -1.5363 -0.3001
   52MOL0     H 7002  12.180  12.512   2.694  0.6796 -1.0862 -0.1287
   52MOL0     H 7003  12.021  12.354   2.577 -3.5191 -1.3885  4.6338
   52MOL0     H 7004  12.022  11.903   2.394 -0.6528 -0.9644  0.2039
   52MOL0     H 7005  11.913  11.739   2.286 -0.9034  0.8308 -0.5714
   52MOL0     H 7006  10.934  10.919   3.369  2.8319 -1.7470  3.5027
   52MOL0     H 7007  10.978  10.869   3.588  0.2738 -0.9016 -1.0968
   52MOL0     H 7008  11.198  10.855   3.988  0.1452  0.4163 -1.3102
   52MOL0     H 7009  11.186  10.772   4.232 -2.2482 -1.3699  3.0329
   52MOL0     H 7010  11.161  10.753   4.451 -0.1095  0.3477 -0.6655
   52MOL0     H 7011  11.032  10.692   4.555  0.2510 -3.1324 -0.3337
   52MOL0     H 7012  11.105  10.574   4.292 -1.7296  1.5833 -1.5179
   52MOL0     H 7013  10.946  10.550   4.374  0.5292  2.1922 -0.4551
   52MOL0     H 7014  11.213  10.494   4.511  0.0987 -2.3583 -0.1636
   52MOL0     H 7015  11.151  10.361   4.413  0.4162 -2.5588  3.9274
   52MOL0     H 7016  11.022  10.466   4.656  3.4856 -0.0269  0.7984
   52MOL0     H 7017  11.098  10.305   4.611  1.1913  0.6165 -2.0985
   52MOL0     H 7018  10.688  10.308   4.490 -0.5534 -0.9157 -0.1568
   52MOL0     H 7019  10.805  10.937   4.274  2.1531  3.3966  1.5572
   52MOL0     H 7020  10.796  10.992   4.040 -0.6833 -1.6058  0.8061
   53MOL0     O 7021   3.704   9.890  10.202  0.3091 -0.5468 -0.1963
   53MOL0     C 7022   3.661   9.849  10.314  0.3098  0.0010 -0.9907
   53MOL0     O 7023   3.675   9.719  10.358  0.3185 -1.1137 -0.2986
   53MOL0     C 7024   3.775   9.637  10.306 -0.0241  0.2576  0.3279
   53MOL0     C 7025   3.766   9.497  10.335 -0.6383  0.5439  0.6597
   53MOL0     C 7026   3.862   9.400  10.297 -0.5507 -0.0287  0.8485
   53MOL0     C 7027   3.971   9.454  10.228 -0.2345  0.6709 -0.0120
   53MOL0     O 7028   4.085   9.377  10.197  0.0883 -0.4119 -0.0932
   53MOL0     C 7029   4.089   9.231  10.181 -0.3519  0.1124 -0.4553
   53MOL0     C 7030   4.010   9.190  10.062 -0.6581 -0.3799  0.0700
   53MOL0     C 7031   4.058   9.260   9.930  0.2198 -0.1972  0.3003
   53MOL0     C 7032   3.973   9.243   9.810 -0.2131 -0.2233 -0.1264
   53MOL0     C 7033   3.848   9.331   9.817 -0.0332 -0.2686  0.3426
   53MOL0     C 7034   3.780   9.331   9.680 -0.2249 -0.5368 -0.6869
   53MOL0     C 7035   3.668   9.434   9.670  0.3780 -0.0260 -0.1895
   53MOL0     C 7036   3.606   9.430   9.530  0.1001  0.4085 -0.8824
   53MOL0     N 7037   3.676   9.514   9.427 -1.0238  0.2568  0.7303
   53MOL0     C 7038   3.627   9.633   9.381  0.1035  0.3311  0.3025
   53MOL0     C 7039   3.704   9.661   9.274  0.2622 -0.5583  0.3050
   53MOL0     C 7040   3.686   9.779   9.187 -0.1029  0.0851  0.9296
   53MOL0     C 7041   3.814   9.864   9.174 -0.1338  0.5844  0.1778
   53MOL0     C 7042   3.817   9.926   9.036 -0.1870 -0.0116 -0.9818
   53MOL0     C 7043   3.933  10.024   9.015 -0.4915  0.6817  0.5163
   53MOL0     O 7044   3.927  10.138   9.102 -0.6544 -1.0530 -0.0770
   53MOL0     C 7045   4.055  10.201   9.108 -0.0250  0.2021 -0.0376
   53MOL0     C 7046   4.073  10.277   9.220 -0.0327 -0.0774 -0.2013
   53MOL0     C 7047   4.200  10.333   9.259  0.1314 -0.1703  1.1915
   53MOL0     C 7048   4.197  10.396   9.403 -0.5962  0.1548 -0.5897
   53MOL0     C 7049   4.312  10.323   9.170  0.2328  0.7554 -0.5936
   53MOL0     C 7050   4.433  10.396   9.189 -0.4824 -0.5884  1.2633
   53MOL0     O 7051   4.474  10.474   9.081  0.1406 -0.5018  0.3211
   53MOL0     C 7052   4.589  10.540   9.077 -0.1523  1.2196  0.4033
   53MOL0     C 7053   4.697  10.504   9.157 -0.0936  0.0750 -0.2161
   53MOL0     C 7054   4.817  10.593   9.164  0.9479 -0.2461 -0.3983
   53MOL0     C 7055   4.822  10.707   9.079 -0.7086  0.1022 -0.1085
   53MOL0     O 7056   4.942  10.775   9.082 -0.2266 -0.4662  0.2643
   53MOL0     C 7057   4.987  10.839   8.956 -0.8441  1.3056 -0.7713
   53MOL0     C 7058   5.138  10.846   8.932  0.4885 -0.3923  0.2606
   53MOL0     C 7059   5.182  10.925   8.813  0.2541  0.2908  0.4259
   53MOL0     C 7060   5.334  10.906   8.770 -0.6395 -0.0284  0.5251
   53MOL0     C 7061   5.365  10.880   8.619  0.1062 -0.6301 -0.0450
   53MOL0     C 7062   5.502  10.820   8.615  0.0465  0.0393 -0.9563
   53MOL0     C 7063   5.554  10.785   8.470  0.6655  1.4991  0.0240
   53MOL0     C 7064   5.681  10.715   8.481 -0.8702 -0.1378  0.3473
   53MOL0    Cl 7065   5.804  10.804   8.580 -0.7950 -0.3181 -0.7018
   53MOL0     C 7066   4.711  10.732   8.994 -0.4583  0.4618 -0.2562
   53MOL0     C 7067   4.593  10.654   8.993  0.7708  0.1667 -0.5678
   53MOL0     O 7068   4.481  10.388   9.298  0.6701  0.4216 -0.2854
   53MOL0     C 7069   4.294  10.247   9.055 -0.4388 -1.5322 -0.6493
   53MOL0     C 7070   4.167  10.190   9.026  0.1129  0.5691  0.4232
   53MOL0     N 7071   3.788   9.558   9.242 -0.1717 -0.2897 -0.1469
   53MOL0     N 7072   3.765   9.466   9.330 -0.4310  0.0196 -0.4918
   53MOL0     C 7073   3.988   9.587  10.203  0.1944  0.5226 -0.0796
   53MOL0     C 7074   3.898   9.681  10.249  0.2542 -0.0480 -0.5170
   53MOL0     C 7075   3.596   9.962  10.394  0.6336  0.4594 -0.0352
   53MOL0     C 7076   3.578   9.957  10.538  0.0217  0.9998  0.2742
   53MOL0     C 7077   3.525  10.064  10.605  0.3381 -0.2503 -0.2276
   53MOL0     C 7078   3.487  10.186  10.540 -0.2488  1.2976 -0.0845
   53MOL0     O 7079   3.430  10.297  10.598  0.1350  0.3570  0.6974
   53MOL0     C 7080   3.426  10.321  10.738  0.7054  0.8280  0.4066
   53MOL0     C 7081   3.310  10.417  10.772  0.2547 -0.0936 -0.3128
   53MOL0     C 7082   3.309  10.563  10.709  0.2471  0.4630  0.3609
   53MOL0     C 7083   3.445  10.631  10.695 -0.4171 -0.6865 -0.5771
   53MOL0     C 7084   3.425  10.772  10.658 -0.0072  0.1097 -0.1574
   53MOL0     C 7085   3.406  10.890  10.643  0.6763 -0.7715  0.6724
   53MOL0     C 7086   3.503  10.192  10.409 -0.3413  0.1604  0.3746
   53MOL0     C 7087   3.560  10.081  10.334  0.1792 -0.2695 -0.2666
   53MOL0     H 7088   3.673   9.463  10.380 -0.9931  2.0348  1.1084
   53MOL0     H 7089   3.862   9.291  10.299 -0.7484 -0.0595 -0.2475
   53MOL0     H 7090   4.193   9.201  10.167 -0.2664  0.1379  0.0897
   53MOL0     H 7091   4.061   9.180  10.274 -0.7384  0.3150 -0.4557
   53MOL0     H 7092   4.018   9.082  10.044 -0.2772 -0.1520 -1.1998
   53MOL0     H 7093   3.905   9.205  10.088  0.1798 -0.4982  4.2300
   53MOL0     H 7094   4.076   9.367   9.945  0.2345 -0.1075 -0.3227
   53MOL0     H 7095   4.156   9.217   9.907 -0.3294 -1.0230 -0.5852
   53MOL0     H 7096   4.030   9.284   9.726  1.5868  1.8935  1.9626
   53MOL0     H 7097   3.945   9.140   9.788 -0.5659  0.0289 -0.8469
   53MOL0     H 7098   3.785   9.304   9.903 -0.0157 -2.8261 -0.3653
   53MOL0     H 7099   3.872   9.437   9.828  0.8513 -0.3200 -0.9493
   53MOL0     H 7100   3.855   9.359   9.606  0.2528  1.7465  0.5572
   53MOL0     H 7101   3.741   9.232   9.657 -0.0804 -0.4867 -1.1490
   53MOL0     H 7102   3.595   9.405   9.745  0.8088 -1.6606 -0.3619
   53MOL0     H 7103   3.717   9.528   9.700 -1.6223  1.3794 -1.1193
   53MOL0     H 7104   3.507   9.474   9.548  0.5337  1.1452 -0.2442
   53MOL0     H 7105   3.590   9.335   9.478 -4.4145  1.5962 -2.1463
   53MOL0     H 7106   3.551   9.696   9.423  0.0515 -0.1823  1.0029
   53MOL0     H 7107   3.648   9.753   9.088  0.6236  3.2700 -0.3068
   53MOL0     H 7108   3.603   9.836   9.229  1.0042  1.2461  1.6234
   53MOL0     H 7109   3.903   9.810   9.207  0.0999  0.2387 -0.9976
   53MOL0     H 7110   3.812   9.944   9.249  0.7986 -0.1588  1.0341
   53MOL0     H 7111   3.718   9.970   9.018 -0.5655  0.7247  2.2398
   53MOL0     H 7112   3.819   9.846   8.962  2.6908 -0.1451 -0.8665
   53MOL0     H 7113   3.933  10.054   8.910  0.1777 -1.9954 -0.3199
   53MOL0     H 7114   4.023   9.963   9.027 -0.6260 -0.3028 -2.5639
   53MOL0     H 7115   3.991  10.296   9.289  0.5890  1.4913  0.1476
   53MOL0     H 7116   4.092  10.413   9.431 -0.2533 -1.5658  2.1249
   53MOL0     H 7117   4.243  10.318   9.463 -2.4928 -0.3399  0.3124
   53MOL0     H 7118   4.260  10.481   9.430  1.0713 -1.6711  1.7124
   53MOL0     H 7119   4.697  10.423   9.229  1.9455  0.7963  0.6522
   53MOL0     H 7120   4.898  10.563   9.230  0.4186  1.3353  1.0306
   53MOL0     H 7121   4.945  10.778   8.875 -0.1831  0.3731 -0.4287
   53MOL0     H 7122   4.939  10.937   8.948 -0.9034  1.5377  1.7533
   53MOL0     H 7123   5.188  10.893   9.017  0.9652 -1.5711  0.6595
   53MOL0     H 7124   5.190  10.749   8.931  1.1644 -0.0306 -0.3983
   53MOL0     H 7125   5.158  11.030   8.830 -0.5386  0.0996  0.5221
   53MOL0     H 7126   5.109  10.889   8.740  0.0820 -2.9722  2.0061
   53MOL0     H 7127   5.388  10.995   8.803  0.6443  0.3227 -2.2192
   53MOL0     H 7128   5.373  10.818   8.822 -1.3410 -1.0872 -0.6856
   53MOL0     H 7129   5.351  10.974   8.563 -1.5750 -0.3297  0.8103
   53MOL0     H 7130   5.290  10.811   8.579  0.2521  0.7574 -3.0175
   53MOL0     H 7131   5.571  10.889   8.663 -1.6485  0.5574  0.8860
   53MOL0     H 7132   5.500  10.725   8.670  0.0956 -1.5664 -3.5489
   53MOL0     H 7133   5.566  10.876   8.411 -0.0644  0.5213 -1.6950
   53MOL0     H 7134   5.482  10.720   8.420  1.6889 -0.9964  1.5718
   53MOL0     H 7135   5.736  10.707   8.388  0.3332  0.8768  0.9459
   53MOL0     H 7136   5.670  10.613   8.520  1.5064 -0.2932  0.7334
   53MOL0     H 7137   4.713  10.819   8.929 -1.2493 -0.3829 -1.4504
   53MOL0     H 7138   4.513  10.681   8.925  0.3956 -1.9432 -1.0035
   53MOL0     H 7139   4.372  10.235   8.981  0.3947  0.8553 -0.2399
   53MOL0     H 7140   4.165  10.139   8.931 -0.4122  2.4235 -0.6101
   53MOL0     H 7141   4.071   9.623  10.144 -0.7065  1.6178 -0.7270
   53MOL0     H 7142   3.911   9.789  10.250 -2.0198  0.3050 -1.4918
   53MOL0     H 7143   3.587   9.862  10.590 -3.3892  1.4529  2.0029
   53MOL0     H 7144   3.499  10.053  10.709 -0.9167  0.9328 -0.3766
   53MOL0     H 7145   3.410  10.227  10.792  0.1995  1.1135  0.7625
   53MOL0     H 7146   3.518  10.368  10.774  0.4916  0.4868  1.4368
   53MOL0     H 7147   3.288  10.424  10.879  0.7812  4.4823 -0.3077
   53MOL0     H 7148   3.219  10.371  10.731 -1.5065  0.1034  3.0181
   53MOL0     H 7149   3.251  10.625  10.778  3.9997  1.0035  3.3128
   53MOL0     H 7150   3.258  10.563  10.612  0.9843 -0.8357 -0.0450
   53MOL0     H 7151   3.496  10.575  10.616 -0.4933  0.6072 -1.5873
   53MOL0     H 7152   3.510  10.631  10.783 -0.4436 -0.1054 -0.5569
   53MOL0     H 7153   3.401  10.995  10.619  0.2684 -1.3400 -2.0566
   53MOL0     H 7154   3.458  10.282  10.368 -0.5168 -0.8261 -1.7154
   53MOL0     H 7155   3.569  10.095  10.227  0.5549  1.1424 -0.0750
   54MOL0     O 7156   5.084   5.862   4.349  0.2847  0.8093 -0.5374
   54MOL0     C 7157   5.068   5.979   4.320 -0.2227 -0.1481 -0.5306
   54MOL0     O 7158   4.978   6.071   4.388 -0.0921 -0.5470 -0.1481
   54MOL0     C 7159   4.915   6.040   4.510  0.3363  0.5892  0.5854
   54MOL0     C 7160   4.805   6.116   4.534 -1.1305 -0.1751  0.3070
   54MOL0     C 7161   4.731   6.086   4.645 -0.1993 -0.4531 -0.0111
   54MOL0     C 7162   4.769   5.981   4.731  0.3687 -0.7877  0.5500
   54MOL0     O 7163   4.670   5.954   4.824  0.6761  0.0625 -0.7979
   54MOL0     C 7164   4.720   5.900   4.947 -0.3352  0.5020  0.2892
   54MOL0     C 7165   4.621   5.918   5.056 -0.7984  0.4641  0.2028
   54MOL0     C 7166   4.561   6.049   5.057 -0.2476  0.2652 -0.2980
   54MOL0     C 7167   4.479   6.078   5.183 -0.1027 -0.1335  0.0104
   54MOL0     C 7168   4.353   5.984   5.211 -0.2722  0.2091  0.2656
   54MOL0     C 7169   4.258   6.038   5.315  0.0869 -0.1927  0.1535
   54MOL0     C 7170   4.323   6.091   5.449  0.7013  0.4671  0.5650
   54MOL0     C 7171   4.224   6.161   5.546 -0.3765 -0.7750  0.7418
   54MOL0     N 7172   4.181   6.282   5.477  0.3755 -0.0163  0.0971
   54MOL0     C 7173   4.248   6.400   5.453 -0.2582  0.0699 -0.6623
   54MOL0     C 7174   4.164   6.490   5.413  0.2439 -0.6974  0.0871
   54MOL0     C 7175   4.200   6.628   5.378  0.1678  0.2067  0.2131
   54MOL0     C 7176   4.188   6.715   5.507 -0.6333  1.1904  0.3753
   54MOL0     C 7177   4.217   6.862   5.470 -0.4117 -0.1796 -0.0748
   54MOL0     C 7178   4.129   6.932   5.366  0.2217 -0.1041 -0.2731
   54MOL0     O 7179   3.987   6.905   5.382 -0.0853 -0.0133 -0.4431
   54MOL0     C 7180   3.885   6.966   5.304 -1.2329 -0.1569 -0.4384
   54MOL0     C 7181   3.755   6.908   5.290 -0.4179 -0.1307  0.3042
   54MOL0     C 7182   3.660   6.976   5.220 -1.0630  0.3468  0.2285
   54MOL0     C 7183   3.530   6.909   5.213  0.6420  0.3555  0.1674
   54MOL0     C 7184   3.688   7.101   5.150 -0.0909 -0.1302  0.2228
   54MOL0     C 7185   3.603   7.167   5.043 -0.2073 -0.2533 -0.0903
   54MOL0     O 7186   3.652   7.281   4.998 -0.1972 -0.9339 -0.3115
   54MOL0     C 7187   3.581   7.370   4.912  0.3615 -0.2841 -0.1867
   54MOL0     C 7188   3.667   7.454   4.846  0.4652  0.5921  0.6196
   54MOL0     C 7189   3.617   7.534   4.760  0.8444  0.0006  0.2590
   54MOL0     C 7190   3.484   7.549   4.725 -1.5093 -0.6348 -0.3032
   54MOL0     O 7191   3.449   7.663   4.654 -0.4378  0.0419 -0.2759
   54MOL0     C 7192   3.307   7.682   4.650 -0.3589 -0.1206 -0.2074
   54MOL0     C 7193   3.260   7.811   4.575  0.7451 -0.8979  0.0033
   54MOL0     C 7194   3.108   7.833   4.599  0.0436  0.0616 -0.5021
   54MOL0     C 7195   3.061   7.970   4.565 -0.5193 -0.0241  0.5482
   54MOL0     C 7196   3.064   7.970   4.413  1.2721 -0.5367 -0.3162
   54MOL0     C 7197   3.021   8.100   4.360  0.6809  0.1347 -0.6640
   54MOL0     C 7198   2.993   8.096   4.212  0.4588 -0.2061  0.4381
   54MOL0     C 7199   2.957   8.236   4.163  0.3946 -0.3063  0.0838
   54MOL0    Cl 7200   3.087   8.361   4.203 -0.2396 -0.2339  0.1950
   54MOL0     C 7201   3.398   7.463   4.786  0.2724  0.0825 -0.4829
   54MOL0     C 7202   3.444   7.377   4.878 -0.6738 -0.2419 -0.0949
   54MOL0     O 7203   3.483   7.122   5.021 -0.1104 -0.8902 -0.1500
   54MOL0     C 7204   3.820   7.150   5.151 -0.0035  0.0731  0.1882
   54MOL0     C 7205   3.911   7.083   5.237 -0.7975 -0.9234 -0.8435
   54MOL0     N 7206   4.042   6.431   5.403  0.1172 -0.0861  0.4212
   54MOL0     N 7207   4.050   6.306   5.440 -0.0803 -0.3680  0.2298
   54MOL0     C 7208   4.886   5.915   4.718 -0.9431 -0.4465  0.1404
   54MOL0     C 7209   4.965   5.937   4.598  0.8158 -0.1421  0.3309
   54MOL0     C 7210   5.135   6.023   4.192  0.0915  0.6174 -0.1406
   54MOL0     C 7211   5.123   6.149   4.135  0.3913  0.5068 -0.5980
   54MOL0     C 7212   5.182   6.178   4.016 -0.4838 -0.3248 -0.9365
   54MOL0     C 7213   5.262   6.089   3.950  0.1369 -0.3903 -0.0115
   54MOL0     O 7214   5.303   6.123   3.818 -0.9325 -0.0022  0.4136
   54MOL0     C 7215   5.355   6.023   3.728 -0.4129  0.2687  0.5418
   54MOL0     C 7216   5.408   6.084   3.597 -0.2561 -0.3134 -0.6482
   54MOL0     C 7217   5.309   6.179   3.546 -0.5467 -0.3049 -0.0822
   54MOL0     C 7218   5.347   6.223   3.405 -0.2556 -0.2653 -0.6567
   54MOL0     C 7219   5.294   6.128   3.303  0.9844 -0.3573  0.1296
   54MOL0     C 7220   5.248   6.057   3.215 -0.0830  1.3184  0.0466
   54MOL0     C 7221   5.290   5.969   4.017  0.0940 -0.2542  0.2272
   54MOL0     C 7222   5.222   5.933   4.125 -0.0428 -0.0918 -0.5547
   54MOL0     H 7223   4.798   6.203   4.470  1.0828 -1.8769 -2.4824
   54MOL0     H 7224   4.642   6.139   4.679 -0.6904 -1.5007  0.3631
   54MOL0     H 7225   4.725   5.792   4.930 -1.0634  0.4990  0.0548
   54MOL0     H 7226   4.823   5.928   4.968  0.6684 -2.7679  0.2929
   54MOL0     H 7227   4.543   5.847   5.029 -0.6821  0.7348 -0.8937
   54MOL0     H 7228   4.657   5.882   5.153 -3.5631  0.2811  1.2582
   54MOL0     H 7229   4.633   6.129   5.040 -2.3293  2.1919 -0.5669
   54MOL0     H 7230   4.484   6.054   4.980 -2.2307  0.3186  1.5675
   54MOL0     H 7231   4.547   6.102   5.265 -0.2476  1.4917 -0.3086
   54MOL0     H 7232   4.445   6.182   5.177 -0.6185 -0.1897  1.5507
   54MOL0     H 7233   4.291   5.971   5.122 -1.5534 -4.3235  1.5466
   54MOL0     H 7234   4.391   5.886   5.243  2.3422  1.1432  0.2406
   54MOL0     H 7235   4.198   6.123   5.280 -0.0037  0.8808  2.7067
   54MOL0     H 7236   4.176   5.970   5.339  0.6738 -0.3031  2.0083
   54MOL0     H 7237   4.360   5.996   5.490 -0.3844  0.0280  0.5595
   54MOL0     H 7238   4.420   6.142   5.448 -0.2356  2.2949 -0.0216
   54MOL0     H 7239   4.283   6.199   5.630 -1.4150  1.3219  0.5985
   54MOL0     H 7240   4.148   6.092   5.582 -0.2712 -1.2805 -0.0015
   54MOL0     H 7241   4.350   6.416   5.486 -0.7401  2.5396 -0.1737
   54MOL0     H 7242   4.304   6.626   5.343  0.6268 -2.8097  1.4340
   54MOL0     H 7243   4.127   6.667   5.307 -2.9036  0.7736  3.3857
   54MOL0     H 7244   4.257   6.684   5.586 -2.1610  1.9113  2.0921
   54MOL0     H 7245   4.090   6.708   5.556 -0.8493  1.7341  0.0339
   54MOL0     H 7246   4.319   6.880   5.437 -1.1342 -0.2019 -2.5651
   54MOL0     H 7247   4.205   6.913   5.566  0.1225  0.0657 -0.1347
   54MOL0     H 7248   4.166   6.904   5.267  0.8554  1.5062 -0.5151
   54MOL0     H 7249   4.146   7.040   5.373 -1.0937  0.3118 -2.6392
   54MOL0     H 7250   3.733   6.824   5.355  2.5767 -0.1884  1.3920
   54MOL0     H 7251   3.541   6.812   5.261 -1.1423 -0.3640 -0.7993
   54MOL0     H 7252   3.439   6.956   5.250 -0.4028  0.2323 -2.1214
   54MOL0     H 7253   3.498   6.890   5.111  1.7832 -4.1218  0.4410
   54MOL0     H 7254   3.773   7.458   4.867  0.8639 -0.2641 -1.0434
   54MOL0     H 7255   3.674   7.607   4.704 -1.7933  0.7527 -1.6604
   54MOL0     H 7256   3.254   7.597   4.605  1.5750 -0.6089 -1.6734
   54MOL0     H 7257   3.278   7.703   4.753 -1.5929 -0.8866 -0.3720
   54MOL0     H 7258   3.313   7.897   4.616  2.5030 -1.4594 -0.9619
   54MOL0     H 7259   3.293   7.802   4.471 -1.3092  1.3206 -0.9304
   54MOL0     H 7260   3.082   7.821   4.705 -4.2478 -4.0878 -1.6670
   54MOL0     H 7261   3.054   7.761   4.537 -1.7854  1.5721 -0.7866
   54MOL0     H 7262   2.965   7.989   4.614  0.9380 -1.1009  4.0884
   54MOL0     H 7263   3.132   8.046   4.599  0.5496  0.5477 -2.5912
   54MOL0     H 7264   3.000   7.886   4.385  3.0169 -1.0613 -3.0669
   54MOL0     H 7265   3.160   7.949   4.364  0.5179  1.9962 -3.1852
   54MOL0     H 7266   2.930   8.121   4.417  1.1297 -1.3134  0.6519
   54MOL0     H 7267   3.087   8.183   4.383  0.8546  1.0557 -3.9679
   54MOL0     H 7268   2.908   8.028   4.202 -0.2795  0.8513 -0.7738
   54MOL0     H 7269   3.072   8.049   4.153 -1.0347  0.1656 -1.9510
   54MOL0     H 7270   2.858   8.265   4.199 -0.5674  0.4438 -2.8499
   54MOL0     H 7271   2.942   8.243   4.054 -0.6374  2.1513  0.3013
   54MOL0     H 7272   3.291   7.465   4.766  0.3116 -1.2504 -0.9008
   54MOL0     H 7273   3.374   7.308   4.926 -0.7733  0.7802  1.2904
   54MOL0     H 7274   3.861   7.233   5.095 -1.6143  1.7284  1.3398
   54MOL0     H 7275   4.009   7.120   5.266 -1.8665 -1.7386  4.7810
   54MOL0     H 7276   4.911   5.830   4.780 -0.6060 -0.1946  0.3517
   54MOL0     H 7277   5.058   5.886   4.572 -0.0384 -0.7378 -1.7190
   54MOL0     H 7278   5.063   6.227   4.182 -1.7126 -1.1322 -0.3732
   54MOL0     H 7279   5.183   6.268   3.956  1.7353 -1.8628 -3.4190
   54MOL0     H 7280   5.437   5.968   3.775 -0.1168  0.4432  0.2329
   54MOL0     H 7281   5.270   5.958   3.704 -0.3590  0.7212 -0.9707
   54MOL0     H 7282   5.421   6.007   3.521 -0.3414 -0.7672 -0.2087
   54MOL0     H 7283   5.509   6.113   3.626  1.2866 -4.3128 -1.3494
   54MOL0     H 7284   5.291   6.258   3.619 -1.3549 -0.7441  0.2129
   54MOL0     H 7285   5.208   6.137   3.546 -0.3161 -0.9961 -2.1861
   54MOL0     H 7286   5.456   6.220   3.403  0.2372  4.7299  2.1225
   54MOL0     H 7287   5.327   6.325   3.369  0.8721  0.3371  0.3478
   54MOL0     H 7288   5.209   5.991   3.139 -2.8219  1.5215  1.1587
   54MOL0     H 7289   5.356   5.890   3.982  0.3937 -0.0771  0.3842
   54MOL0     H 7290   5.236   5.837   4.173  2.0692 -0.4848 -1.8652
   55MOL0     O 7291   4.022   1.032   4.068  0.1249 -0.8304 -0.7462
   55MOL0     C 7292   4.005   0.962   3.976  0.6682  0.6116 -0.3584
   55MOL0     O 7293   4.079   0.937   3.863  0.0575 -0.1095 -0.4330
   55MOL0     C 7294   4.205   1.017   3.849  0.6039 -0.4601  1.1912
   55MOL0     C 7295   4.318   0.956   3.822 -0.0999  0.8870  0.1282
   55MOL0     C 7296   4.427   1.028   3.784  1.0273  1.0094  0.1606
   55MOL0     C 7297   4.430   1.167   3.782  0.5376 -0.3371 -0.2184
   55MOL0     O 7298   4.535   1.237   3.742 -0.4216 -0.3682 -0.0958
   55MOL0     C 7299   4.518   1.343   3.642 -0.9080 -0.0869 -0.3851
   55MOL0     C 7300   4.591   1.465   3.698  0.1562  0.0292  1.0774
   55MOL0     C 7301   4.713   1.507   3.619 -1.0054 -0.3323  1.2921
   55MOL0     C 7302   4.673   1.604   3.506 -0.2919 -0.4223  0.0375
   55MOL0     C 7303   4.776   1.604   3.392  0.2833  0.3750  0.5999
   55MOL0     C 7304   4.734   1.727   3.310 -0.7675 -0.1305  0.7628
   55MOL0     C 7305   4.826   1.753   3.185  0.8736  0.1447  0.0273
   55MOL0     C 7306   4.790   1.883   3.120 -0.8040 -0.0460 -0.7202
   55MOL0     N 7307   4.874   1.913   3.004 -0.3295  0.3150  0.9599
   55MOL0     C 7308   4.919   2.036   2.964  0.6158 -0.4683 -0.2796
   55MOL0     C 7309   4.974   2.018   2.841  0.1451  0.2710  0.1744
   55MOL0     C 7310   5.037   2.112   2.744 -0.3749  0.9641 -0.3904
   55MOL0     C 7311   4.919   2.179   2.659 -0.2330 -0.5499 -0.5091
   55MOL0     C 7312   4.958   2.313   2.606 -0.0166  0.0893  0.2698
   55MOL0     C 7313   4.848   2.384   2.517 -0.2146  0.0309 -0.5005
   55MOL0     O 7314   4.831   2.289   2.410 -0.2024 -0.0441 -0.1286
   55MOL0     C 7315   4.761   2.320   2.301 -0.1364 -0.5681  0.5647
   55MOL0     C 7316   4.736   2.209   2.221  0.2369  0.1339 -0.0394
   55MOL0     C 7317   4.681   2.215   2.093  0.6983 -0.0115  0.2731
   55MOL0     C 7318   4.672   2.081   2.021  0.4098 -0.2325  0.2255
   55MOL0     C 7319   4.639   2.344   2.040 -0.3343 -0.2592  0.0650
   55MOL0     C 7320   4.592   2.362   1.901 -0.6205 -0.2169 -0.2830
   55MOL0     O 7321   4.472   2.424   1.887  0.2047 -0.3193 -0.2496
   55MOL0     C 7322   4.430   2.455   1.758  0.0620  0.0790  0.5178
   55MOL0     C 7323   4.452   2.576   1.698 -0.2888 -0.4511  1.1199
   55MOL0     C 7324   4.410   2.601   1.567  0.2718  0.2477  0.3756
   55MOL0     C 7325   4.342   2.504   1.500  0.5129  0.0351  1.1259
   55MOL0     O 7326   4.285   2.515   1.381 -0.1649  1.2809  0.3995
   55MOL0     C 7327   4.307   2.631   1.298 -0.3742  0.1240 -0.2089
   55MOL0     C 7328   4.229   2.619   1.177 -0.4798  0.5149 -0.6259
   55MOL0     C 7329   4.234   2.485   1.109  0.5013 -0.0391  0.0533
   55MOL0     C 7330   4.120   2.465   1.015 -0.3988 -0.0008 -0.6398
   55MOL0     C 7331   4.118   2.334   0.953 -0.3844  0.7021  0.3683
   55MOL0     C 7332   4.251   2.303   0.869 -0.4485  0.4479 -0.7345
   55MOL0     C 7333   4.224   2.185   0.771  0.2656  0.1534 -0.0672
   55MOL0     C 7334   4.355   2.146   0.696 -0.3912 -0.8362  0.5661
   55MOL0    Cl 7335   4.479   2.080   0.805  0.5075  0.1302  0.1546
   55MOL0     C 7336   4.314   2.381   1.563 -0.2243  0.2688  0.1030
   55MOL0     C 7337   4.363   2.355   1.694 -0.5622 -0.4893  0.0586
   55MOL0     O 7338   4.657   2.314   1.808  0.4099 -0.2178  0.7842
   55MOL0     C 7339   4.657   2.464   2.128  0.6963 -0.7521  0.6506
   55MOL0     C 7340   4.724   2.449   2.257 -0.4874 -0.0847 -0.2471
   55MOL0     N 7341   4.934   1.893   2.797  0.9512  1.4291  0.1641
   55MOL0     N 7342   4.873   1.829   2.895  0.1067 -0.3426 -0.2829
   55MOL0     C 7343   4.316   1.232   3.824  0.5021 -1.1520  0.3534
   55MOL0     C 7344   4.205   1.161   3.861 -0.0732 -0.3466 -0.4294
   55MOL0     C 7345   3.892   0.861   4.002 -0.4236  0.2784  0.6411
   55MOL0     C 7346   3.798   0.878   4.100 -0.2266  0.4808 -0.2239
   55MOL0     C 7347   3.687   0.790   4.126 -0.0584  0.7799  0.5220
   55MOL0     C 7348   3.677   0.674   4.046 -0.2636 -0.2535 -0.3338
   55MOL0     O 7349   3.567   0.600   4.076 -0.4117 -0.0304 -0.1202
   55MOL0     C 7350   3.596   0.465   4.122  0.5517  1.2534 -0.5394
   55MOL0     C 7351   3.550   0.367   4.019 -0.2352  0.4192 -0.6402
   55MOL0     C 7352   3.603   0.234   4.074 -0.6012  0.3558  0.1820
   55MOL0     C 7353   3.610   0.128   3.969  0.4270 -0.1707 -0.4953
   55MOL0     C 7354   3.719   0.150   3.864  0.4405 -0.1065 -0.4821
   55MOL0     C 7355   3.804   0.173   3.783 -0.3013 -0.8224 -0.5875
   55MOL0     C 7356   3.774   0.646   3.950  0.0344 -0.2928 -0.3364
   55MOL0     C 7357   3.883   0.738   3.925 -0.1592  0.3880 -1.1650
   55MOL0     H 7358   4.333   0.848   3.817 -0.5836  0.7580  1.2420
   55MOL0     H 7359   4.521   0.989   3.746  0.2696  0.6016 -1.3461
   55MOL0     H 7360   4.568   1.301   3.554 -0.9688 -1.4100  0.1776
   55MOL0     H 7361   4.415   1.361   3.608 -0.3924  1.3762 -1.2395
   55MOL0     H 7362   4.516   1.544   3.695  0.5753  0.4499  1.5983
   55MOL0     H 7363   4.625   1.454   3.801  1.0896 -5.5894  0.4706
   55MOL0     H 7364   4.778   1.563   3.688  0.0625  1.2318 -0.8625
   55MOL0     H 7365   4.777   1.426   3.584  0.2163  0.6755  1.1008
   55MOL0     H 7366   4.576   1.562   3.477 -0.7425 -1.1848  2.4574
   55MOL0     H 7367   4.655   1.707   3.540  0.7162 -0.0859 -0.4216
   55MOL0     H 7368   4.878   1.603   3.431  1.3968  1.0932 -2.0961
   55MOL0     H 7369   4.766   1.515   3.330 -4.9453  1.3785 -0.5002
   55MOL0     H 7370   4.637   1.716   3.260 -0.7248  1.8704  0.1211
   55MOL0     H 7371   4.740   1.816   3.373 -3.8679  2.7266 -2.4631
   55MOL0     H 7372   4.926   1.749   3.229 -0.3655  4.5709  4.0133
   55MOL0     H 7373   4.806   1.677   3.109 -2.4247  2.0427 -1.2283
   55MOL0     H 7374   4.802   1.966   3.190  1.9641  0.8002 -2.0481
   55MOL0     H 7375   4.683   1.881   3.095 -0.9999  1.7310 -0.1986
   55MOL0     H 7376   4.920   2.124   3.028 -1.0039  0.2941 -1.2508
   55MOL0     H 7377   5.096   2.172   2.814  0.7191 -0.9500  0.4222
   55MOL0     H 7378   5.107   2.064   2.676  1.5476  2.2308  0.6103
   55MOL0     H 7379   4.835   2.200   2.726  2.5120  3.2924  2.2111
   55MOL0     H 7380   4.888   2.116   2.575  0.3177 -2.5210  0.7062
   55MOL0     H 7381   5.045   2.296   2.542  1.4111 -1.8034  2.5544
   55MOL0     H 7382   4.984   2.382   2.687 -0.5476  0.4299  0.1602
   55MOL0     H 7383   4.883   2.483   2.485  1.1647 -0.5004 -0.7146
   55MOL0     H 7384   4.761   2.409   2.578  0.7103  2.1909  0.0264
   55MOL0     H 7385   4.765   2.109   2.253  0.5062 -0.2980 -1.5512
   55MOL0     H 7386   4.568   2.062   1.994  0.4430  0.8367 -0.7403
   55MOL0     H 7387   4.732   2.084   1.929 -1.2014 -0.7172 -0.8769
   55MOL0     H 7388   4.715   1.999   2.080  4.8238  1.5675 -0.0651
   55MOL0     H 7389   4.501   2.658   1.749  0.4675 -0.5905  0.6410
   55MOL0     H 7390   4.446   2.699   1.537  2.5873 -0.8651 -0.7495
   55MOL0     H 7391   4.290   2.724   1.352  1.0860 -0.0932  0.6779
   55MOL0     H 7392   4.411   2.620   1.264 -0.8463 -2.5342 -1.0558
   55MOL0     H 7393   4.126   2.650   1.199 -0.1884 -0.0667  1.9782
   55MOL0     H 7394   4.280   2.687   1.108  1.6932  1.4219  1.6972
   55MOL0     H 7395   4.230   2.402   1.181 -0.8747 -2.7889 -2.9576
   55MOL0     H 7396   4.325   2.479   1.049  0.4817 -0.6774  0.0743
   55MOL0     H 7397   4.022   2.492   1.056  0.5624  0.8619  1.2380
   55MOL0     H 7398   4.123   2.535   0.931 -1.7803  3.5643  2.0458
   55MOL0     H 7399   4.028   2.328   0.890 -0.8968  2.7698  0.8456
   55MOL0     H 7400   4.118   2.249   1.022 -1.5963 -0.2775 -0.7526
   55MOL0     H 7401   4.285   2.386   0.807 -1.0706  0.8130 -0.5973
   55MOL0     H 7402   4.333   2.292   0.941 -2.2491  0.5493  1.4690
   55MOL0     H 7403   4.143   2.218   0.706 -3.3391 -2.0902  2.8729
   55MOL0     H 7404   4.192   2.094   0.822 -2.1576  0.1691 -1.4361
   55MOL0     H 7405   4.395   2.236   0.647  0.2132 -1.2883  0.2209
   55MOL0     H 7406   4.333   2.078   0.614 -0.1947  0.7262 -0.8369
   55MOL0     H 7407   4.262   2.304   1.507  4.0484 -2.3743 -0.6665
   55MOL0     H 7408   4.330   2.261   1.738  1.3616 -1.2232  0.0075
   55MOL0     H 7409   4.623   2.559   2.089 -0.8920 -1.0323  1.2893
   55MOL0     H 7410   4.760   2.535   2.314 -2.5522  0.4766  0.3005
   55MOL0     H 7411   4.305   1.339   3.836  1.8500 -0.9955  0.3714
   55MOL0     H 7412   4.123   1.212   3.910 -0.7713 -0.5868 -1.3237
   55MOL0     H 7413   3.811   0.948   4.182  1.8051 -0.0601 -0.0414
   55MOL0     H 7414   3.611   0.800   4.203  0.5101 -1.5641  1.4627
   55MOL0     H 7415   3.702   0.439   4.128 -0.0756 -1.1845  2.1390
   55MOL0     H 7416   3.548   0.438   4.216  0.0278  0.3648 -1.0425
   55MOL0     H 7417   3.606   0.383   3.926  0.6388 -0.7455 -0.3388
   55MOL0     H 7418   3.442   0.368   4.002 -0.4202  0.9060  0.4749
   55MOL0     H 7419   3.530   0.195   4.145 -1.7123 -0.8757 -1.5769
   55MOL0     H 7420   3.698   0.237   4.129  0.0030  1.0120 -0.8589
   55MOL0     H 7421   3.513   0.112   3.922  0.5573  2.0435 -1.6480
   55MOL0     H 7422   3.636   0.033   4.018  1.7991  0.8753  0.9136
   55MOL0     H 7423   3.858   0.216   3.701 -2.5161 -0.5580 -1.9959
   55MOL0     H 7424   3.771   0.545   3.911 -0.7291 -1.1601  1.8294
   55MOL0     H 7425   3.948   0.708   3.843  0.4228 -2.0377  0.0793
   56MOL0     O 7426   9.543   4.367  10.044  0.5783  0.1694  0.6229
   56MOL0     C 7427   9.660   4.335  10.068  0.1907 -0.8468 -0.2978
   56MOL0     O 7428   9.763   4.423  10.061 -0.4021 -0.6139  0.1458
   56MOL0     C 7429   9.757   4.550  10.016 -0.0667  0.8292  0.0609
   56MOL0     C 7430   9.882   4.620  10.029  0.4134 -0.2814  1.2203
   56MOL0     C 7431   9.879   4.754   9.980 -0.1491 -0.6484  0.7785
   56MOL0     C 7432   9.773   4.812   9.908 -0.7249  1.3710  0.1875
   56MOL0     O 7433   9.765   4.936   9.852 -0.1021  0.0894  0.3783
   56MOL0     C 7434   9.789   5.054   9.936 -0.2126  0.4054  0.7681
   56MOL0     C 7435   9.904   5.147   9.897 -1.2181  0.4932  0.2684
   56MOL0     C 7436   9.921   5.283   9.972  0.0676  0.8127  0.2531
   56MOL0     C 7437   9.811   5.387   9.945  0.9405 -0.3215 -1.2607
   56MOL0     C 7438   9.829   5.523  10.015  0.6043 -0.1780  0.4375
   56MOL0     C 7439   9.720   5.628   9.976 -0.2844 -0.5707 -0.2899
   56MOL0     C 7440   9.753   5.774  10.031  0.3501 -0.1094  0.6169
   56MOL0     C 7441   9.868   5.847   9.955 -0.6210  1.5042 -0.0784
   56MOL0     N 7442   9.844   5.873   9.810 -0.5045  0.1371 -0.7650
   56MOL0     C 7443   9.733   5.944   9.761 -0.3965 -0.3408  0.0221
   56MOL0     C 7444   9.740   5.916   9.623 -0.4088 -0.5049 -0.1774
   56MOL0     C 7445   9.643   5.991   9.523  0.0728  0.6057  0.5472
   56MOL0     C 7446   9.659   6.143   9.523 -0.0534  0.3274 -0.9718
   56MOL0     C 7447   9.783   6.199   9.443  0.2478 -0.2059 -0.1459
   56MOL0     C 7448   9.915   6.113   9.441  0.2956  1.1336  0.3962
   56MOL0     O 7449  10.022   6.205   9.404  0.1716 -0.0773 -0.8882
   56MOL0     C 7450  10.149   6.148   9.408 -0.5089  0.6285  0.3590
   56MOL0     C 7451  10.189   6.015   9.454 -0.4566 -0.4913  0.5983
   56MOL0     C 7452  10.321   5.969   9.465  0.5034 -0.5703 -0.1171
   56MOL0     C 7453  10.340   5.847   9.559 -0.6018 -0.7924 -0.3603
   56MOL0     C 7454  10.428   6.049   9.416  0.0903 -0.5727 -0.6704
   56MOL0     C 7455  10.574   6.024   9.449 -0.1688 -0.1951 -0.3912
   56MOL0     O 7456  10.595   5.889   9.450 -0.6815 -1.1902 -0.5315
   56MOL0     C 7457  10.732   5.861   9.461  0.7395 -0.0459  0.1665
   56MOL0     C 7458  10.789   5.825   9.342 -0.2663  0.3332  0.4718
   56MOL0     C 7459  10.925   5.799   9.338 -0.2084  0.3772  0.0212
   56MOL0     C 7460  11.004   5.815   9.443 -0.4314 -0.3236  0.3622
   56MOL0     O 7461  11.136   5.808   9.418  0.1445  0.1985 -0.5424
   56MOL0     C 7462  11.213   5.898   9.504  0.1515  0.2302  0.1130
   56MOL0     C 7463  11.198   6.041   9.470 -0.9950 -0.1117  0.1171
   56MOL0     C 7464  11.276   6.116   9.580 -0.1853  0.2767  0.3412
   56MOL0     C 7465  11.427   6.075   9.587 -0.2563  0.6103 -0.3560
   56MOL0     C 7466  11.515   6.196   9.623  0.0366  0.8452 -0.2744
   56MOL0     C 7467  11.666   6.160   9.617 -0.2962  0.1357 -0.2553
   56MOL0     C 7468  11.771   6.264   9.658 -0.0796 -0.8170 -0.3433
   56MOL0     C 7469  11.903   6.253   9.573  1.0895 -0.2781 -0.9833
   56MOL0    Cl 7470  11.994   6.122   9.638  0.1952 -0.4098 -0.4242
   56MOL0     C 7471  10.949   5.836   9.569  0.5137  0.6224  0.2723
   56MOL0     C 7472  10.806   5.866   9.575 -0.7896  0.4973 -0.5029
   56MOL0     O 7473  10.651   6.119   9.475 -0.7754  0.0300  0.7857
   56MOL0     C 7474  10.386   6.169   9.352 -0.0260 -0.7202 -0.6012
   56MOL0     C 7475  10.255   6.216   9.347 -0.3421  0.0249 -0.3014
   56MOL0     N 7476   9.842   5.827   9.596  0.2065 -0.1978 -0.2130
   56MOL0     N 7477   9.909   5.809   9.707  0.6032  0.9765  0.8575
   56MOL0     C 7478   9.656   4.731   9.895  0.4203  0.7577  0.3157
   56MOL0     C 7479   9.648   4.609   9.950  0.1957 -0.2622 -0.5809
   56MOL0     C 7480   9.690   4.196  10.095 -0.3652  0.0404 -0.5013
   56MOL0     C 7481   9.590   4.099  10.090  0.0814 -0.9124 -0.5333
   56MOL0     C 7482   9.627   3.966  10.079  0.1170 -0.1156  0.1474
   56MOL0     C 7483   9.760   3.920  10.067 -0.0727  0.2125  0.6324
   56MOL0     O 7484   9.785   3.787  10.080  0.3822 -0.3867 -0.2644
   56MOL0     C 7485   9.766   3.698   9.971  0.2211 -1.2697  0.2233
   56MOL0     C 7486   9.624   3.678   9.926  1.0265 -0.0468 -0.5094
   56MOL0     C 7487   9.606   3.587   9.797 -0.7618 -0.1321 -0.1519
   56MOL0     C 7488   9.628   3.438   9.812  0.2066  0.6818 -0.2788
   56MOL0     C 7489   9.764   3.392   9.836 -0.5782  0.3083  0.0570
   56MOL0     C 7490   9.874   3.342   9.852  1.2699 -0.3289 -0.2094
   56MOL0     C 7491   9.859   4.016  10.080  0.0241 -0.1287 -0.5567
   56MOL0     C 7492   9.824   4.155  10.087 -0.0739 -0.1785 -1.2991
   56MOL0     H 7493   9.961   4.563  10.077 -1.4529  0.4415  5.6501
   56MOL0     H 7494   9.967   4.817   9.989  1.0038 -2.0479 -0.2467
   56MOL0     H 7495   9.697   5.111   9.945 -1.0986 -1.0495  1.2028
   56MOL0     H 7496   9.802   5.012  10.036  1.0560 -0.2362  0.3607
   56MOL0     H 7497   9.995   5.089   9.913 -1.6660 -1.5921 -3.4765
   56MOL0     H 7498   9.891   5.170   9.790 -2.9295  4.5369  1.1450
   56MOL0     H 7499   9.920   5.274  10.080  1.2035  1.0058  0.2985
   56MOL0     H 7500  10.015   5.329   9.938  0.3132 -1.0438 -1.8505
   56MOL0     H 7501   9.825   5.401   9.837  2.3083 -0.6874 -1.1588
   56MOL0     H 7502   9.711   5.349   9.967  2.4303 -2.9848  1.6874
   56MOL0     H 7503   9.830   5.504  10.122 -1.0895 -0.2514  0.4606
   56MOL0     H 7504   9.927   5.561   9.986  1.1427 -2.0045 -0.2998
   56MOL0     H 7505   9.725   5.643   9.868  5.1236  3.4186  0.1508
   56MOL0     H 7506   9.618   5.592   9.997 -0.1533  0.0389  1.5623
   56MOL0     H 7507   9.666   5.840  10.020 -0.8503 -1.6496  0.5607
   56MOL0     H 7508   9.764   5.768  10.139 -2.0290  0.9138  0.9797
   56MOL0     H 7509   9.958   5.788   9.973 -0.7146  0.6921 -2.0062
   56MOL0     H 7510   9.877   5.945  10.002 -0.5254 -0.8223  5.6772
   56MOL0     H 7511   9.654   5.991   9.819 -1.6739 -0.8012 -1.2707
   56MOL0     H 7512   9.649   5.946   9.424 -0.9434  2.1353 -0.2442
   56MOL0     H 7513   9.540   5.973   9.555 -0.4692 -1.0464 -1.8217
   56MOL0     H 7514   9.653   6.177   9.627 -4.5079  1.6952 -1.4678
   56MOL0     H 7515   9.574   6.194   9.476  0.5893 -0.5213 -3.2214
   56MOL0     H 7516   9.809   6.295   9.488  2.0675  0.4249 -2.3337
   56MOL0     H 7517   9.743   6.219   9.343 -0.6527 -1.3816 -0.0507
   56MOL0     H 7518   9.893   6.036   9.367  1.6497  3.1372 -2.2488
   56MOL0     H 7519   9.917   6.079   9.545  0.7085  1.6915  0.5748
   56MOL0     H 7520  10.117   5.944   9.494 -0.9948 -0.4846 -0.3308
   56MOL0     H 7521  10.365   5.754   9.507  1.2367  0.2517 -1.4365
   56MOL0     H 7522  10.424   5.872   9.625 -0.8602  1.7015 -0.9000
   56MOL0     H 7523  10.247   5.831   9.614  0.1032  0.7964  1.3945
   56MOL0     H 7524  10.737   5.825   9.247  1.3100 -0.2904 -0.4292
   56MOL0     H 7525  10.958   5.780   9.236 -1.5604 -1.2185 -0.1692
   56MOL0     H 7526  11.192   5.878   9.609  1.4097  0.6140  0.4555
   56MOL0     H 7527  11.319   5.875   9.494  0.4483  0.4390  2.2311
   56MOL0     H 7528  11.239   6.063   9.370 -3.1963 -1.9241 -1.2676
   56MOL0     H 7529  11.096   6.079   9.480 -0.6285  0.9400 -0.0036
   56MOL0     H 7530  11.234   6.103   9.679  3.9457 -2.0441  2.0585
   56MOL0     H 7531  11.267   6.222   9.551 -0.5745 -0.0372 -0.7582
   56MOL0     H 7532  11.432   5.996   9.662 -0.1873  0.7391 -0.2246
   56MOL0     H 7533  11.462   6.037   9.490  2.7865  2.4355 -0.1024
   56MOL0     H 7534  11.495   6.217   9.728  1.7469  0.6543  0.1236
   56MOL0     H 7535  11.490   6.287   9.567 -0.7167 -0.0543 -1.4355
   56MOL0     H 7536  11.673   6.079   9.690  1.5268  1.2734  0.9053
   56MOL0     H 7537  11.682   6.112   9.520 -1.3883 -1.2581  0.2238
   56MOL0     H 7538  11.792   6.245   9.764 -1.5593 -0.1244  0.1000
   56MOL0     H 7539  11.727   6.364   9.652  1.9495  0.0955 -0.9962
   56MOL0     H 7540  11.960   6.346   9.587 -1.6252  1.3580 -0.0470
   56MOL0     H 7541  11.879   6.257   9.466 -1.2402  0.3054 -0.4770
   56MOL0     H 7542  11.017   5.837   9.654  0.1277  1.1536  0.5850
   56MOL0     H 7543  10.759   5.902   9.666 -0.9685  0.6004 -0.6356
   56MOL0     H 7544  10.455   6.240   9.308 -0.5011 -0.2361 -0.5808
   56MOL0     H 7545  10.234   6.314   9.306  1.8889  1.6521  2.1594
   56MOL0     H 7546   9.567   4.762   9.840  0.1091  1.5289  1.2140
   56MOL0     H 7547   9.552   4.558   9.941 -0.8797  0.2443  4.6304
   56MOL0     H 7548   9.491   4.144  10.088 -0.3171 -1.5899  1.4297
   56MOL0     H 7549   9.543   3.899  10.091  0.3494 -0.2024  1.4277
   56MOL0     H 7550   9.840   3.715   9.893  0.8376  0.4978  1.1234
   56MOL0     H 7551   9.798   3.610  10.027  0.2599 -0.1133  2.1088
   56MOL0     H 7552   9.575   3.774   9.905  3.8489  1.4265 -0.8297
   56MOL0     H 7553   9.570   3.655  10.018 -1.0120  4.0882 -0.4400
   56MOL0     H 7554   9.663   3.620   9.710 -0.2266 -1.8764 -0.5044
   56MOL0     H 7555   9.502   3.596   9.764 -0.6153 -1.1295 -0.9473
   56MOL0     H 7556   9.590   3.384   9.725 -0.2106  1.8737 -0.8607
   56MOL0     H 7557   9.568   3.417   9.901 -1.7481 -0.4863 -1.7835
   56MOL0     H 7558   9.967   3.289   9.847  0.8995 -0.8945 -1.4747
   56MOL0     H 7559   9.955   3.966  10.073 -0.8814 -1.9461 -0.7077
   56MOL0     H 7560   9.894   4.238  10.073 -1.0769  0.6789 -1.3308
   57MOL0     O 7561  10.510   4.890   1.443 -0.1190 -0.8696  0.2663
   57MOL0     C 7562  10.500   4.913   1.320  0.5340  0.0947 -0.0548
   57MOL0     O 7563  10.604   4.922   1.230  0.0630  0.3905 -0.3570
   57MOL0     C 7564  10.724   4.881   1.280  0.1984 -0.1061 -0.1738
   57MOL0     C 7565  10.736   4.750   1.309 -0.8802 -0.4249 -0.1093
   57MOL0     C 7566  10.866   4.703   1.326  0.7329 -0.6520  0.1088
   57MOL0     C 7567  10.976   4.786   1.320  0.6421  0.4883 -0.5536
   57MOL0     O 7568  11.097   4.728   1.335 -0.8547  0.2537 -0.3297
   57MOL0     C 7569  11.208   4.807   1.298 -0.4098 -1.0844 -0.4076
   57MOL0     C 7570  11.329   4.710   1.290 -0.3635 -0.0736  1.0322
   57MOL0     C 7571  11.464   4.759   1.271  0.2461  0.6562  0.5335
   57MOL0     C 7572  11.567   4.648   1.230  0.0176 -0.0185 -0.5939
   57MOL0     C 7573  11.700   4.718   1.219 -0.3283 -0.1001  0.0180
   57MOL0     C 7574  11.820   4.620   1.181 -0.4746  0.6958 -0.2355
   57MOL0     C 7575  11.829   4.579   1.037 -0.3714  0.2083  0.0103
   57MOL0     C 7576  11.956   4.500   1.031 -0.9605  0.1697  0.3264
   57MOL0     N 7577  11.972   4.438   0.896 -0.7270  0.1204 -0.1569
   57MOL0     C 7578  11.964   4.302   0.884  0.1872  0.2419  0.5252
   57MOL0     C 7579  12.042   4.274   0.774 -0.6956  0.5682  1.0845
   57MOL0     C 7580  12.073   4.133   0.715  0.7465  1.1448 -1.1419
   57MOL0     C 7581  12.160   4.058   0.820  0.4703 -0.8517  0.2814
   57MOL0     C 7582  12.236   3.939   0.757 -0.9345 -0.0955 -0.3365
   57MOL0     C 7583  12.162   3.827   0.677 -0.4725 -0.4080 -1.1466
   57MOL0     O 7584  12.275   3.746   0.613 -0.2606  0.4134  0.4877
   57MOL0     C 7585  12.241   3.611   0.584  0.7187 -0.3912 -0.0267
   57MOL0     C 7586  12.313   3.555   0.475  0.7969 -1.6238  0.0301
   57MOL0     C 7587  12.277   3.429   0.422 -0.7570 -0.4714 -0.8283
   57MOL0     C 7588  12.355   3.387   0.301  0.3816 -0.2537 -0.2277
   57MOL0     C 7589  12.183   3.350   0.491  0.8628  0.1926 -1.0800
   57MOL0     C 7590  12.140   3.216   0.451  0.0771  1.2562  0.5486
   57MOL0     O 7591  12.110   3.119   0.550  0.5335  0.2949 -0.0639
   57MOL0     C 7592  12.212   3.076   0.634 -0.5351  0.4780  0.0119
   57MOL0     C 7593  12.179   2.972   0.709 -0.3909  0.6280 -0.2652
   57MOL0     C 7594  12.263   2.897   0.796  0.1152  0.3972  0.5111
   57MOL0     C 7595  12.397   2.943   0.818 -0.2167 -0.5927  0.2500
   57MOL0     O 7596  12.490   2.900   0.909  0.3511 -0.3340 -0.3415
   57MOL0     C 7597  12.469   2.764   0.927 -1.2109  1.0191 -0.5451
   57MOL0     C 7598  12.573   2.709   1.016  0.1806  0.1109  0.1508
   57MOL0     C 7599  12.540   2.561   1.049 -0.5764  0.7776  0.0432
   57MOL0     C 7600  12.641   2.475   1.121  0.0688 -0.7225 -0.3273
   57MOL0     C 7601  12.579   2.338   1.177  0.8090  0.6239 -0.0789
   57MOL0     C 7602  12.691   2.252   1.224 -0.4417 -0.7787 -0.4804
   57MOL0     C 7603  12.642   2.117   1.279 -0.0239 -0.2941  0.3509
   57MOL0     C 7604  12.748   2.054   1.380  0.5816  0.3364 -0.3329
   57MOL0    Cl 7605  12.687   1.911   1.458  0.4501 -0.0576  0.0753
   57MOL0     C 7606  12.438   3.051   0.738 -0.1987  0.9093 -0.7786
   57MOL0     C 7607  12.348   3.113   0.643  1.0664  0.1271  0.5326
   57MOL0     O 7608  12.117   3.193   0.325  0.5303 -0.6036 -0.0591
   57MOL0     C 7609  12.125   3.410   0.607  0.0302  0.2866  0.2822
   57MOL0     C 7610  12.149   3.536   0.654 -1.2414 -0.4262 -0.0056
   57MOL0     N 7611  12.088   4.388   0.723 -0.2232  0.6789  0.8658
   57MOL0     N 7612  12.037   4.488   0.790 -0.9228 -0.0674 -0.8902
   57MOL0     C 7613  10.953   4.926   1.308  0.1340 -0.7469 -1.0635
   57MOL0     C 7614  10.820   4.972   1.279 -0.3384 -0.1484  0.0143
   57MOL0     C 7615  10.362   4.904   1.274  0.0828  0.0008  1.2830
   57MOL0     C 7616  10.256   4.905   1.368  0.1626  0.7625 -0.5409
   57MOL0     C 7617  10.128   4.919   1.323  0.5737 -0.5899 -0.6434
   57MOL0     C 7618  10.100   4.920   1.189  1.2190 -0.2832  1.0396
   57MOL0     O 7619   9.970   4.957   1.167  0.2001  1.5100  1.0120
   57MOL0     C 7620   9.916   4.957   1.029 -0.0570 -0.3965 -0.0731
   57MOL0     C 7621   9.775   4.896   1.026  0.2114 -0.0907 -0.2161
   57MOL0     C 7622   9.675   4.993   1.097 -0.8232 -0.0079  0.7342
   57MOL0     C 7623   9.641   5.102   0.992  0.0582 -0.7745 -0.1870
   57MOL0     C 7624   9.513   5.167   1.031  0.4443  0.7226 -0.4450
   57MOL0     C 7625   9.414   5.215   1.070  0.1461 -0.3375  0.4832
   57MOL0     C 7626  10.201   4.910   1.097 -0.4671  0.3251 -0.1729
   57MOL0     C 7627  10.332   4.896   1.134  0.7321 -0.7375  0.0741
   57MOL0     H 7628  10.657   4.678   1.291 -0.9096 -0.4098 -0.0374
   57MOL0     H 7629  10.883   4.596   1.341  4.2938 -0.2050  0.2777
   57MOL0     H 7630  11.183   4.844   1.199  0.2692 -0.0785 -0.2148
   57MOL0     H 7631  11.230   4.888   1.369  3.0702 -0.3256 -2.1167
   57MOL0     H 7632  11.346   4.662   1.386 -2.2765 -0.3962  1.2492
   57MOL0     H 7633  11.309   4.632   1.215  0.7515  0.7945 -0.2167
   57MOL0     H 7634  11.465   4.834   1.191  0.8162  1.0957  0.9404
   57MOL0     H 7635  11.497   4.816   1.358 -1.4555  1.5696  0.6121
   57MOL0     H 7636  11.572   4.561   1.297  1.1993 -0.6215 -1.4231
   57MOL0     H 7637  11.537   4.612   1.131 -2.1236 -0.0524  0.0134
   57MOL0     H 7638  11.691   4.797   1.144  3.0469  1.0058  0.5694
   57MOL0     H 7639  11.718   4.780   1.308  0.9142  2.5287 -1.9271
   57MOL0     H 7640  11.914   4.670   1.207  2.1195 -2.2911 -3.0082
   57MOL0     H 7641  11.818   4.532   1.246  1.2274 -0.3318 -1.5019
   57MOL0     H 7642  11.736   4.538   0.999  0.5166  0.6324 -2.8253
   57MOL0     H 7643  11.845   4.664   0.970  0.2492  0.1697  0.1052
   57MOL0     H 7644  11.972   4.420   1.105  0.7039 -0.6696 -0.8680
   57MOL0     H 7645  12.049   4.558   1.037  0.4430 -1.8875 -0.2954
   57MOL0     H 7646  11.911   4.233   0.949  0.1316 -0.5733 -0.3642
   57MOL0     H 7647  11.976   4.087   0.698  0.7395  0.0242  1.5942
   57MOL0     H 7648  12.129   4.131   0.620 -0.1131 -2.8828 -1.7320
   57MOL0     H 7649  12.088   4.020   0.893 -0.2610  0.4339  0.2471
   57MOL0     H 7650  12.228   4.132   0.865  0.1986 -0.5378  0.1797
   57MOL0     H 7651  12.285   3.889   0.841 -1.7803  1.0703  0.8842
   57MOL0     H 7652  12.308   3.985   0.689 -3.1438 -0.6495 -3.2700
   57MOL0     H 7653  12.105   3.876   0.598  1.7826  1.4657 -1.7308
   57MOL0     H 7654  12.092   3.765   0.734  1.4196 -1.0332  0.6346
   57MOL0     H 7655  12.377   3.615   0.411  0.0897 -2.8015 -1.8708
   57MOL0     H 7656  12.315   3.435   0.211 -1.4189 -1.2798 -0.0323
   57MOL0     H 7657  12.464   3.389   0.305  0.4280 -1.1000 -0.7496
   57MOL0     H 7658  12.347   3.278   0.304 -0.4259 -0.1877  0.5377
   57MOL0     H 7659  12.080   2.930   0.705  0.1164 -0.6143 -0.1841
   57MOL0     H 7660  12.218   2.815   0.852  0.2702 -0.1967 -0.2112
   57MOL0     H 7661  12.377   2.736   0.980  1.1162 -1.4598  2.6637
   57MOL0     H 7662  12.459   2.716   0.830  0.7153 -0.8274  0.1001
   57MOL0     H 7663  12.667   2.717   0.961  0.2452 -1.4959 -0.0188
   57MOL0     H 7664  12.577   2.769   1.107  0.6933 -1.3055  1.0930
   57MOL0     H 7665  12.531   2.525   0.946  1.1854  1.0969 -0.2700
   57MOL0     H 7666  12.447   2.554   1.106 -0.1317 -3.1999  0.5407
   57MOL0     H 7667  12.731   2.447   1.066  1.0500 -0.0597  0.9057
   57MOL0     H 7668  12.684   2.532   1.204  0.4545 -1.2143 -0.1877
   57MOL0     H 7669  12.521   2.289   1.098  1.2069  0.6401 -0.3889
   57MOL0     H 7670  12.512   2.364   1.260  1.1595 -2.4249  1.2738
   57MOL0     H 7671  12.751   2.223   1.137  0.7061  2.0588 -0.7603
   57MOL0     H 7672  12.746   2.305   1.301 -1.3587  0.0771 -0.3834
   57MOL0     H 7673  12.616   2.051   1.195 -3.1986  2.7849 -1.3505
   57MOL0     H 7674  12.555   2.133   1.342  0.9024 -4.2585  3.0544
   57MOL0     H 7675  12.770   2.126   1.459 -2.1946 -0.4787  1.3321
   57MOL0     H 7676  12.840   2.017   1.333 -0.2307  0.0610 -1.7717
   57MOL0     H 7677  12.543   3.077   0.753 -0.1234  0.0970  0.2715
   57MOL0     H 7678  12.390   3.204   0.600  2.2476  0.0473  1.4651
   57MOL0     H 7679  12.063   3.344   0.667  0.1514 -1.2488 -1.1926
   57MOL0     H 7680  12.118   3.573   0.751 -0.7421 -0.0474  0.0068
   57MOL0     H 7681  11.029   5.003   1.300  0.4078 -0.9286 -0.2522
   57MOL0     H 7682  10.808   5.078   1.262  1.3153  0.0496 -0.0168
   57MOL0     H 7683  10.287   4.933   1.468 -1.7687 -0.4529  0.4468
   57MOL0     H 7684  10.045   4.933   1.392 -0.6296  0.8180 -2.2861
   57MOL0     H 7685   9.917   5.062   0.998 -1.3226 -0.5145 -0.5816
   57MOL0     H 7686   9.973   4.897   0.958 -2.1681  1.0282 -3.2210
   57MOL0     H 7687   9.783   4.807   1.090 -0.2376 -0.2389 -0.3593
   57MOL0     H 7688   9.731   4.847   0.938 -2.9856 -1.4714  1.9448
   57MOL0     H 7689   9.728   5.033   1.184  3.2091  1.9362 -2.3034
   57MOL0     H 7690   9.585   4.946   1.138  1.1705 -1.1439  4.3100
   57MOL0     H 7691   9.645   5.064   0.890  0.0905  0.9337 -0.8513
   57MOL0     H 7692   9.716   5.181   0.984 -1.5737  0.6943 -1.8683
   57MOL0     H 7693   9.326   5.263   1.109 -0.3781 -1.2803  0.4796
   57MOL0     H 7694  10.176   4.932   0.994 -5.7062  0.5275  0.8266
   57MOL0     H 7695  10.406   4.888   1.055  0.9184  3.3303 -0.3518
   58MOL0     O 7696  10.845   0.176   2.583 -0.5571  0.6295 -1.0369
   58MOL0     C 7697  10.821   0.062   2.630 -0.3892  0.7858  0.0523
   58MOL0     O 7698  10.841  -0.055   2.555 -0.3716 -0.3617 -0.3966
   58MOL0     C 7699  10.852  -0.042   2.416  1.1211  0.0216 -0.2481
   58MOL0     C 7700  10.977  -0.056   2.359 -0.0467 -0.4822 -0.2123
   58MOL0     C 7701  10.992  -0.033   2.223 -0.0209 -0.0646  0.4395
   58MOL0     C 7702  10.889   0.029   2.153 -0.5550 -0.0232  0.7117
   58MOL0     O 7703  10.884   0.072   2.019 -0.0251 -0.1107  0.3929
   58MOL0     C 7704  11.008   0.045   1.947 -0.5303 -0.2763 -0.4436
   58MOL0     C 7705  10.986   0.088   1.798 -0.0520  0.1921  0.2142
   58MOL0     C 7706  10.888  -0.012   1.748 -0.2984 -0.3572  0.0543
   58MOL0     C 7707  10.860   0.026   1.599 -0.4335 -0.0915  0.1559
   58MOL0     C 7708  10.964  -0.017   1.495 -0.0274 -0.8180 -0.2061
   58MOL0     C 7709  10.902  -0.038   1.360 -0.3219  0.3571  0.3652
   58MOL0     C 7710  11.008  -0.077   1.257 -0.3337 -0.2537  0.6124
   58MOL0     C 7711  11.059  -0.225   1.250 -0.8126 -0.1726 -0.4160
   58MOL0     N 7712  11.200  -0.239   1.188 -0.5811  0.4696 -0.5106
   58MOL0     C 7713  11.315  -0.164   1.182  0.4134 -0.9309 -0.3211
   58MOL0     C 7714  11.409  -0.247   1.121  0.3140 -0.3919  0.1878
   58MOL0     C 7715  11.551  -0.222   1.086 -0.6114 -0.4441  0.4435
   58MOL0     C 7716  11.602  -0.143   1.203  1.1164  0.1026  1.4461
   58MOL0     C 7717  11.746  -0.096   1.166 -0.7064  0.4618  0.6396
   58MOL0     C 7718  11.820  -0.021   1.288  0.7048 -0.2913  1.1304
   58MOL0     O 7719  11.783  -0.049   1.423 -0.4030  0.2996 -0.1738
   58MOL0     C 7720  11.854  -0.018   1.536  0.2213 -0.3125 -0.8633
   58MOL0     C 7721  11.823  -0.081   1.657  0.7000 -0.3423 -0.3906
   58MOL0     C 7722  11.917  -0.079   1.760  0.3195 -0.1090 -0.3381
   58MOL0     C 7723  11.886  -0.148   1.885 -0.1792  0.5566 -0.7661
   58MOL0     C 7724  12.036  -0.005   1.742 -1.4207 -0.1711 -0.6597
   58MOL0     C 7725  12.151   0.001   1.841 -1.3042  1.5682  0.9785
   58MOL0     O 7726  12.245   0.102   1.815 -0.1423 -0.1152  0.2404
   58MOL0     C 7727  12.348   0.130   1.904  0.4170 -0.2975  0.8461
   58MOL0     C 7728  12.470   0.064   1.869 -0.3571 -0.0421  0.1849
   58MOL0     C 7729  12.584   0.107   1.942 -0.7060 -0.7255  0.9599
   58MOL0     C 7730  12.564   0.186   2.055 -0.4039  0.4879 -0.1884
   58MOL0     O 7731  12.681   0.222   2.122 -0.0074  1.4734  0.6005
   58MOL0     C 7732  12.673   0.324   2.228 -0.2557  0.4327  0.2428
   58MOL0     C 7733  12.687   0.274   2.363  0.3219 -0.1163 -0.4769
   58MOL0     C 7734  12.817   0.182   2.388  0.9823 -0.7431 -0.7864
   58MOL0     C 7735  12.810   0.130   2.536  0.6170  0.2355  0.6795
   58MOL0     C 7736  12.841   0.246   2.633 -0.7062 -0.1039 -0.3617
   58MOL0     C 7737  12.845   0.204   2.784  0.8930 -0.9869  0.5786
   58MOL0     C 7738  12.967   0.115   2.815 -0.4158 -0.2850 -0.9343
   58MOL0     C 7739  12.948   0.079   2.965 -0.5284  0.3867 -0.1395
   58MOL0    Cl 7740  12.960   0.214   3.070  0.2243 -0.6835 -0.4703
   58MOL0     C 7741  12.441   0.232   2.092 -0.3048 -0.1031  0.6663
   58MOL0     C 7742  12.330   0.214   2.011 -0.2123  0.9335 -0.9012
   58MOL0     O 7743  12.163  -0.085   1.929 -0.7804 -0.1211 -0.1882
   58MOL0     C 7744  12.056   0.071   1.629 -0.9271  0.0205  0.3315
   58MOL0     C 7745  11.964   0.060   1.524  0.0092  0.4806 -0.6359
   58MOL0     N 7746  11.348  -0.368   1.105  0.8172  0.0827  0.5896
   58MOL0     N 7747  11.233  -0.369   1.165 -0.1654  0.5186 -0.9151
   58MOL0     C 7748  10.770   0.066   2.215 -0.8865 -0.0023 -0.8007
   58MOL0     C 7749  10.749   0.015   2.346  0.0473 -0.5556  0.5936
   58MOL0     C 7750  10.777   0.045   2.769  0.7347 -0.0421  0.0555
   58MOL0     C 7751  10.730  -0.070   2.829  0.6430  0.3966  0.9272
   58MOL0     C 7752  10.686  -0.078   2.966 -0.8766  0.2320  1.0484
   58MOL0     C 7753  10.693   0.035   3.043 -0.1395 -0.3682 -0.9384
   58MOL0     O 7754  10.651   0.045   3.183 -0.5995 -0.5636 -0.0876
   58MOL0     C 7755  10.558   0.150   3.209  0.2152  0.3320 -0.4300
   58MOL0     C 7756  10.490   0.095   3.331 -0.7012 -0.1005 -0.0918
   58MOL0     C 7757  10.387  -0.013   3.297 -0.9124  0.0077 -0.4292
   58MOL0     C 7758  10.335  -0.073   3.426  0.3456  0.3525  0.7650
   58MOL0     C 7759  10.420  -0.175   3.477 -0.1215 -0.2270  0.0223
   58MOL0     C 7760  10.489  -0.260   3.530  0.2182 -1.0363 -0.0312
   58MOL0     C 7761  10.739   0.151   2.978 -0.8337 -0.5469 -0.0006
   58MOL0     C 7762  10.776   0.163   2.841  0.2060 -0.1407  0.6339
   58MOL0     H 7763  11.069  -0.077   2.412 -0.5161 -0.3465  0.6576
   58MOL0     H 7764  11.079  -0.060   2.164 -1.5885  0.8994 -2.5360
   58MOL0     H 7765  11.094   0.104   1.979  0.6866 -1.1410 -1.9691
   58MOL0     H 7766  11.034  -0.062   1.950  3.8477  0.5414 -1.9305
   58MOL0     H 7767  10.949   0.191   1.800  0.7201  0.5797 -2.4199
   58MOL0     H 7768  11.081   0.098   1.745  1.2413  4.4801  2.8015
   58MOL0     H 7769  10.917  -0.117   1.759 -0.7025 -0.2949  1.9574
   58MOL0     H 7770  10.799   0.008   1.808  0.0719 -0.9476  0.8133
   58MOL0     H 7771  10.767  -0.024   1.574 -0.3989  0.0103 -0.1730
   58MOL0     H 7772  10.847   0.133   1.579  1.5622 -0.2391 -2.4738
   58MOL0     H 7773  11.049   0.052   1.491 -0.8039  0.1474 -0.1761
   58MOL0     H 7774  11.003  -0.117   1.520  1.2307 -1.2080 -3.2516
   58MOL0     H 7775  10.837  -0.124   1.373 -0.6991  0.7046  0.8354
   58MOL0     H 7776  10.829   0.039   1.333 -1.9807 -0.8897  1.1868
   58MOL0     H 7777  10.957  -0.063   1.161 -0.3683 -3.6543  0.0010
   58MOL0     H 7778  11.092  -0.008   1.245  0.3572 -1.3983 -1.7287
   58MOL0     H 7779  10.988  -0.285   1.194 -0.4601 -2.1982  1.1810
   58MOL0     H 7780  11.066  -0.267   1.351 -0.2648  1.8627  0.4547
   58MOL0     H 7781  11.350  -0.073   1.229  1.8129 -0.8098 -1.5125
   58MOL0     H 7782  11.601  -0.318   1.070  0.2310 -0.5470  3.2008
   58MOL0     H 7783  11.565  -0.166   0.993  1.1065  0.0628  0.9748
   58MOL0     H 7784  11.598  -0.206   1.292 -1.9279 -1.7607  0.1222
   58MOL0     H 7785  11.543  -0.051   1.214  0.4209  0.0489 -1.1268
   58MOL0     H 7786  11.746  -0.036   1.074 -0.7787 -1.4501 -0.6660
   58MOL0     H 7787  11.809  -0.183   1.144  0.5874  2.4165 -5.1562
   58MOL0     H 7788  11.797   0.085   1.277  3.3260  0.8677  4.8830
   58MOL0     H 7789  11.928  -0.025   1.271  0.5633 -0.0857  0.1467
   58MOL0     H 7790  11.732  -0.139   1.659  1.3980 -1.5202 -1.4760
   58MOL0     H 7791  11.943  -0.241   1.886  2.8275  2.2689  0.4829
   58MOL0     H 7792  11.921  -0.084   1.967 -1.1041  0.2755 -0.1412
   58MOL0     H 7793  11.781  -0.176   1.897  0.1645 -0.7714 -0.7820
   58MOL0     H 7794  12.493   0.006   1.781 -1.2441  0.9199 -0.6969
   58MOL0     H 7795  12.679   0.071   1.904 -0.6018 -1.3416  1.7624
   58MOL0     H 7796  12.751   0.400   2.214 -0.8377  1.0416  0.2570
   58MOL0     H 7797  12.583   0.385   2.233 -1.2679 -0.5620 -3.1266
   58MOL0     H 7798  12.695   0.365   2.423 -1.3327 -1.2219  1.5476
   58MOL0     H 7799  12.589   0.231   2.387  0.7755  0.2149  2.3103
   58MOL0     H 7800  12.913   0.228   2.363  1.2201 -0.0632  1.1935
   58MOL0     H 7801  12.807   0.093   2.325 -0.5316 -0.7992 -0.5137
   58MOL0     H 7802  12.717   0.082   2.568  0.9641 -0.9775 -0.1065
   58MOL0     H 7803  12.884   0.050   2.538 -1.2343 -1.5596  1.0863
   58MOL0     H 7804  12.761   0.320   2.629 -1.9976 -1.1888  2.5711
   58MOL0     H 7805  12.940   0.275   2.599 -0.2710 -0.6638  0.3962
   58MOL0     H 7806  12.852   0.295   2.845 -0.1692  0.3625 -1.2344
   58MOL0     H 7807  12.752   0.151   2.809 -0.2950 -0.2416 -1.9850
   58MOL0     H 7808  13.060   0.169   2.792  1.1542 -2.8390 -0.9947
   58MOL0     H 7809  12.964   0.023   2.756  1.4773 -1.1928  0.2803
   58MOL0     H 7810  13.034   0.023   3.004 -1.0759 -0.2700  0.1503
   58MOL0     H 7811  12.855   0.023   2.983  0.2571 -1.6060 -1.8811
   58MOL0     H 7812  12.432   0.311   2.166  1.1676  1.0661 -0.3270
   58MOL0     H 7813  12.239   0.268   2.033 -0.8894 -0.0570 -1.2250
   58MOL0     H 7814  12.147   0.131   1.618 -0.1803 -1.3862 -1.7746
   58MOL0     H 7815  11.984   0.122   1.437 -2.3905  1.7372 -0.3643
   58MOL0     H 7816  10.691   0.117   2.161 -1.0502 -0.6878 -1.2112
   58MOL0     H 7817  10.652   0.026   2.395 -1.1002 -0.4902 -1.5732
   58MOL0     H 7818  10.715  -0.157   2.766 -0.2489 -0.2906  2.0382
   58MOL0     H 7819  10.654  -0.177   2.997  1.0041 -1.3117 -1.5688
   58MOL0     H 7820  10.601   0.247   3.235  0.7166 -0.8947  4.0370
   58MOL0     H 7821  10.479   0.160   3.134  2.7119 -3.4561 -4.0908
   58MOL0     H 7822  10.439   0.174   3.388 -1.3681 -1.6192  1.4951
   58MOL0     H 7823  10.563   0.054   3.400 -0.1659  0.0904 -0.5379
   58MOL0     H 7824  10.428  -0.084   3.225  0.2079  0.3313 -0.1217
   58MOL0     H 7825  10.299   0.024   3.243 -0.3571 -1.7107 -2.6454
   58MOL0     H 7826  10.241  -0.125   3.410  1.0215 -0.5597 -0.4261
   58MOL0     H 7827  10.317   0.002   3.504 -0.0842  0.7170  0.3250
   58MOL0     H 7828  10.546  -0.339   3.575  0.6963 -0.3375  0.5948
   58MOL0     H 7829  10.744   0.236   3.045 -6.5097  0.3013 -0.1963
   58MOL0     H 7830  10.787   0.266   2.807  2.2413 -0.1360  1.2144
   59MOL0     O 7831   9.856   6.338   0.931  1.0968  0.3610  0.0906
   59MOL0     C 7832   9.825   6.420   0.844 -0.4739  0.2807  0.8251
   59MOL0     O 7833   9.891   6.425   0.721  0.7876 -0.7145 -0.0976
   59MOL0     C 7834   9.968   6.313   0.686 -0.4864  0.3675  0.3896
   59MOL0     C 7835  10.098   6.285   0.750  0.5093 -0.3146  0.4515
   59MOL0     C 7836  10.167   6.161   0.713  0.2374 -0.9410 -0.5166
   59MOL0     C 7837  10.119   6.079   0.615 -0.2436 -0.0522  0.0484
   59MOL0     O 7838  10.179   5.967   0.581  0.2980 -0.3722 -0.9415
   59MOL0     C 7839  10.206   5.951   0.433 -0.7309  0.3804 -0.6334
   59MOL0     C 7840  10.253   5.808   0.412 -0.3191 -0.0410  0.2707
   59MOL0     C 7841  10.387   5.770   0.484 -0.7115  0.7845  0.0073
   59MOL0     C 7842  10.428   5.624   0.484 -0.4213  0.8808 -0.3480
   59MOL0     C 7843  10.558   5.598   0.556  0.8200  0.2225 -0.7383
   59MOL0     C 7844  10.671   5.576   0.463  0.3467 -0.1638  0.3344
   59MOL0     C 7845  10.808   5.568   0.522  0.1962 -0.2437 -0.1718
   59MOL0     C 7846  10.836   5.466   0.634 -0.4047 -0.4932  0.0047
   59MOL0     N 7847  10.981   5.459   0.661  0.4425  0.7004 -0.7662
   59MOL0     C 7848  11.035   5.497   0.790  0.5303  0.4815  0.7570
   59MOL0     C 7849  11.166   5.459   0.795  0.5020 -0.5275 -0.0385
   59MOL0     C 7850  11.247   5.473   0.916 -0.3396 -0.0706  0.4014
   59MOL0     C 7851  11.225   5.345   1.005  0.2552  0.0661 -1.2406
   59MOL0     C 7852  11.264   5.217   0.949 -1.1463 -1.0888  0.8716
   59MOL0     C 7853  11.280   5.117   1.047 -0.2778  0.4119  0.6433
   59MOL0     O 7854  11.381   5.131   1.148  0.2734 -0.1761  0.3911
   59MOL0     C 7855  11.513   5.127   1.115 -0.0523 -0.0446  0.3993
   59MOL0     C 7856  11.562   5.070   1.005  0.0815 -0.6117  0.0891
   59MOL0     C 7857  11.698   5.055   0.994  0.1557  0.4841  0.5085
   59MOL0     C 7858  11.754   4.989   0.874 -0.1180  1.0446 -0.7277
   59MOL0     C 7859  11.779   5.091   1.101  0.0591  0.8088  0.1758
   59MOL0     C 7860  11.928   5.057   1.103 -0.0099 -0.2681  0.7167
   59MOL0     O 7861  11.978   4.954   1.043 -0.6523  0.4237 -0.1440
   59MOL0     C 7862  12.109   4.964   1.004  0.0737 -1.2267  0.3510
   59MOL0     C 7863  12.190   4.847   1.030 -0.1146  0.1500  0.8428
   59MOL0     C 7864  12.324   4.858   0.978  0.4931 -0.1425 -0.0481
   59MOL0     C 7865  12.358   4.954   0.878  0.3035  0.0794  0.0109
   59MOL0     O 7866  12.480   4.938   0.824  0.1759  0.4652  0.7966
   59MOL0     C 7867  12.582   5.041   0.824 -0.3205 -0.5423  0.0318
   59MOL0     C 7868  12.723   4.995   0.870  0.5897  0.3368  0.9450
   59MOL0     C 7869  12.817   5.108   0.880 -0.1442  0.4485 -0.1882
   59MOL0     C 7870  12.966   5.069   0.885 -0.0339 -0.8539 -0.9194
   59MOL0     C 7871  13.019   4.988   1.010  0.7017  0.2149 -0.0541
   59MOL0     C 7872  13.042   5.088   1.131 -0.0511  0.3842 -0.8004
   59MOL0     C 7873  13.101   5.016   1.251  0.3672  0.3646  0.6337
   59MOL0     C 7874  13.144   5.128   1.350 -0.5854  0.1743  0.6760
   59MOL0    Cl 7875  12.996   5.224   1.397 -0.3766  0.1829  0.8458
   59MOL0     C 7876  12.282   5.064   0.846  0.8686  1.0257 -0.2959
   59MOL0     C 7877  12.151   5.067   0.908  0.5474  0.6172  0.0015
   59MOL0     O 7878  11.986   5.122   1.188 -0.0765 -0.3447  0.5471
   59MOL0     C 7879  11.732   5.176   1.203 -0.5002  0.0579 -0.6039
   59MOL0     C 7880  11.592   5.186   1.218 -0.4067 -0.0139  1.0084
   59MOL0     N 7881  11.181   5.389   0.677  0.0174  0.2027  0.2814
   59MOL0     N 7882  11.081   5.384   0.598  0.1993  0.3507 -1.1671
   59MOL0     C 7883  10.003   6.129   0.542 -0.1013  1.6702  0.2977
   59MOL0     C 7884   9.921   6.229   0.585 -0.6775 -0.7172  0.0590
   59MOL0     C 7885   9.730   6.522   0.877  0.4283 -0.1989  0.5752
   59MOL0     C 7886   9.742   6.662   0.849  0.0130  0.9337 -0.8281
   59MOL0     C 7887   9.642   6.752   0.899 -0.2206  0.4402 -0.6243
   59MOL0     C 7888   9.519   6.704   0.952 -0.1125  0.5396  0.1455
   59MOL0     O 7889   9.438   6.808   0.986  0.3974 -0.7530  0.4641
   59MOL0     C 7890   9.308   6.787   1.034  1.3437 -0.2225 -0.1039
   59MOL0     C 7891   9.290   6.860   1.164  0.4040 -0.0640 -0.1643
   59MOL0     C 7892   9.296   7.018   1.170  0.4867  0.6981 -0.2140
   59MOL0     C 7893   9.293   7.063   1.310 -0.2401 -0.0832  0.0284
   59MOL0     C 7894   9.323   7.206   1.335  0.1834 -0.1641 -0.3366
   59MOL0     C 7895   9.357   7.310   1.369 -0.3048  0.0577  0.6788
   59MOL0     C 7896   9.501   6.569   0.963  0.2568 -0.2339  1.0938
   59MOL0     C 7897   9.604   6.484   0.920 -0.1194 -0.5849 -0.2431
   59MOL0     H 7898  10.141   6.352   0.824  1.0915  2.4567 -2.1760
   59MOL0     H 7899  10.254   6.115   0.759  0.3083  0.3625  0.7168
   59MOL0     H 7900  10.115   5.964   0.375 -0.6442  0.4518 -0.7535
   59MOL0     H 7901  10.285   6.015   0.394  1.5356 -2.0588 -0.3059
   59MOL0     H 7902  10.173   5.739   0.440 -1.8857  2.1810  1.6274
   59MOL0     H 7903  10.270   5.800   0.304  4.1695  0.8185  0.7232
   59MOL0     H 7904  10.466   5.835   0.446 -0.4171  0.3309 -0.1617
   59MOL0     H 7905  10.385   5.795   0.591  1.5647 -0.5526  0.4257
   59MOL0     H 7906  10.342   5.569   0.523 -0.0606 -0.1536 -0.9606
   59MOL0     H 7907  10.434   5.585   0.382 -2.4318  1.4000 -0.6924
   59MOL0     H 7908  10.580   5.679   0.625  2.5686 -1.4195  0.7372
   59MOL0     H 7909  10.543   5.511   0.621 -1.7473  1.2838  0.2132
   59MOL0     H 7910  10.660   5.479   0.413  2.8663 -0.2573 -0.1443
   59MOL0     H 7911  10.672   5.668   0.403  2.0487  0.5354  1.3829
   59MOL0     H 7912  10.868   5.555   0.432  0.6540 -2.6923  0.3939
   59MOL0     H 7913  10.817   5.668   0.565  1.6632 -0.8249  0.9656
   59MOL0     H 7914  10.800   5.369   0.597  2.3282 -1.6906  0.2414
   59MOL0     H 7915  10.795   5.501   0.729  2.1950  3.1085 -0.0103
   59MOL0     H 7916  10.985   5.560   0.863 -0.7498  1.3280 -0.7660
   59MOL0     H 7917  11.354   5.480   0.894 -0.5315 -0.5049 -0.7138
   59MOL0     H 7918  11.221   5.566   0.968 -2.2791 -0.6298  0.5160
   59MOL0     H 7919  11.119   5.330   1.026  0.0141  1.3328 -1.4227
   59MOL0     H 7920  11.276   5.372   1.098  2.4216  1.3045 -2.6718
   59MOL0     H 7921  11.364   5.228   0.905 -1.5367  0.5246  0.3078
   59MOL0     H 7922  11.198   5.184   0.868 -3.9917  1.2453  2.0493
   59MOL0     H 7923  11.298   5.021   0.997  2.3804  1.5745 -0.7924
   59MOL0     H 7924  11.182   5.111   1.096  0.9835 -0.5372  3.2185
   59MOL0     H 7925  11.500   5.026   0.928 -4.0631  0.1828  2.6407
   59MOL0     H 7926  11.857   5.019   0.855  1.7928 -2.0597  3.2128
   59MOL0     H 7927  11.759   4.882   0.899 -0.8920  0.4835 -2.7784
   59MOL0     H 7928  11.683   4.981   0.791  0.8606 -0.0109 -1.4936
   59MOL0     H 7929  12.165   4.761   1.091 -0.4905  0.1486  0.6941
   59MOL0     H 7930  12.393   4.776   0.995  0.9010 -0.4776 -2.8268
   59MOL0     H 7931  12.589   5.072   0.719 -4.9067 -2.0356 -0.9659
   59MOL0     H 7932  12.551   5.127   0.884 -1.2500  1.3138 -2.9179
   59MOL0     H 7933  12.722   4.962   0.975  1.2060  0.1636  0.9018
   59MOL0     H 7934  12.771   4.915   0.813  1.8951  1.2076  0.7731
   59MOL0     H 7935  12.797   5.177   0.962  2.0874  1.6890 -0.5936
   59MOL0     H 7936  12.821   5.165   0.787  3.4081  0.1835 -0.3501
   59MOL0     H 7937  12.988   5.004   0.800  2.5953 -1.5516  0.2276
   59MOL0     H 7938  13.026   5.160   0.877 -0.9641  0.2908  2.8754
   59MOL0     H 7939  13.113   4.937   0.989 -0.9213 -3.2881  0.3648
   59MOL0     H 7940  12.943   4.913   1.033 -0.5503  1.8351  1.4169
   59MOL0     H 7941  13.107   5.172   1.105 -0.0103  0.0893 -1.6807
   59MOL0     H 7942  12.945   5.136   1.151  0.4587  0.7096  1.0948
   59MOL0     H 7943  13.180   4.949   1.216 -1.0526  0.2344 -2.6154
   59MOL0     H 7944  13.024   4.953   1.297  0.6324 -0.6581 -0.2844
   59MOL0     H 7945  13.218   5.186   1.294 -1.0030 -0.3553 -0.4632
   59MOL0     H 7946  13.187   5.093   1.443 -2.2199  0.3790  1.5482
   59MOL0     H 7947  12.305   5.147   0.779 -1.2634  0.0524 -2.3726
   59MOL0     H 7948  12.090   5.150   0.874 -0.0842  1.7011  3.4179
   59MOL0     H 7949  11.794   5.210   1.285 -1.3442 -1.3437  0.6485
   59MOL0     H 7950  11.553   5.249   1.297 -2.0856  0.0254  0.1799
   59MOL0     H 7951   9.964   6.061   0.467 -0.5610 -1.9596  3.4652
   59MOL0     H 7952   9.835   6.242   0.520  0.1649 -1.9839 -1.3725
   59MOL0     H 7953   9.834   6.704   0.812  0.2209 -0.4745 -1.9895
   59MOL0     H 7954   9.666   6.856   0.877 -0.1047 -0.3047 -4.9865
   59MOL0     H 7955   9.220   6.822   0.979 -1.9101  1.3013  5.3121
   59MOL0     H 7956   9.280   6.687   1.069  2.1056  0.4640  2.7637
   59MOL0     H 7957   9.369   6.822   1.230  1.6659 -1.6994 -2.4899
   59MOL0     H 7958   9.200   6.843   1.224 -0.4004 -1.5542 -1.7300
   59MOL0     H 7959   9.207   7.062   1.125 -0.8742 -0.6533  1.0233
   59MOL0     H 7960   9.379   7.054   1.109  0.9009 -1.6937 -1.1889
   59MOL0     H 7961   9.355   7.003   1.377  0.2703  1.2491  0.7712
   59MOL0     H 7962   9.189   7.064   1.345 -0.0223  0.2791  0.6916
   59MOL0     H 7963   9.398   7.404   1.399 -0.3503  0.2144  0.2625
   59MOL0     H 7964   9.411   6.527   1.008 -1.1597  4.8650  3.8010
   59MOL0     H 7965   9.594   6.376   0.916  0.1333 -0.6203  0.0690
   60MOL0     O 7966   4.387   9.708   2.895  0.7383 -0.0861 -0.2761
   60MOL0     C 7967   4.375   9.656   2.783  1.1498 -0.9073  0.2004
   60MOL0     O 7968   4.471   9.656   2.690  0.0769  0.0083 -0.2184
   60MOL0     C 7969   4.579   9.728   2.724 -0.6733  0.1482  0.0101
   60MOL0     C 7970   4.695   9.658   2.725 -0.8384 -0.3290 -0.5074
   60MOL0     C 7971   4.816   9.721   2.768  0.4282 -1.0632 -1.0299
   60MOL0     C 7972   4.822   9.851   2.807  0.0774 -0.4760 -0.0317
   60MOL0     O 7973   4.940   9.908   2.867  0.2339 -0.1356  0.4807
   60MOL0     C 7974   4.939  10.044   2.880  0.3376 -0.0209  0.7009
   60MOL0     C 7975   5.079  10.097   2.907  0.0041  0.4847  0.0367
   60MOL0     C 7976   5.138  10.050   3.045  0.1707 -0.6940 -0.0105
   60MOL0     C 7977   5.284  10.078   3.070 -0.5277  0.3527  0.0739
   60MOL0     C 7978   5.343  10.000   3.198  0.5260  0.1667  0.2302
   60MOL0     C 7979   5.478  10.055   3.242 -0.2858 -0.0269  0.2588
   60MOL0     C 7980   5.586  10.020   3.134  0.1391  0.5561 -0.1993
   60MOL0     C 7981   5.726  10.078   3.159 -0.2576 -0.7387  0.4155
   60MOL0     N 7982   5.805   9.999   3.258  0.5149  0.4347 -0.0133
   60MOL0     C 7983   5.900   9.900   3.228 -0.4031 -0.0131  0.4164
   60MOL0     C 7984   5.933   9.849   3.353  0.5525  0.2541 -0.0875
   60MOL0     C 7985   6.042   9.748   3.384  0.3349  0.2160  1.1900
   60MOL0     C 7986   6.019   9.700   3.526  0.6875  0.6844 -0.4683
   60MOL0     C 7987   6.128   9.601   3.557  0.5157 -0.2300 -0.6375
   60MOL0     C 7988   6.270   9.640   3.523 -0.8516 -0.3876  0.0458
   60MOL0     O 7989   6.293   9.767   3.584  0.2302 -0.0237  0.1131
   60MOL0     C 7990   6.344   9.783   3.703 -0.7859  0.5836  0.3372
   60MOL0     C 7991   6.383   9.677   3.800 -0.2121  0.6949  0.1229
   60MOL0     C 7992   6.443   9.704   3.925 -0.2209 -0.2822  0.4280
   60MOL0     C 7993   6.474   9.598   4.022 -0.3531 -0.0664  0.0103
   60MOL0     C 7994   6.466   9.849   3.951 -0.6670 -0.3471 -0.0479
   60MOL0     C 7995   6.522   9.900   4.076  0.2429 -0.3249 -0.8484
   60MOL0     O 7996   6.588  10.017   4.058 -0.0982 -0.5391  0.3336
   60MOL0     C 7997   6.627  10.082   4.173  0.2700 -0.3920 -0.9653
   60MOL0     C 7998   6.545  10.144   4.258  0.4164  0.1877  0.4775
   60MOL0     C 7999   6.596  10.222   4.357  1.1031  0.7686 -0.6922
   60MOL0     C 8000   6.731  10.221   4.394  0.1251 -0.1129 -0.0842
   60MOL0     O 8001   6.779  10.310   4.489  0.2418 -0.0394  1.0378
   60MOL0     C 8002   6.921  10.341   4.500 -0.1976  0.6148 -0.6614
   60MOL0     C 8003   6.933  10.456   4.597 -0.7483 -0.0443 -0.7788
   60MOL0     C 8004   6.862  10.572   4.547  0.2241 -0.0224 -0.4794
   60MOL0     C 8005   6.900  10.692   4.636 -0.5420  0.4380  0.5414
   60MOL0     C 8006   6.847  10.825   4.583  0.0086 -0.3532 -0.4443
   60MOL0     C 8007   6.902  10.952   4.655 -0.7772 -0.0477 -0.6159
   60MOL0     C 8008   7.054  10.978   4.611  0.1345 -0.3208  0.4104
   60MOL0     C 8009   7.080  11.121   4.566  0.1609  0.4518  0.4561
   60MOL0    Cl 8010   7.037  11.242   4.680 -0.1740  0.1829 -0.4440
   60MOL0     C 8011   6.818  10.169   4.300 -0.8675  0.5964 -0.3478
   60MOL0     C 8012   6.766  10.094   4.189 -0.5730  0.2783  0.4469
   60MOL0     O 8013   6.487   9.847   4.185  0.1779 -0.2355  0.2356
   60MOL0     C 8014   6.415   9.940   3.865  0.9060 -1.0498 -0.0824
   60MOL0     C 8015   6.363   9.914   3.739 -0.5120  0.9905  0.5919
   60MOL0     N 8016   5.865   9.929   3.446 -0.8602  0.6018  0.5030
   60MOL0     N 8017   5.792  10.014   3.390 -0.0382 -0.1569 -0.7277
   60MOL0     C 8018   4.699   9.920   2.794  0.0689 -0.2805  0.0639
   60MOL0     C 8019   4.584   9.861   2.750  0.0578 -0.8383  0.3983
   60MOL0     C 8020   4.262   9.571   2.754 -0.0814  0.7381  0.4665
   60MOL0     C 8021   4.140   9.600   2.829  0.4725 -0.3080  0.7473
   60MOL0     C 8022   4.028   9.527   2.807  0.1653 -0.1885  0.0850
   60MOL0     C 8023   4.035   9.423   2.713 -0.1859  0.1552  0.0346
   60MOL0     O 8024   3.913   9.362   2.682  0.1707  0.5894  0.1055
   60MOL0     C 8025   3.827   9.432   2.596  0.4990 -0.1179 -0.2284
   60MOL0     C 8026   3.693   9.366   2.617 -0.2932 -0.1446 -1.1269
   60MOL0     C 8027   3.675   9.231   2.554 -1.1787 -0.3154 -0.4209
   60MOL0     C 8028   3.554   9.161   2.616 -0.4668 -0.0719  0.6134
   60MOL0     C 8029   3.428   9.207   2.547  0.8358  0.4579 -0.1028
   60MOL0     C 8030   3.322   9.225   2.495  0.2316  0.2651 -0.1596
   60MOL0     C 8031   4.158   9.395   2.643 -0.1557 -0.4700  1.3287
   60MOL0     C 8032   4.272   9.466   2.664  0.8487 -1.2943  0.3676
   60MOL0     H 8033   4.711   9.564   2.674  3.8207  1.4585 -2.9889
   60MOL0     H 8034   4.918   9.687   2.753  2.1905  1.9189  2.4162
   60MOL0     H 8035   4.898  10.094   2.792 -1.2817  1.2506  2.1106
   60MOL0     H 8036   4.873  10.072   2.963  2.1683  1.5760  1.7067
   60MOL0     H 8037   5.153  10.070   2.831  1.2513 -1.1595  1.7485
   60MOL0     H 8038   5.065  10.205   2.905 -1.0066  0.3928  0.8753
   60MOL0     H 8039   5.073  10.088   3.124 -0.1749  0.7816 -0.9785
   60MOL0     H 8040   5.131   9.941   3.053 -2.8152 -0.8519 -2.6977
   60MOL0     H 8041   5.337  10.054   2.977 -0.5714  0.5541 -0.0028
   60MOL0     H 8042   5.303  10.185   3.079 -2.4357  0.8963 -1.5976
   60MOL0     H 8043   5.276  10.011   3.283  0.7535  2.2467  0.1812
   60MOL0     H 8044   5.362   9.896   3.168  2.8152 -0.0081  2.0492
   60MOL0     H 8045   5.482  10.164   3.253 -2.3785  0.2132 -0.9272
   60MOL0     H 8046   5.498  10.017   3.342 -1.3794 -0.7389  0.2160
   60MOL0     H 8047   5.593   9.911   3.138  1.8895  0.6734  1.9450
   60MOL0     H 8048   5.544  10.051   3.038  0.6388  0.7624 -0.3570
   60MOL0     H 8049   5.727  10.185   3.183 -1.5179 -0.6293  0.0592
   60MOL0     H 8050   5.774  10.077   3.061 -1.7730 -1.4751 -0.3547
   60MOL0     H 8051   5.935   9.868   3.131  0.3945  2.3347 -0.1476
   60MOL0     H 8052   6.026   9.664   3.315 -2.2790  1.4231  0.1780
   60MOL0     H 8053   6.137   9.801   3.374 -1.4470  3.4765  0.0998
   60MOL0     H 8054   5.917   9.659   3.532  1.1950 -0.4736  0.7397
   60MOL0     H 8055   6.014   9.785   3.595  1.1801  1.3273 -1.2162
   60MOL0     H 8056   6.116   9.513   3.493 -2.7149  1.8718 -3.2122
   60MOL0     H 8057   6.123   9.575   3.664  1.1125  0.2177 -0.4939
   60MOL0     H 8058   6.280   9.652   3.415 -0.9454 -2.4802 -0.2364
   60MOL0     H 8059   6.339   9.559   3.547 -0.7631 -0.6759 -1.1601
   60MOL0     H 8060   6.346   9.580   3.769 -2.3515  1.1291  1.1300
   60MOL0     H 8061   6.580   9.612   4.043 -0.3334  2.0639 -1.1860
   60MOL0     H 8062   6.414   9.593   4.113  1.3085 -0.2499  1.1318
   60MOL0     H 8063   6.464   9.509   3.960 -1.1409  0.8371 -1.2082
   60MOL0     H 8064   6.440  10.137   4.232  0.6966 -1.3869 -0.3680
   60MOL0     H 8065   6.523  10.265   4.424 -0.0922 -0.7381 -0.9695
   60MOL0     H 8066   6.976  10.264   4.554 -1.0492  0.8188  0.5484
   60MOL0     H 8067   6.969  10.368   4.406  2.0914 -1.0549 -0.0556
   60MOL0     H 8068   6.900  10.427   4.697 -0.3590  1.4565 -0.1807
   60MOL0     H 8069   7.039  10.475   4.616 -1.3381  0.1735  3.0181
   60MOL0     H 8070   6.757  10.543   4.556  0.5749 -1.0296  0.6324
   60MOL0     H 8071   6.891  10.584   4.442 -1.2055 -0.1170 -0.9132
   60MOL0     H 8072   6.860  10.683   4.737 -2.5960  0.1271 -0.2318
   60MOL0     H 8073   7.008  10.704   4.643 -0.4335 -0.1050 -0.0919
   60MOL0     H 8074   6.738  10.826   4.596  0.0828  0.5546  0.2013
   60MOL0     H 8075   6.865  10.818   4.475  2.4724 -2.7764  0.0158
   60MOL0     H 8076   6.841  11.039   4.627 -0.9295 -0.6151 -2.1266
   60MOL0     H 8077   6.890  10.942   4.763 -2.6535 -0.1764 -0.8072
   60MOL0     H 8078   7.095  10.906   4.539  1.5678 -1.0758  1.8998
   60MOL0     H 8079   7.115  10.970   4.701 -1.3927 -0.3160  1.4815
   60MOL0     H 8080   7.024  11.130   4.473  2.6528 -0.8262 -1.2724
   60MOL0     H 8081   7.186  11.109   4.544 -0.1550 -3.1860  0.2869
   60MOL0     H 8082   6.925  10.173   4.318 -0.7974  1.5532 -0.9261
   60MOL0     H 8083   6.827  10.038   4.118  0.7392  0.3673  1.4822
   60MOL0     H 8084   6.420  10.040   3.906  1.2901 -1.9623  2.2325
   60MOL0     H 8085   6.347   9.993   3.667  3.7229 -0.2044 -2.0008
   60MOL0     H 8086   4.690  10.017   2.841 -1.3000  0.1821 -1.0776
   60MOL0     H 8087   4.495   9.923   2.743  0.1573 -0.4184  2.2181
   60MOL0     H 8088   4.145   9.678   2.904 -2.5023  1.3332 -0.5860
   60MOL0     H 8089   3.941   9.530   2.872 -1.8324  0.1853 -2.4453
   60MOL0     H 8090   3.810   9.537   2.623  0.5842 -0.1688  0.0239
   60MOL0     H 8091   3.873   9.424   2.497  1.7171 -2.0187  0.4379
   60MOL0     H 8092   3.617   9.429   2.571  0.7420  0.2836 -2.2957
   60MOL0     H 8093   3.671   9.370   2.724 -2.9552 -0.6946 -1.5796
   60MOL0     H 8094   3.763   9.169   2.574  0.0670  1.3472 -0.5800
   60MOL0     H 8095   3.671   9.238   2.445  1.4103 -1.0057 -0.6390
   60MOL0     H 8096   3.560   9.147   2.725  0.4621 -1.2611  0.4350
   60MOL0     H 8097   3.571   9.057   2.584 -1.0828  0.8223 -2.9443
   60MOL0     H 8098   3.225   9.234   2.450  1.2149  1.2404 -2.2628
   60MOL0     H 8099   4.160   9.316   2.567  2.6292  0.9494 -0.2317
   60MOL0     H 8100   4.370   9.451   2.620  1.7990  3.9989 -0.0117
   61MOL0     O 8101   5.181   1.988   0.563 -0.2588  0.3715  0.3231
   61MOL0     C 8102   5.232   2.101   0.543  1.7103 -0.9865 -0.2668
   61MOL0     O 8103   5.360   2.139   0.543 -0.5263  0.3342  0.5801
   61MOL0     C 8104   5.451   2.046   0.531 -0.5279  0.4211  0.0476
   61MOL0     C 8105   5.494   1.983   0.649  0.1632 -0.4511 -0.2353
   61MOL0     C 8106   5.600   1.890   0.643 -0.3423  0.1975 -0.5348
   61MOL0     C 8107   5.655   1.852   0.520  0.1254 -0.3714  0.4546
   61MOL0     O 8108   5.746   1.748   0.498  0.4018 -1.1395 -0.2720
   61MOL0     C 8109   5.776   1.663   0.614  0.7119 -0.1301 -0.1741
   61MOL0     C 8110   5.840   1.533   0.571 -0.1062  0.0916  0.4785
   61MOL0     C 8111   5.987   1.563   0.539 -0.3022 -0.2757  0.2171
   61MOL0     C 8112   6.059   1.440   0.476 -0.5733  1.6035  0.7988
   61MOL0     C 8113   6.190   1.461   0.412  0.2368  0.1220  0.7448
   61MOL0     C 8114   6.297   1.503   0.510  0.4085  0.9363  0.3057
   61MOL0     C 8115   6.431   1.538   0.433 -0.7650  0.0917  0.7768
   61MOL0     C 8116   6.543   1.571   0.524 -0.6138  0.0722  0.6461
   61MOL0     N 8117   6.562   1.451   0.612  0.9290 -0.6331 -0.0919
   61MOL0     C 8118   6.614   1.330   0.579  0.6300 -0.0109  0.3706
   61MOL0     C 8119   6.597   1.247   0.681 -0.0602 -0.2379  0.3859
   61MOL0     C 8120   6.607   1.099   0.680  1.1596  0.8806  0.5168
   61MOL0     C 8121   6.511   1.035   0.570  0.2487  0.0303 -0.2023
   61MOL0     C 8122   6.364   1.076   0.563 -0.8248 -0.1448  0.0400
   61MOL0     C 8123   6.302   1.034   0.430 -0.3054  0.4379  0.6057
   61MOL0     O 8124   6.369   1.079   0.314 -0.2904  0.1602  0.1377
   61MOL0     C 8125   6.301   1.068   0.199  0.3151 -0.1606 -0.3000
   61MOL0     C 8126   6.381   1.093   0.094 -0.6549 -0.4213  0.0863
   61MOL0     C 8127   6.338   1.082  -0.039  0.5147 -0.0254  0.0455
   61MOL0     C 8128   6.427   1.133  -0.146 -0.4739  0.1604 -0.0643
   61MOL0     C 8129   6.206   1.031  -0.064  0.6743  0.5255  0.4231
   61MOL0     C 8130   6.152   1.015  -0.203 -0.2204  0.0381  0.1588
   61MOL0     O 8131   6.015   1.045  -0.225 -0.3762 -0.3736  0.1327
   61MOL0     C 8132   5.939   1.007  -0.328  0.7568  0.1803  0.3806
   61MOL0     C 8133   5.956   0.891  -0.407  0.6070  0.2609  0.4671
   61MOL0     C 8134   5.875   0.853  -0.516 -0.1346  0.3439  0.4070
   61MOL0     C 8135   5.762   0.925  -0.543 -0.3304  0.5690  0.2882
   61MOL0     O 8136   5.672   0.917  -0.643  0.2595  0.0358  0.4989
   61MOL0     C 8137   5.674   0.798  -0.718 -0.0146  0.8868 -0.4012
   61MOL0     C 8138   5.536   0.780  -0.786  0.0072  0.8575 -1.0388
   61MOL0     C 8139   5.544   0.656  -0.867 -0.7773  0.4076 -0.5369
   61MOL0     C 8140   5.416   0.624  -0.952 -0.1871 -0.0850 -0.5120
   61MOL0     C 8141   5.411   0.482  -1.008  0.5773  0.7984  1.3210
   61MOL0     C 8142   5.279   0.465  -1.093  0.0700  0.6127  1.1559
   61MOL0     C 8143   5.271   0.334  -1.179 -0.6973 -0.9567 -0.4174
   61MOL0     C 8144   5.262   0.214  -1.075 -0.0203 -0.6895 -0.3016
   61MOL0    Cl 8145   5.232   0.053  -1.166  0.1434 -0.2405 -0.0841
   61MOL0     C 8146   5.739   1.035  -0.465 -0.3502  1.1561 -0.6781
   61MOL0     C 8147   5.818   1.077  -0.358 -0.5334  0.8798 -0.8118
   61MOL0     O 8148   6.235   0.972  -0.286 -0.1167  0.1822 -0.4651
   61MOL0     C 8149   6.127   1.009   0.052 -0.0181  0.1539  0.5563
   61MOL0     C 8150   6.172   1.027   0.182 -0.5238  0.5211 -0.3350
   61MOL0     N 8151   6.549   1.315   0.783  0.0767  0.1882  0.0290
   61MOL0     N 8152   6.524   1.440   0.740  0.2028 -0.5520  0.0622
   61MOL0     C 8153   5.614   1.916   0.407  0.2706  0.2869  0.0099
   61MOL0     C 8154   5.517   2.021   0.410  0.6038  0.4697 -0.2552
   61MOL0     C 8155   5.136   2.218   0.552  0.0879 -0.3342  0.0419
   61MOL0     C 8156   5.184   2.354   0.536 -0.1091 -1.2852 -0.2519
   61MOL0     C 8157   5.106   2.462   0.540  0.5445  0.1948 -0.0450
   61MOL0     C 8158   4.959   2.439   0.542  0.1532  0.4457  0.0031
   61MOL0     O 8159   4.884   2.555   0.549 -0.2876  0.6628  0.5629
   61MOL0     C 8160   4.764   2.551   0.467  0.4344 -0.0282 -0.3841
   61MOL0     C 8161   4.793   2.546   0.320  0.4315 -0.1840  0.1959
   61MOL0     C 8162   4.721   2.654   0.237  0.5890  0.4185 -0.1347
   61MOL0     C 8163   4.579   2.630   0.197 -0.0829  0.0393 -0.2937
   61MOL0     C 8164   4.494   2.602   0.303 -0.8428  0.0235 -0.0092
   61MOL0     C 8165   4.427   2.579   0.401  0.6005 -0.3657  0.1234
   61MOL0     C 8166   4.907   2.309   0.548 -0.0378  0.5563  0.2424
   61MOL0     C 8167   5.000   2.203   0.557 -0.0372 -0.3889  0.7638
   61MOL0     H 8168   5.438   2.003   0.739 -2.6888 -3.8983 -1.0066
   61MOL0     H 8169   5.627   1.829   0.729  0.0082  0.0856 -0.7220
   61MOL0     H 8170   5.835   1.714   0.690 -1.4208  1.1096  0.7226
   61MOL0     H 8171   5.681   1.631   0.658  2.0339 -1.8257  1.6055
   61MOL0     H 8172   5.842   1.463   0.655 -3.2306  0.8241  1.3233
   61MOL0     H 8173   5.784   1.501   0.483  1.0402  2.8765 -1.4108
   61MOL0     H 8174   5.990   1.646   0.467 -0.9676 -1.3136 -1.0416
   61MOL0     H 8175   6.040   1.590   0.630  0.3765 -2.0873  0.3848
   61MOL0     H 8176   6.065   1.352   0.541  0.1138  0.4972 -0.6977
   61MOL0     H 8177   5.998   1.405   0.392  1.1700 -0.4112  0.2610
   61MOL0     H 8178   6.220   1.370   0.360 -1.1142 -1.8156  3.1352
   61MOL0     H 8179   6.182   1.534   0.331 -0.7803 -0.6536  0.1098
   61MOL0     H 8180   6.267   1.589   0.570 -0.1925  1.6291 -0.9349
   61MOL0     H 8181   6.303   1.422   0.583  0.9115  1.4462  0.8447
   61MOL0     H 8182   6.462   1.444   0.386  2.5630 -0.1436  3.0794
   61MOL0     H 8183   6.414   1.609   0.352  2.2273 -2.0208 -1.9263
   61MOL0     H 8184   6.529   1.665   0.579  1.5847 -0.7565  2.7620
   61MOL0     H 8185   6.638   1.582   0.471  0.3713  1.6217  2.6078
   61MOL0     H 8186   6.651   1.311   0.478 -0.1231  0.7619 -0.0611
   61MOL0     H 8187   6.714   1.080   0.666  1.8993  3.2593  2.3070
   61MOL0     H 8188   6.585   1.053   0.777 -0.8871 -0.6082 -0.5959
   61MOL0     H 8189   6.511   0.926   0.583 -1.8809 -0.0468 -0.4769
   61MOL0     H 8190   6.562   1.059   0.476  0.6178 -0.0294 -0.0210
   61MOL0     H 8191   6.346   1.183   0.577 -1.7995 -0.3794  0.6786
   61MOL0     H 8192   6.304   1.028   0.641 -0.4958 -0.5612  0.0397
   61MOL0     H 8193   6.200   1.072   0.440 -0.5024 -0.3297  1.6783
   61MOL0     H 8194   6.299   0.925   0.429 -1.3504  0.4573 -0.4532
   61MOL0     H 8195   6.485   1.121   0.110 -1.6863  3.6165  0.6572
   61MOL0     H 8196   6.375   1.181  -0.229 -2.4570 -1.3289  0.2417
   61MOL0     H 8197   6.504   1.198  -0.102  0.3807 -2.6204  3.0045
   61MOL0     H 8198   6.486   1.050  -0.187  1.3278  0.6734  1.3134
   61MOL0     H 8199   6.048   0.837  -0.389  1.3449  1.5925  0.7996
   61MOL0     H 8200   5.896   0.766  -0.577  0.5161  1.4512 -0.9946
   61MOL0     H 8201   5.753   0.803  -0.794 -1.5072 -0.4196 -2.1492
   61MOL0     H 8202   5.674   0.715  -0.648 -1.2236  1.5583  0.4285
   61MOL0     H 8203   5.454   0.770  -0.714 -0.4781 -0.0834 -1.6941
   61MOL0     H 8204   5.509   0.873  -0.838 -3.1836  0.7015  0.0938
   61MOL0     H 8205   5.568   0.566  -0.809 -2.8563 -2.1716 -3.3765
   61MOL0     H 8206   5.628   0.665  -0.937  0.3587 -0.9053  0.5891
   61MOL0     H 8207   5.331   0.629  -0.883 -0.6604  1.4299 -1.1492
   61MOL0     H 8208   5.411   0.694  -1.036  0.4805  1.7323  0.9054
   61MOL0     H 8209   5.403   0.410  -0.926 -2.1064 -1.5369 -0.7630
   61MOL0     H 8210   5.496   0.464  -1.074 -1.0302 -0.0224 -0.6305
   61MOL0     H 8211   5.188   0.496  -1.041  1.1117  1.7992  2.3482
   61MOL0     H 8212   5.284   0.546  -1.167 -0.9423  0.3173  0.7448
   61MOL0     H 8213   5.355   0.322  -1.249 -0.4333  2.0745 -0.7612
   61MOL0     H 8214   5.177   0.344  -1.233 -1.8394  2.6431  1.8722
   61MOL0     H 8215   5.178   0.219  -1.006 -0.3993 -0.7339 -0.7560
   61MOL0     H 8216   5.353   0.204  -1.014  0.8441 -0.1324 -1.4612
   61MOL0     H 8217   5.640   1.079  -0.478 -1.1187 -0.4555 -0.6301
   61MOL0     H 8218   5.785   1.165  -0.305 -1.1265 -1.6190  3.4044
   61MOL0     H 8219   6.025   0.977   0.033 -0.1149  0.9804 -0.3671
   61MOL0     H 8220   6.111   1.006   0.269 -0.4758 -1.7820 -0.8019
   61MOL0     H 8221   5.659   1.883   0.314  1.5604 -1.4760  1.1991
   61MOL0     H 8222   5.497   2.076   0.318  2.4225 -0.4244 -1.2398
   61MOL0     H 8223   5.290   2.373   0.540 -0.7905  4.0999  0.2964
   61MOL0     H 8224   5.133   2.563   0.569  1.6963 -0.1064 -0.0359
   61MOL0     H 8225   4.695   2.469   0.490 -2.5768  2.0345 -1.3543
   61MOL0     H 8226   4.706   2.638   0.497  1.3602  1.1392 -1.8331
   61MOL0     H 8227   4.762   2.456   0.267  1.6512  0.7159 -2.1804
   61MOL0     H 8228   4.901   2.556   0.305 -0.0270  2.9351 -2.1339
   61MOL0     H 8229   4.780   2.676   0.148  4.6705  3.0668  2.8467
   61MOL0     H 8230   4.728   2.745   0.298 -0.1651 -0.6248  1.5756
   61MOL0     H 8231   4.576   2.537   0.140  1.4066 -0.5323  0.5055
   61MOL0     H 8232   4.540   2.712   0.137 -0.4839 -1.0066 -1.4841
   61MOL0     H 8233   4.361   2.568   0.485  1.6409 -1.2774  0.8536
   61MOL0     H 8234   4.801   2.285   0.547  0.2937 -1.8942 -4.2646
   61MOL0     H 8235   4.968   2.099   0.558 -1.3921 -0.1270 -2.3754
   62MOL0     O 8236   8.346   2.061  10.852  0.3050  0.1338 -0.6059
   62MOL0     C 8237   8.331   2.155  10.926  0.6945  0.2194  0.2547
   62MOL0     O 8238   8.394   2.277  10.911 -0.0752  0.0417  0.1779
   62MOL0     C 8239   8.485   2.291  10.804  0.8054 -0.5186 -1.0599
   62MOL0     C 8240   8.627   2.273  10.818  0.2502 -0.2096 -0.0658
   62MOL0     C 8241   8.708   2.282  10.709 -0.9469 -0.2067 -0.6095
   62MOL0     C 8242   8.662   2.318  10.586  0.6194 -0.5464  0.3644
   62MOL0     O 8243   8.748   2.368  10.486 -0.1287  0.1187 -0.1377
   62MOL0     C 8244   8.867   2.444  10.512 -0.0240 -0.1604 -0.6435
   62MOL0     C 8245   8.881   2.535  10.388  0.1521  0.2336  0.2412
   62MOL0     C 8246   9.011   2.601  10.363  0.2272 -0.4077 -0.5030
   62MOL0     C 8247   9.036   2.719  10.462  1.1269  0.5856 -0.8075
   62MOL0     C 8248   9.160   2.796  10.403  0.3664 -0.1148 -0.5814
   62MOL0     C 8249   9.175   2.922  10.485 -0.1191 -0.3401  0.1984
   62MOL0     C 8250   9.298   3.007  10.448 -0.6087 -1.2249  0.4969
   62MOL0     C 8251   9.263   3.115  10.350  0.1891 -0.6447  0.2258
   62MOL0     N 8252   9.381   3.186  10.294  0.4314 -0.3703  0.2268
   62MOL0     C 8253   9.484   3.232  10.377  0.2607  0.2397  0.0267
   62MOL0     C 8254   9.561   3.302  10.298 -1.1467  0.4360  0.6245
   62MOL0     C 8255   9.690   3.347  10.344 -0.5354 -0.3523 -0.6782
   62MOL0     C 8256   9.714   3.497  10.350 -0.2065 -0.9632 -1.0585
   62MOL0     C 8257   9.658   3.554  10.484  0.9800 -0.5043  0.5333
   62MOL0     C 8258   9.653   3.704  10.485  1.1422  0.8234 -0.7682
   62MOL0     O 8259   9.580   3.743  10.601 -0.2279  0.0474 -0.0401
   62MOL0     C 8260   9.557   3.877  10.634 -0.7255  0.3904 -0.0814
   62MOL0     C 8261   9.542   3.972  10.536  0.3057 -0.3540  0.3478
   62MOL0     C 8262   9.501   4.104  10.574 -0.9405  0.5031  0.5230
   62MOL0     C 8263   9.482   4.202  10.462  0.2711 -0.1469 -0.4323
   62MOL0     C 8264   9.477   4.140  10.710 -1.0765 -0.2173 -0.0020
   62MOL0     C 8265   9.454   4.272  10.759 -0.5348 -0.7502 -0.3876
   62MOL0     O 8266   9.500   4.301  10.889  0.3072 -0.2049 -0.3808
   62MOL0     C 8267   9.509   4.435  10.936 -0.1768  0.0319 -0.2644
   62MOL0     C 8268   9.537   4.551  10.857  0.2869 -0.7611 -0.0164
   62MOL0     C 8269   9.523   4.681  10.911 -0.4770 -0.0713 -0.1440
   62MOL0     C 8270   9.508   4.688  11.048 -0.6172  0.2869 -0.8775
   62MOL0     O 8271   9.484   4.812  11.108 -0.0149 -0.4112  0.3510
   62MOL0     C 8272   9.606   4.900  11.095 -0.4650  0.5502 -0.0235
   62MOL0     C 8273   9.677   4.928  11.228 -0.7271  0.6910  0.4283
   62MOL0     C 8274   9.762   4.809  11.281 -0.1572  0.6283  0.5886
   62MOL0     C 8275   9.834   4.837  11.413  0.3688  0.4874  0.0130
   62MOL0     C 8276   9.965   4.918  11.395 -0.2977 -0.4304  0.0271
   62MOL0     C 8277  10.049   4.928  11.522  0.2222  0.6676  0.3930
   62MOL0     C 8278   9.999   5.035  11.620  1.1113  0.4580  0.4383
   62MOL0     C 8279  10.046   4.994  11.756  0.2066 -0.2214 -0.5271
   62MOL0    Cl 8280  10.215   5.005  11.734 -0.1121 -0.0725 -0.0029
   62MOL0     C 8281   9.490   4.576  11.131 -0.2951 -0.7221 -0.9806
   62MOL0     C 8282   9.485   4.454  11.073 -0.9745  0.6422  0.0670
   62MOL0     O 8283   9.395   4.355  10.689 -0.1975  0.4697  0.5708
   62MOL0     C 8284   9.496   4.039  10.803 -0.7028  0.4349  0.0156
   62MOL0     C 8285   9.535   3.915  10.771  0.0578  0.1380  0.3450
   62MOL0     N 8286   9.496   3.318  10.175  0.3090  0.3828  0.4143
   62MOL0     N 8287   9.392   3.243  10.176 -0.2563 -0.6530 -0.3604
   62MOL0     C 8288   8.522   2.324  10.563 -1.0974 -0.8346  0.2820
   62MOL0     C 8289   8.435   2.307  10.677  0.1311 -0.8127  0.2147
   62MOL0     C 8290   8.268   2.136  11.054 -0.8522 -0.6755 -1.4797
   62MOL0     C 8291   8.322   2.191  11.176 -0.4159  0.2216 -0.7673
   62MOL0     C 8292   8.264   2.185  11.300  0.0316 -0.1918 -0.3364
   62MOL0     C 8293   8.146   2.102  11.310  0.0318  0.4599  0.4080
   62MOL0     O 8294   8.070   2.100  11.423  0.2351 -0.4195 -0.3529
   62MOL0     C 8295   8.098   2.187  11.530  0.3027  0.9773  0.8196
   62MOL0     C 8296   7.996   2.150  11.635  0.1052 -0.2739  0.0139
   62MOL0     C 8297   7.853   2.197  11.618 -0.7011 -0.1885 -0.3339
   62MOL0     C 8298   7.751   2.090  11.639  0.1758 -0.2771 -0.7518
   62MOL0     C 8299   7.614   2.133  11.613  0.1203  0.9757  0.3643
   62MOL0     C 8300   7.513   2.189  11.578 -0.3603  0.6051  0.7002
   62MOL0     C 8301   8.095   2.041  11.194  0.5942 -0.6103  0.3112
   62MOL0     C 8302   8.146   2.072  11.064  0.5565  0.1698  0.4833
   62MOL0     H 8303   8.671   2.254  10.915 -1.7788  2.0840  1.4180
   62MOL0     H 8304   8.810   2.291  10.744 -0.8810  1.6938 -1.2080
   62MOL0     H 8305   8.870   2.506  10.602  0.6601  1.0482 -1.4705
   62MOL0     H 8306   8.946   2.368  10.517  0.3757  0.3135  1.0204
   62MOL0     H 8307   8.862   2.471  10.301 -0.3011 -0.3116  0.7368
   62MOL0     H 8308   8.804   2.612  10.382  0.6853  0.7259 -0.3846
   62MOL0     H 8309   9.093   2.531  10.378  0.6569  0.3150  0.6904
   62MOL0     H 8310   9.012   2.626  10.257  0.5803  4.8568  0.4576
   62MOL0     H 8311   8.952   2.789  10.461  0.6743  0.0638 -0.1632
   62MOL0     H 8312   9.050   2.673  10.560 -0.4092 -3.0077 -2.0744
   62MOL0     H 8313   9.248   2.737  10.433  0.8049  1.1553  0.7309
   62MOL0     H 8314   9.154   2.814  10.295 -1.7956 -1.3659 -0.7326
   62MOL0     H 8315   9.089   2.989  10.478  0.5283  0.4965  0.1228
   62MOL0     H 8316   9.182   2.890  10.590 -1.7960  2.4836  1.2884
   62MOL0     H 8317   9.337   3.061  10.535  0.0072  0.8966 -1.0120
   62MOL0     H 8318   9.368   2.938  10.400 -3.1947 -1.5336 -3.2582
   62MOL0     H 8319   9.188   3.186  10.385 -0.4998 -1.8802  1.3476
   62MOL0     H 8320   9.213   3.073  10.261  1.1336  2.0641 -1.7187
   62MOL0     H 8321   9.506   3.209  10.481 -0.3105  0.6038  0.2275
   62MOL0     H 8322   9.700   3.310  10.447 -1.6645  1.3690  0.1004
   62MOL0     H 8323   9.768   3.298  10.285  2.3221 -1.1033  3.2934
   62MOL0     H 8324   9.676   3.555  10.265  3.2064  3.2943 -0.0446
   62MOL0     H 8325   9.822   3.513  10.350 -0.5323  3.0280  2.2763
   62MOL0     H 8326   9.725   3.517  10.562  1.3068  1.1322  1.0765
   62MOL0     H 8327   9.562   3.518  10.523  1.0618 -0.1507  1.0774
   62MOL0     H 8328   9.587   3.731  10.403 -0.1659  0.5462  0.1519
   62MOL0     H 8329   9.757   3.738  10.476  1.9757 -1.5440 -0.8303
   62MOL0     H 8330   9.538   3.940  10.432 -0.2870 -2.4940  0.9727
   62MOL0     H 8331   9.373   4.211  10.457  0.1606  1.4229  2.5626
   62MOL0     H 8332   9.513   4.302  10.495 -1.1165  0.0850  0.2408
   62MOL0     H 8333   9.529   4.174  10.367 -0.1343 -0.0679 -0.6586
   62MOL0     H 8334   9.567   4.542  10.753  2.0911  0.2735  0.3752
   62MOL0     H 8335   9.519   4.767  10.845 -0.9465  0.5076  0.6159
   62MOL0     H 8336   9.669   4.852  11.019 -2.3501  1.3449 -2.1883
   62MOL0     H 8337   9.576   4.993  11.047  2.5327 -0.4474 -4.5533
   62MOL0     H 8338   9.738   5.018  11.215  1.0388 -0.6584 -1.1910
   62MOL0     H 8339   9.600   4.942  11.304  0.0388 -1.9831  1.7927
   62MOL0     H 8340   9.838   4.781  11.208 -1.7053  2.7991 -2.0559
   62MOL0     H 8341   9.694   4.723  11.281 -0.1535  0.6258  0.4750
   62MOL0     H 8342   9.767   4.908  11.463  0.0667  0.5747 -0.5014
   62MOL0     H 8343   9.848   4.746  11.471  1.7268  0.9849  0.5085
   62MOL0     H 8344   9.933   5.017  11.362 -1.2174 -0.1347  1.6959
   62MOL0     H 8345  10.036   4.878  11.323  1.3626 -0.6307  1.6914
   62MOL0     H 8346  10.037   4.830  11.570  0.6333  0.0725 -0.7044
   62MOL0     H 8347  10.151   4.950  11.490 -0.2044 -0.2350 -1.7061
   62MOL0     H 8348   9.890   5.047  11.628  0.9528 -1.5350  2.4445
   62MOL0     H 8349  10.037   5.128  11.578  0.6852  0.2179 -0.5144
   62MOL0     H 8350  10.005   4.894  11.774 -2.2578  1.2947  3.5350
   62MOL0     H 8351  10.008   5.052  11.840  2.5974  1.1296 -0.2874
   62MOL0     H 8352   9.479   4.587  11.238 -3.0195 -1.0152 -1.1584
   62MOL0     H 8353   9.477   4.370  11.141 -1.2296  0.0438 -0.6957
   62MOL0     H 8354   9.506   4.069  10.907 -1.8614 -1.2505  0.6399
   62MOL0     H 8355   9.529   3.856  10.862 -2.2360  0.1783  0.2735
   62MOL0     H 8356   8.491   2.343  10.461  0.3886 -0.8055 -0.1826
   62MOL0     H 8357   8.327   2.318  10.670  0.2839  0.3809 -0.4316
   62MOL0     H 8358   8.419   2.240  11.166 -0.6893  1.3050  1.3442
   62MOL0     H 8359   8.300   2.234  11.390 -2.2984  1.4384 -0.1788
   62MOL0     H 8360   8.199   2.177  11.572  0.9697 -1.4238 -1.1151
   62MOL0     H 8361   8.072   2.284  11.487 -0.1520  0.2110 -0.6847
   62MOL0     H 8362   8.034   2.198  11.726 -2.3306  2.8412 -0.4353
   62MOL0     H 8363   7.995   2.042  11.653 -0.6086 -0.5163 -1.3494
   62MOL0     H 8364   7.825   2.243  11.523 -0.3748  1.8818  0.5284
   62MOL0     H 8365   7.840   2.277  11.691  1.0232  1.6736 -1.9581
   62MOL0     H 8366   7.748   2.066  11.745 -2.6398  1.6461 -0.2947
   62MOL0     H 8367   7.783   2.000  11.586 -0.2105  0.2410 -1.8953
   62MOL0     H 8368   7.436   2.244  11.528  0.8288  1.4290 -0.3091
   62MOL0     H 8369   7.997   1.997  11.207 -1.9203  3.1973 -3.1262
   62MOL0     H 8370   8.098   2.042  10.972 -1.3026  0.3222  1.3434
   63MOL0     O 8371   9.375   7.136   3.927 -0.3803 -0.9554  0.2812
   63MOL0     C 8372   9.344   7.049   4.013  0.6740 -0.3545  1.0458
   63MOL0     O 8373   9.228   7.030   4.072  0.0442  0.1236  0.1343
   63MOL0     C 8374   9.128   7.116   4.039 -0.2335  0.9524  0.4548
   63MOL0     C 8375   9.128   7.242   4.092  0.5783 -0.4733 -0.0445
   63MOL0     C 8376   9.028   7.332   4.072  0.3683 -0.4622 -0.4376
   63MOL0     C 8377   8.914   7.294   3.991 -0.1138 -0.8020  0.8004
   63MOL0     O 8378   8.800   7.363   3.947 -0.0220  0.1177 -0.5894
   63MOL0     C 8379   8.795   7.508   3.960  0.5487  0.2327 -0.2395
   63MOL0     C 8380   8.664   7.563   3.880 -0.4889  0.0808 -0.6514
   63MOL0     C 8381   8.544   7.569   3.986  0.2141 -0.4748  0.6847
   63MOL0     C 8382   8.431   7.670   3.941  0.4191  0.4669 -0.1169
   63MOL0     C 8383   8.294   7.628   4.001  0.1173  0.3199  0.7883
   63MOL0     C 8384   8.275   7.672   4.151  0.4060 -0.7254 -0.1063
   63MOL0     C 8385   8.132   7.658   4.189 -0.0294 -0.9125 -0.0595
   63MOL0     C 8386   8.116   7.711   4.329 -0.0967 -0.5097  0.0247
   63MOL0     N 8387   8.181   7.640   4.437  0.8278  0.9045 -0.0010
   63MOL0     C 8388   8.124   7.536   4.512 -0.0122 -1.0761  0.3137
   63MOL0     C 8389   8.202   7.512   4.611 -0.2172 -0.2215  0.2687
   63MOL0     C 8390   8.181   7.403   4.720  0.2145 -0.0165  0.0441
   63MOL0     C 8391   8.097   7.463   4.830 -0.0669 -0.6960 -0.6218
   63MOL0     C 8392   8.050   7.357   4.919 -0.2504 -0.7040  0.2573
   63MOL0     C 8393   7.944   7.412   5.020 -0.2995  0.1822  0.8974
   63MOL0     O 8394   8.019   7.482   5.119  0.0844  0.0790  0.2111
   63MOL0     C 8395   7.950   7.580   5.184 -0.2843 -0.0918 -0.2331
   63MOL0     C 8396   8.013   7.616   5.309  0.5076 -0.0170  1.0021
   63MOL0     C 8397   7.961   7.715   5.397  0.0747  0.4817  0.3064
   63MOL0     C 8398   8.033   7.755   5.521  0.0872 -0.5855 -0.8458
   63MOL0     C 8399   7.838   7.766   5.373  0.2477 -0.3372  0.0086
   63MOL0     C 8400   7.763   7.859   5.467  0.1560 -0.3040  0.1416
   63MOL0     O 8401   7.700   7.957   5.399  0.4737 -0.1308  0.1541
   63MOL0     C 8402   7.636   8.065   5.463  0.6233 -0.2065 -0.7663
   63MOL0     C 8403   7.500   8.093   5.449 -0.1590  0.1601 -0.4579
   63MOL0     C 8404   7.432   8.195   5.510 -0.1941  0.1228 -0.2517
   63MOL0     C 8405   7.505   8.284   5.589 -0.9033 -0.0547 -1.1176
   63MOL0     O 8406   7.450   8.386   5.661  0.0529  0.1146  0.0006
   63MOL0     C 8407   7.472   8.508   5.593 -0.3126  0.3209  0.8155
   63MOL0     C 8408   7.425   8.610   5.684  1.1904  0.3151  0.0580
   63MOL0     C 8409   7.430   8.742   5.609  0.0137 -0.4102 -0.2108
   63MOL0     C 8410   7.333   8.843   5.663 -0.0829 -0.5410  0.3677
   63MOL0     C 8411   7.346   8.982   5.593  0.4357  0.1343 -0.3414
   63MOL0     C 8412   7.234   9.072   5.653 -0.0535 -0.2317  0.1575
   63MOL0     C 8413   7.251   9.203   5.571 -0.7143  0.8977  0.3952
   63MOL0     C 8414   7.186   9.316   5.645  1.1280  0.3260  0.7922
   63MOL0    Cl 8415   7.215   9.474   5.552  0.3296 -0.0670  0.5393
   63MOL0     C 8416   7.639   8.261   5.606 -0.0112  0.0866  0.7308
   63MOL0     C 8417   7.700   8.146   5.552  0.3097 -0.3533 -0.2636
   63MOL0     O 8418   7.744   7.822   5.585 -0.2301 -0.0702  1.0780
   63MOL0     C 8419   7.774   7.732   5.257  0.4529  0.0229 -0.9863
   63MOL0     C 8420   7.831   7.647   5.160  0.0655 -0.3726 -0.5167
   63MOL0     N 8421   8.319   7.586   4.586 -0.3090  0.0902  0.2105
   63MOL0     N 8422   8.303   7.673   4.485  0.5287  0.6047 -0.5241
   63MOL0     C 8423   8.913   7.167   3.948 -0.5870  0.0543  0.1449
   63MOL0     C 8424   9.015   7.075   3.967 -0.1613  0.5241 -0.6306
   63MOL0     C 8425   9.451   6.944   4.026  0.0924  1.0934 -1.3207
   63MOL0     C 8426   9.403   6.814   4.063  0.3312  0.8452  0.0598
   63MOL0     C 8427   9.498   6.710   4.077  0.0428  0.2400  0.2486
   63MOL0     C 8428   9.629   6.723   4.042 -0.3768 -0.2264 -0.5590
   63MOL0     O 8429   9.716   6.623   4.068 -1.2109 -0.3386  0.0938
   63MOL0     C 8430   9.688   6.495   4.012 -0.3706  0.4678  0.0990
   63MOL0     C 8431   9.642   6.492   3.868 -0.2475 -0.7538  0.2690
   63MOL0     C 8432   9.746   6.544   3.773 -0.2754  0.3091  0.0953
   63MOL0     C 8433   9.745   6.490   3.633  0.2131  0.8015  0.4763
   63MOL0     C 8434   9.610   6.476   3.572 -0.6959 -0.1648 -0.8118
   63MOL0     C 8435   9.503   6.487   3.513  0.3616  0.6955  0.0768
   63MOL0     C 8436   9.670   6.848   4.002 -0.0202  0.3355 -0.5625
   63MOL0     C 8437   9.586   6.958   3.991 -0.7649  0.2970 -0.3152
   63MOL0     H 8438   9.213   7.255   4.159 -0.1132 -5.9982  2.5020
   63MOL0     H 8439   9.035   7.429   4.120  1.7101 -1.1414  0.8549
   63MOL0     H 8440   8.788   7.544   4.063  0.4208  1.9733 -0.8255
   63MOL0     H 8441   8.890   7.551   3.927  0.0535  1.4300 -0.1491
   63MOL0     H 8442   8.695   7.665   3.858 -0.3041  0.8190  2.5061
   63MOL0     H 8443   8.647   7.503   3.791 -2.6256  0.8149 -0.7840
   63MOL0     H 8444   8.492   7.473   3.982 -2.7757  1.0723 -0.9754
   63MOL0     H 8445   8.580   7.591   4.087  0.7051  0.5794  0.2987
   63MOL0     H 8446   8.453   7.774   3.966 -0.5053  1.1429 -1.9460
   63MOL0     H 8447   8.421   7.662   3.833  0.4030 -1.2681 -0.0250
   63MOL0     H 8448   8.215   7.671   3.938 -1.1823  1.1801  2.8973
   63MOL0     H 8449   8.276   7.521   3.988  0.5851  0.0132  2.4186
   63MOL0     H 8450   8.336   7.622   4.227  3.3719  0.6123 -1.4654
   63MOL0     H 8451   8.293   7.778   4.171 -0.9945 -0.7209  1.3584
   63MOL0     H 8452   8.072   7.722   4.122 -0.9614  1.6225  2.9713
   63MOL0     H 8453   8.088   7.558   4.186 -0.3810 -1.0078  3.6023
   63MOL0     H 8454   8.014   7.734   4.364 -0.5333  1.9269 -2.4975
   63MOL0     H 8455   8.150   7.815   4.334 -3.8208  0.9615 -1.1607
   63MOL0     H 8456   8.023   7.496   4.505 -0.9850  1.3349 -0.5373
   63MOL0     H 8457   8.132   7.319   4.670  2.7122 -0.6203 -1.6053
   63MOL0     H 8458   8.277   7.368   4.759  0.2806  1.4200  1.2312
   63MOL0     H 8459   8.011   7.506   4.776 -0.2689  0.9544  0.9280
   63MOL0     H 8460   8.141   7.554   4.870 -3.2239  1.3522 -1.4015
   63MOL0     H 8461   8.140   7.319   4.969  1.4223  0.3010 -1.8253
   63MOL0     H 8462   8.010   7.268   4.869  0.1379 -0.8007  0.1156
   63MOL0     H 8463   7.893   7.326   5.063  0.6182 -1.2809 -0.8123
   63MOL0     H 8464   7.876   7.468   4.955  0.7694  0.6177  0.1236
   63MOL0     H 8465   8.116   7.587   5.331  1.6148  2.9429  0.1958
   63MOL0     H 8466   8.141   7.748   5.506  0.6123  4.2192 -0.9314
   63MOL0     H 8467   8.030   7.864   5.530  1.8332 -0.6637  2.1240
   63MOL0     H 8468   7.990   7.704   5.608 -0.8466 -1.1346 -1.6025
   63MOL0     H 8469   7.441   8.032   5.381  1.0682  0.7879 -2.1665
   63MOL0     H 8470   7.325   8.207   5.503 -0.2866  0.7793  1.7362
   63MOL0     H 8471   7.580   8.527   5.583 -0.6011  2.8060  1.7886
   63MOL0     H 8472   7.427   8.511   5.493  2.5029 -2.5413 -0.7352
   63MOL0     H 8473   7.319   8.594   5.708  0.9178  3.6053  1.8263
   63MOL0     H 8474   7.477   8.603   5.780 -0.6713 -1.8882  1.0116
   63MOL0     H 8475   7.400   8.716   5.507 -0.4964 -0.9169  0.0656
   63MOL0     H 8476   7.530   8.784   5.623 -0.9701  1.3715  1.9627
   63MOL0     H 8477   7.232   8.801   5.658 -1.0529  0.7087  4.8581
   63MOL0     H 8478   7.342   8.854   5.771  0.0307 -0.0969  0.3149
   63MOL0     H 8479   7.319   8.965   5.488 -5.1655 -3.2414  1.1949
   63MOL0     H 8480   7.445   9.021   5.615 -1.4287  3.2122  3.9695
   63MOL0     H 8481   7.131   9.035   5.662  0.1811 -0.6254  1.3757
   63MOL0     H 8482   7.249   9.101   5.757 -0.2219 -0.6038  0.2885
   63MOL0     H 8483   7.229   9.182   5.467  3.7895  0.5633 -0.7171
   63MOL0     H 8484   7.355   9.236   5.566 -1.2941  4.0518  4.1051
   63MOL0     H 8485   7.231   9.335   5.743  1.7453 -0.5795  0.6981
   63MOL0     H 8486   7.078   9.298   5.654  1.0121  1.8361  4.1168
   63MOL0     H 8487   7.711   8.322   5.660 -0.4040  1.3827 -0.1627
   63MOL0     H 8488   7.806   8.133   5.575 -0.0312 -3.8915 -0.1591
   63MOL0     H 8489   7.674   7.774   5.253 -0.5915 -0.8468  5.2986
   63MOL0     H 8490   7.776   7.627   5.069 -0.1064 -0.9962 -0.2774
   63MOL0     H 8491   8.836   7.137   3.878 -0.5054  3.4859 -1.5814
   63MOL0     H 8492   9.005   6.971   3.938  1.6909 -0.1454  0.9198
   63MOL0     H 8493   9.303   6.785   4.094  1.0270 -0.0365  1.6064
   63MOL0     H 8494   9.457   6.616   4.114 -1.6356  1.8782  2.8913
   63MOL0     H 8495   9.781   6.437   4.020 -1.9143 -2.3213 -0.8914
   63MOL0     H 8496   9.610   6.452   4.075  0.1489 -0.0458  0.3988
   63MOL0     H 8497   9.554   6.556   3.856  2.9436  4.3362  0.8608
   63MOL0     H 8498   9.611   6.391   3.841  0.3697  0.4523 -6.7607
   63MOL0     H 8499   9.847   6.527   3.813  0.2034  1.0491 -0.7717
   63MOL0     H 8500   9.740   6.653   3.774  0.9600  0.4577  2.8980
   63MOL0     H 8501   9.795   6.392   3.634  2.3683  1.8467  1.0051
   63MOL0     H 8502   9.808   6.550   3.567 -0.5467  0.8402 -0.2268
   63MOL0     H 8503   9.409   6.489   3.462  0.2428 -0.4395  0.2425
   63MOL0     H 8504   9.775   6.846   3.973  0.7591 -2.8217  1.8934
   63MOL0     H 8505   9.621   7.060   3.976 -0.3703  0.7551  2.8801
   64MOL0     O 8506   6.436   2.507  10.997 -0.1798 -0.4737 -0.0383
   64MOL0     C 8507   6.540   2.561  10.975  0.1072  0.7447  0.6312
   64MOL0     O 8508   6.662   2.507  11.011  0.3631  0.0693  0.7001
   64MOL0     C 8509   6.666   2.377  11.062  0.3031 -0.2300 -0.9071
   64MOL0     C 8510   6.579   2.311  11.146 -0.0702 -0.4819 -0.1618
   64MOL0     C 8511   6.618   2.189  11.210  0.2097 -0.7592  0.1154
   64MOL0     C 8512   6.752   2.145  11.199  0.5365  0.3352  0.4018
   64MOL0     O 8513   6.802   2.037  11.264  0.8051 -0.7175 -0.3828
   64MOL0     C 8514   6.746   1.997  11.386 -0.2171  0.6413 -0.3343
   64MOL0     C 8515   6.797   2.106  11.487  0.9190 -0.6741 -0.2393
   64MOL0     C 8516   6.951   2.111  11.503  0.1072  0.9484  0.6717
   64MOL0     C 8517   6.993   1.991  11.592  0.7324  0.4032  0.3076
   64MOL0     C 8518   7.148   1.967  11.577 -0.5403 -0.7522  0.7953
   64MOL0     C 8519   7.218   1.885  11.685 -0.0589  0.5751 -0.3616
   64MOL0     C 8520   7.372   1.856  11.659 -0.3486 -0.9830  0.4489
   64MOL0     C 8521   7.427   1.749  11.750 -0.0542  0.5672 -0.8122
   64MOL0     N 8522   7.388   1.759  11.900  0.4192  0.3379  0.6677
   64MOL0     C 8523   7.444   1.841  11.992 -0.9422  0.2036  0.6717
   64MOL0     C 8524   7.364   1.833  12.102 -0.0622 -0.2610  0.1027
   64MOL0     C 8525   7.363   1.926  12.223 -0.1303  0.1076  0.9714
   64MOL0     C 8526   7.246   1.908  12.327 -0.8182  0.3179 -0.6055
   64MOL0     C 8527   7.278   1.986  12.456 -0.0479 -0.3034  0.8453
   64MOL0     C 8528   7.167   1.962  12.565 -0.6451 -0.0574  0.3872
   64MOL0     O 8529   7.238   2.003  12.684 -0.0034  0.5179  0.2557
   64MOL0     C 8530   7.176   1.984  12.802 -0.3541  0.6638 -0.0407
   64MOL0     C 8531   7.257   2.020  12.911  0.0375 -0.7171 -0.5050
   64MOL0     C 8532   7.210   2.020  13.043 -0.2564 -0.2254 -0.4944
   64MOL0     C 8533   7.304   2.081  13.141 -0.3572 -0.2515  0.3705
   64MOL0     C 8534   7.090   1.967  13.076 -0.5729  0.2479  0.5810
   64MOL0     C 8535   7.041   1.945  13.215  0.1895  1.2036  0.6116
   64MOL0     O 8536   7.136   1.960  13.320  0.2705  0.0658 -0.6734
   64MOL0     C 8537   7.108   1.958  13.461  0.3494 -0.4897  1.2559
   64MOL0     C 8538   7.208   2.004  13.539 -0.5160 -0.8405  0.5201
   64MOL0     C 8539   7.190   2.016  13.682  0.1973 -0.3109  0.6659
   64MOL0     C 8540   7.068   1.965  13.743 -0.9812 -0.5672  0.5068
   64MOL0     O 8541   7.056   1.989  13.882  0.3506  0.3484  0.5327
   64MOL0     C 8542   6.923   1.990  13.943 -0.0356  0.2236 -0.2978
   64MOL0     C 8543   6.881   1.850  13.998 -0.3857  0.3228  0.6347
   64MOL0     C 8544   6.742   1.856  14.045  0.2945  0.0158  0.4664
   64MOL0     C 8545   6.717   1.756  14.158  0.6828  0.5459 -0.0460
   64MOL0     C 8546   6.749   1.609  14.139  0.3684 -0.3818  0.3718
   64MOL0     C 8547   6.670   1.555  14.014 -0.1909  0.1334  0.4668
   64MOL0     C 8548   6.640   1.401  14.027  1.1588 -0.4780  0.6135
   64MOL0     C 8549   6.766   1.317  14.051 -0.3789  0.3124 -0.4667
   64MOL0    Cl 8550   6.717   1.142  14.085  0.2025  0.2425 -0.5008
   64MOL0     C 8551   6.978   1.906  13.663  0.0840 -0.7028  0.1250
   64MOL0     C 8552   6.989   1.911  13.521 -0.9178  0.6267 -0.6947
   64MOL0     O 8553   6.922   1.912  13.230  0.3059 -0.0583  0.5474
   64MOL0     C 8554   7.002   1.928  12.965  0.3558  0.1013  0.4462
   64MOL0     C 8555   7.042   1.949  12.831 -0.1262  0.0294 -0.4541
   64MOL0     N 8556   7.266   1.738  12.081 -0.2410  0.5804 -0.2272
   64MOL0     N 8557   7.283   1.692  11.954  0.5733  0.0853 -0.2027
   64MOL0     C 8558   6.844   2.217  11.120  0.2102 -0.5141 -0.3427
   64MOL0     C 8559   6.798   2.332  11.059  0.6892  0.1344  0.1846
   64MOL0     C 8560   6.540   2.691  10.897 -0.0662 -0.3560  0.4963
   64MOL0     C 8561   6.656   2.761  10.884  0.7452 -0.6452 -0.2694
   64MOL0     C 8562   6.648   2.893  10.836 -0.3371 -0.5330 -0.7145
   64MOL0     C 8563   6.536   2.956  10.786  0.1746 -0.5165  0.4565
   64MOL0     O 8564   6.542   3.075  10.725  0.0234 -0.2981 -0.0984
   64MOL0     C 8565   6.645   3.176  10.766 -1.1800  0.6271 -0.2352
   64MOL0     C 8566   6.605   3.315  10.717 -0.1095 -0.3292 -0.7727
   64MOL0     C 8567   6.584   3.330  10.564 -0.4159  0.2141  0.3853
   64MOL0     C 8568   6.707   3.313  10.469 -1.0795 -0.2270  0.7248
   64MOL0     C 8569   6.661   3.299  10.330 -0.0859  0.2873 -0.0668
   64MOL0     C 8570   6.629   3.308  10.218  0.3661  0.8952 -0.7562
   64MOL0     C 8571   6.425   2.883  10.793  0.0144  0.8283 -0.4374
   64MOL0     C 8572   6.420   2.749  10.854 -0.1570 -0.5786  0.3105
   64MOL0     H 8573   6.478   2.346  11.163 -0.3892  0.9055 -3.8956
   64MOL0     H 8574   6.544   2.131  11.263 -3.2204  3.1972  0.1579
   64MOL0     H 8575   6.638   1.982  11.389  0.1088 -2.4001 -0.5979
   64MOL0     H 8576   6.784   1.898  11.414  0.0988  1.5040  2.5727
   64MOL0     H 8577   6.774   2.198  11.433  1.7472 -0.3981 -0.1446
   64MOL0     H 8578   6.748   2.107  11.585  0.3935  2.1658 -0.4359
   64MOL0     H 8579   6.996   2.109  11.403  0.6321  1.3057  0.8973
   64MOL0     H 8580   6.993   2.202  11.547 -0.4455  0.6831  1.7715
   64MOL0     H 8581   6.968   2.009  11.697 -5.5109  0.8404 -0.8725
   64MOL0     H 8582   6.935   1.900  11.573 -0.5774  1.1796  0.4883
   64MOL0     H 8583   7.171   1.928  11.478  0.0450 -2.8446  1.7058
   64MOL0     H 8584   7.205   2.060  11.570  1.5670 -1.7445  3.2012
   64MOL0     H 8585   7.210   1.941  11.778 -1.4932  0.6742 -0.5266
   64MOL0     H 8586   7.171   1.788  11.701  1.5257 -0.2445 -0.4985
   64MOL0     H 8587   7.384   1.818  11.557  2.3242  0.6995  0.0281
   64MOL0     H 8588   7.439   1.942  11.663  0.3462 -1.4395 -0.7819
   64MOL0     H 8589   7.535   1.762  11.749  0.0928 -0.5346 -0.3857
   64MOL0     H 8590   7.397   1.649  11.717  1.9865  0.7070 -3.4113
   64MOL0     H 8591   7.528   1.910  11.979 -1.4599  0.8923  0.9467
   64MOL0     H 8592   7.466   1.932  12.261  1.1392  1.2809 -2.2739
   64MOL0     H 8593   7.347   2.029  12.190 -3.2779  0.1366  2.2414
   64MOL0     H 8594   7.229   1.801  12.343  0.6043 -0.1226 -1.8078
   64MOL0     H 8595   7.148   1.940  12.290 -1.1911 -1.0133 -0.8108
   64MOL0     H 8596   7.289   2.091  12.425 -2.7624  0.1222  1.0848
   64MOL0     H 8597   7.377   1.962  12.495  0.8480  0.2878 -0.9228
   64MOL0     H 8598   7.136   1.857  12.577  0.1909 -0.4022 -0.3178
   64MOL0     H 8599   7.072   2.010  12.538 -1.0182 -1.1951 -0.4512
   64MOL0     H 8600   7.356   2.057  12.887  1.2429 -3.9543 -1.0397
   64MOL0     H 8601   7.374   2.014  13.192  0.8733  1.6519  1.3146
   64MOL0     H 8602   7.377   2.147  13.093 -3.0473  2.2362 -0.5958
   64MOL0     H 8603   7.242   2.146  13.203 -2.2396 -0.1599 -1.5263
   64MOL0     H 8604   7.287   2.050  13.481 -0.9145  0.4116  0.9424
   64MOL0     H 8605   7.269   2.070  13.733 -0.1992  1.1366 -0.1985
   64MOL0     H 8606   6.930   2.050  14.035 -0.6942  0.2919 -0.2877
   64MOL0     H 8607   6.848   2.030  13.874 -3.0182 -0.9608  2.0086
   64MOL0     H 8608   6.895   1.778  13.917 -3.8859 -0.5874  0.6896
   64MOL0     H 8609   6.953   1.834  14.079  0.6506  1.3915 -0.0443
   64MOL0     H 8610   6.677   1.839  13.959 -2.4423  0.0177  2.4245
   64MOL0     H 8611   6.713   1.952  14.088 -2.8126 -0.2539 -0.7829
   64MOL0     H 8612   6.782   1.796  14.236 -0.4107 -0.6593  1.5497
   64MOL0     H 8613   6.615   1.760  14.197  0.4113  1.3821 -0.8195
   64MOL0     H 8614   6.734   1.553  14.232  2.3118 -0.5481  0.6300
   64MOL0     H 8615   6.857   1.606  14.125  0.3362 -1.5643  0.3220
   64MOL0     H 8616   6.571   1.593  13.986  0.1613 -1.4394 -3.6064
   64MOL0     H 8617   6.727   1.564  13.921  0.8323 -1.5139  0.8934
   64MOL0     H 8618   6.589   1.359  13.940 -1.5828  0.7298  1.5232
   64MOL0     H 8619   6.568   1.392  14.108  1.2569 -0.5603  0.6918
   64MOL0     H 8620   6.832   1.341  14.135 -0.7795  0.8228 -0.2898
   64MOL0     H 8621   6.824   1.330  13.960  2.2753 -1.8450  0.7813
   64MOL0     H 8622   6.889   1.876  13.718  0.4315  3.2666  3.3555
   64MOL0     H 8623   6.897   1.895  13.467 -0.5466  0.5465 -1.3171
   64MOL0     H 8624   6.906   1.886  12.992 -0.8081  0.7414 -2.3911
   64MOL0     H 8625   6.993   1.915  12.741 -1.8184 -0.1057  0.4849
   64MOL0     H 8626   6.946   2.186  11.100  0.9249  2.3125 -1.6080
   64MOL0     H 8627   6.854   2.391  10.987  1.2816 -0.1369  0.4133
   64MOL0     H 8628   6.750   2.726  10.927  0.3314 -1.5122 -0.0530
   64MOL0     H 8629   6.740   2.949  10.845  0.7989 -2.3867 -0.3795
   64MOL0     H 8630   6.648   3.172  10.875  1.8905 -1.6244 -0.2805
   64MOL0     H 8631   6.746   3.146  10.736 -1.3309 -1.5939  1.1966
   64MOL0     H 8632   6.678   3.385  10.760 -0.7796 -0.5508  0.8082
   64MOL0     H 8633   6.505   3.339  10.755  0.2083  0.9220 -0.6728
   64MOL0     H 8634   6.533   3.426  10.557 -0.2334  0.2386 -0.7318
   64MOL0     H 8635   6.514   3.251  10.537  0.9825 -0.6660 -0.8059
   64MOL0     H 8636   6.767   3.227  10.499 -2.5240 -1.9300 -0.9763
   64MOL0     H 8637   6.753   3.412  10.478  0.4418 -0.5102 -2.4296
   64MOL0     H 8638   6.617   3.299  10.112  0.0593  0.1484 -0.6656
   64MOL0     H 8639   6.326   2.920  10.767  0.4410  2.9311  0.7652
   64MOL0     H 8640   6.322   2.703  10.855 -0.5283  0.1995  0.6315
   65MOL0     O 8641   5.829   9.976   6.492 -0.9300 -0.1666  0.3643
   65MOL0     C 8642   5.843   9.932   6.373 -0.8657 -0.6520  0.3059
   65MOL0     O 8643   5.743   9.943   6.276 -0.3974  0.1149 -0.0892
   65MOL0     C 8644   5.636  10.031   6.299 -0.7990  0.4448  0.4333
   65MOL0     C 8645   5.632  10.161   6.240 -0.3447  0.1204  0.0253
   65MOL0     C 8646   5.522  10.243   6.269  0.1177 -0.4590 -0.5816
   65MOL0     C 8647   5.413  10.195   6.346  0.5891 -0.4325  0.1633
   65MOL0     O 8648   5.297  10.267   6.353 -0.1962 -0.4510 -0.2017
   65MOL0     C 8649   5.297  10.401   6.396  0.6498 -0.6364 -0.8751
   65MOL0     C 8650   5.161  10.430   6.452 -0.3926  0.0637 -0.1040
   65MOL0     C 8651   5.146  10.401   6.597  0.2750  0.4214  0.6530
   65MOL0     C 8652   5.020  10.478   6.645  0.2020  0.4944 -1.2875
   65MOL0     C 8653   5.052  10.626   6.662 -0.3896 -0.5188 -0.2468
   65MOL0     C 8654   4.940  10.688   6.746 -0.2714  1.0278 -0.7559
   65MOL0     C 8655   4.949  10.838   6.783 -0.8903 -0.1409  0.5863
   65MOL0     C 8656   5.093  10.889   6.822  0.1540  0.5270 -0.3112
   65MOL0     N 8657   5.088  11.031   6.856  0.4705  0.2054 -0.6595
   65MOL0     C 8658   5.086  11.133   6.765  0.3153  0.2241 -1.0557
   65MOL0     C 8659   5.099  11.254   6.829  0.7138  0.1634  0.4684
   65MOL0     C 8660   5.128  11.397   6.762  0.4366  0.3132  0.2790
   65MOL0     C 8661   5.066  11.412   6.621  0.8479  0.3863  0.0502
   65MOL0     C 8662   4.993  11.547   6.599  0.0122  0.6305  0.1944
   65MOL0     C 8663   4.840  11.515   6.603 -0.0666  0.1357 -0.0633
   65MOL0     O 8664   4.781  11.643   6.598 -0.5687 -0.4528  0.4927
   65MOL0     C 8665   4.650  11.657   6.562  0.5231 -0.4598  0.6001
   65MOL0     C 8666   4.549  11.562   6.587 -0.2426 -0.2745  0.1845
   65MOL0     C 8667   4.422  11.575   6.529  0.3543 -0.1789 -0.5034
   65MOL0     C 8668   4.314  11.482   6.589 -0.0394  0.7195 -0.5527
   65MOL0     C 8669   4.386  11.695   6.462 -0.2122 -0.3138 -0.6192
   65MOL0     C 8670   4.252  11.738   6.426  0.2444 -0.4698  0.0229
   65MOL0     O 8671   4.231  11.877   6.426 -0.0494 -0.2351 -0.1108
   65MOL0     C 8672   4.135  11.942   6.348 -0.6500 -0.5512 -0.2991
   65MOL0     C 8673   4.060  12.054   6.399  0.5281  0.1738 -0.1028
   65MOL0     C 8674   3.965  12.121   6.320 -0.3140 -0.1894  0.5303
   65MOL0     C 8675   3.936  12.079   6.192  0.1343  0.3396  0.2503
   65MOL0     O 8676   3.833  12.128   6.117 -0.3109 -0.7762  0.2470
   65MOL0     C 8677   3.800  12.273   6.136  1.1996  0.5331 -0.0250
   65MOL0     C 8678   3.906  12.355   6.065 -0.6164 -0.4485 -0.6719
   65MOL0     C 8679   3.846  12.501   6.048  0.8735  0.4715 -0.0850
   65MOL0     C 8680   3.959  12.605   6.017  0.5266  0.3846  0.3576
   65MOL0     C 8681   3.918  12.748   6.017  0.1551  0.0647  0.3282
   65MOL0     C 8682   3.792  12.783   5.940 -0.2405  0.2703  0.7434
   65MOL0     C 8683   3.761  12.931   5.928 -0.0608 -0.7716 -0.5663
   65MOL0     C 8684   3.644  12.956   5.844 -0.3387  0.5593  0.2234
   65MOL0    Cl 8685   3.503  12.860   5.909  0.6904  0.0387  0.3266
   65MOL0     C 8686   4.014  11.978   6.138 -0.3769  0.0346  0.2028
   65MOL0     C 8687   4.111  11.914   6.216  0.2648  0.0753 -0.5517
   65MOL0     O 8688   4.164  11.664   6.385 -0.5823 -0.5771  0.3804
   65MOL0     C 8689   4.490  11.793   6.443 -0.4668  0.2805  0.1948
   65MOL0     C 8690   4.617  11.766   6.485 -0.6963 -0.1171  0.0925
   65MOL0     N 8691   5.130  11.216   6.965 -0.3520  0.1166  0.3288
   65MOL0     N 8692   5.123  11.093   6.974  0.3759  0.1657  0.0515
   65MOL0     C 8693   5.421  10.067   6.395  1.0105 -0.1372 -0.0238
   65MOL0     C 8694   5.532   9.986   6.364 -0.1120  0.5972 -0.4390
   65MOL0     C 8695   5.969   9.861   6.343 -0.2693  0.9162  0.1719
   65MOL0     C 8696   6.093   9.907   6.398 -0.1614 -0.0824  0.5339
   65MOL0     C 8697   6.207   9.829   6.368 -0.2655 -0.1883  0.5468
   65MOL0     C 8698   6.204   9.718   6.281  0.4461 -0.8120 -0.3671
   65MOL0     O 8699   6.321   9.639   6.255  0.2987 -0.1185  0.0347
   65MOL0     C 8700   6.312   9.505   6.201  0.3373 -0.5455  1.2005
   65MOL0     C 8701   6.230   9.404   6.276  1.3522  0.6513 -0.0320
   65MOL0     C 8702   6.277   9.371   6.418 -0.2526 -0.1802  0.1185
   65MOL0     C 8703   6.409   9.309   6.412 -0.3362  1.0506  0.1800
   65MOL0     C 8704   6.439   9.247   6.546 -0.0861  0.9226  0.1813
   65MOL0     C 8705   6.458   9.200   6.657  0.4409 -0.2884  0.2849
   65MOL0     C 8706   6.075   9.694   6.224 -0.9159  0.0357  0.4519
   65MOL0     C 8707   5.964   9.753   6.254 -0.2555 -0.8021  0.3907
   65MOL0     H 8708   5.704  10.190   6.164  0.4414 -0.4880  0.5283
   65MOL0     H 8709   5.512  10.341   6.223  2.3705 -1.4533 -3.4788
   65MOL0     H 8710   5.367  10.419   6.478 -0.5975  2.4300 -0.3537
   65MOL0     H 8711   5.324  10.474   6.319  0.0615  0.0579 -0.4398
   65MOL0     H 8712   5.137  10.536   6.436 -2.0891 -0.4489 -1.2809
   65MOL0     H 8713   5.086  10.373   6.395  0.1962  0.1553 -0.9827
   65MOL0     H 8714   5.146  10.294   6.616 -0.9181  0.9506  4.5719
   65MOL0     H 8715   5.234  10.432   6.655  0.9710  1.7001 -0.9995
   65MOL0     H 8716   4.930  10.462   6.586 -1.3093  0.0970  0.9995
   65MOL0     H 8717   4.997  10.436   6.743  0.3528  2.3509 -0.4315
   65MOL0     H 8718   5.142  10.642   6.722 -1.3513  1.4154  0.7720
   65MOL0     H 8719   5.060  10.673   6.564  1.3451 -1.9117 -0.8151
   65MOL0     H 8720   4.846  10.668   6.694  0.7965 -1.7062 -1.7927
   65MOL0     H 8721   4.939  10.631   6.839 -1.0291 -0.9730 -1.9178
   65MOL0     H 8722   4.923  10.887   6.688  0.3914 -2.0990 -0.8572
   65MOL0     H 8723   4.878  10.866   6.861 -1.0849  0.8036  0.0816
   65MOL0     H 8724   5.165  10.877   6.740  3.5122 -1.8342  2.6640
   65MOL0     H 8725   5.134  10.839   6.910  3.2323  0.7010 -1.5086
   65MOL0     H 8726   5.077  11.124   6.657  0.4607  0.4297 -1.0860
   65MOL0     H 8727   5.080  11.465   6.833 -2.7566 -1.6421  0.1533
   65MOL0     H 8728   5.231  11.434   6.765  1.9371 -3.3755 -0.6192
   65MOL0     H 8729   4.998  11.326   6.619  1.0178  0.1841  1.8446
   65MOL0     H 8730   5.143  11.400   6.543  1.1314 -0.7318  0.4831
   65MOL0     H 8731   5.015  11.588   6.500  1.1478  0.2653  0.2781
   65MOL0     H 8732   5.028  11.616   6.676  1.8744 -0.4471  0.3609
   65MOL0     H 8733   4.814  11.480   6.703  1.3072  2.4931  1.2158
   65MOL0     H 8734   4.798  11.444   6.532  0.0160 -2.2593  2.1168
   65MOL0     H 8735   4.564  11.472   6.646 -1.0379 -1.8994 -1.9753
   65MOL0     H 8736   4.248  11.450   6.508  0.6604  0.6626 -1.1137
   65MOL0     H 8737   4.361  11.404   6.649 -1.4066 -0.1830 -0.6142
   65MOL0     H 8738   4.256  11.538   6.663 -0.3840  0.5345 -0.6813
   65MOL0     H 8739   4.065  12.079   6.505  0.2533 -0.5780  0.0891
   65MOL0     H 8740   3.909  12.201   6.367  0.8416  1.2100 -0.3913
   65MOL0     H 8741   3.708  12.300   6.083  2.7688  2.1640 -2.0740
   65MOL0     H 8742   3.783  12.293   6.242 -2.3098 -0.8100 -0.1938
   65MOL0     H 8743   3.988  12.362   6.137  0.5463  1.1996 -2.0625
   65MOL0     H 8744   3.941  12.316   5.969 -1.1513  0.7939 -1.4048
   65MOL0     H 8745   3.796  12.523   6.143  2.3758  0.1508  0.8299
   65MOL0     H 8746   3.777  12.497   5.964 -0.6125 -3.7499  1.0665
   65MOL0     H 8747   4.030  12.583   6.098  1.7396 -0.9761 -1.0225
   65MOL0     H 8748   4.016  12.580   5.928  3.0620  3.8247  0.8128
   65MOL0     H 8749   3.994  12.812   5.972 -1.8794  0.4725 -2.8723
   65MOL0     H 8750   3.904  12.780   6.120 -2.3556  3.5401 -0.9107
   65MOL0     H 8751   3.797  12.736   5.841 -1.3462  0.0094  0.7914
   65MOL0     H 8752   3.699  12.736   5.976 -0.9714 -0.6186 -2.0562
   65MOL0     H 8753   3.841  12.994   5.885 -0.2136 -2.0852 -2.9628
   65MOL0     H 8754   3.745  12.972   6.028  1.7167  0.3571 -0.7016
   65MOL0     H 8755   3.674  12.904   5.752 -0.0783 -2.7737  2.0387
   65MOL0     H 8756   3.618  13.059   5.818  0.1579  0.0161 -2.8691
   65MOL0     H 8757   3.996  11.942   6.037 -1.8268 -0.3062  0.5669
   65MOL0     H 8758   4.164  11.827   6.180  0.7273  0.5791 -1.1037
   65MOL0     H 8759   4.472  11.890   6.396 -2.0354  1.2706  2.5913
   65MOL0     H 8760   4.691  11.838   6.451 -1.6373  1.5263  1.4012
   65MOL0     H 8761   5.331  10.046   6.452  2.8860  0.4471  3.4552
   65MOL0     H 8762   5.530   9.882   6.395  0.8494  0.2238 -1.5514
   65MOL0     H 8763   6.114   9.989   6.466  0.6657  1.8261 -1.8775
   65MOL0     H 8764   6.306   9.847   6.408 -0.8910 -1.3658  2.8256
   65MOL0     H 8765   6.275   9.514   6.099  0.3851  0.8407  1.2789
   65MOL0     H 8766   6.413   9.471   6.177 -0.1103 -1.0534 -0.0589
   65MOL0     H 8767   6.210   9.317   6.212  0.9715  0.1410  0.7597
   65MOL0     H 8768   6.136   9.452   6.306  2.5047  2.7708  0.3254
   65MOL0     H 8769   6.212   9.293   6.460  0.5258 -1.8945 -1.7244
   65MOL0     H 8770   6.280   9.459   6.483  2.8585  0.6683 -1.0059
   65MOL0     H 8771   6.489   9.379   6.385  1.3690 -1.7429 -2.6339
   65MOL0     H 8772   6.427   9.236   6.334 -0.9256  1.3172 -0.2126
   65MOL0     H 8773   6.464   9.161   6.757  3.6863  0.4030  0.4508
   65MOL0     H 8774   6.064   9.620   6.145 -1.9641 -0.8311  1.3829
   65MOL0     H 8775   5.872   9.708   6.217  0.8868 -1.7334 -1.4329
   66MOL0     O 8776  10.407   7.823   2.905 -0.5284  0.1340 -0.7731
   66MOL0     C 8777  10.296   7.783   2.877  0.0161  0.0220 -0.5540
   66MOL0     O 8778  10.234   7.814   2.763  0.2746 -0.4656  0.3213
   66MOL0     C 8779  10.289   7.880   2.656 -0.6672  0.7772  0.7219
   66MOL0     C 8780  10.377   7.986   2.666 -0.2202 -0.6607 -0.1740
   66MOL0     C 8781  10.441   8.061   2.555  0.8145  0.5148  0.2560
   66MOL0     C 8782  10.396   8.039   2.427 -0.1541 -0.1129  1.1986
   66MOL0     O 8783  10.451   8.098   2.319 -0.0150  0.1405 -0.1738
   66MOL0     C 8784  10.457   8.236   2.320 -0.2920 -0.9933  0.5111
   66MOL0     C 8785  10.524   8.292   2.193  0.6958 -0.2890  0.3243
   66MOL0     C 8786  10.552   8.438   2.197 -0.1341 -0.5271  0.9083
   66MOL0     C 8787  10.649   8.485   2.090  0.8674 -0.3406  0.5575
   66MOL0     C 8788  10.668   8.638   2.103  0.1195  0.5516 -0.0777
   66MOL0     C 8789  10.751   8.694   1.983  0.2965 -0.0805  0.0867
   66MOL0     C 8790  10.742   8.853   1.968  0.1382  0.4542 -0.1375
   66MOL0     C 8791  10.840   8.905   1.858 -0.3776  0.7979 -0.4237
   66MOL0     N 8792  10.972   8.897   1.914 -0.6383 -0.3740 -0.0015
   66MOL0     C 8793  11.035   9.003   1.981 -0.1030  0.1627 -0.6002
   66MOL0     C 8794  11.161   8.953   1.996  0.5971  0.3003  0.0460
   66MOL0     C 8795  11.253   9.023   2.074  0.5422  0.3649 -0.0437
   66MOL0     C 8796  11.353   9.085   1.993  0.1379  0.5858 -0.6154
   66MOL0     C 8797  11.287   9.189   1.895 -0.5025  0.2594 -0.4547
   66MOL0     C 8798  11.376   9.245   1.787 -0.6703  0.6993 -0.0198
   66MOL0     O 8799  11.304   9.352   1.721 -0.2162  0.5429 -0.4733
   66MOL0     C 8800  11.277   9.467   1.794 -0.0134  0.5378  0.1647
   66MOL0     C 8801  11.145   9.517   1.797 -0.4169 -0.8429  0.4489
   66MOL0     C 8802  11.119   9.652   1.845  0.5114  0.1423 -0.1250
   66MOL0     C 8803  10.986   9.694   1.826  0.5895  0.0599  0.4446
   66MOL0     C 8804  11.226   9.733   1.889 -0.1161 -0.5729 -0.0323
   66MOL0     C 8805  11.202   9.860   1.948 -0.1632 -0.6962  0.1843
   66MOL0     O 8806  11.079   9.911   1.968 -0.2015  0.1406 -0.7267
   66MOL0     C 8807  11.063  10.023   2.047 -0.0525 -0.6872 -0.2844
   66MOL0     C 8808  11.111  10.152   2.006  0.2401  0.0630 -0.8071
   66MOL0     C 8809  11.095  10.257   2.093 -0.2387 -0.6955 -0.4338
   66MOL0     C 8810  11.026  10.236   2.211  0.4191 -0.6514 -0.0730
   66MOL0     O 8811  10.998  10.332   2.305 -0.1564  0.0114  0.9203
   66MOL0     C 8812  11.017  10.471   2.272 -0.0251  1.1359 -1.3380
   66MOL0     C 8813  10.882  10.536   2.253 -0.2393  0.4747 -0.1141
   66MOL0     C 8814  10.807  10.486   2.123 -0.7777  0.1976  0.2927
   66MOL0     C 8815  10.735  10.596   2.039  0.1428 -0.7316 -0.4052
   66MOL0     C 8816  10.603  10.534   1.976 -0.4070  0.2629  0.6483
   66MOL0     C 8817  10.633  10.420   1.873  0.5865 -0.1116  0.1095
   66MOL0     C 8818  10.521  10.384   1.778  0.0795 -0.2808  0.4010
   66MOL0     C 8819  10.496  10.481   1.667 -0.8268 -0.0636  0.1931
   66MOL0    Cl 8820  10.637  10.487   1.545 -0.7026 -0.0087  0.4368
   66MOL0     C 8821  10.973  10.116   2.245  0.3324  0.2800 -0.3281
   66MOL0     C 8822  10.996  10.006   2.166 -0.1060 -0.0348 -0.2609
   66MOL0     O 8823  11.300   9.925   1.975  0.1079 -0.4444 -0.6395
   66MOL0     C 8824  11.356   9.677   1.890  0.4662  0.0132  0.2590
   66MOL0     C 8825  11.383   9.541   1.845 -0.1030 -0.3307  0.2304
   66MOL0     N 8826  11.179   8.828   1.948  0.4270  0.2467 -0.1985
   66MOL0     N 8827  11.067   8.790   1.888  0.0425 -0.5487 -0.7441
   66MOL0     C 8828  10.286   7.946   2.414 -0.3833  0.1395  0.4911
   66MOL0     C 8829  10.246   7.860   2.519 -0.7741  0.5680 -0.5160
   66MOL0     C 8830  10.228   7.682   2.966  0.0160 -0.3935 -1.3255
   66MOL0     C 8831  10.285   7.640   3.092  0.2127  0.4522  0.4055
   66MOL0     C 8832  10.221   7.552   3.178 -0.0385  0.4282 -0.8593
   66MOL0     C 8833  10.108   7.478   3.130  0.4576  0.1681  0.0845
   66MOL0     O 8834  10.039   7.379   3.197 -0.9380  0.2638  0.1752
   66MOL0     C 8835  10.074   7.349   3.339  0.1144  0.2279 -0.0901
   66MOL0     C 8836   9.981   7.246   3.401  0.3886  0.2820 -0.3705
   66MOL0     C 8837   9.858   7.299   3.446 -0.0042 -1.0241  0.5787
   66MOL0     C 8838   9.769   7.194   3.497 -0.2423  0.2414  0.5068
   66MOL0     C 8839   9.827   7.122   3.614 -0.6547  0.6628 -0.0345
   66MOL0     C 8840   9.894   7.070   3.701  1.0996  0.6247  0.9511
   66MOL0     C 8841  10.045   7.515   3.011 -1.0043  1.0631  0.6593
   66MOL0     C 8842  10.110   7.622   2.933  0.2857 -0.0649  1.2984
   66MOL0     H 8843  10.393   8.014   2.770  0.0459 -2.6043  0.3503
   66MOL0     H 8844  10.516   8.136   2.576  1.3084  0.7191 -1.9999
   66MOL0     H 8845  10.362   8.287   2.341 -0.3903  0.7254 -3.2310
   66MOL0     H 8846  10.516   8.269   2.406  0.1389 -0.3668 -0.0225
   66MOL0     H 8847  10.620   8.241   2.179 -0.5954 -2.3982 -1.3464
   66MOL0     H 8848  10.462   8.272   2.106  2.0064 -2.7602 -0.1154
   66MOL0     H 8849  10.462   8.500   2.197 -0.0917 -0.4177 -0.9256
   66MOL0     H 8850  10.607   8.455   2.290  1.2483  0.2285  0.0064
   66MOL0     H 8851  10.741   8.428   2.110  0.9276 -0.8994 -1.1516
   66MOL0     H 8852  10.601   8.459   1.995  0.7292 -1.6467  0.9626
   66MOL0     H 8853  10.564   8.669   2.102 -0.9452 -2.5486  1.7988
   66MOL0     H 8854  10.711   8.659   2.201 -0.9968 -2.0656  1.0702
   66MOL0     H 8855  10.854   8.657   1.984  0.5978  0.6316 -1.5462
   66MOL0     H 8856  10.716   8.662   1.885  1.5601 -1.9668  0.1984
   66MOL0     H 8857  10.641   8.886   1.939  0.0465  0.8123  0.5785
   66MOL0     H 8858  10.777   8.901   2.060  1.0869  4.3596 -2.3047
   66MOL0     H 8859  10.798   9.004   1.837 -0.0261  1.0885  0.2058
   66MOL0     H 8860  10.823   8.860   1.760  3.0000  1.0315 -1.2398
   66MOL0     H 8861  10.994   9.096   2.016  0.0433 -0.9279  2.7665
   66MOL0     H 8862  11.222   9.106   2.137  2.5890  0.5948  0.7343
   66MOL0     H 8863  11.299   8.946   2.137  1.6424  0.8898 -0.1848
   66MOL0     H 8864  11.411   9.010   1.938 -2.8648 -0.0202 -3.2552
   66MOL0     H 8865  11.430   9.132   2.056 -0.7570 -0.0997  1.0415
   66MOL0     H 8866  11.244   9.272   1.952 -0.3960 -0.8044  1.2643
   66MOL0     H 8867  11.203   9.145   1.841 -0.8442  0.1459  0.1543
   66MOL0     H 8868  11.398   9.168   1.712 -2.8608 -0.1015  0.0716
   66MOL0     H 8869  11.474   9.282   1.820 -1.1681  0.9515  1.2367
   66MOL0     H 8870  11.073   9.443   1.766  1.1489 -3.0256  1.7368
   66MOL0     H 8871  10.930   9.718   1.917  0.4917 -0.3180  0.4862
   66MOL0     H 8872  10.985   9.783   1.763 -1.9352 -0.5713 -0.5247
   66MOL0     H 8873  10.923   9.626   1.769 -0.9704  1.9809 -0.2484
   66MOL0     H 8874  11.154  10.177   1.910 -2.4935  0.4578 -2.0068
   66MOL0     H 8875  11.142  10.348   2.057  1.2789 -1.5898 -0.7778
   66MOL0     H 8876  11.071  10.524   2.350 -0.3291  1.1542 -1.1375
   66MOL0     H 8877  11.069  10.491   2.177  0.8844 -1.9108 -1.5736
   66MOL0     H 8878  10.819  10.516   2.340  1.2885  1.1200  1.1719
   66MOL0     H 8879  10.895  10.644   2.258  0.6075  0.3332  1.4336
   66MOL0     H 8880  10.736  10.412   2.161 -1.0776  0.7989  0.9456
   66MOL0     H 8881  10.869  10.432   2.052 -2.2172 -1.2032  0.0368
   66MOL0     H 8882  10.714  10.680   2.106 -2.5614 -2.3364  0.9080
   66MOL0     H 8883  10.796  10.642   1.960 -1.4935 -3.1427 -3.3035
   66MOL0     H 8884  10.549  10.616   1.927 -1.0810 -0.3646  0.3113
   66MOL0     H 8885  10.534  10.498   2.054  0.6990 -0.1655  1.4541
   66MOL0     H 8886  10.714  10.453   1.807  0.8179  1.4647  1.1420
   66MOL0     H 8887  10.666  10.332   1.929  0.0226 -1.0949 -1.0527
   66MOL0     H 8888  10.439  10.360   1.846  1.4305 -1.5155  1.6805
   66MOL0     H 8889  10.560  10.297   1.726  3.6137  1.8888 -0.9947
   66MOL0     H 8890  10.473  10.586   1.690  0.4663  0.2455  0.1166
   66MOL0     H 8891  10.407  10.449   1.610 -1.3056  1.1700  0.2144
   66MOL0     H 8892  10.920  10.107   2.340  0.1422  1.1353 -0.3472
   66MOL0     H 8893  10.976   9.909   2.209  0.9808 -0.3692 -0.4861
   66MOL0     H 8894  11.439   9.738   1.923 -0.0350  0.8415  0.0277
   66MOL0     H 8895  11.483   9.502   1.861 -0.2062 -0.6731  0.0505
   66MOL0     H 8896  10.240   7.954   2.316  1.8090  3.7328 -0.4736
   66MOL0     H 8897  10.179   7.778   2.495  0.4739 -0.7178  0.2878
   66MOL0     H 8898  10.381   7.687   3.113  0.5630  0.9229 -1.9759
   66MOL0     H 8899  10.276   7.531   3.270  0.3265 -2.8907 -1.7054
   66MOL0     H 8900  10.180   7.322   3.351  0.7036  2.2223 -0.4822
   66MOL0     H 8901  10.063   7.440   3.399  1.0386 -0.9307  1.9648
   66MOL0     H 8902  10.041   7.195   3.476  2.0233 -0.7825 -2.2879
   66MOL0     H 8903   9.968   7.164   3.330  0.9112 -1.4576  1.4570
   66MOL0     H 8904   9.805   7.346   3.363  1.4288 -1.8574 -0.8662
   66MOL0     H 8905   9.864   7.375   3.524 -1.2817  1.1060 -1.2683
   66MOL0     H 8906   9.742   7.129   3.413 -1.6555 -0.3917  1.4264
   66MOL0     H 8907   9.677   7.238   3.536 -1.4284  0.0786 -1.9314
   66MOL0     H 8908   9.961   7.012   3.761 -0.4717  0.3580  2.5177
   66MOL0     H 8909   9.959   7.463   2.971 -1.8373  3.1764 -0.4712
   66MOL0     H 8910  10.062   7.667   2.847 -2.4537 -1.9847  1.6664
   67MOL0     O 8911   4.878   3.204   2.367  0.0872 -0.1278 -0.7885
   67MOL0     C 8912   4.839   3.267   2.272  0.1788 -1.6008  1.1184
   67MOL0     O 8913   4.911   3.364   2.209  0.7100 -0.2560  0.5162
   67MOL0     C 8914   5.041   3.386   2.237  0.3504 -0.3182  0.8175
   67MOL0     C 8915   5.138   3.298   2.284  0.2847  0.0234  0.0939
   67MOL0     C 8916   5.256   3.353   2.334 -0.6132 -0.0256 -1.1324
   67MOL0     C 8917   5.282   3.491   2.324 -0.6710  0.0846  0.4072
   67MOL0     O 8918   5.398   3.541   2.375 -0.3551 -0.4684 -0.1852
   67MOL0     C 8919   5.522   3.477   2.350 -1.0296  0.6105 -0.5554
   67MOL0     C 8920   5.640   3.579   2.385  0.3226  1.4128 -0.4908
   67MOL0     C 8921   5.607   3.730   2.357 -0.4395  0.0914 -0.2053
   67MOL0     C 8922   5.590   3.749   2.197 -0.1263 -0.1764  0.2845
   67MOL0     C 8923   5.569   3.896   2.173  0.4176 -0.4541  0.3783
   67MOL0     C 8924   5.560   3.923   2.021 -0.6534 -0.1190  0.4243
   67MOL0     C 8925   5.515   4.066   1.995 -0.6475  0.5637 -0.4787
   67MOL0     C 8926   5.474   4.097   1.854 -0.4468 -0.7260 -1.0051
   67MOL0     N 8927   5.386   4.212   1.839  0.4352 -0.2427  0.7866
   67MOL0     C 8928   5.364   4.306   1.939  0.9222 -0.3492 -0.3952
   67MOL0     C 8929   5.251   4.384   1.893 -0.6921 -0.0409  1.0414
   67MOL0     C 8930   5.181   4.488   1.970 -0.5144  0.2405  0.0840
   67MOL0     C 8931   5.183   4.468   2.123  0.3992  0.0909 -0.0861
   67MOL0     C 8932   5.092   4.349   2.165  0.0698 -0.9544 -0.3360
   67MOL0     C 8933   5.039   4.348   2.307 -0.4474 -0.3276 -0.0934
   67MOL0     O 8934   4.913   4.277   2.303 -0.3605 -1.3108  0.8803
   67MOL0     C 8935   4.869   4.225   2.425 -0.4242 -0.1066  0.7046
   67MOL0     C 8936   4.891   4.281   2.553 -0.1690  0.8007  0.7302
   67MOL0     C 8937   4.854   4.218   2.672 -0.2410  0.0853  0.2807
   67MOL0     C 8938   4.905   4.271   2.798  0.4723 -0.2489  0.6561
   67MOL0     C 8939   4.758   4.107   2.660 -0.6024  0.4438  0.1698
   67MOL0     C 8940   4.723   4.031   2.784  0.5965  0.1969  0.8439
   67MOL0     O 8941   4.703   3.894   2.763  0.2312  0.7414  0.3051
   67MOL0     C 8942   4.704   3.796   2.864  0.0075 -0.9295  0.0935
   67MOL0     C 8943   4.765   3.813   2.987  0.7661 -0.5680  0.0721
   67MOL0     C 8944   4.769   3.719   3.092  0.6485  0.3490  0.8563
   67MOL0     C 8945   4.707   3.597   3.070 -0.4186  0.2336  0.3381
   67MOL0     O 8946   4.689   3.514   3.179 -0.3795  0.2249  0.1039
   67MOL0     C 8947   4.564   3.448   3.195 -0.2207  0.1375 -0.8307
   67MOL0     C 8948   4.535   3.417   3.347 -0.2138  0.3864  0.1059
   67MOL0     C 8949   4.508   3.556   3.426 -0.1571 -0.4546  0.3781
   67MOL0     C 8950   4.460   3.541   3.573 -1.0632  0.2552 -0.4202
   67MOL0     C 8951   4.570   3.472   3.657 -0.0538 -0.0826  0.5469
   67MOL0     C 8952   4.532   3.489   3.802 -0.7552 -0.2983 -0.5715
   67MOL0     C 8953   4.635   3.414   3.891 -0.1410 -0.4167  0.0447
   67MOL0     C 8954   4.601   3.437   4.038  0.0615 -0.0005  0.0225
   67MOL0    Cl 8955   4.435   3.398   4.069 -0.0242 -0.2432 -0.0141
   67MOL0     C 8956   4.660   3.562   2.941  0.3332  0.2018 -0.7614
   67MOL0     C 8957   4.653   3.670   2.841 -0.6032  0.0157 -0.1565
   67MOL0     O 8958   4.703   4.095   2.893  0.6592  0.6739  0.8224
   67MOL0     C 8959   4.717   4.071   2.538  0.1987  0.5665  0.3447
   67MOL0     C 8960   4.765   4.132   2.419 -0.2909  0.6852  1.1307
   67MOL0     N 8961   5.227   4.334   1.762 -1.0732  0.0837  0.3049
   67MOL0     N 8962   5.308   4.240   1.741 -0.0330  0.1541 -0.2333
   67MOL0     C 8963   5.178   3.578   2.265 -0.2888  0.1216  0.0008
   67MOL0     C 8964   5.058   3.523   2.221 -0.4260  0.3894 -0.0037
   67MOL0     C 8965   4.719   3.228   2.192  0.2313  0.6556  0.0066
   67MOL0     C 8966   4.614   3.165   2.259  0.3852  0.5774  0.4778
   67MOL0     C 8967   4.493   3.138   2.187 -0.1374  0.3181  0.8681
   67MOL0     C 8968   4.485   3.174   2.046 -0.4918 -1.0508  0.0231
   67MOL0     O 8969   4.390   3.140   1.954 -0.6406  0.6050 -0.7686
   67MOL0     C 8970   4.334   3.011   1.975  0.4293  1.1682 -0.5037
   67MOL0     C 8971   4.232   2.978   1.863  0.0182  0.8683 -0.0866
   67MOL0     C 8972   4.177   2.838   1.873 -0.0441 -0.5364 -0.0119
   67MOL0     C 8973   4.071   2.807   1.774 -0.4598 -0.4675  0.8687
   67MOL0     C 8974   4.101   2.829   1.636  0.5361  0.3470  0.7060
   67MOL0     C 8975   4.128   2.861   1.522 -0.0510 -0.5507 -0.2510
   67MOL0     C 8976   4.584   3.262   1.998  0.6059  0.0391  0.6664
   67MOL0     C 8977   4.698   3.293   2.059  1.3116  0.0993  0.1895
   67MOL0     H 8978   5.115   3.192   2.294 -1.5217  0.5644  3.0041
   67MOL0     H 8979   5.309   3.280   2.395 -1.4286  0.8563  0.7190
   67MOL0     H 8980   5.534   3.390   2.416 -1.4843  3.1921  3.2595
   67MOL0     H 8981   5.527   3.461   2.242 -1.6919 -2.1455 -0.2551
   67MOL0     H 8982   5.655   3.573   2.494 -1.1632 -1.3249 -0.3429
   67MOL0     H 8983   5.736   3.545   2.346 -0.1611 -1.4859  0.6340
   67MOL0     H 8984   5.511   3.749   2.406 -0.5783 -1.6107  0.2400
   67MOL0     H 8985   5.680   3.797   2.402 -1.9212  2.1064 -0.6483
   67MOL0     H 8986   5.675   3.716   2.137 -2.8452 -1.5355 -3.1107
   67MOL0     H 8987   5.507   3.687   2.162 -2.1617  0.7618  3.0240
   67MOL0     H 8988   5.469   3.923   2.209 -0.0437 -0.4123 -0.8830
   67MOL0     H 8989   5.650   3.948   2.225 -0.0752 -1.3579  2.1520
   67MOL0     H 8990   5.650   3.908   1.959 -1.0304  2.8594 -0.9887
   67MOL0     H 8991   5.483   3.857   1.980 -3.0886  1.0057  2.9520
   67MOL0     H 8992   5.423   4.089   2.050 -0.6591  0.2166 -0.3511
   67MOL0     H 8993   5.601   4.130   2.017  0.2454 -0.4584 -0.9327
   67MOL0     H 8994   5.434   4.015   1.794  1.2695 -0.8486 -2.0610
   67MOL0     H 8995   5.574   4.120   1.815 -0.7396  1.3348 -0.6761
   67MOL0     H 8996   5.422   4.303   2.031  2.0020 -0.4944 -1.0677
   67MOL0     H 8997   5.234   4.581   1.950  1.0173 -0.6995 -0.4010
   67MOL0     H 8998   5.075   4.488   1.941  0.2194 -0.4651 -2.9408
   67MOL0     H 8999   5.146   4.564   2.160  0.5591  0.7178 -1.5189
   67MOL0     H 9000   5.281   4.455   2.171 -1.0204 -1.3790  2.6952
   67MOL0     H 9001   5.150   4.257   2.156 -0.6967 -1.6470  1.3651
   67MOL0     H 9002   5.003   4.341   2.102  0.1382  0.6244 -0.6867
   67MOL0     H 9003   5.023   4.448   2.349  1.0787  0.2993 -0.9119
   67MOL0     H 9004   5.106   4.304   2.380 -2.1639 -0.3061  1.5740
   67MOL0     H 9005   4.956   4.369   2.555 -1.8059  2.0709 -0.0056
   67MOL0     H 9006   4.997   4.328   2.781  1.2788 -1.0741  2.0860
   67MOL0     H 9007   4.820   4.329   2.836 -0.4910 -0.2987 -1.2878
   67MOL0     H 9008   4.920   4.187   2.867 -0.9000 -0.9533  0.1378
   67MOL0     H 9009   4.810   3.909   3.011 -2.7589  0.3054  4.5599
   67MOL0     H 9010   4.811   3.734   3.191  3.1821 -2.0060  0.2281
   67MOL0     H 9011   4.485   3.505   3.146 -1.0206 -0.6496 -0.4814
   67MOL0     H 9012   4.580   3.356   3.137 -0.3703 -0.9067  0.7179
   67MOL0     H 9013   4.443   3.359   3.356 -1.1242  1.5039 -1.5265
   67MOL0     H 9014   4.622   3.377   3.401 -0.6874  2.5843  2.7131
   67MOL0     H 9015   4.430   3.609   3.371  0.7996 -0.8921 -1.4824
   67MOL0     H 9016   4.588   3.630   3.417 -0.9284  0.2104 -1.5363
   67MOL0     H 9017   4.437   3.634   3.626  1.8809 -1.9181  5.7161
   67MOL0     H 9018   4.370   3.479   3.582 -0.8014  0.1247  2.3420
   67MOL0     H 9019   4.668   3.519   3.644 -0.1052 -0.2607 -0.5949
   67MOL0     H 9020   4.565   3.367   3.627  0.3149  0.3836 -1.2884
   67MOL0     H 9021   4.537   3.592   3.838 -0.7631 -0.9776  1.4884
   67MOL0     H 9022   4.431   3.451   3.818 -2.3478  3.5136 -0.5459
   67MOL0     H 9023   4.736   3.455   3.883 -1.0883  3.1376  3.4261
   67MOL0     H 9024   4.632   3.308   3.866 -2.2914 -0.7598  1.4837
   67MOL0     H 9025   4.618   3.539   4.075 -1.0213  0.0289  0.4684
   67MOL0     H 9026   4.662   3.365   4.092  2.5603  0.9941 -1.3160
   67MOL0     H 9027   4.622   3.463   2.919 -0.6184  0.8844 -2.3640
   67MOL0     H 9028   4.611   3.647   2.743 -1.0483 -1.1041  0.2733
   67MOL0     H 9029   4.639   3.996   2.530  0.7487 -0.0576  0.7037
   67MOL0     H 9030   4.732   4.103   2.320 -2.2252  3.4938  0.8273
   67MOL0     H 9031   5.191   3.685   2.249  1.0528 -0.3064 -2.1627
   67MOL0     H 9032   4.983   3.596   2.194 -0.8658  0.9547  2.4785
   67MOL0     H 9033   4.627   3.131   2.361  2.7743  2.2329  0.8054
   67MOL0     H 9034   4.411   3.082   2.231 -1.0887  0.0961 -1.0505
   67MOL0     H 9035   4.408   2.931   1.983 -2.5229 -1.7112  0.8202
   67MOL0     H 9036   4.285   3.007   2.073  3.0068  0.3711  0.8499
   67MOL0     H 9037   4.275   2.992   1.764  0.2912 -0.3329 -0.1477
   67MOL0     H 9038   4.148   3.048   1.873 -0.7371  0.0589 -0.5797
   67MOL0     H 9039   4.119   2.838   1.966 -2.9322  1.4059 -1.6662
   67MOL0     H 9040   4.255   2.762   1.884  1.7323  1.2250  0.0634
   67MOL0     H 9041   3.994   2.879   1.802 -2.6910 -1.8418 -1.3305
   67MOL0     H 9042   4.044   2.703   1.795 -0.4360 -0.4159  1.1522
   67MOL0     H 9043   4.145   2.911   1.428 -2.4480  4.1366  1.4963
   67MOL0     H 9044   4.559   3.294   1.897  0.9387  0.3553  0.6828
   67MOL0     H 9045   4.763   3.375   2.030  1.3393  0.8961  2.3159
   68MOL0     O 9046   2.588  11.136  10.100  0.5878  0.1756 -0.4319
   68MOL0     C 9047   2.533  11.094  10.204 -0.3160  0.0013 -0.4294
   68MOL0     O 9048   2.415  11.022  10.206  0.2855 -0.0856 -0.4446
   68MOL0     C 9049   2.331  11.005  10.087  0.3881 -0.2685  0.5169
   68MOL0     C 9050   2.235  10.896  10.086  0.5402  0.1856 -0.4086
   68MOL0     C 9051   2.158  10.862   9.974 -0.1612 -0.4134  0.2783
   68MOL0     C 9052   2.155  10.944   9.863  0.8126  0.0021  1.0529
   68MOL0     O 9053   2.086  10.921   9.747 -0.7110  1.2252 -0.2220
   68MOL0     C 9054   1.960  10.846   9.758  0.4818  1.4588 -0.4515
   68MOL0     C 9055   1.863  10.884   9.649 -0.4609 -0.1265 -0.3048
   68MOL0     C 9056   1.722  10.824   9.675 -0.6796 -0.1923 -0.9087
   68MOL0     C 9057   1.715  10.671   9.666 -1.5301 -0.2709 -0.3736
   68MOL0     C 9058   1.785  10.609   9.540  0.7244 -0.0680  0.4442
   68MOL0     C 9059   1.760  10.454   9.535 -0.4038  0.1714  0.6790
   68MOL0     C 9060   1.822  10.399   9.400 -0.9193  0.2770 -0.1834
   68MOL0     C 9061   1.765  10.453   9.267  0.7235  0.3240 -0.1042
   68MOL0     N 9062   1.788  10.372   9.148 -0.6165  0.2991  0.9113
   68MOL0     C 9063   1.716  10.272   9.086  0.9123  0.5291  0.1681
   68MOL0     C 9064   1.771  10.247   8.964  0.3499 -0.8197  0.0281
   68MOL0     C 9065   1.722  10.150   8.856 -0.6579 -0.3646 -0.2246
   68MOL0     C 9066   1.850  10.082   8.796 -0.0552 -0.0933 -0.4493
   68MOL0     C 9067   1.811   9.941   8.742 -0.9405  0.5517 -0.6902
   68MOL0     C 9068   1.755   9.946   8.603  0.2126 -0.0859  0.9399
   68MOL0     O 9069   1.844  10.027   8.523  0.7804  0.5976 -0.0706
   68MOL0     C 9070   1.942   9.963   8.451 -0.9939 -0.1742 -0.6750
   68MOL0     C 9071   2.031  10.054   8.393  0.3324  0.5732 -0.6224
   68MOL0     C 9072   2.146  10.013   8.328 -0.7943 -0.4287 -0.4666
   68MOL0     C 9073   2.242  10.115   8.282 -0.3976 -0.5377 -0.3022
   68MOL0     C 9074   2.158   9.877   8.284 -0.2545 -0.0945 -0.0068
   68MOL0     C 9075   2.256   9.832   8.180  0.9950  0.5098 -0.1310
   68MOL0     O 9076   2.232   9.707   8.136 -0.5193  0.6334 -0.1225
   68MOL0     C 9077   2.342   9.654   8.073 -0.6572  0.4194  0.2896
   68MOL0     C 9078   2.326   9.610   7.941 -0.3982  0.2089 -0.2290
   68MOL0     C 9079   2.433   9.563   7.872 -0.7298  0.5444 -0.3297
   68MOL0     C 9080   2.563   9.553   7.928  0.0524  0.2263 -0.1214
   68MOL0     O 9081   2.658   9.509   7.840  0.3157 -0.7631  0.0416
   68MOL0     C 9082   2.788   9.487   7.904 -0.5861  0.1630 -0.5602
   68MOL0     C 9083   2.872   9.424   7.796 -0.1259 -0.6212  1.3548
   68MOL0     C 9084   2.924   9.536   7.696 -0.3159 -0.6390  0.1158
   68MOL0     C 9085   3.036   9.482   7.610  0.8794 -0.0014 -0.5821
   68MOL0     C 9086   3.017   9.510   7.458 -0.1156 -0.6192  0.0751
   68MOL0     C 9087   3.044   9.661   7.427  0.3621 -0.1786 -0.6470
   68MOL0     C 9088   3.056   9.675   7.282 -0.4156 -0.2115  0.2174
   68MOL0     C 9089   3.085   9.819   7.231  0.0174  0.5703 -0.1353
   68MOL0    Cl 9090   2.957   9.932   7.275  0.5216 -0.7056 -0.4954
   68MOL0     C 9091   2.584   9.596   8.061 -0.4260 -0.3012  0.1390
   68MOL0     C 9092   2.476   9.649   8.138  0.2531  0.5012  0.3565
   68MOL0     O 9093   2.318   9.910   8.118 -0.5996 -0.8912 -0.1181
   68MOL0     C 9094   2.061   9.788   8.344  0.2320  0.7240  0.8504
   68MOL0     C 9095   1.953   9.827   8.420  0.4708  0.6318 -0.9787
   68MOL0     N 9096   1.886  10.326   8.961 -0.2693  0.1364 -0.1707
   68MOL0     N 9097   1.889  10.399   9.063  0.0356 -1.0168 -0.8503
   68MOL0     C 9098   2.246  11.046   9.851 -0.4352 -0.4007 -0.1880
   68MOL0     C 9099   2.338  11.069   9.956 -0.1661 -0.4487 -1.7759
   68MOL0     C 9100   2.602  11.118  10.340 -0.2091 -0.3406 -0.3016
   68MOL0     C 9101   2.728  11.184  10.364 -0.7461 -0.1181  0.1869
   68MOL0     C 9102   2.781  11.196  10.493  0.3247 -0.0793 -0.6354
   68MOL0     C 9103   2.708  11.154  10.607 -0.3779 -0.3186  0.1027
   68MOL0     O 9104   2.759  11.154  10.740 -0.0677  0.8000 -0.4853
   68MOL0     C 9105   2.890  11.197  10.772 -0.0574 -0.8064  0.4639
   68MOL0     C 9106   2.986  11.093  10.713 -0.3450  0.4007  0.0377
   68MOL0     C 9107   2.940  10.952  10.734 -0.4757 -0.4859 -0.9941
   68MOL0     C 9108   2.959  10.914  10.882 -0.1652 -0.4483  0.0396
   68MOL0     C 9109   3.092  10.877  10.929  0.1949 -0.1266 -0.0475
   68MOL0     C 9110   3.209  10.874  10.954  0.0797 -0.2115 -0.0051
   68MOL0     C 9111   2.585  11.087  10.583 -0.1069 -0.5957  0.0200
   68MOL0     C 9112   2.529  11.070  10.455 -0.7310  0.3214  0.1972
   68MOL0     H 9113   2.228  10.814  10.156 -2.2974 -3.5033 -4.4583
   68MOL0     H 9114   2.111  10.765   9.968 -1.6581  0.3357 -0.8349
   68MOL0     H 9115   1.970  10.737   9.754 -1.6119  1.1003  1.7260
   68MOL0     H 9116   1.911  10.855   9.855 -0.5593  0.4928 -0.8582
   68MOL0     H 9117   1.870  10.992   9.668  0.3910 -0.3846  0.9414
   68MOL0     H 9118   1.888  10.871   9.543  0.1832  1.0593 -0.3133
   68MOL0     H 9119   1.682  10.857   9.771 -0.4266  1.4603 -1.3443
   68MOL0     H 9120   1.646  10.867   9.610 -1.7708  0.1699  0.5744
   68MOL0     H 9121   1.769  10.636   9.755 -1.3557  1.6898  0.3357
   68MOL0     H 9122   1.611  10.638   9.666 -2.7379  3.1528 -0.9726
   68MOL0     H 9123   1.737  10.665   9.459 -0.7565 -1.2481  0.4738
   68MOL0     H 9124   1.893  10.620   9.522  0.5162 -0.8671 -1.5507
   68MOL0     H 9125   1.811  10.400   9.614  0.4226  0.8723  0.6435
   68MOL0     H 9126   1.650  10.448   9.537 -0.5231  1.5580 -0.0174
   68MOL0     H 9127   1.930  10.410   9.403 -0.9482  0.7041 -0.6992
   68MOL0     H 9128   1.810  10.290   9.405 -1.2933  0.2301 -1.6856
   68MOL0     H 9129   1.805  10.554   9.258 -0.0125  0.8063  1.7934
   68MOL0     H 9130   1.659  10.453   9.291  0.3685 -4.0993 -0.6701
   68MOL0     H 9131   1.624  10.230   9.126  0.2691 -0.7077 -2.4335
   68MOL0     H 9132   1.653  10.074   8.897 -1.6568 -0.8397 -2.6374
   68MOL0     H 9133   1.676  10.208   8.776  0.5359  1.4864  0.3781
   68MOL0     H 9134   1.911  10.050   8.880  0.3906  2.6249  0.3754
   68MOL0     H 9135   1.907  10.143   8.726 -1.5689  0.7946 -0.9789
   68MOL0     H 9136   1.733   9.899   8.807 -0.4334  3.9879  2.4321
   68MOL0     H 9137   1.895   9.871   8.751 -1.5726 -0.2310 -0.6989
   68MOL0     H 9138   1.657   9.994   8.599 -0.9019 -1.8035  4.1688
   68MOL0     H 9139   1.729   9.845   8.571  1.8432 -1.1111  2.6716
   68MOL0     H 9140   2.019  10.161   8.408  0.4050  0.8695 -2.4606
   68MOL0     H 9141   2.349  10.097   8.289 -0.2647  0.2514 -0.2331
   68MOL0     H 9142   2.224  10.125   8.174  2.3272 -1.2485 -0.8893
   68MOL0     H 9143   2.236  10.212   8.331  1.4879 -1.5153  2.0566
   68MOL0     H 9144   2.234   9.628   7.886 -1.1423  0.2196  0.9833
   68MOL0     H 9145   2.425   9.547   7.765 -2.1430 -1.4042  0.0095
   68MOL0     H 9146   2.849   9.570   7.939  2.8370 -2.0338 -0.8381
   68MOL0     H 9147   2.774   9.419   7.988 -2.5571 -2.3141 -2.6866
   68MOL0     H 9148   2.955   9.368   7.840  0.6891  2.0857  3.5662
   68MOL0     H 9149   2.809   9.352   7.744 -0.1489  0.2734  0.0995
   68MOL0     H 9150   2.949   9.623   7.758 -0.2080 -2.9426  3.6018
   68MOL0     H 9151   2.842   9.564   7.630  0.1439  1.8603  0.5089
   68MOL0     H 9152   3.131   9.526   7.641 -0.6571  2.6527  0.7519
   68MOL0     H 9153   3.042   9.374   7.625  0.1896 -0.0935 -0.9132
   68MOL0     H 9154   2.919   9.480   7.421 -0.3526  1.6566 -1.3125
   68MOL0     H 9155   3.083   9.441   7.405  2.5170  1.4739  0.4243
   68MOL0     H 9156   2.966   9.728   7.465 -1.0335 -1.9065 -0.3222
   68MOL0     H 9157   3.132   9.690   7.485 -0.2575  0.3141  0.0728
   68MOL0     H 9158   2.958   9.665   7.235  0.3464  3.6642 -2.7430
   68MOL0     H 9159   3.123   9.598   7.244 -0.3246 -0.1183  0.1858
   68MOL0     H 9160   3.096   9.817   7.122  2.6227 -1.2014  0.0615
   68MOL0     H 9161   3.181   9.849   7.274 -0.5785  1.0063  0.9406
   68MOL0     H 9162   2.684   9.588   8.102  0.0040  1.5853 -0.4554
   68MOL0     H 9163   2.474   9.678   8.243 -1.2984  2.7598 -0.2315
   68MOL0     H 9164   2.072   9.683   8.320  0.8264  0.9044  0.2799
   68MOL0     H 9165   1.877   9.756   8.452 -1.0481  1.7442 -1.9553
   68MOL0     H 9166   2.258  11.120   9.773 -0.5812  0.6815  0.7764
   68MOL0     H 9167   2.408  11.150   9.939  4.4001 -2.6735  3.3004
   68MOL0     H 9168   2.782  11.223  10.278  1.0053  1.6776  1.9815
   68MOL0     H 9169   2.883  11.233  10.494  1.3309 -2.6489  1.0234
   68MOL0     H 9170   2.914  11.297  10.734 -2.5122 -1.2869 -2.8005
   68MOL0     H 9171   2.903  11.202  10.881  2.7670  0.3207  0.1522
   68MOL0     H 9172   3.079  11.101  10.770 -1.0683 -3.2915  2.0087
   68MOL0     H 9173   3.001  11.105  10.605 -0.8190 -2.3438 -0.3938
   68MOL0     H 9174   3.002  10.889  10.669  0.5122  0.5538 -1.0798
   68MOL0     H 9175   2.835  10.946  10.703 -0.4515 -2.4633 -0.8235
   68MOL0     H 9176   2.906  10.819  10.895  4.8320 -3.6194 -0.1705
   68MOL0     H 9177   2.918  10.984  10.956  0.1864 -1.7167  1.4883
   68MOL0     H 9178   3.314  10.882  10.970  0.3441  3.6674 -2.2619
   68MOL0     H 9179   2.531  11.044  10.667  0.4440 -2.4055 -0.4967
   68MOL0     H 9180   2.431  11.024  10.446  0.0288 -1.2878 -0.2650
   69MOL0     O 9181   9.841   8.269   1.492  0.8864 -1.0421 -0.4537
   69MOL0     C 9182   9.826   8.276   1.615  0.7715  0.5201 -0.3329
   69MOL0     O 9183   9.925   8.310   1.699 -0.8955  0.6181  0.9009
   69MOL0     C 9184  10.045   8.371   1.658  1.2380 -0.3264  0.1152
   69MOL0     C 9185  10.140   8.339   1.564 -0.7846 -0.0401  0.1259
   69MOL0     C 9186  10.255   8.421   1.546 -0.7794 -0.2374 -0.2351
   69MOL0     C 9187  10.270   8.540   1.608 -1.1668  0.3429  0.3152
   69MOL0     O 9188  10.383   8.615   1.592  0.6154 -0.0366  0.2161
   69MOL0     C 9189  10.361   8.733   1.510  0.0226  0.0109 -1.0057
   69MOL0     C 9190  10.375   8.707   1.364  0.5674 -0.9886 -1.2857
   69MOL0     C 9191  10.328   8.813   1.269  0.4605 -0.3308  0.1161
   69MOL0     C 9192  10.329   8.765   1.122 -0.6040  0.0023  0.4200
   69MOL0     C 9193  10.309   8.886   1.030 -0.0569 -0.1093 -0.5418
   69MOL0     C 9194  10.434   8.972   1.023 -0.5337  0.2354  0.1653
   69MOL0     C 9195  10.420   9.092   0.930  0.0728  0.2567 -0.3137
   69MOL0     C 9196  10.524   9.203   0.956 -0.0973 -0.2161  1.4974
   69MOL0     N 9197  10.660   9.148   0.944 -0.0852  0.0144  0.0530
   69MOL0     C 9198  10.739   9.110   1.051  0.1501 -0.1282 -0.1902
   69MOL0     C 9199  10.858   9.077   0.992  0.3548  0.1691 -0.7653
   69MOL0     C 9200  10.966   9.006   1.065  0.4051  0.6606  0.4816
   69MOL0     C 9201  11.029   8.895   0.990  0.3213  0.4651  1.5425
   69MOL0     C 9202  11.136   8.816   1.073 -1.3411  0.4284 -0.3127
   69MOL0     C 9203  11.195   8.705   0.992 -0.1872  1.2024 -0.1063
   69MOL0     O 9204  11.311   8.731   0.913 -0.0753 -0.2023 -0.1832
   69MOL0     C 9205  11.363   8.623   0.853 -0.1182  0.8393 -0.2704
   69MOL0     C 9206  11.496   8.608   0.895  0.2528  0.1201 -0.3137
   69MOL0     C 9207  11.579   8.504   0.861 -0.1919  0.9811  0.3228
   69MOL0     C 9208  11.716   8.508   0.918 -0.5819 -0.1512 -0.8142
   69MOL0     C 9209  11.523   8.396   0.775 -0.0572  0.1317  0.2099
   69MOL0     C 9210  11.593   8.261   0.755 -0.9840  0.1953  0.3716
   69MOL0     O 9211  11.691   8.218   0.835 -0.5326  0.0633  1.1310
   69MOL0     C 9212  11.690   8.080   0.842  0.0748  0.2934 -0.6581
   69MOL0     C 9213  11.810   8.006   0.821 -0.0032 -0.1293  0.5648
   69MOL0     C 9214  11.814   7.870   0.843 -0.1213 -0.3462 -0.1621
   69MOL0     C 9215  11.709   7.797   0.892 -0.2254  0.8826  0.3419
   69MOL0     O 9216  11.721   7.660   0.889  0.1329 -0.5093  0.4782
   69MOL0     C 9217  11.698   7.606   1.021  0.2722  0.3959  0.3262
   69MOL0     C 9218  11.791   7.482   1.053 -0.4399 -0.7254  0.8908
   69MOL0     C 9219  11.932   7.544   1.067  0.0344  0.0132 -0.4600
   69MOL0     C 9220  12.031   7.438   1.092  0.0844  0.7891  0.2094
   69MOL0     C 9221  12.175   7.504   1.074 -0.1529  1.2961  0.0206
   69MOL0     C 9222  12.274   7.398   1.102  0.2675 -1.1182 -0.3340
   69MOL0     C 9223  12.388   7.465   1.183 -0.0345  0.3238 -0.8770
   69MOL0     C 9224  12.496   7.363   1.192  0.1301 -0.7499 -0.6906
   69MOL0    Cl 9225  12.614   7.429   1.305 -0.0367 -0.4369  0.1427
   69MOL0     C 9226  11.594   7.861   0.916 -0.2175 -0.1504  0.4745
   69MOL0     C 9227  11.582   7.997   0.893  0.9948 -0.7493  0.4018
   69MOL0     O 9228  11.530   8.189   0.674  0.2862 -0.0284 -0.9381
   69MOL0     C 9229  11.396   8.415   0.721 -0.1548 -0.3971 -0.6305
   69MOL0     C 9230  11.316   8.520   0.770  0.5873  0.2418  0.5814
   69MOL0     N 9231  10.852   9.118   0.856 -0.6096  0.1364  0.4772
   69MOL0     N 9232  10.730   9.138   0.827  0.0548  0.1395  0.5806
   69MOL0     C 9233  10.166   8.582   1.685  0.9328 -0.1342 -0.0752
   69MOL0     C 9234  10.046   8.502   1.700 -0.2769 -0.0840  0.8868
   69MOL0     C 9235   9.691   8.255   1.673 -0.3783 -0.4494  0.6266
   69MOL0     C 9236   9.668   8.303   1.803  0.6693  0.0783  0.0694
   69MOL0     C 9237   9.539   8.289   1.854  0.3047  0.0337  0.5817
   69MOL0     C 9238   9.430   8.233   1.791  1.4883 -0.8007 -0.1477
   69MOL0     O 9239   9.317   8.223   1.863 -0.1080  0.0014  0.4831
   69MOL0     C 9240   9.208   8.158   1.802 -0.3818  0.2495  0.1261
   69MOL0     C 9241   9.072   8.186   1.872 -0.2456  0.9323 -0.0493
   69MOL0     C 9242   9.030   8.341   1.844 -0.1529  0.9862  0.1732
   69MOL0     C 9243   9.033   8.385   1.710  0.3615 -0.4648  0.4555
   69MOL0     C 9244   8.964   8.516   1.707  1.0845 -0.0245  0.1703
   69MOL0     C 9245   8.896   8.616   1.718  0.1811  0.2212 -0.3935
   69MOL0     C 9246   9.459   8.164   1.664  0.2723 -0.8038 -0.5969
   69MOL0     C 9247   9.578   8.191   1.604  0.3213 -0.2412  0.0926
   69MOL0     H 9248  10.124   8.251   1.503  0.0824 -1.4605  1.8572
   69MOL0     H 9249  10.330   8.391   1.474  0.6261  1.7162  0.3257
   69MOL0     H 9250  10.263   8.780   1.520  1.4420  2.9120  0.7271
   69MOL0     H 9251  10.430   8.814   1.536 -1.1360  0.5970  0.3930
   69MOL0     H 9252  10.473   8.668   1.335  0.2746 -1.4310 -1.7075
   69MOL0     H 9253  10.310   8.622   1.343 -2.2093  0.1802  1.7697
   69MOL0     H 9254  10.228   8.837   1.305  0.3750 -0.7355  0.1620
   69MOL0     H 9255  10.392   8.901   1.276  0.0448  0.1522 -1.7233
   69MOL0     H 9256  10.434   8.737   1.106 -0.0991  1.8196  0.3779
   69MOL0     H 9257  10.272   8.673   1.106  0.8594 -0.6478 -1.5265
   69MOL0     H 9258  10.280   8.855   0.929 -1.8268  0.2191 -0.1734
   69MOL0     H 9259  10.233   8.955   1.069  2.2332  2.6289 -0.5785
   69MOL0     H 9260  10.450   9.018   1.121  1.0524 -1.0321  0.5336
   69MOL0     H 9261  10.521   8.908   1.004  1.2437  2.3398  0.7357
   69MOL0     H 9262  10.415   9.064   0.824  0.9626  0.9192 -0.5488
   69MOL0     H 9263  10.332   9.152   0.951  0.6010 -0.0582  3.5643
   69MOL0     H 9264  10.508   9.251   1.053 -3.0570  1.1588  0.4269
   69MOL0     H 9265  10.512   9.288   0.888  0.7097  1.2044  3.0574
   69MOL0     H 9266  10.721   9.091   1.156  0.7933  1.2909  0.2026
   69MOL0     H 9267  11.038   9.080   1.102  2.3704 -1.3441  0.9083
   69MOL0     H 9268  10.928   8.973   1.163 -1.9474  2.1861  0.1661
   69MOL0     H 9269  11.087   8.920   0.901 -1.0380 -0.4738  0.3418
   69MOL0     H 9270  10.942   8.834   0.965 -0.3342  2.5188 -1.7775
   69MOL0     H 9271  11.091   8.766   1.159  1.2381 -3.7050 -1.0189
   69MOL0     H 9272  11.216   8.883   1.104 -3.5980  1.8638  2.9540
   69MOL0     H 9273  11.124   8.662   0.922 -0.3633  2.8640 -1.0005
   69MOL0     H 9274  11.221   8.635   1.072 -1.6262  1.3782  0.5483
   69MOL0     H 9275  11.524   8.679   0.973 -2.4322 -2.3567  3.2262
   69MOL0     H 9276  11.721   8.482   1.024  4.0772 -2.3496 -1.3518
   69MOL0     H 9277  11.764   8.422   0.870 -1.1849  0.0812 -1.8857
   69MOL0     H 9278  11.773   8.598   0.892 -3.1623  1.4200 -1.3940
   69MOL0     H 9279  11.897   8.061   0.788  0.1303 -1.9299 -2.3673
   69MOL0     H 9280  11.908   7.819   0.828  0.6550  1.2090 -0.7736
   69MOL0     H 9281  11.700   7.682   1.099 -1.7465  1.0877 -0.2282
   69MOL0     H 9282  11.600   7.556   1.020  1.0878 -1.3403 -2.1891
   69MOL0     H 9283  11.753   7.440   1.147 -2.1105  1.6675  1.3889
   69MOL0     H 9284  11.784   7.408   0.973  2.0888  0.8654 -0.9339
   69MOL0     H 9285  11.937   7.614   1.151 -1.4447  0.2607 -0.5474
   69MOL0     H 9286  11.955   7.608   0.981 -0.5604  1.5932  0.4976
   69MOL0     H 9287  12.025   7.395   1.193  1.8650 -1.4496 -0.5354
   69MOL0     H 9288  12.013   7.359   1.019 -0.5273  1.7925 -0.7336
   69MOL0     H 9289  12.190   7.581   1.151 -0.6808 -0.6116  2.1258
   69MOL0     H 9290  12.184   7.547   0.974 -1.1218  1.6429  0.0760
   69MOL0     H 9291  12.228   7.318   1.161 -2.2506  0.0376 -0.6282
   69MOL0     H 9292  12.307   7.362   1.004 -1.1724 -1.1189 -0.8333
   69MOL0     H 9293  12.345   7.497   1.278 -0.6598  0.3011 -1.1471
   69MOL0     H 9294  12.427   7.552   1.129  2.7849 -0.1281  0.2325
   69MOL0     H 9295  12.543   7.342   1.095 -0.5686 -4.6594 -0.3509
   69MOL0     H 9296  12.443   7.271   1.218 -3.1064  1.3118  0.5333
   69MOL0     H 9297  11.510   7.801   0.948 -0.7407 -1.0320 -2.2705
   69MOL0     H 9298  11.493   8.041   0.936  0.9792 -1.9078  1.5862
   69MOL0     H 9299  11.341   8.345   0.659 -2.3295  0.8915 -0.2814
   69MOL0     H 9300  11.221   8.540   0.722  0.8620  3.0108  1.0339
   69MOL0     H 9301  10.169   8.680   1.731 -1.3010  0.4578 -1.0428
   69MOL0     H 9302   9.957   8.542   1.749  0.1988 -1.9678  3.4852
   69MOL0     H 9303   9.742   8.333   1.877 -0.0249 -2.7267  2.0525
   69MOL0     H 9304   9.512   8.322   1.954  2.4393  1.0728  0.8901
   69MOL0     H 9305   9.200   8.193   1.699  1.2203  2.2151  0.5820
   69MOL0     H 9306   9.229   8.051   1.802 -2.2586 -0.2674  3.5010
   69MOL0     H 9307   9.092   8.164   1.977  1.7224  1.6250 -0.2322
   69MOL0     H 9308   8.994   8.125   1.826 -2.1279  0.5608  3.3024
   69MOL0     H 9309   9.091   8.412   1.901 -3.1539  2.6349  1.5709
   69MOL0     H 9310   8.928   8.353   1.880  1.0862  0.8322  4.2224
   69MOL0     H 9311   8.974   8.317   1.647 -1.3831  1.3736  0.0056
   69MOL0     H 9312   9.137   8.393   1.677  0.3439  0.9376  0.6859
   69MOL0     H 9313   8.845   8.710   1.728 -2.3523 -1.1702  0.5407
   69MOL0     H 9314   9.394   8.089   1.618  0.3104 -0.6537 -0.8976
   69MOL0     H 9315   9.594   8.169   1.499  0.5005  2.4566 -0.5231
   70MOL0     O 9316   2.918   0.860   3.268 -0.8133 -0.9657  0.0272
   70MOL0     C 9317   2.895   0.826   3.383  0.1578 -0.5009  0.0301
   70MOL0     O 9318   2.852   0.710   3.423  0.3567 -0.3231 -0.0983
   70MOL0     C 9319   2.792   0.622   3.330 -0.8426 -0.5892  0.1488
   70MOL0     C 9320   2.840   0.491   3.330  1.4040 -0.4911 -0.2907
   70MOL0     C 9321   2.800   0.410   3.222 -0.6595  0.7094  1.3890
   70MOL0     C 9322   2.723   0.446   3.118  0.1383 -0.2718  0.0960
   70MOL0     O 9323   2.676   0.377   3.008 -0.5128 -0.2416 -0.5990
   70MOL0     C 9324   2.695   0.238   3.010  0.0061  0.0572  0.7760
   70MOL0     C 9325   2.655   0.184   2.873 -0.1640  0.2905 -0.3774
   70MOL0     C 9326   2.605   0.037   2.895  1.1429  0.7297 -0.1352
   70MOL0     C 9327   2.700  -0.052   2.827  0.5516 -0.4728 -0.1609
   70MOL0     C 9328   2.641  -0.194   2.817  0.5763 -0.1406 -0.0322
   70MOL0     C 9329   2.513  -0.215   2.729  0.4013 -0.1719 -1.1491
   70MOL0     C 9330   2.486  -0.356   2.679 -0.5890 -0.4209 -0.1621
   70MOL0     C 9331   2.565  -0.409   2.564 -0.5826  0.0442 -0.2645
   70MOL0     N 9332   2.538  -0.541   2.531 -0.5830  0.6227  0.4449
   70MOL0     C 9333   2.453  -0.626   2.602 -0.1009 -0.0561  0.7291
   70MOL0     C 9334   2.498  -0.750   2.579 -0.5148 -0.2729  0.5505
   70MOL0     C 9335   2.428  -0.867   2.653  0.3523  0.0974  0.2454
   70MOL0     C 9336   2.328  -0.936   2.563 -0.1178  1.0409  0.0678
   70MOL0     C 9337   2.385  -1.009   2.440 -1.1624  0.7935  0.9412
   70MOL0     C 9338   2.440  -1.147   2.481 -0.2884  0.0940  0.5803
   70MOL0     O 9339   2.505  -1.199   2.362 -0.6856 -0.1045 -0.3958
   70MOL0     C 9340   2.637  -1.165   2.350 -1.2382 -0.2443  0.4105
   70MOL0     C 9341   2.710  -1.266   2.278 -0.0033 -0.0451  0.4449
   70MOL0     C 9342   2.851  -1.261   2.261  0.3741  0.1261  0.9531
   70MOL0     C 9343   2.914  -1.355   2.168 -0.7062 -0.6070 -0.1204
   70MOL0     C 9344   2.921  -1.161   2.321 -0.4950 -0.5676 -0.1889
   70MOL0     C 9345   3.072  -1.158   2.331  0.1984 -0.0727  0.0662
   70MOL0     O 9346   3.149  -1.274   2.357  0.1464  0.9622  0.2905
   70MOL0     C 9347   3.284  -1.269   2.339  0.0771  0.1876  0.1892
   70MOL0     C 9348   3.348  -1.227   2.226 -0.5792 -0.2506 -0.2942
   70MOL0     C 9349   3.476  -1.261   2.187 -0.5994 -0.0608 -0.6683
   70MOL0     C 9350   3.561  -1.313   2.289 -0.1990  0.1489  0.1014
   70MOL0     O 9351   3.692  -1.333   2.248 -0.5806 -0.3229  0.3220
   70MOL0     C 9352   3.788  -1.250   2.311 -0.1802  0.2972 -1.2571
   70MOL0     C 9353   3.936  -1.267   2.261 -0.7828 -0.1853 -0.1628
   70MOL0     C 9354   4.029  -1.160   2.307 -0.6552 -1.2308 -0.5805
   70MOL0     C 9355   4.176  -1.172   2.277  0.0226 -0.5044 -0.1230
   70MOL0     C 9356   4.230  -1.281   2.356  0.0169 -0.2971 -0.3689
   70MOL0     C 9357   4.381  -1.298   2.355  0.3422 -0.4227 -0.1657
   70MOL0     C 9358   4.436  -1.162   2.409 -0.1844  0.9109 -0.3223
   70MOL0     C 9359   4.577  -1.192   2.438 -0.2711  0.2158  0.3384
   70MOL0    Cl 9360   4.586  -1.312   2.579  0.3786 -0.0331  0.2545
   70MOL0     C 9361   3.502  -1.349   2.410 -0.2245  0.2756 -0.7268
   70MOL0     C 9362   3.362  -1.339   2.427  0.3077 -0.0130 -0.4559
   70MOL0     O 9363   3.116  -1.041   2.338  0.0502  1.2072 -0.1790
   70MOL0     C 9364   2.850  -1.066   2.401 -0.2211  0.5858  0.4589
   70MOL0     C 9365   2.716  -1.070   2.418  0.1476 -1.1877  0.1543
   70MOL0     N 9366   2.598  -0.739   2.481 -0.6338  0.1373  0.2478
   70MOL0     N 9367   2.621  -0.620   2.456  0.4701  0.3644  0.1014
   70MOL0     C 9368   2.660   0.570   3.132 -0.3830 -0.0050  0.6070
   70MOL0     C 9369   2.704   0.663   3.225 -0.0812 -0.4808 -0.0764
   70MOL0     C 9370   2.932   0.921   3.486 -0.2062  0.1448 -0.3639
   70MOL0     C 9371   2.938   0.884   3.628 -0.0096  0.4037  0.3317
   70MOL0     C 9372   2.954   0.982   3.728 -0.9072  0.3867  0.9381
   70MOL0     C 9373   2.968   1.116   3.689  0.3691 -0.0194 -1.0961
   70MOL0     O 9374   2.969   1.213   3.785 -0.1638 -0.3519  0.9007
   70MOL0     C 9375   3.061   1.206   3.900  0.1168 -0.7853 -0.5754
   70MOL0     C 9376   3.126   1.346   3.903 -0.1249 -0.3153  0.3370
   70MOL0     C 9377   3.203   1.366   3.770  0.0570 -0.6800 -0.2171
   70MOL0     C 9378   3.354   1.367   3.794  0.3883  0.1958  0.6777
   70MOL0     C 9379   3.397   1.227   3.807  0.3063 -0.8410  0.2841
   70MOL0     C 9380   3.424   1.106   3.808 -0.0290 -0.2537 -0.1730
   70MOL0     C 9381   2.980   1.151   3.558 -0.3588  0.2688  0.4219
   70MOL0     C 9382   2.950   1.060   3.463  0.9450 -0.1816 -0.0606
   70MOL0     H 9383   2.906   0.453   3.408 -0.1355  0.4135  1.5231
   70MOL0     H 9384   2.829   0.305   3.215 -1.8324  0.4139  0.5560
   70MOL0     H 9385   2.801   0.212   3.018 -0.2087 -1.1744 -0.0782
   70MOL0     H 9386   2.642   0.193   3.096 -2.2461  0.1210 -0.4933
   70MOL0     H 9387   2.576   0.250   2.835 -0.4348  1.5934  2.1978
   70MOL0     H 9388   2.743   0.188   2.809  0.3688 -1.4949  0.2096
   70MOL0     H 9389   2.615   0.008   3.001  2.1167  1.6580  0.0432
   70MOL0     H 9390   2.506   0.025   2.852  1.0484  0.4153  0.1623
   70MOL0     H 9391   2.728  -0.019   2.727  0.1358 -1.3702 -0.5822
   70MOL0     H 9392   2.791  -0.052   2.889 -0.6842  0.6924  1.7861
   70MOL0     H 9393   2.725  -0.250   2.775 -0.1639 -0.6564 -0.8276
   70MOL0     H 9394   2.633  -0.240   2.916 -1.9723  2.9415  1.3682
   70MOL0     H 9395   2.435  -0.178   2.796  3.0210  3.7569  0.0877
   70MOL0     H 9396   2.510  -0.151   2.641  3.0296  1.1123 -0.4025
   70MOL0     H 9397   2.496  -0.437   2.752  1.4085  0.3460  0.4823
   70MOL0     H 9398   2.381  -0.345   2.649 -0.5199  1.6506  0.2388
   70MOL0     H 9399   2.672  -0.396   2.581 -0.3860  0.0221 -1.3980
   70MOL0     H 9400   2.546  -0.344   2.478 -0.2384  2.9444  1.7061
   70MOL0     H 9401   2.383  -0.601   2.681 -0.1920 -0.6019  0.8288
   70MOL0     H 9402   2.507  -0.941   2.669  1.0259  1.0119  1.2387
   70MOL0     H 9403   2.387  -0.838   2.750  0.6133  0.3468  0.2817
   70MOL0     H 9404   2.247  -0.867   2.538  0.7524  2.2289  0.4819
   70MOL0     H 9405   2.279  -1.012   2.625 -1.5667  1.1661 -0.8903
   70MOL0     H 9406   2.467  -0.953   2.393 -3.0225  2.7657 -0.1205
   70MOL0     H 9407   2.304  -1.022   2.367  0.6732  1.4765 -1.3544
   70MOL0     H 9408   2.357  -1.212   2.512  0.4738 -1.1632  0.0629
   70MOL0     H 9409   2.497  -1.153   2.574 -0.7307 -3.3111  0.7533
   70MOL0     H 9410   2.646  -1.344   2.237  1.1703 -0.1543 -1.2946
   70MOL0     H 9411   2.993  -1.313   2.106  0.6840 -1.1291  1.2255
   70MOL0     H 9412   2.954  -1.440   2.224 -0.4133 -0.6834 -0.4468
   70MOL0     H 9413   2.842  -1.398   2.098  0.6463 -3.0949 -0.0918
   70MOL0     H 9414   3.287  -1.186   2.146 -1.3297  2.5530  1.5917
   70MOL0     H 9415   3.505  -1.247   2.083 -2.2757  3.3587 -0.8300
   70MOL0     H 9416   3.761  -1.144   2.308 -2.2034 -0.0415  1.2078
   70MOL0     H 9417   3.791  -1.270   2.418  0.6539 -1.1334 -1.5216
   70MOL0     H 9418   3.969  -1.362   2.305  1.8482 -0.5611 -2.6417
   70MOL0     H 9419   3.941  -1.274   2.152  1.2307 -3.4075 -0.0203
   70MOL0     H 9420   4.006  -1.145   2.413  0.6716  0.6352 -0.5016
   70MOL0     H 9421   3.986  -1.066   2.270  1.2383 -0.0276  0.1674
   70MOL0     H 9422   4.195  -1.188   2.170 -1.5052  0.0990 -0.5096
   70MOL0     H 9423   4.225  -1.076   2.296 -1.7521  0.0966  1.7443
   70MOL0     H 9424   4.183  -1.373   2.320  0.3106 -0.7960  0.4913
   70MOL0     H 9425   4.204  -1.258   2.460  1.9181  0.0252  0.0796
   70MOL0     H 9426   4.411  -1.381   2.419  1.3972  1.2709  1.6312
   70MOL0     H 9427   4.399  -1.316   2.248 -1.4008 -0.2015 -0.5324
   70MOL0     H 9428   4.388  -1.131   2.502 -2.0417 -0.2847 -0.8360
   70MOL0     H 9429   4.430  -1.087   2.330 -1.4647  2.2815  0.9959
   70MOL0     H 9430   4.618  -1.095   2.469  1.9490 -1.0490  1.6185
   70MOL0     H 9431   4.629  -1.235   2.351  1.2987  0.5858  1.0501
   70MOL0     H 9432   3.566  -1.388   2.488  4.1072  2.4487 -2.8516
   70MOL0     H 9433   3.301  -1.381   2.506  3.0218 -3.2811  0.1606
   70MOL0     H 9434   2.906  -0.996   2.461 -1.3179  4.4625 -2.6371
   70MOL0     H 9435   2.662  -0.998   2.479  1.4434 -0.8346  0.9302
   70MOL0     H 9436   2.595   0.605   3.052 -0.7846 -2.6081 -0.2956
   70MOL0     H 9437   2.669   0.766   3.222 -0.0414 -0.3169  2.5245
   70MOL0     H 9438   2.931   0.780   3.658  3.7067  0.3222  1.4698
   70MOL0     H 9439   2.940   0.957   3.833 -1.2239  1.8676  1.2716
   70MOL0     H 9440   3.001   1.186   3.989 -0.4446 -1.0618 -1.0088
   70MOL0     H 9441   3.128   1.119   3.899 -1.9562 -2.5300  1.0615
   70MOL0     H 9442   3.204   1.342   3.979  0.4203 -1.5933 -0.2564
   70MOL0     H 9443   3.066   1.433   3.931  1.4302  0.3639  1.6783
   70MOL0     H 9444   3.176   1.464   3.729 -0.3791  0.6737  2.9627
   70MOL0     H 9445   3.181   1.283   3.703 -0.8826 -0.0742 -0.6805
   70MOL0     H 9446   3.388   1.424   3.881  1.8017 -1.4934  1.2887
   70MOL0     H 9447   3.403   1.409   3.705  0.1574 -1.7807 -0.4317
   70MOL0     H 9448   3.448   1.001   3.807 -1.6096 -0.6572 -1.6143
   70MOL0     H 9449   2.984   1.257   3.537  4.2743  0.0878 -0.6262
   70MOL0     H 9450   2.951   1.076   3.355  0.1027 -2.2628 -0.4353
   71MOL0     O 9451   9.004  10.782   7.695  0.2393 -1.1290  0.2803
   71MOL0     C 9452   9.045  10.698   7.616  0.1206 -0.4511  0.3079
   71MOL0     O 9453   9.147  10.720   7.511  0.3276 -0.7110  0.2103
   71MOL0     C 9454   9.192  10.852   7.482 -0.4129 -0.5605 -0.8354
   71MOL0     C 9455   9.333  10.877   7.444 -0.3703  0.8628 -0.0714
   71MOL0     C 9456   9.381  11.007   7.411 -0.2916 -0.6363  0.2850
   71MOL0     C 9457   9.296  11.120   7.432 -0.7042 -0.3428 -0.0392
   71MOL0     O 9458   9.317  11.249   7.398  0.8634 -0.4130 -0.5540
   71MOL0     C 9459   9.446  11.308   7.418 -0.4744  0.4098 -0.2258
   71MOL0     C 9460   9.460  11.426   7.332  0.9779  1.0360  1.6111
   71MOL0     C 9461   9.583  11.516   7.372  1.1126  1.1894 -0.2565
   71MOL0     C 9462   9.562  11.628   7.475 -0.2774  0.3483  0.4799
   71MOL0     C 9463   9.687  11.722   7.478 -0.0611  0.0982 -0.7621
   71MOL0     C 9464   9.659  11.833   7.584  0.0687 -0.7702  0.6633
   71MOL0     C 9465   9.752  11.958   7.577  0.3615  1.5554 -0.4154
   71MOL0     C 9466   9.736  12.047   7.458 -0.3723  0.6974  0.9843
   71MOL0     N 9467   9.851  12.143   7.435  0.0171 -0.1294  0.3728
   71MOL0     C 9468   9.846  12.279   7.425 -1.0898 -1.0541  0.4807
   71MOL0     C 9469   9.977  12.324   7.425  0.0094 -0.0892 -0.1373
   71MOL0     C 9470  10.015  12.466   7.414 -0.2354  0.3134 -0.7964
   71MOL0     C 9471   9.900  12.568   7.438  0.0135  0.0546 -0.0577
   71MOL0     C 9472   9.833  12.565   7.568  0.0164 -0.2107 -0.5940
   71MOL0     C 9473   9.835  12.708   7.628  0.4833 -0.3624  0.4858
   71MOL0     O 9474   9.780  12.814   7.547  0.1530 -0.0075 -0.4719
   71MOL0     C 9475   9.644  12.836   7.533 -0.6985  0.3785 -0.2904
   71MOL0     C 9476   9.614  12.931   7.434 -0.3500  0.9642  0.1690
   71MOL0     C 9477   9.476  12.957   7.401 -0.2738  0.8728  0.5730
   71MOL0     C 9478   9.445  13.075   7.308  0.0748  0.5669 -0.0392
   71MOL0     C 9479   9.371  12.873   7.455  0.3057 -0.5856  0.6058
   71MOL0     C 9480   9.228  12.874   7.409  0.5359  0.1754  0.3376
   71MOL0     O 9481   9.146  12.820   7.497 -0.3107  0.8733 -0.2433
   71MOL0     C 9482   9.015  12.812   7.453 -0.1036  0.3244 -0.0633
   71MOL0     C 9483   8.919  12.907   7.481 -0.0740 -0.2617  1.3191
   71MOL0     C 9484   8.780  12.876   7.458  0.0186 -0.3475 -0.0266
   71MOL0     C 9485   8.739  12.766   7.398 -0.1867  0.1426 -0.8232
   71MOL0     O 9486   8.604  12.744   7.368 -0.2360 -0.2749  0.0795
   71MOL0     C 9487   8.538  12.822   7.264 -0.2481  0.6402  0.0322
   71MOL0     C 9488   8.390  12.796   7.270  0.3199 -0.1114 -0.1240
   71MOL0     C 9489   8.353  12.658   7.217  0.4612 -1.0912 -0.2059
   71MOL0     C 9490   8.217  12.657   7.147 -0.2384  0.4958 -0.0822
   71MOL0     C 9491   8.189  12.515   7.090 -0.8357 -0.1871  0.7260
   71MOL0     C 9492   8.274  12.488   6.964  0.1273  0.5025 -0.1757
   71MOL0     C 9493   8.282  12.340   6.917 -0.0685 -0.4307  0.6302
   71MOL0     C 9494   8.153  12.260   6.926 -0.3007  0.1611  0.0595
   71MOL0    Cl 9495   8.026  12.339   6.832 -0.2834 -0.1381 -0.2435
   71MOL0     C 9496   8.828  12.674   7.362 -0.4681 -0.3772 -0.3758
   71MOL0     C 9497   8.965  12.692   7.389 -0.3924  0.5073 -0.0325
   71MOL0     O 9498   9.196  12.919   7.300  0.2389  0.1038  0.3992
   71MOL0     C 9499   9.412  12.782   7.560 -0.0107  0.5134  0.3285
   71MOL0     C 9500   9.545  12.770   7.605 -0.1475 -0.3378 -0.1522
   71MOL0     N 9501  10.058  12.211   7.421 -0.1835 -0.3871 -1.0004
   71MOL0     N 9502   9.990  12.100   7.431 -0.7384  0.0798  0.6963
   71MOL0     C 9503   9.160  11.098   7.464 -0.1703 -0.0349 -0.1980
   71MOL0     C 9504   9.114  10.973   7.495  0.2510 -0.6042  0.4288
   71MOL0     C 9505   8.983  10.568   7.617  0.4262  0.4239  0.3710
   71MOL0     C 9506   8.923  10.518   7.735  0.1738 -0.2695 -0.5569
   71MOL0     C 9507   8.870  10.391   7.728 -0.6641 -0.5847 -0.4817
   71MOL0     C 9508   8.867  10.318   7.613  0.0056 -0.1163  0.7885
   71MOL0     O 9509   8.809  10.190   7.598 -0.4270  0.1499  0.4146
   71MOL0     C 9510   8.774  10.114   7.713  0.0276  0.1957  0.0540
   71MOL0     C 9511   8.886  10.064   7.807 -0.5733  0.3222 -0.9795
   71MOL0     C 9512   8.997   9.986   7.715 -0.1878 -0.1024 -0.5262
   71MOL0     C 9513   9.124  10.068   7.687 -0.3642  0.0666 -0.5733
   71MOL0     C 9514   9.206   9.987   7.600 -0.7409 -0.4787 -0.1190
   71MOL0     C 9515   9.287   9.943   7.519  0.1695  0.0194  1.1395
   71MOL0     C 9516   8.909  10.377   7.493  0.2245 -0.3313 -0.4194
   71MOL0     C 9517   8.970  10.500   7.496 -0.0307 -0.3282  0.1906
   71MOL0     H 9518   9.396  10.791   7.422 -1.4888 -0.0086  0.0224
   71MOL0     H 9519   9.485  11.015   7.379 -0.5494 -1.8731 -0.9601
   71MOL0     H 9520   9.460  11.332   7.524 -0.3278  0.0752 -0.1693
   71MOL0     H 9521   9.526  11.239   7.391 -0.7862  0.7457 -2.1602
   71MOL0     H 9522   9.468  11.386   7.230 -0.5493  0.4432  1.6911
   71MOL0     H 9523   9.365  11.480   7.330  1.6031  2.2004  2.2057
   71MOL0     H 9524   9.678  11.466   7.393  2.7083  4.4886  1.1483
   71MOL0     H 9525   9.606  11.565   7.277 -0.0201  5.1152  1.2821
   71MOL0     H 9526   9.476  11.688   7.442 -0.9261 -2.2413 -3.1355
   71MOL0     H 9527   9.532  11.582   7.570  3.8334 -3.3523  0.3025
   71MOL0     H 9528   9.778  11.675   7.517  0.1997  1.2718  0.0933
   71MOL0     H 9529   9.704  11.756   7.376 -0.8045 -1.4041 -1.4048
   71MOL0     H 9530   9.564  11.882   7.564 -0.2004 -1.0908  1.1388
   71MOL0     H 9531   9.657  11.791   7.685 -1.1040 -0.9314  0.5874
   71MOL0     H 9532   9.750  12.020   7.667  1.5913 -0.1392  0.8492
   71MOL0     H 9533   9.855  11.922   7.566  0.9392  3.8263 -3.7343
   71MOL0     H 9534   9.645  12.105   7.474 -0.1625  1.6330 -0.8821
   71MOL0     H 9535   9.732  11.993   7.362  0.7072  1.0268  0.7417
   71MOL0     H 9536   9.761  12.346   7.418  1.5215  2.5736  0.5218
   71MOL0     H 9537  10.089  12.484   7.493  1.0682 -0.1018 -1.8769
   71MOL0     H 9538  10.067  12.479   7.319  0.7688  8.4844  0.2101
   71MOL0     H 9539   9.831  12.562   7.354  4.1030  1.1005 -3.8729
   71MOL0     H 9540   9.945  12.666   7.417  2.3853 -0.4297  2.2626
   71MOL0     H 9541   9.876  12.482   7.625  0.7790 -1.6466 -3.0990
   71MOL0     H 9542   9.733  12.538   7.534  0.8084 -1.2253 -2.3170
   71MOL0     H 9543   9.940  12.721   7.657  0.9621 -3.3521  0.4265
   71MOL0     H 9544   9.778  12.713   7.721 -1.9907 -2.1832 -0.7983
   71MOL0     H 9545   9.696  12.983   7.385  1.2163 -2.3353 -1.0467
   71MOL0     H 9546   9.356  13.131   7.339 -0.0818  1.2198 -1.5840
   71MOL0     H 9547   9.528  13.146   7.311 -1.4542  2.5122 -1.3099
   71MOL0     H 9548   9.438  13.029   7.210  1.1789 -3.5441  1.6061
   71MOL0     H 9549   8.930  12.998   7.541  0.0995 -0.1747  1.1534
   71MOL0     H 9550   8.708  12.951   7.488  0.4902 -0.5000  1.6015
   71MOL0     H 9551   8.553  12.930   7.273  3.0668  0.2641  0.1371
   71MOL0     H 9552   8.579  12.799   7.165 -1.1992 -4.0686  0.4969
   71MOL0     H 9553   8.361  12.814   7.374  0.7218  4.0929 -0.5807
   71MOL0     H 9554   8.330  12.866   7.212  1.0938  2.0398  1.5410
   71MOL0     H 9555   8.357  12.583   7.296 -3.6898 -1.0107  0.2501
   71MOL0     H 9556   8.433  12.635   7.145  1.9896  0.4839  0.9019
   71MOL0     H 9557   8.139  12.678   7.220 -1.0518 -1.2806 -0.3985
   71MOL0     H 9558   8.213  12.726   7.062  2.0156 -0.1689 -0.7895
   71MOL0     H 9559   8.085  12.514   7.054 -1.2672  0.5551  1.8832
   71MOL0     H 9560   8.200  12.431   7.159  0.6155 -0.1279  0.5850
   71MOL0     H 9561   8.251  12.555   6.881  0.6296  0.8902 -0.0073
   71MOL0     H 9562   8.375  12.527   6.984 -0.1402  1.1428 -0.0299
   71MOL0     H 9563   8.355  12.286   6.980 -0.0096 -0.0415  0.8983
   71MOL0     H 9564   8.316  12.333   6.813 -1.8751 -3.9112  0.1129
   71MOL0     H 9565   8.106  12.253   7.025 -0.0070 -0.5326  0.1596
   71MOL0     H 9566   8.154  12.151   6.911 -1.2846 -0.1252  1.7928
   71MOL0     H 9567   8.790  12.579   7.325  0.5443 -1.7378  1.8568
   71MOL0     H 9568   9.037  12.613   7.373  3.1709  2.8185  2.8358
   71MOL0     H 9569   9.343  12.714   7.608 -0.0873  0.2825 -0.0995
   71MOL0     H 9570   9.563  12.710   7.693  3.5461  0.6511 -0.0829
   71MOL0     H 9571   9.095  11.185   7.458  2.8499  2.3137 -0.8859
   71MOL0     H 9572   9.007  10.959   7.505 -0.2938  1.7409 -1.2229
   71MOL0     H 9573   8.923  10.574   7.828 -2.5917 -0.4853 -0.3419
   71MOL0     H 9574   8.830  10.345   7.818 -1.3700  0.7483 -0.0845
   71MOL0     H 9575   8.704  10.175   7.771  1.2342  1.9218 -0.2297
   71MOL0     H 9576   8.711  10.029   7.684 -0.3155  1.0242 -1.7945
   71MOL0     H 9577   8.850   9.992   7.881  0.3328  3.3740  2.7661
   71MOL0     H 9578   8.938  10.134   7.873 -0.8880 -0.0429 -0.3341
   71MOL0     H 9579   8.956   9.957   7.618 -1.1656  0.4726 -0.3045
   71MOL0     H 9580   9.019   9.897   7.774 -1.7203 -1.0221 -1.2630
   71MOL0     H 9581   9.198  10.080   7.767  0.7733  1.5449 -1.7819
   71MOL0     H 9582   9.104  10.168   7.648  0.3946  1.3669  2.0878
   71MOL0     H 9583   9.354   9.913   7.441 -2.0352 -3.3396  0.3300
   71MOL0     H 9584   8.921  10.317   7.403 -0.1163  4.2264 -3.8609
   71MOL0     H 9585   9.016  10.536   7.404 -1.4958 -0.1058 -0.4816
   72MOL0     O 9586   8.607   7.573   5.002  0.6707 -0.6716  0.7032
   72MOL0     C 9587   8.720   7.607   4.968  0.5539  0.5605  0.1998
   72MOL0     O 9588   8.833   7.565   5.040  0.6740 -0.5305  1.2415
   72MOL0     C 9589   8.809   7.490   5.153 -0.8255  0.0026  0.3856
   72MOL0     C 9590   8.764   7.362   5.140 -0.8037  0.1577  0.2767
   72MOL0     C 9591   8.737   7.290   5.252 -0.3819 -0.1392  0.3577
   72MOL0     C 9592   8.753   7.344   5.384 -0.3836  0.9143 -0.5745
   72MOL0     O 9593   8.711   7.272   5.492 -0.4723  0.1445  0.4179
   72MOL0     C 9594   8.594   7.184   5.496 -0.6314  0.2179 -0.1124
   72MOL0     C 9595   8.473   7.271   5.471  0.3360 -0.3614  0.5609
   72MOL0     C 9596   8.354   7.185   5.462  0.6395 -0.3160 -0.1923
   72MOL0     C 9597   8.222   7.266   5.477 -1.2567 -0.0742 -0.3665
   72MOL0     C 9598   8.210   7.328   5.617  0.4695 -0.2646  0.6000
   72MOL0     C 9599   8.072   7.395   5.634  0.4310  0.3943 -0.4953
   72MOL0     C 9600   8.046   7.431   5.780  0.3228  0.0616 -0.7583
   72MOL0     C 9601   7.905   7.469   5.810  0.0280  0.1814  0.9285
   72MOL0     N 9602   7.907   7.497   5.947 -0.6886  0.6023 -0.5561
   72MOL0     C 9603   7.905   7.620   6.001 -0.2200  0.7155 -0.4783
   72MOL0     C 9604   7.876   7.624   6.136 -0.0396 -0.3245 -0.2175
   72MOL0     C 9605   7.875   7.738   6.231 -0.2708  0.5865  1.0003
   72MOL0     C 9606   7.743   7.761   6.309 -0.0759 -0.8861 -0.0588
   72MOL0     C 9607   7.751   7.898   6.364 -0.4123 -0.6490  0.4574
   72MOL0     C 9608   7.657   7.912   6.485 -0.6064 -0.2714 -0.2610
   72MOL0     O 9609   7.540   7.846   6.461 -0.0058  0.4762  0.1485
   72MOL0     C 9610   7.496   7.788   6.576  0.5060 -0.6656  0.3914
   72MOL0     C 9611   7.466   7.866   6.689  0.6565  0.2003  0.6558
   72MOL0     C 9612   7.446   7.792   6.810  0.6958 -0.4200  0.3787
   72MOL0     C 9613   7.408   7.868   6.933  0.1911 -0.7992 -0.1416
   72MOL0     C 9614   7.440   7.645   6.806 -0.3590  0.1502 -1.1655
   72MOL0     C 9615   7.412   7.570   6.933  0.8052 -0.1352 -0.2562
   72MOL0     O 9616   7.439   7.618   7.052  0.1912 -0.1673 -0.3104
   72MOL0     C 9617   7.373   7.562   7.162  0.2007  0.5589  0.0061
   72MOL0     C 9618   7.415   7.432   7.213  0.7422 -0.4226 -0.8148
   72MOL0     C 9619   7.360   7.385   7.332 -0.0580 -0.3847 -0.0841
   72MOL0     C 9620   7.267   7.466   7.405 -0.2338 -0.2510 -0.0395
   72MOL0     O 9621   7.214   7.414   7.523  0.3163 -0.7611 -0.1292
   72MOL0     C 9622   7.231   7.503   7.633 -0.0237 -0.5360  0.5816
   72MOL0     C 9623   7.099   7.518   7.702  0.1744  0.4127  0.2529
   72MOL0     C 9624   7.068   7.388   7.768  0.4198  0.1161  0.0424
   72MOL0     C 9625   6.938   7.407   7.833  0.6133  0.9057 -0.1175
   72MOL0     C 9626   6.870   7.273   7.881 -0.9136 -0.2652 -0.2648
   72MOL0     C 9627   6.736   7.296   7.951  0.1095  0.4038  0.3917
   72MOL0     C 9628   6.648   7.171   7.938  0.2864  0.7884 -0.8718
   72MOL0     C 9629   6.582   7.160   7.810 -0.4214 -0.0630  0.7814
   72MOL0    Cl 9630   6.461   7.269   7.760 -0.1164  0.7339  0.2798
   72MOL0     C 9631   7.226   7.587   7.350 -0.2321 -0.2425  0.4152
   72MOL0     C 9632   7.284   7.636   7.234  0.2702 -0.1898 -0.8951
   72MOL0     O 9633   7.347   7.467   6.912  0.0341 -0.2622  0.9299
   72MOL0     C 9634   7.457   7.570   6.685  1.1907 -0.5358 -0.0717
   72MOL0     C 9635   7.482   7.641   6.573 -0.5628 -0.1738  0.8820
   72MOL0     N 9636   7.861   7.492   6.174 -0.2900  0.4161 -0.2903
   72MOL0     N 9637   7.884   7.419   6.064 -0.1241 -0.6593  0.0920
   72MOL0     C 9638   8.804   7.477   5.402 -0.1256  0.2142  0.0397
   72MOL0     C 9639   8.827   7.547   5.282 -0.5341  0.4904 -0.2739
   72MOL0     C 9640   8.740   7.690   4.846 -0.0213  0.8068  0.0593
   72MOL0     C 9641   8.634   7.706   4.755 -0.9282  0.6207  0.0401
   72MOL0     C 9642   8.644   7.799   4.653 -0.0141  0.2422  0.2458
   72MOL0     C 9643   8.773   7.856   4.620 -0.5267 -0.6197  0.9388
   72MOL0     O 9644   8.795   7.926   4.500 -0.0917 -0.5005 -0.0029
   72MOL0     C 9645   8.702   7.937   4.391 -0.0916  0.0185 -0.0891
   72MOL0     C 9646   8.613   8.056   4.428  0.0627  0.2801  0.7002
   72MOL0     C 9647   8.545   8.102   4.301  0.4383  0.2914  0.4103
   72MOL0     C 9648   8.437   8.204   4.326 -0.3275  1.4657  0.0981
   72MOL0     C 9649   8.320   8.135   4.371  0.6893 -0.4020 -0.2478
   72MOL0     C 9650   8.224   8.084   4.435 -0.0474  0.3611  0.0255
   72MOL0     C 9651   8.879   7.841   4.711  0.4861  0.4420  1.0632
   72MOL0     C 9652   8.861   7.760   4.824 -0.9961  0.0172  1.1454
   72MOL0     H 9653   8.739   7.323   5.042  0.0440  3.0878 -1.2339
   72MOL0     H 9654   8.689   7.195   5.228  0.1496  0.3641 -3.3594
   72MOL0     H 9655   8.618   7.104   5.426 -3.0674  0.8209 -1.7303
   72MOL0     H 9656   8.569   7.143   5.595 -2.0679 -2.4136 -1.4656
   72MOL0     H 9657   8.465   7.341   5.555  1.2622 -2.8266  2.8454
   72MOL0     H 9658   8.505   7.341   5.393  0.8077 -0.5388  0.5950
   72MOL0     H 9659   8.360   7.134   5.365  2.2705  0.6126 -0.6376
   72MOL0     H 9660   8.349   7.108   5.539 -0.8077  0.6972  0.7563
   72MOL0     H 9661   8.232   7.353   5.412 -1.2543 -0.8122 -1.3718
   72MOL0     H 9662   8.135   7.209   5.443 -1.7166 -0.1329  0.8430
   72MOL0     H 9663   8.226   7.241   5.682 -3.6026 -2.2689 -0.7255
   72MOL0     H 9664   8.282   7.405   5.646 -1.1465  2.9836 -3.0615
   72MOL0     H 9665   8.070   7.484   5.571 -0.9974  1.4394  0.9583
   72MOL0     H 9666   7.997   7.326   5.593  0.7966 -0.1649 -0.2357
   72MOL0     H 9667   8.078   7.352   5.849 -0.6843  2.0686  2.2089
   72MOL0     H 9668   8.103   7.520   5.806  1.0330 -0.3113 -1.0062
   72MOL0     H 9669   7.838   7.384   5.796  1.1980 -0.8199  1.3067
   72MOL0     H 9670   7.873   7.558   5.754 -1.5433 -0.2764  1.0457
   72MOL0     H 9671   7.931   7.707   5.940  0.9178  0.7498  0.0147
   72MOL0     H 9672   7.951   7.712   6.305  2.0854  3.4979 -0.2243
   72MOL0     H 9673   7.915   7.830   6.189  0.5686  1.0330  2.7035
   72MOL0     H 9674   7.742   7.684   6.387  4.4170  0.4123  1.5833
   72MOL0     H 9675   7.650   7.749   6.253 -0.1896 -1.0329  0.1593
   72MOL0     H 9676   7.708   7.970   6.295  2.4230 -0.2001 -0.9901
   72MOL0     H 9677   7.850   7.915   6.410 -1.3445 -0.5161  2.5369
   72MOL0     H 9678   7.636   8.016   6.510 -2.8544 -1.4878  3.8557
   72MOL0     H 9679   7.706   7.876   6.577 -0.2430  1.6829  0.3635
   72MOL0     H 9680   7.479   7.974   6.686  0.1867  0.2905  1.4533
   72MOL0     H 9681   7.491   7.879   7.004 -0.4939 -2.3679  0.9782
   72MOL0     H 9682   7.374   7.967   6.901  3.1972 -0.0055 -1.2473
   72MOL0     H 9683   7.333   7.824   7.000  0.9090 -1.3422  0.3237
   72MOL0     H 9684   7.500   7.382   7.170  2.8631  2.7196 -0.5989
   72MOL0     H 9685   7.381   7.298   7.394  0.0209 -0.7098 -0.5628
   72MOL0     H 9686   7.299   7.461   7.707  0.1444 -2.7718 -0.7455
   72MOL0     H 9687   7.271   7.603   7.612 -2.1783  0.1512 -0.6371
   72MOL0     H 9688   7.108   7.594   7.780  2.5686 -1.8558  2.3673
   72MOL0     H 9689   7.024   7.556   7.631 -1.5348 -0.2642  1.6142
   72MOL0     H 9690   7.142   7.365   7.845 -3.0884 -0.5551  3.5736
   72MOL0     H 9691   7.075   7.299   7.705 -0.6314 -1.2860  1.7838
   72MOL0     H 9692   6.929   7.464   7.926 -0.3686 -1.7182  1.5229
   72MOL0     H 9693   6.875   7.459   7.760 -0.9237  0.1221  0.5797
   72MOL0     H 9694   6.939   7.205   7.932 -1.0678  0.7710  1.3887
   72MOL0     H 9695   6.844   7.220   7.789  0.8863 -0.5029 -0.6800
   72MOL0     H 9696   6.759   7.303   8.058  1.7298 -1.7021  0.2475
   72MOL0     H 9697   6.691   7.387   7.909  1.4740  0.3954 -1.1893
   72MOL0     H 9698   6.575   7.167   8.019  1.2828  3.4718  0.2655
   72MOL0     H 9699   6.717   7.094   7.974 -1.4198 -0.7847 -0.8619
   72MOL0     H 9700   6.538   7.060   7.805  0.4331 -0.3894 -0.7273
   72MOL0     H 9701   6.650   7.148   7.726 -3.7257 -0.0644 -2.0867
   72MOL0     H 9702   7.143   7.637   7.398 -1.1848 -0.8863 -0.5162
   72MOL0     H 9703   7.242   7.728   7.195 -4.9083 -0.8634  2.0943
   72MOL0     H 9704   7.462   7.462   6.685 -3.6601 -0.9485 -0.2404
   72MOL0     H 9705   7.511   7.603   6.476 -1.5261  0.8435  0.1682
   72MOL0     H 9706   8.802   7.522   5.501 -2.3023  0.1033  0.1040
   72MOL0     H 9707   8.855   7.650   5.301 -0.1520  0.7431 -2.0122
   72MOL0     H 9708   8.545   7.647   4.775  0.5193 -1.6862  0.0093
   72MOL0     H 9709   8.555   7.820   4.595 -0.5804  1.0552  1.3650
   72MOL0     H 9710   8.745   7.949   4.291 -2.1529 -1.8159 -1.3086
   72MOL0     H 9711   8.641   7.846   4.391 -0.8508  0.5038  1.0686
   72MOL0     H 9712   8.673   8.142   4.461  0.0024  0.0301  1.4680
   72MOL0     H 9713   8.550   8.025   4.511 -2.1138 -2.3225 -1.7153
   72MOL0     H 9714   8.501   8.012   4.258 -0.0082  0.0928  1.2560
   72MOL0     H 9715   8.611   8.144   4.224 -0.2779 -0.3727 -0.5891
   72MOL0     H 9716   8.418   8.248   4.228  2.4963 -0.6402 -1.5456
   72MOL0     H 9717   8.473   8.278   4.398  2.2538 -1.7354  2.3988
   72MOL0     H 9718   8.146   8.031   4.485  0.8020 -1.9428 -0.9647
   72MOL0     H 9719   8.974   7.892   4.703  0.6644 -0.1118 -1.3116
   72MOL0     H 9720   8.942   7.745   4.894  0.9066  3.1772 -0.1289
   73MOL0     O 9721   4.109   2.276   9.047 -0.6015 -0.1576  0.3137
   73MOL0     C 9722   4.184   2.282   8.950 -0.7083 -0.3213 -0.5801
   73MOL0     O 9723   4.307   2.228   8.944 -0.1107 -0.1644 -0.9501
   73MOL0     C 9724   4.372   2.189   9.063  0.0161 -0.4538  0.0524
   73MOL0     C 9725   4.466   2.081   9.059 -0.3567 -0.3997  0.4167
   73MOL0     C 9726   4.544   2.062   9.171 -0.1111  0.7367  0.6514
   73MOL0     C 9727   4.532   2.125   9.292 -0.5562  0.1281 -0.0031
   73MOL0     O 9728   4.622   2.102   9.393 -0.7931 -0.0640 -0.4620
   73MOL0     C 9729   4.560   2.079   9.525 -0.3161  0.4931  0.6825
   73MOL0     C 9730   4.642   2.109   9.650  0.5666 -0.2911  0.1640
   73MOL0     C 9731   4.708   2.245   9.658  0.0492 -0.4129 -0.6027
   73MOL0     C 9732   4.601   2.354   9.699 -0.3523  0.4761 -0.2428
   73MOL0     C 9733   4.564   2.346   9.849 -0.0825 -0.3063  0.7381
   73MOL0     C 9734   4.680   2.407   9.925  0.4885 -0.6531  0.7833
   73MOL0     C 9735   4.628   2.440  10.065 -0.3341 -0.6610 -0.0507
   73MOL0     C 9736   4.736   2.519  10.128 -0.1804 -1.4190 -0.4137
   73MOL0     N 9737   4.695   2.578  10.257  0.3567  0.1481  0.5553
   73MOL0     C 9738   4.653   2.708  10.274 -0.4840  0.1353 -0.2285
   73MOL0     C 9739   4.632   2.725  10.406 -0.1579 -0.8625 -0.1384
   73MOL0     C 9740   4.562   2.853  10.441  0.3276  0.2686 -0.3843
   73MOL0     C 9741   4.562   2.887  10.588  0.6792 -0.4406 -0.5161
   73MOL0     C 9742   4.495   3.032  10.600  0.3784 -0.0927  0.3617
   73MOL0     C 9743   4.343   3.026  10.587  0.1720  0.5200 -1.3646
   73MOL0     O 9744   4.273   2.917  10.671  0.0366 -0.2713  0.4938
   73MOL0     C 9745   4.236   2.962  10.797 -0.5062  0.5687 -0.5328
   73MOL0     C 9746   4.275   3.082  10.869  0.9467 -0.1317 -0.9030
   73MOL0     C 9747   4.214   3.108  10.998  1.1725  0.2737 -0.0796
   73MOL0     C 9748   4.262   3.228  11.073 -0.0530  0.2836  0.1982
   73MOL0     C 9749   4.115   3.020  11.053 -1.9087  0.2007  1.3750
   73MOL0     C 9750   4.037   3.038  11.175 -0.0642  0.7178 -0.5690
   73MOL0     O 9751   4.053   3.155  11.251 -1.0072 -0.4707  0.5779
   73MOL0     C 9752   3.966   3.159  11.359  1.1390 -0.3397  0.6661
   73MOL0     C 9753   4.001   3.092  11.475  0.8829 -0.2777 -0.8239
   73MOL0     C 9754   3.922   3.111  11.589 -0.0166 -0.6443 -0.7109
   73MOL0     C 9755   3.807   3.191  11.590  0.3414 -0.5163 -0.2922
   73MOL0     O 9756   3.726   3.215  11.705 -0.1051  1.5696 -0.1918
   73MOL0     C 9757   3.794   3.232  11.831  0.0034 -1.3249  1.6267
   73MOL0     C 9758   3.791   3.104  11.903  0.5802  0.6120 -0.5052
   73MOL0     C 9759   3.816   3.129  12.047 -0.0549  0.1947 -0.2200
   73MOL0     C 9760   3.873   3.013  12.132 -0.0246 -0.2104  0.8829
   73MOL0     C 9761   3.914   3.065  12.273  1.2042 -0.0896  0.0878
   73MOL0     C 9762   4.000   2.964  12.351  0.0424 -0.3564  0.4558
   73MOL0     C 9763   4.020   3.008  12.496 -0.2546  0.2284 -0.2724
   73MOL0     C 9764   4.156   3.061  12.537  0.4146 -0.7185 -0.3480
   73MOL0    Cl 9765   4.278   2.954  12.491 -0.3251  0.0880  0.2996
   73MOL0     C 9766   3.779   3.264  11.474 -0.6786 -0.8302  0.2205
   73MOL0     C 9767   3.856   3.252  11.355  0.4245  0.5375  0.0356
   73MOL0     O 9768   3.962   2.945  11.216 -0.3194 -0.3981  0.9541
   73MOL0     C 9769   4.092   2.899  10.982 -0.2740  0.3921 -0.2899
   73MOL0     C 9770   4.156   2.868  10.856  0.3447  0.7429 -0.9969
   73MOL0     N 9771   4.666   2.607  10.471 -0.2590  0.1251 -0.6521
   73MOL0     N 9772   4.710   2.527  10.379  0.1601  0.7181 -1.0391
   73MOL0     C 9773   4.449   2.238   9.291  0.7256 -0.0700  0.0679
   73MOL0     C 9774   4.370   2.268   9.185  0.3932  0.3989 -0.0917
   73MOL0     C 9775   4.120   2.344   8.834  0.0649  0.8242  0.4907
   73MOL0     C 9776   3.988   2.314   8.807 -0.2482 -0.5106  0.5366
   73MOL0     C 9777   3.931   2.371   8.696  0.3085  0.4346  0.2352
   73MOL0     C 9778   4.004   2.445   8.599 -0.8239  0.0858 -0.2102
   73MOL0     O 9779   3.958   2.518   8.492 -0.2115  0.6579  0.7275
   73MOL0     C 9780   3.827   2.487   8.437  0.4886  0.3858 -0.4029
   73MOL0     C 9781   3.775   2.597   8.339  0.0933  0.7410  0.0329
   73MOL0     C 9782   3.622   2.571   8.312 -0.7088 -0.1256 -0.4534
   73MOL0     C 9783   3.541   2.626   8.426  0.1381 -0.7613  0.0526
   73MOL0     C 9784   3.394   2.609   8.423  0.5082 -0.5591  0.5449
   73MOL0     C 9785   3.275   2.582   8.421  0.3743  0.5158  0.3742
   73MOL0     C 9786   4.141   2.459   8.625  0.6522 -0.1624  0.0253
   73MOL0     C 9787   4.197   2.413   8.742 -0.0529  0.7195 -0.4425
   73MOL0     H 9788   4.488   2.024   8.969 -2.5459 -0.5272 -0.1001
   73MOL0     H 9789   4.623   1.988   9.168 -2.0923 -2.0310  5.0495
   73MOL0     H 9790   4.470   2.141   9.526 -0.1206  1.2232 -4.0050
   73MOL0     H 9791   4.528   1.974   9.524  1.3966 -0.0993 -1.4784
   73MOL0     H 9792   4.575   2.078   9.730  1.9783  2.5850  2.6464
   73MOL0     H 9793   4.731   2.045   9.651  1.7980  1.3705  0.9356
   73MOL0     H 9794   4.784   2.256   9.736 -0.7147  2.2903 -0.1103
   73MOL0     H 9795   4.748   2.269   9.559 -1.3075  0.9898 -0.8475
   73MOL0     H 9796   4.643   2.451   9.669  0.4357  0.0638 -0.5164
   73MOL0     H 9797   4.509   2.336   9.644 -0.3978  1.4623 -0.5167
   73MOL0     H 9798   4.475   2.409   9.863 -0.1192 -0.3081  0.5114
   73MOL0     H 9799   4.543   2.242   9.876 -0.8168  0.2603  2.5294
   73MOL0     H 9800   4.764   2.337   9.925  0.2848 -0.9018  0.5653
   73MOL0     H 9801   4.709   2.499   9.874  2.0381 -0.9960  0.9948
   73MOL0     H 9802   4.539   2.502  10.059 -1.0178 -1.5149  1.0049
   73MOL0     H 9803   4.603   2.356  10.130 -2.7447  0.0437  0.0109
   73MOL0     H 9804   4.771   2.599  10.063  0.5022 -2.4815 -1.3934
   73MOL0     H 9805   4.820   2.454  10.156 -0.3946 -0.9257  1.5087
   73MOL0     H 9806   4.633   2.783  10.198 -0.5556  0.6052  0.2518
   73MOL0     H 9807   4.597   2.937  10.380  0.4749  0.9191  0.5791
   73MOL0     H 9808   4.458   2.832  10.413  0.5401 -1.2941 -0.0573
   73MOL0     H 9809   4.664   2.901  10.625  1.4905 -1.9213 -2.0697
   73MOL0     H 9810   4.509   2.808  10.643 -3.3673  1.1359 -1.8443
   73MOL0     H 9811   4.536   3.092  10.518  0.3089 -2.2534 -1.3331
   73MOL0     H 9812   4.529   3.068  10.697  3.8969 -0.3099 -0.6688
   73MOL0     H 9813   4.321   3.002  10.483 -1.0816 -1.8607 -0.6367
   73MOL0     H 9814   4.289   3.115  10.621 -0.6303 -0.8158  1.1041
   73MOL0     H 9815   4.345   3.149  10.821 -0.6903  0.4354 -2.6346
   73MOL0     H 9816   4.173   3.292  11.067  0.0489  0.7170  2.3494
   73MOL0     H 9817   4.292   3.207  11.176 -3.1322 -2.9841  0.6091
   73MOL0     H 9818   4.348   3.276  11.025  0.7665 -0.9748  0.3787
   73MOL0     H 9819   4.096   3.040  11.484  3.3452  3.9812  0.3637
   73MOL0     H 9820   3.962   3.073  11.683 -0.4477  0.5886 -0.0063
   73MOL0     H 9821   3.900   3.259  11.826 -0.5444  1.3220  2.6424
   73MOL0     H 9822   3.750   3.312  11.892  1.0314 -0.7047  1.5688
   73MOL0     H 9823   3.696   3.053  11.884  0.8659 -0.7031  1.3559
   73MOL0     H 9824   3.861   3.033  11.858  1.2012 -0.3741  1.8651
   73MOL0     H 9825   3.730   3.167  12.103  1.6989  1.6977  1.6152
   73MOL0     H 9826   3.884   3.215  12.056 -1.3342  1.1811  0.3827
   73MOL0     H 9827   3.794   2.938  12.144 -2.1311  2.0738  2.3884
   73MOL0     H 9828   3.970   2.980  12.092  0.3812  1.2638  0.6061
   73MOL0     H 9829   3.817   3.078  12.321 -0.0970 -2.8694 -1.5272
   73MOL0     H 9830   3.968   3.160  12.277  4.0171 -1.5693  0.0576
   73MOL0     H 9831   3.947   2.870  12.329 -2.4597  1.2117 -0.6444
   73MOL0     H 9832   4.098   2.951  12.304  0.7186  1.7019  1.2309
   73MOL0     H 9833   4.010   2.919  12.560  0.5574  0.7639  0.6190
   73MOL0     H 9834   3.939   3.070  12.535 -1.9616 -1.0466 -1.6434
   73MOL0     H 9835   4.159   3.079  12.645  1.6758 -2.3057 -0.0643
   73MOL0     H 9836   4.176   3.154  12.483  0.9209 -1.7328 -1.9839
   73MOL0     H 9837   3.707   3.345  11.472  1.3558  1.0663 -0.9037
   73MOL0     H 9838   3.831   3.315  11.270 -0.6539  2.1432  1.4762
   73MOL0     H 9839   4.005   2.839  11.006 -2.3281  2.2654 -2.4361
   73MOL0     H 9840   4.141   2.771  10.811 -1.2301  1.4711 -2.1575
   73MOL0     H 9841   4.433   2.309   9.372 -4.2534  0.6798 -1.2096
   73MOL0     H 9842   4.307   2.357   9.194 -2.1808 -1.4727  2.2496
   73MOL0     H 9843   3.937   2.254   8.881  0.2342 -0.0566  1.2633
   73MOL0     H 9844   3.823   2.366   8.684  0.1500 -3.3012  1.7673
   73MOL0     H 9845   3.827   2.384   8.400  1.8832  0.5986 -1.0622
   73MOL0     H 9846   3.761   2.483   8.524  1.2550 -0.5427  0.1542
   73MOL0     H 9847   3.833   2.582   8.247  1.6167 -1.6732  1.2770
   73MOL0     H 9848   3.797   2.694   8.385 -0.9967  3.1660 -4.0240
   73MOL0     H 9849   3.607   2.462   8.310  1.4703 -0.6720  3.3026
   73MOL0     H 9850   3.608   2.619   8.214  0.2075 -1.9466 -1.5438
   73MOL0     H 9851   3.558   2.733   8.411 -1.4383 -0.2860  1.4160
   73MOL0     H 9852   3.576   2.599   8.526 -2.4596 -2.2926  0.6521
   73MOL0     H 9853   3.171   2.556   8.419  0.8912 -1.8194  1.0510
   73MOL0     H 9854   4.193   2.535   8.568  1.3767 -0.5885  0.0990
   73MOL0     H 9855   4.305   2.421   8.741  0.4034 -3.0372 -2.3808
   74MOL0     O 9856   9.971   6.892  10.308 -0.5831  0.2536 -0.5045
   74MOL0     C 9857   9.967   6.769  10.282 -0.1509 -0.4369 -0.3654
   74MOL0     O 9858   9.859   6.701  10.226 -0.0274 -0.3736 -0.2764
   74MOL0     C 9859   9.751   6.777  10.187  0.0002 -1.0879  0.3353
   74MOL0     C 9860   9.679   6.862  10.280  0.3383 -0.5286 -0.1154
   74MOL0     C 9861   9.576   6.944  10.229  0.0900  0.1810  0.3775
   74MOL0     C 9862   9.545   6.939  10.093  0.6148  0.3186 -0.2507
   74MOL0     O 9863   9.438   6.997  10.028  0.2089  0.5290 -0.4648
   74MOL0     C 9864   9.311   7.003  10.098  0.0786 -0.6488  0.2518
   74MOL0     C 9865   9.211   7.059   9.997  0.6645  0.3761 -0.2544
   74MOL0     C 9866   9.088   7.105  10.075 -0.1962  1.0758  0.2585
   74MOL0     C 9867   8.974   7.145   9.988  0.3419 -0.0882  0.3030
   74MOL0     C 9868   8.841   7.170  10.065 -0.0902 -0.1468  0.7889
   74MOL0     C 9869   8.770   7.051  10.094  0.0086 -0.4803  0.8490
   74MOL0     C 9870   8.625   7.075  10.135 -0.3021  0.9726 -0.8490
   74MOL0     C 9871   8.582   6.930  10.186  0.3704 -0.8904 -0.3606
   74MOL0     N 9872   8.448   6.932  10.246 -0.2041 -0.2333 -0.4941
   74MOL0     C 9873   8.367   6.818  10.269 -0.6065  0.3874  1.1809
   74MOL0     C 9874   8.250   6.871  10.314  0.3959 -0.0307  1.8350
   74MOL0     C 9875   8.134   6.792  10.361  0.3840 -0.1697 -0.4559
   74MOL0     C 9876   8.165   6.758  10.513  0.4765 -0.6214  1.0813
   74MOL0     C 9877   8.185   6.603  10.545  0.7231 -1.0358 -0.6731
   74MOL0     C 9878   8.184   6.574  10.698 -0.8213 -0.2878  0.4930
   74MOL0     O 9879   8.312   6.632  10.759  0.0854  0.1528  0.4626
   74MOL0     C 9880   8.423   6.560  10.799  0.2207  0.6080 -0.3891
   74MOL0     C 9881   8.433   6.425  10.751 -0.4252  0.2106  0.1946
   74MOL0     C 9882   8.552   6.350  10.757 -0.1672 -0.4217  0.2292
   74MOL0     C 9883   8.553   6.204  10.734  0.2247  0.0256  0.1147
   74MOL0     C 9884   8.667   6.419  10.819  0.8375  0.2935  0.0703
   74MOL0     C 9885   8.787   6.347  10.846 -0.7199  0.5386 -1.1463
   74MOL0     O 9886   8.829   6.265  10.745  0.4153 -0.2659  0.1477
   74MOL0     C 9887   8.943   6.195  10.756 -0.5095 -0.2065  0.5613
   74MOL0     C 9888   8.946   6.070  10.799 -0.0034  0.7040 -0.9119
   74MOL0     C 9889   9.067   5.990  10.796 -0.2157 -1.4724 -0.2069
   74MOL0     C 9890   9.182   6.046  10.748 -0.5907 -0.1836 -0.6909
   74MOL0     O 9891   9.289   5.960  10.726 -0.2348 -0.4193 -0.0374
   74MOL0     C 9892   9.418   6.026  10.748 -0.5516  0.3145 -0.3755
   74MOL0     C 9893   9.525   5.921  10.790 -0.4038 -0.3968 -0.0504
   74MOL0     C 9894   9.489   5.840  10.908 -0.6192  0.6487  0.5702
   74MOL0     C 9895   9.590   5.720  10.919 -0.8766  0.5559 -0.0706
   74MOL0     C 9896   9.587   5.657  11.057  0.6694  0.2403 -0.0398
   74MOL0     C 9897   9.458   5.569  11.057  0.4553 -0.1416  0.2210
   74MOL0     C 9898   9.387   5.529  11.185  0.7017 -0.8251 -0.2429
   74MOL0     C 9899   9.437   5.414  11.269 -1.0998  0.1357  1.4850
   74MOL0    Cl 9900   9.431   5.268  11.169 -0.1081 -0.0857 -0.4675
   74MOL0     C 9901   9.182   6.182  10.712 -0.0434 -0.1902 -0.0200
   74MOL0     C 9902   9.065   6.248  10.718 -0.2035  0.3630  0.1663
   74MOL0     O 9903   8.840   6.358  10.955 -0.1714 -0.0730 -0.1340
   74MOL0     C 9904   8.650   6.550  10.868 -0.3832  0.1599 -0.8965
   74MOL0     C 9905   8.533   6.621  10.855 -0.9794 -0.0252 -0.1244
   74MOL0     N 9906   8.254   7.010  10.308 -0.1444 -0.1068 -0.2707
   74MOL0     N 9907   8.369   7.048  10.280 -0.2183  0.1361 -0.0932
   74MOL0     C 9908   9.611   6.855  10.000 -0.2860 -0.1981  0.5621
   74MOL0     C 9909   9.722   6.789  10.051  0.6413 -0.5081  0.3468
   74MOL0     C 9910  10.082   6.685  10.322 -0.9171  0.0227 -0.4085
   74MOL0     C 9911  10.199   6.736  10.384  0.8569  0.3726  0.8332
   74MOL0     C 9912  10.306   6.643  10.424 -0.7524 -0.7665  0.0372
   74MOL0     C 9913  10.297   6.508  10.396  0.2090  0.1617 -0.2315
   74MOL0     O 9914  10.393   6.421  10.437 -0.1393 -0.3253  0.3340
   74MOL0     C 9915  10.447   6.334  10.335 -0.3433 -0.5483  0.6464
   74MOL0     C 9916  10.594   6.288  10.381  1.0685 -0.1765  0.3383
   74MOL0     C 9917  10.596   6.207  10.510 -0.7841  0.2890  0.9347
   74MOL0     C 9918  10.733   6.137  10.523  0.1376 -0.9797 -0.4961
   74MOL0     C 9919  10.737   6.008  10.452 -0.3165  0.7834  0.0727
   74MOL0     C 9920  10.755   5.898  10.408  0.3931  0.2490  0.7513
   74MOL0     C 9921  10.180   6.459  10.336  0.4860  0.0467 -1.0129
   74MOL0     C 9922  10.081   6.544  10.298 -0.4696  0.0230 -0.1758
   74MOL0     H 9923   9.703   6.868  10.386  3.7948  1.0903 -0.8640
   74MOL0     H 9924   9.512   7.001  10.296 -1.1724 -0.9983  0.2124
   74MOL0     H 9925   9.286   6.902  10.132  0.1937 -1.2374 -1.3150
   74MOL0     H 9926   9.312   7.062  10.190 -1.5293  1.1415 -0.7869
   74MOL0     H 9927   9.259   7.150   9.961  2.6648 -0.2977  0.5898
   74MOL0     H 9928   9.194   6.993   9.912 -1.3213 -1.1806  1.2570
   74MOL0     H 9929   9.059   7.028  10.147  0.6292  1.1777  0.7185
   74MOL0     H 9930   9.135   7.189  10.128 -1.2058  1.3840  0.6848
   74MOL0     H 9931   9.009   7.243   9.953  0.5542  0.1305  1.0936
   74MOL0     H 9932   8.956   7.071   9.910 -1.4149 -1.3867  1.8533
   74MOL0     H 9933   8.860   7.211  10.164  0.8018  0.6660  0.2977
   74MOL0     H 9934   8.786   7.236   9.997 -0.7379 -1.7241 -0.2824
   74MOL0     H 9935   8.767   6.995  10.000 -0.9235  1.0791 -0.1063
   74MOL0     H 9936   8.819   6.987  10.168 -0.4707 -0.8057  0.8871
   74MOL0     H 9937   8.632   7.149  10.215  1.2433 -0.0542  0.0014
   74MOL0     H 9938   8.563   7.124  10.059 -0.2322  1.8155 -0.3825
   74MOL0     H 9939   8.651   6.888  10.260  0.9853  1.9097  0.7875
   74MOL0     H 9940   8.578   6.854  10.107 -5.0191 -0.8554 -0.4878
   74MOL0     H 9941   8.391   6.714  10.251 -2.0391 -0.3655  3.2537
   74MOL0     H 9942   8.041   6.849  10.350 -0.4954 -0.9591  2.1913
   74MOL0     H 9943   8.118   6.700  10.303 -1.5515 -1.1456  1.4764
   74MOL0     H 9944   8.074   6.792  10.562 -1.6386 -2.2706 -1.4509
   74MOL0     H 9945   8.249   6.813  10.557  0.4093 -0.7791  1.4118
   74MOL0     H 9946   8.284   6.565  10.517  1.3935 -1.0678  1.5450
   74MOL0     H 9947   8.096   6.557  10.503 -0.2208 -0.7554  0.9252
   74MOL0     H 9948   8.188   6.466  10.715  1.0437 -1.1287 -3.9614
   74MOL0     H 9949   8.094   6.605  10.751 -3.0587 -2.4414 -1.7782
   74MOL0     H 9950   8.354   6.368  10.704  1.9467 -3.7100  0.5671
   74MOL0     H 9951   8.605   6.141  10.807  0.1014  1.7471  1.7427
   74MOL0     H 9952   8.454   6.158  10.743  0.5093 -0.5181  0.5329
   74MOL0     H 9953   8.597   6.184  10.636 -1.0825 -2.6355 -0.0278
   74MOL0     H 9954   8.862   6.018  10.845  0.7959 -0.5648 -0.8376
   74MOL0     H 9955   9.083   5.888  10.829  3.2741 -0.2993  2.3250
   74MOL0     H 9956   9.440   6.068  10.650 -1.0394  0.3955 -0.4555
   74MOL0     H 9957   9.407   6.100  10.828  1.9499  1.0514 -0.6432
   74MOL0     H 9958   9.541   5.863  10.699 -0.2256 -4.3157  2.2546
   74MOL0     H 9959   9.625   5.964  10.805  0.4087 -0.7261 -3.6531
   74MOL0     H 9960   9.383   5.812  10.907 -0.6904  0.9026 -1.1026
   74MOL0     H 9961   9.508   5.896  11.000 -0.6049  1.7932 -0.1230
   74MOL0     H 9962   9.556   5.639  10.853  1.8237 -1.8058  1.2135
   74MOL0     H 9963   9.690   5.749  10.885 -0.2359 -2.2780 -0.8663
   74MOL0     H 9964   9.594   5.728  11.140 -2.9640  0.8764 -0.1224
   74MOL0     H 9965   9.669   5.585  11.074  1.0352  1.0973  2.1711
   74MOL0     H 9966   9.378   5.611  10.996  0.1120 -0.1355  0.6699
   74MOL0     H 9967   9.491   5.475  11.012  0.2573 -0.3760  0.5750
   74MOL0     H 9968   9.283   5.503  11.163  1.0050 -0.6049 -2.1183
   74MOL0     H 9969   9.393   5.621  11.245  0.6401 -0.7667 -0.3270
   74MOL0     H 9970   9.374   5.414  11.359 -0.0972 -0.5746  2.1966
   74MOL0     H 9971   9.541   5.433  11.294 -0.2255 -2.1344 -0.0840
   74MOL0     H 9972   9.272   6.234  10.681  2.0380 -3.7099 -0.4749
   74MOL0     H 9973   9.062   6.350  10.683  0.3477  0.3006 -0.0765
   74MOL0     H 9974   8.734   6.595  10.921 -1.6473  1.5429  0.0144
   74MOL0     H 9975   8.531   6.728  10.872 -2.0857 -0.3501  2.0483
   74MOL0     H 9976   9.583   6.854   9.895 -0.0558 -1.6415  0.4861
   74MOL0     H 9977   9.782   6.738   9.976  0.0268 -1.1449  0.2793
   74MOL0     H 9978  10.210   6.841  10.409 -0.1178  0.7518 -0.2844
   74MOL0     H 9979  10.405   6.674  10.455 -0.1432  0.1134 -2.5778
   74MOL0     H 9980  10.392   6.243  10.309  1.4916 -1.2270 -1.0806
   74MOL0     H 9981  10.467   6.397  10.248  2.1132  1.5171  2.5215
   74MOL0     H 9982  10.656   6.375  10.402  1.7533 -0.5914  0.0403
   74MOL0     H 9983  10.642   6.239  10.296  1.6488  1.7518 -0.4967
   74MOL0     H 9984  10.508   6.142  10.516 -1.6229  1.2364 -0.5836
   74MOL0     H 9985  10.580   6.278  10.592 -0.1342  1.7245 -0.1419
   74MOL0     H 9986  10.752   6.120  10.630 -0.2135  1.1036 -0.0606
   74MOL0     H 9987  10.819   6.190  10.482  1.4540 -0.8837  2.1736
   74MOL0     H 9988  10.787   5.800  10.382 -0.9744 -0.0132 -0.0558
   74MOL0     H 9989  10.154   6.359  10.304 -1.4454  0.4515 -0.8356
   74MOL0     H 9990   9.994   6.515  10.239 -1.7754 -0.5699  1.9215
   75MOL0     O 9991  10.711   1.161   1.631 -0.2095  0.1745 -0.4708
   75MOL0     C 9992  10.747   1.275   1.613  0.5726  0.5782  0.0649
   75MOL0     O 9993  10.723   1.340   1.484  0.0502  0.1701  0.1960
   75MOL0     C 9994  10.655   1.263   1.399  0.3938  0.3652  0.8554
   75MOL0     C 9995  10.722   1.158   1.335  0.1326  0.3111  0.4063
   75MOL0     C 9996  10.652   1.074   1.250 -0.0485  0.0414  0.6242
   75MOL0     C 9997  10.525   1.109   1.211  0.4434  0.0709 -0.1979
   75MOL0     O 9998  10.464   1.023   1.128 -0.3434 -0.1938 -0.2223
   75MOL0     C 9999  10.389   1.089   1.035 -0.2235 -1.0259 -0.4197
   75MOL0     C10000  10.358   0.983   0.921 -0.1543  0.4745  0.8331
   75MOL0     C10001  10.274   0.854   0.953  1.0271 -0.6386  0.5299
   75MOL0     C10002  10.233   0.785   0.823 -0.2143 -0.9095 -0.4998
   75MOL0     C10003  10.128   0.684   0.850 -0.3797 -0.2719  0.1406
   75MOL0     C10004  10.085   0.623   0.716 -0.5599 -0.8961  0.6624
   75MOL0     C10005   9.971   0.518   0.732  1.1501 -0.3680  0.7305
   75MOL0     C10006   9.946   0.454   0.599 -0.1366 -0.4430  1.3438
   75MOL0     N10007   9.845   0.353   0.606  0.0082  0.1247 -0.1943
   75MOL0     C10008   9.724   0.368   0.668 -0.1435 -0.1069 -0.1456
   75MOL0     C10009   9.669   0.245   0.662 -0.1681 -0.3836  0.9472
   75MOL0     C10010   9.523   0.217   0.703 -0.8716  1.1950 -0.8684
   75MOL0     C10011   9.493   0.228   0.854 -0.2924  0.5293  0.2423
   75MOL0     C10012   9.576   0.119   0.938 -0.5019  0.6834  0.1762
   75MOL0     C10013   9.728   0.162   0.980 -0.5962 -0.1464  0.3433
   75MOL0     O10014   9.737   0.304   1.024  0.1048 -0.2030  0.2903
   75MOL0     C10015   9.854   0.352   1.065  0.0216  0.2880 -0.0107
   75MOL0     C10016   9.862   0.482   1.107  1.0180  0.3027 -0.4667
   75MOL0     C10017   9.970   0.547   1.164 -0.0398  1.0148 -0.8088
   75MOL0     C10018   9.959   0.698   1.196  0.8071  0.9689 -0.5017
   75MOL0     C10019  10.093   0.476   1.177  0.0333  0.0099  0.6291
   75MOL0     C10020  10.220   0.524   1.236  0.7052  0.5005  0.0237
   75MOL0     O10021  10.227   0.657   1.267 -0.7819 -0.0847 -1.0334
   75MOL0     C10022  10.315   0.689   1.372 -0.3527 -0.1078  0.3112
   75MOL0     C10023  10.266   0.694   1.499 -0.2189 -0.1331  1.0557
   75MOL0     C10024  10.344   0.716   1.607  0.6516  0.6814 -0.1609
   75MOL0     C10025  10.476   0.766   1.587  0.3472 -0.4585 -0.5418
   75MOL0     O10026  10.536   0.814   1.702 -0.3729  0.3789 -0.1407
   75MOL0     C10027  10.677   0.830   1.694 -0.1906 -0.8497  0.0156
   75MOL0     C10028  10.717   0.878   1.836 -0.0729  0.0082  0.0921
   75MOL0     C10029  10.862   0.836   1.871  1.0850 -0.1724  0.7266
   75MOL0     C10030  10.894   0.858   2.023 -0.7379  0.6258 -0.2509
   75MOL0     C10031  11.047   0.833   2.042 -0.1646  0.7706 -0.2870
   75MOL0     C10032  11.076   0.841   2.193  0.8518 -0.2024 -0.5768
   75MOL0     C10033  11.218   0.840   2.246 -0.2228 -0.1699 -0.0473
   75MOL0     C10034  11.230   0.841   2.399  0.5704  0.2924 -0.0040
   75MOL0    Cl10035  11.387   0.901   2.479  0.5248 -0.0802 -0.4111
   75MOL0     C10036  10.535   0.763   1.455  0.4067 -0.6666 -0.2698
   75MOL0     C10037  10.446   0.733   1.353  0.6033  0.8169  0.1870
   75MOL0     O10038  10.299   0.441   1.270  0.2725 -0.7179  0.5224
   75MOL0     C10039  10.102   0.343   1.122 -0.0575  0.5160 -0.0462
   75MOL0     C10040   9.979   0.288   1.064  0.4014  0.5276  0.1821
   75MOL0     N10041   9.752   0.153   0.609  0.1315 -0.2670 -0.5153
   75MOL0     N10042   9.860   0.214   0.574  1.0626  0.2743 -0.3011
   75MOL0     C10043  10.454   1.207   1.282 -0.1813  0.2624  0.0766
   75MOL0     C10044  10.520   1.287   1.379 -0.8308  0.7668  0.5655
   75MOL0     C10045  10.799   1.342   1.736 -0.6052  0.5510  0.5088
   75MOL0     C10046  10.888   1.277   1.823 -0.5179 -0.1417 -0.1005
   75MOL0     C10047  10.921   1.341   1.941 -0.0492  0.7830  1.5684
   75MOL0     C10048  10.880   1.471   1.971 -0.1249  0.3260  1.3570
   75MOL0     O10049  10.918   1.536   2.087  0.4395  0.8623 -0.5218
   75MOL0     C10050  11.037   1.488   2.162  0.4403 -0.6237  0.9537
   75MOL0     C10051  11.066   1.601   2.265 -0.1179  0.7818  0.4352
   75MOL0     C10052  10.937   1.635   2.342 -0.2227  0.5443 -0.9511
   75MOL0     C10053  10.969   1.738   2.444 -0.3204 -0.7236  0.8114
   75MOL0     C10054  11.042   1.684   2.557 -0.2139  0.6538 -0.6631
   75MOL0     C10055  11.104   1.614   2.630 -0.3080 -0.0414  0.6969
   75MOL0     C10056  10.792   1.536   1.875 -0.5103  0.1123  0.8072
   75MOL0     C10057  10.741   1.465   1.766  0.2710  0.1949 -1.0628
   75MOL0     H10058  10.828   1.135   1.335  0.2370  0.7142 -0.9524
   75MOL0     H10059  10.700   0.992   1.198 -2.1237  0.8987 -3.0012
   75MOL0     H10060  10.295   1.118   1.083  0.4770  0.4316  0.1402
   75MOL0     H10061  10.439   1.174   0.987 -1.7279 -0.0751 -0.3736
   75MOL0     H10062  10.312   1.031   0.834  3.0774 -1.2663 -2.0966
   75MOL0     H10063  10.451   0.942   0.881  0.4375  1.3651  1.2639
   75MOL0     H10064  10.324   0.792   1.028 -0.7064  1.7099  3.9289
   75MOL0     H10065  10.181   0.880   1.005  0.5664 -1.9841  0.4201
   75MOL0     H10066  10.201   0.862   0.752 -3.2931 -0.8797  0.7762
   75MOL0     H10067  10.318   0.735   0.776  0.2850 -0.0974 -0.4736
   75MOL0     H10068  10.159   0.608   0.922 -1.4173  0.5454  1.4937
   75MOL0     H10069  10.045   0.740   0.894  1.8918  6.7211 -3.0471
   75MOL0     H10070  10.048   0.705   0.653 -2.4188 -1.8690  0.4056
   75MOL0     H10071  10.170   0.586   0.657 -0.0630 -0.2919  0.9939
   75MOL0     H10072   9.983   0.440   0.807  0.6853  0.3745  1.5969
   75MOL0     H10073   9.883   0.568   0.773 -2.7796 -4.8783 -1.3734
   75MOL0     H10074  10.038   0.412   0.557  0.3580  2.4928 -0.8015
   75MOL0     H10075   9.915   0.525   0.521  2.5450 -0.6908 -0.0774
   75MOL0     H10076   9.670   0.451   0.711 -0.2541  0.2237 -0.8987
   75MOL0     H10077   9.466   0.291   0.646  1.7497  5.0611  1.0933
   75MOL0     H10078   9.485   0.116   0.683  2.0274  0.0939 -1.3903
   75MOL0     H10079   9.386   0.209   0.864 -0.2255  0.6011  1.2377
   75MOL0     H10080   9.515   0.328   0.892  0.3715 -0.4189  2.5091
   75MOL0     H10081   9.586   0.025   0.882  0.4571  0.3585  0.8635
   75MOL0     H10082   9.523   0.106   1.032 -1.9339  0.3315 -0.6490
   75MOL0     H10083   9.796   0.132   0.899 -1.9684 -3.3573  0.2188
   75MOL0     H10084   9.758   0.103   1.067 -0.8699 -0.0442  0.5093
   75MOL0     H10085   9.773   0.544   1.097  0.0985 -1.0695 -1.1597
   75MOL0     H10086   9.862   0.734   1.160  0.7442 -1.4421 -3.1203
   75MOL0     H10087   9.977   0.704   1.304 -1.8933  1.9118 -0.0198
   75MOL0     H10088  10.031   0.750   1.133  1.0576 -1.2997 -2.2212
   75MOL0     H10089  10.162   0.668   1.513  0.2516 -2.4734  0.6830
   75MOL0     H10090  10.304   0.720   1.708  1.0604  0.1241  0.0286
   75MOL0     H10091  10.729   0.736   1.675  0.3897 -1.0042  2.1226
   75MOL0     H10092  10.719   0.902   1.624  0.0140  0.4143  1.3899
   75MOL0     H10093  10.712   0.987   1.846 -0.6191 -0.1486  1.8434
   75MOL0     H10094  10.657   0.843   1.921  0.0503  2.0517  1.0663
   75MOL0     H10095  10.935   0.888   1.807 -0.8460  0.4267 -1.0931
   75MOL0     H10096  10.872   0.732   1.841  3.2189  1.0091 -3.4473
   75MOL0     H10097  10.859   0.959   2.048 -1.9276  1.1341 -3.4249
   75MOL0     H10098  10.833   0.788   2.082  1.0833 -0.8951 -0.0896
   75MOL0     H10099  11.116   0.901   1.992  1.0704  0.4200  0.8621
   75MOL0     H10100  11.073   0.734   2.004  3.5949  1.9634 -1.2234
   75MOL0     H10101  11.032   0.932   2.237  2.1571 -0.3316  1.0613
   75MOL0     H10102  11.028   0.764   2.254 -0.4898  2.7703  2.4501
   75MOL0     H10103  11.271   0.927   2.207  0.3214 -0.8829 -0.9664
   75MOL0     H10104  11.267   0.749   2.209  2.0741  1.4541 -1.2983
   75MOL0     H10105  11.210   0.740   2.435 -2.9632  1.4074  1.5513
   75MOL0     H10106  11.147   0.899   2.440  0.3313 -0.2790  0.3396
   75MOL0     H10107  10.629   0.806   1.422 -2.1251  2.2910 -4.7633
   75MOL0     H10108  10.485   0.736   1.252  1.6644  0.5046  0.5730
   75MOL0     H10109  10.196   0.292   1.105 -1.1611 -0.5475 -4.1059
   75MOL0     H10110   9.978   0.197   1.006 -2.0046  0.4581  0.2269
   75MOL0     H10111  10.347   1.214   1.264  0.2431  3.4511 -1.9327
   75MOL0     H10112  10.475   1.361   1.445 -1.1722  0.6262  0.4950
   75MOL0     H10113  10.921   1.176   1.805 -1.5181 -0.6150  0.6394
   75MOL0     H10114  10.985   1.285   2.008 -2.4097  0.3411  3.5462
   75MOL0     H10115  11.017   1.397   2.219 -0.4810  0.9489  3.2828
   75MOL0     H10116  11.118   1.485   2.088  0.2679  2.0023  0.5567
   75MOL0     H10117  11.104   1.690   2.214 -0.0019  0.1091 -0.6886
   75MOL0     H10118  11.151   1.583   2.331  0.6034  3.0280  0.1888
   75MOL0     H10119  10.914   1.538   2.388  0.3662 -0.0917 -1.9443
   75MOL0     H10120  10.850   1.667   2.283  0.3759  3.8468 -0.2370
   75MOL0     H10121  10.870   1.775   2.473  1.3881  4.6248  0.9640
   75MOL0     H10122  11.025   1.827   2.415  2.9061 -2.6769  0.6593
   75MOL0     H10123  11.167   1.555   2.693  0.3090 -0.2623 -0.1227
   75MOL0     H10124  10.754   1.638   1.876 -2.5160 -0.5575  0.0602
   75MOL0     H10125  10.671   1.506   1.694  1.6579  2.7097 -1.0958
   76MOL0     O10126   6.125   1.960   6.225 -0.7416  0.0997  0.2329
   76MOL0     C10127   6.244   1.977   6.189 -0.7355 -0.7554  0.1621
   76MOL0     O10128   6.292   2.068   6.098  0.4371 -0.3100  0.4970
   76MOL0     C10129   6.215   2.180   6.079 -0.0078  0.4496  0.9112
   76MOL0     C10130   6.272   2.303   6.098 -0.3981  0.8913  0.3531
   76MOL0     C10131   6.209   2.423   6.075  0.4178 -0.1256 -0.9037
   76MOL0     C10132   6.078   2.430   6.030  0.7576 -1.3091 -0.0185
   76MOL0     O10133   6.016   2.548   6.011  0.1766 -0.3537 -0.2119
   76MOL0     C10134   5.869   2.566   6.021  0.2086  0.3045  0.0982
   76MOL0     C10135   5.820   2.622   5.885 -0.5758 -0.3173 -0.0985
   76MOL0     C10136   5.678   2.674   5.894 -0.6521  0.4466  0.0614
   76MOL0     C10137   5.661   2.777   5.784 -0.2758  0.0058  0.0517
   76MOL0     C10138   5.511   2.837   5.781  0.0959  0.7402 -0.2400
   76MOL0     C10139   5.495   2.946   5.676 -0.3185 -0.8199  2.1437
   76MOL0     C10140   5.530   2.887   5.532 -0.1769 -0.6523 -0.0157
   76MOL0     C10141   5.481   2.983   5.427  0.6478  0.6461 -0.2933
   76MOL0     N10142   5.594   3.075   5.387  0.2085  0.6811 -0.2967
   76MOL0     C10143   5.621   3.198   5.431 -0.3648  0.3149 -0.9146
   76MOL0     C10144   5.737   3.236   5.377 -0.1094  0.0297 -0.8682
   76MOL0     C10145   5.800   3.370   5.394 -0.1721  0.7324  0.3694
   76MOL0     C10146   5.851   3.379   5.536 -0.5607 -1.0299  0.6565
   76MOL0     C10147   5.952   3.271   5.585  0.0941  0.0201 -0.0283
   76MOL0     C10148   5.995   3.290   5.725  1.0306 -0.0186  0.2253
   76MOL0     O10149   6.067   3.175   5.766  1.0573  0.3837 -0.5600
   76MOL0     C10150   6.086   3.154   5.899  0.3228  0.0875 -0.0776
   76MOL0     C10151   6.136   3.028   5.948 -0.2537  0.3909  0.6695
   76MOL0     C10152   6.169   3.001   6.083  0.2434 -0.6220 -0.1660
   76MOL0     C10153   6.218   2.864   6.116  0.8745 -0.0676 -0.2154
   76MOL0     C10154   6.147   3.112   6.175 -1.4482  0.9224  0.0741
   76MOL0     C10155   6.201   3.112   6.313 -0.3993 -0.5224  1.1701
   76MOL0     O10156   6.148   3.206   6.396 -0.1508  0.6532  0.4645
   76MOL0     C10157   6.196   3.250   6.515  0.5222 -0.3330  0.5773
   76MOL0     C10158   6.313   3.204   6.584  0.4181 -0.3217  0.1681
   76MOL0     C10159   6.359   3.245   6.710 -1.0809  0.5265 -0.2267
   76MOL0     C10160   6.295   3.343   6.775  0.4227  0.5137  0.7338
   76MOL0     O10161   6.338   3.398   6.896  0.3463 -0.5777  0.4521
   76MOL0     C10162   6.439   3.346   6.980  0.1970 -0.1770 -0.7378
   76MOL0     C10163   6.401   3.219   7.060  0.2507 -0.1157 -0.3564
   76MOL0     C10164   6.510   3.171   7.155 -0.4260  0.2585 -0.5224
   76MOL0     C10165   6.447   3.082   7.268 -0.1078 -0.3807  0.4773
   76MOL0     C10166   6.554   2.975   7.304  1.0264  0.3105  0.3356
   76MOL0     C10167   6.491   2.869   7.397  0.0425 -0.0135 -0.7769
   76MOL0     C10168   6.572   2.739   7.398 -0.3047  0.7029 -0.3974
   76MOL0     C10169   6.501   2.630   7.465  0.4921 -0.1643  0.1026
   76MOL0    Cl10170   6.485   2.674   7.642  0.1188 -0.0526 -0.4339
   76MOL0     C10171   6.180   3.397   6.721 -0.4466 -0.7247 -0.4021
   76MOL0     C10172   6.133   3.349   6.602 -0.1084  0.8028  0.6176
   76MOL0     O10173   6.305   3.046   6.336 -0.2424 -0.2755 -0.2975
   76MOL0     C10174   6.099   3.235   6.122 -0.8436  1.0429 -0.5984
   76MOL0     C10175   6.073   3.251   5.994  0.6000 -0.1621 -0.1513
   76MOL0     N10176   5.801   3.125   5.330  0.2008  0.4307 -0.0767
   76MOL0     N10177   5.711   3.025   5.333  0.1723 -0.1891 -0.0827
   76MOL0     C10178   6.018   2.308   5.990 -0.7011  0.2852 -0.9721
   76MOL0     C10179   6.086   2.183   6.014 -0.2281 -0.3315 -0.2122
   76MOL0     C10180   6.343   1.884   6.237  0.6460 -1.3407  0.6202
   76MOL0     C10181   6.476   1.880   6.192  0.4362  0.2216 -0.5725
   76MOL0     C10182   6.563   1.792   6.258 -0.0314  1.0941  0.4736
   76MOL0     C10183   6.526   1.701   6.360 -0.1652  0.5031  0.0481
   76MOL0     O10184   6.609   1.605   6.412 -0.4215 -0.2171  0.4839
   76MOL0     C10185   6.756   1.607   6.378  0.1181  0.1539 -0.7144
   76MOL0     C10186   6.820   1.491   6.454  0.6605 -0.6196 -0.6845
   76MOL0     C10187   6.767   1.485   6.603  0.2544  0.5960  0.1562
   76MOL0     C10188   6.797   1.347   6.654 -0.7274 -0.5682  0.2153
   76MOL0     C10189   6.687   1.254   6.640 -0.1586  0.0142 -0.0561
   76MOL0     C10190   6.607   1.161   6.645 -0.0835 -0.2339 -0.5792
   76MOL0     C10191   6.393   1.700   6.398 -0.0558  1.1362  0.8346
   76MOL0     C10192   6.298   1.800   6.345  0.2032  0.5905  1.3723
   76MOL0     H10193   6.368   2.302   6.149  0.7033  3.5480 -1.4667
   76MOL0     H10194   6.254   2.520   6.091  1.0418 -0.1191 -2.4969
   76MOL0     H10195   5.832   2.467   6.050 -3.0465  0.4597 -2.8616
   76MOL0     H10196   5.843   2.639   6.099  1.8433  1.4963 -0.4083
   76MOL0     H10197   5.896   2.688   5.842  1.7534 -2.3111  0.7392
   76MOL0     H10198   5.810   2.531   5.824  0.5335 -0.4389 -0.1150
   76MOL0     H10199   5.603   2.599   5.867 -1.5482  2.1941 -2.7090
   76MOL0     H10200   5.654   2.706   5.996 -4.4998  2.0099 -1.1543
   76MOL0     H10201   5.732   2.860   5.793 -1.8134  1.2049  1.9130
   76MOL0     H10202   5.686   2.740   5.684 -1.2772 -2.0829  0.5001
   76MOL0     H10203   5.447   2.749   5.766  1.6619 -1.0606  2.5593
   76MOL0     H10204   5.484   2.875   5.880  0.6148 -1.8691  1.0135
   76MOL0     H10205   5.386   2.957   5.677 -0.5565 -2.6087  0.9166
   76MOL0     H10206   5.543   3.043   5.686 -2.9522  1.6163 -3.9047
   76MOL0     H10207   5.635   2.858   5.518  0.3051  1.0599 -0.1883
   76MOL0     H10208   5.464   2.801   5.521 -5.1128  2.7109  0.0134
   76MOL0     H10209   5.397   3.036   5.473 -0.9014 -1.8938 -0.0368
   76MOL0     H10210   5.449   2.930   5.338  0.4366  3.3054 -1.9245
   76MOL0     H10211   5.562   3.256   5.501  1.8704 -1.0948  2.3935
   76MOL0     H10212   5.881   3.391   5.324  2.0094  2.2133  3.1638
   76MOL0     H10213   5.722   3.445   5.382  0.0297  1.2145  1.8808
   76MOL0     H10214   5.765   3.367   5.603 -1.5988  2.2370  0.0982
   76MOL0     H10215   5.889   3.481   5.548 -0.7802 -0.5684 -1.8525
   76MOL0     H10216   6.040   3.260   5.521 -1.3459 -0.5398 -2.0076
   76MOL0     H10217   5.907   3.171   5.582 -4.0152  1.6949 -0.6517
   76MOL0     H10218   5.916   3.303   5.800  0.3547  1.2951 -0.6845
   76MOL0     H10219   6.062   3.377   5.723 -2.8645  3.2592 -0.7552
   76MOL0     H10220   6.156   2.945   5.881  1.2593  2.2846 -1.3985
   76MOL0     H10221   6.200   2.846   6.222 -1.1411 -1.6375 -0.7632
   76MOL0     H10222   6.167   2.794   6.048  1.0396  1.3177 -1.8371
   76MOL0     H10223   6.326   2.858   6.099  0.4193  0.4170 -4.2497
   76MOL0     H10224   6.387   3.139   6.538  1.1957  0.8007 -0.2261
   76MOL0     H10225   6.455   3.214   6.749 -1.1326  2.7727  2.0053
   76MOL0     H10226   6.528   3.322   6.920  0.1221 -0.5422 -0.7052
   76MOL0     H10227   6.469   3.425   7.050 -1.0852 -0.9830  0.7702
   76MOL0     H10228   6.316   3.251   7.120  1.5964  3.0378  0.0920
   76MOL0     H10229   6.381   3.135   6.993  1.7284 -1.3945  0.7216
   76MOL0     H10230   6.555   3.259   7.202  0.3868 -1.2008  1.5848
   76MOL0     H10231   6.592   3.123   7.101  3.0873  1.7789  2.9642
   76MOL0     H10232   6.399   3.143   7.344 -1.4822  0.7260 -1.1947
   76MOL0     H10233   6.362   3.035   7.218  0.2532  0.7381 -1.2604
   76MOL0     H10234   6.652   3.012   7.335  1.4044 -2.4483  2.9240
   76MOL0     H10235   6.567   2.927   7.206  2.5474 -0.7182  0.9950
   76MOL0     H10236   6.465   2.909   7.495  2.4861 -0.0263 -0.0605
   76MOL0     H10237   6.398   2.835   7.350  0.7098 -0.6002 -1.7080
   76MOL0     H10238   6.666   2.752   7.452  0.0273 -2.0364 -0.1683
   76MOL0     H10239   6.598   2.713   7.295 -1.1929  2.7033 -1.1813
   76MOL0     H10240   6.557   2.538   7.445 -2.4098 -1.4730 -3.0832
   76MOL0     H10241   6.406   2.619   7.412  1.4319 -2.2811 -1.2768
   76MOL0     H10242   6.133   3.477   6.777 -1.2737 -1.3045 -0.2553
   76MOL0     H10243   6.038   3.385   6.566  0.7435  2.5090 -0.0362
   76MOL0     H10244   6.094   3.322   6.187 -1.2186 -0.0129  0.8501
   76MOL0     H10245   6.034   3.350   5.971  2.1597  0.7967  1.0805
   76MOL0     H10246   5.930   2.299   5.927  1.5442 -1.2148 -4.1991
   76MOL0     H10247   6.047   2.089   5.978  2.8002 -0.8007 -2.8009
   76MOL0     H10248   6.510   1.952   6.118  2.1333  1.9557  1.7652
   76MOL0     H10249   6.667   1.806   6.228 -0.5913 -1.2734 -3.1803
   76MOL0     H10250   6.762   1.597   6.270 -1.2982 -0.4136 -0.7655
   76MOL0     H10251   6.800   1.704   6.404  0.3700  0.0700 -0.8261
   76MOL0     H10252   6.929   1.502   6.448  0.5225 -0.0409 -4.1504
   76MOL0     H10253   6.791   1.398   6.404 -2.2514 -1.7502  2.7121
   76MOL0     H10254   6.659   1.498   6.606 -0.3072 -2.5701 -1.7195
   76MOL0     H10255   6.822   1.560   6.661 -1.9733  1.5880  1.0930
   76MOL0     H10256   6.828   1.368   6.757  1.1879 -0.7283 -0.2908
   76MOL0     H10257   6.883   1.308   6.599 -0.3047  3.6033 -2.5820
   76MOL0     H10258   6.529   1.087   6.649 -1.6771  1.4275  0.7958
   76MOL0     H10259   6.357   1.635   6.476 -0.1626  2.5940  2.0527
   76MOL0     H10260   6.198   1.798   6.388  0.1776 -0.7730  1.2675
   77MOL0     O10261   7.653   9.608   6.715  0.0274  0.0129 -0.4554
   77MOL0     C10262   7.556   9.554   6.659  0.9261 -1.2673  0.4906
   77MOL0     O10263   7.467   9.468   6.713  0.2305 -0.0082  0.2196
   77MOL0     C10264   7.465   9.436   6.843  0.0218  0.1291 -0.4686
   77MOL0     C10265   7.388   9.331   6.892  1.1308 -0.1812  1.0601
   77MOL0     C10266   7.364   9.299   7.030  0.2587  0.7338  0.7119
   77MOL0     C10267   7.414   9.387   7.131  0.2058  0.5208  0.2757
   77MOL0     O10268   7.373   9.376   7.262  0.4562  0.4456 -0.3827
   77MOL0     C10269   7.460   9.420   7.362  0.1922 -1.1648 -0.5267
   77MOL0     C10270   7.404   9.385   7.505  0.1261  0.5105  0.4710
   77MOL0     C10271   7.489   9.447   7.609 -1.0279 -0.6297  0.0753
   77MOL0     C10272   7.456   9.375   7.740 -0.4360 -0.5138 -0.4876
   77MOL0     C10273   7.554   9.406   7.859 -0.3892  0.8118  0.0898
   77MOL0     C10274   7.507   9.327   7.987 -0.8773 -0.8067  0.7660
   77MOL0     C10275   7.604   9.341   8.099  0.0778  0.4574  0.0019
   77MOL0     C10276   7.537   9.292   8.234  1.1556  1.1907 -0.2381
   77MOL0     N10277   7.627   9.248   8.331 -0.5658 -0.4785  0.2276
   77MOL0     C10278   7.649   9.315   8.452 -0.0501 -0.0459  0.2622
   77MOL0     C10279   7.758   9.250   8.504 -0.1510  1.8011  0.2929
   77MOL0     C10280   7.837   9.266   8.627 -0.1629 -0.2000  0.8357
   77MOL0     C10281   7.796   9.176   8.743  0.0217  0.4901  0.5479
   77MOL0     C10282   7.902   9.180   8.859  0.5892  0.7113 -0.0130
   77MOL0     C10283   7.872   9.095   8.982  0.2901  0.5462  0.0503
   77MOL0     O10284   7.978   9.121   9.070 -0.6921  0.5534 -0.9422
   77MOL0     C10285   8.032   9.033   9.161  0.6461 -0.0321  0.0743
   77MOL0     C10286   8.024   8.893   9.168 -0.5744 -0.9750 -0.4315
   77MOL0     C10287   8.102   8.813   9.263  0.1032  0.0729 -0.4422
   77MOL0     C10288   8.097   8.667   9.251 -0.1752  1.0109 -0.0155
   77MOL0     C10289   8.185   8.875   9.359 -0.6756 -0.5867  0.5373
   77MOL0     C10290   8.278   8.804   9.460  0.3649  0.2869  1.0203
   77MOL0     O10291   8.383   8.878   9.502 -0.2271  0.6157  0.8016
   77MOL0     C10292   8.457   8.858   9.613 -0.0093  0.5738 -0.1662
   77MOL0     C10293   8.580   8.924   9.612 -0.1121  0.0262 -0.3310
   77MOL0     C10294   8.662   8.914   9.718 -0.2465  0.4107 -0.2162
   77MOL0     C10295   8.631   8.835   9.831  0.5688  0.1742  1.0748
   77MOL0     O10296   8.716   8.843   9.943 -0.7930  0.2574  0.1766
   77MOL0     C10297   8.697   8.750  10.060 -0.1275  1.1072  0.6354
   77MOL0     C10298   8.761   8.812  10.184 -0.2594 -0.4741  0.6641
   77MOL0     C10299   8.826   8.701  10.261  0.7569 -0.2205 -0.1387
   77MOL0     C10300   8.884   8.759  10.392 -0.8675 -0.7769  1.0062
   77MOL0     C10301   8.937   8.638  10.463  0.4379  0.1469 -0.8036
   77MOL0     C10302   8.986   8.671  10.604  0.4581  0.5339 -0.8959
   77MOL0     C10303   9.016   8.525  10.663 -0.3508  0.9553 -0.5469
   77MOL0     C10304   9.005   8.533  10.813  0.5985  0.2166 -0.3226
   77MOL0    Cl10305   9.105   8.407  10.886 -0.3154 -0.3141  0.2859
   77MOL0     C10306   8.505   8.775   9.831  0.0932  0.4875  0.4803
   77MOL0     C10307   8.422   8.779   9.719  0.7886 -0.0973 -0.5511
   77MOL0     O10308   8.250   8.694   9.502  1.2036 -0.4068 -0.6533
   77MOL0     C10309   8.193   9.014   9.350  0.1154 -0.3221 -0.4868
   77MOL0     C10310   8.117   9.090   9.257 -0.1158 -0.8475 -0.0199
   77MOL0     N10311   7.797   9.150   8.417 -0.5479  0.3231  0.4677
   77MOL0     N10312   7.723   9.159   8.313  0.7824  0.1225 -0.0428
   77MOL0     C10313   7.495   9.495   7.087  0.2031  0.4121  0.4264
   77MOL0     C10314   7.520   9.517   6.955 -0.0071 -0.5192  0.0747
   77MOL0     C10315   7.564   9.584   6.509 -0.9281  0.1014  0.1125
   77MOL0     C10316   7.494   9.506   6.425  0.2919 -0.1200  0.7873
   77MOL0     C10317   7.490   9.524   6.286  0.3062  0.2207 -0.6175
   77MOL0     C10318   7.578   9.622   6.238 -1.0678 -0.5579  1.0160
   77MOL0     O10319   7.595   9.638   6.104  0.7111  0.3498 -0.4380
   77MOL0     C10320   7.717   9.594   6.048  0.9806 -0.2994 -0.4847
   77MOL0     C10321   7.702   9.507   5.928 -0.0492  0.5656  0.2248
   77MOL0     C10322   7.572   9.526   5.865  0.9295  0.0999 -0.1874
   77MOL0     C10323   7.551   9.421   5.758  0.2374 -0.2173 -0.2594
   77MOL0     C10324   7.526   9.287   5.810 -0.2838 -0.9102 -0.4784
   77MOL0     C10325   7.510   9.175   5.848  0.4645  0.0593  0.6165
   77MOL0     C10326   7.664   9.699   6.323 -0.9059  0.4988  0.1219
   77MOL0     C10327   7.657   9.680   6.458 -1.1618  0.0947  0.0312
   77MOL0     H10328   7.334   9.276   6.815 -1.3885  0.6437  2.1496
   77MOL0     H10329   7.303   9.212   7.053  1.4075  0.1986  1.8754
   77MOL0     H10330   7.566   9.395   7.350  0.8170  1.2754 -0.7324
   77MOL0     H10331   7.450   9.529   7.357  1.5806 -0.8421  2.0030
   77MOL0     H10332   7.301   9.421   7.507 -1.2390 -2.6536 -2.4715
   77MOL0     H10333   7.391   9.276   7.505 -3.5613  0.8454  0.7983
   77MOL0     H10334   7.595   9.439   7.581 -1.5172 -1.3678 -1.7348
   77MOL0     H10335   7.456   9.550   7.616 -1.1844 -0.7008  0.3970
   77MOL0     H10336   7.352   9.394   7.768 -0.2755  0.3530 -0.4710
   77MOL0     H10337   7.467   9.269   7.716  0.5273 -0.6352  0.4012
   77MOL0     H10338   7.654   9.384   7.821 -1.1703 -0.3221 -1.4588
   77MOL0     H10339   7.549   9.514   7.874 -1.8583  0.8627 -0.5808
   77MOL0     H10340   7.409   9.367   8.013 -2.2206 -1.1004 -3.0958
   77MOL0     H10341   7.493   9.224   7.951  0.1396 -1.3599  1.8861
   77MOL0     H10342   7.693   9.280   8.080  1.6754  1.8165  2.4362
   77MOL0     H10343   7.631   9.447   8.104 -0.4958  0.5488  1.7042
   77MOL0     H10344   7.465   9.211   8.217  3.2397 -0.5314 -1.4339
   77MOL0     H10345   7.465   9.369   8.262 -0.4786  0.3463 -1.9044
   77MOL0     H10346   7.589   9.388   8.504 -0.4518  0.6779 -1.1639
   77MOL0     H10347   7.936   9.230   8.598 -0.0218  1.5990 -1.0969
   77MOL0     H10348   7.845   9.373   8.649  5.5553  0.4090 -2.1196
   77MOL0     H10349   7.785   9.073   8.707  1.3348  1.2060 -2.2279
   77MOL0     H10350   7.694   9.200   8.775  0.1436  2.3499 -0.3223
   77MOL0     H10351   7.912   9.287   8.882 -2.3399  1.1350 -0.3078
   77MOL0     H10352   7.998   9.133   8.835  0.4634 -0.1463  1.1091
   77MOL0     H10353   7.863   8.988   8.960 -3.4399  0.2338  2.1680
   77MOL0     H10354   7.777   9.117   9.032  1.5260  1.5261  2.0550
   77MOL0     H10355   7.973   8.830   9.096  0.4234 -1.3716 -0.8215
   77MOL0     H10356   8.046   8.628   9.340  2.4597 -0.1667  1.0670
   77MOL0     H10357   8.051   8.630   9.158  1.9147  0.6310 -0.9472
   77MOL0     H10358   8.202   8.637   9.263  0.1287  1.6421 -1.0161
   77MOL0     H10359   8.609   8.990   9.531 -1.8527  0.7873 -0.3802
   77MOL0     H10360   8.749   8.978   9.726 -0.2318  0.1823  1.8103
   77MOL0     H10361   8.595   8.715  10.077  1.1649 -3.0571  0.8819
   77MOL0     H10362   8.752   8.658  10.037 -0.5005  0.2714  2.8557
   77MOL0     H10363   8.840   8.880  10.151 -1.5416 -0.2917 -2.4617
   77MOL0     H10364   8.688   8.864  10.246  2.3287  3.3248  0.8201
   77MOL0     H10365   8.914   8.657  10.214  0.5800 -0.3095 -0.3877
   77MOL0     H10366   8.747   8.626  10.274  0.0339  0.8005  1.8876
   77MOL0     H10367   8.968   8.827  10.377  1.0667 -2.9347  1.5088
   77MOL0     H10368   8.810   8.820  10.445 -1.5557 -1.1654  0.5118
   77MOL0     H10369   9.009   8.583  10.401 -0.4278 -1.5633 -0.3510
   77MOL0     H10370   8.861   8.560  10.475  1.9758 -1.4415 -0.7984
   77MOL0     H10371   9.077   8.732  10.599  1.4256 -0.3776  2.6442
   77MOL0     H10372   8.915   8.726  10.666  2.6716  2.6550 -0.0648
   77MOL0     H10373   9.116   8.488  10.639  0.2934 -0.4777  3.4944
   77MOL0     H10374   8.943   8.451  10.629 -0.2310  1.3597 -1.7294
   77MOL0     H10375   8.908   8.509  10.858  1.2668  2.2691  2.5539
   77MOL0     H10376   9.022   8.636  10.847  0.8430  0.3348 -0.7998
   77MOL0     H10377   8.466   8.715   9.912  0.2538  1.0400  0.9720
   77MOL0     H10378   8.329   8.724   9.711  0.1554  0.5088  1.9131
   77MOL0     H10379   8.244   9.074   9.425 -1.0599  0.0700  0.0306
   77MOL0     H10380   8.126   9.198   9.263  1.5530 -0.7445 -2.6553
   77MOL0     H10381   7.523   9.577   7.153  0.2998  1.4615 -0.8787
   77MOL0     H10382   7.559   9.617   6.937  1.4298 -0.5256  2.6878
   77MOL0     H10383   7.428   9.428   6.463  0.2072 -0.1408  0.6001
   77MOL0     H10384   7.442   9.453   6.220  0.1984 -1.2272  0.9383
   77MOL0     H10385   7.766   9.690   6.029  1.1892  1.0584  5.1010
   77MOL0     H10386   7.767   9.534   6.124 -0.8957 -1.2806  0.0262
   77MOL0     H10387   7.727   9.411   5.973  0.1796  0.6777  0.3370
   77MOL0     H10388   7.783   9.531   5.860 -0.1310 -1.2466 -0.5424
   77MOL0     H10389   7.577   9.623   5.816 -1.4445  0.5072  0.2253
   77MOL0     H10390   7.480   9.526   5.925 -0.9585 -0.6898 -2.8712
   77MOL0     H10391   7.636   9.416   5.688 -0.3458  2.2674 -1.2748
   77MOL0     H10392   7.460   9.444   5.701  0.5186  1.9160  0.0410
   77MOL0     H10393   7.508   9.075   5.887 -0.1896  0.8978  2.9230
   77MOL0     H10394   7.741   9.769   6.291  1.2238 -1.6071  0.3860
   77MOL0     H10395   7.715   9.743   6.525 -1.2650  1.7288 -1.3431
   78MOL0     O10396   6.315   8.781  10.274  0.1338  0.3823  0.2762
   78MOL0     C10397   6.245   8.707  10.334 -0.1226  0.3482  0.0627
   78MOL0     O10398   6.211   8.574  10.306 -0.5133  0.4620 -0.9826
   78MOL0     C10399   6.269   8.497  10.210  0.0155 -1.0547  0.0329
   78MOL0     C10400   6.215   8.363  10.199 -0.8545  0.1955 -0.1644
   78MOL0     C10401   6.234   8.279  10.093 -0.4025  0.2321  0.5979
   78MOL0     C10402   6.308   8.322   9.984  0.0653 -0.2101  0.2525
   78MOL0     O10403   6.324   8.239   9.880 -0.5927  0.2986 -0.2949
   78MOL0     C10404   6.357   8.103   9.918  0.1257  0.0028 -0.0299
   78MOL0     C10405   6.440   8.036   9.806  0.1406  1.0934  1.0086
   78MOL0     C10406   6.351   8.018   9.670 -0.3940 -0.7872 -1.3455
   78MOL0     C10407   6.395   7.905   9.582  0.3959  0.5894 -0.8257
   78MOL0     C10408   6.278   7.867   9.500  0.5207  0.5581 -0.0834
   78MOL0     C10409   6.319   7.745   9.420  0.3803 -0.5017  0.1870
   78MOL0     C10410   6.203   7.722   9.308  0.3103 -1.1369 -0.7010
   78MOL0     C10411   6.248   7.644   9.187  0.2295 -0.0837 -0.0773
   78MOL0     N10412   6.263   7.505   9.211  0.3061  0.3202 -0.1598
   78MOL0     C10413   6.172   7.422   9.146 -0.2100  0.8380  0.1252
   78MOL0     C10414   6.236   7.305   9.164  0.0076 -0.0182  0.7469
   78MOL0     C10415   6.172   7.172   9.134  0.4938  0.0450  0.1488
   78MOL0     C10416   6.204   7.109   8.994  0.2714 -0.4671 -0.8290
   78MOL0     C10417   6.146   7.172   8.878 -0.0769 -0.4245 -0.0988
   78MOL0     C10418   6.176   7.086   8.763 -0.7562 -0.9270 -0.2760
   78MOL0     O10419   6.182   7.165   8.643  0.3042  0.7562  0.0513
   78MOL0     C10420   6.213   7.099   8.528 -0.8645  0.2061  0.3036
   78MOL0     C10421   6.239   7.173   8.413 -0.6253 -0.0599 -0.9124
   78MOL0     C10422   6.259   7.114   8.287 -0.2109 -0.7424  0.3454
   78MOL0     C10423   6.268   7.207   8.174  0.1265 -0.6949 -0.3450
   78MOL0     C10424   6.261   6.974   8.278  0.4484  0.0004 -0.7778
   78MOL0     C10425   6.252   6.891   8.147 -0.1817 -0.9890 -0.8648
   78MOL0     O10426   6.290   6.957   8.031 -0.0103 -0.5653 -0.0517
   78MOL0     C10427   6.320   6.882   7.917 -0.0334 -0.8557 -0.3779
   78MOL0     C10428   6.374   6.751   7.911  0.2873 -0.1670  0.5581
   78MOL0     C10429   6.412   6.694   7.791 -0.3615  0.7780 -0.2381
   78MOL0     C10430   6.389   6.757   7.666 -0.2604 -1.4094 -0.1288
   78MOL0     O10431   6.432   6.705   7.543  0.3310 -0.1624 -0.2467
   78MOL0     C10432   6.432   6.560   7.538 -0.5970 -0.2338 -0.4852
   78MOL0     C10433   6.425   6.524   7.396  0.2702  0.0855  0.7387
   78MOL0     C10434   6.407   6.371   7.376 -1.3871 -0.9355  0.2485
   78MOL0     C10435   6.398   6.345   7.228 -0.3502  0.2935 -0.3091
   78MOL0     C10436   6.353   6.203   7.204  0.6724  0.7524 -0.0810
   78MOL0     C10437   6.200   6.188   7.202 -0.1481 -0.1283  0.0939
   78MOL0     C10438   6.158   6.058   7.140 -0.2972  0.7718 -0.9752
   78MOL0     C10439   6.021   6.072   7.083  0.3087 -0.0522  0.2252
   78MOL0    Cl10440   6.034   6.184   6.939 -0.0018 -0.0667  0.0849
   78MOL0     C10441   6.332   6.878   7.676  0.3956  0.4949  0.0825
   78MOL0     C10442   6.303   6.941   7.796  0.9073 -0.3000  0.3384
   78MOL0     O10443   6.230   6.770   8.156 -0.6888 -0.1073 -0.3986
   78MOL0     C10444   6.255   6.899   8.392 -0.7367 -0.4886 -1.0925
   78MOL0     C10445   6.229   6.956   8.519 -0.3172  0.7298 -0.0389
   78MOL0     N10446   6.358   7.318   9.228  0.2884  0.5105 -0.5748
   78MOL0     N10447   6.369   7.442   9.263 -0.0586  0.0524 -0.7893
   78MOL0     C10448   6.357   8.457   9.986  0.3639  0.8265 -0.5547
   78MOL0     C10449   6.345   8.541  10.097  0.0233  0.4183 -0.0657
   78MOL0     C10450   6.157   8.771  10.432 -0.5921  0.3698 -0.3027
   78MOL0     C10451   6.167   8.908  10.451 -0.2286 -0.0329  0.2774
   78MOL0     C10452   6.088   8.974  10.547  0.2587  0.8510 -0.0701
   78MOL0     C10453   6.011   8.895  10.633  0.1811  0.1497  0.3968
   78MOL0     O10454   5.917   8.949  10.718  0.7066 -0.3874 -1.0744
   78MOL0     C10455   5.902   9.095  10.730 -0.3051  0.8047  0.5493
   78MOL0     C10456   5.844   9.127  10.865 -0.1791 -0.5522  0.6895
   78MOL0     C10457   5.695   9.075  10.865 -0.8670  0.0447  0.0801
   78MOL0     C10458   5.610   9.138  10.978 -0.6723  0.0286 -0.7741
   78MOL0     C10459   5.492   9.052  10.972  0.0389 -0.7943 -1.2552
   78MOL0     C10460   5.387   8.998  10.963  0.4712  0.3856 -0.3733
   78MOL0     C10461   6.002   8.754  10.610  1.3049 -0.0243  1.3205
   78MOL0     C10462   6.073   8.690  10.509 -0.7430  0.2070  0.5101
   78MOL0     H10463   6.152   8.328  10.281 -1.4632 -1.6471 -1.3661
   78MOL0     H10464   6.179   8.185  10.091 -1.5499  0.8157  2.3470
   78MOL0     H10465   6.417   8.100  10.009 -2.6883 -2.7349  1.9402
   78MOL0     H10466   6.280   8.027   9.931  0.9153 -0.5608  1.6111
   78MOL0     H10467   6.536   8.083   9.782  1.1246 -1.5526 -0.6768
   78MOL0     H10468   6.473   7.941   9.849 -0.3728 -0.3736 -1.6760
   78MOL0     H10469   6.252   7.984   9.701 -0.1402 -1.6215 -1.4358
   78MOL0     H10470   6.345   8.117   9.623 -2.0092 -0.6490 -0.9145
   78MOL0     H10471   6.476   7.931   9.513  1.2716 -0.0678 -0.0720
   78MOL0     H10472   6.435   7.822   9.640 -0.3095  0.4379 -0.5507
   78MOL0     H10473   6.182   7.846   9.550  0.1480  2.8615  0.2828
   78MOL0     H10474   6.259   7.945   9.426  0.3039  0.5120 -0.0785
   78MOL0     H10475   6.407   7.778   9.363 -0.5116  1.9225  0.0596
   78MOL0     H10476   6.329   7.652   9.475 -2.8810 -1.7903 -1.1633
   78MOL0     H10477   6.106   7.683   9.339 -0.0736  0.8792  0.8710
   78MOL0     H10478   6.173   7.820   9.269  2.4042 -0.3496 -0.4858
   78MOL0     H10479   6.343   7.688   9.154 -1.2659  1.7068 -2.3184
   78MOL0     H10480   6.173   7.673   9.114  0.8875  0.8712 -0.4011
   78MOL0     H10481   6.072   7.436   9.107 -0.5788  0.2236  0.8182
   78MOL0     H10482   6.208   7.102   9.210 -2.1347 -1.1846  0.3466
   78MOL0     H10483   6.064   7.180   9.145  0.6914  2.0894  1.0602
   78MOL0     H10484   6.156   7.011   8.983 -0.9495  0.2679 -2.5431
   78MOL0     H10485   6.313   7.105   8.985  0.3346  1.3392 -1.1495
   78MOL0     H10486   6.194   7.269   8.864 -1.9830  0.5453 -0.3511
   78MOL0     H10487   6.037   7.182   8.888 -0.4830 -3.6083 -0.3528
   78MOL0     H10488   6.103   7.005   8.755  0.9271 -2.8834  2.4897
   78MOL0     H10489   6.274   7.042   8.783 -1.9636 -3.2778  0.7742
   78MOL0     H10490   6.216   7.279   8.418  0.9074  0.2997 -0.9156
   78MOL0     H10491   6.185   7.182   8.107 -1.2934  1.0373  0.6834
   78MOL0     H10492   6.257   7.307   8.217 -0.1844 -0.7737 -0.2358
   78MOL0     H10493   6.365   7.195   8.125  0.3926 -3.0924  0.5869
   78MOL0     H10494   6.402   6.697   8.001  1.6591  0.4011  0.4883
   78MOL0     H10495   6.463   6.599   7.776  1.2274  1.8427 -2.1668
   78MOL0     H10496   6.534   6.538   7.569  0.4606  2.6459 -1.6225
   78MOL0     H10497   6.357   6.502   7.593  1.4504 -2.8297 -0.1901
   78MOL0     H10498   6.333   6.567   7.356  1.5056  0.9038 -1.4108
   78MOL0     H10499   6.513   6.562   7.343  2.1774 -3.9993  0.5789
   78MOL0     H10500   6.321   6.328   7.428 -1.1227 -1.3436  0.3529
   78MOL0     H10501   6.502   6.332   7.415  0.8866  2.3145 -1.5567
   78MOL0     H10502   6.339   6.425   7.180  1.0955  1.3634 -0.3741
   78MOL0     H10503   6.501   6.358   7.194  0.5942 -0.2263  2.1751
   78MOL0     H10504   6.396   6.132   7.275  0.2150  0.6279  0.0819
   78MOL0     H10505   6.399   6.182   7.107  1.2341 -0.7821  0.4851
   78MOL0     H10506   6.161   6.187   7.304  0.5028 -4.1304  0.4593
   78MOL0     H10507   6.158   6.276   7.153 -0.5375  1.2398  2.7036
   78MOL0     H10508   6.150   5.985   7.221  0.5768  1.8212  0.0812
   78MOL0     H10509   6.236   6.033   7.066  0.6047 -2.4226  0.8426
   78MOL0     H10510   5.942   6.108   7.151 -0.5929  1.1061 -1.3575
   78MOL0     H10511   5.995   5.971   7.049  2.6103 -0.4962 -0.3839
   78MOL0     H10512   6.334   6.927   7.579 -1.3941 -0.2882 -0.3966
   78MOL0     H10513   6.288   7.048   7.799 -0.2099 -0.4706  2.1679
   78MOL0     H10514   6.266   6.791   8.395 -0.6826 -0.4627 -0.0857
   78MOL0     H10515   6.223   6.886   8.601  0.2265 -1.5556 -1.8427
   78MOL0     H10516   6.407   8.500   9.900  0.1412  1.9731 -0.1297
   78MOL0     H10517   6.388   8.640  10.088 -0.1254  0.4652 -0.2560
   78MOL0     H10518   6.233   8.968  10.389 -1.0716  1.8692  1.1690
   78MOL0     H10519   6.086   9.082  10.541  1.0588  0.8032 -2.0125
   78MOL0     H10520   6.000   9.141  10.714 -0.3693  0.8202  0.1706
   78MOL0     H10521   5.844   9.130  10.643  2.0709 -2.5077 -2.6927
   78MOL0     H10522   5.858   9.233  10.886  0.4803 -0.8487  1.8303
   78MOL0     H10523   5.897   9.066  10.938 -1.2684 -3.5247 -0.8184
   78MOL0     H10524   5.699   8.966  10.878 -1.2221 -0.0546 -0.5647
   78MOL0     H10525   5.642   9.088  10.770 -0.3457 -1.1665 -0.4051
   78MOL0     H10526   5.572   9.240  10.965 -1.7493 -0.3697 -0.9158
   78MOL0     H10527   5.668   9.126  11.070  1.5736  1.7635 -1.8726
   78MOL0     H10528   5.308   8.926  10.957  0.2757  0.4037  1.5315
   78MOL0     H10529   5.927   8.696  10.663 -1.8510  3.3407  0.9271
   78MOL0     H10530   6.079   8.582  10.502 -0.9338  0.1026  1.7198
   79MOL0     O10531   7.903   3.095   4.544  0.2383  0.2739 -0.2271
   79MOL0     C10532   8.000   3.090   4.614 -0.3822 -0.0996  0.1114
   79MOL0     O10533   8.058   3.185   4.688  0.4929  0.9244  0.1600
   79MOL0     C10534   8.015   3.309   4.690  0.1509 -0.5125  0.0225
   79MOL0     C10535   7.900   3.370   4.616  0.1762 -0.6471  0.6275
   79MOL0     C10536   7.867   3.506   4.641  0.4368  0.7549 -1.1925
   79MOL0     C10537   7.950   3.589   4.722 -0.2808 -0.1712  0.1043
   79MOL0     O10538   7.913   3.716   4.743  0.7141 -1.0385 -0.0794
   79MOL0     C10539   7.850   3.802   4.650 -0.0230 -1.0897  0.3438
   79MOL0     C10540   7.804   3.945   4.714  0.2421 -0.1366  0.1084
   79MOL0     C10541   7.704   4.036   4.629 -0.1199  0.1830  0.5014
   79MOL0     C10542   7.717   4.016   4.474  1.0833  0.4943  0.8338
   79MOL0     C10543   7.586   4.048   4.403  0.3798  0.6418 -0.0874
   79MOL0     C10544   7.618   4.061   4.253  0.6247  0.9956 -0.2951
   79MOL0     C10545   7.489   4.104   4.162 -0.0403 -0.2488  0.5772
   79MOL0     C10546   7.524   4.130   4.015 -0.3835  0.1629 -0.6388
   79MOL0     N10547   7.579   4.008   3.950 -0.8102  0.0594  0.7005
   79MOL0     C10548   7.701   4.018   3.893 -0.1979 -0.6806 -0.6421
   79MOL0     C10549   7.738   3.890   3.858  0.0799  0.1187  0.1195
   79MOL0     C10550   7.855   3.839   3.788 -1.0079 -0.3729 -0.3070
   79MOL0     C10551   7.891   3.936   3.678  0.1513 -0.0068  0.8557
   79MOL0     C10552   7.967   3.876   3.563 -0.2104 -0.3261  0.0061
   79MOL0     C10553   7.959   3.956   3.426  0.2252  0.2204  0.0461
   79MOL0     O10554   8.028   4.084   3.444  0.4681  0.2173 -0.1847
   79MOL0     C10555   8.158   4.080   3.480 -0.3382  1.4796  0.2104
   79MOL0     C10556   8.256   4.027   3.396  0.0008 -0.5786 -0.7897
   79MOL0     C10557   8.391   4.008   3.435  0.8505  0.2343  0.0357
   79MOL0     C10558   8.456   3.886   3.369 -0.4237 -0.4541  0.4015
   79MOL0     C10559   8.426   4.057   3.563 -1.1287 -0.7249 -1.2746
   79MOL0     C10560   8.556   4.048   3.632 -0.4465 -0.6910 -0.1132
   79MOL0     O10561   8.642   3.943   3.596 -0.4458 -1.0492 -0.1641
   79MOL0     C10562   8.754   3.917   3.673  0.3237  0.2642  0.2170
   79MOL0     C10563   8.745   3.883   3.811 -0.6204  0.3543 -0.2421
   79MOL0     C10564   8.860   3.878   3.889  0.1292  0.9464  0.0132
   79MOL0     C10565   8.993   3.885   3.835  0.6991  0.6749  0.5104
   79MOL0     O10566   9.103   3.868   3.916  0.5159  0.2393 -0.4927
   79MOL0     C10567   9.233   3.882   3.860  0.2792  0.5532 -0.0855
   79MOL0     C10568   9.340   3.832   3.967  0.3760 -0.4409  0.1181
   79MOL0     C10569   9.469   3.769   3.899  0.3943 -0.2138 -0.1069
   79MOL0     C10570   9.597   3.806   3.988  0.1622  0.0137 -0.0534
   79MOL0     C10571   9.715   3.770   3.909 -0.0007 -0.4140  0.2476
   79MOL0     C10572   9.847   3.781   3.983 -0.7304  0.4000 -0.1464
   79MOL0     C10573   9.954   3.713   3.900 -0.1414  0.2078 -0.0377
   79MOL0     C10574  10.093   3.722   3.965  0.1148 -0.5919 -0.2220
   79MOL0    Cl10575  10.201   3.634   3.849 -0.5589  0.1424 -0.3720
   79MOL0     C10576   8.999   3.900   3.695 -1.0203  0.2358  0.2764
   79MOL0     C10577   8.880   3.943   3.627 -0.5208  0.0774 -0.2922
   79MOL0     O10578   8.566   4.132   3.727 -0.4372 -0.3160 -0.9563
   79MOL0     C10579   8.334   4.156   3.617  0.0968  0.4723 -0.3602
   79MOL0     C10580   8.194   4.151   3.588 -0.5573 -0.5902  0.0666
   79MOL0     N10581   7.638   3.812   3.911 -0.0551 -0.6948 -0.0366
   79MOL0     N10582   7.543   3.880   3.964 -0.4158 -0.1908 -0.3445
   79MOL0     C10583   8.058   3.535   4.786  0.6630  0.2902  0.4273
   79MOL0     C10584   8.090   3.394   4.770 -0.1963 -0.2521  0.2270
   79MOL0     C10585   8.073   2.963   4.616 -0.4474  0.1311 -1.0488
   79MOL0     C10586   8.213   2.944   4.648 -0.2498 -0.1584 -0.4215
   79MOL0     C10587   8.274   2.817   4.646 -0.2581 -0.0486  0.0276
   79MOL0     C10588   8.207   2.702   4.613  0.2654 -0.0522  0.1959
   79MOL0     O10589   8.263   2.578   4.619  0.4394  0.0884 -0.3959
   79MOL0     C10590   8.395   2.572   4.658 -0.4342 -0.0935 -0.2829
   79MOL0     C10591   8.432   2.424   4.683 -0.1563  0.2571 -0.4828
   79MOL0     C10592   8.577   2.382   4.712  1.1007  0.0174 -0.5841
   79MOL0     C10593   8.609   2.422   4.854  0.9153 -0.1945 -0.5786
   79MOL0     C10594   8.754   2.399   4.877  0.7041 -0.4466  0.9399
   79MOL0     C10595   8.877   2.378   4.888  0.9457 -0.4713  0.1193
   79MOL0     C10596   8.076   2.719   4.573  0.8767  0.4945  0.5691
   79MOL0     C10597   8.008   2.843   4.575  0.2781 -0.5162  0.4404
   79MOL0     H10598   7.834   3.313   4.552  0.9571 -3.3595  2.0315
   79MOL0     H10599   7.781   3.543   4.586 -2.3722  1.3306  3.1153
   79MOL0     H10600   7.910   3.815   4.560 -2.6799  1.7813 -1.2196
   79MOL0     H10601   7.758   3.754   4.616 -0.0087 -0.4408 -0.6690
   79MOL0     H10602   7.757   3.936   4.812  0.6349  1.1901  0.4319
   79MOL0     H10603   7.896   4.002   4.730  2.0099 -3.0100  0.9994
   79MOL0     H10604   7.604   4.012   4.666  0.1036  0.4533  1.3200
   79MOL0     H10605   7.712   4.142   4.657 -1.5395  0.6485 -0.7475
   79MOL0     H10606   7.802   4.077   4.442 -0.6708  3.2718  1.1094
   79MOL0     H10607   7.746   3.918   4.436 -0.1717  0.3743  0.1400
   79MOL0     H10608   7.512   3.968   4.417  1.7940 -0.5152  1.1987
   79MOL0     H10609   7.543   4.141   4.441  1.6802  0.6623  1.4947
   79MOL0     H10610   7.703   4.128   4.237  3.0941 -1.5748  1.2582
   79MOL0     H10611   7.648   3.961   4.222  1.0581  0.9016  0.4186
   79MOL0     H10612   7.423   4.017   4.171 -1.9476  0.8456 -1.5814
   79MOL0     H10613   7.444   4.192   4.208 -0.3182 -2.1584  4.3149
   79MOL0     H10614   7.593   4.215   4.018 -1.7870  1.2990  0.6255
   79MOL0     H10615   7.427   4.144   3.966 -0.6120  0.5874 -0.0731
   79MOL0     H10616   7.751   4.111   3.868 -0.4242 -0.9098 -2.0392
   79MOL0     H10617   7.934   3.804   3.855 -2.2178 -2.5353  0.1136
   79MOL0     H10618   7.819   3.739   3.762 -1.8436 -0.9311  2.6307
   79MOL0     H10619   7.944   4.023   3.719 -2.3558  2.0166  0.1066
   79MOL0     H10620   7.793   3.976   3.650 -0.8089 -2.0833  1.0586
   79MOL0     H10621   7.910   3.784   3.545  0.0178 -0.6165  0.7230
   79MOL0     H10622   8.063   3.848   3.606 -0.0425 -0.3321 -0.3745
   79MOL0     H10623   7.865   3.984   3.379  0.9629  0.7199 -1.2051
   79MOL0     H10624   8.008   3.902   3.344 -0.7779 -2.8895  1.3716
   79MOL0     H10625   8.204   3.982   3.312 -1.1696  2.4021 -1.8159
   79MOL0     H10626   8.517   3.828   3.439  1.4361  0.1608 -0.6292
   79MOL0     H10627   8.383   3.820   3.323 -0.4465  2.9151 -5.2302
   79MOL0     H10628   8.523   3.906   3.285 -0.0935  0.9464  0.9558
   79MOL0     H10629   8.645   3.874   3.853 -2.1443  1.9428 -3.2072
   79MOL0     H10630   8.848   3.856   3.995 -0.2244  2.2817  0.2738
   79MOL0     H10631   9.243   3.819   3.771 -1.3760  0.4486 -0.2358
   79MOL0     H10632   9.241   3.986   3.827 -1.4980  1.3355  1.6617
   79MOL0     H10633   9.364   3.927   4.017 -2.7384  0.9406 -0.7366
   79MOL0     H10634   9.303   3.767   4.046  0.0329 -2.6210 -1.7243
   79MOL0     H10635   9.492   3.811   3.801 -0.4689 -0.3846 -0.3932
   79MOL0     H10636   9.455   3.661   3.893  1.0421 -0.3512  0.7467
   79MOL0     H10637   9.604   3.913   4.010 -0.4562  0.0662 -0.0777
   79MOL0     H10638   9.600   3.750   4.082  1.0188 -2.2683 -1.3647
   79MOL0     H10639   9.721   3.833   3.820 -2.2661 -0.6350 -0.1291
   79MOL0     H10640   9.691   3.668   3.877  5.4645 -2.2522  0.9630
   79MOL0     H10641   9.867   3.888   3.988 -2.0200  0.6356  0.2401
   79MOL0     H10642   9.836   3.745   4.086 -0.3364  0.1810 -0.1775
   79MOL0     H10643   9.948   3.765   3.804 -3.4505  0.2125  0.0743
   79MOL0     H10644   9.921   3.611   3.876 -0.9236  0.3880  0.2411
   79MOL0     H10645  10.085   3.675   4.063 -3.2045 -0.8962 -0.5276
   79MOL0     H10646  10.126   3.826   3.965  0.3343 -0.6075 -2.4646
   79MOL0     H10647   9.089   3.897   3.634 -1.2433 -0.2940 -0.0302
   79MOL0     H10648   8.887   3.985   3.527 -2.7420  2.0185  0.2714
   79MOL0     H10649   8.363   4.212   3.705 -0.9475  0.1861  0.1786
   79MOL0     H10650   8.121   4.206   3.646  1.1129  2.5753 -0.5639
   79MOL0     H10651   8.116   3.600   4.851 -1.0343  2.1412  0.1735
   79MOL0     H10652   8.174   3.352   4.823  0.0699 -1.3189 -0.9832
   79MOL0     H10653   8.284   3.023   4.666 -0.0519  0.3666 -3.0599
   79MOL0     H10654   8.381   2.814   4.662 -0.3249 -1.7963  0.3891
   79MOL0     H10655   8.465   2.618   4.587 -1.7800 -0.4539 -1.9227
   79MOL0     H10656   8.419   2.621   4.753  1.7309  1.3861 -1.5025
   79MOL0     H10657   8.409   2.377   4.587 -0.7902  2.1403 -1.2978
   79MOL0     H10658   8.380   2.376   4.767  1.6661 -0.4466  0.2867
   79MOL0     H10659   8.644   2.440   4.648  1.1479  2.3421  1.4171
   79MOL0     H10660   8.599   2.275   4.708 -0.4624 -0.3473 -0.1175
   79MOL0     H10661   8.543   2.364   4.919 -0.3026 -1.4555 -2.8305
   79MOL0     H10662   8.579   2.525   4.876 -0.3949 -0.5668 -0.5936
   79MOL0     H10663   8.976   2.338   4.901  1.0355 -0.4750 -0.5268
   79MOL0     H10664   8.005   2.640   4.550  1.1152  0.3451  0.3341
   79MOL0     H10665   7.905   2.843   4.539  0.3338 -0.8025  0.2823
   80MOL0     O10666   3.713   4.174   1.792 -0.3357  1.7910 -0.5894
   80MOL0     C10667   3.655   4.095   1.725 -1.2473  0.2354  0.9900
   80MOL0     O10668   3.615   3.971   1.763 -0.3594 -0.5241 -0.8965
   80MOL0     C10669   3.661   3.919   1.884 -0.1824 -0.5731  1.1755
   80MOL0     C10670   3.782   3.942   1.940  0.0208  0.0497  0.3611
   80MOL0     C10671   3.823   3.871   2.057 -0.5174 -0.2488  0.1516
   80MOL0     C10672   3.745   3.770   2.118 -0.4032  0.3876  0.0461
   80MOL0     O10673   3.792   3.710   2.233  0.5301  0.7391 -0.2681
   80MOL0     C10674   3.782   3.566   2.235 -0.5206 -0.0478  0.1126
   80MOL0     C10675   3.782   3.517   2.383  0.1251 -0.9773 -0.9105
   80MOL0     C10676   3.681   3.605   2.466  0.1924  0.0016  0.6610
   80MOL0     C10677   3.649   3.568   2.612  0.4584  0.1502 -0.3692
   80MOL0     C10678   3.574   3.430   2.615 -0.3300 -0.4602 -0.3523
   80MOL0     C10679   3.526   3.386   2.753  0.1703 -0.2719  0.0088
   80MOL0     C10680   3.409   3.286   2.760  0.5562  0.0678  0.2090
   80MOL0     C10681   3.315   3.309   2.885 -0.4800  0.1269  0.1352
   80MOL0     N10682   3.243   3.443   2.904 -0.5509 -0.1194  0.5415
   80MOL0     C10683   3.159   3.486   2.803 -0.9470 -0.2494 -0.5856
   80MOL0     C10684   3.138   3.619   2.826  0.7939  0.2400 -0.4426
   80MOL0     C10685   3.086   3.717   2.724  0.8890  0.1336  0.3681
   80MOL0     C10686   3.205   3.773   2.636  0.0716  0.6949  0.2003
   80MOL0     C10687   3.287   3.884   2.717  0.3097  0.2825 -1.0514
   80MOL0     C10688   3.426   3.925   2.653  0.5003 -0.4467 -0.8267
   80MOL0     O10689   3.418   3.934   2.511  0.4933  0.2093  0.7459
   80MOL0     C10690   3.384   4.052   2.444 -0.5384 -0.5476 -0.1677
   80MOL0     C10691   3.427   4.069   2.311 -0.0161  0.5421  0.2181
   80MOL0     C10692   3.393   4.186   2.235  0.1332  0.0385 -1.3240
   80MOL0     C10693   3.452   4.179   2.097 -0.0837  0.7331 -0.1120
   80MOL0     C10694   3.330   4.299   2.295  0.3996  0.0293  0.1648
   80MOL0     C10695   3.316   4.428   2.218  0.4021 -0.5103 -0.4043
   80MOL0     O10696   3.269   4.537   2.288 -0.0260 -0.0620 -0.7227
   80MOL0     C10697   3.244   4.656   2.221  0.2018 -0.5774  0.2144
   80MOL0     C10698   3.343   4.753   2.235 -0.3885 -0.5931  0.7205
   80MOL0     C10699   3.329   4.871   2.158  0.1063 -0.5736  0.2716
   80MOL0     C10700   3.211   4.903   2.084  0.0300 -0.2859 -1.1174
   80MOL0     O10701   3.176   5.032   2.047  0.2121 -0.0901  0.7052
   80MOL0     C10702   3.279   5.133   2.057 -0.2121  0.3175  0.2272
   80MOL0     C10703   3.254   5.242   1.951  0.6104 -0.4443 -0.0880
   80MOL0     C10704   3.353   5.358   1.968  1.0351  0.3161 -0.4887
   80MOL0     C10705   3.331   5.452   1.856 -0.4352 -0.1586 -0.3422
   80MOL0     C10706   3.240   5.571   1.885  0.1172 -0.4420  0.7614
   80MOL0     C10707   3.250   5.695   1.795  0.1506  0.0749 -0.5201
   80MOL0     C10708   3.204   5.828   1.859  1.1083 -0.6812 -0.3364
   80MOL0     C10709   3.201   5.949   1.762  0.2579 -0.3895 -0.5154
   80MOL0    Cl10710   3.165   6.092   1.866  0.0764  0.3510  0.6215
   80MOL0     C10711   3.116   4.809   2.076  0.3279  0.9165 -0.9656
   80MOL0     C10712   3.132   4.687   2.140  0.2819  0.8242 -0.3918
   80MOL0     O10713   3.346   4.438   2.097  0.5172  1.0628  0.0572
   80MOL0     C10714   3.289   4.278   2.427 -0.5372  1.6095  0.0428
   80MOL0     C10715   3.306   4.156   2.500 -0.6389 -1.5978  0.8047
   80MOL0     N10716   3.185   3.645   2.954 -0.5137 -0.0466  0.2247
   80MOL0     N10717   3.251   3.537   2.999  0.9268 -0.6793  0.4474
   80MOL0     C10718   3.615   3.750   2.057 -0.0816 -0.1467  0.0708
   80MOL0     C10719   3.579   3.818   1.942  0.1315 -0.4633 -0.6961
   80MOL0     C10720   3.628   4.138   1.590 -0.6845 -0.0967 -0.2380
   80MOL0     C10721   3.604   4.269   1.569 -0.2746 -0.0586  0.0573
   80MOL0     C10722   3.573   4.329   1.443 -0.0199  0.2935 -0.9740
   80MOL0     C10723   3.562   4.239   1.335  0.1334  0.1512  0.6733
   80MOL0     O10724   3.550   4.301   1.211  0.2320 -0.1960  0.2627
   80MOL0     C10725   3.638   4.237   1.103 -0.2750  0.7641 -0.3077
   80MOL0     C10726   3.794   4.240   1.128  0.7613 -0.1694 -0.1235
   80MOL0     C10727   3.842   4.387   1.124  0.9184 -0.2854 -0.2379
   80MOL0     C10728   3.999   4.372   1.158  0.1127  0.0842 -0.5957
   80MOL0     C10729   4.053   4.502   1.193  0.5042 -0.3144  0.4092
   80MOL0     C10730   4.091   4.611   1.222 -0.4874 -0.1608  0.1575
   80MOL0     C10731   3.564   4.100   1.356  0.0312 -0.5679 -0.3976
   80MOL0     C10732   3.604   4.054   1.482 -0.2875  0.0687  0.0376
   80MOL0     H10733   3.852   4.013   1.898 -1.3798  1.6103  0.5962
   80MOL0     H10734   3.915   3.891   2.110 -1.4305 -1.6516  2.3927
   80MOL0     H10735   3.698   3.521   2.180  0.1178 -1.0348 -0.0835
   80MOL0     H10736   3.871   3.524   2.187 -1.6711 -3.1278  0.4211
   80MOL0     H10737   3.746   3.415   2.399 -0.5534 -0.4783  1.0394
   80MOL0     H10738   3.875   3.528   2.438 -0.3952  4.5657 -0.5681
   80MOL0     H10739   3.733   3.701   2.476  1.0166 -0.1102 -1.8076
   80MOL0     H10740   3.594   3.620   2.401 -0.1542 -2.8282  0.3476
   80MOL0     H10741   3.741   3.555   2.670  0.2620 -1.4912 -0.3849
   80MOL0     H10742   3.585   3.642   2.661  0.7093  1.5385 -2.0451
   80MOL0     H10743   3.491   3.441   2.544  1.5336  0.7078 -2.4628
   80MOL0     H10744   3.638   3.355   2.569  0.1503 -0.0911 -0.2862
   80MOL0     H10745   3.609   3.357   2.818  1.3951 -1.6244 -2.0488
   80MOL0     H10746   3.489   3.480   2.796 -1.0940 -0.0383 -1.4749
   80MOL0     H10747   3.349   3.286   2.669  2.8071 -1.2879 -1.3568
   80MOL0     H10748   3.443   3.183   2.771  0.0974  0.1513  3.5249
   80MOL0     H10749   3.372   3.290   2.976 -3.4258 -1.6706  1.7447
   80MOL0     H10750   3.238   3.232   2.881 -2.2789  1.8965 -0.8654
   80MOL0     H10751   3.144   3.434   2.710  1.7238 -5.5274  1.5241
   80MOL0     H10752   3.006   3.664   2.672  0.9721  1.2381 -0.9673
   80MOL0     H10753   3.037   3.809   2.759  2.1971  0.3756  1.6735
   80MOL0     H10754   3.177   3.814   2.538 -0.3055 -0.0247  0.0028
   80MOL0     H10755   3.280   3.695   2.624 -0.4305  0.0380  1.1940
   80MOL0     H10756   3.326   3.839   2.809  1.1725 -0.1540 -1.6221
   80MOL0     H10757   3.220   3.968   2.740 -1.9302 -1.6814  0.0056
   80MOL0     H10758   3.500   3.848   2.674 -0.0613 -0.5091  1.1380
   80MOL0     H10759   3.449   4.021   2.699 -0.2903 -1.3352  1.5991
   80MOL0     H10760   3.484   3.984   2.274 -4.0413 -2.5190  0.3114
   80MOL0     H10761   3.515   4.091   2.083  2.4252  2.1288  1.4523
   80MOL0     H10762   3.359   4.166   2.042 -1.7858  0.3158  2.6825
   80MOL0     H10763   3.524   4.259   2.076  0.6570 -0.0924 -0.7833
   80MOL0     H10764   3.429   4.737   2.299  0.4245  0.6500 -0.0110
   80MOL0     H10765   3.404   4.947   2.173 -1.0759  1.2338 -2.1603
   80MOL0     H10766   3.281   5.192   2.149  0.3686  3.3677 -1.6105
   80MOL0     H10767   3.378   5.093   2.035  1.5713  3.7948  1.1917
   80MOL0     H10768   3.257   5.201   1.850 -0.4750  1.3718 -0.9181
   80MOL0     H10769   3.149   5.271   1.955  1.0646  1.2672  0.4690
   80MOL0     H10770   3.460   5.338   1.977  0.8539 -0.2757  0.5907
   80MOL0     H10771   3.324   5.394   2.067 -4.0675  0.1087 -1.6400
   80MOL0     H10772   3.428   5.499   1.840  0.9609 -2.1117  1.7599
   80MOL0     H10773   3.304   5.394   1.767  0.4478 -1.0947 -0.0219
   80MOL0     H10774   3.267   5.608   1.985  1.0281  1.3145 -0.0770
   80MOL0     H10775   3.134   5.547   1.888 -0.1571 -0.4070 -3.1293
   80MOL0     H10776   3.359   5.694   1.780  0.6843 -2.8094  2.3517
   80MOL0     H10777   3.197   5.674   1.702  0.0454  2.4424 -1.0644
   80MOL0     H10778   3.263   5.853   1.948  0.3635  1.9043 -0.4991
   80MOL0     H10779   3.103   5.822   1.900  0.9599  0.8243 -0.4084
   80MOL0     H10780   3.122   5.926   1.690  2.2346 -2.7609 -2.1227
   80MOL0     H10781   3.291   5.954   1.699  0.1122 -1.7091 -0.8637
   80MOL0     H10782   3.023   4.850   2.036 -0.3409  1.4629  1.0382
   80MOL0     H10783   3.062   4.604   2.128  0.2110  0.6579  1.0100
   80MOL0     H10784   3.226   4.350   2.478 -0.9121  0.8887  0.6243
   80MOL0     H10785   3.288   4.146   2.607  0.3784 -2.3082  0.9267
   80MOL0     H10786   3.545   3.676   2.094 -2.6962  0.6289 -2.8651
   80MOL0     H10787   3.487   3.788   1.892 -1.7415  2.5996  0.5986
   80MOL0     H10788   3.612   4.336   1.654 -3.1416 -1.6083  1.6783
   80MOL0     H10789   3.553   4.432   1.418 -2.9499 -0.4800 -2.2836
   80MOL0     H10790   3.612   4.135   1.073  1.1254  0.3779 -0.2676
   80MOL0     H10791   3.613   4.288   1.009 -0.7054 -0.9909 -1.1777
   80MOL0     H10792   3.848   4.180   1.054 -0.2222 -3.9946  2.0094
   80MOL0     H10793   3.812   4.186   1.222  1.8375 -1.4495 -1.0327
   80MOL0     H10794   3.778   4.444   1.192  0.1544 -0.4760 -0.7907
   80MOL0     H10795   3.835   4.439   1.028 -3.7605 -1.5770 -0.8219
   80MOL0     H10796   4.057   4.330   1.076  2.0996  0.1377  0.7241
   80MOL0     H10797   4.014   4.305   1.243  2.3012 -0.5898 -1.4597
   80MOL0     H10798   4.126   4.710   1.242 -0.0035 -0.1260 -0.7757
   80MOL0     H10799   3.549   4.025   1.279 -0.6346  0.8650 -1.7160
   80MOL0     H10800   3.620   3.950   1.506 -2.4473  0.4084  3.7262
   81MOL0     O10801   1.935   0.866   7.969 -0.0416 -0.1074  0.1908
   81MOL0     C10802   2.035   0.895   8.037  0.1986 -0.3558 -0.0725
   81MOL0     O10803   2.061   1.012   8.095 -0.3691 -0.5525  0.0367
   81MOL0     C10804   1.972   1.124   8.081  0.2508  0.1588 -0.6835
   81MOL0     C10805   1.929   1.168   7.959 -0.6249 -0.3211  0.4921
   81MOL0     C10806   1.841   1.270   7.945  0.4039 -0.0756  0.0050
   81MOL0     C10807   1.798   1.339   8.056 -0.6009  0.3666 -0.2750
   81MOL0     O10808   1.717   1.448   8.026 -0.7657  0.6987 -0.4130
   81MOL0     C10809   1.618   1.466   8.121 -0.3780  0.1513 -0.3501
   81MOL0     C10810   1.549   1.601   8.091 -0.1749  0.6589 -0.2452
   81MOL0     C10811   1.638   1.726   8.107 -0.1614  0.3139 -0.4557
   81MOL0     C10812   1.560   1.857   8.069  0.4288  0.0972  0.4179
   81MOL0     C10813   1.650   1.979   8.065  0.3330  0.1053 -0.7552
   81MOL0     C10814   1.574   2.109   8.051  0.7466 -0.1948  0.4098
   81MOL0     C10815   1.672   2.234   8.055  0.6230 -0.4464  0.1327
   81MOL0     C10816   1.590   2.362   8.012 -1.0866  1.1740 -0.0213
   81MOL0     N10817   1.452   2.360   8.066  0.4138  0.0566  0.7949
   81MOL0     C10818   1.402   2.425   8.173  1.2968 -0.3528 -0.3508
   81MOL0     C10819   1.266   2.401   8.184  0.5518  0.5492 -0.3811
   81MOL0     C10820   1.162   2.457   8.288 -1.2009 -0.2572  1.0662
   81MOL0     C10821   1.198   2.399   8.419  0.2435 -0.0876  0.0416
   81MOL0     C10822   1.087   2.427   8.529  0.3260  0.3835 -0.2870
   81MOL0     C10823   1.100   2.341   8.651  0.1886 -0.1399 -0.4698
   81MOL0     O10824   1.231   2.378   8.705 -1.2902  0.5881 -0.5878
   81MOL0     C10825   1.227   2.484   8.794 -1.3258 -0.3539 -0.7218
   81MOL0     C10826   1.302   2.588   8.759  0.3116  0.7771  0.7081
   81MOL0     C10827   1.310   2.708   8.837  0.2004 -0.1222 -0.3673
   81MOL0     C10828   1.407   2.803   8.786 -0.5797 -0.6907  0.0571
   81MOL0     C10829   1.241   2.717   8.954  0.5157 -0.9627 -0.6963
   81MOL0     C10830   1.229   2.836   9.049  0.2325 -0.1561  1.3077
   81MOL0     O10831   1.183   2.808   9.171 -0.5675  0.6936 -0.5260
   81MOL0     C10832   1.120   2.912   9.233  0.3582 -0.4795  0.3259
   81MOL0     C10833   1.170   2.988   9.341 -0.5843  0.7656  0.8504
   81MOL0     C10834   1.102   3.099   9.395  0.0364 -0.0961 -0.0293
   81MOL0     C10835   0.978   3.133   9.353  0.8569 -0.0964  1.1902
   81MOL0     O10836   0.899   3.239   9.406  0.0976  0.3660  0.1529
   81MOL0     C10837   0.952   3.369   9.410  0.6460 -0.1910 -0.2080
   81MOL0     C10838   0.959   3.442   9.277 -0.7602 -0.2660  0.8849
   81MOL0     C10839   0.983   3.593   9.288  0.4442 -0.4010  0.1458
   81MOL0     C10840   0.854   3.674   9.344  0.0339  1.0553 -0.3958
   81MOL0     C10841   0.894   3.828   9.348 -0.6184 -0.2729 -0.7024
   81MOL0     C10842   0.878   3.895   9.218 -1.1074 -0.6300  0.7785
   81MOL0     C10843   0.950   4.027   9.196 -0.0917 -0.1744 -0.4869
   81MOL0     C10844   0.951   4.082   9.053  0.6606  0.1776  0.0597
   81MOL0    Cl10845   1.017   4.239   9.044  0.1486  0.1805  0.4701
   81MOL0     C10846   0.921   3.053   9.246 -0.4632  0.2776 -0.0605
   81MOL0     C10847   0.986   2.946   9.183 -0.8257  0.0305 -0.0705
   81MOL0     O10848   1.276   2.947   9.020 -0.0937 -0.0947 -0.4918
   81MOL0     C10849   1.167   2.605   8.996  0.4300 -0.3537 -0.0170
   81MOL0     C10850   1.163   2.490   8.917 -0.1454  0.2088  0.0059
   81MOL0     N10851   1.234   2.324   8.067 -0.7146 -0.3023 -0.9729
   81MOL0     N10852   1.342   2.306   8.002  0.1880  0.6379  0.5772
   81MOL0     C10853   1.847   1.299   8.186  0.1917  0.2986 -0.1331
   81MOL0     C10854   1.939   1.196   8.196 -0.2115 -0.3840 -0.2279
   81MOL0     C10855   2.143   0.791   8.055  0.1147  0.3196  0.8891
   81MOL0     C10856   2.273   0.811   8.028 -0.8572 -0.7161 -0.0536
   81MOL0     C10857   2.377   0.719   8.036  0.6160  0.2249  0.4510
   81MOL0     C10858   2.345   0.590   8.087 -0.1089  0.5494  0.3881
   81MOL0     O10859   2.437   0.491   8.111 -0.0662  0.1099  0.2251
   81MOL0     C10860   2.449   0.443   8.246  0.0849  0.3094 -0.2460
   81MOL0     C10861   2.590   0.404   8.294 -0.5146 -0.4647  0.0128
   81MOL0     C10862   2.620   0.441   8.439  1.1373 -1.0574 -0.2314
   81MOL0     C10863   2.730   0.355   8.494 -0.6596 -0.2153 -0.1597
   81MOL0     C10864   2.813   0.418   8.598  0.0415  0.5942  0.9778
   81MOL0     C10865   2.882   0.472   8.681 -1.3501 -0.2767 -0.3771
   81MOL0     C10866   2.207   0.563   8.110  0.5979  0.1439  0.0060
   81MOL0     C10867   2.108   0.663   8.093 -0.4376  0.1857  0.6321
   81MOL0     H10868   1.973   1.120   7.872 -2.0761 -2.3494  0.7949
   81MOL0     H10869   1.808   1.303   7.847 -3.9697  2.7131  2.0998
   81MOL0     H10870   1.548   1.383   8.116 -2.0134  1.1967  2.5379
   81MOL0     H10871   1.660   1.474   8.223  1.4871 -1.7571 -0.8919
   81MOL0     H10872   1.512   1.604   7.989  1.3698 -1.6953 -0.9748
   81MOL0     H10873   1.459   1.608   8.152  0.4028 -1.3679  0.9794
   81MOL0     H10874   1.675   1.730   8.209  3.0071 -3.9797 -1.1582
   81MOL0     H10875   1.727   1.713   8.045  1.0098  1.6300  0.8944
   81MOL0     H10876   1.506   1.850   7.974 -0.1485 -0.3694  0.7701
   81MOL0     H10877   1.490   1.868   8.153  1.0058 -1.8143  1.2107
   81MOL0     H10878   1.711   1.980   8.155  0.2997  4.6878 -0.5538
   81MOL0     H10879   1.716   1.973   7.978  0.2421 -1.8436 -0.7278
   81MOL0     H10880   1.518   2.115   7.956 -0.7715  0.5621  1.3153
   81MOL0     H10881   1.497   2.109   8.129 -0.7146 -3.1640 -0.8802
   81MOL0     H10882   1.711   2.271   8.151  0.7603  1.1132 -0.5013
   81MOL0     H10883   1.761   2.210   7.997  1.8229  0.0545  1.6888
   81MOL0     H10884   1.593   2.370   7.903  3.2944  0.1929 -0.1779
   81MOL0     H10885   1.636   2.455   8.049  1.4852 -0.9069  2.4818
   81MOL0     H10886   1.459   2.485   8.243  0.7063  1.7915 -1.5988
   81MOL0     H10887   1.168   2.566   8.287 -3.9316 -0.0379  1.3462
   81MOL0     H10888   1.062   2.429   8.254 -1.4211  0.1297  1.3877
   81MOL0     H10889   1.292   2.446   8.448  0.6706 -0.2928 -0.9697
   81MOL0     H10890   1.209   2.291   8.408 -1.0900 -0.0509 -2.4499
   81MOL0     H10891   0.991   2.392   8.489 -1.0234  1.9024  1.4643
   81MOL0     H10892   1.085   2.533   8.555 -0.6236  0.3349 -0.1304
   81MOL0     H10893   1.083   2.235   8.629 -2.4397  0.0037  0.4990
   81MOL0     H10894   1.026   2.366   8.727 -0.5761  0.6691 -1.4427
   81MOL0     H10895   1.354   2.575   8.664  1.1089 -0.2928  1.2735
   81MOL0     H10896   1.427   2.801   8.679  3.5522  3.1709  0.4822
   81MOL0     H10897   1.367   2.903   8.805  3.7823  1.1208  0.8822
   81MOL0     H10898   1.509   2.803   8.827 -0.5691 -1.4196  0.0468
   81MOL0     H10899   1.273   2.965   9.367 -0.1264  0.3546 -1.1238
   81MOL0     H10900   1.146   3.154   9.477 -2.0638  1.1341  0.3384
   81MOL0     H10901   0.868   3.415   9.462  1.5194  0.6877  0.4625
   81MOL0     H10902   1.038   3.388   9.475  1.2803 -0.5720 -0.9221
   81MOL0     H10903   1.036   3.396   9.213 -1.2712  2.5087 -2.0086
   81MOL0     H10904   0.865   3.423   9.225 -1.0057 -0.9244  1.5646
   81MOL0     H10905   1.008   3.624   9.185 -0.3826 -2.3411 -0.6863
   81MOL0     H10906   1.068   3.619   9.352  0.2780 -2.2552  1.1877
   81MOL0     H10907   0.767   3.656   9.279  1.4149  0.1479 -2.0834
   81MOL0     H10908   0.835   3.632   9.444 -0.1574 -0.2615 -0.9595
   81MOL0     H10909   0.998   3.831   9.384  0.0667 -3.0769 -2.1435
   81MOL0     H10910   0.824   3.864   9.424 -0.2950 -0.5964 -0.2389
   81MOL0     H10911   0.918   3.827   9.142  2.3747  3.9516 -1.9567
   81MOL0     H10912   0.773   3.914   9.195 -1.1999  0.0744  1.7380
   81MOL0     H10913   1.055   4.015   9.225 -0.2021 -0.9177 -0.3752
   81MOL0     H10914   0.901   4.104   9.258 -1.9080  0.8041 -2.9838
   81MOL0     H10915   0.844   4.085   9.031  0.5629  2.1674  0.6086
   81MOL0     H10916   1.008   4.024   8.980 -0.0475  0.3588 -0.6392
   81MOL0     H10917   0.825   3.086   9.208 -1.6318 -0.7681  1.8186
   81MOL0     H10918   0.935   2.888   9.107 -2.0742 -3.0176  2.8364
   81MOL0     H10919   1.114   2.601   9.090  1.5226 -0.7240  0.6034
   81MOL0     H10920   1.092   2.418   8.958 -3.5593  1.9845 -2.2951
   81MOL0     H10921   1.804   1.338   8.278  1.9699  4.4328 -0.8353
   81MOL0     H10922   1.984   1.172   8.292  0.0637 -1.3210 -0.5726
   81MOL0     H10923   2.306   0.906   7.988  0.2137 -1.1016 -0.1277
   81MOL0     H10924   2.482   0.739   8.018  0.4692  0.7328  0.1472
   81MOL0     H10925   2.412   0.528   8.303  0.0488  0.4667 -0.5039
   81MOL0     H10926   2.385   0.356   8.265 -0.9689  1.0972 -0.1002
   81MOL0     H10927   2.659   0.448   8.221  1.1532 -2.1135  0.5363
   81MOL0     H10928   2.599   0.295   8.293  0.0103 -0.4198 -0.6880
   81MOL0     H10929   2.532   0.407   8.495  0.4026 -0.9765 -1.2963
   81MOL0     H10930   2.621   0.549   8.450  1.0456 -1.0191 -0.5889
   81MOL0     H10931   2.804   0.327   8.419 -1.1200  1.9317 -1.4946
   81MOL0     H10932   2.701   0.255   8.528  3.6607 -1.5062  0.3334
   81MOL0     H10933   2.936   0.532   8.751  2.3289 -1.4806 -1.8929
   81MOL0     H10934   2.187   0.460   8.137  3.0369 -0.0865  1.1992
   81MOL0     H10935   2.004   0.632   8.096 -0.0565 -1.5911 -1.6392
   82MOL0     O10936   9.387   3.055   7.373 -0.2465  0.1983 -0.2194
   82MOL0     C10937   9.442   3.162   7.353 -0.2795  0.7105  0.2009
   82MOL0     O10938   9.523   3.224   7.453 -0.7199 -0.6210  0.9851
   82MOL0     C10939   9.537   3.170   7.577 -0.0528  0.5315 -0.7450
   82MOL0     C10940   9.432   3.189   7.671 -0.5562 -0.6481  1.1024
   82MOL0     C10941   9.437   3.118   7.794 -0.3268 -0.3283  0.6711
   82MOL0     C10942   9.549   3.041   7.818  0.5171 -0.0484  0.2977
   82MOL0     O10943   9.554   2.958   7.932 -0.0573 -0.0393 -0.0334
   82MOL0     C10944   9.457   2.984   8.036  0.0684  1.2799  0.3616
   82MOL0     C10945   9.487   2.871   8.129 -0.2211 -0.5955  0.8688
   82MOL0     C10946   9.378   2.852   8.237 -0.6654  0.5062 -0.2233
   82MOL0     C10947   9.434   2.770   8.362 -0.5602 -0.0483  0.8316
   82MOL0     C10948   9.458   2.621   8.327  0.5028 -1.0103  0.9952
   82MOL0     C10949   9.378   2.520   8.409 -1.4823 -0.1668 -0.4889
   82MOL0     C10950   9.377   2.385   8.342  0.0483 -0.0260  0.2740
   82MOL0     C10951   9.255   2.381   8.245  0.4017  0.3978  0.3022
   82MOL0     N10952   9.202   2.242   8.220 -0.7912  1.2455  0.2850
   82MOL0     C10953   9.125   2.181   8.310 -1.0434  0.7731  0.4641
   82MOL0     C10954   9.120   2.045   8.266 -0.4746 -0.6667  0.5465
   82MOL0     C10955   9.039   1.936   8.311  0.2161 -0.0042  0.1017
   82MOL0     C10956   9.124   1.821   8.366 -0.1156  0.6472 -0.0480
   82MOL0     C10957   9.028   1.701   8.401 -0.3875  0.2217 -0.1798
   82MOL0     C10958   9.109   1.572   8.451 -0.0208  0.0430 -0.9430
   82MOL0     O10959   9.013   1.461   8.463 -0.5733  0.1535 -0.1648
   82MOL0     C10960   9.060   1.340   8.515  0.2168 -0.0201  0.1669
   82MOL0     C10961   9.192   1.316   8.542  0.5713 -0.4210  0.2673
   82MOL0     C10962   9.236   1.185   8.590  0.1130  1.1395  0.1693
   82MOL0     C10963   9.389   1.169   8.586 -0.0442 -1.1084  0.6198
   82MOL0     C10964   9.142   1.082   8.606  0.6358 -0.1869  0.7684
   82MOL0     C10965   9.167   0.942   8.649 -0.1207  1.1229 -0.1629
   82MOL0     O10966   9.060   0.850   8.628  0.2828 -0.6201  0.0609
   82MOL0     C10967   9.070   0.727   8.672  0.3255 -0.4039 -1.2212
   82MOL0     C10968   9.168   0.637   8.625 -0.9122  0.4198  0.5808
   82MOL0     C10969   9.172   0.504   8.668 -1.4288  0.1353  0.3594
   82MOL0     C10970   9.072   0.459   8.745  0.0220 -0.0335  0.7915
   82MOL0     O10971   9.077   0.331   8.773 -0.2929 -0.1886 -0.3691
   82MOL0     C10972   8.951   0.263   8.783  0.4524 -0.8951  0.7848
   82MOL0     C10973   8.941   0.218   8.639 -0.2880  0.1576  0.3397
   82MOL0     C10974   8.801   0.177   8.612 -0.3381 -0.9561 -0.4564
   82MOL0     C10975   8.701   0.291   8.558 -0.5230 -1.3451 -0.2459
   82MOL0     C10976   8.564   0.250   8.497  0.5185 -0.1552 -0.3368
   82MOL0     C10977   8.473   0.377   8.504 -0.4104 -0.1946  0.8454
   82MOL0     C10978   8.332   0.346   8.476  0.1659  0.0933 -0.5752
   82MOL0     C10979   8.255   0.453   8.547 -1.4347 -0.7329 -0.5385
   82MOL0    Cl10980   8.084   0.410   8.533  0.0544 -0.0166 -0.5925
   82MOL0     C10981   8.963   0.545   8.780 -0.4879 -0.0860 -0.3707
   82MOL0     C10982   8.960   0.672   8.748 -0.5218 -0.6854  1.8828
   82MOL0     O10983   9.282   0.908   8.684  0.6251  0.1623 -0.2952
   82MOL0     C10984   9.001   1.120   8.576 -0.4175  0.7232  0.2244
   82MOL0     C10985   8.963   1.247   8.526  0.2391 -0.3067 -0.0536
   82MOL0     N10986   9.192   2.036   8.156 -0.2817  0.4527 -0.2739
   82MOL0     N10987   9.244   2.157   8.121  0.4604  0.6241 -0.3580
   82MOL0     C10988   9.652   3.035   7.734 -1.1272 -0.3757 -0.1178
   82MOL0     C10989   9.650   3.097   7.611  1.0386 -0.2330 -0.0858
   82MOL0     C10990   9.414   3.228   7.223  0.4515  0.4733  0.4629
   82MOL0     C10991   9.296   3.196   7.160  0.4703 -0.8208 -0.4431
   82MOL0     C10992   9.256   3.252   7.045  0.3546  0.8706  0.0039
   82MOL0     C10993   9.337   3.325   6.966 -0.6934  0.3457  0.6642
   82MOL0     O10994   9.278   3.376   6.857  0.2195 -0.0791  0.2244
   82MOL0     C10995   9.352   3.424   6.745  0.0726 -0.2337  0.4239
   82MOL0     C10996   9.349   3.575   6.740 -0.3238 -0.4486  0.4739
   82MOL0     C10997   9.402   3.625   6.605  0.3335  0.3198  0.5252
   82MOL0     C10998   9.372   3.780   6.586 -0.0775 -0.4306  0.7049
   82MOL0     C10999   9.236   3.808   6.540  0.1654  1.2621  0.4319
   82MOL0     C11000   9.128   3.843   6.500  0.2176 -0.3596  1.5229
   82MOL0     C11001   9.465   3.355   7.019 -0.4679  0.8582 -0.4593
   82MOL0     C11002   9.510   3.299   7.148  0.3368 -0.1433  0.1044
   82MOL0     H11003   9.346   3.244   7.633 -1.2186 -2.2770  0.1707
   82MOL0     H11004   9.349   3.118   7.858  0.2709  1.4907  1.5770
   82MOL0     H11005   9.465   3.084   8.080  0.6472  0.4463  2.2792
   82MOL0     H11006   9.357   2.972   7.994 -0.5996 -0.9635  2.3168
   82MOL0     H11007   9.502   2.775   8.079  3.0791  0.2729 -0.1083
   82MOL0     H11008   9.589   2.893   8.163  0.1072  0.9172 -0.9206
   82MOL0     H11009   9.351   2.952   8.274  0.1653 -0.4771  3.4121
   82MOL0     H11010   9.290   2.811   8.187 -2.0240  0.4649  2.0611
   82MOL0     H11011   9.527   2.819   8.389 -0.2442 -0.6864  0.9115
   82MOL0     H11012   9.368   2.782   8.449 -1.0277 -0.0731  0.4884
   82MOL0     H11013   9.433   2.616   8.221  2.5483 -1.0398  0.4805
   82MOL0     H11014   9.564   2.597   8.335  1.2255  2.0843  1.9738
   82MOL0     H11015   9.432   2.512   8.503  0.6344  0.7736 -1.5654
   82MOL0     H11016   9.280   2.564   8.433  0.1883  1.8748  3.4722
   82MOL0     H11017   9.470   2.357   8.291 -1.0261 -0.4565 -1.5320
   82MOL0     H11018   9.366   2.309   8.420  5.5915 -1.3411  0.1886
   82MOL0     H11019   9.294   2.424   8.152 -1.6481  3.5063  0.7333
   82MOL0     H11020   9.177   2.450   8.281  1.4661  2.4050 -1.0495
   82MOL0     H11021   9.079   2.228   8.397 -0.6976  1.7408  0.1401
   82MOL0     H11022   8.966   1.970   8.385  0.9626 -0.5459  1.1151
   82MOL0     H11023   8.985   1.907   8.221  0.3454  1.1159 -0.3500
   82MOL0     H11024   9.182   1.864   8.449 -1.4884  1.4534  0.5332
   82MOL0     H11025   9.197   1.780   8.295  0.2611  0.3983  0.4717
   82MOL0     H11026   8.956   1.682   8.321 -0.6180  1.0178 -0.1670
   82MOL0     H11027   8.964   1.744   8.478  2.3516  1.8894  1.3223
   82MOL0     H11028   9.173   1.588   8.538 -0.9822  2.3160 -0.6049
   82MOL0     H11029   9.179   1.556   8.368 -0.4041  4.1071 -2.2890
   82MOL0     H11030   9.267   1.394   8.530  0.6599 -0.6223 -0.5251
   82MOL0     H11031   9.444   1.263   8.589 -0.2957 -0.7953 -2.1229
   82MOL0     H11032   9.431   1.111   8.669  1.0481  0.7599  1.4516
   82MOL0     H11033   9.426   1.117   8.498 -1.1648 -2.3999  0.8757
   82MOL0     H11034   9.249   0.669   8.560  0.8958  0.0750  2.5624
   82MOL0     H11035   9.249   0.432   8.644 -2.4980 -1.7280  2.1866
   82MOL0     H11036   8.960   0.171   8.842  0.2092 -0.7966  0.9784
   82MOL0     H11037   8.869   0.324   8.821  1.4529  0.5970  0.6431
   82MOL0     H11038   8.972   0.295   8.567 -0.0851  0.8802  1.1808
   82MOL0     H11039   8.995   0.123   8.630 -4.2243 -2.5062  2.0024
   82MOL0     H11040   8.746   0.120   8.687 -0.3299 -0.4393 -0.0572
   82MOL0     H11041   8.811   0.108   8.528  1.3728 -0.5679 -0.6037
   82MOL0     H11042   8.687   0.361   8.640 -0.7335 -0.1378 -1.2727
   82MOL0     H11043   8.752   0.352   8.482 -1.0387 -0.1730  0.3306
   82MOL0     H11044   8.518   0.176   8.562  0.9090 -2.0857 -2.1559
   82MOL0     H11045   8.556   0.207   8.397  1.8437 -1.9190  0.2596
   82MOL0     H11046   8.479   0.420   8.604 -0.9982  2.8016 -0.3170
   82MOL0     H11047   8.511   0.456   8.439 -1.2551 -1.5647 -1.4569
   82MOL0     H11048   8.296   0.248   8.507  0.2821  1.1224  3.2916
   82MOL0     H11049   8.304   0.367   8.372 -2.5376 -0.8443 -0.1352
   82MOL0     H11050   8.294   0.545   8.503 -2.1332  0.8114  1.8600
   82MOL0     H11051   8.271   0.455   8.656  1.4088 -1.8862 -0.8471
   82MOL0     H11052   8.893   0.516   8.858  0.2753 -2.2278 -0.4199
   82MOL0     H11053   8.890   0.749   8.780  1.1028  1.3427  0.8418
   82MOL0     H11054   8.930   1.045   8.610  1.1994 -1.1632 -0.3573
   82MOL0     H11055   8.867   1.282   8.489  0.1953 -0.9987 -0.6004
   82MOL0     H11056   9.744   2.982   7.753  0.6713  2.3027 -0.7997
   82MOL0     H11057   9.725   3.076   7.535  2.2139 -2.0474  1.4905
   82MOL0     H11058   9.220   3.136   7.209 -1.1554  0.6798 -1.0251
   82MOL0     H11059   9.154   3.232   7.013  0.4028 -0.1320  0.4233
   82MOL0     H11060   9.460   3.412   6.752  0.7168  1.5484 -3.8931
   82MOL0     H11061   9.321   3.377   6.652 -0.5156  1.8692 -0.4993
   82MOL0     H11062   9.402   3.623   6.823  0.3802  1.5912 -1.0943
   82MOL0     H11063   9.246   3.609   6.734  1.0028  3.9239 -2.0097
   82MOL0     H11064   9.365   3.555   6.529  1.1008  1.2575 -0.7582
   82MOL0     H11065   9.510   3.608   6.604  0.0452 -2.2829  2.7166
   82MOL0     H11066   9.450   3.834   6.531  0.4897 -2.5179 -0.6756
   82MOL0     H11067   9.379   3.825   6.686 -3.8354 -0.9986  1.3658
   82MOL0     H11068   9.034   3.862   6.451  0.5869 -1.4015  0.3409
   82MOL0     H11069   9.534   3.417   6.963 -0.4950  3.2798  1.9828
   82MOL0     H11070   9.609   3.321   7.187  0.0589  2.0383 -0.2837
   83MOL0     O11071   0.067   1.710   4.904  0.4832 -0.1915 -0.2289
   83MOL0     C11072   0.077   1.812   4.966 -0.2149 -0.2008 -0.8856
   83MOL0     O11073   0.079   1.817   5.104 -0.3895  0.7122  0.6802
   83MOL0     C11074   0.052   1.702   5.176  0.3139 -0.4611 -1.1523
   83MOL0     C11075   0.113   1.577   5.150 -0.0324  0.3283  0.3589
   83MOL0     C11076   0.077   1.461   5.212  0.2953 -0.2136  0.2142
   83MOL0     C11077  -0.001   1.467   5.330 -0.2331  0.6154 -0.6847
   83MOL0     O11078  -0.041   1.363   5.413  0.2009 -0.1373 -0.6330
   83MOL0     C11079   0.016   1.231   5.388 -0.2204  0.4951 -0.1330
   83MOL0     C11080  -0.064   1.122   5.463  0.2907 -0.0146 -0.3457
   83MOL0     C11081  -0.014   0.979   5.439 -1.1447  0.0245 -0.1718
   83MOL0     C11082  -0.073   0.874   5.539 -0.8206  0.4366 -0.0644
   83MOL0     C11083   0.030   0.754   5.560  0.2588 -1.3011  0.7541
   83MOL0     C11084  -0.032   0.661   5.663  0.1636 -0.3573 -0.5529
   83MOL0     C11085   0.062   0.535   5.665 -0.1553  0.7590 -0.4482
   83MOL0     C11086  -0.026   0.413   5.681  0.8879 -0.2448  0.7199
   83MOL0     N11087  -0.115   0.435   5.795 -0.5341  0.1783 -0.4003
   83MOL0     C11088  -0.100   0.381   5.924 -0.9013  0.3196 -0.1816
   83MOL0     C11089  -0.224   0.376   5.974 -0.0494 -0.9282  0.5983
   83MOL0     C11090  -0.266   0.306   6.104  0.0892 -0.2157 -0.9293
   83MOL0     C11091  -0.291   0.161   6.074  1.4093  1.0025 -0.9692
   83MOL0     C11092  -0.356   0.079   6.191  0.9022  0.7005  0.9776
   83MOL0     C11093  -0.265   0.035   6.298 -0.4791 -0.0973 -0.5825
   83MOL0     O11094  -0.196   0.133   6.374  0.5939  0.2179 -0.2710
   83MOL0     C11095  -0.124   0.087   6.483 -0.3510  0.5406 -0.3049
   83MOL0     C11096  -0.025  -0.012   6.467 -0.1030  0.5584  0.9696
   83MOL0     C11097   0.053  -0.054   6.574 -0.5387  0.2271  0.0041
   83MOL0     C11098   0.159  -0.162   6.550  0.7595 -0.5605 -0.1782
   83MOL0     C11099   0.024   0.006   6.705  1.0653  0.7229 -0.5534
   83MOL0     C11100   0.098  -0.023   6.831 -0.1142 -0.4198 -0.1532
   83MOL0     O11101   0.030  -0.021   6.944  0.2772  0.1721 -0.0299
   83MOL0     C11102   0.100  -0.057   7.056 -0.8423 -0.4321  0.1658
   83MOL0     C11103   0.154  -0.188   7.079 -0.1197 -0.5886  0.7898
   83MOL0     C11104   0.240  -0.219   7.187  0.3197 -0.4531 -0.6701
   83MOL0     C11105   0.273  -0.115   7.276  0.1968  0.1888  0.7058
   83MOL0     O11106   0.351  -0.123   7.383 -0.0518  0.4249  0.0408
   83MOL0     C11107   0.474  -0.189   7.355  0.4366  0.0600  0.1297
   83MOL0     C11108   0.560  -0.173   7.479 -0.8443  0.3055 -0.9812
   83MOL0     C11109   0.617  -0.030   7.490 -0.2334  0.4137  0.9450
   83MOL0     C11110   0.724  -0.023   7.592  0.6766  0.2568 -0.0732
   83MOL0     C11111   0.750   0.129   7.618 -0.7279 -0.3446 -0.2145
   83MOL0     C11112   0.824   0.192   7.502 -0.2255 -0.0918 -0.4958
   83MOL0     C11113   0.862   0.345   7.541 -0.6599 -0.5792  0.2539
   83MOL0     C11114   0.752   0.436   7.525 -0.0201  0.3579 -0.9717
   83MOL0    Cl11115   0.811   0.600   7.566 -0.1962  0.1239 -0.2249
   83MOL0     C11116   0.220   0.010   7.258  0.0905 -0.6360  0.0338
   83MOL0     C11117   0.129   0.034   7.155  1.3484  0.1856  0.2674
   83MOL0     O11118   0.218  -0.011   6.820  0.0603  0.7389 -0.2282
   83MOL0     C11119  -0.086   0.087   6.722  0.5897  0.0849  0.8625
   83MOL0     C11120  -0.163   0.126   6.610  0.5531 -0.1878 -0.0663
   83MOL0     N11121  -0.318   0.411   5.874  0.4230 -0.7477 -0.1508
   83MOL0     N11122  -0.249   0.450   5.773 -0.3430  0.1686 -0.0169
   83MOL0     C11123  -0.048   1.596   5.369 -0.2279  0.4119  0.7551
   83MOL0     C11124  -0.028   1.710   5.293  0.3405  0.9047  0.4524
   83MOL0     C11125   0.118   1.947   4.920 -0.1267  0.2998  0.0397
   83MOL0     C11126   0.137   1.953   4.781 -0.7627 -0.2235 -0.7026
   83MOL0     C11127   0.186   2.070   4.727 -0.0804 -0.4460 -0.4556
   83MOL0     C11128   0.196   2.186   4.802  0.5100  0.1429 -0.0816
   83MOL0     O11129   0.247   2.303   4.744 -0.4683 -0.8604 -0.0839
   83MOL0     C11130   0.249   2.418   4.830  0.8060  0.0918 -0.5576
   83MOL0     C11131   0.110   2.484   4.848  0.0052  0.8251 -0.3861
   83MOL0     C11132   0.101   2.620   4.774  0.5069  0.0879  0.4101
   83MOL0     C11133   0.086   2.592   4.621  0.7613  0.2576 -0.1806
   83MOL0     C11134   0.122   2.712   4.546  0.5123 -0.2141 -0.3612
   83MOL0     C11135   0.151   2.810   4.480  0.4598 -0.8334  0.0533
   83MOL0     C11136   0.162   2.172   4.941  0.1941 -0.3292  0.8190
   83MOL0     C11137   0.124   2.057   4.996 -0.4660  0.2297 -0.5110
   83MOL0     H11138   0.181   1.566   5.066  0.8730  0.7127  1.0196
   83MOL0     H11139   0.123   1.371   5.172  0.8448  0.3076 -0.3477
   83MOL0     H11140   0.015   1.221   5.279 -1.5298  0.5728 -0.1440
   83MOL0     H11141   0.121   1.233   5.419 -0.6160 -1.2043  1.5283
   83MOL0     H11142  -0.063   1.138   5.571 -0.4297 -0.8802 -0.2032
   83MOL0     H11143  -0.172   1.132   5.448  0.3308  2.1884  0.4305
   83MOL0     H11144  -0.019   0.932   5.341  1.1559 -0.5933 -0.0588
   83MOL0     H11145   0.094   0.989   5.456 -0.7095 -2.2060 -1.2481
   83MOL0     H11146  -0.077   0.910   5.643  2.4923 -1.9023  1.0369
   83MOL0     H11147  -0.172   0.834   5.515 -0.4365 -0.5876 -0.0160
   83MOL0     H11148   0.034   0.697   5.467  0.9851 -0.6322  0.3654
   83MOL0     H11149   0.129   0.793   5.586  0.5690 -0.8629 -0.9753
   83MOL0     H11150  -0.031   0.699   5.765  0.5966 -0.5786 -0.4719
   83MOL0     H11151  -0.132   0.639   5.623 -0.0487 -0.6757  0.1396
   83MOL0     H11152   0.124   0.506   5.579  2.0822 -1.0840  1.6096
   83MOL0     H11153   0.133   0.534   5.749 -0.4462 -1.3321 -0.1633
   83MOL0     H11154   0.028   0.318   5.679  0.8673 -0.2624  0.9674
   83MOL0     H11155  -0.090   0.420   5.592  1.1183  0.2093  0.5881
   83MOL0     H11156  -0.011   0.363   5.983 -0.4501  0.1287 -0.9076
   83MOL0     H11157  -0.188   0.306   6.181 -2.8572 -1.1177  2.3331
   83MOL0     H11158  -0.354   0.351   6.150  3.0527  3.3400  1.9098
   83MOL0     H11159  -0.197   0.119   6.035  1.9157 -1.2786  2.2438
   83MOL0     H11160  -0.365   0.153   5.994  1.5175  3.3031 -1.3614
   83MOL0     H11161  -0.392  -0.017   6.153 -0.1777  0.8645  1.5504
   83MOL0     H11162  -0.436   0.128   6.247  0.9138  0.7327  0.9657
   83MOL0     H11163  -0.203  -0.045   6.258  0.0010 -0.3506  0.6157
   83MOL0     H11164  -0.324  -0.020   6.372  0.8474  0.3737  0.8932
   83MOL0     H11165   0.002  -0.065   6.377 -0.8162 -1.2668  1.7746
   83MOL0     H11166   0.264  -0.132   6.561  0.2695  2.1998 -1.9677
   83MOL0     H11167   0.138  -0.243   6.620 -0.0839 -0.8240 -0.7234
   83MOL0     H11168   0.141  -0.192   6.446 -2.8729 -1.7733  0.6708
   83MOL0     H11169   0.137  -0.265   7.004  3.2790 -0.4157 -0.3090
   83MOL0     H11170   0.278  -0.321   7.184  0.9602 -0.2738  0.6389
   83MOL0     H11171   0.450  -0.296   7.346 -1.5612  0.5271 -0.7277
   83MOL0     H11172   0.511  -0.143   7.264  3.5342 -0.6751  0.9103
   83MOL0     H11173   0.510  -0.189   7.575  0.3987 -0.3085 -0.4058
   83MOL0     H11174   0.643  -0.243   7.467 -1.4366 -1.1729  2.3627
   83MOL0     H11175   0.532   0.036   7.508 -0.4260  0.5812 -0.4517
   83MOL0     H11176   0.659  -0.015   7.390 -0.7925 -0.3640  0.5813
   83MOL0     H11177   0.679  -0.064   7.683 -0.6871 -0.0480 -0.8664
   83MOL0     H11178   0.814  -0.082   7.570 -0.5162 -1.2785 -1.0800
   83MOL0     H11179   0.805   0.142   7.711 -1.9067  2.2936  0.2035
   83MOL0     H11180   0.659   0.186   7.636 -2.1008 -2.0576 -1.3369
   83MOL0     H11181   0.905   0.126   7.470 -0.9792 -1.9053  1.1172
   83MOL0     H11182   0.756   0.214   7.419  1.4282 -1.5986 -2.3363
   83MOL0     H11183   0.939   0.372   7.469 -2.4276 -0.0897 -1.5593
   83MOL0     H11184   0.909   0.361   7.638 -0.7363 -1.0020  0.3647
   83MOL0     H11185   0.671   0.407   7.594 -0.6621 -1.4294 -2.3868
   83MOL0     H11186   0.726   0.442   7.419  1.7085  0.7547 -1.4028
   83MOL0     H11187   0.253   0.087   7.328 -0.9019 -1.9092  1.9751
   83MOL0     H11188   0.073   0.126   7.159 -1.6859 -1.5664  1.4950
   83MOL0     H11189  -0.116   0.103   6.826 -1.5115  2.7317 -0.0392
   83MOL0     H11190  -0.249   0.190   6.627 -2.5473 -4.4265  1.7551
   83MOL0     H11191  -0.106   1.607   5.460 -0.9556 -0.1596  0.3702
   83MOL0     H11192  -0.070   1.808   5.310 -1.0235  0.0458  2.5067
   83MOL0     H11193   0.139   1.870   4.711 -1.6425  0.5920 -1.7109
   83MOL0     H11194   0.221   2.073   4.624  0.5525 -0.1040 -0.2414
   83MOL0     H11195   0.302   2.406   4.925  2.2946  3.2356 -0.8397
   83MOL0     H11196   0.322   2.485   4.785  2.0978 -0.8831  0.0230
   83MOL0     H11197   0.092   2.509   4.953  2.0738  1.4866 -0.1528
   83MOL0     H11198   0.035   2.409   4.820  0.6951 -0.0427  0.0220
   83MOL0     H11199   0.191   2.680   4.781 -0.7385  1.8941  1.9227
   83MOL0     H11200   0.012   2.672   4.812 -0.4939 -0.4326 -1.1211
   83MOL0     H11201  -0.014   2.551   4.603 -0.0230  1.3959  1.3732
   83MOL0     H11202   0.161   2.517   4.594  1.2530  0.6128  0.1872
   83MOL0     H11203   0.180   2.889   4.414  0.8974  0.4558  1.7030
   83MOL0     H11204   0.149   2.261   5.000 -0.1356  1.3778 -1.6835
   83MOL0     H11205   0.109   2.058   5.104  1.1879  1.5463 -0.2632
   84MOL0     O11206   7.593   9.774  10.212  0.0060 -0.4078  0.8282
   84MOL0     C11207   7.626   9.837  10.109  0.5659  0.4917 -0.3873
   84MOL0     O11208   7.663   9.961  10.101 -0.5173  0.2806 -1.1425
   84MOL0     C11209   7.633  10.053  10.203 -0.0640  0.2921 -0.1401
   84MOL0     C11210   7.689  10.174  10.174 -0.0053 -0.9667  0.9136
   84MOL0     C11211   7.651  10.297  10.243  0.7584  0.7769 -0.1185
   84MOL0     C11212   7.558  10.285  10.346  0.1290  0.3326 -0.7509
   84MOL0     O11213   7.506  10.389  10.420 -0.2596  0.8490  0.4407
   84MOL0     C11214   7.585  10.508  10.418 -0.1507 -0.4755 -0.2073
   84MOL0     C11215   7.527  10.617  10.501 -1.5030 -1.1721 -0.8627
   84MOL0     C11216   7.598  10.759  10.466  0.2013  0.5397  0.2620
   84MOL0     C11217   7.528  10.861  10.548  0.4552 -0.4017  0.3554
   84MOL0     C11218   7.592  10.995  10.540 -0.3449 -0.2478  0.4360
   84MOL0     C11219   7.558  11.077  10.406 -0.2843  0.5724 -0.7637
   84MOL0     C11220   7.634  11.209  10.421  0.1295  0.7367 -0.7272
   84MOL0     C11221   7.583  11.306  10.321  1.6006  0.2585  0.4889
   84MOL0     N11222   7.628  11.437  10.348 -0.3566 -0.7585  0.0367
   84MOL0     C11223   7.746  11.478  10.290  0.1590 -0.1892 -0.5233
   84MOL0     C11224   7.764  11.610  10.310 -0.4310  0.5469 -0.1698
   84MOL0     C11225   7.892  11.682  10.271 -0.3813  0.0175  0.3158
   84MOL0     C11226   7.884  11.829  10.321  0.7316  0.1807  0.3318
   84MOL0     C11227   8.018  11.901  10.329  0.3559 -0.2191 -0.2191
   84MOL0     C11228   7.991  12.052  10.391  1.2591  0.5224 -0.2081
   84MOL0     O11229   7.922  12.051  10.521  0.3547  0.9375  0.8048
   84MOL0     C11230   7.989  12.073  10.633 -0.9901  0.3044 -0.5917
   84MOL0     C11231   8.007  11.957  10.714  0.0202 -0.4758  0.7400
   84MOL0     C11232   8.052  11.967  10.849 -0.5262 -0.2688  0.5397
   84MOL0     C11233   8.041  11.850  10.941 -0.1103  0.1117 -0.7110
   84MOL0     C11234   8.113  12.091  10.892 -0.0350  0.8753 -0.2034
   84MOL0     C11235   8.187  12.113  11.018 -0.1071  0.0369 -1.0540
   84MOL0     O11236   8.176  12.021  11.117 -0.3185  0.1914 -0.2200
   84MOL0     C11237   8.266  11.998  11.212 -0.7324 -0.7481 -0.1715
   84MOL0     C11238   8.407  12.024  11.196  0.8384  0.5615  0.2180
   84MOL0     C11239   8.505  12.006  11.296  0.8287  0.0682 -0.9777
   84MOL0     C11240   8.462  11.940  11.414  0.3710 -0.8107  0.3262
   84MOL0     O11241   8.548  11.917  11.523  0.0979  0.5809  0.1834
   84MOL0     C11242   8.689  11.909  11.504  0.2251  0.1165 -0.5117
   84MOL0     C11243   8.762  12.008  11.604 -0.0304  0.7610  0.2564
   84MOL0     C11244   8.909  12.036  11.566  0.5130 -0.1096 -0.1943
   84MOL0     C11245   8.972  12.153  11.641  0.1651  0.0827  1.0763
   84MOL0     C11246   8.966  12.148  11.791 -0.4070 -0.0161 -0.3231
   84MOL0     C11247   8.949  12.288  11.849 -0.3536 -0.5662  0.4453
   84MOL0     C11248   9.066  12.383  11.810 -0.7161 -0.0830  0.4277
   84MOL0     C11249   9.081  12.495  11.903  0.7301 -0.7242 -0.0494
   84MOL0    Cl11250   8.947  12.618  11.869 -0.1020  0.2702 -0.0506
   84MOL0     C11251   8.328  11.907  11.427  0.4764  0.3721  0.0308
   84MOL0     C11252   8.233  11.931  11.329  0.2122  0.5415  0.0463
   84MOL0     O11253   8.258  12.215  11.026  0.0646  0.0551 -0.3641
   84MOL0     C11254   8.107  12.202  10.802  0.1687 -0.2303  0.2077
   84MOL0     C11255   8.044  12.195  10.673  0.3448  0.1857  0.1501
   84MOL0     N11256   7.639  11.652  10.363  0.0584  0.9396 -0.2107
   84MOL0     N11257   7.568  11.546  10.392  0.1749  0.2892 -0.6442
   84MOL0     C11258   7.517  10.155  10.383  0.6090  0.0890  0.1261
   84MOL0     C11259   7.540  10.043  10.302  1.0294 -0.3384 -0.4327
   84MOL0     C11260   7.608   9.752   9.981 -0.6994 -0.5310  0.2968
   84MOL0     C11261   7.613   9.613   9.988 -0.6519 -0.7286 -0.1361
   84MOL0     C11262   7.583   9.534   9.877 -0.5495  0.2162  0.5679
   84MOL0     C11263   7.552   9.589   9.753 -0.0467 -0.0990  0.7013
   84MOL0     O11264   7.510   9.528   9.642  0.1015 -0.1006  0.5356
   84MOL0     C11265   7.420   9.423   9.659 -0.2518  0.6875  0.6844
   84MOL0     C11266   7.347   9.394   9.531  0.0246  0.7639  0.4504
   84MOL0     C11267   7.236   9.495   9.483 -0.4700  0.3539  0.0549
   84MOL0     C11268   7.102   9.445   9.425  0.0936 -0.7414  0.0088
   84MOL0     C11269   7.028   9.363   9.516  0.2259  0.8445 -0.4643
   84MOL0     C11270   6.973   9.291   9.593 -0.8814  0.3393 -0.0512
   84MOL0     C11271   7.569   9.730   9.733 -0.4737 -1.0702 -0.2680
   84MOL0     C11272   7.592   9.812   9.847 -0.4461 -0.5046 -1.2269
   84MOL0     H11273   7.762  10.195  10.096  0.9495  2.3087  2.4862
   84MOL0     H11274   7.677  10.396  10.207 -0.6292  0.8113 -1.1064
   84MOL0     H11275   7.689  10.502  10.452  0.0000  1.5906 -0.2248
   84MOL0     H11276   7.583  10.545  10.315 -2.1404  0.1843  0.0123
   84MOL0     H11277   7.419  10.619  10.489 -1.5630 -2.6637 -0.7695
   84MOL0     H11278   7.545  10.589  10.606  0.7008  0.1286 -0.8185
   84MOL0     H11279   7.704  10.762  10.494 -0.0273 -1.8255  1.5457
   84MOL0     H11280   7.593  10.791  10.361 -1.8256 -0.5502 -0.0196
   84MOL0     H11281   7.422  10.872  10.521 -0.5552  0.9215  4.2156
   84MOL0     H11282   7.547  10.821  10.647  0.9054 -0.9450  0.0547
   84MOL0     H11283   7.552  11.045  10.629 -1.0962 -0.5638  0.2869
   84MOL0     H11284   7.701  10.987  10.540  0.1669  2.5588 -4.5305
   84MOL0     H11285   7.586  11.019  10.318 -0.8109  0.5429 -0.9116
   84MOL0     H11286   7.449  11.080  10.399 -0.3708 -0.7176 -0.2129
   84MOL0     H11287   7.624  11.259  10.517  4.4921  0.8063 -0.0775
   84MOL0     H11288   7.743  11.195  10.412  0.0032 -0.1610 -0.9393
   84MOL0     H11289   7.475  11.294  10.309  1.5949  0.7897 -0.0284
   84MOL0     H11290   7.625  11.270  10.226 -0.6713  1.2731 -0.9827
   84MOL0     H11291   7.808  11.408  10.235  2.9242  1.4107  0.3727
   84MOL0     H11292   7.978  11.637  10.321  0.5499  2.3259  0.9084
   84MOL0     H11293   7.893  11.681  10.162 -0.6745  1.3968  0.2881
   84MOL0     H11294   7.840  11.825  10.422  0.0518  2.1484  0.1625
   84MOL0     H11295   7.819  11.892  10.260 -1.8778  1.8502  4.3437
   84MOL0     H11296   8.063  11.910  10.230 -1.6847  0.8841 -1.1184
   84MOL0     H11297   8.078  11.831  10.388  0.3817 -0.6487 -0.7501
   84MOL0     H11298   7.922  12.112  10.331  1.3243  0.5462 -0.2586
   84MOL0     H11299   8.088  12.102  10.398  0.2114  2.4199  2.9792
   84MOL0     H11300   7.985  11.861  10.670  0.0985  0.1917 -0.7995
   84MOL0     H11301   7.995  11.758  10.902  3.0991 -1.6694 -0.6095
   84MOL0     H11302   8.142  11.822  10.971  0.6577  1.2487 -2.1340
   84MOL0     H11303   7.986  11.886  11.029  2.3460  3.1036 -0.2537
   84MOL0     H11304   8.431  12.059  11.096 -2.0765  0.6695 -0.5418
   84MOL0     H11305   8.605  12.042  11.278  0.8112  0.1719 -0.8710
   84MOL0     H11306   8.732  11.810  11.525 -0.3347  0.0995  0.6057
   84MOL0     H11307   8.727  11.935  11.404  0.7400 -1.8420 -0.8786
   84MOL0     H11308   8.711  12.104  11.608  0.8565  1.2254  1.0498
   84MOL0     H11309   8.753  11.947  11.694 -3.8683 -0.5266 -0.8288
   84MOL0     H11310   8.901  12.067  11.461 -0.2330  1.1084  0.2018
   84MOL0     H11311   8.968  11.944  11.569 -0.4985 -0.8633 -1.9519
   84MOL0     H11312   9.077  12.158  11.609  0.7956  1.1672  3.1557
   84MOL0     H11313   8.921  12.241  11.602 -1.0085 -0.4312  1.4134
   84MOL0     H11314   9.054  12.099  11.833  0.1740 -1.2489 -2.7713
   84MOL0     H11315   8.887  12.078  11.821  2.2479 -2.7917  0.6028
   84MOL0     H11316   8.854  12.332  11.819  0.1478 -0.5300 -1.1692
   84MOL0     H11317   8.947  12.279  11.958 -0.7264  0.5161  0.5361
   84MOL0     H11318   9.065  12.408  11.704  3.9862 -0.6671  0.0149
   84MOL0     H11319   9.163  12.333  11.823 -0.7136 -0.1726  0.0637
   84MOL0     H11320   9.175  12.545  11.879  1.9826 -2.7470  0.3774
   84MOL0     H11321   9.070  12.468  12.009 -2.4282  2.9388  0.7884
   84MOL0     H11322   8.301  11.857  11.519 -0.2374 -1.8104 -1.2804
   84MOL0     H11323   8.129  11.903  11.341  0.1604  0.6606 -0.1140
   84MOL0     H11324   8.154  12.297  10.826  0.4290 -0.2273 -0.2997
   84MOL0     H11325   8.032  12.285  10.613  1.1040 -1.0500 -2.0075
   84MOL0     H11326   7.455  10.155  10.472 -0.3734 -4.9790 -0.2308
   84MOL0     H11327   7.491   9.952  10.335  0.4684  0.1135  0.0004
   84MOL0     H11328   7.642   9.560  10.079  0.1523 -2.7786 -1.5016
   84MOL0     H11329   7.580   9.427   9.889 -0.1313  0.2904  1.3740
   84MOL0     H11330   7.475   9.330   9.678  2.2742  1.7691 -0.7808
   84MOL0     H11331   7.347   9.444   9.737 -0.2863  0.4493  0.7156
   84MOL0     H11332   7.295   9.299   9.545  2.2747 -0.8181 -1.1884
   84MOL0     H11333   7.416   9.379   9.447 -3.2594  0.6942 -2.4929
   84MOL0     H11334   7.279   9.564   9.410 -0.3080 -0.0864 -0.2748
   84MOL0     H11335   7.213   9.543   9.578 -3.5498 -1.6538  0.4512
   84MOL0     H11336   7.119   9.389   9.333  0.0005 -0.5858 -0.1040
   84MOL0     H11337   7.038   9.529   9.397  0.5830 -0.7612 -1.2156
   84MOL0     H11338   6.936   9.209   9.651 -1.9692  0.5397 -0.4437
   84MOL0     H11339   7.563   9.761   9.629 -1.9998  0.2410  0.1692
   84MOL0     H11340   7.599   9.920   9.850 -3.7542 -0.2017  2.0496
   85MOL0     O11341   3.347   1.972   2.943  0.8820  0.9146 -0.7150
   85MOL0     C11342   3.321   2.089   2.969 -0.2055  0.5875 -0.7369
   85MOL0     O11343   3.241   2.125   3.064  0.3918 -0.0217  0.1581
   85MOL0     C11344   3.188   2.030   3.147 -0.6637  0.2845 -0.1230
   85MOL0     C11345   3.221   2.032   3.282  0.4335  0.1479 -0.2944
   85MOL0     C11346   3.160   1.939   3.376  0.0782 -0.0655  0.3735
   85MOL0     C11347   3.066   1.836   3.325  0.6071 -0.6163  0.5527
   85MOL0     O11348   3.007   1.756   3.410 -0.4606 -0.0214  0.2621
   85MOL0     C11349   3.025   1.620   3.403  0.0937  0.7361  0.6999
   85MOL0     C11350   3.167   1.562   3.358  1.1227  0.5053 -0.3249
   85MOL0     C11351   3.169   1.409   3.369 -0.1154 -0.3814 -0.4024
   85MOL0     C11352   3.295   1.366   3.301  0.0441  0.6718 -0.2052
   85MOL0     C11353   3.292   1.207   3.283 -0.4473  0.0434 -0.3800
   85MOL0     C11354   3.312   1.140   3.419 -0.0028 -0.2889  0.2125
   85MOL0     C11355   3.289   0.992   3.397  0.4145  0.2794 -0.4336
   85MOL0     C11356   3.309   0.910   3.518 -1.0874 -0.3299 -0.4307
   85MOL0     N11357   3.313   0.770   3.489 -0.3092 -0.4574 -0.1939
   85MOL0     C11358   3.235   0.688   3.410 -0.3090  0.4091 -0.0738
   85MOL0     C11359   3.292   0.567   3.406 -0.1048  0.3224  0.1486
   85MOL0     C11360   3.233   0.447   3.342 -0.0988  0.1012  0.2316
   85MOL0     C11361   3.353   0.346   3.331  0.4448 -0.3336  0.4464
   85MOL0     C11362   3.313   0.224   3.246 -0.0564 -0.0184  0.0943
   85MOL0     C11363   3.423   0.120   3.250  0.2830  1.0993  0.6863
   85MOL0     O11364   3.364   0.007   3.195  0.2927 -0.4016 -0.7493
   85MOL0     C11365   3.443  -0.100   3.200  0.6410  0.3152  0.1809
   85MOL0     C11366   3.403  -0.206   3.278 -0.3407 -0.2402  0.2680
   85MOL0     C11367   3.489  -0.309   3.305  0.4134 -0.2785  0.2894
   85MOL0     C11368   3.450  -0.409   3.404  0.2281  0.3349 -0.7470
   85MOL0     C11369   3.615  -0.323   3.247 -0.3539 -0.9202 -0.1794
   85MOL0     C11370   3.720  -0.427   3.266  0.4042  0.2571 -1.1576
   85MOL0     O11371   3.850  -0.389   3.223  0.1076 -0.3672  0.2233
   85MOL0     C11372   3.956  -0.476   3.238  1.2051 -0.7515  0.6921
   85MOL0     C11373   4.056  -0.457   3.327 -0.2900  0.4510  0.0107
   85MOL0     C11374   4.150  -0.556   3.340 -0.7459  0.1855  0.3618
   85MOL0     C11375   4.165  -0.660   3.247  0.6601  1.5864  0.8663
   85MOL0     O11376   4.260  -0.762   3.253 -0.0870 -0.1315  0.3711
   85MOL0     C11377   4.335  -0.782   3.371  0.3112 -0.2264  0.6399
   85MOL0     C11378   4.388  -0.930   3.344 -0.1148  0.0750  0.6886
   85MOL0     C11379   4.493  -0.974   3.440  0.1948  0.2210 -0.3555
   85MOL0     C11380   4.563  -1.109   3.403 -1.2809 -0.3970 -0.4096
   85MOL0     C11381   4.691  -1.150   3.488  0.5228 -0.3109 -0.0287
   85MOL0     C11382   4.692  -1.305   3.525 -0.1345 -0.5339  0.1507
   85MOL0     C11383   4.585  -1.347   3.629  0.6835  1.0323  0.1099
   85MOL0     C11384   4.536  -1.491   3.642 -0.7656  0.0909 -0.2000
   85MOL0    Cl11385   4.663  -1.618   3.592  0.4230 -0.1124 -0.0881
   85MOL0     C11386   4.065  -0.668   3.157  0.2871  0.4846  0.9928
   85MOL0     C11387   3.959  -0.584   3.153  0.9084 -0.4619  0.2466
   85MOL0     O11388   3.689  -0.542   3.302 -0.2253  0.0118  0.2311
   85MOL0     C11389   3.640  -0.226   3.145 -0.5823  0.2711 -1.2717
   85MOL0     C11390   3.562  -0.118   3.130 -0.4567  0.8497 -1.1911
   85MOL0     N11391   3.400   0.567   3.482  0.0937 -0.9246 -0.0008
   85MOL0     N11392   3.407   0.687   3.533 -0.2789  0.1195 -0.3312
   85MOL0     C11393   3.033   1.844   3.193 -0.1337 -0.6329  0.0628
   85MOL0     C11394   3.102   1.929   3.103  0.2076  0.0838  0.5558
   85MOL0     C11395   3.375   2.202   2.888 -0.1934  0.1591  0.6267
   85MOL0     C11396   3.309   2.323   2.865  1.0127  0.5640  0.1976
   85MOL0     C11397   3.359   2.420   2.776 -0.4771 -0.6912 -0.8512
   85MOL0     C11398   3.487   2.400   2.720 -0.1779 -0.0774 -0.4666
   85MOL0     O11399   3.567   2.496   2.659 -0.4537  0.5242  0.5778
   85MOL0     C11400   3.518   2.634   2.654  0.5627  0.1564  0.2923
   85MOL0     C11401   3.629   2.731   2.622  0.2894  0.2551 -0.2745
   85MOL0     C11402   3.581   2.878   2.662 -0.3566  0.2487 -0.1448
   85MOL0     C11403   3.692   2.980   2.636 -0.6099 -0.6092  0.0605
   85MOL0     C11404   3.789   2.994   2.740  0.3026  0.9540 -0.5681
   85MOL0     C11405   3.877   3.013   2.830 -0.3901 -0.2999 -0.0945
   85MOL0     C11406   3.560   2.287   2.761 -0.1594 -0.8511 -0.2205
   85MOL0     C11407   3.514   2.195   2.846  0.2640  0.0149 -0.1912
   85MOL0     H11408   3.292   2.103   3.322  0.2220 -0.0438  0.4388
   85MOL0     H11409   3.181   1.938   3.483 -1.2156 -0.1171  0.6400
   85MOL0     H11410   3.009   1.577   3.502  1.8362 -0.3738  0.5451
   85MOL0     H11411   2.935   1.576   3.358 -0.2822  0.3491  1.7749
   85MOL0     H11412   3.188   1.598   3.258 -0.9051  1.0305 -0.6011
   85MOL0     H11413   3.235   1.598   3.437 -0.1159 -2.8788  2.5667
   85MOL0     H11414   3.185   1.397   3.476  2.7112  3.7953 -0.1133
   85MOL0     H11415   3.084   1.353   3.329  0.5777 -2.2253  0.6164
   85MOL0     H11416   3.292   1.408   3.200  3.4292  0.8800 -0.3081
   85MOL0     H11417   3.383   1.390   3.361 -1.6414  3.4998  1.3395
   85MOL0     H11418   3.194   1.171   3.252 -1.9135  1.2964  2.4457
   85MOL0     H11419   3.367   1.173   3.211  0.7564  3.4785 -0.9267
   85MOL0     H11420   3.418   1.141   3.449 -0.2224  0.0968  0.9965
   85MOL0     H11421   3.241   1.182   3.490 -2.3592  1.6439 -3.0241
   85MOL0     H11422   3.183   0.983   3.370 -0.6340  2.7849  2.3881
   85MOL0     H11423   3.360   0.970   3.316  0.3611  1.6312 -0.8715
   85MOL0     H11424   3.236   0.923   3.598  0.9461 -0.3594  1.5178
   85MOL0     H11425   3.408   0.948   3.547  0.2001 -4.8875  2.0494
   85MOL0     H11426   3.136   0.725   3.383  0.0252  3.1502  2.0193
   85MOL0     H11427   3.150   0.414   3.405  1.8561  0.9464  3.4741
   85MOL0     H11428   3.184   0.469   3.246 -5.2169  0.9358  2.7017
   85MOL0     H11429   3.383   0.314   3.432 -0.4759 -1.2121  0.4561
   85MOL0     H11430   3.436   0.400   3.283 -0.9388 -0.6194 -2.4573
   85MOL0     H11431   3.286   0.249   3.142  0.5234 -4.2865 -1.2658
   85MOL0     H11432   3.230   0.169   3.292  1.7200 -3.0293 -0.0747
   85MOL0     H11433   3.455   0.098   3.352 -0.3172  0.2464  0.7031
   85MOL0     H11434   3.497   0.156   3.177  1.1381  0.5186  1.2512
   85MOL0     H11435   3.309  -0.211   3.333 -0.8810 -2.9542 -0.7494
   85MOL0     H11436   3.410  -0.497   3.354  0.0970 -0.0004 -0.0594
   85MOL0     H11437   3.535  -0.445   3.463  0.9255  0.8313 -1.4295
   85MOL0     H11438   3.377  -0.367   3.473  0.5514  1.7357 -1.2197
   85MOL0     H11439   4.047  -0.379   3.402 -2.0364 -0.4358  0.7811
   85MOL0     H11440   4.218  -0.551   3.425 -1.9821 -0.9247  1.4760
   85MOL0     H11441   4.406  -0.700   3.382  0.3145  0.3541 -2.6630
   85MOL0     H11442   4.280  -0.782   3.466  2.2066 -1.7746  1.8233
   85MOL0     H11443   4.307  -1.003   3.350  0.7034 -0.9534 -0.3596
   85MOL0     H11444   4.421  -0.937   3.239 -0.4318 -0.7836  0.6370
   85MOL0     H11445   4.433  -0.987   3.531 -1.6057 -1.4843 -1.6879
   85MOL0     H11446   4.563  -0.891   3.455 -0.1979  0.6787 -1.0312
   85MOL0     H11447   4.479  -1.176   3.419 -3.1221  1.7555 -0.5552
   85MOL0     H11448   4.595  -1.134   3.301 -1.3266 -3.0910  0.1757
   85MOL0     H11449   4.692  -1.093   3.581 -0.5650  0.4880 -0.4900
   85MOL0     H11450   4.785  -1.127   3.437  2.4939 -0.8704  3.0981
   85MOL0     H11451   4.682  -1.363   3.433  0.7065 -1.9772  0.9298
   85MOL0     H11452   4.796  -1.321   3.556  1.4356  4.3717 -1.5436
   85MOL0     H11453   4.490  -1.298   3.609 -1.6808 -2.6976  1.2328
   85MOL0     H11454   4.638  -1.324   3.722  1.1205  1.2042 -0.1739
   85MOL0     H11455   4.452  -1.514   3.576 -0.8966 -1.6389  0.5216
   85MOL0     H11456   4.509  -1.512   3.746  1.7280  1.7017  0.8823
   85MOL0     H11457   4.079  -0.748   3.084 -3.9482 -0.6513  1.1117
   85MOL0     H11458   3.883  -0.602   3.078  0.2632 -1.7774  1.1914
   85MOL0     H11459   3.728  -0.239   3.083 -0.7535  1.0813 -1.6891
   85MOL0     H11460   3.595  -0.028   3.078 -1.9821  2.5005  0.5053
   85MOL0     H11461   2.947   1.790   3.153 -0.8292  1.1581 -0.9930
   85MOL0     H11462   3.071   1.937   2.999 -0.9675  0.7953  0.9335
   85MOL0     H11463   3.211   2.334   2.911 -0.2885 -1.1593 -1.9351
   85MOL0     H11464   3.300   2.511   2.764 -2.9624 -2.3852 -2.6489
   85MOL0     H11465   3.445   2.644   2.573  2.0914  0.6191 -1.0721
   85MOL0     H11466   3.461   2.659   2.744 -0.2043 -2.2837  0.5557
   85MOL0     H11467   3.654   2.723   2.516  0.4974  1.6637 -0.3518
   85MOL0     H11468   3.716   2.706   2.682  0.8233  0.1380 -1.0886
   85MOL0     H11469   3.558   2.896   2.767 -1.7168  1.2453 -0.5896
   85MOL0     H11470   3.503   2.910   2.593 -0.9847 -1.2087 -0.1474
   85MOL0     H11471   3.633   3.069   2.612 -1.4005 -0.8932  0.8914
   85MOL0     H11472   3.740   2.956   2.540 -1.6952  1.2826 -1.0143
   85MOL0     H11473   3.942   3.059   2.901 -1.6571  3.0542 -0.8780
   85MOL0     H11474   3.660   2.273   2.722  0.4637  1.3866  0.4493
   85MOL0     H11475   3.585   2.116   2.865  1.5189  1.0869 -0.3137
   86MOL0     O11476   8.784   5.567   3.729 -0.0351  0.5266 -0.0397
   86MOL0     C11477   8.709   5.641   3.801  0.8648 -0.1681 -0.3573
   86MOL0     O11478   8.708   5.647   3.940  0.4367 -1.0999  0.9382
   86MOL0     C11479   8.792   5.554   3.998 -0.2905 -0.9852  0.1977
   86MOL0     C11480   8.923   5.588   4.036  0.2181  0.7036  0.2603
   86MOL0     C11481   9.002   5.500   4.116  0.2222 -0.2187 -0.1767
   86MOL0     C11482   8.958   5.367   4.141 -0.1292 -0.4706 -0.1341
   86MOL0     O11483   9.024   5.279   4.224 -1.0450 -0.2777 -0.7225
   86MOL0     C11484   9.165   5.298   4.229 -0.4419  0.6509  0.7563
   86MOL0     C11485   9.214   5.391   4.340  0.9597  0.1223  0.4190
   86MOL0     C11486   9.311   5.333   4.445  0.1965  1.3188 -0.1332
   86MOL0     C11487   9.252   5.243   4.557  0.0352  0.1051 -0.2218
   86MOL0     C11488   9.347   5.198   4.663  0.1432  0.0250  0.0844
   86MOL0     C11489   9.297   5.089   4.767  0.1200 -0.3379  0.0571
   86MOL0     C11490   9.406   5.034   4.857  0.6057 -0.1358 -0.8253
   86MOL0     C11491   9.432   4.891   4.814  0.4540  0.6039  0.9504
   86MOL0     N11492   9.338   4.786   4.853 -0.3489  0.3738  0.3730
   86MOL0     C11493   9.236   4.732   4.779 -0.3772  0.2669  0.4271
   86MOL0     C11494   9.165   4.648   4.867  0.2884 -0.4529 -0.6310
   86MOL0     C11495   9.042   4.575   4.833  0.4377 -0.1881 -0.0075
   86MOL0     C11496   8.916   4.663   4.819 -0.8550 -0.3935  0.1188
   86MOL0     C11497   8.923   4.799   4.895  0.0052 -0.2750 -1.6791
   86MOL0     C11498   8.787   4.876   4.891  0.0105  0.5284 -0.9538
   86MOL0     O11499   8.733   4.855   4.758 -0.4694  0.0262 -0.0935
   86MOL0     C11500   8.601   4.891   4.761  0.0784  0.0277  0.7667
   86MOL0     C11501   8.510   4.787   4.730  0.2065  0.4903  0.4207
   86MOL0     C11502   8.381   4.814   4.695  0.5082 -0.3461 -0.2592
   86MOL0     C11503   8.277   4.702   4.669 -0.7205 -0.2923 -0.0193
   86MOL0     C11504   8.349   4.951   4.686  0.7155 -0.1946  0.1880
   86MOL0     C11505   8.213   4.998   4.647 -1.1779 -0.5327 -0.0547
   86MOL0     O11506   8.117   4.906   4.650  0.3088 -0.3910  0.1863
   86MOL0     C11507   7.985   4.946   4.637 -0.5496 -0.9139  0.7424
   86MOL0     C11508   7.898   4.943   4.742 -0.0426  0.2597 -0.6187
   86MOL0     C11509   7.765   4.980   4.732 -0.0931 -0.2130  0.1028
   86MOL0     C11510   7.707   5.012   4.608 -0.7457  0.7622 -0.0249
   86MOL0     O11511   7.583   5.064   4.592 -0.2183 -0.7452  0.3024
   86MOL0     C11512   7.561   5.142   4.478 -0.9423 -0.2727 -0.6161
   86MOL0     C11513   7.427   5.206   4.500  0.7140  1.2867  0.2328
   86MOL0     C11514   7.367   5.281   4.382 -0.4998 -0.3387  0.6508
   86MOL0     C11515   7.414   5.428   4.375 -0.0204 -0.2160  0.3812
   86MOL0     C11516   7.329   5.509   4.266 -0.6709 -0.4037  0.1422
   86MOL0     C11517   7.313   5.436   4.127 -0.4644 -0.0030 -0.5567
   86MOL0     C11518   7.437   5.435   4.043  0.6624 -0.0551 -0.3838
   86MOL0     C11519   7.481   5.576   3.989 -0.0863 -0.2085  0.6054
   86MOL0    Cl11520   7.353   5.651   3.878 -0.0909  0.2403  0.2198
   86MOL0     C11521   7.800   5.013   4.496 -0.9348 -0.5538  0.1925
   86MOL0     C11522   7.937   4.980   4.515  0.6981  0.0307 -0.1005
   86MOL0     O11523   8.205   5.112   4.603  0.1202 -0.6128  0.3312
   86MOL0     C11524   8.432   5.054   4.726  0.1982 -0.0603 -0.7772
   86MOL0     C11525   8.558   5.020   4.776 -0.1977  0.4719 -0.7331
   86MOL0     N11526   9.217   4.664   4.992  0.0718  0.7780 -0.2616
   86MOL0     N11527   9.321   4.741   4.979 -0.0784 -0.0215  0.6938
   86MOL0     C11528   8.828   5.343   4.105 -0.2987 -0.2248  0.6348
   86MOL0     C11529   8.746   5.432   4.040  0.2951  0.8970 -0.4951
   86MOL0     C11530   8.633   5.750   3.738  0.2901  0.2368 -0.9520
   86MOL0     C11531   8.532   5.811   3.808 -0.6698 -0.4565 -0.3109
   86MOL0     C11532   8.455   5.912   3.745 -0.2585  0.3683 -1.2343
   86MOL0     C11533   8.456   5.938   3.609 -0.0476  0.3683  0.1895
   86MOL0     O11534   8.371   6.026   3.554 -0.0474  0.3574 -0.2074
   86MOL0     C11535   8.429   6.156   3.540  0.0848 -0.0446 -0.4999
   86MOL0     C11536   8.342   6.270   3.584  0.0074 -0.7209 -0.5909
   86MOL0     C11537   8.294   6.251   3.724 -0.2099 -0.3134 -0.2752
   86MOL0     C11538   8.187   6.357   3.776 -0.0422  0.5543  0.1795
   86MOL0     C11539   8.065   6.332   3.698  0.2289 -0.0260 -0.3023
   86MOL0     C11540   7.954   6.333   3.654  0.0270  0.5982 -0.0109
   86MOL0     C11541   8.547   5.863   3.537  0.3634  1.2571 -0.0704
   86MOL0     C11542   8.641   5.771   3.600  1.0830 -0.7663  0.4131
   86MOL0     H11543   8.978   5.672   3.995 -1.4424  0.6136 -2.3498
   86MOL0     H11544   9.103   5.532   4.140  1.2103 -2.5669 -0.9842
   86MOL0     H11545   9.193   5.198   4.264 -1.3813 -0.2515 -0.9215
   86MOL0     H11546   9.208   5.306   4.128 -2.7414 -2.1398 -0.5968
   86MOL0     H11547   9.252   5.481   4.291  0.6101 -1.0731 -2.1935
   86MOL0     H11548   9.123   5.412   4.397 -1.1091 -1.7662 -1.9263
   86MOL0     H11549   9.391   5.282   4.391 -1.1842 -0.8868 -0.2207
   86MOL0     H11550   9.367   5.410   4.498  0.3919 -0.2824  2.1009
   86MOL0     H11551   9.163   5.285   4.605 -1.6638 -4.7114  1.4577
   86MOL0     H11552   9.217   5.155   4.503  2.2006  0.5904 -2.6165
   86MOL0     H11553   9.435   5.166   4.607  0.2251 -2.3180  1.4302
   86MOL0     H11554   9.381   5.284   4.722  1.0944 -0.7826  0.7571
   86MOL0     H11555   9.219   5.139   4.824  0.1958 -0.0675 -0.0748
   86MOL0     H11556   9.233   5.015   4.718 -2.0487  1.7441 -0.3808
   86MOL0     H11557   9.498   5.090   4.840  0.2404  0.2404 -1.6607
   86MOL0     H11558   9.377   5.022   4.961  0.4579 -0.5690 -0.9122
   86MOL0     H11559   9.532   4.867   4.853  0.2014  0.1139  1.3036
   86MOL0     H11560   9.447   4.893   4.706 -0.2819 -0.6115  0.8175
   86MOL0     H11561   9.220   4.765   4.677  0.2382  2.1599  0.9034
   86MOL0     H11562   9.070   4.530   4.737  2.9549  0.3894  0.3660
   86MOL0     H11563   9.024   4.496   4.907  1.2013 -0.2264  0.1446
   86MOL0     H11564   8.830   4.602   4.850  1.4081 -2.9610  1.8930
   86MOL0     H11565   8.919   4.684   4.712  0.8448 -1.9527 -0.1841
   86MOL0     H11566   8.996   4.866   4.847  1.7124 -0.0786  1.0123
   86MOL0     H11567   8.947   4.776   4.999 -2.5363 -0.8858 -1.1483
   86MOL0     H11568   8.815   4.982   4.894  0.6281  0.3481  0.2682
   86MOL0     H11569   8.723   4.850   4.975 -0.5608 -0.7892 -1.7553
   86MOL0     H11570   8.552   4.687   4.728  2.6845  1.3420 -4.1521
   86MOL0     H11571   8.215   4.711   4.579  1.5488 -1.0353 -1.7506
   86MOL0     H11572   8.329   4.607   4.653  0.8654 -0.0827  3.1162
   86MOL0     H11573   8.218   4.693   4.760  0.7546  5.7065  1.9911
   86MOL0     H11574   7.938   4.905   4.835 -3.1221 -0.7601  0.4042
   86MOL0     H11575   7.696   4.982   4.816  0.6381  0.8285  0.6971
   86MOL0     H11576   7.628   5.228   4.485 -1.0716 -0.1348 -1.0852
   86MOL0     H11577   7.572   5.100   4.378  2.5654  3.6419 -2.1725
   86MOL0     H11578   7.358   5.127   4.534  1.2555  0.6562 -0.1150
   86MOL0     H11579   7.428   5.261   4.595 -2.6268 -1.7981  2.3367
   86MOL0     H11580   7.258   5.287   4.390 -0.6413  2.5331 -1.5516
   86MOL0     H11581   7.380   5.214   4.296 -0.9399 -0.3025  0.5554
   86MOL0     H11582   7.401   5.476   4.473 -1.2963 -0.0806  0.1595
   86MOL0     H11583   7.522   5.424   4.355 -0.9397 -1.9444 -6.8932
   86MOL0     H11584   7.392   5.596   4.241  0.9218 -1.8685 -1.2135
   86MOL0     H11585   7.232   5.532   4.312 -0.6930 -2.5124  1.2421
   86MOL0     H11586   7.275   5.334   4.135 -1.2029  0.3644  1.0936
   86MOL0     H11587   7.241   5.503   4.079 -1.5886  0.2377  1.3401
   86MOL0     H11588   7.405   5.381   3.954 -1.5112 -0.4786  0.5910
   86MOL0     H11589   7.524   5.391   4.094  1.5630  2.7555  0.7405
   86MOL0     H11590   7.571   5.555   3.930 -0.4218 -0.5091  0.1861
   86MOL0     H11591   7.505   5.643   4.071  2.0325 -0.4196  0.2105
   86MOL0     H11592   7.768   5.027   4.393  1.0626  0.4170 -0.3505
   86MOL0     H11593   7.997   4.962   4.427  1.2736 -2.4734  0.7062
   86MOL0     H11594   8.417   5.161   4.720  4.1617  0.7130  0.1686
   86MOL0     H11595   8.624   5.096   4.816 -1.6782  0.5064  1.8202
   86MOL0     H11596   8.786   5.244   4.126  0.7297 -0.4352  1.7995
   86MOL0     H11597   8.646   5.404   4.008  0.5705 -0.7530 -0.0111
   86MOL0     H11598   8.518   5.784   3.913 -1.7122  0.1266 -0.2923
   86MOL0     H11599   8.374   5.954   3.805 -1.2664 -0.5549 -1.9123
   86MOL0     H11600   8.529   6.167   3.583  0.6392  0.0102 -1.7613
   86MOL0     H11601   8.448   6.168   3.433  2.1201  1.0825 -0.0775
   86MOL0     H11602   8.267   6.292   3.507  0.4563  1.1137 -0.5301
   86MOL0     H11603   8.400   6.362   3.578 -1.3874  0.0897 -4.0496
   86MOL0     H11604   8.372   6.251   3.801 -1.7504 -2.5221  1.4255
   86MOL0     H11605   8.245   6.154   3.736 -1.7510  0.4765  0.1040
   86MOL0     H11606   8.221   6.454   3.738 -0.8388  0.9191  0.3829
   86MOL0     H11607   8.183   6.345   3.885 -3.2289 -0.7945  0.0139
   86MOL0     H11608   7.853   6.332   3.617  0.2137  2.3524 -0.6718
   86MOL0     H11609   8.533   5.864   3.429 -1.9377  5.5729  0.0619
   86MOL0     H11610   8.702   5.724   3.523 -1.3891 -0.4826 -1.8503
   87MOL0     O11611   5.904   6.773   0.573  0.0239 -0.0206  0.2454
   87MOL0     C11612   5.916   6.773   0.453 -0.3361  0.1898 -0.1119
   87MOL0     O11613   5.981   6.868   0.386  0.0957  0.0990  0.1490
   87MOL0     C11614   6.023   6.977   0.455  0.5208 -0.2882 -0.6040
   87MOL0     C11615   5.957   7.100   0.431 -0.4416  0.3984 -0.7052
   87MOL0     C11616   5.994   7.210   0.506  0.0413 -0.6224 -0.8892
   87MOL0     C11617   6.093   7.200   0.607 -0.1764  0.3335  0.5787
   87MOL0     O11618   6.139   7.304   0.683  0.2055  0.1043  0.8336
   87MOL0     C11619   6.039   7.398   0.716 -0.8498  0.4120  0.1987
   87MOL0     C11620   6.102   7.533   0.759 -0.3263 -0.1341  1.1134
   87MOL0     C11621   6.177   7.595   0.641  1.1704 -0.5855 -0.0388
   87MOL0     C11622   6.324   7.617   0.677  0.0444 -0.0388  0.1867
   87MOL0     C11623   6.416   7.691   0.573 -1.0146  0.9451 -0.2112
   87MOL0     C11624   6.554   7.694   0.638 -0.3698  0.4405 -0.4913
   87MOL0     C11625   6.649   7.755   0.533 -0.6266  0.4232  0.4192
   87MOL0     C11626   6.660   7.673   0.398  0.6614 -0.0049 -0.0811
   87MOL0     N11627   6.738   7.744   0.295 -0.2751  0.5959  0.2215
   87MOL0     C11628   6.687   7.779   0.170 -0.2540 -0.0119  0.2738
   87MOL0     C11629   6.790   7.847   0.112  0.5841  0.1143 -0.2452
   87MOL0     C11630   6.761   7.941  -0.004  0.1906 -0.9225 -1.1762
   87MOL0     C11631   6.889   7.934  -0.085 -0.2828 -0.2495 -0.3839
   87MOL0     C11632   6.873   8.002  -0.215  0.0164 -0.6465  0.1512
   87MOL0     C11633   6.997   8.005  -0.311 -0.4436  0.6856  0.1703
   87MOL0     O11634   7.113   8.076  -0.251 -0.0597  0.3700 -0.1871
   87MOL0     C11635   7.209   8.123  -0.331  0.1570 -0.2416  0.0714
   87MOL0     C11636   7.294   8.228  -0.291  0.4338 -0.3863 -0.6820
   87MOL0     C11637   7.396   8.277  -0.369  0.4717  1.3300  0.6450
   87MOL0     C11638   7.479   8.387  -0.308 -0.0367  0.9786  0.2126
   87MOL0     C11639   7.429   8.224  -0.498 -0.8492 -0.4317 -0.3688
   87MOL0     C11640   7.530   8.278  -0.591  0.3511  0.0141  0.2182
   87MOL0     O11641   7.625   8.374  -0.549 -0.8231  0.0133  0.0538
   87MOL0     C11642   7.730   8.403  -0.636  0.6400  0.2801 -1.0497
   87MOL0     C11643   7.748   8.537  -0.684 -0.5549  0.7350 -0.3724
   87MOL0     C11644   7.870   8.570  -0.754 -0.1972  0.0790 -0.5550
   87MOL0     C11645   7.973   8.474  -0.788  0.6605 -0.0030 -1.0317
   87MOL0     O11646   8.090   8.498  -0.861  0.7029 -0.3565  0.5485
   87MOL0     C11647   8.112   8.643  -0.880  0.8975  0.0028  0.6921
   87MOL0     C11648   8.232   8.651  -0.961 -1.3880 -0.0995  0.2525
   87MOL0     C11649   8.361   8.597  -0.893 -0.1754 -0.6712 -0.4224
   87MOL0     C11650   8.404   8.676  -0.759  0.4342 -0.4208 -0.4733
   87MOL0     C11651   8.516   8.594  -0.691 -0.2600 -0.4565  0.5619
   87MOL0     C11652   8.543   8.621  -0.543  0.2796  1.1677  0.5163
   87MOL0     C11653   8.418   8.610  -0.453 -0.0206  0.5184 -0.0992
   87MOL0     C11654   8.332   8.482  -0.460  0.1083  0.1103 -0.0550
   87MOL0    Cl11655   8.445   8.349  -0.476 -0.6446  0.3297 -0.0149
   87MOL0     C11656   7.945   8.344  -0.740  0.1025 -0.1722 -0.1543
   87MOL0     C11657   7.830   8.312  -0.662  0.0662  0.2242 -0.3298
   87MOL0     O11658   7.532   8.219  -0.702  0.2181  1.2569  0.4438
   87MOL0     C11659   7.340   8.125  -0.536 -0.6264 -0.5117 -0.2297
   87MOL0     C11660   7.241   8.076  -0.455 -0.4306  0.1077  0.4321
   87MOL0     N11661   6.889   7.866   0.214  0.2712  0.4695  0.9793
   87MOL0     N11662   6.858   7.810   0.316 -0.8913  0.0820 -0.1529
   87MOL0     C11663   6.164   7.082   0.617 -0.3973 -0.4517  0.4539
   87MOL0     C11664   6.131   6.970   0.540 -0.6386 -0.1488  0.1006
   87MOL0     C11665   5.878   6.652   0.382 -0.3443  0.0082  1.0550
   87MOL0     C11666   5.927   6.639   0.253 -0.1169  0.4673  0.1134
   87MOL0     C11667   5.867   6.544   0.167  0.6390 -0.3642  0.4664
   87MOL0     C11668   5.781   6.446   0.221  0.2547 -0.5174 -1.0061
   87MOL0     O11669   5.720   6.364   0.132 -0.0313  0.7638 -0.3663
   87MOL0     C11670   5.591   6.410   0.089 -0.1533  1.2685 -0.2934
   87MOL0     C11671   5.508   6.286   0.037 -0.2852  0.8204 -0.9107
   87MOL0     C11672   5.402   6.337  -0.058 -0.3766  0.1924  1.3015
   87MOL0     C11673   5.280   6.240  -0.051 -0.2643 -0.3217  0.6770
   87MOL0     C11674   5.321   6.111  -0.088 -0.4056  0.9937 -0.1173
   87MOL0     C11675   5.342   5.995  -0.120 -0.5059 -0.5166 -0.2823
   87MOL0     C11676   5.735   6.457   0.351 -0.2933 -0.0085 -0.5405
   87MOL0     C11677   5.772   6.567   0.427 -1.3087 -0.2821 -0.5141
   87MOL0     H11678   5.879   7.104   0.355 -2.1021  1.1492  0.9568
   87MOL0     H11679   5.937   7.300   0.483 -0.2101 -0.3198  0.7931
   87MOL0     H11680   5.969   7.419   0.635  0.4847  2.6953 -0.4391
   87MOL0     H11681   5.980   7.353   0.797  0.4516  1.0532  1.5605
   87MOL0     H11682   6.017   7.598   0.785  0.2010 -0.1530  3.0686
   87MOL0     H11683   6.160   7.517   0.850 -0.4952 -0.9522  1.0774
   87MOL0     H11684   6.174   7.532   0.552  4.2972  0.7546 -1.2676
   87MOL0     H11685   6.134   7.692   0.614 -0.4825 -1.1794  0.3519
   87MOL0     H11686   6.325   7.681   0.766 -0.2678  0.8204 -0.4027
   87MOL0     H11687   6.363   7.520   0.709 -0.6630 -0.6044 -0.6288
   87MOL0     H11688   6.416   7.628   0.483  0.5090  1.5605 -0.6730
   87MOL0     H11689   6.371   7.788   0.553  0.0202  1.4019 -0.3906
   87MOL0     H11690   6.543   7.754   0.729 -0.5934  0.8962 -0.8187
   87MOL0     H11691   6.583   7.594   0.673 -1.4212  0.2697 -0.0935
   87MOL0     H11692   6.596   7.849   0.516 -0.5831  0.7732  2.0377
   87MOL0     H11693   6.748   7.778   0.575  0.6491 -1.4588 -1.3593
   87MOL0     H11694   6.557   7.663   0.363  1.4514 -2.4915 -2.0019
   87MOL0     H11695   6.700   7.572   0.413 -3.0370 -1.4549  1.3054
   87MOL0     H11696   6.590   7.762   0.124  1.3073 -1.6098 -2.7102
   87MOL0     H11697   6.675   7.917  -0.068 -0.2729  1.7334 -1.6713
   87MOL0     H11698   6.734   8.043   0.025 -0.1762 -1.5186  0.7041
   87MOL0     H11699   6.914   7.829  -0.103  1.0308 -0.0091 -0.0443
   87MOL0     H11700   6.970   7.981  -0.029 -0.0691 -0.2757 -0.6673
   87MOL0     H11701   6.862   8.107  -0.186  2.0765 -0.0901 -0.8665
   87MOL0     H11702   6.788   7.961  -0.271  0.7840 -2.8531  0.4937
   87MOL0     H11703   6.961   8.057  -0.401  0.2169 -2.8078 -2.2984
   87MOL0     H11704   7.030   7.910  -0.353  1.9084  2.0384 -1.3015
   87MOL0     H11705   7.282   8.252  -0.186  0.6276  0.4214 -0.8410
   87MOL0     H11706   7.581   8.358  -0.283  1.3343  5.8120  1.2931
   87MOL0     H11707   7.473   8.473  -0.375  0.7680 -0.3283 -1.6173
   87MOL0     H11708   7.437   8.424  -0.214 -3.4515  0.6274 -1.0154
   87MOL0     H11709   7.671   8.612  -0.665 -2.4519 -1.3514  0.5762
   87MOL0     H11710   7.877   8.671  -0.793 -0.7453 -0.3113 -1.7085
   87MOL0     H11711   8.041   8.695  -0.946  2.2697  1.2717  0.1426
   87MOL0     H11712   8.125   8.697  -0.786  1.3795  0.6864  0.2383
   87MOL0     H11713   8.216   8.605  -1.059  2.9866 -0.1748 -0.6431
   87MOL0     H11714   8.245   8.760  -0.965 -0.9625 -0.1643 -0.3367
   87MOL0     H11715   8.442   8.610  -0.965 -1.3899 -0.1909 -1.7393
   87MOL0     H11716   8.344   8.492  -0.867 -0.1447 -1.2847 -2.6937
   87MOL0     H11717   8.448   8.774  -0.779 -0.1178  1.0289  4.2235
   87MOL0     H11718   8.321   8.699  -0.692  1.4606 -0.6585  0.9141
   87MOL0     H11719   8.615   8.605  -0.737  1.1278  0.8621  3.5679
   87MOL0     H11720   8.478   8.492  -0.696 -1.5053 -0.0345  1.0704
   87MOL0     H11721   8.627   8.558  -0.510 -2.2182 -1.6546  1.9492
   87MOL0     H11722   8.572   8.726  -0.542 -1.0074  1.6608 -2.5069
   87MOL0     H11723   8.357   8.701  -0.446  0.8438  1.1582 -0.7034
   87MOL0     H11724   8.469   8.611  -0.357 -0.5465  1.5587  0.1911
   87MOL0     H11725   8.263   8.480  -0.545 -0.9781  2.3155  0.6893
   87MOL0     H11726   8.270   8.462  -0.372 -1.6345  0.8286 -1.0832
   87MOL0     H11727   8.004   8.255  -0.761  1.3665  1.2630 -3.3430
   87MOL0     H11728   7.816   8.215  -0.615  1.5559 -0.0024 -0.3351
   87MOL0     H11729   7.348   8.082  -0.635  0.4015 -0.3543 -0.2161
   87MOL0     H11730   7.180   7.995  -0.496 -2.1752  0.8312  1.4814
   87MOL0     H11731   6.243   7.080   0.691 -1.3735  0.3554  1.5622
   87MOL0     H11732   6.190   6.882   0.562  1.3858  1.1421  0.0459
   87MOL0     H11733   6.008   6.705   0.224  0.9651  0.4790  2.8988
   87MOL0     H11734   5.892   6.527   0.063 -2.0402  0.7024 -0.4420
   87MOL0     H11735   5.533   6.466   0.163  1.7038  2.1115  0.5969
   87MOL0     H11736   5.607   6.470  -0.001 -0.7833  1.0841 -0.5291
   87MOL0     H11737   5.473   6.214   0.111  2.1025  1.3400  0.8146
   87MOL0     H11738   5.578   6.223  -0.019 -0.9922 -0.2144 -0.6673
   87MOL0     H11739   5.438   6.346  -0.161 -2.5625 -2.7788  0.1177
   87MOL0     H11740   5.377   6.439  -0.029 -0.2495  0.6098 -0.0133
   87MOL0     H11741   5.200   6.278  -0.115 -1.1059  0.1402  1.9696
   87MOL0     H11742   5.237   6.248   0.049 -2.9888  1.9296 -0.5394
   87MOL0     H11743   5.367   5.893  -0.143  0.9557 -0.4791  0.9914
   87MOL0     H11744   5.665   6.387   0.395  1.4743 -1.0001  0.8608
   87MOL0     H11745   5.727   6.583   0.525  1.0501  2.8664  0.2201
   88MOL0     O11746   3.491   1.742   0.785 -0.5425 -0.0653  0.7062
   88MOL0     C11747   3.569   1.820   0.737 -0.6376 -0.4626 -0.3444
   88MOL0     O11748   3.545   1.883   0.618  0.4183 -0.0101 -0.4634
   88MOL0     C11749   3.422   1.867   0.572  0.0832 -0.8404 -1.1411
   88MOL0     C11750   3.386   1.780   0.472  0.4077  0.4175  0.2037
   88MOL0     C11751   3.256   1.778   0.419 -0.5768 -0.6513 -0.4110
   88MOL0     C11752   3.151   1.845   0.491  0.1269 -0.7782  0.0771
   88MOL0     O11753   3.026   1.831   0.448  1.0532 -0.1862 -0.2707
   88MOL0     C11754   3.002   1.814   0.304 -0.6497 -0.3848 -0.9572
   88MOL0     C11755   2.860   1.782   0.264  0.6053  0.1002  0.4195
   88MOL0     C11756   2.813   1.645   0.313  0.2218  0.2298 -0.5254
   88MOL0     C11757   2.692   1.594   0.225 -0.0941  0.0450 -0.6134
   88MOL0     C11758   2.737   1.529   0.097 -0.1904 -0.5460 -0.4527
   88MOL0     C11759   2.624   1.513  -0.006 -0.2504 -0.4280 -0.2049
   88MOL0     C11760   2.497   1.435   0.054 -0.4919 -0.3865 -0.2949
   88MOL0     C11761   2.534   1.281   0.080  0.3603 -0.0996  0.6443
   88MOL0     N11762   2.572   1.215  -0.044 -0.5357 -0.0559 -0.5280
   88MOL0     C11763   2.661   1.112  -0.056 -0.3319 -0.5404  0.2409
   88MOL0     C11764   2.639   1.069  -0.183 -0.1078 -0.4400 -0.3054
   88MOL0     C11765   2.692   0.947  -0.238 -1.1710  0.1518 -0.1791
   88MOL0     C11766   2.764   0.962  -0.379  0.3938 -1.0354  0.0446
   88MOL0     C11767   2.907   1.014  -0.358 -0.4008 -0.0184 -0.1482
   88MOL0     C11768   2.976   1.040  -0.489  0.3038  0.4820  1.0532
   88MOL0     O11769   2.950   0.934  -0.582 -0.2507  0.0681  0.1588
   88MOL0     C11770   2.983   0.938  -0.713 -0.1095  0.2185  0.0095
   88MOL0     C11771   3.076   1.018  -0.771 -0.1605 -0.3556 -0.2424
   88MOL0     C11772   3.118   1.006  -0.899 -0.9118  0.1053 -0.1175
   88MOL0     C11773   3.221   1.110  -0.950  0.1824 -0.4147 -0.2072
   88MOL0     C11774   3.065   0.909  -0.988  0.1410 -0.4351  0.6122
   88MOL0     C11775   3.099   0.897  -1.133 -0.8860  0.1031 -0.1613
   88MOL0     O11776   3.132   0.770  -1.171 -0.2524 -0.4751  0.3912
   88MOL0     C11777   3.169   0.737  -1.300  0.1978  0.7742  0.2258
   88MOL0     C11778   3.292   0.670  -1.300 -0.3452 -0.0450  0.5569
   88MOL0     C11779   3.350   0.633  -1.430 -0.3769  0.8368 -0.0616
   88MOL0     C11780   3.281   0.639  -1.549 -0.4124  0.1630  0.0683
   88MOL0     O11781   3.331   0.581  -1.662 -0.6012 -0.2461  0.1227
   88MOL0     C11782   3.290   0.628  -1.786 -0.1951 -0.2572 -0.0170
   88MOL0     C11783   3.358   0.555  -1.905  0.6563  0.8821  0.6267
   88MOL0     C11784   3.311   0.615  -2.042  0.1226 -0.5908 -0.2395
   88MOL0     C11785   3.375   0.537  -2.164  1.0434 -0.6119 -0.2185
   88MOL0     C11786   3.364   0.388  -2.154  0.0292  0.4082 -0.0322
   88MOL0     C11787   3.390   0.330  -2.291  0.1743 -0.4487  1.1191
   88MOL0     C11788   3.394   0.174  -2.292  0.1229 -0.4774  0.8861
   88MOL0     C11789   3.446   0.108  -2.423  0.1335  0.4474  0.6038
   88MOL0    Cl11790   3.495  -0.066  -2.411 -0.4470  0.2202 -0.0037
   88MOL0     C11791   3.161   0.715  -1.547  0.1814 -0.0883  0.7287
   88MOL0     C11792   3.104   0.758  -1.428  0.0754 -0.6024  0.1940
   88MOL0     O11793   3.104   0.991  -1.209  0.6280 -0.7269 -0.7602
   88MOL0     C11794   2.966   0.819  -0.943 -0.3062 -0.3526  0.1348
   88MOL0     C11795   2.932   0.841  -0.801  0.8200 -0.2036 -0.6370
   88MOL0     N11796   2.550   1.155  -0.252  0.1366  0.5488 -0.3638
   88MOL0     N11797   2.514   1.244  -0.170  0.8855  0.4499 -0.6791
   88MOL0     C11798   3.187   1.933   0.595  0.9505 -0.0065 -0.1758
   88MOL0     C11799   3.319   1.944   0.631  0.0086  0.8551 -0.0991
   88MOL0     C11800   3.701   1.847   0.802 -1.3978 -0.2464 -0.0299
   88MOL0     C11801   3.716   1.785   0.929 -0.3002 -0.9218  0.3766
   88MOL0     C11802   3.834   1.794   0.998  0.6111  0.5561  0.3949
   88MOL0     C11803   3.929   1.887   0.962 -0.3315 -1.0820  0.4774
   88MOL0     O11804   4.051   1.910   1.030 -0.3211  0.0141  0.9201
   88MOL0     C11805   4.092   1.838   1.143 -0.3030 -0.2503 -0.5387
   88MOL0     C11806   4.242   1.860   1.187 -0.3921  0.3950  0.1314
   88MOL0     C11807   4.279   2.003   1.196  0.0356  0.5985  0.6184
   88MOL0     C11808   4.422   2.011   1.235 -0.6304 -0.5186 -0.6136
   88MOL0     C11809   4.457   2.156   1.239  0.0654  0.1040  0.3869
   88MOL0     C11810   4.461   2.282   1.234 -0.0967 -0.7157 -0.3993
   88MOL0     C11811   3.913   1.960   0.835 -0.0274  0.4809  0.3410
   88MOL0     C11812   3.798   1.935   0.754 -0.9456 -0.4158 -0.2183
   88MOL0     H11813   3.458   1.704   0.442  0.3109  0.5995 -0.5110
   88MOL0     H11814   3.239   1.701   0.345  0.4726 -2.1895  0.8579
   88MOL0     H11815   3.027   1.905   0.250 -1.2823  2.0240  2.4517
   88MOL0     H11816   3.067   1.747   0.247 -0.8310  0.5605 -2.3127
   88MOL0     H11817   2.795   1.863   0.298 -0.4589  0.4889 -2.2702
   88MOL0     H11818   2.863   1.794   0.155  0.7024  0.3867  0.4520
   88MOL0     H11819   2.890   1.571   0.293  0.3286  0.2463 -0.1868
   88MOL0     H11820   2.794   1.655   0.420  0.4645  1.1029 -0.5527
   88MOL0     H11821   2.633   1.522   0.283  0.3916  0.4136  0.3684
   88MOL0     H11822   2.632   1.678   0.189  0.4632 -0.5608 -3.1014
   88MOL0     H11823   2.821   1.579   0.048 -0.3071  1.3979  1.1908
   88MOL0     H11824   2.787   1.435   0.119  0.0729  0.2008  2.6867
   88MOL0     H11825   2.608   1.617  -0.037 -1.8473  0.1012  2.1240
   88MOL0     H11826   2.653   1.462  -0.098  1.1441 -0.2422  0.1068
   88MOL0     H11827   2.468   1.473   0.153 -2.9105  3.4691 -2.2405
   88MOL0     H11828   2.407   1.435  -0.009  0.5948 -0.7719 -1.8958
   88MOL0     H11829   2.454   1.220   0.121 -0.1764 -1.5321 -2.2778
   88MOL0     H11830   2.622   1.278   0.145  0.7124 -1.2813  0.1283
   88MOL0     H11831   2.735   1.073   0.014  1.0822  1.1524 -0.2444
   88MOL0     H11832   2.775   0.910  -0.178 -0.3670  0.6603 -0.9413
   88MOL0     H11833   2.611   0.874  -0.240  0.6356 -2.0251  0.9886
   88MOL0     H11834   2.708   1.031  -0.443 -2.5247 -2.9736  0.3008
   88MOL0     H11835   2.764   0.865  -0.429 -0.7151 -0.8032 -0.4393
   88MOL0     H11836   2.971   0.945  -0.303  0.3015  1.6349  1.1939
   88MOL0     H11837   2.908   1.112  -0.309 -1.3896  0.2762 -0.6789
   88MOL0     H11838   3.082   1.068  -0.485  0.7598 -0.2072 -2.3923
   88MOL0     H11839   2.930   1.122  -0.546 -0.5482  0.2347  1.3818
   88MOL0     H11840   3.117   1.095  -0.707  3.3441 -1.9944 -0.3249
   88MOL0     H11841   3.300   1.063  -1.009 -0.4068 -2.2210  0.3783
   88MOL0     H11842   3.178   1.190  -1.013  0.7021 -0.6954 -0.9305
   88MOL0     H11843   3.266   1.161  -0.864 -0.5617 -0.6259  0.3182
   88MOL0     H11844   3.352   0.637  -1.216 -0.5051 -3.9188 -0.6398
   88MOL0     H11845   3.450   0.592  -1.431 -0.6094  0.2684 -0.8397
   88MOL0     H11846   3.184   0.607  -1.795  0.3689 -2.3167 -3.2117
   88MOL0     H11847   3.309   0.736  -1.787 -1.1474 -0.0852 -0.5832
   88MOL0     H11848   3.467   0.554  -1.897  0.7668 -1.0336 -0.5331
   88MOL0     H11849   3.329   0.450  -1.901  1.2874  0.5427 -2.0711
   88MOL0     H11850   3.334   0.720  -2.062  1.0515 -1.2265 -2.9370
   88MOL0     H11851   3.203   0.607  -2.033 -0.1499  0.3434 -2.1199
   88MOL0     H11852   3.318   0.579  -2.248  1.8869  0.2967 -0.3559
   88MOL0     H11853   3.479   0.570  -2.180  0.7711  0.4473  0.1369
   88MOL0     H11854   3.272   0.355  -2.106  0.5798 -0.1780  0.6554
   88MOL0     H11855   3.444   0.340  -2.095 -0.3397 -0.8202 -0.4898
   88MOL0     H11856   3.309   0.357  -2.360  1.1962 -0.3496 -0.0731
   88MOL0     H11857   3.481   0.374  -2.332 -1.2295  2.1128  0.5237
   88MOL0     H11858   3.299   0.128  -2.264 -0.2756 -0.6835 -0.7158
   88MOL0     H11859   3.474   0.146  -2.222  3.1155 -1.2277 -2.5232
   88MOL0     H11860   3.539   0.155  -2.455 -0.3163  1.2999  0.5252
   88MOL0     H11861   3.378   0.109  -2.508  1.5018 -1.1303 -0.5692
   88MOL0     H11862   3.110   0.760  -1.631  2.1088  2.4171  0.7889
   88MOL0     H11863   3.012   0.813  -1.439 -1.0292 -2.7710 -3.2204
   88MOL0     H11864   2.913   0.753  -1.010 -1.9257  4.2636 -3.7591
   88MOL0     H11865   2.852   0.791  -0.748 -0.7169  2.3742 -0.3669
   88MOL0     H11866   3.105   1.985   0.642 -0.2231 -1.3108 -0.7204
   88MOL0     H11867   3.354   2.011   0.709  0.8359 -0.2018  0.4515
   88MOL0     H11868   3.637   1.720   0.964 -1.9646  1.8064  2.0330
   88MOL0     H11869   3.857   1.733   1.085  0.9957 -2.0466 -1.4208
   88MOL0     H11870   4.029   1.852   1.232 -0.7111 -0.4875 -0.7875
   88MOL0     H11871   4.080   1.730   1.131  0.1286 -1.1786  4.9068
   88MOL0     H11872   4.303   1.827   1.102  0.5300  2.8192 -0.2466
   88MOL0     H11873   4.264   1.808   1.281  1.7397  0.2788 -0.3703
   88MOL0     H11874   4.210   2.056   1.262  2.2936  4.4532  0.1810
   88MOL0     H11875   4.261   2.046   1.097  0.5748 -1.1082 -0.2517
   88MOL0     H11876   4.476   1.962   1.153  2.1007  1.7613 -0.3614
   88MOL0     H11877   4.443   1.970   1.334 -3.1870  5.0903  2.8039
   88MOL0     H11878   4.468   2.389   1.236  1.0682 -0.7459 -1.3525
   88MOL0     H11879   4.001   2.016   0.804  1.7613 -2.1763  0.2943
   88MOL0     H11880   3.782   1.986   0.660  1.5108  0.9234  0.0265
   89MOL0     O11881   8.199   5.776   4.999  0.7011  0.8900  1.0840
   89MOL0     C11882   8.102   5.856   5.005 -0.4217 -0.5650  0.5875
   89MOL0     O11883   8.117   5.982   5.050  0.2750  0.2344  0.2148
   89MOL0     C11884   8.234   6.042   5.081  0.1887  0.5255  0.7713
   89MOL0     C11885   8.239   6.125   5.188  0.7467  0.2324  0.5507
   89MOL0     C11886   8.366   6.187   5.218 -0.0289  0.3631 -0.2524
   89MOL0     C11887   8.472   6.176   5.136  0.2395 -1.3630 -0.5812
   89MOL0     O11888   8.578   6.255   5.165 -0.1088 -0.0775  0.2521
   89MOL0     C11889   8.673   6.285   5.058 -0.1184  0.6664 -0.3728
   89MOL0     C11890   8.741   6.410   5.096  0.5065 -0.6042 -1.2318
   89MOL0     C11891   8.851   6.377   5.195 -0.4854  0.7967  0.6633
   89MOL0     C11892   8.821   6.369   5.346 -0.3086 -0.7982 -0.2342
   89MOL0     C11893   8.789   6.503   5.407 -0.3493  0.3766 -0.7923
   89MOL0     C11894   8.770   6.489   5.555  0.0368  0.2939 -0.6571
   89MOL0     C11895   8.660   6.407   5.613 -0.7315  0.1142  0.2428
   89MOL0     C11896   8.526   6.484   5.597  0.7063 -1.0680  0.2449
   89MOL0     N11897   8.415   6.392   5.589  0.4898  0.3694 -0.4621
   89MOL0     C11898   8.405   6.277   5.664 -0.0978  0.2959 -0.0297
   89MOL0     C11899   8.279   6.227   5.643 -0.6343 -1.0039 -0.1694
   89MOL0     C11900   8.241   6.091   5.688  0.2022  0.5056 -0.2480
   89MOL0     C11901   8.089   6.067   5.693  0.1680 -0.2435 -0.9718
   89MOL0     C11902   8.046   5.913   5.705 -0.1629  0.3038  0.5817
   89MOL0     C11903   8.117   5.824   5.802  0.1653 -0.4677  0.5929
   89MOL0     O11904   8.068   5.690   5.786  0.4855 -0.3876 -0.6271
   89MOL0     C11905   8.133   5.586   5.854  0.1853 -0.8092 -1.1764
   89MOL0     C11906   8.053   5.487   5.914  0.1334 -0.6670 -0.4271
   89MOL0     C11907   8.119   5.378   5.978  0.4915 -0.4954 -0.2866
   89MOL0     C11908   8.033   5.269   6.037  0.8614 -0.5949 -0.6567
   89MOL0     C11909   8.259   5.362   5.969 -0.7992 -0.3261  1.1683
   89MOL0     C11910   8.333   5.247   6.034  0.2637  0.1239  0.0156
   89MOL0     O11911   8.295   5.207   6.157  0.1254  0.2774  0.1034
   89MOL0     C11912   8.374   5.133   6.240 -0.4716 -0.4478  0.0692
   89MOL0     C11913   8.320   5.007   6.277  0.7005 -0.1373  0.5139
   89MOL0     C11914   8.378   4.925   6.365 -1.0701  0.7077  0.0628
   89MOL0     C11915   8.492   4.972   6.433 -0.4063  0.0197 -0.4915
   89MOL0     O11916   8.544   4.885   6.525 -0.8243 -0.2532 -0.5946
   89MOL0     C11917   8.683   4.920   6.559  0.1648 -0.0149  0.1420
   89MOL0     C11918   8.729   4.801   6.644 -0.4400 -0.5517  0.3557
   89MOL0     C11919   8.878   4.830   6.673 -0.9270  0.3024  0.4478
   89MOL0     C11920   8.932   4.701   6.751 -0.4105 -0.0285  0.0967
   89MOL0     C11921   9.088   4.699   6.769  0.7853 -0.7032  0.3201
   89MOL0     C11922   9.143   4.573   6.838  0.1590 -0.3889  0.1176
   89MOL0     C11923   9.083   4.548   6.975 -1.2502  0.6976  0.7269
   89MOL0     C11924   9.186   4.461   7.057  0.0854 -0.3001  0.4370
   89MOL0    Cl11925   9.244   4.314   6.964  0.4409 -0.0257  0.0139
   89MOL0     C11926   8.543   5.100   6.404 -1.1665  0.2936  0.7035
   89MOL0     C11927   8.485   5.177   6.305  0.1984  0.2592  0.3099
   89MOL0     O11928   8.434   5.216   5.975 -0.0438  0.4897 -0.7305
   89MOL0     C11929   8.330   5.462   5.901 -0.9522 -0.3025 -0.4990
   89MOL0     C11930   8.271   5.573   5.848  0.3864  0.4414  0.1695
   89MOL0     N11931   8.218   6.323   5.555 -0.8087  0.0505 -0.2977
   89MOL0     N11932   8.299   6.414   5.525  0.8193 -0.1872 -0.6588
   89MOL0     C11933   8.467   6.103   5.014  0.5026  0.0863  0.7281
   89MOL0     C11934   8.349   6.038   4.991 -0.3434  0.0411 -0.5320
   89MOL0     C11935   7.964   5.829   4.972 -0.0212  0.5303  0.0332
   89MOL0     C11936   7.853   5.904   5.011  0.5141 -0.4093 -0.6579
   89MOL0     C11937   7.723   5.873   4.975  0.5022  0.3835 -0.2545
   89MOL0     C11938   7.691   5.763   4.900  0.5514 -0.6950  0.0561
   89MOL0     O11939   7.556   5.750   4.861  0.0583 -0.2279 -1.2755
   89MOL0     C11940   7.505   5.614   4.835  0.1912  0.5155  0.4138
   89MOL0     C11941   7.357   5.627   4.851  0.1129  0.1094 -0.9613
   89MOL0     C11942   7.305   5.488   4.821 -0.7220  0.3248 -0.0038
   89MOL0     C11943   7.161   5.493   4.766  0.0504  0.8680 -0.4044
   89MOL0     C11944   7.053   5.506   4.865  0.0812  0.6927 -0.0462
   89MOL0     C11945   6.955   5.496   4.937 -0.8627 -0.3497 -0.0264
   89MOL0     C11946   7.799   5.683   4.863  0.8942 -0.3616 -0.4185
   89MOL0     C11947   7.934   5.718   4.897  1.1953  0.8580  0.0635
   89MOL0     H11948   8.156   6.143   5.257  0.9580  3.8653  0.0366
   89MOL0     H11949   8.363   6.262   5.296 -2.3051  2.5208 -2.2367
   89MOL0     H11950   8.747   6.207   5.036 -2.5438 -1.9315  0.1873
   89MOL0     H11951   8.617   6.300   4.966 -2.1561 -1.2382  0.4648
   89MOL0     H11952   8.793   6.457   5.012  0.7469 -2.3081 -2.0792
   89MOL0     H11953   8.666   6.483   5.129 -0.9187 -0.8139 -3.7234
   89MOL0     H11954   8.902   6.289   5.156  0.3142  0.5158  2.2604
   89MOL0     H11955   8.920   6.462   5.193  1.1761 -0.4366  2.5487
   89MOL0     H11956   8.734   6.305   5.359 -0.9325  0.1347  0.2730
   89MOL0     H11957   8.896   6.316   5.406 -2.2682 -0.6190  2.5465
   89MOL0     H11958   8.878   6.566   5.401 -1.2215  1.7951  0.4982
   89MOL0     H11959   8.695   6.545   5.369 -0.9280 -0.2263 -0.0793
   89MOL0     H11960   8.857   6.437   5.596  0.2119  1.3614  0.3685
   89MOL0     H11961   8.770   6.582   5.612 -1.8487 -0.3384  0.4573
   89MOL0     H11962   8.662   6.315   5.553  3.6195  1.5254 -2.2160
   89MOL0     H11963   8.675   6.391   5.720 -2.3427  0.1084  0.4919
   89MOL0     H11964   8.514   6.549   5.510 -1.5393 -0.3456  1.0116
   89MOL0     H11965   8.488   6.556   5.671 -0.6595 -0.2173 -1.2233
   89MOL0     H11966   8.484   6.226   5.719 -0.0141  1.1221  0.6243
   89MOL0     H11967   8.279   6.028   5.607  0.5795 -0.2145  0.4837
   89MOL0     H11968   8.285   6.058   5.783  0.5346  2.0634  0.1653
   89MOL0     H11969   8.048   6.114   5.603  2.5493  2.0878 -0.9443
   89MOL0     H11970   8.062   6.110   5.790  1.0179 -3.8853  1.0915
   89MOL0     H11971   8.075   5.874   5.607 -1.5600 -0.0535  0.2850
   89MOL0     H11972   7.938   5.905   5.719 -0.0837  1.9597  2.5196
   89MOL0     H11973   8.089   5.863   5.900 -1.0544  3.6366 -1.1821
   89MOL0     H11974   8.224   5.837   5.782  0.0428  3.4240  1.7731
   89MOL0     H11975   7.945   5.497   5.913  0.1068 -0.7326  0.6040
   89MOL0     H11976   8.038   5.251   6.144 -1.3265  2.0059 -0.0032
   89MOL0     H11977   7.926   5.280   6.020  0.4602 -0.4982  1.6447
   89MOL0     H11978   8.063   5.176   5.988  1.8823 -1.4378  1.4473
   89MOL0     H11979   8.232   4.970   6.225 -1.4996  0.6432  3.3754
   89MOL0     H11980   8.324   4.833   6.389 -1.3053  0.3596 -1.6568
   89MOL0     H11981   8.743   4.924   6.467 -1.2318 -0.8487 -0.8418
   89MOL0     H11982   8.689   5.012   6.618  1.1177  0.4627 -0.6826
   89MOL0     H11983   8.666   4.795   6.733 -0.8790 -2.5366 -0.0386
   89MOL0     H11984   8.713   4.709   6.587  1.4831 -2.2455  2.3774
   89MOL0     H11985   8.889   4.922   6.730  1.3677  0.3753 -0.0259
   89MOL0     H11986   8.935   4.842   6.580 -0.4493  4.5082  1.0895
   89MOL0     H11987   8.880   4.709   6.847 -1.3232  1.7322 -0.5043
   89MOL0     H11988   8.903   4.607   6.703  1.0853 -0.9489  0.9051
   89MOL0     H11989   9.120   4.787   6.825  1.0622 -2.5836  3.3562
   89MOL0     H11990   9.142   4.700   6.674  3.8250 -2.1166  1.8883
   89MOL0     H11991   9.134   4.495   6.763 -0.6976  0.3006 -0.5203
   89MOL0     H11992   9.250   4.596   6.850  0.0028 -0.0228  0.8859
   89MOL0     H11993   8.986   4.498   6.959 -1.8623  2.5974 -2.4816
   89MOL0     H11994   9.079   4.647   7.019  0.9379  0.2979  1.9473
   89MOL0     H11995   9.127   4.426   7.142 -1.2047  1.3886  0.2824
   89MOL0     H11996   9.282   4.503   7.088  0.6063 -1.7703  0.9500
   89MOL0     H11997   8.622   5.150   6.459  0.2905 -0.4324 -0.6430
   89MOL0     H11998   8.510   5.277   6.271 -0.2380  0.4944  0.6635
   89MOL0     H11999   8.438   5.454   5.894 -0.6876  3.0294 -2.0673
   89MOL0     H12000   8.331   5.645   5.793 -1.6581  2.4170  0.3702
   89MOL0     H12001   8.551   6.089   4.947  2.0634  0.2583  2.5459
   89MOL0     H12002   8.347   5.974   4.904  2.2692  0.5921 -1.0664
   89MOL0     H12003   7.875   5.989   5.075 -2.0966  0.2075 -0.4683
   89MOL0     H12004   7.655   5.943   5.022 -0.0694 -0.5627  0.3683
   89MOL0     H12005   7.530   5.588   4.731 -2.6563  0.3573 -0.3052
   89MOL0     H12006   7.538   5.535   4.902  1.1096  1.0839  0.6532
   89MOL0     H12007   7.309   5.689   4.774  1.7308 -0.0788 -2.1582
   89MOL0     H12008   7.329   5.645   4.956  1.8175 -3.1946  0.1964
   89MOL0     H12009   7.321   5.433   4.914 -0.5404 -4.4676 -2.5525
   89MOL0     H12010   7.352   5.446   4.732  0.3387  1.1693  0.1312
   89MOL0     H12011   7.152   5.393   4.723  3.0106 -0.0760  0.8259
   89MOL0     H12012   7.137   5.565   4.688 -3.5791 -2.8369 -3.1303
   89MOL0     H12013   6.870   5.501   5.003  0.1294  1.3413  1.1941
   89MOL0     H12014   7.781   5.592   4.807  0.3291 -1.1512  0.9804
   89MOL0     H12015   8.018   5.657   4.867  3.1799  3.5226 -0.1326
   90MOL0     O12016   9.442   7.856   3.898 -0.5403 -0.0742  0.1220
   90MOL0     C12017   9.425   7.736   3.926  0.2326 -0.2565 -1.3622
   90MOL0     O12018   9.497   7.664   4.026  0.0600 -0.9797  0.3295
   90MOL0     C12019   9.576   7.735   4.111  0.4946  0.5132 -0.7791
   90MOL0     C12020   9.549   7.736   4.254  0.7672  0.6985 -0.5511
   90MOL0     C12021   9.624   7.825   4.337 -1.2161 -0.2450  0.1983
   90MOL0     C12022   9.729   7.898   4.284 -0.3701 -1.3481  0.5416
   90MOL0     O12023   9.818   7.981   4.357 -0.2529 -0.2952 -0.1936
   90MOL0     C12024   9.834   7.973   4.501  0.6015 -0.3728  0.7897
   90MOL0     C12025   9.899   7.843   4.535 -0.1340  0.3186  0.2739
   90MOL0     C12026  10.045   7.841   4.488 -0.3375  0.5197  0.3771
   90MOL0     C12027  10.123   7.733   4.570  0.6996 -0.0170 -0.8590
   90MOL0     C12028  10.269   7.734   4.543  0.1911  0.4842  0.4504
   90MOL0     C12029  10.340   7.648   4.651  0.3106  0.4146  0.0558
   90MOL0     C12030  10.484   7.640   4.610 -0.2932 -0.7000 -0.9756
   90MOL0     C12031  10.568   7.543   4.704  0.3498  0.0445 -0.0955
   90MOL0     N12032  10.504   7.407   4.691 -0.1233  0.1340 -0.0384
   90MOL0     C12033  10.511   7.314   4.594  0.2834  0.6725  0.0792
   90MOL0     C12034  10.446   7.209   4.633 -0.4455 -0.4034 -0.6210
   90MOL0     C12035  10.410   7.096   4.544 -0.3599 -0.3768 -0.1932
   90MOL0     C12036  10.492   6.969   4.582  0.1351  0.1937  0.7420
   90MOL0     C12037  10.430   6.889   4.698 -0.0788 -0.2329  0.0168
   90MOL0     C12038  10.530   6.773   4.735  0.6716  0.1288 -0.4313
   90MOL0     O12039  10.508   6.723   4.870 -0.3716  0.2201  0.0624
   90MOL0     C12040  10.537   6.591   4.895  0.9301 -1.0002  0.1034
   90MOL0     C12041  10.480   6.502   4.807  0.2685  0.1818 -1.2160
   90MOL0     C12042  10.493   6.365   4.818 -0.6574  0.2631  0.8554
   90MOL0     C12043  10.414   6.290   4.719  0.5682  0.0133  0.4871
   90MOL0     C12044  10.584   6.316   4.905 -0.2440  0.3353 -0.9469
   90MOL0     C12045  10.626   6.173   4.935  0.8968  1.1530  0.0909
   90MOL0     O12046  10.735   6.147   5.003 -0.6347 -0.6768 -0.1346
   90MOL0     C12047  10.750   6.039   5.084 -0.4565  0.4492  0.0818
   90MOL0     C12048  10.880   6.005   5.128  0.3751  0.5626  0.4219
   90MOL0     C12049  10.913   5.887   5.199  1.3149 -0.1273 -0.0235
   90MOL0     C12050  10.801   5.812   5.246 -0.3477  0.0215 -0.3832
   90MOL0     O12051  10.833   5.702   5.319 -1.0563 -0.2777 -0.4712
   90MOL0     C12052  10.734   5.595   5.348 -0.1279  0.2456 -0.2578
   90MOL0     C12053  10.653   5.593   5.483  0.5632 -0.0979 -0.1191
   90MOL0     C12054  10.537   5.497   5.466 -0.5597 -0.3124 -1.5877
   90MOL0     C12055  10.460   5.506   5.602 -0.1418  0.8544  0.5314
   90MOL0     C12056  10.322   5.443   5.575  0.6226  0.1546  0.2017
   90MOL0     C12057  10.236   5.423   5.708 -0.7668  0.0136 -0.5685
   90MOL0     C12058  10.174   5.556   5.753  0.2329 -0.2750 -0.2218
   90MOL0     C12059  10.162   5.568   5.909  0.7009 -0.2172 -0.0707
   90MOL0    Cl12060  10.309   5.662   5.960  0.3362 -0.2133 -0.5443
   90MOL0     C12061  10.668   5.852   5.216  0.1535  0.0405 -1.1187
   90MOL0     C12062  10.644   5.972   5.139  0.7802 -0.1142 -0.3257
   90MOL0     O12063  10.543   6.083   4.899 -0.2924 -0.2800  0.5869
   90MOL0     C12064  10.657   6.412   4.983  0.1865  0.1828 -0.4048
   90MOL0     C12065  10.619   6.549   4.989  0.1307 -0.1562 -0.2453
   90MOL0     N12066  10.386   7.240   4.747 -0.2409  0.2346 -0.0301
   90MOL0     N12067  10.438   7.343   4.793  0.4957  0.3194  0.1215
   90MOL0     C12068   9.755   7.884   4.149  0.6718 -0.6018  0.1607
   90MOL0     C12069   9.684   7.810   4.060  0.7739 -0.3073  0.3091
   90MOL0     C12070   9.317   7.667   3.856 -1.1915  0.3072 -0.0110
   90MOL0     C12071   9.221   7.739   3.787 -0.7036  0.2861  0.6028
   90MOL0     C12072   9.126   7.679   3.701  0.0518 -0.6775  0.7522
   90MOL0     C12073   9.116   7.539   3.703  0.9121  0.8547 -0.5856
   90MOL0     O12074   9.041   7.454   3.633  0.7805 -0.5526 -0.7874
   90MOL0     C12075   8.930   7.520   3.590 -0.2297 -0.0772  0.5628
   90MOL0     C12076   8.838   7.437   3.501 -0.8378 -0.1738  0.2409
   90MOL0     C12077   8.788   7.314   3.573  0.9385  0.1701 -0.3791
   90MOL0     C12078   8.639   7.271   3.545  0.2125 -0.1999 -0.3182
   90MOL0     C12079   8.629   7.246   3.398 -0.1396  0.2278  0.1714
   90MOL0     C12080   8.607   7.210   3.288  0.8065  0.6349  0.3101
   90MOL0     C12081   9.201   7.468   3.790 -0.6094 -0.3125  0.1615
   90MOL0     C12082   9.307   7.527   3.862 -0.4901 -0.2396  0.9402
   90MOL0     H12083   9.477   7.667   4.296  1.1317 -0.3231 -1.5719
   90MOL0     H12084   9.606   7.821   4.444  2.4230 -0.7603  0.9289
   90MOL0     H12085   9.897   8.056   4.535 -0.8466  1.3201 -0.4854
   90MOL0     H12086   9.742   7.974   4.560  0.0607 -2.4987  0.0712
   90MOL0     H12087   9.891   7.828   4.643 -1.6285 -2.8417 -0.1810
   90MOL0     H12088   9.857   7.754   4.488  1.7853 -0.0184 -0.9331
   90MOL0     H12089  10.047   7.824   4.380  2.7596  1.0219  0.2651
   90MOL0     H12090  10.094   7.938   4.504 -2.2307  2.2183 -3.0857
   90MOL0     H12091  10.096   7.759   4.673  1.9385  2.0903 -1.0133
   90MOL0     H12092  10.081   7.641   4.528  1.2461 -0.9812  0.6289
   90MOL0     H12093  10.278   7.695   4.441  1.0843 -1.5522  1.2494
   90MOL0     H12094  10.317   7.832   4.543 -0.0637  0.6286  2.0617
   90MOL0     H12095  10.320   7.698   4.746 -0.0232  0.5062 -0.0598
   90MOL0     H12096  10.293   7.549   4.652 -2.3234  1.5779 -0.6659
   90MOL0     H12097  10.506   7.608   4.507 -2.1953  0.9345 -1.9349
   90MOL0     H12098  10.530   7.739   4.614 -1.2495  0.0659 -4.8126
   90MOL0     H12099  10.573   7.578   4.808  1.3230  0.6469 -0.3272
   90MOL0     H12100  10.673   7.540   4.673  0.5180 -1.6150  0.5584
   90MOL0     H12101  10.552   7.327   4.494 -1.3433 -1.4229 -0.9463
   90MOL0     H12102  10.303   7.078   4.543 -0.2917 -1.7731  3.5306
   90MOL0     H12103  10.434   7.131   4.443  1.9404 -0.3391  0.2993
   90MOL0     H12104  10.597   6.993   4.598 -0.0908  2.1688 -0.3393
   90MOL0     H12105  10.490   6.898   4.500  2.3547 -1.4797  2.0393
   90MOL0     H12106  10.335   6.846   4.664  1.1447 -2.2636 -0.9957
   90MOL0     H12107  10.410   6.950   4.787  0.7306  1.6993 -1.0574
   90MOL0     H12108  10.632   6.812   4.740  0.5254  0.4613 -0.0684
   90MOL0     H12109  10.531   6.694   4.659  2.1944 -0.3563  0.0482
   90MOL0     H12110  10.423   6.543   4.724  2.5591 -0.8335 -3.4175
   90MOL0     H12111  10.373   6.196   4.757 -2.7111 -0.0615 -2.6559
   90MOL0     H12112  10.326   6.348   4.689 -0.4490 -1.9627 -0.4785
   90MOL0     H12113  10.477   6.270   4.632 -0.9218  0.0806 -0.6366
   90MOL0     H12114  10.965   6.066   5.102 -0.0552  1.4445  1.0016
   90MOL0     H12115  11.012   5.850   5.223  0.3325 -2.6017  0.5868
   90MOL0     H12116  10.661   5.597   5.266 -0.4509 -0.4871 -0.0021
   90MOL0     H12117  10.788   5.500   5.349 -0.6398 -0.0755 -1.5216
   90MOL0     H12118  10.721   5.563   5.564  1.2366 -0.7562 -0.9070
   90MOL0     H12119  10.625   5.697   5.505  2.9104  0.4940  0.3698
   90MOL0     H12120  10.574   5.398   5.436 -3.8946 -1.9699 -0.8022
   90MOL0     H12121  10.472   5.541   5.389 -0.9712  2.0239 -0.0054
   90MOL0     H12122  10.503   5.434   5.671 -2.7078 -1.5111 -0.1502
   90MOL0     H12123  10.439   5.609   5.633 -1.9863  0.4568  0.7366
   90MOL0     H12124  10.319   5.343   5.531 -3.1982  0.9032 -1.6054
   90MOL0     H12125  10.266   5.508   5.506 -1.4729  0.2549  1.8927
   90MOL0     H12126  10.161   5.348   5.683  1.2121 -0.8801 -4.7062
   90MOL0     H12127  10.304   5.396   5.789 -1.4219 -0.5564 -0.2051
   90MOL0     H12128  10.071   5.556   5.714  0.6036  2.0104 -1.3638
   90MOL0     H12129  10.225   5.638   5.702 -0.5208  0.7141  0.5715
   90MOL0     H12130  10.151   5.477   5.969  3.0679  0.7214  1.9907
   90MOL0     H12131  10.081   5.640   5.920  0.8866 -0.1607  1.1460
   90MOL0     H12132  10.593   5.783   5.255 -1.2068  3.3557  2.9154
   90MOL0     H12133  10.542   6.007   5.123  1.6276  3.6553  1.5377
   90MOL0     H12134  10.731   6.383   5.057 -0.1349  4.1351  1.7002
   90MOL0     H12135  10.647   6.613   5.071 -0.0677  2.0690 -1.8108
   90MOL0     H12136   9.842   7.940   4.115 -0.2165  0.8792  0.2488
   90MOL0     H12137   9.698   7.817   3.953 -1.1165  2.6812  0.1398
   90MOL0     H12138   9.236   7.846   3.777 -1.4422  0.3257 -0.1769
   90MOL0     H12139   9.082   7.741   3.624 -0.6403 -0.7685  1.0713
   90MOL0     H12140   8.873   7.557   3.676 -0.8790 -1.5479  0.7949
   90MOL0     H12141   8.950   7.610   3.529 -1.7333  2.0751  3.0319
   90MOL0     H12142   8.894   7.419   3.409 -1.8056 -0.9042 -0.2165
   90MOL0     H12143   8.752   7.499   3.476  0.1788 -0.3888 -4.9254
   90MOL0     H12144   8.807   7.330   3.680 -1.6358  0.8116  0.0316
   90MOL0     H12145   8.852   7.231   3.540  2.6614  1.0654  0.5787
   90MOL0     H12146   8.568   7.340   3.592 -2.2803 -4.7278  3.3799
   90MOL0     H12147   8.628   7.174   3.594 -0.6407  1.2862  2.6462
   90MOL0     H12148   8.588   7.183   3.186 -0.1801  0.3167  0.5637
   90MOL0     H12149   9.189   7.360   3.802  3.0578 -0.7787  0.7927
   90MOL0     H12150   9.376   7.476   3.929  3.6229  2.2425 -1.0151
   91MOL0     O12151   7.704   8.920   4.267  0.2952 -0.6365  1.2149
   91MOL0     C12152   7.804   8.869   4.323  0.9486  0.1342  0.4963
   91MOL0     O12153   7.895   8.929   4.418  0.3411 -0.9021  0.0594
   91MOL0     C12154   7.875   9.057   4.446 -0.4481  0.4245  0.0824
   91MOL0     C12155   7.861   9.160   4.354 -0.3383  0.1534  0.4208
   91MOL0     C12156   7.834   9.296   4.394 -0.2045  0.5277 -0.3700
   91MOL0     C12157   7.820   9.323   4.537  0.9390  1.0093  0.4055
   91MOL0     O12158   7.802   9.445   4.595 -0.6289 -0.3344  0.4391
   91MOL0     C12159   7.718   9.537   4.522  0.1525 -0.9852 -0.1717
   91MOL0     C12160   7.725   9.653   4.608  0.0908  0.8341 -0.8493
   91MOL0     C12161   7.649   9.778   4.559 -0.4903  0.7110 -0.1386
   91MOL0     C12162   7.730   9.909   4.588  0.5325  0.3657  0.1343
   91MOL0     C12163   7.649  10.035   4.540 -0.7821  0.1989  0.3147
   91MOL0     C12164   7.658  10.057   4.390 -0.2051  0.7052  0.3507
   91MOL0     C12165   7.803  10.091   4.331  0.5172 -0.9372  0.7242
   91MOL0     C12166   7.793  10.114   4.183 -0.3126  0.1342 -0.3264
   91MOL0     N12167   7.700  10.216   4.134  0.2454  0.3925  0.0121
   91MOL0     C12168   7.719  10.355   4.152 -0.2200 -0.1778  0.5545
   91MOL0     C12169   7.629  10.397   4.055 -0.5567  0.7250 -0.2247
   91MOL0     C12170   7.597  10.541   4.023 -0.3157  0.4781 -0.1142
   91MOL0     C12171   7.706  10.591   3.933 -0.2712 -0.3545 -0.2319
   91MOL0     C12172   7.693  10.743   3.924 -0.6887  0.0269  0.0403
   91MOL0     C12173   7.818  10.805   3.852  0.7429  0.0956 -0.8310
   91MOL0     O12174   7.842  10.752   3.720  0.6969 -0.2306 -0.6574
   91MOL0     C12175   7.942  10.821   3.665 -0.0266 -0.3035  0.3114
   91MOL0     C12176   8.061  10.755   3.616  1.3488  0.1708 -0.4075
   91MOL0     C12177   8.172  10.817   3.555  0.3154 -0.3002 -0.2629
   91MOL0     C12178   8.289  10.736   3.512 -0.6866  0.0471  0.3020
   91MOL0     C12179   8.152  10.959   3.534 -0.0563  0.2573 -0.0890
   91MOL0     C12180   8.252  11.031   3.458  0.3881 -0.5132 -0.6259
   91MOL0     O12181   8.208  11.107   3.347 -0.3716  0.3389 -0.6284
   91MOL0     C12182   8.282  11.208   3.292  0.9600  0.9317  0.0728
   91MOL0     C12183   8.287  11.203   3.147  1.7471  0.3367  0.1243
   91MOL0     C12184   8.368  11.297   3.083 -0.8454  0.0031  1.3704
   91MOL0     C12185   8.436  11.398   3.156  0.5817  0.9358 -0.0100
   91MOL0     O12186   8.510  11.471   3.074 -0.6576  0.9155 -0.2267
   91MOL0     C12187   8.578  11.589   3.124  0.0511 -0.8989  0.4674
   91MOL0     C12188   8.593  11.677   2.997 -0.5077  0.5400  0.7161
   91MOL0     C12189   8.702  11.779   3.011 -0.1542 -0.4544  1.0402
   91MOL0     C12190   8.712  11.874   2.893 -0.8480 -0.4224  0.2800
   91MOL0     C12191   8.801  11.997   2.916 -0.2882 -0.5821 -0.0118
   91MOL0     C12192   8.849  12.070   2.790  0.2332  0.2915 -0.3242
   91MOL0     C12193   8.728  12.089   2.694  0.2681 -0.6205 -0.0383
   91MOL0     C12194   8.731  12.000   2.565  0.3306  0.2493 -0.2198
   91MOL0    Cl12195   8.848  12.032   2.443  0.2690 -0.4745 -0.2936
   91MOL0     C12196   8.422  11.404   3.295  1.3992 -0.4117  0.5098
   91MOL0     C12197   8.353  11.301   3.360  0.1849 -0.9380  0.4448
   91MOL0     O12198   8.362  11.027   3.507 -0.1701 -0.4637  0.0363
   91MOL0     C12199   8.031  11.015   3.558  0.4092  0.2588 -0.0468
   91MOL0     C12200   7.931  10.957   3.625 -0.0018  0.9045  1.2043
   91MOL0     N12201   7.547  10.290   4.015  0.1884  0.5935  0.7413
   91MOL0     N12202   7.590  10.183   4.072  0.0486  0.8897  1.1635
   91MOL0     C12203   7.854   9.219   4.621  0.0102 -0.0115 -0.3934
   91MOL0     C12204   7.883   9.087   4.577 -0.2578  0.1168 -0.4668
   91MOL0     C12205   7.846   8.743   4.271 -0.5069 -0.7591 -0.2670
   91MOL0     C12206   7.950   8.675   4.332  0.0381  0.9534 -0.3400
   91MOL0     C12207   7.985   8.545   4.304  0.2094  0.4771  0.5145
   91MOL0     C12208   7.915   8.471   4.211 -0.3067  0.1803  0.1839
   91MOL0     O12209   7.931   8.338   4.171  0.4433  0.5161  0.1892
   91MOL0     C12210   7.928   8.233   4.271 -1.2429  0.0627 -0.0876
   91MOL0     C12211   7.841   8.118   4.222  0.3602  0.4247  0.0923
   91MOL0     C12212   7.867   8.095   4.063  1.0502  0.0018 -0.4740
   91MOL0     C12213   8.004   8.026   4.044 -0.8223 -0.5957  0.7405
   91MOL0     C12214   8.040   8.038   3.898 -0.2536 -0.1349 -0.5198
   91MOL0     C12215   8.075   8.055   3.787  0.6274 -0.0318  0.4110
   91MOL0     C12216   7.810   8.541   4.141  0.3695 -0.1129 -0.2520
   91MOL0     C12217   7.783   8.676   4.172  0.0378 -0.7538  0.3632
   91MOL0     H12218   7.851   9.138   4.249 -1.1709  1.3922  0.2145
   91MOL0     H12219   7.816   9.362   4.310  1.0663 -0.6639 -1.6134
   91MOL0     H12220   7.769   9.564   4.429 -1.3819  1.2771 -0.4532
   91MOL0     H12221   7.622   9.489   4.503  0.4682 -2.7427  2.2269
   91MOL0     H12222   7.671   9.633   4.700  0.5545  1.3098 -0.4686
   91MOL0     H12223   7.829   9.684   4.624 -0.6403  1.9138  2.6468
   91MOL0     H12224   7.615   9.765   4.456 -0.2195 -1.6975  0.0268
   91MOL0     H12225   7.552   9.782   4.610 -0.8880 -1.7241 -0.5798
   91MOL0     H12226   7.752   9.911   4.695 -1.5997 -0.6025  0.6531
   91MOL0     H12227   7.824   9.907   4.533  2.7781  3.5485  3.3802
   91MOL0     H12228   7.546  10.029   4.576  0.2663  3.6967  4.9387
   91MOL0     H12229   7.691  10.123   4.590  1.6633 -0.2486 -0.8290
   91MOL0     H12230   7.609   9.968   4.350 -1.6438  0.2024  2.9598
   91MOL0     H12231   7.592  10.144   4.379  0.0119  0.9927  1.1683
   91MOL0     H12232   7.843  10.178   4.385  3.3247 -1.7890  0.1753
   91MOL0     H12233   7.863  10.002   4.351 -0.2130 -1.9876 -1.4219
   91MOL0     H12234   7.752  10.020   4.146 -1.1143  0.3406  0.0123
   91MOL0     H12235   7.890  10.142   4.139 -0.3817  0.0238 -0.5472
   91MOL0     H12236   7.797  10.396   4.217  1.0901 -0.8559 -0.5380
   91MOL0     H12237   7.505  10.538   3.965 -2.9237  0.8175  3.6981
   91MOL0     H12238   7.577  10.601   4.112 -1.6613 -0.5605  0.3120
   91MOL0     H12239   7.700  10.541   3.836  1.8531  0.5888 -0.9094
   91MOL0     H12240   7.802  10.570   3.980 -0.9433 -0.8653  0.9762
   91MOL0     H12241   7.678  10.781   4.026 -2.2669  1.8247 -0.8030
   91MOL0     H12242   7.609  10.779   3.864  0.4443  1.7101 -0.5989
   91MOL0     H12243   7.899  10.786   3.923 -0.3228 -3.0819 -0.2853
   91MOL0     H12244   7.802  10.913   3.849 -0.4783  0.1942  3.2553
   91MOL0     H12245   8.087  10.651   3.639 -2.2963 -0.8729 -0.4692
   91MOL0     H12246   8.264  10.642   3.464  1.3666  0.3687 -1.5520
   91MOL0     H12247   8.349  10.782   3.433 -0.0574 -1.4361 -0.1158
   91MOL0     H12248   8.357  10.727   3.597  2.6500 -1.5917 -2.3373
   91MOL0     H12249   8.246  11.136   3.071  0.6387 -0.2755  1.2126
   91MOL0     H12250   8.373  11.301   2.975  1.0358  0.4733  1.4444
   91MOL0     H12251   8.528  11.645   3.203  0.9898  4.2323 -2.1292
   91MOL0     H12252   8.676  11.561   3.163  2.8160  3.7065 -2.2130
   91MOL0     H12253   8.618  11.608   2.916  0.0197  1.3089  0.2146
   91MOL0     H12254   8.494  11.720   2.978 -0.8533  0.1086  1.4645
   91MOL0     H12255   8.802  11.739   3.024  0.8290  1.2019 -0.8864
   91MOL0     H12256   8.677  11.842   3.097 -1.6738 -1.6464  1.5403
   91MOL0     H12257   8.762  11.818   2.813 -1.2202  1.0985 -1.0713
   91MOL0     H12258   8.610  11.898   2.864 -1.6866 -1.7241  1.9753
   91MOL0     H12259   8.886  11.971   2.981 -1.8036 -2.4896  1.3252
   91MOL0     H12260   8.744  12.068   2.976 -0.3129  0.6835 -1.4891
   91MOL0     H12261   8.879  12.172   2.817 -1.2856  1.1570 -1.7280
   91MOL0     H12262   8.936  12.020   2.746  0.1783  1.7917 -2.2755
   91MOL0     H12263   8.732  12.194   2.664 -1.9549  0.4629  2.9686
   91MOL0     H12264   8.637  12.081   2.754  0.3805  0.7834  0.3724
   91MOL0     H12265   8.626  12.009   2.536 -0.1772 -1.0247  1.1120
   91MOL0     H12266   8.753  11.897   2.595  0.5311 -0.1731 -1.7181
   91MOL0     H12267   8.476  11.483   3.346  0.3250 -1.2246  3.0850
   91MOL0     H12268   8.351  11.292   3.468 -2.1460  0.1287  0.5633
   91MOL0     H12269   8.008  11.117   3.530  3.1225  0.5442 -1.5446
   91MOL0     H12270   7.846  11.023   3.637  0.1676  1.0977  1.3478
   91MOL0     H12271   7.869   9.243   4.726  3.3876 -0.1938 -0.7254
   91MOL0     H12272   7.909   9.008   4.646 -1.1828 -1.0709 -1.4516
   91MOL0     H12273   8.016   8.712   4.409 -0.8828 -1.1551  1.5962
   91MOL0     H12274   8.072   8.510   4.358  0.2342  1.9392  1.4937
   91MOL0     H12275   8.026   8.205   4.309  0.6239 -1.7313 -5.3776
   91MOL0     H12276   7.867   8.279   4.349  1.0712  0.9892  1.2650
   91MOL0     H12277   7.736   8.141   4.242  1.1060  3.1256  1.2814
   91MOL0     H12278   7.883   8.039   4.286 -2.0705 -1.1541 -0.1302
   91MOL0     H12279   7.857   8.185   4.002 -1.5138 -1.7425 -2.9272
   91MOL0     H12280   7.791   8.031   4.017 -1.0794  1.0005  1.5053
   91MOL0     H12281   8.006   7.920   4.073  1.2363 -0.6068  0.7195
   91MOL0     H12282   8.084   8.078   4.097 -0.7307  0.3040 -0.2534
   91MOL0     H12283   8.096   8.063   3.682  2.0518  0.5911  0.7279
   91MOL0     H12284   7.740   8.489   4.076  1.7274 -0.1270 -1.7735
   91MOL0     H12285   7.708   8.721   4.107  1.4384  0.8493 -0.1938
   92MOL0     O12286   8.069   8.675   0.622  0.5581 -0.2701  0.4241
   92MOL0     C12287   8.123   8.572   0.647  0.8802  1.0931 -0.2491
   92MOL0     O12288   8.098   8.443   0.578  0.2166  0.2015 -0.1780
   92MOL0     C12289   8.000   8.432   0.485 -0.0678 -0.2908  0.1294
   92MOL0     C12290   8.019   8.364   0.363  0.6148 -0.0324  0.5697
   92MOL0     C12291   7.913   8.323   0.271  0.1743  0.6742 -0.2837
   92MOL0     C12292   7.777   8.365   0.309 -0.4237  0.4513 -0.3431
   92MOL0     O12293   7.666   8.341   0.229 -0.4377 -0.2322 -0.2975
   92MOL0     C12294   7.568   8.263   0.281 -0.5042  0.2381 -0.1027
   92MOL0     C12295   7.441   8.341   0.300  0.7541 -0.1013 -0.9192
   92MOL0     C12296   7.377   8.375   0.155  0.1749  0.5534  1.0071
   92MOL0     C12297   7.244   8.454   0.148 -0.2698 -0.0342 -0.3072
   92MOL0     C12298   7.117   8.365   0.135 -0.8322 -0.3522  0.0521
   92MOL0     C12299   6.992   8.460   0.140 -0.0295 -0.1194 -0.5215
   92MOL0     C12300   6.865   8.371   0.116 -0.5914  0.2691  0.0862
   92MOL0     C12301   6.735   8.455   0.115 -0.0698  0.2052 -0.0125
   92MOL0     N12302   6.728   8.562   0.011 -0.8781  0.4028 -0.1629
   92MOL0     C12303   6.752   8.549  -0.124  0.1209  0.3762  0.5862
   92MOL0     C12304   6.703   8.671  -0.177  0.8836 -0.0030  0.5702
   92MOL0     C12305   6.700   8.708  -0.325  0.0048 -0.0723 -0.7726
   92MOL0     C12306   6.640   8.842  -0.353  0.0756 -0.5649 -0.6060
   92MOL0     C12307   6.729   8.966  -0.323  0.0958  0.1725  0.4050
   92MOL0     C12308   6.672   9.102  -0.381  0.1763 -0.1671  0.3410
   92MOL0     O12309   6.765   9.209  -0.337  0.3635 -0.3522  0.0175
   92MOL0     C12310   6.705   9.330  -0.360 -0.7005  0.7371  1.3338
   92MOL0     C12311   6.776   9.446  -0.309 -0.0914 -0.1025 -0.1204
   92MOL0     C12312   6.730   9.575  -0.341 -1.2528  0.4996  0.5839
   92MOL0     C12313   6.822   9.689  -0.304  0.8800 -0.4729  0.5804
   92MOL0     C12314   6.610   9.596  -0.408 -0.1819 -1.0694  0.4266
   92MOL0     C12315   6.543   9.727  -0.427  0.1434 -0.4743 -0.2913
   92MOL0     O12316   6.580   9.829  -0.342  0.7450  0.3950 -0.8229
   92MOL0     C12317   6.510   9.945  -0.350  0.1586  0.9400  0.9453
   92MOL0     C12318   6.578  10.053  -0.404  0.2170  0.3312 -0.4070
   92MOL0     C12319   6.513  10.174  -0.422 -0.3980 -0.3096 -0.1374
   92MOL0     C12320   6.376  10.175  -0.396 -0.2761 -0.1400 -0.3220
   92MOL0     O12321   6.308  10.292  -0.431 -0.5059  0.2688  0.0468
   92MOL0     C12322   6.221  10.349  -0.331  0.5778 -0.0109 -0.1815
   92MOL0     C12323   6.200  10.503  -0.336  0.8653  0.2254  0.5089
   92MOL0     C12324   6.322  10.588  -0.322 -0.5011 -0.2690 -0.2843
   92MOL0     C12325   6.407  10.588  -0.450 -0.4310  0.9938  0.3422
   92MOL0     C12326   6.545  10.653  -0.443 -0.1469  0.4409  0.0065
   92MOL0     C12327   6.546  10.794  -0.396  0.3754 -0.0234  0.0560
   92MOL0     C12328   6.695  10.855  -0.402 -0.4385 -0.8575  0.2414
   92MOL0     C12329   6.677  10.990  -0.335  0.0557  0.6937  0.4941
   92MOL0    Cl12330   6.571  11.108  -0.425 -0.2008  0.3139  0.6566
   92MOL0     C12331   6.309  10.071  -0.336  0.3411  0.6070  0.3725
   92MOL0     C12332   6.381   9.946  -0.304 -0.0393  0.1485  1.1667
   92MOL0     O12333   6.441   9.728  -0.491 -0.4687 -0.1295 -0.2206
   92MOL0     C12334   6.532   9.481  -0.452 -0.2993 -0.6653 -0.7868
   92MOL0     C12335   6.581   9.351  -0.436  0.4212 -0.3924 -0.7380
   92MOL0     N12336   6.649   8.739  -0.068  0.5158 -0.0895 -0.4080
   92MOL0     N12337   6.678   8.681   0.035  0.5874  0.4177 -0.2548
   92MOL0     C12338   7.757   8.444   0.423 -0.2578  0.0487  0.0180
   92MOL0     C12339   7.867   8.482   0.509  0.3191  1.7956 -0.1899
   92MOL0     C12340   8.228   8.581   0.749 -0.6081 -0.7702  0.1476
   92MOL0     C12341   8.276   8.709   0.796  0.0124 -0.2078 -0.2282
   92MOL0     C12342   8.382   8.697   0.889  0.8296 -0.3309  0.5007
   92MOL0     C12343   8.430   8.582   0.948 -1.6935  0.8730 -0.0923
   92MOL0     O12344   8.533   8.581   1.040 -0.3308  0.6285  0.7022
   92MOL0     C12345   8.635   8.687   1.024  0.6591  1.1782 -0.2103
   92MOL0     C12346   8.758   8.641   1.099 -0.1372  0.1222  0.3933
   92MOL0     C12347   8.746   8.612   1.242  0.5246  0.7522  0.1276
   92MOL0     C12348   8.875   8.556   1.311 -0.4074 -0.6568  0.0892
   92MOL0     C12349   8.942   8.434   1.250 -0.7162 -0.6701  0.7288
   92MOL0     C12350   8.996   8.339   1.191 -0.6821  0.0142  0.2687
   92MOL0     C12351   8.377   8.462   0.906 -0.1122  0.1898  0.2156
   92MOL0     C12352   8.288   8.465   0.804  1.1138  0.6253 -0.7349
   92MOL0     H12353   8.119   8.334   0.334  0.9556  1.0056  0.6298
   92MOL0     H12354   7.933   8.269   0.179 -0.9539 -0.7863  0.2857
   92MOL0     H12355   7.553   8.187   0.204  2.1483  0.2800 -0.7542
   92MOL0     H12356   7.604   8.216   0.373 -1.6300 -0.9037 -0.2208
   92MOL0     H12357   7.372   8.277   0.354 -2.3835  2.2851 -1.7929
   92MOL0     H12358   7.455   8.431   0.361 -1.7975  0.4082 -1.0037
   92MOL0     H12359   7.450   8.435   0.098  0.5009 -0.6636  0.1040
   92MOL0     H12360   7.359   8.282   0.101  1.4710  0.8409  0.0318
   92MOL0     H12361   7.235   8.519   0.236  0.3521 -1.9916  1.2986
   92MOL0     H12362   7.260   8.526   0.067  4.4857 -0.9662 -0.5254
   92MOL0     H12363   7.114   8.325   0.033  4.6589  0.9381 -0.9358
   92MOL0     H12364   7.116   8.279   0.203 -0.3389 -0.9677 -0.6979
   92MOL0     H12365   6.968   8.518   0.229 -2.0200 -4.4813  2.0679
   92MOL0     H12366   6.996   8.524   0.051  1.9574  0.5456 -0.0203
   92MOL0     H12367   6.869   8.302   0.031  0.4729  1.4490 -0.8585
   92MOL0     H12368   6.861   8.314   0.209  0.9523 -0.8469 -0.4825
   92MOL0     H12369   6.720   8.502   0.212 -0.5676  2.4011 -1.1035
   92MOL0     H12370   6.650   8.388   0.099  1.2021 -1.2938 -0.8905
   92MOL0     H12371   6.793   8.465  -0.179  0.8896  0.4003  1.1124
   92MOL0     H12372   6.805   8.726  -0.351 -0.4878  3.6975 -0.6850
   92MOL0     H12373   6.653   8.629  -0.385  2.0192 -2.3891  0.4908
   92MOL0     H12374   6.546   8.854  -0.298  1.0045 -2.0208  1.4678
   92MOL0     H12375   6.624   8.838  -0.461  2.6074 -0.3397 -1.0631
   92MOL0     H12376   6.827   8.941  -0.364  1.3865  2.2636  2.0321
   92MOL0     H12377   6.742   8.977  -0.215  2.4469  3.2139 -0.0523
   92MOL0     H12378   6.569   9.120  -0.350 -0.3340 -2.0395 -0.1360
   92MOL0     H12379   6.681   9.096  -0.490  0.4960  0.1142  0.3524
   92MOL0     H12380   6.864   9.425  -0.250  0.4360  0.3609 -0.7193
   92MOL0     H12381   6.807   9.771  -0.375 -1.0760  0.7698  2.3087
   92MOL0     H12382   6.782   9.737  -0.214 -4.8255  0.3582 -1.9511
   92MOL0     H12383   6.925   9.658  -0.283 -0.1330 -2.6808  2.7348
   92MOL0     H12384   6.685  10.046  -0.423  0.1601 -0.3326 -0.5026
   92MOL0     H12385   6.572  10.260  -0.451  1.0845 -1.5266 -0.9154
   92MOL0     H12386   6.124  10.298  -0.333  1.3255 -1.7104  1.8555
   92MOL0     H12387   6.266  10.328  -0.233 -1.3542  1.0157  0.9825
   92MOL0     H12388   6.155  10.538  -0.430  0.2107 -0.7806  0.4416
   92MOL0     H12389   6.131  10.527  -0.254  1.2768 -0.4693  1.0664
   92MOL0     H12390   6.375  10.541  -0.240 -2.0494 -0.8255  0.4369
   92MOL0     H12391   6.289  10.688  -0.291  1.0255 -0.3441  1.7329
   92MOL0     H12392   6.433  10.488  -0.485 -0.6806  1.5032 -1.4193
   92MOL0     H12393   6.341  10.632  -0.526 -2.5589 -0.8848  1.0130
   92MOL0     H12394   6.583  10.631  -0.543 -0.7951 -2.5704  0.3263
   92MOL0     H12395   6.605  10.594  -0.374 -3.0721 -0.4263  1.9733
   92MOL0     H12396   6.484  10.854  -0.463 -2.0384 -1.5135  0.8485
   92MOL0     H12397   6.513  10.792  -0.292 -0.0683 -1.0547 -0.0929
   92MOL0     H12398   6.719  10.873  -0.507 -1.5027 -0.7291  0.0117
   92MOL0     H12399   6.762  10.787  -0.348 -0.2081 -1.2484 -0.5205
   92MOL0     H12400   6.772  11.045  -0.326  0.1337  0.8647 -1.0757
   92MOL0     H12401   6.641  10.980  -0.233  0.4321  0.6303  0.6228
   92MOL0     H12402   6.203  10.071  -0.314 -0.1334 -0.9783 -1.6180
   92MOL0     H12403   6.327   9.860  -0.266  1.0835 -1.0320  0.2116
   92MOL0     H12404   6.431   9.486  -0.491 -0.7050  0.7082  0.3751
   92MOL0     H12405   6.510   9.274  -0.468  0.7616 -0.7990 -0.5221
   92MOL0     H12406   7.657   8.484   0.439 -0.7032 -1.7713  2.3124
   92MOL0     H12407   7.842   8.536   0.600 -1.4790  0.6230  0.0474
   92MOL0     H12408   8.253   8.807   0.755  0.7827  0.5324  1.0102
   92MOL0     H12409   8.422   8.793   0.920 -1.5656  1.2121 -0.8529
   92MOL0     H12410   8.645   8.709   0.917 -0.5714 -0.8557 -0.7991
   92MOL0     H12411   8.599   8.771   1.083  0.3612  1.3546 -0.6364
   92MOL0     H12412   8.837   8.717   1.092  1.7049 -1.3362  3.1613
   92MOL0     H12413   8.791   8.549   1.050 -0.4050  1.2253 -1.9557
   92MOL0     H12414   8.682   8.525   1.258  1.0697  0.7446  2.5646
   92MOL0     H12415   8.703   8.701   1.289 -4.1903 -1.3541  0.3791
   92MOL0     H12416   8.848   8.531   1.414  0.3355 -3.5863 -0.3397
   92MOL0     H12417   8.954   8.631   1.302  0.9299 -2.0877 -0.5330
   92MOL0     H12418   9.042   8.262   1.133 -1.8839 -0.3197 -0.2778
   92MOL0     H12419   8.407   8.369   0.954 -3.2644 -0.3835  1.2988
   92MOL0     H12420   8.253   8.367   0.774 -1.2080  0.8488  0.9510
   93MOL0     O12421   8.914  11.462   1.212  0.6738 -0.3249  0.3510
   93MOL0     C12422   8.933  11.489   1.327 -0.4552 -0.8249 -0.3433
   93MOL0     O12423   8.844  11.540   1.413  0.5575 -0.4482 -0.7451
   93MOL0     C12424   8.712  11.573   1.387 -0.6338 -0.3380 -0.0247
   93MOL0     C12425   8.666  11.621   1.263  0.1894  0.6337 -0.6224
   93MOL0     C12426   8.528  11.655   1.254 -0.4892  0.1016  0.8455
   93MOL0     C12427   8.437  11.629   1.359  0.0678  0.6587  0.2849
   93MOL0     O12428   8.303  11.662   1.340 -1.4073  0.9252  0.0519
   93MOL0     C12429   8.261  11.764   1.242 -0.0065  0.0360  0.6021
   93MOL0     C12430   8.153  11.701   1.164 -0.0587 -1.1437  0.0543
   93MOL0     C12431   8.104  11.797   1.049 -0.5989  0.6684 -0.3446
   93MOL0     C12432   8.024  11.720   0.943 -0.8950  0.7090 -0.7979
   93MOL0     C12433   8.108  11.614   0.878  0.4291  0.1663  1.3684
   93MOL0     C12434   8.045  11.591   0.731  0.4552  0.6328  0.0207
   93MOL0     C12435   7.958  11.463   0.729 -0.7684  0.3554  0.2300
   93MOL0     C12436   7.883  11.464   0.587 -0.7042 -0.6228 -0.3172
   93MOL0     N12437   7.777  11.360   0.592  0.4376 -0.0663  0.4115
   93MOL0     C12438   7.798  11.239   0.532  0.5967 -0.6669  0.7681
   93MOL0     C12439   7.677  11.169   0.564 -0.1111 -0.2319  1.2882
   93MOL0     C12440   7.638  11.024   0.508  0.2051  0.8327  1.0330
   93MOL0     C12441   7.557  10.945   0.605 -0.4164 -1.0754 -0.3207
   93MOL0     C12442   7.405  10.957   0.582  0.0505 -0.1639 -0.8441
   93MOL0     C12443   7.352  10.846   0.474 -0.1923  0.2697 -0.0210
   93MOL0     O12444   7.415  10.860   0.342  0.9723 -0.9427  0.0547
   93MOL0     C12445   7.481  10.755   0.288  0.9177  0.6473  0.4781
   93MOL0     C12446   7.534  10.653   0.365 -0.3459 -0.3247 -0.4882
   93MOL0     C12447   7.582  10.537   0.304  0.8634 -0.7230  0.1407
   93MOL0     C12448   7.641  10.438   0.398  0.0636  0.4823 -0.6571
   93MOL0     C12449   7.569  10.520   0.159 -0.5451  0.6930 -0.7815
   93MOL0     C12450   7.605  10.381   0.105  0.2278  0.2469 -0.1666
   93MOL0     O12451   7.655  10.399  -0.018  0.2258  0.1695 -0.1244
   93MOL0     C12452   7.713  10.302  -0.084  0.7887  0.4546 -0.1151
   93MOL0     C12453   7.641  10.271  -0.205  0.6473 -0.0885 -0.2303
   93MOL0     C12454   7.692  10.173  -0.284 -0.9730  0.3947 -0.3092
   93MOL0     C12455   7.807  10.096  -0.248  0.6237  0.5575  0.5622
   93MOL0     O12456   7.844   9.983  -0.296 -0.3518  0.2050  1.6565
   93MOL0     C12457   7.767   9.920  -0.399  0.2906  1.0535  0.1559
   93MOL0     C12458   7.847   9.814  -0.476  0.7708  0.2853 -0.4888
   93MOL0     C12459   7.945   9.872  -0.583 -0.7705 -0.0273  0.5367
   93MOL0     C12460   8.076   9.924  -0.514  0.0460 -0.1357 -0.6718
   93MOL0     C12461   8.175   9.934  -0.635  0.6587  0.6557  0.2718
   93MOL0     C12462   8.148  10.030  -0.751 -0.7235  0.5504 -0.0772
   93MOL0     C12463   8.275  10.040  -0.831 -0.2070 -0.2303 -0.5473
   93MOL0     C12464   8.327   9.909  -0.902 -0.0340  1.0118 -0.2081
   93MOL0    Cl12465   8.466   9.940  -1.002  0.2691  0.4008  0.0511
   93MOL0     C12466   7.881  10.140  -0.142  0.3017 -0.3114 -0.2531
   93MOL0     C12467   7.841  10.250  -0.057  0.4278 -0.6337  0.8055
   93MOL0     O12468   7.596  10.278   0.174 -0.0226 -0.2200 -0.4494
   93MOL0     C12469   7.517  10.621   0.079 -0.4895  0.5415 -0.2729
   93MOL0     C12470   7.479  10.734   0.150  0.2866 -0.3163  1.1160
   93MOL0     N12471   7.593  11.250   0.634 -0.1070 -0.0244  0.0063
   93MOL0     N12472   7.655  11.363   0.649 -0.0270 -0.2379  0.1460
   93MOL0     C12473   8.492  11.579   1.475  0.2558 -0.1965 -0.1213
   93MOL0     C12474   8.632  11.560   1.487  0.6330 -0.4262  0.4177
   93MOL0     C12475   9.061  11.437   1.383 -0.8896 -0.3480  0.4937
   93MOL0     C12476   9.164  11.385   1.290  0.8414 -0.4335  0.2846
   93MOL0     C12477   9.282  11.342   1.343  0.3986  0.5501  0.5890
   93MOL0     C12478   9.314  11.348   1.477 -0.2192  0.5827 -0.0300
   93MOL0     O12479   9.440  11.307   1.521  0.4621 -0.2885  0.0802
   93MOL0     C12480   9.473  11.166   1.519 -0.2125 -0.3235 -0.1916
   93MOL0     C12481   9.627  11.145   1.519 -0.0244 -0.5237 -0.1895
   93MOL0     C12482   9.656  10.996   1.534 -0.0419  0.8790  0.5001
   93MOL0     C12483   9.784  10.971   1.610  0.1669  0.1287 -0.0042
   93MOL0     C12484   9.813  10.826   1.618  0.3307  0.0191 -0.1176
   93MOL0     C12485   9.838  10.704   1.636  0.2531  0.0224  0.8715
   93MOL0     C12486   9.214  11.401   1.565 -0.3737  0.6285  0.1395
   93MOL0     C12487   9.082  11.444   1.519  0.8602  0.4033  0.1264
   93MOL0     H12488   8.731  11.644   1.179  0.0336 -1.1581 -1.2797
   93MOL0     H12489   8.498  11.686   1.155 -2.1588 -1.8030  0.6796
   93MOL0     H12490   8.213  11.852   1.286  2.6804  1.9409 -0.0071
   93MOL0     H12491   8.348  11.803   1.189  1.4573 -1.0678  2.0539
   93MOL0     H12492   8.196  11.608   1.126  3.7497 -0.2958  1.8193
   93MOL0     H12493   8.065  11.672   1.221 -0.9011  2.7846  1.0433
   93MOL0     H12494   8.046  11.878   1.093  0.4102  1.5918 -0.6551
   93MOL0     H12495   8.187  11.837   0.989  1.0978 -0.5945  1.0379
   93MOL0     H12496   7.935  11.677   0.990  0.4111 -2.6581 -1.1280
   93MOL0     H12497   7.990  11.803   0.880 -2.3796  0.2063 -0.7010
   93MOL0     H12498   8.209  11.654   0.864 -0.8876  3.2611 -0.1899
   93MOL0     H12499   8.120  11.517   0.928 -0.1991 -0.9729 -0.5703
   93MOL0     H12500   8.006  11.686   0.693  3.0083  1.8310  0.1897
   93MOL0     H12501   8.129  11.579   0.662  0.8390 -1.8245  0.8364
   93MOL0     H12502   8.023  11.376   0.738  0.0061  0.7458 -1.3187
   93MOL0     H12503   7.893  11.451   0.816  1.7918  0.8564  2.3504
   93MOL0     H12504   7.952  11.435   0.507  0.2275  0.9948 -0.1403
   93MOL0     H12505   7.847  11.562   0.555 -0.8123 -0.6585 -0.3068
   93MOL0     H12506   7.871  11.200   0.461  0.4444  2.2068 -1.1461
   93MOL0     H12507   7.586  11.018   0.411 -0.3679  0.9068  1.3293
   93MOL0     H12508   7.734  10.974   0.492 -0.5151 -0.1133 -0.6095
   93MOL0     H12509   7.589  10.977   0.705  0.6190 -1.8835 -0.3812
   93MOL0     H12510   7.593  10.842   0.608  2.7792 -0.0794  3.0861
   93MOL0     H12511   7.377  11.054   0.541 -0.2556  0.0741 -0.0953
   93MOL0     H12512   7.350  10.947   0.676 -0.8617  0.3089 -1.3209
   93MOL0     H12513   7.245  10.861   0.458 -1.0150 -2.1344  2.4161
   93MOL0     H12514   7.359  10.745   0.517  2.0059 -0.7578 -2.5060
   93MOL0     H12515   7.552  10.672   0.470 -0.7028  0.0586 -0.4964
   93MOL0     H12516   7.563  10.367   0.426  1.0683 -0.1202  0.7868
   93MOL0     H12517   7.723  10.384   0.349 -0.3204  0.2681 -1.0670
   93MOL0     H12518   7.683  10.479   0.491  2.0665  0.4620 -1.4933
   93MOL0     H12519   7.553  10.331  -0.226  0.2575 -0.0789  1.3237
   93MOL0     H12520   7.649  10.142  -0.379 -3.1584  0.2263  0.6549
   93MOL0     H12521   7.675   9.877  -0.358  0.3806  0.8729  0.1697
   93MOL0     H12522   7.736   9.990  -0.476 -0.4578 -0.1975 -0.7258
   93MOL0     H12523   7.908   9.743  -0.420 -0.6312 -0.2370  0.4420
   93MOL0     H12524   7.768   9.754  -0.522 -1.0100 -0.3021  3.0431
   93MOL0     H12525   7.896   9.958  -0.629  2.9641  3.7936  3.0108
   93MOL0     H12526   7.960   9.803  -0.667 -1.8323  0.8716 -0.4202
   93MOL0     H12527   8.061  10.021  -0.465  1.8372  0.9476 -2.1411
   93MOL0     H12528   8.108   9.853  -0.438 -0.1887  1.5351  1.0635
   93MOL0     H12529   8.191   9.839  -0.686  1.8985  0.5741  0.7633
   93MOL0     H12530   8.272   9.955  -0.589  0.9089  0.4689 -0.1631
   93MOL0     H12531   8.075   9.987  -0.820  1.2406 -0.2184 -1.8037
   93MOL0     H12532   8.124  10.131  -0.717 -1.2580  1.5162 -3.1027
   93MOL0     H12533   8.362  10.072  -0.773  1.1337 -0.5654 -2.2649
   93MOL0     H12534   8.260  10.120  -0.904  1.4992  0.7091  0.0806
   93MOL0     H12535   8.252   9.880  -0.976  2.1571  2.1429 -3.0142
   93MOL0     H12536   8.360   9.839  -0.824  2.6802  1.4839 -0.8609
   93MOL0     H12537   7.974  10.086  -0.124  1.9356  1.3716 -2.8096
   93MOL0     H12538   7.893  10.269   0.036 -1.1256  2.1688  1.1937
   93MOL0     H12539   7.501  10.617  -0.028  1.6323  5.9025 -1.1032
   93MOL0     H12540   7.443  10.815   0.089  4.3319  3.7487  3.5018
   93MOL0     H12541   8.426  11.565   1.560  2.6668 -0.4233  1.8426
   93MOL0     H12542   8.679  11.523   1.578 -0.1703 -0.7981  0.6949
   93MOL0     H12543   9.155  11.367   1.184 -3.2550 -2.5145  0.7802
   93MOL0     H12544   9.354  11.313   1.267  0.8928  2.8468  0.1093
   93MOL0     H12545   9.440  11.127   1.615 -2.0428  2.1638  0.2874
   93MOL0     H12546   9.433  11.111   1.433  0.7114  1.0743 -1.5714
   93MOL0     H12547   9.672  11.215   1.590 -0.9376  2.0010 -1.9613
   93MOL0     H12548   9.661  11.182   1.422  2.1702 -1.9781 -0.0507
   93MOL0     H12549   9.665  10.962   1.430 -0.5699 -4.9247  1.9629
   93MOL0     H12550   9.570  10.940   1.571 -0.0712 -0.8847 -1.9987
   93MOL0     H12551   9.782  11.005   1.714  0.6373  1.4976 -0.4183
   93MOL0     H12552   9.869  11.023   1.564 -0.8026  1.1841 -0.6586
   93MOL0     H12553   9.854  10.599   1.625 -0.5967 -0.0617  0.3625
   93MOL0     H12554   9.229  11.409   1.672  0.4778 -0.3369  0.1070
   93MOL0     H12555   9.002  11.457   1.592 -0.1773  3.1063 -1.3233
   94MOL0     O12556   7.280   5.469   9.613  0.5090 -0.4403 -0.0153
   94MOL0     C12557   7.205   5.393   9.555 -0.0579  0.1450 -0.2784
   94MOL0     O12558   7.239   5.260   9.523  0.4489  0.8173 -0.0155
   94MOL0     C12559   7.357   5.216   9.578 -0.5934  0.1159  0.6096
   94MOL0     C12560   7.393   5.239   9.710  0.1110 -0.0101  0.0482
   94MOL0     C12561   7.513   5.186   9.761 -0.2694  0.0859  0.6747
   94MOL0     C12562   7.598   5.108   9.685  0.3292  0.0740  0.3442
   94MOL0     O12563   7.712   5.063   9.742 -0.1073 -0.6896 -0.0643
   94MOL0     C12564   7.838   5.115   9.694 -0.1843  0.6506  0.6606
   94MOL0     C12565   7.943   5.015   9.720  0.5158  0.0453 -0.6374
   94MOL0     C12566   8.088   5.080   9.720  0.5842 -1.0832 -0.1726
   94MOL0     C12567   8.195   4.971   9.724  0.5554 -0.0063 -0.2960
   94MOL0     C12568   8.329   5.033   9.739  0.1886 -0.9988  0.2907
   94MOL0     C12569   8.442   4.930   9.721 -0.4317  0.4709 -0.0881
   94MOL0     C12570   8.415   4.797   9.792  0.2255  0.3772 -0.5703
   94MOL0     C12571   8.545   4.719   9.820  0.0926  0.0857 -0.2288
   94MOL0     N12572   8.633   4.710   9.708 -0.6843 -0.5027  0.5149
   94MOL0     C12573   8.605   4.640   9.591 -0.0314  0.3778  0.3699
   94MOL0     C12574   8.729   4.634   9.524  1.3599  0.7074  0.8906
   94MOL0     C12575   8.761   4.555   9.396 -0.4963 -0.4699  1.3712
   94MOL0     C12576   8.789   4.650   9.271  0.0573 -0.5401 -0.8535
   94MOL0     C12577   8.861   4.600   9.152  0.7093  0.8477 -0.2846
   94MOL0     C12578   9.016   4.601   9.167  0.5933 -0.0345 -0.6516
   94MOL0     O12579   9.077   4.581   9.039 -0.2492 -0.3660 -0.0103
   94MOL0     C12580   9.210   4.599   9.024  0.2684 -0.2507 -0.2003
   94MOL0     C12581   9.292   4.604   9.133 -0.8042 -0.7617  0.0141
   94MOL0     C12582   9.430   4.573   9.128  0.4438 -0.6138 -0.4820
   94MOL0     C12583   9.502   4.562   9.261  0.0327 -0.3295 -0.3666
   94MOL0     C12584   9.486   4.552   8.995  0.1779 -0.2072  0.0039
   94MOL0     C12585   9.623   4.510   8.970 -0.1273 -0.8549  0.9053
   94MOL0     O12586   9.661   4.502   8.841  0.4532  0.6424 -0.4953
   94MOL0     C12587   9.764   4.417   8.808  0.2553  0.0434  0.1101
   94MOL0     C12588   9.839   4.450   8.696 -0.3437 -0.5670  0.7015
   94MOL0     C12589   9.943   4.382   8.654 -1.0039  0.3727 -0.1372
   94MOL0     C12590   9.986   4.264   8.712  0.4838  1.0727  0.1747
   94MOL0     O12591  10.092   4.191   8.661  0.3438  0.0493  0.6349
   94MOL0     C12592  10.156   4.082   8.729 -0.8362 -0.2075  0.8719
   94MOL0     C12593  10.248   4.112   8.850 -0.2518 -0.3430  0.4142
   94MOL0     C12594  10.381   4.181   8.816  0.0153  0.3778  0.3311
   94MOL0     C12595  10.497   4.085   8.833  0.7550 -0.4508  0.2377
   94MOL0     C12596  10.626   4.137   8.753 -0.2041  0.4774  0.3912
   94MOL0     C12597  10.742   4.044   8.776 -0.8251 -0.2393  0.6841
   94MOL0     C12598  10.879   4.086   8.723 -0.0728  0.0010  0.8949
   94MOL0     C12599  10.902   4.074   8.571  0.6171 -0.6918  0.6034
   94MOL0    Cl12600  11.017   3.952   8.521 -0.0989 -0.3861 -0.2271
   94MOL0     C12601   9.903   4.217   8.820  0.1826  0.5218  0.5209
   94MOL0     C12602   9.797   4.293   8.874 -0.4535 -0.7176  0.9738
   94MOL0     O12603   9.706   4.497   9.064  0.2803  0.4232 -0.0246
   94MOL0     C12604   9.398   4.569   8.881  0.5990  0.6873  0.4596
   94MOL0     C12605   9.262   4.596   8.899  0.2082 -0.5081  0.4525
   94MOL0     N12606   8.809   4.724   9.592  0.9981  0.5949  0.1704
   94MOL0     N12607   8.752   4.772   9.695  0.0271 -0.0998 -0.1573
   94MOL0     C12608   7.561   5.095   9.549  0.5218 -0.3704 -0.0695
   94MOL0     C12609   7.438   5.139   9.494 -0.2252  0.0029 -0.2581
   94MOL0     C12610   7.064   5.430   9.534  0.3121  0.5101 -0.1326
   94MOL0     C12611   6.980   5.341   9.465 -0.8267 -1.2650 -0.5977
   94MOL0     C12612   6.843   5.369   9.439 -0.0472  0.5417  1.0430
   94MOL0     C12613   6.793   5.488   9.488  0.1448 -0.3788  0.0336
   94MOL0     O12614   6.657   5.522   9.456  0.7321  0.1718 -0.1318
   94MOL0     C12615   6.636   5.638   9.376 -0.0377  0.0375  0.4259
   94MOL0     C12616   6.630   5.572   9.239  0.8859  0.5689  0.7926
   94MOL0     C12617   6.532   5.456   9.223 -0.1770 -0.7370 -1.2836
   94MOL0     C12618   6.545   5.373   9.089  0.1910 -0.6225 -0.8841
   94MOL0     C12619   6.657   5.286   9.099 -0.2822  0.0001 -0.3678
   94MOL0     C12620   6.742   5.200   9.119 -0.5228  0.2791 -0.3053
   94MOL0     C12621   6.875   5.576   9.555 -0.7524  0.2074 -0.6773
   94MOL0     C12622   7.011   5.553   9.579  0.4236 -0.0310  1.0243
   94MOL0     H12623   7.321   5.292   9.772  0.3952 -0.1771  0.5271
   94MOL0     H12624   7.535   5.199   9.866 -1.6662 -1.0414  1.1476
   94MOL0     H12625   7.838   5.141   9.588 -1.4201  0.4838  0.6111
   94MOL0     H12626   7.859   5.208   9.748 -2.5199  1.5352  0.1371
   94MOL0     H12627   7.921   4.977   9.821 -1.5771  0.5557 -0.8648
   94MOL0     H12628   7.936   4.925   9.659 -2.8968  0.4866 -1.0468
   94MOL0     H12629   8.102   5.133   9.625  1.2794  4.1782  2.5133
   94MOL0     H12630   8.112   5.161   9.789 -0.4571 -2.1046  1.4715
   94MOL0     H12631   8.163   4.900   9.801 -0.5896  1.3880  0.5562
   94MOL0     H12632   8.186   4.926   9.624 -4.4018 -1.5174  0.5618
   94MOL0     H12633   8.347   5.120   9.676 -2.2002 -0.4989  0.1826
   94MOL0     H12634   8.342   5.069   9.841  1.0807  1.3673 -0.5885
   94MOL0     H12635   8.466   4.898   9.619  0.5932  0.2009  0.2271
   94MOL0     H12636   8.523   4.984   9.772 -1.8643 -0.3053  3.2636
   94MOL0     H12637   8.360   4.815   9.885 -3.1512  1.6226 -2.6052
   94MOL0     H12638   8.337   4.747   9.733  1.1820  0.0742 -1.5932
   94MOL0     H12639   8.538   4.612   9.842  2.6695 -0.0912  0.0861
   94MOL0     H12640   8.586   4.758   9.913 -2.4346  1.8744  0.2106
   94MOL0     H12641   8.529   4.567   9.565  1.1833 -0.4881 -0.8861
   94MOL0     H12642   8.857   4.506   9.414  0.1045 -0.1455 -0.6334
   94MOL0     H12643   8.680   4.481   9.386 -0.7565 -0.1597  1.1527
   94MOL0     H12644   8.846   4.735   9.310 -0.0034 -1.0806  0.4752
   94MOL0     H12645   8.692   4.691   9.242 -0.4635 -2.1635 -1.5108
   94MOL0     H12646   8.838   4.665   9.068 -2.6821 -0.1862 -0.3130
   94MOL0     H12647   8.813   4.505   9.128 -1.1979  1.7141 -0.0482
   94MOL0     H12648   9.052   4.524   9.236  3.1659  2.6587  1.2779
   94MOL0     H12649   9.038   4.700   9.209 -2.8925  0.3187  0.6852
   94MOL0     H12650   9.251   4.607   9.233  0.1181 -4.4861  0.6606
   94MOL0     H12651   9.435   4.613   9.332 -1.1280 -0.8592 -1.0426
   94MOL0     H12652   9.518   4.458   9.288 -2.2417 -0.9420 -1.1084
   94MOL0     H12653   9.600   4.611   9.258  1.5262 -3.1752 -1.6751
   94MOL0     H12654   9.812   4.540   8.643  1.9510  0.6251  1.4114
   94MOL0     H12655   9.993   4.431   8.571 -1.4305 -1.0093 -1.2304
   94MOL0     H12656  10.080   4.008   8.759 -0.5054 -0.5848  0.7897
   94MOL0     H12657  10.225   4.037   8.657 -0.9748 -0.3100  0.8011
   94MOL0     H12658  10.183   4.174   8.912 -1.5340 -1.4890  0.2722
   94MOL0     H12659  10.280   4.027   8.910  0.2566  0.9740  2.0621
   94MOL0     H12660  10.388   4.267   8.884 -0.0455  2.8660 -2.6004
   94MOL0     H12661  10.373   4.214   8.712 -3.4326  0.8602  0.6503
   94MOL0     H12662  10.525   4.069   8.937  0.6296  0.8661  0.4903
   94MOL0     H12663  10.464   3.986   8.801 -0.2779 -0.3214  0.8351
   94MOL0     H12664  10.663   4.232   8.791  1.0484 -0.9181  2.9266
   94MOL0     H12665  10.603   4.147   8.647 -1.3843 -4.0300 -0.0048
   94MOL0     H12666  10.758   4.038   8.884  0.2303  0.1473  0.5649
   94MOL0     H12667  10.708   3.953   8.727  3.4803 -0.6061 -2.2068
   94MOL0     H12668  10.947   4.024   8.782  1.3838  3.4152  3.0706
   94MOL0     H12669  10.914   4.185   8.753  1.8983 -0.4706  0.2927
   94MOL0     H12670  10.946   4.170   8.542 -0.3064 -0.4878 -0.1947
   94MOL0     H12671  10.804   4.066   8.522  0.0332 -0.2686  1.6758
   94MOL0     H12672   9.935   4.126   8.871  1.5360 -1.0696 -2.8840
   94MOL0     H12673   9.740   4.272   8.964 -0.4739  1.3909  1.5239
   94MOL0     H12674   9.426   4.551   8.778 -3.1491 -0.4408 -0.5422
   94MOL0     H12675   9.197   4.597   8.812 -0.1925 -2.4495  0.6859
   94MOL0     H12676   7.614   5.029   9.481  1.5354 -1.2350  1.5042
   94MOL0     H12677   7.389   5.120   9.399 -4.6892  1.2205  1.5699
   94MOL0     H12678   7.015   5.258   9.405  1.6367  1.1645 -2.7484
   94MOL0     H12679   6.782   5.300   9.382  0.9158  0.9451 -0.5363
   94MOL0     H12680   6.555   5.704   9.408  0.0721  2.5151 -3.5864
   94MOL0     H12681   6.718   5.711   9.377  1.4884 -1.5689 -0.5124
   94MOL0     H12682   6.734   5.545   9.218  0.1378  0.3162 -3.2857
   94MOL0     H12683   6.596   5.648   9.169 -3.2632  0.2733  2.2507
   94MOL0     H12684   6.428   5.489   9.224 -0.1418 -0.6171  0.1109
   94MOL0     H12685   6.545   5.391   9.310  3.0456  0.6527 -0.5887
   94MOL0     H12686   6.554   5.438   9.002 -2.8823  0.2094 -0.6850
   94MOL0     H12687   6.451   5.318   9.081 -0.5694  0.0752  1.9773
   94MOL0     H12688   6.819   5.128   9.137 -1.5595 -0.2218  2.7014
   94MOL0     H12689   6.833   5.673   9.578 -1.3411  0.1440 -1.4402
   94MOL0     H12690   7.069   5.630   9.629  1.8646  1.1012 -2.1633
   95MOL0     O12691   7.126   3.681   3.677  0.4717  0.4566  0.8560
   95MOL0     C12692   7.034   3.603   3.659  0.0742 -0.0636  0.4973
   95MOL0     O12693   6.942   3.608   3.562  0.0115 -0.3551 -0.0225
   95MOL0     C12694   6.930   3.710   3.468 -1.2250 -0.0948 -0.5282
   95MOL0     C12695   6.888   3.671   3.342 -0.4996 -0.1630 -0.1772
   95MOL0     C12696   6.871   3.760   3.243  0.2490 -0.4363  0.4564
   95MOL0     C12697   6.891   3.895   3.260  0.4753 -0.0046  0.2814
   95MOL0     O12698   6.863   3.986   3.156 -0.1315  0.6720 -0.4375
   95MOL0     C12699   6.961   4.085   3.128  0.5505 -0.2334 -0.6264
   95MOL0     C12700   6.899   4.210   3.078 -0.2986  0.3477 -0.9949
   95MOL0     C12701   6.824   4.280   3.189  1.4398 -0.3044 -0.7187
   95MOL0     C12702   6.916   4.360   3.284  0.1513  0.2475  0.6228
   95MOL0     C12703   6.840   4.405   3.409  0.3126  0.3058 -0.3462
   95MOL0     C12704   6.933   4.510   3.483 -0.1422  0.5170  0.9357
   95MOL0     C12705   6.922   4.658   3.431  0.2669 -0.2227 -0.8813
   95MOL0     C12706   6.787   4.728   3.450  0.5236  0.7775  0.1579
   95MOL0     N12707   6.755   4.743   3.596 -0.3985 -0.0737  0.0382
   95MOL0     C12708   6.653   4.670   3.649  0.9521  0.5467  0.5030
   95MOL0     C12709   6.653   4.707   3.778 -0.0129 -1.0392  0.0566
   95MOL0     C12710   6.566   4.654   3.878  0.6932 -0.7645 -0.4808
   95MOL0     C12711   6.620   4.649   4.029  0.0029  0.3885  0.5172
   95MOL0     C12712   6.739   4.558   4.035 -0.6238  1.2465  0.3005
   95MOL0     C12713   6.714   4.405   4.008 -0.6287 -0.3255 -0.4572
   95MOL0     O12714   6.603   4.340   4.082  0.6633 -0.6961 -0.3876
   95MOL0     C12715   6.626   4.268   4.196  0.1816 -0.0828  0.4668
   95MOL0     C12716   6.529   4.178   4.221  0.3379 -0.0021 -0.5468
   95MOL0     C12717   6.538   4.090   4.337  0.3475 -0.7987  0.2726
   95MOL0     C12718   6.430   3.986   4.344  0.2692  0.3560 -0.1720
   95MOL0     C12719   6.663   4.099   4.417  0.4823  0.5193  0.0456
   95MOL0     C12720   6.686   4.014   4.534  0.2179  0.2800 -0.7173
   95MOL0     O12721   6.778   4.056   4.621  0.5105  0.9352  0.2312
   95MOL0     C12722   6.850   3.974   4.707  0.4427  0.0313  0.0720
   95MOL0     C12723   6.904   3.852   4.666 -0.3816 -0.1123  0.6327
   95MOL0     C12724   6.958   3.762   4.759  0.0245  0.5347  0.1784
   95MOL0     C12725   6.959   3.797   4.896  0.7344  0.3169 -0.8828
   95MOL0     O12726   6.997   3.717   4.994  0.9981 -0.0005  0.4347
   95MOL0     C12727   6.922   3.596   5.002  0.3932  0.2448 -0.9170
   95MOL0     C12728   6.933   3.542   5.154 -0.1315 -0.3448  0.1854
   95MOL0     C12729   6.858   3.636   5.249  0.3479  0.2068 -0.6718
   95MOL0     C12730   6.891   3.588   5.388 -0.7760  0.4518 -0.0291
   95MOL0     C12731   6.795   3.654   5.487 -0.1437  0.1533 -0.0932
   95MOL0     C12732   6.791   3.595   5.631 -0.5612  0.6525 -0.0695
   95MOL0     C12733   6.920   3.623   5.717  0.4108 -0.6078  0.0438
   95MOL0     C12734   6.911   3.562   5.859  0.4755 -0.3196  0.1962
   95MOL0    Cl12735   6.911   3.385   5.852 -0.5667  0.2964  0.3238
   95MOL0     C12736   6.896   3.921   4.937  0.4107  0.0356  0.5968
   95MOL0     C12737   6.836   3.999   4.842  0.8713 -0.8054 -0.1469
   95MOL0     O12738   6.606   3.916   4.552 -0.2386 -0.3557  0.1840
   95MOL0     C12739   6.756   4.205   4.383 -0.3135  0.0690  0.6637
   95MOL0     C12740   6.738   4.294   4.275  0.8906  0.3836 -0.1396
   95MOL0     N12741   6.761   4.803   3.800  0.7748 -0.3592 -0.0802
   95MOL0     N12742   6.814   4.827   3.685 -0.2305 -0.3754 -0.4878
   95MOL0     C12743   6.939   3.941   3.381 -0.4155  0.0292 -0.0543
   95MOL0     C12744   6.969   3.845   3.486 -0.2686  0.3759 -0.1942
   95MOL0     C12745   7.037   3.480   3.749 -0.8290  0.7062  0.0724
   95MOL0     C12746   6.958   3.376   3.709  0.2066  0.5553  0.1545
   95MOL0     C12747   6.954   3.251   3.769 -0.2290 -0.9232  0.2259
   95MOL0     C12748   7.026   3.235   3.892  0.1098 -0.1057  0.7175
   95MOL0     O12749   7.015   3.121   3.973 -0.7361 -0.0461  0.6556
   95MOL0     C12750   6.882   3.071   4.004  1.3508 -1.0645 -0.3282
   95MOL0     C12751   6.892   2.964   4.123 -0.2976 -0.1891  0.6307
   95MOL0     C12752   6.988   2.852   4.068  0.8229 -0.4453  0.0084
   95MOL0     C12753   6.973   2.716   4.144 -1.0640  0.5137 -0.4651
   95MOL0     C12754   6.867   2.638   4.086  0.5817 -0.2107  1.0737
   95MOL0     C12755   6.783   2.575   4.036  0.1351  0.1954 -0.3254
   95MOL0     C12756   7.120   3.336   3.937 -0.8666  0.1862  0.1055
   95MOL0     C12757   7.124   3.460   3.858  0.5959  0.0281 -1.3558
   95MOL0     H12758   6.873   3.566   3.319 -2.4364  0.1196 -0.3657
   95MOL0     H12759   6.841   3.726   3.144  1.0026 -0.8850  0.3804
   95MOL0     H12760   7.035   4.102   3.207  1.1900  0.5955 -1.3912
   95MOL0     H12761   7.031   4.054   3.049  3.0159  2.7248  0.1927
   95MOL0     H12762   6.971   4.285   3.046  0.6397 -0.2925 -0.4490
   95MOL0     H12763   6.825   4.188   3.001 -0.6277 -1.1609 -0.2976
   95MOL0     H12764   6.762   4.356   3.142 -0.3480  0.1558  2.1185
   95MOL0     H12765   6.764   4.217   3.255 -1.8657  3.2482  0.0513
   95MOL0     H12766   6.995   4.291   3.314 -1.0126 -2.2037 -1.6003
   95MOL0     H12767   6.944   4.456   3.238  0.2020  0.5543  1.2771
   95MOL0     H12768   6.739   4.446   3.395 -0.4434 -0.3319  2.6812
   95MOL0     H12769   6.830   4.318   3.474 -1.7225 -0.8369 -2.0397
   95MOL0     H12770   6.928   4.505   3.592  3.0352 -0.6448  1.1262
   95MOL0     H12771   7.034   4.472   3.466 -0.5761 -1.7583  2.9076
   95MOL0     H12772   6.995   4.715   3.489  3.2733 -0.9670 -3.6470
   95MOL0     H12773   6.954   4.674   3.327 -1.7007 -0.6892 -1.5955
   95MOL0     H12774   6.711   4.664   3.403 -0.5540 -1.0374  3.9611
   95MOL0     H12775   6.784   4.815   3.384 -0.0003 -1.7088 -3.3802
   95MOL0     H12776   6.591   4.598   3.597  1.5239  2.1694 -2.6413
   95MOL0     H12777   6.473   4.712   3.887  2.5746  2.1854  2.1981
   95MOL0     H12778   6.533   4.553   3.855 -1.4654 -0.8508  2.4177
   95MOL0     H12779   6.533   4.617   4.087  0.7686 -0.7319  1.0794
   95MOL0     H12780   6.653   4.745   4.069 -0.1514 -0.5822  3.1433
   95MOL0     H12781   6.782   4.562   4.135 -0.1560  2.1258  0.0750
   95MOL0     H12782   6.822   4.594   3.973  1.7064 -0.2592  2.3682
   95MOL0     H12783   6.805   4.350   4.030 -0.1252  0.9931  0.9446
   95MOL0     H12784   6.686   4.389   3.903  3.3225 -0.3196 -1.6666
   95MOL0     H12785   6.456   4.183   4.141  1.4457 -2.7836 -1.8448
   95MOL0     H12786   6.460   3.887   4.379 -3.0158 -0.9831 -0.7223
   95MOL0     H12787   6.362   4.016   4.424  1.5929 -0.0342  1.1439
   95MOL0     H12788   6.369   3.971   4.254 -0.1712 -4.3161  0.6608
   95MOL0     H12789   6.901   3.832   4.559  1.1761 -0.9879  0.7274
   95MOL0     H12790   6.980   3.658   4.734 -0.2034 -0.5134  3.7801
   95MOL0     H12791   6.820   3.604   4.963 -0.6246 -1.1532  1.2769
   95MOL0     H12792   6.977   3.535   4.929  1.1601  2.2154 -2.0530
   95MOL0     H12793   6.890   3.443   5.143 -1.0802 -0.1401  1.8241
   95MOL0     H12794   7.040   3.533   5.175 -0.1431 -0.5850  0.1377
   95MOL0     H12795   6.750   3.646   5.234  0.1303  1.5856  1.3290
   95MOL0     H12796   6.902   3.733   5.225 -2.8721  1.2535 -3.2168
   95MOL0     H12797   6.883   3.479   5.391 -0.0197  0.4094  1.8079
   95MOL0     H12798   6.994   3.608   5.420 -0.7856 -0.1134  0.3715
   95MOL0     H12799   6.695   3.643   5.444 -0.3391  3.9883 -0.9472
   95MOL0     H12800   6.813   3.762   5.482 -1.5341  0.3419 -1.5279
   95MOL0     H12801   6.707   3.646   5.677  0.2234 -0.8532  3.3335
   95MOL0     H12802   6.765   3.489   5.627 -3.5941  1.2891  0.7076
   95MOL0     H12803   6.931   3.731   5.731  2.5322 -0.7732 -0.0969
   95MOL0     H12804   7.002   3.574   5.664  0.2282 -1.6653  0.7092
   95MOL0     H12805   6.820   3.596   5.908  1.2862  1.5590  0.4922
   95MOL0     H12806   7.002   3.590   5.914 -0.0797 -1.4400  1.7308
   95MOL0     H12807   6.903   3.950   5.042 -0.5463 -0.9281  0.9550
   95MOL0     H12808   6.795   4.093   4.876 -0.0406 -2.0682  2.6148
   95MOL0     H12809   6.843   4.228   4.443 -0.6818 -2.2660  2.2221
   95MOL0     H12810   6.819   4.360   4.245 -0.5236  2.7434  0.9227
   95MOL0     H12811   6.938   4.049   3.385 -0.0601  0.2046 -2.7333
   95MOL0     H12812   7.011   3.893   3.573  0.4459  0.1026 -0.3828
   95MOL0     H12813   6.887   3.386   3.627 -0.4259  0.3508  0.6707
   95MOL0     H12814   6.905   3.169   3.718 -0.4087 -0.6791 -0.0019
   95MOL0     H12815   6.823   3.158   4.036 -1.1639 -2.2803 -1.4315
   95MOL0     H12816   6.842   3.018   3.917  3.7321 -0.3508 -1.9673
   95MOL0     H12817   6.798   2.921   4.159 -0.0347 -1.5536 -0.2315
   95MOL0     H12818   6.934   3.019   4.208 -0.0554 -0.1413  0.4799
   95MOL0     H12819   7.093   2.882   4.068  0.1787  2.0080  0.2920
   95MOL0     H12820   6.956   2.842   3.964 -3.4747  1.9246  0.8815
   95MOL0     H12821   6.950   2.726   4.250 -1.6672 -4.7228  0.1241
   95MOL0     H12822   7.069   2.665   4.132 -0.9161  0.9132 -1.0944
   95MOL0     H12823   6.714   2.513   3.981  0.8796  0.5656 -1.7165
   95MOL0     H12824   7.177   3.322   4.029 -0.9232 -2.7472 -0.1906
   95MOL0     H12825   7.202   3.530   3.888 -0.2601  0.5780 -0.3422
   96MOL0     O12826   0.879  10.648   0.633  0.4680  1.0702  0.4152
   96MOL0     C12827   0.961  10.610   0.714 -1.2932  0.0035  0.0402
   96MOL0     O12828   1.091  10.627   0.703 -0.3933  0.4473  0.5201
   96MOL0     C12829   1.166  10.569   0.605 -0.0139 -1.0877 -0.1865
   96MOL0     C12830   1.300  10.568   0.642 -0.2756 -0.2008 -0.5715
   96MOL0     C12831   1.392  10.495   0.560 -0.1835  0.2158 -0.9096
   96MOL0     C12832   1.347  10.438   0.435  0.1405  0.3434  0.2986
   96MOL0     O12833   1.435  10.383   0.344  0.3432  0.3919  0.2409
   96MOL0     C12834   1.551  10.322   0.405 -1.2981 -0.2434  0.2734
   96MOL0     C12835   1.614  10.205   0.324 -0.0500  0.1643  0.9474
   96MOL0     C12836   1.661  10.254   0.186 -0.0703  0.0643 -0.3730
   96MOL0     C12837   1.723  10.134   0.109  0.4652 -0.0966  0.5742
   96MOL0     C12838   1.783  10.188  -0.022 -0.7080 -0.3382 -0.1256
   96MOL0     C12839   1.831  10.075  -0.111  0.5709 -0.1817  0.3037
   96MOL0     C12840   1.871  10.105  -0.255  0.0151  0.2546 -0.2434
   96MOL0     C12841   1.980  10.222  -0.261  0.0990 -0.0982  0.1407
   96MOL0     N12842   2.002  10.259  -0.400  0.5979 -0.4924  0.0389
   96MOL0     C12843   2.028  10.167  -0.502 -0.0877  0.6533 -0.3358
   96MOL0     C12844   2.036  10.242  -0.613  1.0470  0.6366 -0.1035
   96MOL0     C12845   2.058  10.194  -0.753  0.2262  0.0260  0.5333
   96MOL0     C12846   2.197  10.205  -0.808  0.0976  0.7436 -0.1262
   96MOL0     C12847   2.246  10.352  -0.806 -1.2362  0.8054  0.5992
   96MOL0     C12848   2.397  10.363  -0.837 -0.3886 -0.2640  0.8405
   96MOL0     O12849   2.442  10.259  -0.926 -0.5080 -0.0232  0.0738
   96MOL0     C12850   2.566  10.280  -0.985  0.7711  1.4720 -0.1245
   96MOL0     C12851   2.652  10.387  -0.958 -0.2906  0.5249  0.1992
   96MOL0     C12852   2.772  10.413  -1.027 -0.6219 -0.5050 -0.3694
   96MOL0     C12853   2.846  10.552  -1.003 -0.8049 -1.0588 -1.2177
   96MOL0     C12854   2.809  10.320  -1.128 -0.6069 -0.3706  1.3306
   96MOL0     C12855   2.935  10.332  -1.219 -0.6253 -0.5176 -0.5863
   96MOL0     O12856   2.952  10.236  -1.314  0.3768 -0.1412  0.5037
   96MOL0     C12857   3.082  10.221  -1.372 -0.1454  0.1920 -0.7051
   96MOL0     C12858   3.084  10.204  -1.511  0.5054 -0.3358 -0.0744
   96MOL0     C12859   3.201  10.191  -1.580  0.0566 -1.1638 -0.0671
   96MOL0     C12860   3.319  10.205  -1.512  0.4299  0.4906 -0.1970
   96MOL0     O12861   3.430  10.223  -1.594 -0.1408  0.3395 -0.4094
   96MOL0     C12862   3.497  10.350  -1.598 -0.1671 -1.1815 -0.3187
   96MOL0     C12863   3.418  10.457  -1.668 -0.3403 -0.8908  0.9858
   96MOL0     C12864   3.325  10.552  -1.580  0.2465  0.7583  0.2413
   96MOL0     C12865   3.191  10.581  -1.649  0.3470 -0.5686  0.1970
   96MOL0     C12866   3.101  10.642  -1.543 -1.2556  0.6664  0.5059
   96MOL0     C12867   3.123  10.792  -1.546 -0.4682  0.2220 -0.2393
   96MOL0     C12868   3.099  10.876  -1.411 -1.0723  0.7530 -0.0112
   96MOL0     C12869   2.988  10.818  -1.328 -0.3927 -0.0249  0.3589
   96MOL0    Cl12870   2.976  10.925  -1.188 -0.1776 -0.4407 -0.3816
   96MOL0     C12871   3.320  10.223  -1.375  0.0776  0.0172 -1.1078
   96MOL0     C12872   3.201  10.226  -1.300 -0.2445  0.4590  0.8847
   96MOL0     O12873   3.009  10.432  -1.205  0.3076  0.3012  0.0323
   96MOL0     C12874   2.722  10.217  -1.151 -0.2054  0.1210 -0.0613
   96MOL0     C12875   2.602  10.199  -1.088  0.5823  0.3784  0.0639
   96MOL0     N12876   2.012  10.374  -0.581 -0.5936 -0.0104 -0.3350
   96MOL0     N12877   1.997  10.387  -0.451  0.1976 -0.7177 -0.3209
   96MOL0     C12878   1.211  10.439   0.399  0.6303  0.0271 -0.5418
   96MOL0     C12879   1.117  10.512   0.486 -1.2105  0.5813  0.4748
   96MOL0     C12880   0.912  10.562   0.849  1.3755  0.9157  1.1443
   96MOL0     C12881   0.771  10.546   0.875  0.3197 -0.4728  0.0161
   96MOL0     C12882   0.728  10.507   0.996 -0.5397  0.4533  0.4197
   96MOL0     C12883   0.811  10.463   1.104 -0.4753  0.9628  0.5430
   96MOL0     O12884   0.756  10.400   1.215 -0.0787  0.1625  1.1840
   96MOL0     C12885   0.656  10.468   1.297 -0.2481  0.4311 -0.7341
   96MOL0     C12886   0.635  10.385   1.427 -0.1274 -0.5296 -0.1101
   96MOL0     C12887   0.540  10.259   1.402 -0.3743  0.0153 -0.1207
   96MOL0     C12888   0.539  10.156   1.519 -0.0293  0.0247  0.4200
   96MOL0     C12889   0.487  10.218   1.641 -0.5488 -0.0289  0.6888
   96MOL0     C12890   0.457  10.256   1.751 -1.3952  0.4337 -0.4526
   96MOL0     C12891   0.949  10.465   1.076 -0.2451 -0.2083 -0.7310
   96MOL0     C12892   0.998  10.515   0.945  0.0182  0.7673 -0.3570
   96MOL0     H12893   1.334  10.635   0.720 -0.4243  0.9805 -1.4821
   96MOL0     H12894   1.499  10.493   0.579 -0.4920  1.0938  1.2482
   96MOL0     H12895   1.630  10.396   0.424 -1.4391  0.2569 -1.0125
   96MOL0     H12896   1.517  10.276   0.498 -2.6820  1.2765  0.5503
   96MOL0     H12897   1.703  10.160   0.368  1.0357 -0.7722 -1.9752
   96MOL0     H12898   1.542  10.123   0.318  0.5085 -0.4618  2.4329
   96MOL0     H12899   1.566  10.277   0.137 -2.1214 -1.5864  2.4923
   96MOL0     H12900   1.726  10.342   0.184 -0.3112  0.2336 -1.8662
   96MOL0     H12901   1.807  10.091   0.163  2.3367  0.0202 -2.0660
   96MOL0     H12902   1.667  10.047   0.073  1.1155  0.3862 -1.7805
   96MOL0     H12903   1.708  10.243  -0.080 -1.3344 -1.6073 -0.5588
   96MOL0     H12904   1.873  10.249  -0.008 -0.3030 -1.2976  1.7495
   96MOL0     H12905   1.922  10.029  -0.072 -0.2016 -0.7227  1.4989
   96MOL0     H12906   1.751  10.000  -0.114  0.9845 -0.6106 -0.4603
   96MOL0     H12907   1.907  10.011  -0.298 -3.6323 -1.0117 -0.8990
   96MOL0     H12908   1.790  10.132  -0.324  2.3995 -0.7847 -3.7363
   96MOL0     H12909   2.075  10.190  -0.217 -0.3815  0.0599  1.3159
   96MOL0     H12910   1.940  10.318  -0.225 -0.3910  0.0190 -0.6783
   96MOL0     H12911   2.051  10.061  -0.502  2.8874  1.1546 -3.1664
   96MOL0     H12912   2.025  10.090  -0.756  2.0018 -0.5708 -1.7220
   96MOL0     H12913   1.985  10.251  -0.809 -0.3120 -0.2335  0.9628
   96MOL0     H12914   2.194  10.175  -0.913 -1.3408  3.3262 -0.9234
   96MOL0     H12915   2.256  10.134  -0.749  0.1332  1.6877  1.0109
   96MOL0     H12916   2.248  10.399  -0.707  1.0093  0.5990  0.7035
   96MOL0     H12917   2.187  10.413  -0.876  0.8225  3.5760  1.0798
   96MOL0     H12918   2.450  10.355  -0.741 -2.5275 -2.1707  1.9818
   96MOL0     H12919   2.417  10.459  -0.886  1.7708 -1.5551 -0.9884
   96MOL0     H12920   2.625  10.457  -0.880 -2.0720 -2.6797  2.6925
   96MOL0     H12921   2.937  10.535  -0.945 -1.5384 -0.9477 -0.0063
   96MOL0     H12922   2.875  10.604  -1.095  0.7893  2.4458  1.0886
   96MOL0     H12923   2.784  10.616  -0.940 -2.8264 -1.4616 -2.6652
   96MOL0     H12924   2.988  10.215  -1.561  1.4472  2.0786 -1.5360
   96MOL0     H12925   3.196  10.186  -1.688 -1.5640 -1.1584 -0.0123
   96MOL0     H12926   3.537  10.383  -1.502  5.4134  1.6507 -3.1177
   96MOL0     H12927   3.586  10.329  -1.657  0.7641 -0.7365  0.8963
   96MOL0     H12928   3.494  10.519  -1.717 -0.7692 -2.7989 -2.4515
   96MOL0     H12929   3.363  10.416  -1.754  1.2231 -0.7414 -0.1366
   96MOL0     H12930   3.375  10.646  -1.555  1.4256  0.9563 -2.5104
   96MOL0     H12931   3.302  10.503  -1.485 -2.3790  1.9469  0.2892
   96MOL0     H12932   3.220  10.640  -1.736 -1.0069  0.2660  0.2872
   96MOL0     H12933   3.150  10.481  -1.668  1.2737 -1.2486  1.5652
   96MOL0     H12934   3.126  10.592  -1.448  1.7878  0.5866 -0.2136
   96MOL0     H12935   2.997  10.618  -1.565 -0.7578  0.1863 -1.5176
   96MOL0     H12936   3.222  10.823  -1.581 -0.2054  0.9926  1.1583
   96MOL0     H12937   3.054  10.824  -1.624 -0.1140  0.2259 -0.5573
   96MOL0     H12938   3.077  10.981  -1.436 -0.7071  0.6165 -0.9654
   96MOL0     H12939   3.185  10.873  -1.344 -0.7305 -1.1218 -0.4828
   96MOL0     H12940   3.002  10.714  -1.299 -2.2906 -1.1401 -2.3295
   96MOL0     H12941   2.893  10.817  -1.382  0.4010 -3.7619 -1.3043
   96MOL0     H12942   3.417  10.243  -1.329 -0.9375 -0.6284  1.4409
   96MOL0     H12943   3.212  10.237  -1.193 -1.2570 -0.5778  1.1142
   96MOL0     H12944   2.748  10.152  -1.234 -2.1831 -1.5745  0.5789
   96MOL0     H12945   2.526  10.127  -1.115 -0.9321  1.2899  1.6518
   96MOL0     H12946   1.173  10.400   0.305 -1.0449  1.3314 -0.4630
   96MOL0     H12947   1.017  10.525   0.447 -1.0610 -2.2485 -1.1675
   96MOL0     H12948   0.696  10.562   0.798  0.8183  0.5687 -0.2768
   96MOL0     H12949   0.623  10.490   1.019 -1.6959  2.7123 -2.5219
   96MOL0     H12950   0.674  10.574   1.316 -3.9057  0.9914  0.1546
   96MOL0     H12951   0.560  10.464   1.244 -0.4956 -2.4836 -0.2210
   96MOL0     H12952   0.587  10.440   1.508 -0.6874 -1.7054  0.3807
   96MOL0     H12953   0.728  10.341   1.463 -0.3995 -0.7801  0.2936
   96MOL0     H12954   0.569  10.205   1.311 -2.7106 -0.5075 -0.6170
   96MOL0     H12955   0.437  10.289   1.381 -1.0060 -0.6334  1.8390
   96MOL0     H12956   0.644  10.126   1.533 -0.2287 -1.7868 -1.5302
   96MOL0     H12957   0.471  10.074   1.494 -2.5571  1.7583  1.2301
   96MOL0     H12958   0.434  10.293   1.849 -1.4888  2.6043 -1.2460
   96MOL0     H12959   1.015  10.416   1.147  1.4193  2.1495 -0.5259
   96MOL0     H12960   1.098  10.493   0.909 -0.7118 -0.2376 -1.8755
   97MOL0     O12961   5.554   8.275   1.707  0.0263 -0.4075  0.3725
   97MOL0     C12962   5.489   8.172   1.711 -0.9008  0.4688  0.5010
   97MOL0     O12963   5.487   8.092   1.823 -0.6044 -0.2192  0.0820
   97MOL0     C12964   5.550   8.144   1.932  0.0465 -0.0654 -0.2304
   97MOL0     C12965   5.469   8.145   2.049 -0.0438  0.5087 -0.0553
   97MOL0     C12966   5.524   8.188   2.167  0.0228  0.9809  0.7910
   97MOL0     C12967   5.654   8.221   2.174 -0.6447 -0.6262 -0.0761
   97MOL0     O12968   5.711   8.270   2.289 -0.2394  0.6300 -0.2268
   97MOL0     C12969   5.649   8.269   2.425 -0.2755 -0.1115  0.4665
   97MOL0     C12970   5.709   8.371   2.524 -0.3404 -0.3649  0.4335
   97MOL0     C12971   5.837   8.307   2.590 -0.2605  0.6919 -0.4681
   97MOL0     C12972   5.888   8.392   2.716 -0.4023 -0.3016  0.4630
   97MOL0     C12973   6.004   8.323   2.791  0.0866 -0.4034 -0.4550
   97MOL0     C12974   6.017   8.381   2.937  0.5109  0.3725  0.9128
   97MOL0     C12975   6.141   8.340   3.006  0.5873  0.4883 -0.0018
   97MOL0     C12976   6.164   8.186   2.989 -0.4936  0.2450  0.1211
   97MOL0     N12977   6.269   8.124   3.070 -0.0417 -0.1407 -0.1793
   97MOL0     C12978   6.306   7.991   3.045 -0.4242 -0.3491 -0.7410
   97MOL0     C12979   6.411   7.980   3.132 -1.0914 -0.0059  0.2257
   97MOL0     C12980   6.501   7.859   3.148  1.1856  0.7053 -0.2313
   97MOL0     C12981   6.504   7.813   3.295  0.2945 -0.0384 -1.0855
   97MOL0     C12982   6.370   7.769   3.364  0.0530  0.2472 -0.5938
   97MOL0     C12983   6.386   7.708   3.504  0.8876 -0.3005  0.0255
   97MOL0     O12984   6.472   7.596   3.510 -0.0905 -0.1379  0.7069
   97MOL0     C12985   6.498   7.543   3.637  0.5247  0.6391 -0.3058
   97MOL0     C12986   6.467   7.407   3.657 -0.3968  0.0769  0.1409
   97MOL0     C12987   6.483   7.342   3.785  0.4612  0.2364  0.9850
   97MOL0     C12988   6.463   7.191   3.789 -0.1375 -0.0286  1.3982
   97MOL0     C12989   6.520   7.422   3.893 -0.5128  0.3454 -0.3066
   97MOL0     C12990   6.520   7.364   4.034 -0.1666  0.8711  1.1628
   97MOL0     O12991   6.613   7.425   4.119 -0.3672  0.0816  1.6466
   97MOL0     C12992   6.596   7.400   4.254 -0.4357  0.1571 -0.4899
   97MOL0     C12993   6.511   7.483   4.323 -0.1230 -0.2617 -0.1176
   97MOL0     C12994   6.478   7.455   4.455  0.3062  0.0659 -0.1159
   97MOL0     C12995   6.551   7.357   4.525  0.3803 -0.0343 -1.1969
   97MOL0     O12996   6.540   7.332   4.662  0.0712 -0.0863  0.2616
   97MOL0     C12997   6.575   7.437   4.752 -0.6730 -0.4454  0.0249
   97MOL0     C12998   6.727   7.438   4.795  0.6628  0.4782 -0.2321
   97MOL0     C12999   6.769   7.327   4.892 -0.0996 -0.4464 -0.0055
   97MOL0     C13000   6.892   7.362   4.977  0.6859  0.3553 -0.0423
   97MOL0     C13001   6.915   7.241   5.076 -0.2440 -0.3790 -0.0479
   97MOL0     C13002   7.033   7.267   5.163  0.2765  1.2277 -0.0883
   97MOL0     C13003   7.046   7.129   5.235 -0.1888 -0.3143 -0.5348
   97MOL0     C13004   7.157   7.127   5.344  0.2430  0.2162 -0.5191
   97MOL0    Cl13005   7.309   7.191   5.287 -0.8147  0.1032  0.3279
   97MOL0     C13006   6.630   7.274   4.453 -0.5020  0.9800 -0.3144
   97MOL0     C13007   6.656   7.295   4.316 -0.2487  0.4071 -0.5382
   97MOL0     O13008   6.442   7.270   4.061 -1.2411  0.2341 -0.3035
   97MOL0     C13009   6.565   7.558   3.869  0.5676 -0.0263  0.2354
   97MOL0     C13010   6.555   7.619   3.745 -0.2704  0.1644 -0.6883
   97MOL0     N13011   6.426   8.096   3.214  0.6167 -0.4764 -0.4700
   97MOL0     N13012   6.341   8.183   3.165  0.4334  0.5640 -1.1020
   97MOL0     C13013   5.733   8.219   2.064 -0.7628  0.2166  0.6135
   97MOL0     C13014   5.686   8.177   1.941 -1.4310 -0.5047 -0.5773
   97MOL0     C13015   5.431   8.122   1.584 -0.1704  0.5058  1.5646
   97MOL0     C13016   5.372   7.993   1.568 -0.0120 -0.2643  0.0399
   97MOL0     C13017   5.331   7.937   1.445 -0.4499 -0.2240  0.7140
   97MOL0     C13018   5.348   8.013   1.333 -0.1127  0.3363  0.4052
   97MOL0     O13019   5.321   7.965   1.212  0.5806 -0.4937  0.4633
   97MOL0     C13020   5.422   7.864   1.165 -0.4759  0.7263  0.1259
   97MOL0     C13021   5.342   7.745   1.112 -0.7578  0.2564 -0.1750
   97MOL0     C13022   5.409   7.669   0.994  0.3522 -0.3980 -0.1510
   97MOL0     C13023   5.310   7.577   0.919  0.1876  0.3946  0.4628
   97MOL0     C13024   5.175   7.627   0.894 -0.7673  1.1727 -0.9427
   97MOL0     C13025   5.079   7.692   0.867  0.2310 -0.3015 -0.1855
   97MOL0     C13026   5.403   8.144   1.350  0.5597 -0.5893 -0.3768
   97MOL0     C13027   5.446   8.199   1.468  0.6527  0.2764  0.6417
   97MOL0     H13028   5.370   8.103   2.034  1.0952 -1.5276 -2.8012
   97MOL0     H13029   5.461   8.181   2.255 -0.7980  0.0734  0.1596
   97MOL0     H13030   5.549   8.311   2.412  0.8787  1.9942 -3.3584
   97MOL0     H13031   5.650   8.166   2.460 -2.5894 -0.6895 -0.9632
   97MOL0     H13032   5.743   8.456   2.465 -2.9387  0.6917  0.3514
   97MOL0     H13033   5.630   8.380   2.600 -1.1465 -1.9973 -0.1617
   97MOL0     H13034   5.804   8.208   2.623 -0.3139  1.1667  0.9699
   97MOL0     H13035   5.912   8.293   2.512  0.8286 -1.4369  0.8759
   97MOL0     H13036   5.919   8.492   2.684  1.0960 -1.5799 -2.4639
   97MOL0     H13037   5.800   8.401   2.781  0.7397  0.4766  1.9479
   97MOL0     H13038   5.991   8.215   2.791 -1.9611 -0.1961  0.5092
   97MOL0     H13039   6.100   8.334   2.739 -1.1341 -2.2049 -3.2899
   97MOL0     H13040   6.016   8.490   2.942 -0.8244  0.3194  2.7054
   97MOL0     H13041   5.927   8.353   2.992  0.6122 -0.9595  0.4345
   97MOL0     H13042   6.228   8.389   2.961  2.4134 -1.0808  1.5804
   97MOL0     H13043   6.134   8.360   3.113  1.2259 -1.0467  0.3623
   97MOL0     H13044   6.192   8.169   2.885 -2.3508  0.6702 -0.4757
   97MOL0     H13045   6.081   8.122   3.021  0.6558 -0.8470  1.0065
   97MOL0     H13046   6.270   7.921   2.970 -1.0849 -0.3384 -0.4440
   97MOL0     H13047   6.467   7.784   3.077  2.2477 -0.2354  0.2078
   97MOL0     H13048   6.604   7.866   3.112  0.8790 -3.4181 -2.5320
   97MOL0     H13049   6.541   7.896   3.357  1.7690 -1.7504  0.4532
   97MOL0     H13050   6.576   7.731   3.306  1.3481  1.0437  0.6574
   97MOL0     H13051   6.324   7.687   3.308  2.0934 -0.8786 -0.7007
   97MOL0     H13052   6.304   7.856   3.375  0.1094  0.1640  0.5947
   97MOL0     H13053   6.283   7.694   3.539  0.9641  2.0819  1.4363
   97MOL0     H13054   6.412   7.783   3.580 -3.2528  0.5938  0.8427
   97MOL0     H13055   6.441   7.354   3.566 -1.2497  1.1469 -0.2572
   97MOL0     H13056   6.455   7.158   3.685 -1.6284  2.6113  0.5439
   97MOL0     H13057   6.548   7.154   3.846  1.4601 -3.2829 -2.6023
   97MOL0     H13058   6.366   7.169   3.834 -3.3162 -1.7872 -5.0822
   97MOL0     H13059   6.455   7.565   4.279 -0.5281  0.2559  1.3219
   97MOL0     H13060   6.413   7.524   4.509  0.2216  0.8511 -1.1948
   97MOL0     H13061   6.536   7.533   4.715 -1.5575 -0.8881 -0.2371
   97MOL0     H13062   6.518   7.429   4.845 -0.3005 -1.6569  0.1585
   97MOL0     H13063   6.804   7.442   4.718 -0.8790  0.7988 -1.8347
   97MOL0     H13064   6.736   7.537   4.841 -4.2618  0.6409  0.9138
   97MOL0     H13065   6.793   7.238   4.832  4.6897  2.0388 -2.3359
   97MOL0     H13066   6.694   7.297   4.965  0.4848 -3.0309 -0.3632
   97MOL0     H13067   6.981   7.377   4.916 -0.1457  1.4842 -1.0442
   97MOL0     H13068   6.869   7.457   5.026  0.1979  0.2421 -0.0393
   97MOL0     H13069   6.926   7.156   5.007  0.8773  1.7701 -2.6869
   97MOL0     H13070   6.820   7.227   5.129 -1.7438  0.4877 -2.3277
   97MOL0     H13071   7.118   7.283   5.097 -0.0332  1.9429 -0.3289
   97MOL0     H13072   7.024   7.344   5.240 -0.4996  2.4739 -1.3607
   97MOL0     H13073   7.063   7.054   5.157  0.6375 -0.2556 -0.4143
   97MOL0     H13074   6.958   7.111   5.297  0.1129  0.2704  0.0826
   97MOL0     H13075   7.181   7.025   5.375  2.4879  1.0151  0.5786
   97MOL0     H13076   7.130   7.175   5.439  0.2873 -3.6628  1.6576
   97MOL0     H13077   6.683   7.195   4.506 -0.5748 -1.4877 -3.5920
   97MOL0     H13078   6.731   7.228   4.274  1.9572 -0.4383  4.0831
   97MOL0     H13079   6.598   7.612   3.957  2.4745 -3.2864  1.7029
   97MOL0     H13080   6.580   7.724   3.735 -1.2669  0.8868  3.0725
   97MOL0     H13081   5.837   8.249   2.062 -0.5428 -0.3965  1.8585
   97MOL0     H13082   5.759   8.179   1.861 -0.5973  3.0283  0.1027
   97MOL0     H13083   5.367   7.921   1.650 -1.4963 -1.5834 -1.1506
   97MOL0     H13084   5.301   7.834   1.429  2.4723 -0.8445 -1.5441
   97MOL0     H13085   5.476   7.923   1.091  0.5654  2.6557  2.3047
   97MOL0     H13086   5.494   7.834   1.242 -0.9276  0.2708  0.3722
   97MOL0     H13087   5.245   7.779   1.076 -1.4134  0.4883  1.7296
   97MOL0     H13088   5.308   7.671   1.184  1.8347  1.5676  2.6212
   97MOL0     H13089   5.493   7.606   1.024 -2.1481 -4.8185 -1.5129
   97MOL0     H13090   5.443   7.747   0.925  0.4723 -1.0022 -0.7843
   97MOL0     H13091   5.308   7.472   0.952  0.1692 -0.2368 -1.4468
   97MOL0     H13092   5.358   7.575   0.821  2.2649 -0.0143  1.4239
   97MOL0     H13093   5.000   7.750   0.824  0.7190 -1.3760 -2.7115
   97MOL0     H13094   5.409   8.215   1.268  0.3363  0.1679  0.2429
   97MOL0     H13095   5.477   8.303   1.467 -2.6466  1.5466 -3.8026
   98MOL0     O13096   3.711   4.307   2.777  0.4128 -0.2380 -0.3577
   98MOL0     C13097   3.717   4.260   2.660  1.6318  0.2977 -1.1436
   98MOL0     O13098   3.745   4.125   2.628  0.3210 -0.4772 -0.0842
   98MOL0     C13099   3.741   4.026   2.716  0.2589  0.5844  0.1573
   98MOL0     C13100   3.689   4.011   2.844  0.6315 -0.9029 -0.0244
   98MOL0     C13101   3.702   3.890   2.911 -0.6640 -0.4054  0.3343
   98MOL0     C13102   3.766   3.782   2.855  0.5125  0.0682 -0.4776
   98MOL0     O13103   3.777   3.663   2.924  0.4715  0.0991 -0.1763
   98MOL0     C13104   3.675   3.627   3.025 -1.3723 -0.1749 -0.3652
   98MOL0     C13105   3.706   3.486   3.086  0.3710 -0.7316  1.2421
   98MOL0     C13106   3.599   3.425   3.175  0.6742  0.2237 -0.4312
   98MOL0     C13107   3.654   3.310   3.260 -0.4387  0.3592  0.2498
   98MOL0     C13108   3.725   3.195   3.179 -0.1751  0.3296 -0.2376
   98MOL0     C13109   3.763   3.081   3.278  0.1991  0.6143 -0.5807
   98MOL0     C13110   3.831   2.965   3.204 -0.0584  0.1006  0.9777
   98MOL0     C13111   3.798   2.828   3.259  0.2215 -0.3796 -1.0457
   98MOL0     N13112   3.842   2.777   3.396  0.3249  0.1719  0.4702
   98MOL0     C13113   3.924   2.845   3.482 -0.2109  0.3140  0.5138
   98MOL0     C13114   3.947   2.762   3.588 -0.7715  0.2476 -0.0569
   98MOL0     C13115   4.007   2.796   3.722  0.0391  0.4746 -0.3207
   98MOL0     C13116   3.893   2.825   3.825 -0.2860 -0.2670 -0.9015
   98MOL0     C13117   3.802   2.702   3.870 -0.5854 -0.3189  0.4671
   98MOL0     C13118   3.885   2.594   3.924  0.3587 -0.2654  0.0284
   98MOL0     O13119   3.806   2.494   3.994 -0.8730  0.3000 -0.2561
   98MOL0     C13120   3.724   2.401   3.920  0.3724  0.4785  0.1619
   98MOL0     C13121   3.705   2.404   3.782  0.0995 -0.0488 -0.1675
   98MOL0     C13122   3.619   2.312   3.722  0.4144  0.7779  0.1081
   98MOL0     C13123   3.594   2.311   3.571 -1.0716  1.1777 -0.7703
   98MOL0     C13124   3.545   2.217   3.808 -0.2208  0.5385  1.0639
   98MOL0     C13125   3.449   2.123   3.754 -0.0655 -0.2944  0.3186
   98MOL0     O13126   3.328   2.101   3.823 -0.5072 -0.1941 -0.2841
   98MOL0     C13127   3.253   1.986   3.802  0.2145  0.3477 -0.2881
   98MOL0     C13128   3.117   2.007   3.809 -0.2225  0.5526  0.9213
   98MOL0     C13129   3.028   1.897   3.810  0.2684 -0.2370  0.0323
   98MOL0     C13130   3.078   1.766   3.793 -0.4480  0.3935 -0.7679
   98MOL0     O13131   2.998   1.656   3.802  0.0710  0.6835 -0.4232
   98MOL0     C13132   2.867   1.667   3.749 -0.1810 -0.0782 -0.0002
   98MOL0     C13133   2.814   1.525   3.744  0.7380 -0.6784 -0.0408
   98MOL0     C13134   2.684   1.522   3.663 -1.2628 -0.0573  0.1722
   98MOL0     C13135   2.618   1.392   3.705 -0.0627 -0.4419 -0.1363
   98MOL0     C13136   2.489   1.367   3.626  0.2346  0.1192  0.0563
   98MOL0     C13137   2.419   1.236   3.667 -0.5195  0.3884  0.6420
   98MOL0     C13138   2.294   1.208   3.592  0.4858 -1.0108 -0.5234
   98MOL0     C13139   2.237   1.066   3.619 -0.6500  0.0901  0.0003
   98MOL0    Cl13140   2.075   1.055   3.549 -0.0505 -0.4081  0.1861
   98MOL0     C13141   3.206   1.744   3.771 -1.1236  0.1668  0.5451
   98MOL0     C13142   3.294   1.851   3.775 -0.5442 -0.3160  1.1795
   98MOL0     O13143   3.478   2.059   3.655 -0.5877 -0.9814  0.3975
   98MOL0     C13144   3.555   2.230   3.950  0.2362 -0.1797 -0.3715
   98MOL0     C13145   3.643   2.324   4.001  0.0813 -0.6315 -0.2492
   98MOL0     N13146   3.887   2.640   3.561  0.5651  0.2700 -0.5595
   98MOL0     N13147   3.821   2.653   3.448 -0.4610  0.4175  1.1631
   98MOL0     C13148   3.831   3.799   2.737  0.4611 -0.6177  0.2597
   98MOL0     C13149   3.815   3.917   2.667  0.3893 -0.2005 -0.3164
   98MOL0     C13150   3.705   4.351   2.552  0.6409 -0.6230  0.5037
   98MOL0     C13151   3.701   4.300   2.417  1.0943  0.9224 -0.3725
   98MOL0     C13152   3.688   4.385   2.307  0.1708  0.3337 -0.1773
   98MOL0     C13153   3.686   4.526   2.329  0.5820 -1.3446  0.0499
   98MOL0     O13154   3.696   4.612   2.229  0.5108 -0.2069 -0.4986
   98MOL0     C13155   3.718   4.566   2.092 -0.1988 -0.9731  0.1198
   98MOL0     C13156   3.739   4.691   1.998 -0.1046  0.3847  0.0250
   98MOL0     C13157   3.728   4.656   1.850  0.2882 -0.3434 -0.4785
   98MOL0     C13158   3.834   4.545   1.815  0.3059  0.5226  0.6905
   98MOL0     C13159   3.838   4.517   1.674 -0.1460 -0.8746  0.2574
   98MOL0     C13160   3.844   4.505   1.554 -0.0361 -0.2033 -0.8545
   98MOL0     C13161   3.681   4.578   2.466 -0.2945  0.1788  0.6999
   98MOL0     C13162   3.680   4.487   2.576 -0.0807 -0.0635  0.1696
   98MOL0     H13163   3.633   4.093   2.887  2.5826  1.3541 -1.4962
   98MOL0     H13164   3.655   3.895   3.009 -0.7240  0.7061  0.2599
   98MOL0     H13165   3.694   3.701   3.104  0.3710 -0.2030 -0.7203
   98MOL0     H13166   3.572   3.637   2.991 -2.3721 -0.9990  2.1932
   98MOL0     H13167   3.727   3.418   3.003  1.4677 -0.0882  0.9715
   98MOL0     H13168   3.797   3.503   3.144 -0.3191  1.5468  1.7771
   98MOL0     H13169   3.551   3.497   3.242  0.8857 -0.4817  0.4826
   98MOL0     H13170   3.521   3.385   3.109 -0.3068  0.4946  0.5351
   98MOL0     H13171   3.710   3.355   3.343 -0.7706  2.3164 -0.5156
   98MOL0     H13172   3.559   3.275   3.300 -1.1892  0.1925 -1.5673
   98MOL0     H13173   3.661   3.159   3.098 -2.4209 -2.0507  2.3734
   98MOL0     H13174   3.814   3.226   3.124 -0.6413 -1.4828 -2.1344
   98MOL0     H13175   3.821   3.132   3.355  1.0881  0.0160 -0.8316
   98MOL0     H13176   3.675   3.035   3.324  0.9796  0.7873  1.1566
   98MOL0     H13177   3.787   2.959   3.104  1.5014  0.2163  0.2376
   98MOL0     H13178   3.938   2.985   3.190 -0.1095 -0.7808 -0.9175
   98MOL0     H13179   3.812   2.751   3.182  0.5877 -0.7722 -0.5938
   98MOL0     H13180   3.690   2.818   3.276  0.1623  1.7218  0.1098
   98MOL0     H13181   3.950   2.950   3.483  2.1021 -0.1668  3.0156
   98MOL0     H13182   4.065   2.710   3.757  0.4310 -0.0833 -2.2413
   98MOL0     H13183   4.078   2.878   3.709 -0.9632  1.5444  0.6833
   98MOL0     H13184   3.828   2.907   3.791  1.6481  2.3712  1.3207
   98MOL0     H13185   3.933   2.873   3.914 -2.0388  1.8814 -1.1826
   98MOL0     H13186   3.742   2.662   3.788  4.5134 -0.6748 -3.6447
   98MOL0     H13187   3.732   2.746   3.941  0.1160  3.2376 -0.7987
   98MOL0     H13188   3.976   2.627   3.976  2.9975 -0.4836 -3.9984
   98MOL0     H13189   3.937   2.550   3.838  0.9552  1.0817 -0.3249
   98MOL0     H13190   3.762   2.473   3.720  2.2169 -1.4838  0.0886
   98MOL0     H13191   3.490   2.305   3.540 -1.0807  1.5483 -0.8183
   98MOL0     H13192   3.631   2.405   3.528  0.5862  1.5143  1.2398
   98MOL0     H13193   3.644   2.227   3.522 -1.8284  2.2698 -3.6102
   98MOL0     H13194   3.079   2.103   3.846 -0.2851  0.2753  1.5854
   98MOL0     H13195   2.921   1.914   3.824  0.0786 -1.7463  0.6397
   98MOL0     H13196   2.809   1.715   3.829  1.8442  2.4079  0.1126
   98MOL0     H13197   2.864   1.714   3.651  1.2661 -1.2977 -0.6586
   98MOL0     H13198   2.881   1.460   3.686  0.2032 -0.4114 -0.9852
   98MOL0     H13199   2.794   1.490   3.845 -0.4577 -0.1307 -0.0764
   98MOL0     H13200   2.710   1.530   3.557  4.6373  1.5358  1.3418
   98MOL0     H13201   2.626   1.608   3.699 -0.8286 -0.4406  1.9132
   98MOL0     H13202   2.683   1.305   3.694  0.5040  0.1242 -1.5752
   98MOL0     H13203   2.590   1.390   3.811  1.8698  1.2157  0.4720
   98MOL0     H13204   2.521   1.369   3.521  1.0294  0.3604  0.2942
   98MOL0     H13205   2.421   1.452   3.639 -1.3154 -0.9587 -0.6671
   98MOL0     H13206   2.493   1.157   3.654 -1.3847 -0.4898  0.9692
   98MOL0     H13207   2.390   1.260   3.770 -0.0718 -0.7094  1.0406
   98MOL0     H13208   2.314   1.213   3.485  4.4875 -0.1544  0.0848
   98MOL0     H13209   2.214   1.279   3.611 -0.8782 -2.3418 -1.0887
   98MOL0     H13210   2.224   1.040   3.725 -1.7971 -0.8203 -0.3457
   98MOL0     H13211   2.300   0.994   3.566 -1.7150  0.4581 -1.8482
   98MOL0     H13212   3.247   1.645   3.756  0.1947  0.5091  1.6430
   98MOL0     H13213   3.400   1.842   3.755 -0.4535  1.7445  0.5043
   98MOL0     H13214   3.499   2.168   4.020  0.5809 -1.7078 -1.3882
   98MOL0     H13215   3.659   2.326   4.109 -0.6394 -2.3777 -0.0734
   98MOL0     H13216   3.894   3.727   2.685 -0.3725 -0.7810 -0.5622
   98MOL0     H13217   3.851   3.929   2.565 -2.2766 -1.0023 -1.4625
   98MOL0     H13218   3.704   4.194   2.395  1.4505  1.5778 -3.9997
   98MOL0     H13219   3.696   4.335   2.211  1.1106 -1.6108  0.8592
   98MOL0     H13220   3.803   4.497   2.083 -0.3473 -1.3508  1.3469
   98MOL0     H13221   3.632   4.508   2.059 -0.7804  0.0399 -0.1921
   98MOL0     H13222   3.834   4.741   2.020  1.0494 -1.1389 -1.2741
   98MOL0     H13223   3.653   4.756   2.016 -1.3774 -1.0815 -0.5858
   98MOL0     H13224   3.745   4.747   1.792  0.0918  1.5609  2.3046
   98MOL0     H13225   3.625   4.629   1.824  0.6814 -0.7913 -1.6615
   98MOL0     H13226   3.818   4.453   1.872  3.2666 -1.2929 -1.1385
   98MOL0     H13227   3.938   4.572   1.835  0.6158  0.2582 -0.4960
   98MOL0     H13228   3.861   4.510   1.449  0.3593  2.7527 -0.7382
   98MOL0     H13229   3.671   4.685   2.484 -1.0349 -0.1120  2.1629
   98MOL0     H13230   3.668   4.526   2.677 -2.2678 -0.2791  0.0195
   99MOL0     O13231   3.594   5.165   2.212 -0.0210 -0.3022  0.0204
   99MOL0     C13232   3.670   5.064   2.215 -0.6876 -0.2094 -0.5166
   99MOL0     O13233   3.723   5.001   2.100 -0.6801 -0.6674  0.3048
   99MOL0     C13234   3.710   5.072   1.983 -0.4183 -0.0184  0.2869
   99MOL0     C13235   3.760   5.202   1.964  0.8401 -0.3604  0.0095
   99MOL0     C13236   3.720   5.280   1.847  0.1161  0.4313 -0.3262
   99MOL0     C13237   3.640   5.218   1.748  0.4935  0.4434  0.4005
   99MOL0     O13238   3.601   5.284   1.631 -0.4811 -0.3456  0.1448
   99MOL0     C13239   3.610   5.225   1.498 -0.2361  0.8474  0.4904
   99MOL0     C13240   3.489   5.167   1.436 -0.8883  0.3417  0.2482
   99MOL0     C13241   3.411   5.277   1.359  0.1652 -0.7631  0.8919
   99MOL0     C13242   3.483   5.335   1.236 -0.1564  0.1791 -0.0949
   99MOL0     C13243   3.565   5.232   1.148  0.0501 -0.5381 -0.8480
   99MOL0     C13244   3.618   5.300   1.024  0.2648 -1.1197 -0.4783
   99MOL0     C13245   3.522   5.322   0.922 -0.2768 -0.0773  0.6486
   99MOL0     C13246   3.574   5.424   0.809  0.7339 -0.6794 -0.3825
   99MOL0     N13247   3.699   5.382   0.743  0.3286  0.1113 -0.5620
   99MOL0     C13248   3.702   5.341   0.610  0.6481 -1.0141 -0.8889
   99MOL0     C13249   3.831   5.373   0.574  0.0239  0.0509 -0.5760
   99MOL0     C13250   3.895   5.323   0.442 -0.1433  0.5104 -0.8317
   99MOL0     C13251   4.038   5.383   0.421  0.1227 -0.2868  0.4333
   99MOL0     C13252   4.110   5.317   0.302  0.1642 -0.6066  0.4376
   99MOL0     C13253   4.259   5.358   0.282  0.0700 -0.1036  0.4731
   99MOL0     O13254   4.302   5.287   0.169  0.4324  0.6209 -0.1105
   99MOL0     C13255   4.433   5.303   0.123  0.0333 -0.5540  0.3162
   99MOL0     C13256   4.469   5.256   0.001  0.5122 -0.3373  0.0011
   99MOL0     C13257   4.596   5.276  -0.053 -0.8001  0.8122  0.2872
   99MOL0     C13258   4.623   5.215  -0.193 -0.5441  0.3329  0.1277
   99MOL0     C13259   4.704   5.325   0.028 -0.2030  0.3798  0.3478
   99MOL0     C13260   4.847   5.339  -0.017 -0.5846 -0.1143 -0.1294
   99MOL0     O13261   4.944   5.395   0.064 -0.2014 -0.7574  0.0179
   99MOL0     C13262   5.079   5.404   0.040  0.1653 -0.6412  0.3298
   99MOL0     C13263   5.164   5.290   0.023 -0.0629  0.1274  0.1288
   99MOL0     C13264   5.305   5.312  -0.002  0.5439 -0.1866 -0.4823
   99MOL0     C13265   5.364   5.440  -0.002 -0.2870 -0.8140  0.0559
   99MOL0     O13266   5.496   5.454  -0.024 -0.0760  0.3495  0.6771
   99MOL0     C13267   5.573   5.565   0.019  1.0541  0.7755  0.2564
   99MOL0     C13268   5.575   5.686  -0.087 -0.3922 -0.2615 -0.2872
   99MOL0     C13269   5.690   5.777  -0.042  0.7129 -0.6108  0.1646
   99MOL0     C13270   5.712   5.880  -0.149 -0.2857 -0.6039  1.0955
   99MOL0     C13271   5.791   6.000  -0.110  0.3591 -0.0353 -0.9058
   99MOL0     C13272   5.788   6.113  -0.220  0.4899 -0.4025 -0.1007
   99MOL0     C13273   5.912   6.209  -0.224 -0.6232 -0.3416 -0.0665
   99MOL0     C13274   5.863   6.345  -0.163 -0.5423  1.3354 -0.5838
   99MOL0    Cl13275   5.799   6.444  -0.296  0.0186 -0.0788 -0.1374
   99MOL0     C13276   5.280   5.551   0.025  0.3438  0.1040  0.0402
   99MOL0     C13277   5.144   5.531   0.041 -0.1845 -0.4067 -0.5487
   99MOL0     O13278   4.875   5.295  -0.138 -0.6798 -0.8023 -1.2666
   99MOL0     C13279   4.662   5.366   0.163  0.3557  0.4866  0.5371
   99MOL0     C13280   4.536   5.365   0.206  0.3810 -0.0322  0.2847
   99MOL0     N13281   3.903   5.409   0.686 -0.0224  0.0038 -0.9131
   99MOL0     N13282   3.824   5.428   0.780 -0.7924  0.6075  0.2161
   99MOL0     C13283   3.610   5.080   1.763 -0.0098 -0.2142  1.0367
   99MOL0     C13284   3.635   5.011   1.881  0.5108 -0.3787 -0.1281
   99MOL0     C13285   3.702   5.014   2.353 -0.2072 -0.2888  0.7371
   99MOL0     C13286   3.795   4.910   2.363  0.1040  0.7041 -0.3976
   99MOL0     C13287   3.832   4.866   2.487  0.5111 -0.0592  0.0876
   99MOL0     C13288   3.788   4.925   2.607  0.7928 -0.1549  0.4586
   99MOL0     O13289   3.813   4.894   2.742  0.2006  0.2711  0.0968
   99MOL0     C13290   3.937   4.839   2.760 -0.8540 -0.5220  0.4903
   99MOL0     C13291   3.938   4.688   2.758  0.1133 -0.2833  0.2383
   99MOL0     C13292   4.077   4.641   2.818  0.6818  0.0937  0.1348
   99MOL0     C13293   4.192   4.679   2.727 -0.7844  0.8020  0.3811
   99MOL0     C13294   4.172   4.633   2.589 -0.1974 -0.6167  1.4090
   99MOL0     C13295   4.149   4.584   2.474  0.9159 -0.0747 -0.5989
   99MOL0     C13296   3.679   5.024   2.586 -0.5115  0.4388 -0.6914
   99MOL0     C13297   3.639   5.069   2.460 -0.5352  0.4413  0.5513
   99MOL0     H13298   3.833   5.243   2.033  0.2156 -3.5965  2.9223
   99MOL0     H13299   3.770   5.375   1.834  1.6912 -0.4593 -1.0914
   99MOL0     H13300   3.635   5.309   1.433 -1.1295  0.2660 -0.6452
   99MOL0     H13301   3.696   5.160   1.482  0.4622  2.2352 -2.0453
   99MOL0     H13302   3.498   5.074   1.379 -0.5133 -1.4174  2.9844
   99MOL0     H13303   3.417   5.141   1.514  0.8889 -0.5846  1.6581
   99MOL0     H13304   3.318   5.231   1.322 -0.2887  1.5912 -1.1620
   99MOL0     H13305   3.388   5.362   1.423  0.5043 -1.1923  1.5859
   99MOL0     H13306   3.401   5.373   1.175 -1.6567  2.8347  3.2804
   99MOL0     H13307   3.542   5.423   1.262  0.8553 -0.1803 -1.0703
   99MOL0     H13308   3.654   5.193   1.198  0.8845  2.0262 -0.1619
   99MOL0     H13309   3.491   5.155   1.124 -2.0046  1.1332 -0.2459
   99MOL0     H13310   3.663   5.396   1.052 -5.9125  2.4080 -0.7667
   99MOL0     H13311   3.697   5.241   0.978  0.1677 -0.6855 -1.2160
   99MOL0     H13312   3.499   5.230   0.868 -1.0041  1.2877 -1.5204
   99MOL0     H13313   3.434   5.370   0.966  0.5421  1.2662  0.8895
   99MOL0     H13314   3.589   5.527   0.844  3.5536 -1.3090  0.4600
   99MOL0     H13315   3.498   5.426   0.730  0.9217 -1.3033 -0.5813
   99MOL0     H13316   3.625   5.307   0.542 -0.9835  3.4430 -1.5858
   99MOL0     H13317   3.891   5.214   0.449  2.7175  0.2804 -1.4137
   99MOL0     H13318   3.830   5.344   0.357  0.9572 -0.1379 -1.8576
   99MOL0     H13319   4.100   5.364   0.509 -0.6449 -0.3099  0.9764
   99MOL0     H13320   4.043   5.490   0.398  2.0568 -0.4679 -0.2480
   99MOL0     H13321   4.047   5.328   0.213  0.2297  2.3786  0.6694
   99MOL0     H13322   4.114   5.211   0.327  5.0236 -1.4744 -2.6671
   99MOL0     H13323   4.317   5.331   0.370 -0.5132  2.0243  1.5592
   99MOL0     H13324   4.274   5.465   0.265 -1.0344 -0.1453 -1.0198
   99MOL0     H13325   4.391   5.221  -0.066  1.8908  1.4638 -2.7531
   99MOL0     H13326   4.647   5.294  -0.264  4.4233 -0.4238  0.5822
   99MOL0     H13327   4.715   5.155  -0.202  0.1119  1.4222 -0.6075
   99MOL0     H13328   4.537   5.151  -0.212 -1.2544 -0.2764  4.4150
   99MOL0     H13329   5.126   5.189   0.029 -0.6814  0.0981 -2.6524
   99MOL0     H13330   5.369   5.228  -0.026  0.1971 -0.5685 -0.0787
   99MOL0     H13331   5.537   5.589   0.119 -1.5371 -0.3979 -0.3344
   99MOL0     H13332   5.676   5.528   0.022  0.1692 -1.7899  3.0198
   99MOL0     H13333   5.592   5.653  -0.190  2.9312  1.4374 -0.4021
   99MOL0     H13334   5.476   5.732  -0.074  0.0547  0.1302  2.2149
   99MOL0     H13335   5.780   5.720  -0.020  2.4483  1.5782 -0.8987
   99MOL0     H13336   5.659   5.841   0.042  2.2642  0.3013  0.0709
   99MOL0     H13337   5.757   5.834  -0.238 -1.5069 -3.1765  1.7170
   99MOL0     H13338   5.617   5.926  -0.176  1.0067  3.2021  2.3721
   99MOL0     H13339   5.896   5.971  -0.105  0.1446 -0.6208  0.6587
   99MOL0     H13340   5.756   6.033  -0.011  0.8168 -0.3292 -0.6428
   99MOL0     H13341   5.775   6.065  -0.317  0.1370 -1.7470  0.5862
   99MOL0     H13342   5.701   6.170  -0.183  0.4191 -1.1423  0.9254
   99MOL0     H13343   5.956   6.228  -0.322  2.7980 -1.7416  1.0240
   99MOL0     H13344   5.994   6.172  -0.161 -0.5853  0.1032  0.1490
   99MOL0     H13345   5.942   6.404  -0.117  1.3427 -0.2744 -1.5647
   99MOL0     H13346   5.798   6.336  -0.076  1.0628  2.5881  0.8064
   99MOL0     H13347   5.318   5.653   0.028  0.6165  0.0960 -1.7765
   99MOL0     H13348   5.081   5.617   0.058  0.7172  0.2391 -0.3782
   99MOL0     H13349   4.740   5.391   0.234  1.5570 -0.0116 -0.5667
   99MOL0     H13350   4.510   5.409   0.301  1.2477  1.1643 -0.0100
   99MOL0     H13351   3.561   5.026   1.683  2.1161 -0.6282 -0.0457
   99MOL0     H13352   3.582   4.917   1.888  0.9337 -0.7966 -2.0101
   99MOL0     H13353   3.835   4.863   2.274  0.6529 -1.9699  1.1276
   99MOL0     H13354   3.903   4.784   2.477 -0.4768 -0.8729 -0.4557
   99MOL0     H13355   4.006   4.878   2.684 -1.7500  1.3487  0.5923
   99MOL0     H13356   3.970   4.869   2.860 -0.7878  1.0877  0.0124
   99MOL0     H13357   3.926   4.646   2.658  2.2054 -1.3855  0.3789
   99MOL0     H13358   3.856   4.657   2.824  2.3150 -2.2254  2.2679
   99MOL0     H13359   4.077   4.538   2.855  1.7203  0.9087  2.6596
   99MOL0     H13360   4.081   4.699   2.912 -1.9458 -0.0827  0.4222
   99MOL0     H13361   4.272   4.626   2.779 -1.8454  0.5853  1.8574
   99MOL0     H13362   4.219   4.784   2.720  2.7115 -0.0766 -2.3153
   99MOL0     H13363   4.128   4.548   2.376 -0.3431  1.3565 -0.8988
   99MOL0     H13364   3.646   5.065   2.681 -1.4889 -0.8070 -0.4740
   99MOL0     H13365   3.570   5.152   2.449 -2.3681 -1.1676 -0.7405
  100MOL0     O13366   6.962   5.378   2.881  0.2022 -0.5140  0.1614
  100MOL0     C13367   6.851   5.313   2.886 -0.0630  0.2244 -0.0713
  100MOL0     O13368   6.849   5.183   2.850  0.4189 -0.2839  0.1636
  100MOL0     C13369   6.964   5.115   2.801  0.1196 -0.2408 -0.0090
  100MOL0     C13370   7.073   5.115   2.887  0.4016  0.6781  0.4212
  100MOL0     C13371   7.191   5.050   2.851 -0.6765  0.1817 -0.2157
  100MOL0     C13372   7.200   4.996   2.721  0.5010  0.6337  0.8313
  100MOL0     O13373   7.314   4.937   2.672 -0.1958  0.2270 -0.3042
  100MOL0     C13374   7.399   5.032   2.609  0.7411 -0.3072  0.5928
  100MOL0     C13375   7.485   4.966   2.504  0.1051  0.5600  0.3030
  100MOL0     C13376   7.417   4.872   2.396 -0.8570  0.1723 -0.4178
  100MOL0     C13377   7.524   4.814   2.297 -0.1801  0.3917 -0.0831
  100MOL0     C13378   7.454   4.705   2.216  0.8262  0.8609  1.1463
  100MOL0     C13379   7.400   4.745   2.083  0.8118  0.2008  0.2055
  100MOL0     C13380   7.498   4.764   1.968  0.4577  0.4434 -0.0484
  100MOL0     C13381   7.408   4.777   1.839 -0.3734 -0.8092 -0.2559
  100MOL0     N13382   7.488   4.821   1.721  0.0139  0.0494  0.0185
  100MOL0     C13383   7.599   4.765   1.667 -0.2142  1.0347  0.3173
  100MOL0     C13384   7.622   4.834   1.549  0.2839  0.5308  0.4134
  100MOL0     C13385   7.738   4.812   1.461 -0.8603  0.1062 -0.1329
  100MOL0     C13386   7.700   4.786   1.314 -0.3227  0.2575 -1.0982
  100MOL0     C13387   7.830   4.759   1.239 -0.0383 -0.1175 -0.1747
  100MOL0     C13388   7.806   4.742   1.089  0.0244 -0.3701 -0.0720
  100MOL0     O13389   7.903   4.667   1.023 -0.2716 -0.2012 -0.1304
  100MOL0     C13390   8.037   4.721   1.023 -0.0009 -0.0641 -0.1704
  100MOL0     C13391   8.071   4.852   1.043  0.4218  0.3083 -0.0821
  100MOL0     C13392   8.203   4.901   1.032  0.4851 -0.0456  0.0939
  100MOL0     C13393   8.229   5.037   1.049  0.2619  0.4697  0.0337
  100MOL0     C13394   8.307   4.813   0.981 -1.4895  0.3096 -0.2357
  100MOL0     C13395   8.449   4.862   0.957 -0.7111  0.8789  0.0456
  100MOL0     O13396   8.515   4.777   0.870 -0.0310  0.1382 -0.1337
  100MOL0     C13397   8.651   4.783   0.839 -0.0107 -0.0538  0.0166
  100MOL0     C13398   8.684   4.730   0.713  0.4249 -0.0954  0.1830
  100MOL0     C13399   8.806   4.723   0.669  0.5558  0.1088  0.4780
  100MOL0     C13400   8.905   4.797   0.740 -1.2552 -0.1774  0.7487
  100MOL0     O13401   9.038   4.801   0.684  0.6444 -0.0379  0.3311
  100MOL0     C13402   9.145   4.883   0.730  0.7155  0.1654 -0.4504
  100MOL0     C13403   9.238   4.906   0.613 -0.0659  0.9254  0.2679
  100MOL0     C13404   9.294   4.782   0.540 -0.4846  0.0801 -0.4075
  100MOL0     C13405   9.375   4.690   0.642  0.8494  0.2231  0.6364
  100MOL0     C13406   9.473   4.595   0.558 -0.4577  0.4629 -0.0082
  100MOL0     C13407   9.556   4.507   0.665  1.0588  0.2788 -0.4091
  100MOL0     C13408   9.636   4.386   0.620  0.2174  0.1155  1.0018
  100MOL0     C13409   9.574   4.302   0.507 -0.6777 -0.4610 -0.4666
  100MOL0    Cl13410   9.662   4.155   0.482  0.1403 -0.0685  0.5539
  100MOL0     C13411   8.886   4.843   0.865  0.1430 -0.3589  0.8954
  100MOL0     C13412   8.757   4.840   0.917  0.6094  0.5957  0.2406
  100MOL0     O13413   8.486   4.965   1.012  0.0827 -0.6234  0.4865
  100MOL0     C13414   8.263   4.690   0.936 -0.3447  0.0807 -0.3977
  100MOL0     C13415   8.126   4.646   0.957 -0.4911 -0.2629  0.9785
  100MOL0     N13416   7.521   4.932   1.546  0.1297 -0.7286  0.4152
  100MOL0     N13417   7.440   4.923   1.643  0.2486 -0.4846 -0.4906
  100MOL0     C13418   7.090   4.999   2.637 -0.5141  0.6511 -0.5648
  100MOL0     C13419   6.973   5.056   2.677 -0.1781 -0.4224  0.3593
  100MOL0     C13420   6.724   5.395   2.899 -0.2140  0.9175  0.4914
  100MOL0     C13421   6.727   5.537   2.907  0.0812  0.4176 -0.6097
  100MOL0     C13422   6.601   5.606   2.909 -0.2572  0.3906  0.4896
  100MOL0     C13423   6.482   5.537   2.928 -0.5448 -0.2364  0.1903
  100MOL0     O13424   6.374   5.618   2.951  0.1686  0.4106  0.3025
  100MOL0     C13425   6.239   5.557   2.955  0.0208  0.0118  0.1984
  100MOL0     C13426   6.149   5.684   2.993 -0.7926  0.1301 -0.4169
  100MOL0     C13427   6.005   5.647   2.983  0.0857  0.8624 -0.9263
  100MOL0     C13428   5.966   5.613   2.834 -0.5204 -0.0782 -0.6591
  100MOL0     C13429   5.950   5.741   2.760  0.1216 -0.7057 -0.0328
  100MOL0     C13430   5.945   5.843   2.697 -0.4102 -0.2331  0.6663
  100MOL0     C13431   6.483   5.393   2.935 -0.1356  0.2408 -0.7227
  100MOL0     C13432   6.608   5.323   2.910  1.0765 -0.0111  0.0259
  100MOL0     H13433   7.063   5.160   2.986  1.9556 -0.8453  1.3280
  100MOL0     H13434   7.280   5.046   2.913 -1.0383 -0.5123  0.2620
  100MOL0     H13435   7.341   5.104   2.550  0.2756 -1.8452 -0.9381
  100MOL0     H13436   7.456   5.098   2.675  0.8754 -1.4945  1.7084
  100MOL0     H13437   7.527   5.051   2.450  3.9739 -0.3530  1.6139
  100MOL0     H13438   7.562   4.910   2.557  0.8919  0.8374 -0.5324
  100MOL0     H13439   7.360   4.792   2.443 -1.0143  0.1464 -0.6468
  100MOL0     H13440   7.334   4.929   2.352 -2.9249 -0.8593  1.9404
  100MOL0     H13441   7.569   4.892   2.235  0.8416 -1.2716 -1.5735
  100MOL0     H13442   7.608   4.771   2.352 -0.9503 -0.1777  0.6819
  100MOL0     H13443   7.531   4.630   2.193 -0.4186 -0.6363  1.6790
  100MOL0     H13444   7.382   4.647   2.274  3.2004 -2.6432  0.8858
  100MOL0     H13445   7.323   4.671   2.061  2.6515 -2.0686  0.9857
  100MOL0     H13446   7.346   4.838   2.102 -0.5003 -0.0320 -2.0663
  100MOL0     H13447   7.566   4.850   1.976  2.0316 -0.1081 -4.5068
  100MOL0     H13448   7.561   4.674   1.962 -0.4041 -0.0923 -1.8236
  100MOL0     H13449   7.341   4.859   1.868  1.6436  0.1891  1.9318
  100MOL0     H13450   7.354   4.682   1.834 -0.8889 -0.5091 -0.5307
  100MOL0     H13451   7.651   4.674   1.698  1.5729  1.3981 -1.4045
  100MOL0     H13452   7.805   4.898   1.462 -1.2797  0.4581 -0.9736
  100MOL0     H13453   7.798   4.734   1.508 -0.0030  0.9014  0.1259
  100MOL0     H13454   7.650   4.876   1.278  1.2573  2.0013  0.8447
  100MOL0     H13455   7.629   4.704   1.300 -0.5859  0.8313 -3.6962
  100MOL0     H13456   7.867   4.662   1.272  1.0684  0.7733  1.3433
  100MOL0     H13457   7.905   4.835   1.261  0.3799 -0.3497 -0.7725
  100MOL0     H13458   7.810   4.842   1.044  1.1188  0.2905  1.4292
  100MOL0     H13459   7.707   4.697   1.074  0.8002 -2.5970  0.9902
  100MOL0     H13460   8.002   4.935   1.059 -0.4317 -0.2359 -0.8399
  100MOL0     H13461   8.272   5.080   0.958  0.8102  1.3722  0.6951
  100MOL0     H13462   8.138   5.097   1.055 -0.5041 -0.4066 -1.9321
  100MOL0     H13463   8.297   5.058   1.132 -1.1076  0.8189  1.1162
  100MOL0     H13464   8.600   4.696   0.653 -1.7804 -1.6389  3.7830
  100MOL0     H13465   8.829   4.693   0.568  1.9613  1.4957  0.3513
  100MOL0     H13466   9.112   4.981   0.766  1.8428  0.2159  0.5149
  100MOL0     H13467   9.195   4.834   0.815 -3.3300 -3.0180  0.3922
  100MOL0     H13468   9.166   4.945   0.541 -2.8076 -2.2848  1.0301
  100MOL0     H13469   9.324   4.970   0.634  1.1189  0.2212 -2.1622
  100MOL0     H13470   9.358   4.832   0.467  1.2354  1.7366  2.0419
  100MOL0     H13471   9.223   4.714   0.492  0.7556 -0.3139 -1.7459
  100MOL0     H13472   9.429   4.754   0.712  1.4015 -0.4119  0.7988
  100MOL0     H13473   9.298   4.635   0.697 -0.0964  1.7007  0.8654
  100MOL0     H13474   9.541   4.665   0.510 -0.7211  0.2503 -0.6973
  100MOL0     H13475   9.425   4.531   0.484 -1.0141 -1.1473  1.6561
  100MOL0     H13476   9.632   4.570   0.712  1.6113 -1.1534  0.6918
  100MOL0     H13477   9.493   4.478   0.749  0.7880  5.3782  1.4938
  100MOL0     H13478   9.645   4.321   0.708 -0.0762  0.7244  1.4906
  100MOL0     H13479   9.735   4.411   0.581 -1.4167 -0.0256 -3.8162
  100MOL0     H13480   9.567   4.368   0.420 -0.8181 -0.4934 -0.4814
  100MOL0     H13481   9.469   4.284   0.531 -0.7106  1.4442  1.0240
  100MOL0     H13482   8.975   4.894   0.901 -0.3621  2.3999 -1.4296
  100MOL0     H13483   8.741   4.902   1.004  1.6699  0.7927  0.3167
  100MOL0     H13484   8.326   4.630   0.871  1.4890 -0.2895  1.5974
  100MOL0     H13485   8.091   4.546   0.933 -1.1964  0.0969  0.4599
  100MOL0     H13486   7.098   4.958   2.537 -0.8784 -0.0682 -0.3026
  100MOL0     H13487   6.885   5.059   2.613 -0.0426  0.4104  0.2076
  100MOL0     H13488   6.821   5.590   2.899  1.1884 -0.6724  3.1345
  100MOL0     H13489   6.590   5.713   2.901 -4.0777  0.1618  0.8541
  100MOL0     H13490   6.206   5.519   2.858 -0.6533  2.0455 -0.4148
  100MOL0     H13491   6.214   5.476   3.025 -0.5255 -1.2527 -1.3904
  100MOL0     H13492   6.184   5.760   2.922 -0.1377  0.0264 -0.2181
  100MOL0     H13493   6.183   5.699   3.096 -0.1747  0.4653 -0.6654
  100MOL0     H13494   5.955   5.737   3.019  2.2027  1.4141  0.8221
  100MOL0     H13495   5.986   5.568   3.057 -2.0820 -1.2518 -3.5025
  100MOL0     H13496   5.867   5.566   2.840 -1.1287  1.2147 -0.2433
  100MOL0     H13497   6.033   5.541   2.787  0.9696 -0.0410  1.2450
  100MOL0     H13498   5.952   5.941   2.655  2.3432  0.4614  2.4710
  100MOL0     H13499   6.390   5.344   2.962 -0.4906  1.2344 -0.0744
  100MOL0     H13500   6.614   5.215   2.914 -1.1438 -0.1466  3.0577
  101MOL0     O13501   5.690  10.284   4.275 -0.2215  0.0692  0.2747
  101MOL0     C13502   5.602  10.318   4.349 -0.2076 -0.1161 -0.2698
  101MOL0     O13503   5.524  10.431   4.333 -0.1619 -0.2033 -1.5112
  101MOL0     C13504   5.495  10.507   4.222 -0.2645  0.4637 -0.3104
  101MOL0     C13505   5.407  10.615   4.235  0.0600  0.5178 -0.1771
  101MOL0     C13506   5.344  10.681   4.123  0.2246  0.3864  0.7733
  101MOL0     C13507   5.392  10.654   3.997 -0.7688 -0.7054  0.4820
  101MOL0     O13508   5.339  10.731   3.897 -0.9088  0.3142 -0.5581
  101MOL0     C13509   5.342  10.680   3.759 -0.5687  0.4637  0.6220
  101MOL0     C13510   5.272  10.767   3.660 -0.2687 -0.2582  0.0380
  101MOL0     C13511   5.137  10.694   3.606  0.0750  0.5835  0.1505
  101MOL0     C13512   5.071  10.780   3.490  0.2470 -0.0971 -0.4057
  101MOL0     C13513   5.139  10.767   3.355 -0.4238  0.3665  0.0380
  101MOL0     C13514   5.083  10.866   3.260 -1.1352  0.6383  0.0619
  101MOL0     C13515   5.105  10.818   3.114  0.4111 -0.0500 -0.0571
  101MOL0     C13516   5.070  10.927   3.008  0.3811  0.4833 -0.4629
  101MOL0     N13517   4.938  10.987   3.027 -0.5923 -0.4564 -0.6446
  101MOL0     C13518   4.819  10.948   2.978 -0.4432 -0.2842 -0.2758
  101MOL0     C13519   4.734  11.041   3.021 -0.0788 -0.4207 -0.3242
  101MOL0     C13520   4.585  11.026   2.974 -0.4918  0.5488 -0.1663
  101MOL0     C13521   4.495  10.981   3.087 -0.2264  0.2454  0.0688
  101MOL0     C13522   4.445  11.103   3.166 -0.4507  0.1116  0.0288
  101MOL0     C13523   4.328  11.175   3.095  0.8882  0.1676 -0.6190
  101MOL0     O13524   4.319  11.320   3.126  0.0876 -0.1100  0.4461
  101MOL0     C13525   4.231  11.400   3.062  0.4475 -0.3795 -0.8493
  101MOL0     C13526   4.109  11.356   3.011 -0.8190 -0.2024  0.2046
  101MOL0     C13527   4.012  11.444   2.965 -0.3456 -0.7295 -0.4817
  101MOL0     C13528   3.902  11.390   2.877 -0.1792 -0.5259  0.5014
  101MOL0     C13529   4.017  11.579   2.997 -0.3804 -0.2700  1.0966
  101MOL0     C13530   3.906  11.689   2.969 -0.5656 -0.4204 -0.0750
  101MOL0     O13531   3.928  11.806   3.029  0.4039 -0.9716 -0.3409
  101MOL0     C13532   3.845  11.918   3.027  0.1714  0.0458 -0.5487
  101MOL0     C13533   3.710  11.905   3.034  0.5082  0.5136 -0.1227
  101MOL0     C13534   3.636  12.023   3.036  0.7066 -0.1148 -0.4367
  101MOL0     C13535   3.697  12.153   3.066  1.0465 -0.4664 -0.7356
  101MOL0     O13536   3.611  12.268   3.059 -0.4415 -0.6181 -0.6531
  101MOL0     C13537   3.675  12.394   3.023 -0.9733  0.3264 -0.3981
  101MOL0     C13538   3.564  12.502   3.022 -0.8617  0.2921  0.6656
  101MOL0     C13539   3.477  12.502   2.887 -0.9707 -0.3657  0.3477
  101MOL0     C13540   3.370  12.619   2.869 -0.6729  0.3018 -0.1931
  101MOL0     C13541   3.249  12.567   2.784 -0.0421  1.1593 -0.0980
  101MOL0     C13542   3.299  12.532   2.640  0.4172 -0.6453  0.5113
  101MOL0     C13543   3.301  12.382   2.614  0.9996  0.7237  0.3608
  101MOL0     C13544   3.364  12.348   2.476 -0.0832  0.5252 -0.1501
  101MOL0    Cl13545   3.320  12.186   2.425 -0.0193  0.2879 -0.3325
  101MOL0     C13546   3.834  12.159   3.071  0.3544 -0.5319  0.0284
  101MOL0     C13547   3.909  12.033   3.059  0.7860 -1.1165 -0.5991
  101MOL0     O13548   3.808  11.662   2.901  0.2615 -0.1709 -0.4549
  101MOL0     C13549   4.129  11.626   3.074 -0.1258 -0.5315  0.4936
  101MOL0     C13550   4.235  11.538   3.094  0.8120 -0.0025  0.1284
  101MOL0     N13551   4.801  11.139   3.090 -0.1792  0.1724 -1.1374
  101MOL0     N13552   4.921  11.099   3.093 -0.5841  0.4266 -0.5534
  101MOL0     C13553   5.477  10.542   3.980 -0.1289 -0.1816  0.4811
  101MOL0     C13554   5.521  10.465   4.097  0.8552 -0.1203  0.0632
  101MOL0     C13555   5.605  10.255   4.487 -0.1843  0.1404  0.3881
  101MOL0     C13556   5.723  10.212   4.555  0.5984 -0.6885 -0.0561
  101MOL0     C13557   5.724  10.153   4.677  0.4798  0.1138  0.0688
  101MOL0     C13558   5.606  10.139   4.749  0.2850  0.0449  0.1790
  101MOL0     O13559   5.624  10.092   4.880  0.4062  0.5445  0.6316
  101MOL0     C13560   5.500  10.090   4.957  0.3746 -0.1910 -0.4317
  101MOL0     C13561   5.552  10.054   5.094  0.3755 -0.0138  0.2392
  101MOL0     C13562   5.445  10.069   5.200  0.0299  0.3382 -0.5045
  101MOL0     C13563   5.501  10.057   5.344 -0.1177 -0.2115  0.3550
  101MOL0     C13564   5.395  10.020   5.441 -0.3838 -0.8748 -0.7431
  101MOL0     C13565   5.298   9.974   5.496 -0.3827  0.5458  0.1308
  101MOL0     C13566   5.484  10.180   4.686  0.9389 -0.7824  0.2113
  101MOL0     C13567   5.479  10.241   4.551  1.2496  0.1010 -0.6014
  101MOL0     H13568   5.378  10.626   4.339 -1.1425  1.0455 -0.5486
  101MOL0     H13569   5.262  10.749   4.140  0.1917  1.4018 -2.6743
  101MOL0     H13570   5.447  10.683   3.731 -0.6291 -2.6469 -0.4123
  101MOL0     H13571   5.301  10.578   3.758 -1.1989  0.7130  0.0798
  101MOL0     H13572   5.249  10.858   3.716  1.3236  1.3346 -1.7739
  101MOL0     H13573   5.334  10.802   3.578 -0.1903 -0.4453  0.0169
  101MOL0     H13574   5.153  10.595   3.561 -1.6668  0.3576 -0.0716
  101MOL0     H13575   5.067  10.686   3.689  1.2556 -1.3031  1.0286
  101MOL0     H13576   4.967  10.747   3.486  0.2497 -0.3514  0.9736
  101MOL0     H13577   5.072  10.881   3.532 -3.3147 -0.3911  0.7483
  101MOL0     H13578   5.246  10.782   3.365 -0.6851  0.8536  2.9788
  101MOL0     H13579   5.121  10.667   3.317 -0.4084  1.3783 -2.8553
  101MOL0     H13580   4.977  10.880   3.286 -1.9113 -2.1801 -1.1914
  101MOL0     H13581   5.138  10.959   3.275  0.2966 -0.0268 -0.9144
  101MOL0     H13582   5.205  10.777   3.101 -0.0006 -0.5843 -1.8132
  101MOL0     H13583   5.023  10.745   3.110 -1.8830  2.4070 -1.2771
  101MOL0     H13584   5.066  10.876   2.911  0.0356  0.1218 -0.2588
  101MOL0     H13585   5.137  11.013   2.999 -0.3390  0.8578 -3.5264
  101MOL0     H13586   4.798  10.863   2.914  0.4650 -1.6833  1.1916
  101MOL0     H13587   4.540  11.119   2.939  0.5641  1.2362  0.2341
  101MOL0     H13588   4.590  10.958   2.889  3.9868  1.3312 -0.8133
  101MOL0     H13589   4.551  10.927   3.163 -0.6888 -2.0237 -1.1208
  101MOL0     H13590   4.407  10.921   3.061 -2.6979  1.8803  3.7467
  101MOL0     H13591   4.523  11.175   3.194  2.2150 -3.0267  1.3601
  101MOL0     H13592   4.409  11.067   3.263  1.1056  0.0766  0.6247
  101MOL0     H13593   4.237  11.129   3.135  0.8903  2.6765  2.7962
  101MOL0     H13594   4.333  11.162   2.987  1.8011 -2.5163 -0.3167
  101MOL0     H13595   4.086  11.250   3.008 -1.8314 -0.1940  3.5113
  101MOL0     H13596   3.804  11.421   2.914 -0.0646  0.5736 -0.0720
  101MOL0     H13597   3.911  11.421   2.772 -0.3119  0.0504  0.6575
  101MOL0     H13598   3.919  11.282   2.887  4.5350 -0.2122 -1.3912
  101MOL0     H13599   3.662  11.808   3.021  1.6174 -0.1627  0.7163
  101MOL0     H13600   3.532  11.995   3.021  0.1164  2.1337 -0.9012
  101MOL0     H13601   3.750  12.421   3.098 -1.5221 -2.0089  1.0610
  101MOL0     H13602   3.719  12.381   2.923 -2.1479  2.1209 -1.2110
  101MOL0     H13603   3.497  12.476   3.105 -0.0519  2.4489  2.0674
  101MOL0     H13604   3.618  12.596   3.031  2.8803 -1.6589  0.5038
  101MOL0     H13605   3.430  12.403   2.885 -0.4980 -0.5933  0.3509
  101MOL0     H13606   3.545  12.515   2.802  0.5598  0.8599  1.6777
  101MOL0     H13607   3.337  12.644   2.970  1.7760  2.3057  0.2067
  101MOL0     H13608   3.407  12.710   2.820  0.1037  0.0955 -0.0051
  101MOL0     H13609   3.177  12.649   2.790 -0.3334  1.0733 -1.8847
  101MOL0     H13610   3.203  12.479   2.830  0.1472  1.2622  0.2910
  101MOL0     H13611   3.231  12.575   2.565  0.4499  2.5977  2.1379
  101MOL0     H13612   3.392  12.585   2.619  0.0665 -0.3782 -0.4188
  101MOL0     H13613   3.203  12.334   2.611  2.0798 -1.5632 -1.3037
  101MOL0     H13614   3.353  12.323   2.690 -1.8001 -2.0239  0.3585
  101MOL0     H13615   3.472  12.363   2.480  0.4009 -0.5036 -4.4249
  101MOL0     H13616   3.325  12.418   2.402  0.5298 -0.1912 -1.1612
  101MOL0     H13617   3.890  12.248   3.098 -1.6456  0.0799  2.5469
  101MOL0     H13618   4.016  12.043   3.066  0.5621  4.5583 -0.7868
  101MOL0     H13619   4.145  11.726   3.113 -0.0594  0.2830 -1.5079
  101MOL0     H13620   4.319  11.592   3.139  2.6109  1.0567 -4.0006
  101MOL0     H13621   5.481  10.497   3.881 -0.8231 -0.8504  0.7453
  101MOL0     H13622   5.574  10.372   4.078 -1.7692 -1.6967 -0.0172
  101MOL0     H13623   5.822  10.227   4.514  0.8735 -0.3253  0.7314
  101MOL0     H13624   5.817  10.111   4.714  1.9104  0.8632 -2.4266
  101MOL0     H13625   5.456  10.190   4.966 -0.2669 -0.5747  1.0463
  101MOL0     H13626   5.423  10.024   4.916  0.8740  0.6841 -2.9466
  101MOL0     H13627   5.631  10.123   5.127  0.0295  0.0923  0.8632
  101MOL0     H13628   5.591   9.952   5.089  0.9410  0.2836 -2.8883
  101MOL0     H13629   5.365   9.996   5.184 -0.0624  0.6576 -1.5947
  101MOL0     H13630   5.409  10.172   5.200 -0.0137  0.3258 -1.1626
  101MOL0     H13631   5.550  10.147   5.383  1.9292 -0.5698 -1.2219
  101MOL0     H13632   5.572   9.973   5.348 -1.7287 -1.5981  3.7618
  101MOL0     H13633   5.212   9.925   5.537  0.9830 -1.3290  0.9005
  101MOL0     H13634   5.389  10.165   4.736  0.5211 -0.0032 -0.3200
  101MOL0     H13635   5.384  10.262   4.502  1.4319 -2.1292 -2.0608
  102MOL0     O13636   6.401   4.394   2.036  0.2171  0.6058 -0.6482
  102MOL0     C13637   6.504   4.446   2.062 -1.1114  0.3504  0.3415
  102MOL0     O13638   6.620   4.376   2.098  0.7881 -0.1323 -0.0886
  102MOL0     C13639   6.611   4.264   2.171 -0.2839  0.8084 -0.6712
  102MOL0     C13640   6.502   4.233   2.256 -0.7094  0.3102  0.6310
  102MOL0     C13641   6.509   4.120   2.346  0.2203 -0.1390  0.5131
  102MOL0     C13642   6.615   4.032   2.343  0.1950  0.1378  0.3285
  102MOL0     O13643   6.599   3.916   2.419  0.1772 -0.1271 -0.0362
  102MOL0     C13644   6.649   3.797   2.358  0.6723  0.1941 -0.5097
  102MOL0     C13645   6.584   3.679   2.430  0.1349 -0.0553  0.4592
  102MOL0     C13646   6.658   3.546   2.385  0.7627 -0.1353  0.7748
  102MOL0     C13647   6.789   3.506   2.458  1.0875  0.1564  0.5358
  102MOL0     C13648   6.857   3.379   2.401  0.4886  0.4958  0.9439
  102MOL0     C13649   6.763   3.253   2.405  0.6442 -0.6048 -0.2521
  102MOL0     C13650   6.836   3.124   2.367  0.4434 -0.3237  0.9333
  102MOL0     C13651   6.854   3.126   2.218  0.9895  0.8191 -0.1750
  102MOL0     N13652   6.977   3.181   2.161 -0.2552 -0.1711  1.2294
  102MOL0     C13653   7.105   3.164   2.213  0.8425 -0.0208  0.9109
  102MOL0     C13654   7.184   3.247   2.131 -0.0222  0.0827  0.1463
  102MOL0     C13655   7.331   3.260   2.127  0.3340 -0.4016  0.3433
  102MOL0     C13656   7.367   3.409   2.090  0.3684 -0.2754 -0.2904
  102MOL0     C13657   7.305   3.513   2.182 -0.7060 -0.2115 -0.5682
  102MOL0     C13658   7.385   3.538   2.311 -0.2479 -0.1512  0.3028
  102MOL0     O13659   7.362   3.436   2.400  0.3817  1.3659 -0.3858
  102MOL0     C13660   7.452   3.432   2.502  0.5720  0.1676  0.0366
  102MOL0     C13661   7.527   3.315   2.516  0.7490 -0.1566 -0.6035
  102MOL0     C13662   7.637   3.299   2.611  0.2905 -0.5123  0.6167
  102MOL0     C13663   7.736   3.187   2.595  0.7638 -0.2653  0.1514
  102MOL0     C13664   7.657   3.406   2.704  0.7672 -0.3192  0.2899
  102MOL0     C13665   7.760   3.399   2.815  0.1399  0.3383 -0.0500
  102MOL0     O13666   7.768   3.518   2.893  0.3991  0.1353 -0.0170
  102MOL0     C13667   7.863   3.526   2.991  0.0313  0.8391  0.7749
  102MOL0     C13668   7.994   3.550   2.953  0.2446  0.5844  1.3937
  102MOL0     C13669   8.093   3.564   3.053 -0.3982 -0.5459  0.9421
  102MOL0     C13670   8.064   3.549   3.188  0.4167  0.3901  0.0346
  102MOL0     O13671   8.167   3.578   3.275 -0.4823 -0.6234  0.2104
  102MOL0     C13672   8.149   3.578   3.420 -0.5464 -0.3420 -0.4328
  102MOL0     C13673   8.290   3.521   3.476  0.5163 -0.2206  1.2408
  102MOL0     C13674   8.299   3.532   3.637  0.4698 -0.3617 -0.7667
  102MOL0     C13675   8.425   3.467   3.681 -0.0437 -0.4932 -0.1983
  102MOL0     C13676   8.441   3.493   3.827 -0.2529 -0.6343 -0.3232
  102MOL0     C13677   8.583   3.457   3.883  0.4275  0.0865  0.6703
  102MOL0     C13678   8.611   3.305   3.873 -0.2595  0.2115  0.4509
  102MOL0     C13679   8.729   3.286   3.973  0.3881  0.2667  0.2413
  102MOL0    Cl13680   8.775   3.117   3.944 -0.0571 -0.2390  0.2464
  102MOL0     C13681   7.927   3.520   3.222 -0.2219 -0.3671 -0.9588
  102MOL0     C13682   7.828   3.512   3.125 -0.1072 -0.9615  0.1465
  102MOL0     O13683   7.816   3.292   2.842  0.0570  0.3680 -0.1213
  102MOL0     C13684   7.582   3.527   2.684  0.5398 -0.2356 -0.9990
  102MOL0     C13685   7.482   3.539   2.591  0.4583 -0.2733  0.6048
  102MOL0     N13686   7.102   3.292   2.026 -1.2905  0.2035 -0.3651
  102MOL0     N13687   6.979   3.260   2.046  0.0942 -0.2868 -0.2534
  102MOL0     C13688   6.724   4.060   2.264 -0.1925  0.0010 -1.0600
  102MOL0     C13689   6.726   4.177   2.184 -0.3286 -0.0415 -0.0868
  102MOL0     C13690   6.518   4.591   2.026 -0.4465  0.2998 -0.4213
  102MOL0     C13691   6.639   4.656   2.054 -0.6336 -0.1820 -0.2622
  102MOL0     C13692   6.666   4.786   2.007 -0.0400  0.3405  0.1766
  102MOL0     C13693   6.559   4.854   1.939  0.3048 -0.5730  0.7617
  102MOL0     O13694   6.582   4.992   1.909  0.2439  0.4092  0.7758
  102MOL0     C13695   6.567   5.032   1.764  0.1902  0.2626 -0.1847
  102MOL0     C13696   6.711   5.043   1.705  0.4023 -0.0198  1.0735
  102MOL0     C13697   6.718   5.085   1.557 -0.0822 -0.2463 -0.4112
  102MOL0     C13698   6.832   5.185   1.539 -0.6230 -0.2587  0.1098
  102MOL0     C13699   6.840   5.265   1.416 -0.0113  1.0392  0.4099
  102MOL0     C13700   6.856   5.334   1.319 -1.1495 -0.1630 -0.7363
  102MOL0     C13701   6.443   4.788   1.903  0.6672  0.5529 -0.5779
  102MOL0     C13702   6.419   4.658   1.950 -0.7990 -0.0585 -0.4633
  102MOL0     H13703   6.414   4.295   2.271 -1.0533 -0.4712  1.9923
  102MOL0     H13704   6.418   4.095   2.400 -0.4401  1.7106  0.3390
  102MOL0     H13705   6.622   3.803   2.252  1.8513  0.0587 -0.8268
  102MOL0     H13706   6.757   3.792   2.367  0.4651 -2.7924  1.3118
  102MOL0     H13707   6.596   3.698   2.537  1.3804 -2.8524  0.9048
  102MOL0     H13708   6.481   3.673   2.394 -0.0780 -1.9828  1.2520
  102MOL0     H13709   6.592   3.462   2.409  2.4484 -1.7282  0.0223
  102MOL0     H13710   6.676   3.552   2.277 -0.2257 -0.2125  0.5924
  102MOL0     H13711   6.860   3.589   2.457 -1.9171  3.0357  3.0885
  102MOL0     H13712   6.763   3.492   2.564  0.9101 -0.3264  0.4331
  102MOL0     H13713   6.877   3.409   2.297  0.0093 -1.0808  0.3703
  102MOL0     H13714   6.948   3.347   2.450 -0.9367 -3.7971  1.1794
  102MOL0     H13715   6.734   3.233   2.508 -0.4413 -0.5194 -0.5333
  102MOL0     H13716   6.664   3.263   2.361 -0.2713  2.2841  2.1179
  102MOL0     H13717   6.935   3.107   2.411  0.3720  0.9161  1.6184
  102MOL0     H13718   6.775   3.038   2.395 -2.5868  1.0671 -0.9044
  102MOL0     H13719   6.765   3.167   2.169  2.3656  4.2594 -0.1024
  102MOL0     H13720   6.861   3.021   2.187 -2.8995  1.0298 -2.3763
  102MOL0     H13721   7.141   3.100   2.292  1.3859 -1.3729 -0.3890
  102MOL0     H13722   7.374   3.232   2.224 -0.2713 -0.0434  0.7188
  102MOL0     H13723   7.371   3.194   2.051  3.1020  0.0183  1.3239
  102MOL0     H13724   7.324   3.439   1.994 -1.3538 -1.1930  0.1563
  102MOL0     H13725   7.476   3.413   2.078  0.3680 -1.4410 -0.8079
  102MOL0     H13726   7.198   3.502   2.202 -1.5345  4.8882 -0.7372
  102MOL0     H13727   7.307   3.610   2.130  0.2413  0.7354  1.1534
  102MOL0     H13728   7.343   3.628   2.355  0.2028  0.1811  0.0679
  102MOL0     H13729   7.489   3.560   2.284 -1.8327  3.6258 -4.1177
  102MOL0     H13730   7.502   3.235   2.447  3.2491 -2.1307  0.6205
  102MOL0     H13731   7.830   3.227   2.554 -0.5754  2.7747 -0.2322
  102MOL0     H13732   7.750   3.117   2.678 -1.1658 -1.4494 -0.4544
  102MOL0     H13733   7.693   3.117   2.524  0.1889  2.0986 -1.9622
  102MOL0     H13734   8.013   3.552   2.846  2.4874 -1.2524  1.6774
  102MOL0     H13735   8.191   3.603   3.030 -0.6508  0.8126  2.0011
  102MOL0     H13736   8.133   3.683   3.446 -1.1044 -0.6911  0.6951
  102MOL0     H13737   8.071   3.513   3.462  0.1274  0.2081  1.8119
  102MOL0     H13738   8.316   3.422   3.438  0.7424  0.4318 -0.4117
  102MOL0     H13739   8.365   3.586   3.429  1.0594 -1.6682  0.0214
  102MOL0     H13740   8.214   3.486   3.689 -0.1992  2.2075  0.5830
  102MOL0     H13741   8.304   3.640   3.653 -1.5877 -0.2437 -0.6664
  102MOL0     H13742   8.429   3.361   3.654  0.4924  0.5045 -4.9796
  102MOL0     H13743   8.512   3.516   3.634  0.5404 -0.0005  1.3340
  102MOL0     H13744   8.366   3.438   3.886  1.4573  0.0224  2.6533
  102MOL0     H13745   8.435   3.599   3.853  2.9772 -0.7608  1.4873
  102MOL0     H13746   8.667   3.510   3.839  1.1113  1.0695  3.0030
  102MOL0     H13747   8.585   3.478   3.990  0.1966  1.7071  0.3752
  102MOL0     H13748   8.648   3.276   3.775 -0.1781  0.5268  0.3858
  102MOL0     H13749   8.518   3.253   3.897  0.8851 -3.2887 -2.0474
  102MOL0     H13750   8.710   3.293   4.080  1.3190  2.8872  0.3068
  102MOL0     H13751   8.805   3.358   3.942  0.8159 -0.2801  0.0013
  102MOL0     H13752   7.892   3.510   3.325 -0.1186 -0.2126 -0.9077
  102MOL0     H13753   7.723   3.495   3.146 -1.3020  2.2126 -2.3087
  102MOL0     H13754   7.600   3.605   2.758 -1.7846 -0.9407  0.4354
  102MOL0     H13755   7.423   3.629   2.580  0.6112 -0.1989  0.3990
  102MOL0     H13756   6.808   3.990   2.264  2.5712  3.0442 -0.4587
  102MOL0     H13757   6.816   4.201   2.129 -1.1801 -0.5923 -1.7708
  102MOL0     H13758   6.711   4.590   2.102 -1.3474 -0.2743  0.7069
  102MOL0     H13759   6.763   4.829   2.030 -0.1086  1.4652 -1.4869
  102MOL0     H13760   6.506   4.965   1.703  3.6736 -0.4988 -3.2222
  102MOL0     H13761   6.522   5.131   1.771 -1.3416 -0.4813  0.8622
  102MOL0     H13762   6.764   4.947   1.701 -1.4719 -1.0836  0.1731
  102MOL0     H13763   6.772   5.110   1.766 -0.1532  1.5958 -0.0525
  102MOL0     H13764   6.624   5.133   1.527  0.0302 -0.8521 -1.7970
  102MOL0     H13765   6.720   4.995   1.495 -1.2037  0.5893 -1.7244
  102MOL0     H13766   6.923   5.125   1.547  0.6598  1.6547  0.5484
  102MOL0     H13767   6.848   5.256   1.620  1.9112 -1.2849  0.6107
  102MOL0     H13768   6.857   5.396   1.232 -0.6105  0.4389 -0.3197
  102MOL0     H13769   6.360   4.831   1.848 -1.5826 -0.1275  2.0834
  102MOL0     H13770   6.330   4.599   1.932  0.5018 -1.9815 -0.9053
  103MOL0     O13771   2.628   7.224   4.888  0.3498  0.1788  0.1675
  103MOL0     C13772   2.698   7.252   4.977  0.0326  0.2355  0.1898
  103MOL0     O13773   2.765   7.370   4.997 -0.2316  0.2499  0.5684
  103MOL0     C13774   2.740   7.478   4.918 -0.3232 -0.5618  0.0636
  103MOL0     C13775   2.614   7.531   4.895 -0.3339  0.6456  0.3705
  103MOL0     C13776   2.600   7.649   4.805  0.1219 -0.6934 -1.0291
  103MOL0     C13777   2.710   7.706   4.758 -0.2855 -0.6815 -0.6597
  103MOL0     O13778   2.709   7.813   4.667  0.1799 -0.8441 -0.2587
  103MOL0     C13779   2.646   7.771   4.544 -0.0563 -0.3969 -0.4692
  103MOL0     C13780   2.682   7.889   4.440 -0.2767 -0.2399 -0.3222
  103MOL0     C13781   2.591   8.014   4.440 -0.6524 -0.0003  0.8345
  103MOL0     C13782   2.619   8.110   4.566 -0.3818  0.3657 -0.0598
  103MOL0     C13783   2.550   8.251   4.576 -0.1911 -0.1213  0.2040
  103MOL0     C13784   2.399   8.236   4.591 -0.1087  0.1274 -0.0782
  103MOL0     C13785   2.343   8.382   4.598 -1.0372  0.9877  0.3210
  103MOL0     C13786   2.184   8.393   4.633 -0.6897 -0.5014  0.7975
  103MOL0     N13787   2.157   8.328   4.765 -0.4421 -0.1686 -0.1588
  103MOL0     C13788   2.232   8.327   4.877 -0.3824  1.0532  1.6200
  103MOL0     C13789   2.173   8.249   4.966  1.7718 -0.2634 -0.5579
  103MOL0     C13790   2.219   8.250   5.108  0.7318 -0.5225  0.4196
  103MOL0     C13791   2.097   8.288   5.203 -0.7467 -0.0082  0.2850
  103MOL0     C13792   2.141   8.377   5.328 -0.5392 -0.0991 -0.4530
  103MOL0     C13793   2.022   8.403   5.417  0.2689  1.0891 -0.2654
  103MOL0     O13794   1.964   8.522   5.362 -1.0891 -0.0918  0.1983
  103MOL0     C13795   1.834   8.546   5.389  1.0872  0.3982  0.1345
  103MOL0     C13796   1.807   8.666   5.453  0.2834 -1.1045 -1.0908
  103MOL0     C13797   1.674   8.708   5.477  0.7126  0.6112 -0.1842
  103MOL0     C13798   1.663   8.836   5.567  0.3926 -0.9773  0.6533
  103MOL0     C13799   1.562   8.640   5.417 -0.4746 -1.1246 -0.8511
  103MOL0     C13800   1.426   8.695   5.435  0.5673 -0.3664  0.1947
  103MOL0     O13801   1.336   8.651   5.337 -0.3602 -0.2503  0.6068
  103MOL0     C13802   1.209   8.700   5.329 -1.0373  0.5146 -0.5912
  103MOL0     C13803   1.143   8.794   5.411 -0.8946  0.8762 -0.1666
  103MOL0     C13804   1.012   8.839   5.389  0.0042 -0.0804 -0.0938
  103MOL0     C13805   0.942   8.795   5.271  0.3210  0.1639 -0.1262
  103MOL0     O13806   0.827   8.851   5.226  0.3989  0.5636  0.2759
  103MOL0     C13807   0.759   8.947   5.305 -0.4383 -0.3036  0.2687
  103MOL0     C13808   0.701   8.887   5.436 -0.0906 -0.2173  0.3956
  103MOL0     C13809   0.628   8.749   5.415  0.8597  0.0889 -0.4220
  103MOL0     C13810   0.499   8.729   5.494 -0.7290  0.2593  0.5467
  103MOL0     C13811   0.383   8.783   5.417 -0.9222 -0.0806 -0.1468
  103MOL0     C13812   0.248   8.762   5.489 -0.3237  0.3026 -0.2602
  103MOL0     C13813   0.133   8.824   5.410 -0.7879  0.0966 -0.2412
  103MOL0     C13814  -0.007   8.791   5.471 -0.3166  0.1795  0.1712
  103MOL0    Cl13815  -0.019   8.817   5.640  0.1452 -0.6768 -0.2183
  103MOL0     C13816   1.003   8.694   5.191  0.1648  0.2899  0.3005
  103MOL0     C13817   1.134   8.655   5.228 -0.5260  0.0584  0.8235
  103MOL0     O13818   1.400   8.775   5.525  0.0045  0.1486  0.2624
  103MOL0     C13819   1.597   8.526   5.343 -0.3376  0.6353  0.2673
  103MOL0     C13820   1.726   8.476   5.332  0.4722 -0.4768 -0.1017
  103MOL0     N13821   2.047   8.196   4.917 -0.5600 -0.4990  1.0875
  103MOL0     N13822   2.046   8.254   4.801 -0.4846  0.5508 -0.6807
  103MOL0     C13823   2.834   7.672   4.803  0.6066  0.8237 -0.3475
  103MOL0     C13824   2.850   7.558   4.878 -0.0673  0.0488  0.2413
  103MOL0     C13825   2.694   7.156   5.074 -0.4880 -0.9622 -0.5246
  103MOL0     C13826   2.617   7.039   5.067  0.2458 -0.2439 -0.0277
  103MOL0     C13827   2.616   6.949   5.183  0.8732  0.3842  0.2123
  103MOL0     C13828   2.681   6.980   5.301 -0.6117  0.1328 -0.3462
  103MOL0     O13829   2.675   6.906   5.418  0.8576  0.2182  0.4427
  103MOL0     C13830   2.591   6.790   5.418  0.5335 -0.7925  0.4410
  103MOL0     C13831   2.555   6.743   5.551 -0.4505  0.6067 -0.0548
  103MOL0     C13832   2.454   6.848   5.623 -0.5194  0.9696 -0.1830
  103MOL0     C13833   2.332   6.788   5.695  0.1955  0.3613  0.4811
  103MOL0     C13834   2.375   6.671   5.756 -0.4320  0.2963 -0.6361
  103MOL0     C13835   2.425   6.573   5.808 -0.5411  0.2322 -0.2835
  103MOL0     C13836   2.748   7.099   5.296  0.2044 -0.7097 -0.3771
  103MOL0     C13837   2.757   7.187   5.196 -0.0062 -0.3431 -0.1297
  103MOL0     H13838   2.530   7.476   4.937  0.6514 -1.4588 -0.2819
  103MOL0     H13839   2.502   7.688   4.780 -0.9910 -3.5525 -1.4673
  103MOL0     H13840   2.686   7.676   4.507  1.6537 -0.5920  1.6957
  103MOL0     H13841   2.538   7.767   4.564  0.3005  0.9070  2.0018
  103MOL0     H13842   2.788   7.912   4.457  0.4911 -2.7395 -1.3788
  103MOL0     H13843   2.677   7.847   4.339  0.0103 -0.3778 -0.2791
  103MOL0     H13844   2.627   8.068   4.352  1.3430  1.0034  2.1786
  103MOL0     H13845   2.486   7.989   4.427 -0.8237  0.6634  0.9336
  103MOL0     H13846   2.595   8.056   4.658 -0.2414  2.9620  1.5921
  103MOL0     H13847   2.725   8.138   4.561 -0.4859  0.6937 -0.5181
  103MOL0     H13848   2.584   8.291   4.672 -0.4238 -0.1901  0.3153
  103MOL0     H13849   2.564   8.309   4.485 -1.6921 -0.8537 -0.5141
  103MOL0     H13850   2.356   8.191   4.501 -0.1717  1.5384 -0.7892
  103MOL0     H13851   2.363   8.185   4.681  3.0264  3.5658  3.5192
  103MOL0     H13852   2.404   8.433   4.673 -0.9308  1.9042 -0.3707
  103MOL0     H13853   2.363   8.432   4.502  1.1869 -0.5706 -0.0986
  103MOL0     H13854   2.107   8.358   4.564 -2.8367  1.9375  1.7753
  103MOL0     H13855   2.160   8.500   4.630  2.7308  0.3748 -0.3952
  103MOL0     H13856   2.321   8.385   4.896  0.3758  0.2740  0.5818
  103MOL0     H13857   2.256   8.151   5.136  0.1952 -0.9327 -0.3067
  103MOL0     H13858   2.292   8.330   5.124  0.1393  0.0786  0.1817
  103MOL0     H13859   2.064   8.193   5.245 -1.0829 -1.1871 -2.4241
  103MOL0     H13860   2.008   8.318   5.148 -1.3584 -1.6712  0.3168
  103MOL0     H13861   2.182   8.471   5.290  0.4606 -0.5161 -0.4373
  103MOL0     H13862   2.227   8.345   5.389  1.6728  1.6463 -2.4561
  103MOL0     H13863   2.026   8.409   5.526 -1.6936  3.2598 -0.2310
  103MOL0     H13864   1.953   8.319   5.401 -1.6974  2.6740 -0.5353
  103MOL0     H13865   1.887   8.724   5.498 -2.1604  0.2817  1.8058
  103MOL0     H13866   1.619   8.815   5.665 -4.8069  0.4616 -1.0502
  103MOL0     H13867   1.755   8.893   5.563 -0.6063  0.5973 -1.0763
  103MOL0     H13868   1.591   8.897   5.511 -0.4655 -2.0724  0.5204
  103MOL0     H13869   1.182   8.831   5.505  1.1869 -0.2763 -0.5123
  103MOL0     H13870   0.972   8.909   5.461 -0.0734  2.9653 -2.9045
  103MOL0     H13871   0.821   9.036   5.316 -1.3612  0.4237 -0.3341
  103MOL0     H13872   0.677   8.995   5.251 -1.4320 -1.2896  0.8534
  103MOL0     H13873   0.777   8.880   5.515  0.0198 -1.0263  0.2294
  103MOL0     H13874   0.623   8.960   5.462 -1.3729 -1.0433 -0.9578
  103MOL0     H13875   0.702   8.672   5.437  3.3414  2.5730  0.4673
  103MOL0     H13876   0.607   8.745   5.308  1.0233  4.9881 -0.8515
  103MOL0     H13877   0.483   8.623   5.513 -2.1867  0.2458 -0.5218
  103MOL0     H13878   0.510   8.779   5.590 -0.7321  0.0616  0.6496
  103MOL0     H13879   0.370   8.723   5.327 -0.7060  0.3964 -0.4996
  103MOL0     H13880   0.389   8.890   5.395  1.1585 -0.2539 -0.6564
  103MOL0     H13881   0.223   8.656   5.502 -3.7721  1.0853  0.6988
  103MOL0     H13882   0.265   8.812   5.585  2.6029 -0.0635 -0.4950
  103MOL0     H13883   0.152   8.772   5.316  2.1166 -1.8935  1.2860
  103MOL0     H13884   0.150   8.932   5.413  0.8503 -0.1574  0.9083
  103MOL0     H13885  -0.029   8.686   5.446 -1.1581  0.7538 -1.7110
  103MOL0     H13886  -0.084   8.845   5.415 -0.4216 -0.5821 -0.4497
  103MOL0     H13887   0.957   8.644   5.106 -0.4427  2.1655 -0.5201
  103MOL0     H13888   1.177   8.579   5.163 -0.0827  0.2115  0.9326
  103MOL0     H13889   1.522   8.462   5.298 -1.4207  2.9563 -1.3988
  103MOL0     H13890   1.753   8.385   5.279 -1.5224 -0.6214 -0.9516
  103MOL0     H13891   2.922   7.719   4.761  1.2485  1.2900  1.4136
  103MOL0     H13892   2.947   7.526   4.914 -0.4193 -1.9028 -0.4224
  103MOL0     H13893   2.563   7.016   4.976  1.2447  0.5036 -0.8175
  103MOL0     H13894   2.560   6.856   5.182  1.1502  0.1118 -3.3274
  103MOL0     H13895   2.494   6.810   5.372  1.7089  0.6431 -1.5580
  103MOL0     H13896   2.639   6.721   5.348 -0.1726  0.9066 -1.8288
  103MOL0     H13897   2.650   6.726   5.603 -1.9204 -0.3855  2.4713
  103MOL0     H13898   2.508   6.645   5.539 -0.2591  0.3086  1.4431
  103MOL0     H13899   2.405   6.915   5.553 -0.6063  0.0222 -1.0563
  103MOL0     H13900   2.511   6.902   5.699 -1.1205  0.3156  0.7495
  103MOL0     H13901   2.259   6.753   5.621  0.0314 -1.3495  1.3967
  103MOL0     H13902   2.289   6.868   5.755  0.4364  1.5747 -0.9198
  103MOL0     H13903   2.465   6.485   5.854  0.7538  0.1992 -1.4154
  103MOL0     H13904   2.797   7.128   5.388  2.0188 -0.6426 -1.3220
  103MOL0     H13905   2.813   7.278   5.213 -0.6627  0.0369  0.0562
  104MOL0     O13906   7.743   4.626   3.645 -0.5401 -0.2837 -0.5951
  104MOL0     C13907   7.855   4.624   3.593 -0.4215  0.4915  0.8326
  104MOL0     O13908   7.978   4.593   3.643 -0.6378 -0.1655 -0.4648
  104MOL0     C13909   7.984   4.531   3.766  0.1304 -0.6266 -0.3515
  104MOL0     C13910   8.095   4.582   3.844  0.1924 -0.3817 -0.7899
  104MOL0     C13911   8.112   4.522   3.971 -1.1009  0.1400  0.3571
  104MOL0     C13912   8.018   4.434   4.029  0.7392  0.1492  0.3651
  104MOL0     O13913   8.036   4.361   4.148  0.2968 -0.7376  0.5640
  104MOL0     C13914   8.157   4.374   4.223 -0.3448 -0.3134  0.0632
  104MOL0     C13915   8.115   4.357   4.367  0.6028 -0.3455 -1.5485
  104MOL0     C13916   8.052   4.489   4.425  0.0627  0.6192 -0.6500
  104MOL0     C13917   7.997   4.476   4.572 -0.1369 -0.7850  0.1730
  104MOL0     C13918   7.905   4.583   4.633 -0.4235 -0.2249  0.0964
  104MOL0     C13919   7.847   4.525   4.767 -0.0969  0.5620 -0.2002
  104MOL0     C13920   7.711   4.581   4.807  0.7041  0.6605  0.7214
  104MOL0     C13921   7.700   4.537   4.958 -0.5379  0.4503  0.2616
  104MOL0     N13922   7.670   4.393   4.963 -0.3046  0.5621 -0.5931
  104MOL0     C13923   7.553   4.330   4.942  0.6922 -1.4476 -0.0634
  104MOL0     C13924   7.584   4.199   4.965 -0.1305  0.0363  0.5679
  104MOL0     C13925   7.500   4.081   4.934 -0.5660  0.4572 -0.0484
  104MOL0     C13926   7.419   4.036   5.055  0.7810  0.1887 -0.5860
  104MOL0     C13927   7.506   3.996   5.173 -0.7306 -0.2855  0.2320
  104MOL0     C13928   7.625   3.913   5.139  0.6482 -1.0189  0.2166
  104MOL0     O13929   7.680   3.856   5.258  0.1714  0.0877 -0.1784
  104MOL0     C13930   7.785   3.767   5.240  0.1975  0.4221 -0.2563
  104MOL0     C13931   7.854   3.733   5.358  0.7560 -0.8764 -0.9150
  104MOL0     C13932   7.976   3.655   5.362  0.0808 -0.2698  0.2396
  104MOL0     C13933   8.016   3.600   5.492  0.5716 -0.4131 -0.3282
  104MOL0     C13934   8.025   3.605   5.238 -0.2093 -0.8645 -0.2220
  104MOL0     C13935   8.145   3.512   5.223  0.4240  1.2436 -0.2918
  104MOL0     O13936   8.210   3.496   5.097  0.5031  0.1337  0.3314
  104MOL0     C13937   8.320   3.404   5.105  0.6684  0.3967  0.3546
  104MOL0     C13938   8.447   3.442   5.143 -0.4567 -0.5437 -0.2873
  104MOL0     C13939   8.553   3.347   5.159  1.0268  0.1060 -0.0937
  104MOL0     C13940   8.526   3.208   5.142  1.7256  0.0408 -0.4455
  104MOL0     O13941   8.611   3.101   5.165  0.9921 -0.9051  0.5444
  104MOL0     C13942   8.752   3.134   5.166  0.1528  0.8702  0.3247
  104MOL0     C13943   8.833   3.000   5.175 -0.1560 -0.1817  0.3582
  104MOL0     C13944   8.803   2.932   5.312 -1.0368  0.0470  0.3744
  104MOL0     C13945   8.829   2.781   5.294  0.4179 -0.6654 -0.4391
  104MOL0     C13946   8.948   2.738   5.379 -0.1553 -0.5764 -0.1115
  104MOL0     C13947   8.969   2.587   5.379 -0.8033 -0.9187  0.6670
  104MOL0     C13948   8.875   2.510   5.474  0.1109 -1.2672  0.1111
  104MOL0     C13949   8.912   2.369   5.466 -0.1891  0.0632  0.1365
  104MOL0    Cl13950   9.092   2.339   5.510  0.5932 -0.2486  0.0208
  104MOL0     C13951   8.398   3.178   5.091  0.2954 -0.4276  0.7670
  104MOL0     C13952   8.304   3.273   5.058 -0.1711  0.6279 -0.5919
  104MOL0     O13953   8.182   3.454   5.324  0.1163 -0.6585  0.6084
  104MOL0     C13954   7.956   3.650   5.121  0.2600  1.0262  0.0828
  104MOL0     C13955   7.846   3.733   5.122  0.1796  1.2345  0.2267
  104MOL0     N13956   7.720   4.188   4.991  0.3563  0.0290 -1.3318
  104MOL0     N13957   7.768   4.310   4.999  0.6592 -0.4112  0.4951
  104MOL0     C13958   7.917   4.401   3.945 -0.7113  0.3890 -0.0180
  104MOL0     C13959   7.900   4.436   3.815  0.7615 -0.7314  0.4776
  104MOL0     C13960   7.879   4.682   3.456 -0.2330 -0.5615  0.3964
  104MOL0     C13961   7.775   4.746   3.390  0.9078 -0.2684  0.4678
  104MOL0     C13962   7.783   4.797   3.259  0.3517  0.0974 -0.8100
  104MOL0     C13963   7.911   4.809   3.204  0.8590  0.2170  0.1739
  104MOL0     O13964   7.910   4.872   3.076  0.3112  0.0836 -0.3714
  104MOL0     C13965   8.031   4.875   2.995  0.8224  0.8573  0.2101
  104MOL0     C13966   7.996   4.899   2.851  0.3717 -0.1361  0.2191
  104MOL0     C13967   7.919   5.031   2.816  0.6350  0.2410  0.2537
  104MOL0     C13968   7.878   5.039   2.662 -0.4793 -0.0090 -0.1717
  104MOL0     C13969   7.808   5.164   2.624 -0.3694 -0.8295 -0.3350
  104MOL0     C13970   7.737   5.259   2.602 -0.6241  0.1629  0.0141
  104MOL0     C13971   8.023   4.755   3.274 -0.0710 -0.5210 -0.1876
  104MOL0     C13972   8.005   4.681   3.390  0.0232 -0.4418 -0.7875
  104MOL0     H13973   8.164   4.659   3.811 -1.3237  0.7964 -1.2772
  104MOL0     H13974   8.185   4.564   4.039 -1.9955  0.2617  1.2669
  104MOL0     H13975   8.210   4.289   4.180 -3.4515 -3.3413  1.6973
  104MOL0     H13976   8.216   4.466   4.212  0.7421 -0.7759  1.6023
  104MOL0     H13977   8.040   4.278   4.373 -0.5775  0.8530  1.2683
  104MOL0     H13978   8.202   4.324   4.425  0.8137 -0.4935 -1.9469
  104MOL0     H13979   8.130   4.565   4.422 -1.1752  1.9568 -0.1872
  104MOL0     H13980   7.971   4.532   4.366 -2.0538 -2.1925 -0.0302
  104MOL0     H13981   7.944   4.381   4.574 -0.0457 -0.9782 -2.5814
  104MOL0     H13982   8.092   4.466   4.625  0.2699  0.7892 -0.1896
  104MOL0     H13983   7.962   4.675   4.645  1.3616 -1.1908 -0.5467
  104MOL0     H13984   7.820   4.621   4.576  0.5859  2.2359  0.1369
  104MOL0     H13985   7.846   4.416   4.779 -0.6278  0.8095  2.6684
  104MOL0     H13986   7.925   4.555   4.838 -0.3808  0.1029  0.3043
  104MOL0     H13987   7.692   4.688   4.805  2.3205  0.9759 -0.0715
  104MOL0     H13988   7.636   4.525   4.750  0.6291 -1.0479  2.3763
  104MOL0     H13989   7.611   4.593   4.989 -2.7977 -1.7863 -1.7006
  104MOL0     H13990   7.782   4.567   5.024  0.3007 -2.7786  0.8258
  104MOL0     H13991   7.457   4.375   4.919  0.3288 -0.4757  2.9041
  104MOL0     H13992   7.428   4.102   4.855  1.0179  0.2331 -1.6146
  104MOL0     H13993   7.563   3.998   4.902  1.4517  3.0723 -3.7197
  104MOL0     H13994   7.353   3.955   5.023  3.6813 -2.2020 -0.9513
  104MOL0     H13995   7.357   4.123   5.080 -0.0943  0.0956 -2.2754
  104MOL0     H13996   7.456   3.937   5.250  0.3148 -0.1990  1.0136
  104MOL0     H13997   7.546   4.088   5.216  0.8062 -1.0143  0.4350
  104MOL0     H13998   7.704   3.967   5.086 -0.7566  0.7435 -0.1887
  104MOL0     H13999   7.588   3.837   5.070  0.7015  0.0649 -1.0522
  104MOL0     H14000   7.818   3.777   5.451  1.0225 -1.8600 -0.3341
  104MOL0     H14001   7.958   3.638   5.577 -0.3827 -0.6940 -0.8441
  104MOL0     H14002   7.996   3.493   5.498 -1.1906 -0.1052  0.0314
  104MOL0     H14003   8.121   3.610   5.519 -0.1747 -0.3505  3.0841
  104MOL0     H14004   8.474   3.543   5.172  1.6479 -1.7814  2.5367
  104MOL0     H14005   8.654   3.377   5.189  1.3680  0.6742 -1.7023
  104MOL0     H14006   8.768   3.183   5.069  2.2831 -1.2925 -0.5227
  104MOL0     H14007   8.766   3.197   5.254 -2.0354 -0.6193  1.8609
  104MOL0     H14008   8.806   2.938   5.089  0.6074  0.7873 -0.6035
  104MOL0     H14009   8.940   3.018   5.178 -0.0238 -0.8782  0.0415
  104MOL0     H14010   8.705   2.953   5.354 -1.2103 -2.5901  1.4967
  104MOL0     H14011   8.875   2.974   5.384  2.5602 -1.4227 -2.0406
  104MOL0     H14012   8.741   2.725   5.327 -0.2498  2.1167  3.0594
  104MOL0     H14013   8.856   2.753   5.192  2.8286 -1.2320  0.2679
  104MOL0     H14014   8.932   2.767   5.484 -1.5036  0.5094 -0.5805
  104MOL0     H14015   9.040   2.783   5.342 -0.8649  0.3160 -0.8406
  104MOL0     H14016   8.959   2.546   5.277 -1.6431 -0.7819  0.6916
  104MOL0     H14017   9.075   2.577   5.406 -0.1131  1.8350 -0.6701
  104MOL0     H14018   8.771   2.526   5.442  0.7158 -0.2572 -1.4790
  104MOL0     H14019   8.887   2.546   5.576 -0.7139  1.1129 -0.5516
  104MOL0     H14020   8.901   2.315   5.371 -0.9422 -0.9093  0.7566
  104MOL0     H14021   8.845   2.304   5.524 -0.1786 -1.3025 -1.3153
  104MOL0     H14022   8.373   3.072   5.084 -3.1325  0.2119  1.5942
  104MOL0     H14023   8.209   3.233   5.025  0.6332 -0.1803 -2.0430
  104MOL0     H14024   7.997   3.623   5.024 -1.0473  1.0100 -0.4851
  104MOL0     H14025   7.810   3.770   5.027 -1.1912  0.4312  0.4163
  104MOL0     H14026   7.848   4.332   3.992 -0.2620 -0.4752 -0.6028
  104MOL0     H14027   7.829   4.378   3.756  0.1416 -1.0010  1.4797
  104MOL0     H14028   7.683   4.766   3.444  0.6618  0.3679 -0.1741
  104MOL0     H14029   7.688   4.829   3.218 -1.5796 -1.6348  1.9145
  104MOL0     H14030   8.098   4.943   3.049  1.8546 -2.2412  3.2345
  104MOL0     H14031   8.096   4.788   2.986  0.7884  0.7595  0.8772
  104MOL0     H14032   7.938   4.817   2.807  0.2485 -0.8244  1.6334
  104MOL0     H14033   8.093   4.903   2.801  0.7388  2.3566  0.9912
  104MOL0     H14034   7.981   5.116   2.846  3.0471 -1.4057  0.2229
  104MOL0     H14035   7.825   5.034   2.871 -0.8374 -0.7211 -2.0994
  104MOL0     H14036   7.801   4.963   2.646 -0.0612 -0.5353  0.3008
  104MOL0     H14037   7.961   5.019   2.593 -1.9292 -0.0811 -1.9882
  104MOL0     H14038   7.687   5.348   2.572  1.4293  0.7051 -2.0635
  104MOL0     H14039   8.119   4.768   3.225  0.7758 -2.0011  1.0057
  104MOL0     H14040   8.094   4.643   3.438 -0.1850  1.5709  1.3730
  105MOL0     O14041  10.159   1.672  10.652  0.0358 -0.3485  1.3771
  105MOL0     C14042  10.192   1.790  10.611 -0.1900 -0.4776 -0.2885
  105MOL0     O14043  10.106   1.903  10.633 -1.0044  0.0021 -0.2100
  105MOL0     C14044   9.979   1.865  10.661  0.0483 -0.4649 -0.4004
  105MOL0     C14045   9.941   1.844  10.799  1.0087  0.6609 -0.5005
  105MOL0     C14046   9.815   1.798  10.827 -0.1359 -0.2247 -0.1049
  105MOL0     C14047   9.723   1.780  10.730 -0.1877  0.3599 -0.2623
  105MOL0     O14048   9.591   1.750  10.775 -0.2942 -0.4324  0.4224
  105MOL0     C14049   9.539   1.627  10.729 -1.1310  0.5016  0.2780
  105MOL0     C14050   9.601   1.524  10.818  0.2715 -0.3616  0.2836
  105MOL0     C14051   9.583   1.550  10.979  0.4881  0.4349  0.6908
  105MOL0     C14052   9.676   1.450  11.052  1.4859  0.2547  0.5719
  105MOL0     C14053   9.660   1.463  11.205 -0.1164  0.2885 -0.1832
  105MOL0     C14054   9.725   1.592  11.264 -0.7232 -0.5166  0.6625
  105MOL0     C14055   9.730   1.578  11.414 -0.4817  0.4315 -0.6858
  105MOL0     C14056   9.814   1.689  11.477  0.5927 -0.1215  0.3026
  105MOL0     N14057   9.747   1.821  11.485 -0.7900  0.2312  0.1423
  105MOL0     C14058   9.713   1.887  11.606 -0.1313 -0.1626  1.0214
  105MOL0     C14059   9.668   2.010  11.563 -1.1685  0.1045 -0.2529
  105MOL0     C14060   9.624   2.127  11.651 -0.3103 -0.8267 -1.3764
  105MOL0     C14061   9.487   2.111  11.710 -0.0156 -0.3179  0.8062
  105MOL0     C14062   9.451   2.221  11.814 -0.1388  0.1991  1.3823
  105MOL0     C14063   9.299   2.219  11.843 -0.0345  0.5136  0.4215
  105MOL0     O14064   9.276   2.085  11.885  0.2080  0.4958 -0.5017
  105MOL0     C14065   9.312   2.044  12.009 -0.4567 -0.9712 -0.1068
  105MOL0     C14066   9.373   2.128  12.110  0.6417  0.0366 -0.0981
  105MOL0     C14067   9.405   2.082  12.241 -0.4371 -0.8234 -0.3535
  105MOL0     C14068   9.482   2.174  12.337 -0.1441 -0.4591  0.8045
  105MOL0     C14069   9.363   1.961  12.282 -0.1466  0.0175  1.2367
  105MOL0     C14070   9.366   1.926  12.426  0.7904  0.9858  0.2083
  105MOL0     O14071   9.346   2.020  12.524 -0.4467 -0.3746  0.4032
  105MOL0     C14072   9.358   1.999  12.660  0.8877  0.5135 -0.3986
  105MOL0     C14073   9.287   1.898  12.713  0.5349 -0.5367 -0.8736
  105MOL0     C14074   9.303   1.871  12.848 -0.3417  0.2261 -0.4831
  105MOL0     C14075   9.379   1.941  12.936  0.1776 -0.6708 -0.3762
  105MOL0     O14076   9.386   1.908  13.066  0.2449  0.0965  0.3980
  105MOL0     C14077   9.294   1.810  13.111 -0.1746  0.3645 -1.1499
  105MOL0     C14078   9.308   1.783  13.262 -0.2795  0.6227 -0.4026
  105MOL0     C14079   9.187   1.711  13.302  0.1407  0.2929  0.1435
  105MOL0     C14080   9.217   1.658  13.440  0.4932  0.4344  0.2538
  105MOL0     C14081   9.116   1.568  13.499 -1.0139  0.1958  0.3067
  105MOL0     C14082   9.153   1.553  13.640 -0.5570 -1.1618 -0.0831
  105MOL0     C14083   9.049   1.455  13.703 -0.0017 -0.1591  0.8975
  105MOL0     C14084   9.113   1.365  13.813 -0.5521 -0.4161 -0.1852
  105MOL0    Cl14085   9.151   1.475  13.947  0.3153 -0.2030  0.2061
  105MOL0     C14086   9.466   2.033  12.871  0.0135 -0.5778  0.2841
  105MOL0     C14087   9.454   2.053  12.733  0.3047  0.6685 -0.0780
  105MOL0     O14088   9.400   1.810  12.442 -0.7631 -0.1965 -0.6523
  105MOL0     C14089   9.308   1.881  12.185  0.1062 -0.9288  0.9899
  105MOL0     C14090   9.287   1.919  12.047 -0.7280  0.4000 -0.7360
  105MOL0     N14091   9.690   2.024  11.425 -0.0048  0.8966 -0.0620
  105MOL0     N14092   9.736   1.911  11.378  0.7280  0.5655  0.0989
  105MOL0     C14093   9.756   1.806  10.593  0.5925  0.1729  0.0752
  105MOL0     C14094   9.881   1.853  10.559 -0.5373  0.0740  0.3233
  105MOL0     C14095  10.326   1.817  10.554 -0.3028  0.4924  0.0966
  105MOL0     C14096  10.412   1.712  10.551  0.1280  0.0454  0.8133
  105MOL0     C14097  10.546   1.729  10.511 -0.2425  0.3146  0.2427
  105MOL0     C14098  10.593   1.852  10.454  0.0645 -0.5837  0.8056
  105MOL0     O14099  10.721   1.853  10.392 -0.2730 -1.2214 -0.3017
  105MOL0     C14100  10.771   1.993  10.359 -0.2089 -0.8874  0.8574
  105MOL0     C14101  10.911   2.001  10.304 -0.4525 -0.1995  0.0440
  105MOL0     C14102  10.932   1.932  10.169  0.5201  0.5302  0.2097
  105MOL0     C14103  11.085   1.929  10.129  0.0452 -0.8724 -0.0281
  105MOL0     C14104  11.109   1.854  10.005  0.0995  0.6219 -0.3043
  105MOL0     C14105  11.139   1.789   9.906 -0.9374  0.7177 -0.1511
  105MOL0     C14106  10.486   1.951  10.439  0.0063 -0.6275 -0.7708
  105MOL0     C14107  10.359   1.940  10.492  0.2489  0.1475 -0.1695
  105MOL0     H14108  10.013   1.873  10.876 -1.0995  1.9029  1.1027
  105MOL0     H14109   9.780   1.773  10.927 -0.2764  1.1519  0.2020
  105MOL0     H14110   9.434   1.616  10.758 -0.4301 -1.5073  2.2936
  105MOL0     H14111   9.560   1.611  10.623  1.2252 -0.1137  0.8029
  105MOL0     H14112   9.550   1.432  10.791 -4.7694  2.4840 -1.0385
  105MOL0     H14113   9.707   1.515  10.792  1.1222  0.2118  3.1212
  105MOL0     H14114   9.599   1.655  11.005  1.4502  0.6285 -0.6471
  105MOL0     H14115   9.478   1.535  11.008  0.5351 -1.1210  0.1289
  105MOL0     H14116   9.645   1.348  11.031  1.3076  0.0818  1.6045
  105MOL0     H14117   9.783   1.464  11.034  1.9809 -3.5342 -0.3020
  105MOL0     H14118   9.552   1.452  11.218 -0.0198  0.2055  0.6293
  105MOL0     H14119   9.699   1.370  11.247  0.0414  1.2440  1.9477
  105MOL0     H14120   9.828   1.599  11.229 -0.2742  1.3299  2.2164
  105MOL0     H14121   9.662   1.680  11.251 -2.1272 -1.8746 -2.8427
  105MOL0     H14122   9.626   1.591  11.445 -0.3478  1.1636 -0.5274
  105MOL0     H14123   9.764   1.485  11.461 -4.6881 -1.0279 -0.1465
  105MOL0     H14124   9.910   1.706  11.429  0.1351  1.6246 -0.0580
  105MOL0     H14125   9.828   1.665  11.583 -1.5798 -1.3135  0.3891
  105MOL0     H14126   9.707   1.845  11.707  1.1124 -1.0066  0.7656
  105MOL0     H14127   9.690   2.130  11.738 -2.0377 -0.7939 -0.0087
  105MOL0     H14128   9.628   2.213  11.583  2.4728 -1.3466 -1.9735
  105MOL0     H14129   9.468   2.015  11.759  1.6231 -1.6570 -0.9997
  105MOL0     H14130   9.420   2.129  11.625 -0.8148 -1.0151  1.2762
  105MOL0     H14131   9.475   2.319  11.772  1.5722 -0.5176  0.5696
  105MOL0     H14132   9.509   2.214  11.907  1.0989  2.1837  0.8296
  105MOL0     H14133   9.232   2.245  11.760 -1.0762 -0.2217  0.9987
  105MOL0     H14134   9.277   2.294  11.920 -1.3770 -0.6279  1.2004
  105MOL0     H14135   9.393   2.234  12.094 -2.0982  0.3578 -2.2817
  105MOL0     H14136   9.415   2.251  12.378 -0.1826  1.0818 -1.8489
  105MOL0     H14137   9.545   2.122  12.409  0.1183 -2.4769 -0.7870
  105MOL0     H14138   9.556   2.217  12.269  0.9925 -0.9606  1.7021
  105MOL0     H14139   9.224   1.835  12.651 -2.3242 -0.4825  1.7666
  105MOL0     H14140   9.238   1.786  12.865 -1.5521  0.8433 -1.7865
  105MOL0     H14141   9.189   1.841  13.101 -0.6607 -0.7439  0.1844
  105MOL0     H14142   9.317   1.719  13.056 -0.0757 -0.7885  0.6931
  105MOL0     H14143   9.398   1.723  13.277 -0.6790  0.5331  2.1327
  105MOL0     H14144   9.317   1.880  13.312  0.8697  0.1666  0.3120
  105MOL0     H14145   9.168   1.631  13.231 -0.4410 -0.1295  0.7654
  105MOL0     H14146   9.101   1.778  13.307  1.5994  2.2835  0.2840
  105MOL0     H14147   9.312   1.603  13.446  0.6002  0.5320 -0.4137
  105MOL0     H14148   9.214   1.750  13.500 -0.8173 -0.7137  2.0374
  105MOL0     H14149   9.138   1.475  13.445  4.2879  0.7826  0.9525
  105MOL0     H14150   9.011   1.582  13.470 -0.8285 -0.9245 -1.0667
  105MOL0     H14151   9.249   1.504  13.657  0.0677 -0.2067 -0.7533
  105MOL0     H14152   9.152   1.652  13.687  2.5706  0.4302 -2.9114
  105MOL0     H14153   9.014   1.386  13.626  2.3024 -0.4765  0.0866
  105MOL0     H14154   8.972   1.519  13.748  0.8537  1.3800  0.2536
  105MOL0     H14155   9.202   1.310  13.782 -0.6463  0.0179 -1.2776
  105MOL0     H14156   9.034   1.298  13.849 -0.8276  0.9707  2.0296
  105MOL0     H14157   9.546   2.084  12.925 -0.1063  0.7758 -0.7698
  105MOL0     H14158   9.514   2.115  12.668 -2.4852  1.9751 -1.5609
  105MOL0     H14159   9.272   1.780  12.206 -5.1830  0.0548 -1.6656
  105MOL0     H14160   9.256   1.846  11.973  0.8669  0.6260 -1.6807
  105MOL0     H14161   9.687   1.808  10.509  0.0736  0.1753  0.4981
  105MOL0     H14162   9.903   1.874  10.454 -1.3015  0.8150  0.3021
  105MOL0     H14163  10.392   1.621  10.607  2.1712 -0.6087  0.5662
  105MOL0     H14164  10.622   1.652  10.524  1.1642  1.8270  1.3496
  105MOL0     H14165  10.706   2.041  10.285  0.0713 -3.0499 -0.8817
  105MOL0     H14166  10.779   2.053  10.450  1.0683  2.1906 -1.0920
  105MOL0     H14167  10.983   1.954  10.372  0.1561  0.1895 -0.3167
  105MOL0     H14168  10.943   2.105  10.292 -0.3374 -0.4289 -1.9845
  105MOL0     H14169  10.866   1.987  10.102 -2.8217 -1.7291  1.4243
  105MOL0     H14170  10.903   1.827  10.166  0.6791  0.5011 -0.7301
  105MOL0     H14171  11.146   1.875  10.202  0.3797 -2.5420 -1.4388
  105MOL0     H14172  11.123   2.031  10.116  1.0740 -1.4570 -2.2674
  105MOL0     H14173  11.187   1.733   9.828  0.2333  1.4474  0.0167
  105MOL0     H14174  10.511   2.036  10.377  2.2813 -0.9380 -0.3803
  105MOL0     H14175  10.292   2.023  10.472  0.4408  0.0067 -1.5368
  106MOL0     O14176   0.975   0.452   3.416  0.0660 -0.3008 -0.2938
  106MOL0     C14177   0.935   0.345   3.440  0.6906 -0.4087 -0.3761
  106MOL0     O14178   0.840   0.318   3.532 -0.9807  0.5810  0.3001
  106MOL0     C14179   0.794   0.418   3.620 -0.2078  0.8546 -0.3119
  106MOL0     C14180   0.820   0.399   3.754 -0.1662 -0.6011  0.6841
  106MOL0     C14181   0.787   0.488   3.852  0.8822 -0.3693 -0.1538
  106MOL0     C14182   0.719   0.600   3.807  1.4613 -0.4749  0.5388
  106MOL0     O14183   0.705   0.700   3.908  0.1801  0.2313  0.3468
  106MOL0     C14184   0.631   0.824   3.901 -0.1029  0.9709  0.5014
  106MOL0     C14185   0.667   0.910   4.013  0.8129 -0.1303 -0.3241
  106MOL0     C14186   0.817   0.915   4.058 -0.6041  0.7195  0.0758
  106MOL0     C14187   0.853   1.020   4.161 -0.0551  0.2936 -0.0044
  106MOL0     C14188   0.799   0.985   4.304 -0.5465 -0.0740  0.5100
  106MOL0     C14189   0.846   1.094   4.389  0.5013  0.4210  0.9199
  106MOL0     C14190   0.802   1.063   4.533  0.7078 -1.0502 -0.4221
  106MOL0     C14191   0.891   1.129   4.640 -0.8560  0.1676 -0.4239
  106MOL0     N14192   0.843   1.073   4.768  0.4381 -0.6615 -0.1375
  106MOL0     C14193   0.889   0.954   4.817  0.3574  0.4029 -0.1873
  106MOL0     C14194   0.836   0.940   4.944  0.1609 -0.5919  0.2580
  106MOL0     C14195   0.850   0.817   5.036 -0.4603  0.9282 -0.1513
  106MOL0     C14196   0.714   0.751   5.074 -0.6275  0.6464  0.2698
  106MOL0     C14197   0.668   0.682   4.948 -0.6921 -0.5008 -0.0604
  106MOL0     C14198   0.526   0.635   4.966 -0.3234 -0.5483  0.9777
  106MOL0     O14199   0.440   0.741   4.982  0.1902 -0.4723 -0.6837
  106MOL0     C14200   0.311   0.705   4.994  0.3812  0.0984  0.3631
  106MOL0     C14201   0.241   0.592   4.955 -0.4871  0.6108  0.4009
  106MOL0     C14202   0.110   0.555   5.003 -0.3128 -1.0790  0.2901
  106MOL0     C14203   0.061   0.418   4.972 -1.6136 -0.5368  0.4784
  106MOL0     C14204   0.030   0.656   5.066 -0.8610  0.2396  0.5047
  106MOL0     C14205  -0.109   0.642   5.115 -0.4246 -1.3148  0.1937
  106MOL0     O14206  -0.160   0.747   5.184 -0.2852 -0.1703  0.5554
  106MOL0     C14207  -0.274   0.728   5.260  0.2568 -0.1860  0.3005
  106MOL0     C14208  -0.360   0.834   5.293  0.3352  0.1252  0.9719
  106MOL0     C14209  -0.476   0.812   5.372 -0.2576  0.2607 -0.6081
  106MOL0     C14210  -0.510   0.695   5.429 -0.7210 -0.2055  0.2875
  106MOL0     O14211  -0.636   0.696   5.485 -0.2479  0.1883  0.1902
  106MOL0     C14212  -0.710   0.573   5.512  0.5736  0.9727 -0.7928
  106MOL0     C14213  -0.842   0.607   5.587 -0.2985 -0.1466 -0.0572
  106MOL0     C14214  -0.812   0.628   5.735 -0.5630 -0.2227  0.2547
  106MOL0     C14215  -0.842   0.778   5.771 -0.1443 -0.3558  0.6730
  106MOL0     C14216  -1.002   0.800   5.788 -0.4085 -0.1572 -0.1995
  106MOL0     C14217  -1.049   0.944   5.783  0.3549 -0.0622  0.2409
  106MOL0     C14218  -0.975   1.046   5.867  1.1650  0.1427  0.1124
  106MOL0     C14219  -1.069   1.165   5.911  1.1675 -0.3839  0.2969
  106MOL0    Cl14220  -1.200   1.115   6.028 -0.0882  0.0390  0.2545
  106MOL0     C14221  -0.426   0.584   5.405 -0.7623  0.4069 -0.2923
  106MOL0     C14222  -0.307   0.603   5.323  0.3298  0.3913 -0.2755
  106MOL0     O14223  -0.174   0.542   5.082 -0.3295 -0.2651  0.0155
  106MOL0     C14224   0.100   0.779   5.092  0.2123 -0.0670  0.9844
  106MOL0     C14225   0.235   0.797   5.062 -0.0185  0.8065  0.4249
  106MOL0     N14226   0.764   1.057   4.967  0.4985 -0.1851 -0.2986
  106MOL0     N14227   0.771   1.144   4.869  1.7381 -0.2938 -0.4664
  106MOL0     C14228   0.667   0.608   3.674  0.8288 -0.1019 -0.4853
  106MOL0     C14229   0.706   0.520   3.578  0.6442  0.0964 -0.1506
  106MOL0     C14230   0.976   0.232   3.353  0.6060  0.7254 -0.2249
  106MOL0     C14231   1.095   0.243   3.283  0.0444  0.4565 -1.1229
  106MOL0     C14232   1.144   0.129   3.220 -0.1651  0.5283  0.0891
  106MOL0     C14233   1.076   0.007   3.221  0.6162 -0.3391  0.2971
  106MOL0     O14234   1.136  -0.088   3.138 -0.0803 -0.3913 -0.5227
  106MOL0     C14235   1.046  -0.182   3.078 -0.2634 -0.6580 -0.2790
  106MOL0     C14236   1.093  -0.232   2.949 -0.1527  1.1251 -0.0719
  106MOL0     C14237   1.139  -0.139   2.839  1.0988 -0.0103 -0.2262
  106MOL0     C14238   1.234  -0.197   2.744  0.2294  0.8868  1.2428
  106MOL0     C14239   1.165  -0.293   2.652 -0.8380 -0.0671 -0.3233
  106MOL0     C14240   1.122  -0.376   2.577 -0.0344  0.7140 -1.0436
  106MOL0     C14241   0.948   0.005   3.276  0.8225  1.1365  0.1227
  106MOL0     C14242   0.897   0.110   3.350  0.8621 -0.4735 -0.0404
  106MOL0     H14243   0.874   0.309   3.780  1.9618  0.4501  0.0854
  106MOL0     H14244   0.834   0.473   3.949  3.6368  0.7106 -1.2150
  106MOL0     H14245   0.650   0.895   3.820  5.2773 -0.7732 -0.1909
  106MOL0     H14246   0.525   0.801   3.908 -1.3640  4.9645 -1.9399
  106MOL0     H14247   0.631   1.012   4.000  1.8677  0.2642 -0.2497
  106MOL0     H14248   0.605   0.870   4.094  0.1524  3.5968  1.1702
  106MOL0     H14249   0.857   0.824   4.104 -0.7484  0.1934 -0.8044
  106MOL0     H14250   0.874   0.923   3.965 -2.8554  2.6294 -1.2661
  106MOL0     H14251   0.962   1.020   4.171 -0.0033  0.9517 -0.4876
  106MOL0     H14252   0.830   1.119   4.120  2.0260  0.6376 -0.4639
  106MOL0     H14253   0.691   0.976   4.290 -0.3377 -1.5938 -0.2747
  106MOL0     H14254   0.848   0.890   4.329  0.9322  0.7390  0.8173
  106MOL0     H14255   0.955   1.085   4.390  0.6976  2.3213  2.1303
  106MOL0     H14256   0.824   1.195   4.351 -1.9825 -0.6542 -0.7751
  106MOL0     H14257   0.699   1.098   4.544  0.6881 -1.1206 -0.3758
  106MOL0     H14258   0.802   0.955   4.552  3.6094 -1.3083 -1.4288
  106MOL0     H14259   0.886   1.238   4.633 -1.4815  0.0919 -1.3510
  106MOL0     H14260   0.996   1.102   4.629 -0.1171  0.1534  4.5215
  106MOL0     H14261   0.937   0.875   4.759  0.6465  1.5606 -1.5739
  106MOL0     H14262   0.917   0.751   4.981 -0.4453  1.0509 -0.2823
  106MOL0     H14263   0.897   0.838   5.132  0.2337  1.8505 -0.6696
  106MOL0     H14264   0.639   0.822   5.109  0.5992  3.5917 -2.5472
  106MOL0     H14265   0.716   0.684   5.160  0.6830  1.8320  1.2062
  106MOL0     H14266   0.730   0.598   4.914  0.1922  1.0514 -2.5520
  106MOL0     H14267   0.659   0.752   4.864 -2.0688  0.2382  0.6742
  106MOL0     H14268   0.513   0.564   5.048  0.6385  0.1244  1.7393
  106MOL0     H14269   0.491   0.583   4.877  1.0151  1.2955 -0.7049
  106MOL0     H14270   0.289   0.517   4.894 -1.4171  0.1031  0.2625
  106MOL0     H14271   0.148   0.357   4.943  1.1015  3.1083  0.2709
  106MOL0     H14272   0.020   0.374   5.064  0.3272 -2.0160  0.7085
  106MOL0     H14273  -0.002   0.414   4.882  0.6587  0.3857 -1.2564
  106MOL0     H14274  -0.339   0.931   5.248  1.8440 -1.7454 -2.7555
  106MOL0     H14275  -0.547   0.893   5.391 -0.5132  0.4226 -2.1169
  106MOL0     H14276  -0.734   0.509   5.427 -1.6936 -2.4847  2.1172
  106MOL0     H14277  -0.653   0.500   5.570 -0.4724 -1.7880 -3.0394
  106MOL0     H14278  -0.888   0.692   5.537  0.3947 -0.3812 -1.1362
  106MOL0     H14279  -0.913   0.525   5.577 -0.6094 -0.0464  1.1836
  106MOL0     H14280  -0.706   0.612   5.757 -0.2926  0.6231 -0.4140
  106MOL0     H14281  -0.866   0.560   5.802  1.1757 -1.2550  0.6925
  106MOL0     H14282  -0.791   0.808   5.863 -2.5869  4.3770  0.7837
  106MOL0     H14283  -0.821   0.855   5.696  0.2489  0.2838  1.4185
  106MOL0     H14284  -1.037   0.753   5.880 -0.9130 -0.1271 -0.3711
  106MOL0     H14285  -1.060   0.754   5.707 -0.0740  0.8480 -1.0328
  106MOL0     H14286  -1.026   0.967   5.678  2.5711  0.1266  0.7204
  106MOL0     H14287  -1.156   0.946   5.803  0.6251  2.1691  1.7076
  106MOL0     H14288  -0.900   1.092   5.802  1.4557 -0.4816  0.0024
  106MOL0     H14289  -0.922   0.999   5.950  1.6176 -0.5629 -0.5681
  106MOL0     H14290  -1.123   1.209   5.826  0.2456 -0.4189  0.8538
  106MOL0     H14291  -1.025   1.256   5.954 -1.9643  1.0493  0.7665
  106MOL0     H14292  -0.446   0.484   5.443 -0.2676 -0.2188 -1.5929
  106MOL0     H14293  -0.238   0.519   5.317 -1.5618 -1.1260 -1.8023
  106MOL0     H14294   0.049   0.857   5.147 -1.4703 -1.3434  1.2911
  106MOL0     H14295   0.267   0.898   5.087 -1.0486  1.3686 -0.4398
  106MOL0     H14296   0.598   0.677   3.628  2.8343  0.3430 -3.0714
  106MOL0     H14297   0.689   0.522   3.471  0.1757  0.2213 -0.0728
  106MOL0     H14298   1.149   0.338   3.285 -2.0883  1.8796  3.6274
  106MOL0     H14299   1.244   0.140   3.180  1.2194  0.6433  3.3288
  106MOL0     H14300   1.032  -0.263   3.150  0.7631 -0.7159 -0.1251
  106MOL0     H14301   0.949  -0.143   3.045 -0.8524 -0.9123  1.1098
  106MOL0     H14302   1.016  -0.302   2.912  0.1701  0.0826  1.1426
  106MOL0     H14303   1.179  -0.291   2.982 -1.1223  0.3686  1.1877
  106MOL0     H14304   1.174  -0.043   2.877 -2.5093  0.6706  1.9187
  106MOL0     H14305   1.045  -0.118   2.787  1.2717  1.3151 -0.0293
  106MOL0     H14306   1.317  -0.244   2.797  1.1047 -1.1216 -1.6519
  106MOL0     H14307   1.270  -0.117   2.680 -1.9038 -0.3066 -1.6830
  106MOL0     H14308   1.069  -0.456   2.529  0.0577 -0.9615  1.4758
  106MOL0     H14309   0.885  -0.078   3.248  1.3705  0.2825  1.3043
  106MOL0     H14310   0.795   0.117   3.387  0.9075  2.1845 -0.2539
  107MOL0     O14311  10.153   6.640   0.090 -0.0904 -0.4573 -0.7776
  107MOL0     C14312  10.162   6.727  -0.001 -0.3087  0.0049  0.0706
  107MOL0     O14313  10.073   6.746  -0.109 -0.8813  0.0520  0.0566
  107MOL0     C14314   9.957   6.677  -0.093  0.2097 -0.3634 -0.3865
  107MOL0     C14315   9.841   6.748  -0.042 -0.6338  0.4165 -0.0694
  107MOL0     C14316   9.726   6.680  -0.026 -0.2255 -0.2456  0.4904
  107MOL0     C14317   9.713   6.542  -0.060  0.2474 -0.2856  0.4183
  107MOL0     O14318   9.598   6.476  -0.041 -0.0003 -0.4292  0.2817
  107MOL0     C14319   9.489   6.534   0.030 -0.3218 -0.4823 -0.0008
  107MOL0     C14320   9.355   6.450   0.013 -0.6335 -0.1111  0.1495
  107MOL0     C14321   9.271   6.481   0.133 -1.1784  0.6262 -0.3670
  107MOL0     C14322   9.146   6.407   0.146  0.4852  0.0290 -0.4320
  107MOL0     C14323   9.067   6.441   0.273 -0.1220  0.5498 -0.0534
  107MOL0     C14324   8.925   6.376   0.281 -0.5885 -0.1319  0.7738
  107MOL0     C14325   8.849   6.424   0.400 -0.2389  0.0936  0.6440
  107MOL0     C14326   8.739   6.533   0.364 -0.3326 -0.1689  0.7544
  107MOL0     N14327   8.646   6.575   0.465 -0.7381 -0.9069 -0.3820
  107MOL0     C14328   8.672   6.591   0.596 -0.7240  0.1144  0.5738
  107MOL0     C14329   8.563   6.653   0.654  0.2374  0.0248  0.2815
  107MOL0     C14330   8.535   6.686   0.795 -0.8096  0.3331 -0.4284
  107MOL0     C14331   8.519   6.842   0.834  0.9699 -0.1680 -0.4889
  107MOL0     C14332   8.468   6.870   0.975 -0.0721  0.5611  0.0365
  107MOL0     C14333   8.559   6.804   1.073  0.9526 -0.1939 -0.7227
  107MOL0     O14334   8.507   6.823   1.202  0.2974  0.9351 -0.7351
  107MOL0     C14335   8.505   6.950   1.266  0.3614  0.5301  0.0455
  107MOL0     C14336   8.598   7.054   1.240 -0.5405 -0.2542 -0.7007
  107MOL0     C14337   8.584   7.180   1.298  1.3925 -0.3507 -0.9114
  107MOL0     C14338   8.685   7.284   1.258 -0.2551 -0.4747 -0.4961
  107MOL0     C14339   8.476   7.204   1.395  0.8381 -0.2736  0.2280
  107MOL0     C14340   8.462   7.329   1.481 -1.0372  0.0121 -0.6153
  107MOL0     O14341   8.392   7.325   1.598 -0.1459 -0.4357 -0.4275
  107MOL0     C14342   8.389   7.430   1.695  0.0764  1.2245  0.2235
  107MOL0     C14343   8.263   7.486   1.722  0.6453 -0.3072  0.4850
  107MOL0     C14344   8.240   7.602   1.812 -0.3253  0.7209 -0.6272
  107MOL0     C14345   8.349   7.639   1.891 -0.1323  0.6908  0.5822
  107MOL0     O14346   8.349   7.741   1.979  0.1130 -0.1881 -0.0967
  107MOL0     C14347   8.224   7.808   2.008  0.0546 -0.0724 -0.6076
  107MOL0     C14348   8.228   7.894   2.136  0.1376 -0.2750 -1.1391
  107MOL0     C14349   8.352   7.987   2.166  0.3394  0.1601 -0.6143
  107MOL0     C14350   8.353   8.039   2.308 -0.1134 -0.0239 -0.3808
  107MOL0     C14351   8.472   8.126   2.338 -0.3957 -0.2676 -0.0946
  107MOL0     C14352   8.458   8.195   2.466  0.0530 -0.0928 -0.5378
  107MOL0     C14353   8.592   8.226   2.538  0.0373 -0.8797  0.8399
  107MOL0     C14354   8.592   8.283   2.686 -0.3989 -0.5766 -0.1116
  107MOL0    Cl14355   8.464   8.405   2.720 -0.6757 -0.0837 -0.4380
  107MOL0     C14356   8.471   7.579   1.870  0.4362  0.0814  0.0492
  107MOL0     C14357   8.498   7.483   1.773 -0.4752 -0.0529  0.4224
  107MOL0     O14358   8.529   7.432   1.455 -0.0414 -0.3983  0.0425
  107MOL0     C14359   8.397   7.091   1.430 -0.5361  0.0366 -0.2900
  107MOL0     C14360   8.410   6.973   1.364 -0.0842  1.2163 -0.2185
  107MOL0     N14361   8.471   6.655   0.552 -0.7177  0.4620 -0.1845
  107MOL0     N14362   8.517   6.619   0.445  0.5740  0.7374  0.7214
  107MOL0     C14363   9.825   6.477  -0.109  0.4011 -0.5972 -0.1329
  107MOL0     C14364   9.942   6.550  -0.136 -0.5814 -0.0478  0.1156
  107MOL0     C14365  10.274   6.824   0.001  0.2078 -0.1394  0.5721
  107MOL0     C14366  10.297   6.900  -0.116  0.4785 -0.3079  0.1765
  107MOL0     C14367  10.403   6.991  -0.129 -0.5325  1.0755 -0.5872
  107MOL0     C14368  10.493   7.017  -0.027  0.4529  0.5823 -0.1143
  107MOL0     O14369  10.587   7.113  -0.026  0.1301  0.0618 -0.0768
  107MOL0     C14370  10.591   7.194  -0.134 -1.3114  0.9152 -0.1876
  107MOL0     C14371  10.485   7.301  -0.138 -0.5303 -0.1234  0.1199
  107MOL0     C14372  10.485   7.387  -0.260 -0.1248 -0.2128  1.5272
  107MOL0     C14373  10.375   7.490  -0.250 -0.2807  1.3291  0.2236
  107MOL0     C14374  10.408   7.596  -0.348  0.2881 -0.4769 -0.5698
  107MOL0     C14375  10.430   7.675  -0.438  0.4933 -0.5747 -0.0561
  107MOL0     C14376  10.467   6.934   0.088 -0.5221 -0.0037  0.2574
  107MOL0     C14377  10.358   6.839   0.105  0.2461  0.5426  0.0749
  107MOL0     H14378   9.852   6.853  -0.016 -0.1450  0.5752 -0.8765
  107MOL0     H14379   9.645   6.738   0.015  0.6803  1.5281 -0.1400
  107MOL0     H14380   9.506   6.528   0.138 -3.7468 -1.1556  0.6343
  107MOL0     H14381   9.476   6.636  -0.006 -0.2599  0.1627  1.6783
  107MOL0     H14382   9.317   6.480  -0.084  2.8228  2.2691 -0.6483
  107MOL0     H14383   9.379   6.343   0.006 -4.3846 -1.0740 -0.0583
  107MOL0     H14384   9.322   6.462   0.229 -2.7930 -0.5353  0.3122
  107MOL0     H14385   9.262   6.589   0.138 -1.2699  0.7086 -2.0666
  107MOL0     H14386   9.089   6.424   0.054 -0.1590  2.2740  0.3037
  107MOL0     H14387   9.168   6.300   0.153  1.0731  0.0461 -1.8146
  107MOL0     H14388   9.134   6.423   0.358  2.3384  1.5967 -1.6462
  107MOL0     H14389   9.046   6.549   0.271 -3.1823  0.0160 -1.1951
  107MOL0     H14390   8.868   6.412   0.195 -0.8267  1.2142  1.4641
  107MOL0     H14391   8.943   6.268   0.275 -1.1863 -0.3104  1.8752
  107MOL0     H14392   8.798   6.335   0.439 -0.1139 -1.2904 -2.1161
  107MOL0     H14393   8.916   6.467   0.474  1.9206  0.7047 -1.5449
  107MOL0     H14394   8.674   6.487   0.289  0.2650 -0.2383  0.2702
  107MOL0     H14395   8.785   6.619   0.315 -2.3953  0.1382 -0.7653
  107MOL0     H14396   8.764   6.564   0.646 -1.1945  0.9153  1.9031
  107MOL0     H14397   8.437   6.647   0.823 -0.7909  0.8656  0.4070
  107MOL0     H14398   8.615   6.648   0.860  2.0213 -0.8295 -4.1875
  107MOL0     H14399   8.439   6.871   0.765 -1.4621  0.8577  2.5540
  107MOL0     H14400   8.603   6.906   0.807 -1.2853  2.2998 -2.1630
  107MOL0     H14401   8.364   6.836   0.984  0.4481 -1.4111 -0.8360
  107MOL0     H14402   8.467   6.975   1.004 -3.0136  0.8226 -0.6991
  107MOL0     H14403   8.664   6.833   1.077  0.9746 -0.3396  1.6491
  107MOL0     H14404   8.561   6.696   1.058  3.6061 -0.3908  0.4793
  107MOL0     H14405   8.676   7.049   1.165  0.9020 -0.7605  0.7789
  107MOL0     H14406   8.762   7.276   1.334  1.8192 -1.8439 -2.5980
  107MOL0     H14407   8.724   7.275   1.156  1.6589  1.4602  0.0167
  107MOL0     H14408   8.643   7.385   1.256 -1.4980 -0.9431  0.3689
  107MOL0     H14409   8.188   7.438   1.660 -0.3715  0.6229  0.9719
  107MOL0     H14410   8.141   7.644   1.818 -0.8279 -0.5737  0.7519
  107MOL0     H14411   8.194   7.870   1.923 -0.0074  0.3928 -0.2472
  107MOL0     H14412   8.145   7.734   2.025  0.8747 -0.5261  1.5096
  107MOL0     H14413   8.132   7.942   2.159 -0.2388 -0.5496 -2.1102
  107MOL0     H14414   8.229   7.823   2.219  0.0800 -0.5765 -1.3933
  107MOL0     H14415   8.355   8.073   2.099 -2.2862 -0.5550 -1.7700
  107MOL0     H14416   8.446   7.931   2.160  0.7198  0.6730  0.3678
  107MOL0     H14417   8.261   8.094   2.326 -0.6434 -0.3951 -1.8336
  107MOL0     H14418   8.349   7.947   2.367 -3.1961 -1.0805 -2.0236
  107MOL0     H14419   8.501   8.191   2.255 -0.3022  1.2893  1.1047
  107MOL0     H14420   8.559   8.060   2.350  0.6826  1.4927  3.1701
  107MOL0     H14421   8.396   8.284   2.448  0.4726  0.6294  1.3621
  107MOL0     H14422   8.400   8.131   2.534 -0.7316  1.5318  0.3851
  107MOL0     H14423   8.639   8.305   2.479 -0.3238 -0.2891  1.3257
  107MOL0     H14424   8.647   8.131   2.535 -0.2860 -1.0524 -1.0411
  107MOL0     H14425   8.690   8.327   2.707 -0.0955 -1.9306  1.5548
  107MOL0     H14426   8.587   8.196   2.753 -1.6331  0.0550  0.6462
  107MOL0     H14427   8.553   7.632   1.919 -0.5564  2.8714 -1.0910
  107MOL0     H14428   8.599   7.444   1.768 -1.1729 -2.4275  2.5715
  107MOL0     H14429   8.318   7.111   1.501 -1.7117  0.9233 -1.7751
  107MOL0     H14430   8.347   6.896   1.409 -0.3276  0.4112 -1.8568
  107MOL0     H14431   9.810   6.376  -0.144  1.3868  0.0407 -2.6313
  107MOL0     H14432  10.032   6.510  -0.182 -0.5393  2.0509 -1.7592
  107MOL0     H14433  10.227   6.898  -0.199 -0.2622  0.9898  0.7436
  107MOL0     H14434  10.405   7.056  -0.216  2.2951 -0.2804 -1.6726
  107MOL0     H14435  10.687   7.246  -0.123 -0.6544 -0.7310  2.7690
  107MOL0     H14436  10.597   7.141  -0.230 -1.2486  0.7666 -0.1020
  107MOL0     H14437  10.504   7.362  -0.049  1.1951  1.9595 -1.5515
  107MOL0     H14438  10.388   7.251  -0.125 -0.7243  0.6272  1.8289
  107MOL0     H14439  10.478   7.319  -0.345  2.6907 -3.5268  3.6526
  107MOL0     H14440  10.586   7.430  -0.261 -0.4361  0.5868 -1.1704
  107MOL0     H14441  10.364   7.531  -0.149  0.3644 -0.0773  0.9043
  107MOL0     H14442  10.288   7.427  -0.268  1.6210 -0.7364 -2.7519
  107MOL0     H14443  10.445   7.745  -0.518 -0.4524  2.4578  2.2121
  107MOL0     H14444  10.532   6.957   0.172  0.0793  1.5939 -0.5858
  107MOL0     H14445  10.354   6.797   0.205 -0.3714  0.7359  0.1369
  108MOL0     O14446   9.209   4.982   1.825 -0.2084  0.2517  0.1818
  108MOL0     C14447   9.151   5.089   1.838  0.7395  0.3342 -0.7808
  108MOL0     O14448   9.210   5.195   1.882  0.3391 -0.3832  0.3706
  108MOL0     C14449   9.336   5.194   1.926 -0.4823 -0.6347  0.6632
  108MOL0     C14450   9.410   5.314   1.915 -0.5387  0.1781  0.2804
  108MOL0     C14451   9.547   5.329   1.956 -0.1007 -0.6443 -0.1405
  108MOL0     C14452   9.611   5.220   2.024  0.1510  1.0485  0.2060
  108MOL0     O14453   9.729   5.227   2.085  0.5096 -0.4553 -0.5391
  108MOL0     C14454   9.737   5.323   2.187 -0.1459  0.0462  0.3899
  108MOL0     C14455   9.851   5.280   2.280  0.4934 -0.0104 -1.0028
  108MOL0     C14456   9.816   5.149   2.352  1.0415 -0.1206 -0.2588
  108MOL0     C14457   9.903   5.102   2.469  1.0724  0.7349  0.2679
  108MOL0     C14458   9.895   4.949   2.486 -0.5399  0.5954 -0.4407
  108MOL0     C14459   9.760   4.904   2.543 -0.8856 -0.2315 -0.3587
  108MOL0     C14460   9.731   4.961   2.680  0.0791 -0.6197  0.1250
  108MOL0     C14461   9.614   4.882   2.738  0.7519 -0.0127  0.3652
  108MOL0     N14462   9.569   4.928   2.874  0.7747 -0.4402  0.5276
  108MOL0     C14463   9.602   4.856   2.988  1.1012 -0.2873  0.4472
  108MOL0     C14464   9.538   4.937   3.090 -0.5811 -0.8030  0.6509
  108MOL0     C14465   9.552   4.921   3.244 -0.8131  0.3231 -0.3297
  108MOL0     C14466   9.461   4.807   3.287  0.3311 -0.1568  0.2480
  108MOL0     C14467   9.500   4.782   3.438 -0.1454  0.3175  0.6346
  108MOL0     C14468   9.425   4.674   3.521  0.3802  0.0852  0.0054
  108MOL0     O14469   9.481   4.687   3.655 -0.5472 -0.3472  0.2546
  108MOL0     C14470   9.606   4.636   3.697 -0.1611 -0.6968  0.1822
  108MOL0     C14471   9.647   4.661   3.825  0.5054 -0.3083 -0.9055
  108MOL0     C14472   9.766   4.618   3.873 -0.3269  0.8505  0.3442
  108MOL0     C14473   9.816   4.673   4.003 -0.5860  0.2515 -1.1005
  108MOL0     C14474   9.853   4.535   3.782 -0.9201  0.1315 -0.0898
  108MOL0     C14475   9.994   4.496   3.818  0.0370  0.9938 -1.0142
  108MOL0     O14476  10.040   4.390   3.743  0.1060 -0.2296 -0.2408
  108MOL0     C14477  10.149   4.322   3.789  0.3475  0.6554 -0.0920
  108MOL0     C14478  10.136   4.220   3.890 -0.5164 -0.7009  1.0923
  108MOL0     C14479  10.248   4.148   3.935  0.5533 -0.1420  0.7580
  108MOL0     C14480  10.373   4.171   3.880 -0.6592 -0.2121 -0.1224
  108MOL0     O14481  10.475   4.101   3.913  0.9399  0.1308 -0.0663
  108MOL0     C14482  10.516   4.080   4.051  0.5486 -0.4064 -0.2162
  108MOL0     C14483  10.667   4.118   4.075  0.0021 -0.0958 -0.3708
  108MOL0     C14484  10.693   4.263   4.051  0.2129  0.1751 -0.5642
  108MOL0     C14485  10.836   4.319   4.079 -0.4803  0.1219 -0.3672
  108MOL0     C14486  10.827   4.472   4.096 -0.2344  0.1426  0.7870
  108MOL0     C14487  10.965   4.535   4.094  0.4628 -0.2175 -0.0163
  108MOL0     C14488  10.978   4.684   4.056  0.3590  0.8799  0.5619
  108MOL0     C14489  11.050   4.769   4.148 -0.0596  0.5643  0.1340
  108MOL0    Cl14490  11.048   4.940   4.097  0.0863  0.0303 -0.0387
  108MOL0     C14491  10.381   4.269   3.777 -1.5881  0.1615  0.8664
  108MOL0     C14492  10.271   4.354   3.739 -0.5713 -0.1531  0.3278
  108MOL0     O14493  10.046   4.537   3.923  0.9992  0.8871 -0.2105
  108MOL0     C14494   9.804   4.500   3.658  0.9085 -0.2171  0.5858
  108MOL0     C14495   9.679   4.558   3.612  0.0275  0.5495  0.3898
  108MOL0     N14496   9.472   5.047   3.037  0.2903  0.0372 -0.6826
  108MOL0     N14497   9.494   5.038   2.904  1.0699 -0.2408 -0.1564
  108MOL0     C14498   9.537   5.102   2.049  0.8486  1.0321 -0.0532
  108MOL0     C14499   9.402   5.091   2.004 -0.9015  0.1247 -0.1900
  108MOL0     C14500   9.002   5.104   1.802 -0.5534  0.3778 -0.4687
  108MOL0     C14501   8.924   4.995   1.756 -0.5732  0.8421 -0.9751
  108MOL0     C14502   8.798   5.024   1.709 -0.5680  0.0427 -0.1063
  108MOL0     C14503   8.745   5.157   1.708  0.4927 -0.6108 -0.4597
  108MOL0     O14504   8.618   5.196   1.674  0.3553  0.4355 -0.4281
  108MOL0     C14505   8.533   5.088   1.635 -0.0038  0.7703  0.3148
  108MOL0     C14506   8.562   5.034   1.486 -0.1346 -1.3891  0.6143
  108MOL0     C14507   8.471   4.920   1.457  0.8126  0.2601  0.7303
  108MOL0     C14508   8.493   4.861   1.319  0.1058 -0.4849 -0.7040
  108MOL0     C14509   8.610   4.773   1.325 -0.3251 -1.1880  0.8354
  108MOL0     C14510   8.704   4.691   1.308  0.0907 -0.2830  0.1489
  108MOL0     C14511   8.827   5.259   1.742 -0.9067  0.3856 -0.3942
  108MOL0     C14512   8.956   5.234   1.785 -0.1123 -0.3665  0.5215
  108MOL0     H14513   9.371   5.401   1.863 -0.5464 -1.4075 -2.5819
  108MOL0     H14514   9.594   5.425   1.937 -2.6868  0.8859  0.7036
  108MOL0     H14515   9.765   5.419   2.144 -2.2983  1.1749  1.3223
  108MOL0     H14516   9.651   5.347   2.251  0.4663  4.2980 -0.1244
  108MOL0     H14517   9.944   5.262   2.224  1.1858  3.4590 -1.2044
  108MOL0     H14518   9.874   5.351   2.360  0.3885  0.5352 -1.4462
  108MOL0     H14519   9.717   5.161   2.396  0.4211  2.8030 -2.1803
  108MOL0     H14520   9.806   5.067   2.281 -1.4936 -1.8848  1.9658
  108MOL0     H14521  10.006   5.131   2.445  1.3376  1.0363  1.7006
  108MOL0     H14522   9.888   5.162   2.559  0.1092  3.2863 -1.4921
  108MOL0     H14523   9.907   4.894   2.393  2.4486 -0.3044  0.3818
  108MOL0     H14524   9.981   4.935   2.553 -1.6301  1.1398  1.1467
  108MOL0     H14525   9.669   4.924   2.486 -1.1502 -3.1994 -1.1548
  108MOL0     H14526   9.776   4.796   2.545 -0.6214 -0.1890  1.0987
  108MOL0     H14527   9.817   4.945   2.746 -1.4301  1.3219  2.7177
  108MOL0     H14528   9.709   5.067   2.671  0.6330 -0.7039 -3.9148
  108MOL0     H14529   9.631   4.774   2.739  1.3121  0.0734  2.0184
  108MOL0     H14530   9.529   4.906   2.673  1.2388  0.8104  0.0147
  108MOL0     H14531   9.678   4.779   2.990 -0.8685 -2.3431  1.7181
  108MOL0     H14532   9.658   4.897   3.239 -1.2914 -2.5370 -6.2040
  108MOL0     H14533   9.534   5.019   3.288 -0.2944  1.0100 -1.6011
  108MOL0     H14534   9.470   4.716   3.225 -0.4781 -0.4464  0.5375
  108MOL0     H14535   9.358   4.844   3.287  1.3678  2.9246  0.4545
  108MOL0     H14536   9.489   4.881   3.483 -2.0984  1.8353 -2.8084
  108MOL0     H14537   9.605   4.758   3.452 -0.0132  0.7786  0.4476
  108MOL0     H14538   9.424   4.575   3.475  1.9522 -1.6674  3.3392
  108MOL0     H14539   9.324   4.715   3.529  0.6538  0.4190  2.9659
  108MOL0     H14540   9.575   4.714   3.886  0.7211  1.4072 -2.0927
  108MOL0     H14541   9.853   4.595   4.069 -0.5335 -0.7720 -2.3004
  108MOL0     H14542   9.887   4.754   3.981 -1.3861  1.6676  1.2294
  108MOL0     H14543   9.732   4.718   4.055 -1.0178  0.6764 -2.1340
  108MOL0     H14544  10.040   4.185   3.927 -1.0446 -3.8386 -2.5628
  108MOL0     H14545  10.235   4.081   4.019  0.2603 -0.4887  0.4400
  108MOL0     H14546  10.444   4.130   4.116  1.7893  2.0802 -0.6507
  108MOL0     H14547  10.513   3.972   4.068 -0.4559 -0.8045 -2.4978
  108MOL0     H14548  10.697   4.082   4.173 -1.6932  1.1096  0.6503
  108MOL0     H14549  10.735   4.054   4.017  0.9622 -0.4654  1.1248
  108MOL0     H14550  10.630   4.319   4.121  1.1028 -0.1936  0.5505
  108MOL0     H14551  10.668   4.296   3.950 -0.3788 -0.3905 -0.6107
  108MOL0     H14552  10.879   4.285   4.174 -1.3056 -0.5428 -0.2123
  108MOL0     H14553  10.899   4.292   3.994  0.5600 -0.2247  0.5003
  108MOL0     H14554  10.773   4.484   4.190  0.0177 -1.9159  1.2374
  108MOL0     H14555  10.765   4.505   4.012 -1.0131 -3.3129 -0.1796
  108MOL0     H14556  10.990   4.509   4.197 -1.4714 -3.0696 -0.1514
  108MOL0     H14557  11.035   4.482   4.028 -1.1125 -1.4834 -0.7512
  108MOL0     H14558  10.878   4.729   4.049 -0.2385 -0.4401  0.2640
  108MOL0     H14559  11.023   4.697   3.957 -2.6239 -0.0289 -1.0514
  108MOL0     H14560  11.154   4.739   4.164  0.0732  1.1278  0.3649
  108MOL0     H14561  11.007   4.766   4.248  1.7367  1.0918  0.9604
  108MOL0     H14562  10.470   4.280   3.716 -2.9295 -1.7419 -1.6161
  108MOL0     H14563  10.283   4.425   3.658  3.1239 -0.5503  0.3756
  108MOL0     H14564   9.865   4.435   3.596 -2.2333 -2.5680 -0.3061
  108MOL0     H14565   9.651   4.539   3.509  1.8573 -3.9849  0.4694
  108MOL0     H14566   9.568   5.027   2.121 -0.5872 -1.0035 -1.4524
  108MOL0     H14567   9.350   5.000   2.034  0.3426  0.0533  2.0229
  108MOL0     H14568   8.975   4.900   1.747 -1.8142  0.0449  0.0072
  108MOL0     H14569   8.736   4.936   1.699  1.9230 -1.9407  0.9012
  108MOL0     H14570   8.549   4.998   1.696 -1.1158  0.4444  0.1534
  108MOL0     H14571   8.427   5.117   1.636 -0.0941  0.4573 -0.0552
  108MOL0     H14572   8.665   4.998   1.474  0.4572  0.5598 -0.5825
  108MOL0     H14573   8.548   5.116   1.416  2.0019 -0.5819  1.0530
  108MOL0     H14574   8.370   4.962   1.455  0.7345  0.0603 -0.4266
  108MOL0     H14575   8.467   4.841   1.532 -1.6407 -0.2715  0.1295
  108MOL0     H14576   8.506   4.946   1.250 -0.9809 -0.3456 -0.7632
  108MOL0     H14577   8.409   4.799   1.286  2.2534 -3.0158 -1.7143
  108MOL0     H14578   8.789   4.628   1.296  1.2157  0.7019  2.4513
  108MOL0     H14579   8.792   5.362   1.746  2.6556  1.7234  1.7907
  108MOL0     H14580   9.028   5.314   1.800 -0.4407  0.5182 -2.1429
  109MOL0     O14581   7.433   2.857   7.314  0.5164  0.1435 -0.0363
  109MOL0     C14582   7.382   2.921   7.217  1.1195  1.0506 -0.7282
  109MOL0     O14583   7.341   2.867   7.104  0.1865  0.0331  0.3274
  109MOL0     C14584   7.300   2.740   7.116 -0.1719  0.3227 -0.2266
  109MOL0     C14585   7.189   2.707   7.194 -0.5076 -0.5783 -0.8162
  109MOL0     C14586   7.161   2.575   7.220 -0.7722  0.1494 -0.3915
  109MOL0     C14587   7.225   2.473   7.172  0.5818  0.8263  1.0446
  109MOL0     O14588   7.175   2.344   7.190 -0.9837 -0.2407 -0.5148
  109MOL0     C14589   7.276   2.241   7.192 -0.1283  1.3130 -0.0886
  109MOL0     C14590   7.214   2.111   7.256  0.0863 -0.1690  0.2306
  109MOL0     C14591   7.294   1.981   7.236 -0.1196 -0.3646  0.7361
  109MOL0     C14592   7.269   1.876   7.330  1.1424  0.4852  0.9035
  109MOL0     C14593   7.333   1.875   7.473  0.3992 -0.9294 -0.0214
  109MOL0     C14594   7.341   1.735   7.532  0.0261 -0.5386 -0.2064
  109MOL0     C14595   7.463   1.653   7.485  0.1061  0.4936 -0.2513
  109MOL0     C14596   7.495   1.533   7.558 -0.9120  1.3202 -0.0475
  109MOL0     N14597   7.624   1.470   7.507 -0.6861  0.1162  0.4338
  109MOL0     C14598   7.684   1.481   7.384 -0.0546 -0.2079 -0.7470
  109MOL0     C14599   7.802   1.424   7.399  0.2139  0.5557 -0.5831
  109MOL0     C14600   7.882   1.440   7.273  0.1167 -0.3099  0.5780
  109MOL0     C14601   7.827   1.361   7.152 -0.2400 -0.0314  0.5789
  109MOL0     C14602   7.929   1.398   7.034 -0.1539  0.2134  0.5575
  109MOL0     C14603   7.908   1.531   6.967 -0.3999  0.1527 -0.8913
  109MOL0     O14604   7.789   1.593   7.003  0.6143 -0.0714 -0.0427
  109MOL0     C14605   7.753   1.708   6.937 -0.0715 -0.0079  0.4421
  109MOL0     C14606   7.830   1.782   6.841 -0.3023 -1.1209 -0.2959
  109MOL0     C14607   7.796   1.919   6.806  1.0760  0.6910 -0.1659
  109MOL0     C14608   7.891   2.001   6.725 -0.3073 -0.0725  0.3061
  109MOL0     C14609   7.671   1.976   6.847 -0.4485  0.1328  0.7989
  109MOL0     C14610   7.623   2.116   6.814 -0.8104  0.1214  0.1270
  109MOL0     O14611   7.655   2.186   6.701 -0.1766  0.0731  0.6031
  109MOL0     C14612   7.602   2.310   6.683 -0.2047 -0.4792  0.2625
  109MOL0     C14613   7.459   2.314   6.665 -0.3146  0.9277  0.3035
  109MOL0     C14614   7.391   2.430   6.649  0.6100  0.6274 -0.5456
  109MOL0     C14615   7.465   2.555   6.640  1.1796  1.0243 -0.2110
  109MOL0     O14616   7.400   2.681   6.639 -0.0861  0.0232 -0.2852
  109MOL0     C14617   7.279   2.706   6.705 -0.6397  0.2469  0.1241
  109MOL0     C14618   7.239   2.850   6.704 -1.0511  0.7277 -0.5276
  109MOL0     C14619   7.260   2.924   6.572 -0.4107  0.0029  0.7899
  109MOL0     C14620   7.211   3.074   6.594 -0.3168  0.2072  0.8881
  109MOL0     C14621   7.206   3.158   6.456 -0.4496  0.0810  0.3462
  109MOL0     C14622   7.254   3.305   6.456 -0.1299  0.1093 -0.3178
  109MOL0     C14623   7.139   3.414   6.446  0.6227 -0.3423 -0.8070
  109MOL0     C14624   7.102   3.443   6.294  0.6973 -0.1683  0.4504
  109MOL0    Cl14625   6.931   3.399   6.243  0.1192  0.2449 -0.2070
  109MOL0     C14626   7.601   2.544   6.644 -0.5461  0.8475  0.8889
  109MOL0     C14627   7.675   2.426   6.666 -0.2043 -0.0167 -0.5451
  109MOL0     O14628   7.548   2.165   6.904 -0.7848  0.5561  0.0288
  109MOL0     C14629   7.597   1.895   6.934  0.1215 -0.5297 -0.8917
  109MOL0     C14630   7.638   1.763   6.975 -0.8425 -0.0951 -0.3607
  109MOL0     N14631   7.823   1.380   7.532 -0.3053  0.6630  0.5656
  109MOL0     N14632   7.713   1.413   7.589  0.6653  0.0468  0.1941
  109MOL0     C14633   7.335   2.500   7.088  0.8816  0.6352 -0.1025
  109MOL0     C14634   7.376   2.631   7.068  0.2355 -0.2165  0.4947
  109MOL0     C14635   7.378   3.066   7.217  0.2571  0.3910 -0.9176
  109MOL0     C14636   7.446   3.138   7.321 -1.3045 -0.6946  1.3806
  109MOL0     C14637   7.454   3.275   7.308  0.1434 -0.6679  0.5906
  109MOL0     C14638   7.419   3.351   7.196  0.1898  0.5010 -0.0147
  109MOL0     O14639   7.460   3.485   7.189 -0.1134  0.2734  0.4917
  109MOL0     C14640   7.465   3.550   7.059 -0.6649  0.7487 -0.3140
  109MOL0     C14641   7.345   3.647   7.016 -0.3030  0.3585 -0.5046
  109MOL0     C14642   7.352   3.706   6.875 -0.3211  0.8904  0.9627
  109MOL0     C14643   7.341   3.592   6.763  0.2067 -0.0052 -0.6567
  109MOL0     C14644   7.231   3.505   6.784 -0.2165 -0.3600 -0.3919
  109MOL0     C14645   7.129   3.455   6.821 -0.0521 -0.9939  0.3769
  109MOL0     C14646   7.345   3.283   7.099  0.3685 -0.8284 -0.9380
  109MOL0     C14647   7.337   3.140   7.102 -0.5898 -0.2004  0.0120
  109MOL0     H14648   7.132   2.781   7.249  2.2399 -0.4165  2.0804
  109MOL0     H14649   7.064   2.553   7.262 -1.7059  3.5423 -0.5580
  109MOL0     H14650   7.317   2.214   7.094  1.2703 -0.5072  0.9203
  109MOL0     H14651   7.362   2.278   7.247 -0.2656  3.1059 -1.0222
  109MOL0     H14652   7.206   2.136   7.362  4.3316 -3.4536  1.5756
  109MOL0     H14653   7.112   2.104   7.216 -1.0501  1.6373  2.5545
  109MOL0     H14654   7.266   1.942   7.137  1.1442 -0.1463  0.2752
  109MOL0     H14655   7.401   2.002   7.236  0.1158 -1.0501 -2.5604
  109MOL0     H14656   7.164   1.849   7.347  1.4443 -0.2145  1.7630
  109MOL0     H14657   7.310   1.791   7.276 -1.4992  0.2431 -0.8832
  109MOL0     H14658   7.430   1.924   7.465 -0.4364  1.0252  1.2911
  109MOL0     H14659   7.264   1.934   7.532  3.4837  2.9206  0.1207
  109MOL0     H14660   7.372   1.743   7.636  3.3243 -0.0655 -1.1122
  109MOL0     H14661   7.254   1.668   7.522  2.2820 -3.9316  1.0796
  109MOL0     H14662   7.446   1.625   7.380  0.3049 -0.5010 -0.0323
  109MOL0     H14663   7.551   1.717   7.482 -1.3092  2.5019 -1.3817
  109MOL0     H14664   7.412   1.463   7.547  0.6140 -0.3539 -1.6643
  109MOL0     H14665   7.506   1.551   7.666  3.1868  0.7566 -0.2392
  109MOL0     H14666   7.643   1.532   7.298 -1.4515 -2.1553 -1.2960
  109MOL0     H14667   7.906   1.546   7.257 -0.5085 -0.4386 -1.5317
  109MOL0     H14668   7.975   1.390   7.302  0.2843 -0.6299 -0.4752
  109MOL0     H14669   7.726   1.372   7.112 -0.1645 -0.1423  0.3520
  109MOL0     H14670   7.835   1.252   7.165  0.3879 -0.1769 -0.7499
  109MOL0     H14671   7.913   1.334   6.947 -0.8282  0.0386  0.8053
  109MOL0     H14672   8.033   1.394   7.067  0.5294  0.6439 -1.3844
  109MOL0     H14673   7.901   1.516   6.859  1.9030 -0.5441 -0.9839
  109MOL0     H14674   7.992   1.597   6.989  0.2336 -0.3007 -1.9159
  109MOL0     H14675   7.921   1.733   6.810  1.4136 -0.5409  3.2641
  109MOL0     H14676   7.901   2.102   6.765 -0.6830  0.3417 -0.6000
  109MOL0     H14677   7.993   1.962   6.729  0.3592  1.4350 -0.9858
  109MOL0     H14678   7.857   2.023   6.623  1.3151  1.9852  0.1400
  109MOL0     H14679   7.401   2.223   6.678  0.3184  0.1322 -1.8994
  109MOL0     H14680   7.283   2.442   6.651  0.1688 -2.6051 -0.0008
  109MOL0     H14681   7.193   2.651   6.665 -2.1965  0.8603  2.4657
  109MOL0     H14682   7.299   2.675   6.808  2.3529  1.9034  0.1618
  109MOL0     H14683   7.134   2.866   6.730 -1.0237 -0.8831  0.7076
  109MOL0     H14684   7.295   2.905   6.781 -2.9461  0.6010  1.0251
  109MOL0     H14685   7.209   2.877   6.487  3.0069 -0.9098 -0.9421
  109MOL0     H14686   7.367   2.923   6.554 -0.5112  1.9276 -0.1926
  109MOL0     H14687   7.106   3.071   6.625 -1.1193  1.0843 -1.5236
  109MOL0     H14688   7.264   3.128   6.674 -0.0792 -0.8788  1.4953
  109MOL0     H14689   7.105   3.147   6.415 -0.2295 -1.4975  0.1711
  109MOL0     H14690   7.264   3.098   6.385 -0.5974  0.3358  0.0066
  109MOL0     H14691   7.315   3.315   6.546  0.5934 -1.7715 -0.5465
  109MOL0     H14692   7.318   3.321   6.369 -2.3296  2.4461 -1.6318
  109MOL0     H14693   7.183   3.490   6.511  3.1775 -2.8806  0.6472
  109MOL0     H14694   7.045   3.379   6.490 -0.6762 -0.0514 -3.1688
  109MOL0     H14695   7.173   3.390   6.229 -1.5434 -0.2217 -2.1157
  109MOL0     H14696   7.115   3.551   6.289  1.3907 -0.2566  0.2606
  109MOL0     H14697   7.662   2.627   6.612  2.0809 -0.9460  0.9797
  109MOL0     H14698   7.783   2.413   6.664 -0.4208 -2.1093 -0.7054
  109MOL0     H14699   7.504   1.935   6.972  0.6441  2.2890 -2.2947
  109MOL0     H14700   7.581   1.715   7.054  3.1178 -0.4197  2.6072
  109MOL0     H14701   7.388   2.422   7.035 -0.2796 -0.8755  0.8621
  109MOL0     H14702   7.458   2.647   6.998  0.5236 -4.6300 -0.4436
  109MOL0     H14703   7.483   3.093   7.413 -0.1262 -0.7729  0.8913
  109MOL0     H14704   7.501   3.327   7.391 -0.0305  0.5020 -0.0244
  109MOL0     H14705   7.553   3.614   7.063  2.5623 -3.2171 -1.1386
  109MOL0     H14706   7.487   3.478   6.979  1.1782  0.7868  0.1241
  109MOL0     H14707   7.350   3.725   7.093  3.9221 -2.8170  3.0013
  109MOL0     H14708   7.253   3.592   7.036  1.0654 -1.1381  2.4120
  109MOL0     H14709   7.432   3.780   6.876 -0.9934  1.6230  1.7984
  109MOL0     H14710   7.268   3.775   6.859 -0.5747  0.3181 -0.3758
  109MOL0     H14711   7.435   3.536   6.766  0.2867  0.1732  0.3131
  109MOL0     H14712   7.333   3.642   6.666  4.0232  1.8629 -0.1857
  109MOL0     H14713   7.039   3.410   6.857  0.4045 -1.7616  0.5944
  109MOL0     H14714   7.298   3.345   7.024 -1.7155  0.6228  1.3967
  109MOL0     H14715   7.303   3.081   7.017 -1.8593  2.5907 -1.5734
  110MOL0     O14716   3.461   8.273  10.191 -0.0808  0.4545  0.0592
  110MOL0     C14717   3.378   8.195  10.154  0.5611 -0.1408  0.2324
  110MOL0     O14718   3.370   8.061  10.204 -0.2089  0.0774  0.1232
  110MOL0     C14719   3.464   8.020  10.295  0.4765  0.2861  0.1582
  110MOL0     C14720   3.424   7.978  10.426  0.1793  0.7306 -0.0016
  110MOL0     C14721   3.520   7.900  10.499  0.5040  0.0125  0.1101
  110MOL0     C14722   3.654   7.882  10.450 -1.0551  0.6041 -0.8263
  110MOL0     O14723   3.744   7.844  10.540  1.1049  0.2730 -0.5041
  110MOL0     C14724   3.876   7.799  10.489 -0.3488  0.8542  0.4490
  110MOL0     C14725   3.943   7.711  10.598  0.8385  0.1275 -1.0372
  110MOL0     C14726   3.938   7.753  10.742  0.3060  0.3746  0.4348
  110MOL0     C14727   4.010   7.888  10.753  0.5383  0.1589 -0.8736
  110MOL0     C14728   4.053   7.922  10.898  0.4950  0.5397  0.3961
  110MOL0     C14729   4.180   7.856  10.969 -0.0736  0.1276  0.0552
  110MOL0     C14730   4.310   7.850  10.885 -0.3920  0.6605  0.8011
  110MOL0     C14731   4.370   7.982  10.865 -0.4171  0.2629 -0.2805
  110MOL0     N14732   4.433   8.039  10.986  0.4396  0.6728  0.4787
  110MOL0     C14733   4.496   7.973  11.089 -0.3523  0.1793 -0.7382
  110MOL0     C14734   4.521   8.058  11.185  0.6476 -0.2279 -0.4392
  110MOL0     C14735   4.567   8.018  11.325  0.1348 -0.5723  0.4984
  110MOL0     C14736   4.722   8.028  11.346  0.6401 -0.0055 -0.1697
  110MOL0     C14737   4.797   7.910  11.264  0.0642 -0.0399 -0.6728
  110MOL0     C14738   4.952   7.939  11.261  0.3335  1.1078 -0.0437
  110MOL0     O14739   5.011   7.835  11.175  0.9943 -0.2104 -0.4410
  110MOL0     C14740   5.134   7.791  11.201 -0.5614  0.4438 -0.3428
  110MOL0     C14741   5.171   7.691  11.113 -0.0324 -0.3095 -0.3134
  110MOL0     C14742   5.297   7.630  11.116 -0.2205  0.0485  0.0971
  110MOL0     C14743   5.323   7.527  11.018  0.2230  0.8954 -0.4946
  110MOL0     C14744   5.381   7.662  11.217  0.8574 -0.2266 -0.4079
  110MOL0     C14745   5.512   7.597  11.230  0.4559  0.0973 -0.1520
  110MOL0     O14746   5.604   7.606  11.139  0.8960  0.1655  1.1585
  110MOL0     C14747   5.693   7.505  11.121  0.3134 -0.1725  0.2908
  110MOL0     C14748   5.823   7.547  11.125  0.3375  0.4408 -0.8717
  110MOL0     C14749   5.929   7.464  11.077 -0.0676  0.1049  0.6134
  110MOL0     C14750   5.906   7.335  11.023  0.4004  0.6135 -0.3166
  110MOL0     O14751   6.006   7.268  10.962 -0.0542 -0.2842  0.5220
  110MOL0     C14752   6.130   7.265  11.022  1.0769  0.2868 -0.3711
  110MOL0     C14753   6.210   7.162  10.955  0.0932  0.4246  0.0453
  110MOL0     C14754   6.325   7.103  11.028 -0.2879 -1.0346  0.0938
  110MOL0     C14755   6.457   7.168  10.983  0.3841  0.0489  0.2390
  110MOL0     C14756   6.524   7.132  10.848 -0.7277 -0.4825 -0.2482
  110MOL0     C14757   6.572   6.978  10.829  0.9259 -1.1820  0.2168
  110MOL0     C14758   6.649   6.966  10.707  0.6524 -0.8980  0.5647
  110MOL0     C14759   6.790   7.008  10.725 -0.9838  0.0536 -0.4607
  110MOL0    Cl14760   6.841   7.179  10.775  0.3271  0.2172  0.0264
  110MOL0     C14761   5.773   7.284  11.037 -0.1065  0.7252 -0.2011
  110MOL0     C14762   5.667   7.370  11.085 -0.5666 -0.6569 -0.4139
  110MOL0     O14763   5.537   7.555  11.349  0.0666  0.0856  0.3253
  110MOL0     C14764   5.342   7.750  11.325 -0.5991 -0.1081  0.1627
  110MOL0     C14765   5.221   7.822  11.312  0.4854  0.0317  0.4947
  110MOL0     N14766   4.492   8.180  11.126 -0.7755  0.4204 -0.0583
  110MOL0     N14767   4.455   8.170  11.008 -0.5338  1.2266  1.3355
  110MOL0     C14768   3.686   7.921  10.313  0.2241 -0.5840  1.0746
  110MOL0     C14769   3.582   7.972  10.244 -0.0897  0.4996  0.4742
  110MOL0     C14770   3.284   8.246  10.052  0.0216 -0.3298  0.2829
  110MOL0     C14771   3.206   8.149   9.989  0.3152  0.0782  0.4556
  110MOL0     C14772   3.125   8.189   9.879 -0.5511  0.3678 -0.2510
  110MOL0     C14773   3.123   8.316   9.831  0.6092 -0.5202  0.1807
  110MOL0     O14774   3.050   8.360   9.724 -0.6996  0.2245 -0.2186
  110MOL0     C14775   2.916   8.311   9.727  0.8307  0.7392 -0.4581
  110MOL0     C14776   2.830   8.380   9.621 -0.5986 -0.3851  0.0679
  110MOL0     C14777   2.831   8.536   9.640 -0.2572  0.4944  0.8195
  110MOL0     C14778   2.693   8.590   9.595  0.6089 -0.4917  0.2888
  110MOL0     C14779   2.672   8.594   9.453  0.1992 -0.8703 -0.0388
  110MOL0     C14780   2.649   8.593   9.339  0.5200 -0.4402 -0.5478
  110MOL0     C14781   3.196   8.416   9.899  0.3266  0.0579 -0.8005
  110MOL0     C14782   3.275   8.382  10.015  0.4034  0.0134  0.2196
  110MOL0     H14783   3.322   7.978  10.463 -0.2821 -3.1581 -0.7892
  110MOL0     H14784   3.485   7.853  10.591 -1.3565 -2.0309 -1.5107
  110MOL0     H14785   3.870   7.748  10.393 -1.9320  0.4276  0.7574
  110MOL0     H14786   3.945   7.884  10.478  2.1455 -0.3771  4.2500
  110MOL0     H14787   3.900   7.612  10.583 -0.9007  0.7395 -0.4173
  110MOL0     H14788   4.048   7.715  10.569  0.6146 -1.7449 -2.2937
  110MOL0     H14789   3.833   7.773  10.768  0.6228 -0.4403  2.5755
  110MOL0     H14790   3.975   7.676  10.810  3.7081  1.7203  0.2757
  110MOL0     H14791   4.100   7.890  10.690  1.9005 -1.8701  0.8730
  110MOL0     H14792   3.940   7.967  10.723  0.0401  0.8692  1.8847
  110MOL0     H14793   4.079   8.028  10.902  0.7457  0.4705  0.6421
  110MOL0     H14794   3.970   7.903  10.968  1.1622 -1.3628  0.7362
  110MOL0     H14795   4.203   7.899  11.067 -2.0028 -1.1278  1.1318
  110MOL0     H14796   4.163   7.751  10.994  0.4352 -0.1340 -0.6680
  110MOL0     H14797   4.385   7.795  10.943  2.4264  4.3181  1.0428
  110MOL0     H14798   4.292   7.793  10.794  3.8805  0.5004 -0.1705
  110MOL0     H14799   4.307   8.064  10.828 -0.3067 -0.5366 -2.3679
  110MOL0     H14800   4.451   7.972  10.792  0.7087  0.6491  0.8792
  110MOL0     H14801   4.504   7.867  11.107  1.7152 -0.0920 -2.8618
  110MOL0     H14802   4.519   8.096  11.385 -1.1431  1.6587 -3.0622
  110MOL0     H14803   4.535   7.922  11.366 -1.6084  0.0677  0.7254
  110MOL0     H14804   4.739   8.014  11.453 -2.1188 -0.2129  0.3213
  110MOL0     H14805   4.747   8.125  11.302 -1.8555 -0.2388 -2.4114
  110MOL0     H14806   4.773   7.909  11.157  2.2783  0.9800 -1.2382
  110MOL0     H14807   4.767   7.809  11.293 -3.7693  0.4909 -2.2307
  110MOL0     H14808   4.986   7.922  11.364 -0.2716 -1.8560 -0.2520
  110MOL0     H14809   4.975   8.038  11.220 -2.3802  1.6648 -0.3881
  110MOL0     H14810   5.109   7.656  11.030  1.2322  1.4762 -2.0925
  110MOL0     H14811   5.277   7.568  10.927 -0.1905 -1.5154 -1.4319
  110MOL0     H14812   5.427   7.502  10.998  0.2794  1.6377 -1.1926
  110MOL0     H14813   5.262   7.440  11.044  0.1705  1.0551 -0.0893
  110MOL0     H14814   5.849   7.648  11.155 -2.8491  0.4664  2.3800
  110MOL0     H14815   6.030   7.503  11.078  0.1257 -0.2963  2.7614
  110MOL0     H14816   6.173   7.366  11.019  0.5161  0.5780  0.9647
  110MOL0     H14817   6.112   7.246  11.128  0.7758  1.8719 -0.1020
  110MOL0     H14818   6.135   7.085  10.935  0.5932 -0.0327 -0.0868
  110MOL0     H14819   6.242   7.208  10.861 -2.3221  1.7426 -0.2316
  110MOL0     H14820   6.324   6.997  11.001  1.0372 -0.6708 -1.5437
  110MOL0     H14821   6.316   7.112  11.137 -0.9407  1.2385 -0.0770
  110MOL0     H14822   6.435   7.273  11.004 -0.4603 -0.4317  1.9447
  110MOL0     H14823   6.546   7.148  11.044  0.7766 -0.0750 -0.3721
  110MOL0     H14824   6.613   7.196  10.844 -1.1521  0.3908  2.2663
  110MOL0     H14825   6.458   7.169  10.769 -0.7630  0.9280  0.4070
  110MOL0     H14826   6.635   6.956  10.916  1.8232  1.2865  0.2643
  110MOL0     H14827   6.479   6.921  10.836 -0.9098  1.7760  2.8681
  110MOL0     H14828   6.596   7.018  10.627  2.4796 -2.3434 -1.7168
  110MOL0     H14829   6.640   6.861  10.678  1.5643 -1.0835  0.9429
  110MOL0     H14830   6.838   7.002  10.626  0.2572  1.7371 -0.0166
  110MOL0     H14831   6.834   6.940  10.798  1.6975  1.7763 -0.3003
  110MOL0     H14832   5.730   7.192  11.000 -1.7512  1.7989 -1.0990
  110MOL0     H14833   5.564   7.335  11.085 -0.7665 -0.0877 -0.0862
  110MOL0     H14834   5.403   7.775  11.411 -2.4570  2.1028  0.9627
  110MOL0     H14835   5.191   7.894  11.388  0.1329 -0.2104  0.5881
  110MOL0     H14836   3.786   7.913  10.274  1.2323  2.2676  2.7828
  110MOL0     H14837   3.595   7.989  10.138  1.2623  1.3184  0.7530
  110MOL0     H14838   3.221   8.045  10.015 -3.4745 -0.0204  3.0285
  110MOL0     H14839   3.071   8.125   9.809 -0.4816  2.7847 -2.6638
  110MOL0     H14840   2.909   8.207   9.695 -1.3665  0.9154 -0.7334
  110MOL0     H14841   2.869   8.307   9.826 -1.9185 -1.6020 -1.6793
  110MOL0     H14842   2.726   8.347   9.626 -1.4435  2.1066  0.5757
  110MOL0     H14843   2.870   8.346   9.525 -0.3581 -1.8525  0.6597
  110MOL0     H14844   2.914   8.590   9.594  0.7391 -1.9807 -0.4348
  110MOL0     H14845   2.846   8.555   9.747  1.5831  1.2261  0.4803
  110MOL0     H14846   2.681   8.689   9.639  0.3459 -0.4065  0.0284
  110MOL0     H14847   2.613   8.525   9.631 -1.3962 -0.1886 -3.1725
  110MOL0     H14848   2.618   8.599   9.236 -1.7707  2.4239  0.1512
  110MOL0     H14849   3.197   8.521   9.870  2.0737  0.6972  1.3011
  110MOL0     H14850   3.334   8.459  10.064 -3.2377  2.0843  1.7087
  111MOL0     O14851   4.686  11.220   6.592  0.6582  0.0284 -0.4183
  111MOL0     C14852   4.585  11.178   6.647 -0.2876 -0.2184  0.4717
  111MOL0     O14853   4.457  11.153   6.581 -0.3241 -1.5292  0.9747
  111MOL0     C14854   4.440  11.168   6.442  0.4994  0.5368 -0.5002
  111MOL0     C14855   4.542  11.152   6.347  0.5134  0.1377  0.8605
  111MOL0     C14856   4.521  11.144   6.210  0.8739  0.0457 -0.0079
  111MOL0     C14857   4.396  11.187   6.163 -0.1115 -1.0350  0.2851
  111MOL0     O14858   4.393  11.217   6.028  0.0879 -0.3370 -0.3282
  111MOL0     C14859   4.280  11.297   5.979 -0.0609 -0.0045  0.5967
  111MOL0     C14860   4.298  11.448   5.999  0.6083 -0.1641 -0.9301
  111MOL0     C14861   4.165  11.530   5.974 -0.0377  0.5495  0.3817
  111MOL0     C14862   4.109  11.539   5.828  0.4069  0.2371  0.2948
  111MOL0     C14863   3.999  11.641   5.808  1.0856  0.5652  0.7997
  111MOL0     C14864   3.870  11.623   5.886  0.0661 -0.3298 -0.1611
  111MOL0     C14865   3.785  11.746   5.868 -0.2874 -0.7843  0.9234
  111MOL0     C14866   3.745  11.786   5.725  0.4873 -0.1247  0.2244
  111MOL0     N14867   3.665  11.911   5.706  0.7175 -0.3698 -0.0122
  111MOL0     C14868   3.734  12.032   5.702 -0.2460  0.2302  0.8387
  111MOL0     C14869   3.645  12.115   5.644 -0.6579  0.1159  0.1855
  111MOL0     C14870   3.668  12.249   5.593  0.3387  0.4411  0.7865
  111MOL0     C14871   3.728  12.345   5.690  0.2153 -0.2652  0.0316
  111MOL0     C14872   3.747  12.481   5.628 -1.3182  1.1047 -0.0296
  111MOL0     C14873   3.880  12.500   5.562  0.2207 -0.0820 -0.4637
  111MOL0     O14874   3.983  12.553   5.646 -0.3769  0.0153  0.3773
  111MOL0     C14875   3.994  12.690   5.653 -0.3286  0.3904  0.1638
  111MOL0     C14876   4.106  12.744   5.717  0.2838  0.0241  0.4382
  111MOL0     C14877   4.128  12.881   5.737 -0.1470 -0.5708  0.7355
  111MOL0     C14878   4.248  12.920   5.818  0.0648  0.6181  0.1525
  111MOL0     C14879   4.046  12.977   5.672 -0.4153  0.4387 -0.3588
  111MOL0     C14880   4.054  13.124   5.688  0.2082 -0.1264  1.1510
  111MOL0     O14881   3.943  13.190   5.624 -0.2615 -0.7856 -0.3551
  111MOL0     C14882   3.957  13.320   5.580  1.0161  0.1987 -0.6150
  111MOL0     C14883   3.957  13.334   5.439  0.2945  0.1832 -0.6030
  111MOL0     C14884   3.976  13.457   5.381  0.5175 -0.0054  0.3022
  111MOL0     C14885   3.992  13.565   5.465  0.4455  0.0480  0.1241
  111MOL0     O14886   4.036  13.681   5.406  0.5542 -0.1389  0.3907
  111MOL0     C14887   4.163  13.673   5.339 -0.1225  0.4694  0.1382
  111MOL0     C14888   4.154  13.657   5.186  0.3585  0.0676  0.8699
  111MOL0     C14889   4.046  13.757   5.120 -0.3491 -0.0857 -0.7367
  111MOL0     C14890   4.078  13.786   4.973  0.5475 -0.8359 -0.8916
  111MOL0     C14891   3.980  13.888   4.906 -0.5260  0.6366  0.1381
  111MOL0     C14892   4.008  13.897   4.755  0.0615  0.4302  0.8367
  111MOL0     C14893   3.910  13.973   4.681  0.0290 -0.2133 -0.0299
  111MOL0     C14894   3.933  13.994   4.533 -0.6342  0.1893  0.5878
  111MOL0    Cl14895   3.988  13.847   4.455  0.1695  0.2005 -0.6146
  111MOL0     C14896   4.003  13.546   5.600  0.0283 -0.5246 -0.4554
  111MOL0     C14897   3.980  13.429   5.662 -0.4856 -0.5247 -0.4206
  111MOL0     O14898   4.137  13.176   5.758  0.0799 -0.0805  0.6998
  111MOL0     C14899   3.932  12.921   5.606  0.5082 -0.5133  0.3412
  111MOL0     C14900   3.905  12.780   5.602  1.2115 -1.0720 -0.7085
  111MOL0     N14901   3.531  12.044   5.610 -0.0551 -0.3173 -0.1810
  111MOL0     N14902   3.549  11.921   5.640  0.1779  0.4439 -0.0913
  111MOL0     C14903   4.306  11.232   6.248 -0.0032 -1.1636 -1.2247
  111MOL0     C14904   4.312  11.213   6.383 -0.4006 -0.2417  0.6679
  111MOL0     C14905   4.610  11.150   6.789 -0.7115  0.1391 -0.6125
  111MOL0     C14906   4.741  11.101   6.822  0.9282  0.4287 -0.2161
  111MOL0     C14907   4.769  11.097   6.958 -0.4773  0.3443 -0.1575
  111MOL0     C14908   4.673  11.117   7.063 -0.2323 -0.8223  0.2816
  111MOL0     O14909   4.699  11.135   7.192 -0.3504  0.1355 -0.4381
  111MOL0     C14910   4.829  11.196   7.216  0.2978 -0.6119  0.0621
  111MOL0     C14911   4.818  11.348   7.211 -0.0038 -0.1931  0.4326
  111MOL0     C14912   4.954  11.417   7.215  0.6855 -0.1251 -0.6036
  111MOL0     C14913   4.953  11.554   7.263  0.1924 -0.9069 -0.7641
  111MOL0     C14914   4.854  11.644   7.195  0.3799 -0.6231 -0.3465
  111MOL0     C14915   4.775  11.721   7.149 -0.1291  0.5360 -0.9138
  111MOL0     C14916   4.540  11.143   7.017  0.0663 -0.1807 -0.4762
  111MOL0     C14917   4.510  11.156   6.883  0.8360 -0.0995 -0.0719
  111MOL0     H14918   4.635  11.110   6.385 -1.0205 -2.3746  2.0665
  111MOL0     H14919   4.598  11.111   6.140 -2.3490 -2.9556 -2.5333
  111MOL0     H14920   4.275  11.272   5.873  0.5373 -0.8708  0.7614
  111MOL0     H14921   4.186  11.258   6.020 -0.0678 -0.1507  0.4409
  111MOL0     H14922   4.318  11.460   6.106  4.2675 -1.5313 -1.3290
  111MOL0     H14923   4.379  11.488   5.937  1.6189 -2.0526 -0.9166
  111MOL0     H14924   4.089  11.511   6.050  0.2940  1.7778  1.0458
  111MOL0     H14925   4.205  11.631   5.992  0.1502  0.3354  1.2280
  111MOL0     H14926   4.194  11.568   5.767 -0.1651  1.8711  0.2252
  111MOL0     H14927   4.079  11.441   5.788  1.1199 -0.6929  1.9336
  111MOL0     H14928   4.040  11.741   5.826 -0.4620  1.2542  0.6541
  111MOL0     H14929   3.977  11.641   5.701 -1.1231  2.4076  1.1766
  111MOL0     H14930   3.815  11.538   5.847  1.7446 -0.0816 -3.4520
  111MOL0     H14931   3.895  11.612   5.992 -0.7698 -0.9349 -0.0248
  111MOL0     H14932   3.697  11.746   5.933 -2.0652 -0.2955 -1.3832
  111MOL0     H14933   3.844  11.828   5.911 -0.0032  0.1187 -1.0915
  111MOL0     H14934   3.675  11.711   5.687 -1.1623  1.0832  0.7838
  111MOL0     H14935   3.831  11.777   5.658  0.5896  0.2304  0.3102
  111MOL0     H14936   3.838  12.045   5.727 -0.1024  2.2382 -0.6098
  111MOL0     H14937   3.740  12.238   5.512 -0.9081 -1.7648 -0.1094
  111MOL0     H14938   3.571  12.289   5.560 -1.8239 -1.4951  4.1708
  111MOL0     H14939   3.824  12.313   5.730  1.8213  0.4575 -2.9952
  111MOL0     H14940   3.653  12.370   5.766 -0.8152  2.8105 -1.8168
  111MOL0     H14941   3.735  12.558   5.706  0.4931 -0.1692  1.5936
  111MOL0     H14942   3.677  12.499   5.546 -1.5389 -0.5605 -0.2372
  111MOL0     H14943   3.877  12.552   5.466 -1.1556 -2.0924 -1.5856
  111MOL0     H14944   3.923  12.408   5.520 -0.1643 -2.1091  3.1284
  111MOL0     H14945   4.160  12.666   5.769  0.4547 -0.9011 -1.0775
  111MOL0     H14946   4.305  12.986   5.753 -2.6739  1.6330 -1.3459
  111MOL0     H14947   4.214  12.963   5.913  1.0502  1.1919  0.2595
  111MOL0     H14948   4.308  12.834   5.851 -1.6043 -0.5850  0.1650
  111MOL0     H14949   3.959  13.248   5.373  1.6988  0.1834 -0.5934
  111MOL0     H14950   3.968  13.465   5.273  0.3336 -1.3584  0.1959
  111MOL0     H14951   4.223  13.763   5.356 -0.2998  1.4553 -3.5681
  111MOL0     H14952   4.222  13.595   5.389  0.1234  2.0713  2.4995
  111MOL0     H14953   4.252  13.689   5.150 -0.1547  2.7405  1.6843
  111MOL0     H14954   4.117  13.555   5.167 -4.1468  1.3578  1.4721
  111MOL0     H14955   4.059  13.846   5.183 -1.5486 -0.9335  0.7890
  111MOL0     H14956   3.944  13.721   5.136  0.5366 -1.8279  1.7552
  111MOL0     H14957   4.178  13.830   4.970  1.0874 -1.9137  0.1205
  111MOL0     H14958   4.073  13.690   4.920  0.4814 -2.2047  1.4189
  111MOL0     H14959   3.997  13.985   4.954  5.0738  0.2234 -0.3843
  111MOL0     H14960   3.878  13.862   4.934 -0.7672  1.7523  0.3364
  111MOL0     H14961   4.111  13.927   4.730  1.2006 -3.2849  0.5006
  111MOL0     H14962   4.005  13.797   4.711  2.1198 -0.6646  2.9313
  111MOL0     H14963   3.906  14.071   4.730 -0.2174  0.3571 -1.1623
  111MOL0     H14964   3.811  13.927   4.689 -0.3311  0.6369  0.5705
  111MOL0     H14965   4.016  14.064   4.521  0.0218 -0.6442  0.2064
  111MOL0     H14966   3.837  14.017   4.485 -0.4052 -0.5504 -0.2516
  111MOL0     H14967   4.034  13.624   5.669 -2.4345 -0.1588  0.3417
  111MOL0     H14968   3.995  13.417   5.769 -0.8658 -1.3201 -0.4534
  111MOL0     H14969   3.874  12.987   5.543 -0.4199 -1.5826  0.0327
  111MOL0     H14970   3.805  12.765   5.564  0.6307  2.3518 -0.8893
  111MOL0     H14971   4.209  11.274   6.224 -1.2059 -1.3453  2.6588
  111MOL0     H14972   4.226  11.244   6.441 -2.2467 -2.5008 -0.6944
  111MOL0     H14973   4.826  11.093   6.755  0.5000 -1.5205 -0.6031
  111MOL0     H14974   4.865  11.057   6.989 -1.2717 -1.3687  0.2315
  111MOL0     H14975   4.851  11.156   7.316  1.4455  1.2563  0.6164
  111MOL0     H14976   4.915  11.162   7.157  0.1104 -0.8836 -0.0549
  111MOL0     H14977   4.757  11.385   7.295  0.4570  2.3579 -0.2587
  111MOL0     H14978   4.768  11.368   7.116  1.8603 -0.6566 -0.6897
  111MOL0     H14979   4.995  11.429   7.115 -1.2593  3.4433 -1.1167
  111MOL0     H14980   5.029  11.358   7.269  1.6793 -0.8990 -2.7018
  111MOL0     H14981   5.056  11.592   7.255  0.7332 -1.9340  0.7870
  111MOL0     H14982   4.928  11.550   7.370  2.3860 -0.1741 -0.1660
  111MOL0     H14983   4.699  11.780   7.103 -1.5590 -0.6630 -0.1966
  111MOL0     H14984   4.457  11.152   7.086 -1.2449  0.7290 -2.0996
  111MOL0     H14985   4.406  11.181   6.863  1.2548  0.7648 -1.2811
  112MOL0     O14986   4.227   3.580   6.086  0.3758  0.0049  0.6745
  112MOL0     C14987   4.315   3.619   6.009  0.3836 -0.2040  0.4279
  112MOL0     O14988   4.293   3.656   5.873 -0.4865 -0.0482 -0.2925
  112MOL0     C14989   4.160   3.665   5.832  0.1775  0.0631 -0.3439
  112MOL0     C14990   4.148   3.608   5.707  1.2126 -0.0463 -0.6047
  112MOL0     C14991   4.028   3.606   5.645  0.4635 -0.2514  0.3937
  112MOL0     C14992   3.915   3.671   5.705  0.0289 -0.4735  0.8341
  112MOL0     O14993   3.793   3.698   5.643 -0.0702  0.6063 -0.1236
  112MOL0     C14994   3.767   3.840   5.620 -0.0032  0.7369  0.8883
  112MOL0     C14995   3.760   3.875   5.476 -0.3425  0.0966 -0.6561
  112MOL0     C14996   3.634   3.804   5.407  0.5834 -0.4435 -0.2315
  112MOL0     C14997   3.648   3.804   5.256 -0.5397 -0.1652  0.0633
  112MOL0     C14998   3.554   3.715   5.175 -0.4689 -1.1832  0.0410
  112MOL0     C14999   3.569   3.779   5.027  0.4692  0.0255 -0.9751
  112MOL0     C15000   3.474   3.715   4.920  0.0141 -0.5806 -0.0858
  112MOL0     C15001   3.514   3.582   4.875 -1.0009  0.1392 -0.2745
  112MOL0     N15002   3.650   3.584   4.815  0.1088 -0.5422 -0.2915
  112MOL0     C15003   3.764   3.525   4.865  0.5448  0.4402  0.1070
  112MOL0     C15004   3.856   3.558   4.767 -0.3194  1.0032 -0.0587
  112MOL0     C15005   4.003   3.513   4.762  0.5019  0.1937 -0.1740
  112MOL0     C15006   4.007   3.361   4.775  1.0229 -0.2068 -0.4267
  112MOL0     C15007   4.142   3.294   4.741  0.1964 -0.4161  0.8040
  112MOL0     C15008   4.178   3.311   4.591  0.1421 -0.1612 -0.7060
  112MOL0     O15009   4.315   3.266   4.567  0.4002 -0.3028 -0.2274
  112MOL0     C15010   4.404   3.336   4.495 -0.9280  0.8512  0.2895
  112MOL0     C15011   4.394   3.477   4.458  0.1763  0.1072 -0.6386
  112MOL0     C15012   4.502   3.543   4.398  0.6793  0.1274 -0.4672
  112MOL0     C15013   4.477   3.689   4.357 -0.3116 -0.2085 -0.6534
  112MOL0     C15014   4.626   3.475   4.381  0.2658  0.0367 -0.3642
  112MOL0     C15015   4.758   3.537   4.340 -0.7103  0.0142  0.8726
  112MOL0     O15016   4.861   3.449   4.331 -0.1402 -1.3173  0.2193
  112MOL0     C15017   4.994   3.495   4.329  0.8207  0.0328 -0.3823
  112MOL0     C15018   5.036   3.626   4.374 -0.3398 -0.1046  0.1180
  112MOL0     C15019   5.170   3.660   4.387 -0.5742 -0.2154 -1.2562
  112MOL0     C15020   5.267   3.567   4.354 -0.6080 -1.1310  0.8292
  112MOL0     O15021   5.406   3.592   4.368  0.1160 -0.0102  0.8317
  112MOL0     C15022   5.488   3.538   4.256 -0.9633 -0.0905  0.3057
  112MOL0     C15023   5.613   3.625   4.249  0.6243 -0.5749 -0.6329
  112MOL0     C15024   5.740   3.564   4.181  0.6534 -0.2610 -0.7800
  112MOL0     C15025   5.795   3.456   4.271 -0.4430  0.1578 -0.2522
  112MOL0     C15026   5.905   3.375   4.194  1.2148  0.1707  0.1791
  112MOL0     C15027   5.976   3.270   4.282  0.0647 -0.7535 -0.2165
  112MOL0     C15028   6.067   3.175   4.207  0.0412 -1.1519 -0.5878
  112MOL0     C15029   6.190   3.263   4.158 -0.5301 -0.4339 -0.7154
  112MOL0    Cl15030   6.301   3.157   4.077  0.0821  0.1855 -0.0389
  112MOL0     C15031   5.223   3.444   4.299 -0.6195  0.1255 -0.4175
  112MOL0     C15032   5.091   3.408   4.289  0.0289  0.6895 -0.5073
  112MOL0     O15033   4.760   3.654   4.311  0.1033  0.4972 -0.3167
  112MOL0     C15034   4.640   3.343   4.424 -0.2308  0.4017  0.1119
  112MOL0     C15035   4.529   3.268   4.470  0.0916 -0.1225  1.3514
  112MOL0     N15036   3.789   3.628   4.669 -0.9507  0.6364 -0.1487
  112MOL0     N15037   3.665   3.639   4.694 -0.6323 -0.0010  0.4091
  112MOL0     C15038   3.924   3.716   5.838  0.0140 -0.8750 -0.0190
  112MOL0     C15039   4.049   3.721   5.899  0.4876 -0.6115  0.4730
  112MOL0     C15040   4.451   3.646   6.052  0.1276  0.1731  0.0471
  112MOL0     C15041   4.482   3.629   6.190 -0.3574  1.0297  0.5969
  112MOL0     C15042   4.610   3.630   6.235 -0.2573 -0.6988 -0.2768
  112MOL0     C15043   4.709   3.689   6.152  0.2412  0.4127 -0.5227
  112MOL0     O15044   4.830   3.719   6.217  0.7904  0.4205  0.0073
  112MOL0     C15045   4.948   3.767   6.152  0.2922 -0.4451  0.1052
  112MOL0     C15046   5.073   3.775   6.242 -0.5452 -0.2073  0.2852
  112MOL0     C15047   5.207   3.819   6.178 -0.2329 -0.1838  0.0990
  112MOL0     C15048   5.256   3.705   6.081 -0.1678  0.2883 -0.0069
  112MOL0     C15049   5.309   3.587   6.157  0.5271 -0.3156 -0.4073
  112MOL0     C15050   5.349   3.496   6.223  0.0754  0.3195  0.8987
  112MOL0     C15051   4.679   3.716   6.016 -0.9070 -0.3567 -0.4696
  112MOL0     C15052   4.554   3.686   5.968 -0.1188  0.3369 -0.6258
  112MOL0     H15053   4.239   3.580   5.654  2.2920  2.4026 -0.1854
  112MOL0     H15054   4.021   3.562   5.545  2.2678  1.4566 -0.5541
  112MOL0     H15055   3.680   3.879   5.673 -1.0631 -0.4327  0.0674
  112MOL0     H15056   3.857   3.895   5.651  0.6178  0.7357 -0.8339
  112MOL0     H15057   3.760   3.984   5.463 -1.1029  0.0290 -1.2853
  112MOL0     H15058   3.854   3.834   5.436  0.7141 -0.4957  2.2123
  112MOL0     H15059   3.611   3.702   5.439 -1.4457  0.1988  0.5105
  112MOL0     H15060   3.548   3.851   5.454  2.7139 -1.7960  5.9966
  112MOL0     H15061   3.654   3.909   5.227 -1.9550  0.3887  1.6071
  112MOL0     H15062   3.748   3.766   5.235 -0.8718  0.2868 -2.7520
  112MOL0     H15063   3.593   3.613   5.175  0.1983 -0.9334  0.2373
  112MOL0     H15064   3.449   3.716   5.208 -0.5278  0.3660 -0.1374
  112MOL0     H15065   3.546   3.886   5.025 -0.2104 -0.1243 -1.4608
  112MOL0     H15066   3.675   3.772   5.000  1.5042  1.3207  2.1833
  112MOL0     H15067   3.375   3.698   4.966  0.6045 -1.0014  1.0767
  112MOL0     H15068   3.465   3.792   4.843  2.3632 -1.3225 -1.1647
  112MOL0     H15069   3.442   3.555   4.798 -0.4455  2.8902 -1.9126
  112MOL0     H15070   3.512   3.514   4.960  0.4907  1.8005  1.1715
  112MOL0     H15071   3.779   3.473   4.959 -1.3614 -1.3628 -0.5046
  112MOL0     H15072   4.053   3.545   4.670  0.7199 -1.2696 -0.5927
  112MOL0     H15073   4.048   3.557   4.851 -0.0845  1.8830 -0.6695
  112MOL0     H15074   3.941   3.312   4.703  2.6267 -0.9967 -1.4072
  112MOL0     H15075   3.972   3.333   4.875  0.4671  3.4386  0.5501
  112MOL0     H15076   4.145   3.187   4.762 -1.0280 -0.6672 -0.2255
  112MOL0     H15077   4.217   3.347   4.802 -0.9630  2.4380 -0.1046
  112MOL0     H15078   4.162   3.413   4.556 -2.4195 -0.7668 -1.5648
  112MOL0     H15079   4.108   3.245   4.538 -1.5808  0.8376  0.2185
  112MOL0     H15080   4.302   3.531   4.477  0.3322  0.0216  0.4307
  112MOL0     H15081   4.522   3.762   4.426 -1.9436 -0.5494  0.8483
  112MOL0     H15082   4.527   3.715   4.263 -3.8083  1.1404 -2.2918
  112MOL0     H15083   4.373   3.721   4.347 -0.5330  0.0205  1.6562
  112MOL0     H15084   4.973   3.707   4.410  0.2698  0.7695 -0.7234
  112MOL0     H15085   5.206   3.759   4.414 -2.3652  0.0483  0.3294
  112MOL0     H15086   5.527   3.436   4.268 -1.9188 -0.4758  0.2773
  112MOL0     H15087   5.433   3.537   4.161  0.0977 -3.6155 -0.4480
  112MOL0     H15088   5.587   3.720   4.200  1.0642  2.2355  3.9485
  112MOL0     H15089   5.640   3.646   4.353  4.3328 -2.1469 -1.1277
  112MOL0     H15090   5.808   3.649   4.170  3.6028 -2.3328  0.3578
  112MOL0     H15091   5.705   3.530   4.083 -0.3217  1.1467 -0.9522
  112MOL0     H15092   5.843   3.507   4.355 -3.0067  0.6696  0.9902
  112MOL0     H15093   5.719   3.384   4.300  0.2950 -1.5719 -2.3341
  112MOL0     H15094   5.965   3.441   4.129 -1.5838  2.4838 -0.2533
  112MOL0     H15095   5.857   3.321   4.113 -1.7570  1.0435  1.2220
  112MOL0     H15096   6.041   3.325   4.350  0.1024  0.5577 -1.2782
  112MOL0     H15097   5.898   3.221   4.341  0.0387  0.0953  0.4633
  112MOL0     H15098   6.004   3.132   4.128 -5.1312 -1.2482  3.1051
  112MOL0     H15099   6.095   3.101   4.283  3.1807  0.4294 -0.0149
  112MOL0     H15100   6.253   3.290   4.243 -0.4878 -2.0978 -0.1970
  112MOL0     H15101   6.177   3.349   4.091  1.6486  2.0078  1.7394
  112MOL0     H15102   5.304   3.376   4.274 -0.5427  0.7171 -1.8118
  112MOL0     H15103   5.067   3.306   4.263 -1.5711  1.2959 -1.5366
  112MOL0     H15104   4.731   3.285   4.418 -0.5202  0.0885 -3.4799
  112MOL0     H15105   4.533   3.164   4.501  0.2777  0.2918  2.7855
  112MOL0     H15106   3.844   3.757   5.900  0.4379 -1.8331  1.2149
  112MOL0     H15107   4.070   3.774   5.991  1.1863  2.1087 -1.1592
  112MOL0     H15108   4.404   3.601   6.260  0.6744  0.4005  1.5353
  112MOL0     H15109   4.639   3.601   6.335  2.4747  1.0673 -0.4744
  112MOL0     H15110   4.965   3.707   6.062 -0.7215  0.6102 -0.8202
  112MOL0     H15111   4.937   3.868   6.111  2.2056 -0.3838 -0.3301
  112MOL0     H15112   5.081   3.671   6.277 -0.9791 -0.3697 -0.0827
  112MOL0     H15113   5.053   3.837   6.329  0.6796 -0.0702  0.4957
  112MOL0     H15114   5.285   3.852   6.248 -1.9516 -0.2609  2.1388
  112MOL0     H15115   5.185   3.908   6.118  0.5416  1.8078  2.5530
  112MOL0     H15116   5.345   3.742   6.029 -0.6741  2.0837  0.3634
  112MOL0     H15117   5.178   3.663   6.018 -2.6489 -0.4213  3.2409
  112MOL0     H15118   5.380   3.420   6.293  3.1952  2.0977  1.6748
  112MOL0     H15119   4.747   3.750   5.938  1.0805 -1.6200  0.6410
  112MOL0     H15120   4.544   3.687   5.860 -0.4572 -2.8119 -0.7146
  113MOL0     O15121   7.689   3.305   9.104  0.6214 -0.6649  0.2602
  113MOL0     C15122   7.637   3.399   9.167  0.1396  0.8814 -0.9443
  113MOL0     O15123   7.679   3.527   9.164 -0.3588  0.4635  0.5046
  113MOL0     C15124   7.757   3.592   9.070  0.0249 -0.7832  0.0116
  113MOL0     C15125   7.720   3.565   8.932  0.0270  0.3622 -0.3734
  113MOL0     C15126   7.781   3.635   8.830 -0.7800 -0.5459 -0.1504
  113MOL0     C15127   7.891   3.717   8.864  0.6914 -0.3230 -0.1931
  113MOL0     O15128   7.952   3.771   8.751 -0.2453  0.1183 -0.0179
  113MOL0     C15129   8.005   3.903   8.767 -0.7893 -1.1612  0.5904
  113MOL0     C15130   8.048   3.949   8.633 -0.3507 -0.3140 -0.2811
  113MOL0     C15131   8.102   4.098   8.653 -0.8001  0.4269  0.1507
  113MOL0     C15132   8.154   4.156   8.523 -0.0785 -0.1937 -0.6386
  113MOL0     C15133   8.221   4.288   8.543 -0.2001  0.6595  0.6797
  113MOL0     C15134   8.310   4.335   8.435 -0.7665  0.2403  0.0812
  113MOL0     C15135   8.424   4.430   8.485  0.0191  1.1294  0.6013
  113MOL0     C15136   8.531   4.456   8.374 -0.6736 -0.8329 -0.4038
  113MOL0     N15137   8.623   4.355   8.332 -0.4499 -1.2237 -0.5480
  113MOL0     C15138   8.742   4.335   8.392  0.3837 -0.0917 -0.2098
  113MOL0     C15139   8.809   4.244   8.319 -0.1432 -0.0341 -0.2726
  113MOL0     C15140   8.946   4.191   8.335  0.8020  0.5185 -0.2294
  113MOL0     C15141   8.950   4.043   8.368  0.2537  0.5725 -0.4137
  113MOL0     C15142   8.917   3.959   8.234 -0.4287 -0.0645  0.2863
  113MOL0     C15143   8.975   3.818   8.221 -0.3377  0.0762  0.3458
  113MOL0     O15144   8.941   3.744   8.342 -0.5327 -0.1030  0.5148
  113MOL0     C15145   9.032   3.731   8.447  0.0748 -0.6142 -0.2556
  113MOL0     C15146   8.978   3.742   8.580 -0.1427 -1.3905  0.6999
  113MOL0     C15147   9.049   3.713   8.700  0.1211  0.1169 -0.1493
  113MOL0     C15148   8.966   3.708   8.834  0.4541  0.1636 -1.1147
  113MOL0     C15149   9.191   3.691   8.687  0.3796  0.1233  1.0636
  113MOL0     C15150   9.281   3.677   8.801 -0.5489 -0.2061 -0.9127
  113MOL0     O15151   9.234   3.631   8.925 -0.7195 -0.4244  0.2058
  113MOL0     C15152   9.318   3.639   9.033 -0.2292 -0.5736  0.4430
  113MOL0     C15153   9.392   3.528   9.073 -1.1100 -0.3370 -0.0363
  113MOL0     C15154   9.498   3.550   9.170 -0.1242 -0.1050 -0.7157
  113MOL0     C15155   9.515   3.673   9.236  0.1950  0.3057 -0.0422
  113MOL0     O15156   9.619   3.685   9.326 -0.0205  0.0397  0.2646
  113MOL0     C15157   9.618   3.812   9.398  0.7920  0.4797  0.3508
  113MOL0     C15158   9.757   3.826   9.461 -0.3580  0.5471 -0.2201
  113MOL0     C15159   9.747   3.948   9.544  1.1877 -0.0957 -0.6750
  113MOL0     C15160   9.870   3.983   9.636  0.6454 -0.3466  0.3558
  113MOL0     C15161   9.869   4.108   9.724 -0.1582 -1.2133  0.5717
  113MOL0     C15162   9.892   4.243   9.646 -0.0481 -0.7356 -0.3065
  113MOL0     C15163   9.829   4.353   9.730  0.5651  0.1611  0.3781
  113MOL0     C15164   9.848   4.482   9.663  1.0336  0.3839 -0.2074
  113MOL0    Cl15165   9.760   4.509   9.502  0.0907  0.3358 -0.2092
  113MOL0     C15166   9.426   3.778   9.197 -0.2528  0.5262 -0.0433
  113MOL0     C15167   9.326   3.765   9.098 -0.4861  0.5544 -0.3936
  113MOL0     O15168   9.401   3.677   8.770 -0.1414 -0.4054 -0.1260
  113MOL0     C15169   9.245   3.685   8.560  0.0172 -0.1166  0.6838
  113MOL0     C15170   9.160   3.694   8.444 -0.0505 -0.8292  0.4337
  113MOL0     N15171   8.739   4.224   8.202  0.2273  0.4730 -0.4849
  113MOL0     N15172   8.633   4.284   8.219  0.6225 -0.1009 -0.2299
  113MOL0     C15173   7.926   3.731   9.002  0.0835 -0.6199  0.3559
  113MOL0     C15174   7.855   3.669   9.107  0.1364  0.0615  0.3051
  113MOL0     C15175   7.528   3.358   9.265  0.1804  0.2207 -1.1870
  113MOL0     C15176   7.460   3.241   9.256  0.0315 -0.2070  0.3910
  113MOL0     C15177   7.355   3.211   9.341 -0.9021 -1.1162 -0.0243
  113MOL0     C15178   7.307   3.299   9.441  0.3404  0.5109 -0.2627
  113MOL0     O15179   7.186   3.270   9.506  0.6493  0.3595  0.2251
  113MOL0     C15180   7.137   3.360   9.603  0.5842  0.5303 -1.0685
  113MOL0     C15181   6.997   3.300   9.647  0.0720  0.4684  0.2465
  113MOL0     C15182   6.901   3.417   9.680  0.5310 -0.5326 -0.3628
  113MOL0     C15183   6.818   3.385   9.799 -0.3428  0.4071  0.1845
  113MOL0     C15184   6.716   3.287   9.771 -0.0296  0.4692  0.9156
  113MOL0     C15185   6.613   3.218   9.756 -0.6978 -0.3519 -1.0787
  113MOL0     C15186   7.376   3.417   9.447  1.2768  0.1295  0.6441
  113MOL0     C15187   7.484   3.449   9.366  0.7339  0.1855  0.6805
  113MOL0     H15188   7.647   3.488   8.909  0.0702  0.1192  0.2942
  113MOL0     H15189   7.756   3.632   8.725 -1.3092  2.8873 -0.2484
  113MOL0     H15190   7.924   3.960   8.812 -2.2802  0.1221 -3.3036
  113MOL0     H15191   8.087   3.910   8.839 -1.2261 -0.6888  1.0502
  113MOL0     H15192   8.128   3.887   8.592  1.5934  1.5871  0.4348
  113MOL0     H15193   7.968   3.939   8.559  0.9954 -2.9798 -1.5135
  113MOL0     H15194   8.027   4.173   8.678 -0.6999  0.6828 -0.2909
  113MOL0     H15195   8.180   4.095   8.729  0.3320 -0.5669 -1.0006
  113MOL0     H15196   8.225   4.092   8.469  0.3002  0.1860 -0.6026
  113MOL0     H15197   8.068   4.167   8.456  0.9370 -0.0570 -1.9669
  113MOL0     H15198   8.148   4.364   8.573 -0.8616 -0.3571  1.7478
  113MOL0     H15199   8.277   4.272   8.636 -1.1592 -0.1183  1.1406
  113MOL0     H15200   8.357   4.245   8.394 -1.2228 -0.0712  0.2352
  113MOL0     H15201   8.248   4.381   8.357 -2.1735  0.7585  1.4593
  113MOL0     H15202   8.385   4.523   8.529  1.8518  1.7252  1.0518
  113MOL0     H15203   8.468   4.385   8.575 -3.3889 -1.2914  1.2752
  113MOL0     H15204   8.589   4.545   8.400  2.8828 -2.9360 -0.5172
  113MOL0     H15205   8.473   4.478   8.284  0.7575  1.8724 -0.7697
  113MOL0     H15206   8.776   4.378   8.486  0.5760  4.0252 -1.9490
  113MOL0     H15207   9.000   4.197   8.240 -1.0062 -2.1737 -1.5757
  113MOL0     H15208   8.989   4.247   8.418  1.9195  0.9572 -1.0776
  113MOL0     H15209   8.872   4.024   8.442 -0.2693  0.5625 -0.9607
  113MOL0     H15210   9.048   4.018   8.410 -0.5697  0.9841  1.9139
  113MOL0     H15211   8.955   4.007   8.143  0.1062 -1.2061 -0.1040
  113MOL0     H15212   8.808   3.946   8.243 -0.1455 -1.2954  2.5557
  113MOL0     H15213   9.082   3.826   8.202  0.0008 -3.1183  0.2716
  113MOL0     H15214   8.934   3.762   8.136 -0.8409 -0.3376  0.8510
  113MOL0     H15215   8.872   3.766   8.585  0.8003  4.3563  0.0791
  113MOL0     H15216   8.993   3.776   8.915  1.7439 -0.0669 -1.3239
  113MOL0     H15217   8.859   3.729   8.830  0.2958  0.6079  2.4168
  113MOL0     H15218   8.984   3.603   8.859  1.5055  0.2767 -1.3596
  113MOL0     H15219   9.377   3.426   9.039  2.3079 -0.6495 -0.9092
  113MOL0     H15220   9.567   3.470   9.196 -0.1258  0.3328  0.6718
  113MOL0     H15221   9.604   3.903   9.338  0.1434 -0.8102 -1.5657
  113MOL0     H15222   9.534   3.807   9.467 -2.0069  1.8491 -2.6765
  113MOL0     H15223   9.784   3.741   9.524 -2.6178  0.6172  0.9412
  113MOL0     H15224   9.840   3.833   9.390  0.8124 -0.4661  1.0034
  113MOL0     H15225   9.660   3.949   9.610  1.6169 -0.0108 -0.1004
  113MOL0     H15226   9.734   4.033   9.476  0.7029  2.2059  2.0611
  113MOL0     H15227   9.886   3.896   9.700  0.2970 -0.6372  0.0550
  113MOL0     H15228   9.952   3.991   9.564  0.9327 -1.3722  0.5642
  113MOL0     H15229   9.959   4.099   9.785  1.5329  1.8387 -1.1821
  113MOL0     H15230   9.782   4.116   9.789 -2.2125 -0.3884 -2.1085
  113MOL0     H15231   9.994   4.260   9.612 -0.4049  0.8570 -0.6595
  113MOL0     H15232   9.849   4.234   9.545 -0.4140  0.6990 -0.2983
  113MOL0     H15233   9.886   4.356   9.823  0.6272 -0.6794  0.3799
  113MOL0     H15234   9.726   4.339   9.766  1.2549 -2.8939  1.5126
  113MOL0     H15235   9.955   4.490   9.643  0.7459 -1.9432 -3.5210
  113MOL0     H15236   9.836   4.559   9.740  2.2125 -1.6383  2.1643
  113MOL0     H15237   9.425   3.872   9.251  2.3956  2.2760 -2.7633
  113MOL0     H15238   9.259   3.845   9.069 -1.8933 -0.9002 -1.3605
  113MOL0     H15239   9.348   3.655   8.542  0.8242  1.2020  2.7085
  113MOL0     H15240   9.217   3.677   8.353  1.7981  0.2922  1.3477
  113MOL0     H15241   8.009   3.797   9.024 -1.6411  1.4849  0.8630
  113MOL0     H15242   7.881   3.688   9.210 -0.1176  0.6221  0.2736
  113MOL0     H15243   7.470   3.171   9.174 -0.3237  0.8959 -0.6216
  113MOL0     H15244   7.294   3.125   9.313 -1.9501  0.2833 -2.3222
  113MOL0     H15245   7.204   3.367   9.688 -1.8659  0.3223  0.9925
  113MOL0     H15246   7.123   3.458   9.557  2.4660  0.8859 -0.9717
  113MOL0     H15247   7.014   3.231   9.730  2.3865  2.8288  1.9103
  113MOL0     H15248   6.961   3.235   9.566  2.6949 -1.2736  0.3336
  113MOL0     H15249   6.833   3.433   9.595 -0.3276  0.6120  0.5114
  113MOL0     H15250   6.952   3.510   9.701  2.1590 -1.0999 -1.5796
  113MOL0     H15251   6.782   3.484   9.828  0.4641  0.8605 -0.3174
  113MOL0     H15252   6.879   3.354   9.885  0.9670  1.9979 -0.1285
  113MOL0     H15253   6.528   3.157   9.732 -0.8933 -2.3062  3.5162
  113MOL0     H15254   7.354   3.485   9.529  1.6488  1.4627 -0.3098
  113MOL0     H15255   7.529   3.547   9.369  0.6780  0.3925 -2.2973
  114MOL0     O15256   1.207   7.820   1.196  0.3635 -0.7119 -0.0205
  114MOL0     C15257   1.308   7.870   1.151  0.8696  0.2372 -0.1654
  114MOL0     O15258   1.363   7.839   1.033  0.0412 -0.3766 -0.2139
  114MOL0     C15259   1.305   7.770   0.930  0.8408 -0.2780  0.3304
  114MOL0     C15260   1.171   7.733   0.905 -0.8636  0.6541  0.3413
  114MOL0     C15261   1.124   7.658   0.796  0.2777 -0.1163 -0.0665
  114MOL0     C15262   1.216   7.621   0.692  0.1038 -0.0557  0.1368
  114MOL0     O15263   1.189   7.554   0.577 -0.2651  0.0212  0.2536
  114MOL0     C15264   1.048   7.513   0.562 -0.4228 -0.2333  0.3464
  114MOL0     C15265   0.963   7.627   0.499  0.6084 -0.2816  0.3014
  114MOL0     C15266   0.819   7.590   0.461 -1.2917 -0.0431  0.3465
  114MOL0     C15267   0.728   7.575   0.579  0.5281 -0.6147  0.0788
  114MOL0     C15268   0.593   7.526   0.533 -0.4924 -0.2147  0.0541
  114MOL0     C15269   0.512   7.640   0.466  0.1105 -0.1063  0.3090
  114MOL0     C15270   0.459   7.756   0.543 -1.8051 -0.3075 -0.1904
  114MOL0     C15271   0.389   7.869   0.456  0.6404 -0.0273  0.2445
  114MOL0     N15272   0.293   7.804   0.361  0.3521 -0.8487 -0.3980
  114MOL0     C15273   0.159   7.755   0.385 -1.1134  0.3969 -0.0871
  114MOL0     C15274   0.132   7.687   0.272 -0.2863 -0.3103 -0.2424
  114MOL0     C15275  -0.006   7.611   0.256 -0.7338  0.4398  0.3279
  114MOL0     C15276   0.028   7.473   0.189 -0.9097 -0.6979  0.2350
  114MOL0     C15277   0.115   7.377   0.276  0.1823 -0.2730  0.0075
  114MOL0     C15278   0.162   7.267   0.181 -0.1101 -1.1294 -0.4047
  114MOL0     O15279   0.233   7.163   0.243 -0.1631 -1.0753  0.3705
  114MOL0     C15280   0.372   7.171   0.237  0.2004  0.5123 -0.5417
  114MOL0     C15281   0.448   7.275   0.199  0.4517 -0.1179 -0.3209
  114MOL0     C15282   0.580   7.280   0.207  0.0359  0.3507 -1.1383
  114MOL0     C15283   0.639   7.417   0.191  0.0194 -0.2912  0.1188
  114MOL0     C15284   0.648   7.154   0.198  0.4002  0.1492  0.4580
  114MOL0     C15285   0.789   7.145   0.173  0.8354 -0.3909 -0.3484
  114MOL0     O15286   0.845   7.026   0.218 -0.5390  0.2227 -0.2963
  114MOL0     C15287   0.981   7.009   0.216 -0.0902 -0.2376  0.8915
  114MOL0     C15288   1.026   6.904   0.294  0.3890  0.6078 -0.6767
  114MOL0     C15289   1.158   6.861   0.292  0.0583  0.5832 -0.4668
  114MOL0     C15290   1.257   6.906   0.201 -1.4607 -0.8226 -0.4486
  114MOL0     O15291   1.392   6.867   0.186  0.9885  0.5390 -0.2867
  114MOL0     C15292   1.458   6.803   0.297  1.1347 -0.1120 -0.8515
  114MOL0     C15293   1.469   6.889   0.424  0.1464 -0.3211  1.0423
  114MOL0     C15294   1.490   6.807   0.540 -0.0198 -0.4854 -0.8963
  114MOL0     C15295   1.462   6.878   0.681 -0.2733  0.9726  0.2725
  114MOL0     C15296   1.490   6.788   0.801  0.6087 -0.2560  0.9430
  114MOL0     C15297   1.401   6.654   0.809 -0.3609  0.0177 -0.2678
  114MOL0     C15298   1.242   6.668   0.795  0.4693  0.3823  0.8924
  114MOL0     C15299   1.155   6.562   0.875  0.2984 -0.5421  0.4437
  114MOL0    Cl15300   1.173   6.391   0.789 -0.1754  0.2646 -0.0808
  114MOL0     C15301   1.209   7.005   0.115 -0.1271  1.0725  0.6818
  114MOL0     C15302   1.076   7.050   0.118 -0.0008 -0.3291 -0.1361
  114MOL0     O15303   0.844   7.235   0.117 -0.0513  0.0446 -0.8314
  114MOL0     C15304   0.580   7.038   0.238 -0.0402 -0.9806 -0.8663
  114MOL0     C15305   0.445   7.051   0.259 -0.4803 -0.3212  1.0411
  114MOL0     N15306   0.229   7.714   0.173 -0.3157 -0.3679  0.6161
  114MOL0     N15307   0.324   7.786   0.230  0.3558  0.0023  0.2437
  114MOL0     C15308   1.346   7.666   0.704  0.2078 -0.4533 -0.8716
  114MOL0     C15309   1.385   7.740   0.819  0.2195 -0.0569  0.8633
  114MOL0     C15310   1.371   7.994   1.220 -0.1382  0.1542 -0.3566
  114MOL0     C15311   1.328   8.038   1.348  0.4096  0.0219  0.1725
  114MOL0     C15312   1.395   8.142   1.416 -0.4010  0.9339 -0.4906
  114MOL0     C15313   1.510   8.208   1.361 -0.4848  0.1608 -0.5595
  114MOL0     O15314   1.585   8.302   1.421 -0.1471  0.0657  0.5809
  114MOL0     C15315   1.571   8.326   1.559  0.9357 -0.7349 -0.7996
  114MOL0     C15316   1.668   8.235   1.629  0.3237 -0.1085 -0.1880
  114MOL0     C15317   1.816   8.272   1.638  0.8209 -0.6567  1.1730
  114MOL0     C15318   1.848   8.417   1.621  0.5363 -1.2698  0.1402
  114MOL0     C15319   1.992   8.459   1.621 -0.2024 -0.5542 -0.3009
  114MOL0     C15320   2.109   8.491   1.615 -0.2052 -0.2032  0.0074
  114MOL0     C15321   1.543   8.162   1.233 -0.3755  0.3313  0.1813
  114MOL0     C15322   1.485   8.057   1.164 -0.2213  0.5609  0.9351
  114MOL0     H15323   1.090   7.761   0.972 -1.1845 -1.4199  0.8906
  114MOL0     H15324   1.019   7.633   0.789  0.6846 -1.7055 -0.9002
  114MOL0     H15325   1.047   7.435   0.485  0.1560 -0.5664  0.6706
  114MOL0     H15326   1.003   7.473   0.653 -0.7970 -1.8573 -0.5163
  114MOL0     H15327   0.964   7.713   0.566 -1.1318 -2.4997  3.4189
  114MOL0     H15328   1.005   7.654   0.401 -1.6951  0.6898 -0.4954
  114MOL0     H15329   0.784   7.656   0.381  2.5335  1.2514 -0.4655
  114MOL0     H15330   0.836   7.491   0.418  4.6130  1.4355 -1.6432
  114MOL0     H15331   0.779   7.505   0.645 -0.9700 -1.5065  0.3518
  114MOL0     H15332   0.717   7.673   0.627 -1.5796 -2.3271  3.4812
  114MOL0     H15333   0.608   7.443   0.463  2.1435  1.1662 -1.1930
  114MOL0     H15334   0.535   7.503   0.622 -0.1270  2.5453  1.1029
  114MOL0     H15335   0.568   7.680   0.381 -0.0073 -2.9967 -1.2746
  114MOL0     H15336   0.424   7.594   0.419  1.8412 -0.2521 -3.1399
  114MOL0     H15337   0.378   7.709   0.600 -3.0707 -1.0960 -2.5138
  114MOL0     H15338   0.538   7.802   0.603 -2.0174 -0.1760 -0.0090
  114MOL0     H15339   0.464   7.928   0.402 -0.6164  1.5236  0.1178
  114MOL0     H15340   0.340   7.932   0.531 -1.1403 -0.1099 -0.7869
  114MOL0     H15341   0.106   7.764   0.478 -2.0449 -0.5659 -0.5111
  114MOL0     H15342  -0.044   7.601   0.358  0.4259  3.0606  1.1074
  114MOL0     H15343  -0.081   7.658   0.191 -0.5536  2.1596  1.3040
  114MOL0     H15344   0.078   7.494   0.095 -0.2143 -1.4827  0.4157
  114MOL0     H15345  -0.067   7.424   0.167 -2.5454  1.7349  1.4770
  114MOL0     H15346   0.050   7.330   0.350  2.7212 -1.3624  1.6711
  114MOL0     H15347   0.192   7.427   0.335 -0.3588  0.2766  0.2653
  114MOL0     H15348   0.206   7.306   0.089 -0.2576  0.0079 -0.0132
  114MOL0     H15349   0.066   7.223   0.153 -2.1896  2.4458  0.4537
  114MOL0     H15350   0.400   7.369   0.171 -0.8798 -0.5713  0.3163
  114MOL0     H15351   0.677   7.445   0.092  0.8904  2.1133  1.0698
  114MOL0     H15352   0.566   7.493   0.220  1.5193  0.5804  1.8698
  114MOL0     H15353   0.729   7.432   0.252  0.9033 -2.2538 -0.6076
  114MOL0     H15354   0.948   6.851   0.348  0.8764  2.2412  1.8037
  114MOL0     H15355   1.195   6.789   0.365  0.0287  0.9354 -0.1048
  114MOL0     H15356   1.414   6.709   0.330 -0.3680  1.1021  0.8022
  114MOL0     H15357   1.552   6.765   0.257  1.8794  1.4357 -0.6602
  114MOL0     H15358   1.551   6.956   0.398  0.0213 -1.4437 -3.0789
  114MOL0     H15359   1.378   6.949   0.434 -0.1514 -0.7169  0.7633
  114MOL0     H15360   1.594   6.775   0.539 -0.3435 -1.5938 -0.1896
  114MOL0     H15361   1.431   6.715   0.535 -0.2046 -0.4308  0.0632
  114MOL0     H15362   1.527   6.964   0.700  1.5244 -0.7298  2.3175
  114MOL0     H15363   1.358   6.912   0.685 -0.0138  1.8201 -0.0707
  114MOL0     H15364   1.471   6.852   0.888  2.6856 -1.9816  2.7811
  114MOL0     H15365   1.596   6.761   0.808  0.4975 -1.3818 -0.9348
  114MOL0     H15366   1.430   6.593   0.723 -0.7238 -0.8117  0.1847
  114MOL0     H15367   1.431   6.599   0.899  0.3964  2.4104  1.0315
  114MOL0     H15368   1.202   6.644   0.697 -0.6677 -1.9251  1.8448
  114MOL0     H15369   1.219   6.771   0.822  1.2222  1.1267 -1.1178
  114MOL0     H15370   1.049   6.581   0.861  0.1651 -1.6739 -0.1780
  114MOL0     H15371   1.181   6.557   0.981  0.1286  0.6953  0.5625
  114MOL0     H15372   1.268   7.058   0.040 -0.9546 -0.6366 -1.2535
  114MOL0     H15373   1.040   7.116   0.040 -3.1716 -1.2298  0.4425
  114MOL0     H15374   0.623   6.941   0.259  0.7109 -0.1245  1.9346
  114MOL0     H15375   0.381   6.967   0.283 -0.1718 -0.8568  0.0345
  114MOL0     H15376   1.419   7.658   0.625  0.8661  1.8399 -0.5749
  114MOL0     H15377   1.489   7.770   0.831 -0.1016  1.2260  0.6126
  114MOL0     H15378   1.247   7.985   1.396  0.6266 -2.1083 -1.6364
  114MOL0     H15379   1.362   8.157   1.518  3.6112 -0.3517  1.2115
  114MOL0     H15380   1.596   8.427   1.593 -1.2519 -1.5632  4.2140
  114MOL0     H15381   1.471   8.295   1.588  0.8847 -1.4925 -1.7239
  114MOL0     H15382   1.652   8.135   1.588  0.4213  0.5308 -1.8792
  114MOL0     H15383   1.638   8.237   1.734  1.9563  2.7612  0.3503
  114MOL0     H15384   1.867   8.208   1.564  2.2810 -0.2035  1.7562
  114MOL0     H15385   1.856   8.246   1.736 -1.4542 -2.2053  1.7593
  114MOL0     H15386   1.800   8.477   1.698  2.5517 -0.1151  0.5712
  114MOL0     H15387   1.817   8.447   1.521  0.7489 -0.4519  0.3154
  114MOL0     H15388   2.213   8.514   1.600  0.6738 -2.8955  1.2120
  114MOL0     H15389   1.637   8.188   1.186  0.5620 -1.6430  0.8702
  114MOL0     H15390   1.523   8.026   1.067  2.0860  3.7985  0.6498
  115MOL0     O15391   7.924   5.309   3.269 -0.3434 -0.0396 -0.3246
  115MOL0     C15392   7.930   5.184   3.294  0.2324 -0.3063 -0.6224
  115MOL0     O15393   7.826   5.098   3.299 -0.1670 -0.0693  1.0346
  115MOL0     C15394   7.703   5.147   3.266 -0.6730  0.0030 -0.6686
  115MOL0     C15395   7.612   5.155   3.364  0.7715 -0.4342 -0.8123
  115MOL0     C15396   7.472   5.188   3.345 -0.4858 -0.2719  0.5286
  115MOL0     C15397   7.440   5.228   3.214 -1.0834 -1.1824 -0.0802
  115MOL0     O15398   7.313   5.267   3.188  0.8698  0.9792  0.7738
  115MOL0     C15399   7.281   5.386   3.103  0.5252  0.5120  0.0080
  115MOL0     C15400   7.150   5.458   3.148 -0.7336  1.2961  0.3101
  115MOL0     C15401   7.152   5.499   3.297 -0.3399 -0.0653 -0.0378
  115MOL0     C15402   7.007   5.509   3.341 -0.1433 -0.0116 -0.0593
  115MOL0     C15403   6.925   5.620   3.276 -1.0077 -0.1773 -0.0091
  115MOL0     C15404   6.779   5.623   3.322  0.3450 -0.4860 -0.0117
  115MOL0     C15405   6.701   5.740   3.286 -0.1159 -0.0557 -0.3032
  115MOL0     C15406   6.567   5.733   3.358 -0.3280  0.8497  0.6020
  115MOL0     N15407   6.465   5.823   3.309  0.2467 -0.1088  0.2778
  115MOL0     C15408   6.430   5.844   3.182 -0.5426 -0.1801  1.0869
  115MOL0     C15409   6.364   5.963   3.178 -0.2417 -0.4953 -0.0496
  115MOL0     C15410   6.329   6.037   3.054  0.3878  0.4155 -0.1306
  115MOL0     C15411   6.183   6.072   3.045 -0.1304 -0.7229  0.7689
  115MOL0     C15412   6.156   6.125   2.902  0.7320 -0.5005 -0.7704
  115MOL0     C15413   6.048   6.234   2.899 -0.2889  0.5940  1.3488
  115MOL0     O15414   6.028   6.280   2.760 -0.0144 -0.1238 -0.2067
  115MOL0     C15415   5.928   6.371   2.739  0.7517  1.7013 -0.3729
  115MOL0     C15416   5.904   6.410   2.604 -0.2937  0.2184  0.4607
  115MOL0     C15417   5.797   6.495   2.574  0.6752 -1.5094  0.0482
  115MOL0     C15418   5.754   6.526   2.431 -0.9570 -0.1706 -0.3769
  115MOL0     C15419   5.726   6.565   2.682  0.7669  0.1069  0.1276
  115MOL0     C15420   5.614   6.666   2.659  0.1881  0.3433 -0.1755
  115MOL0     O15421   5.558   6.706   2.776  0.1350 -0.5609  0.7633
  115MOL0     C15422   5.480   6.814   2.782  0.1471  0.0508  0.7454
  115MOL0     C15423   5.485   6.871   2.910  0.2369  0.3398 -0.4087
  115MOL0     C15424   5.415   6.988   2.946  0.0070  0.8767 -0.1873
  115MOL0     C15425   5.331   7.041   2.848  0.8227 -0.1715 -0.7803
  115MOL0     O15426   5.267   7.161   2.878  0.2638  0.4001  0.3813
  115MOL0     C15427   5.157   7.207   2.799  0.5044  0.2429 -0.7370
  115MOL0     C15428   5.090   7.326   2.860  0.5613  0.4790  0.3371
  115MOL0     C15429   5.061   7.305   3.011 -0.0889  0.2888  1.2324
  115MOL0     C15430   5.005   7.433   3.072 -0.4345 -0.0928 -0.5706
  115MOL0     C15431   5.032   7.458   3.227  0.1675 -0.3259 -0.3302
  115MOL0     C15432   4.961   7.344   3.303 -0.4560  0.5609  0.8235
  115MOL0     C15433   4.986   7.326   3.455  0.0837  0.1756 -0.0787
  115MOL0     C15434   4.905   7.200   3.511  0.2565 -0.3214  0.2941
  115MOL0    Cl15435   4.732   7.187   3.467  0.3545  0.3069  0.2334
  115MOL0     C15436   5.308   6.967   2.722 -0.4429 -0.7568  0.2823
  115MOL0     C15437   5.393   6.857   2.690  0.3036  0.5778 -0.4249
  115MOL0     O15438   5.596   6.713   2.549  0.0776 -0.7861  0.1949
  115MOL0     C15439   5.763   6.528   2.819  0.2978 -0.9772 -0.2513
  115MOL0     C15440   5.855   6.438   2.841 -0.2708  0.5403 -0.5880
  115MOL0     N15441   6.344   6.002   3.308 -0.1402  0.3531  0.9884
  115MOL0     N15442   6.395   5.912   3.384  0.1051 -0.8553 -0.1644
  115MOL0     C15443   7.524   5.218   3.105  0.6378 -0.1162  0.0905
  115MOL0     C15444   7.659   5.188   3.136 -0.3964  0.2188  0.2285
  115MOL0     C15445   8.061   5.128   3.328 -0.8610  0.3224  0.0861
  115MOL0     C15446   8.078   5.028   3.430 -0.2624 -0.1569 -1.1726
  115MOL0     C15447   8.205   4.972   3.469 -0.8048 -1.0978 -0.3003
  115MOL0     C15448   8.313   5.030   3.415 -0.1711 -1.1760  0.0800
  115MOL0     O15449   8.444   4.993   3.442 -0.9773 -0.3928 -0.8122
  115MOL0     C15450   8.482   4.879   3.508  0.2825  0.2821  0.5808
  115MOL0     C15451   8.515   4.915   3.655  0.4163  0.3043 -0.2565
  115MOL0     C15452   8.653   4.986   3.670 -0.2566 -0.6159 -0.4793
  115MOL0     C15453   8.691   5.032   3.818 -0.7364 -0.0211  0.5824
  115MOL0     C15454   8.738   4.909   3.879 -0.2368  0.3080 -0.8835
  115MOL0     C15455   8.759   4.799   3.931  0.2133  0.0744 -0.2328
  115MOL0     C15456   8.307   5.136   3.320 -0.4017  0.1780  0.9378
  115MOL0     C15457   8.186   5.181   3.282  0.3627 -0.1339 -0.4401
  115MOL0     H15458   7.655   5.129   3.460 -0.8543  3.9439  1.3828
  115MOL0     H15459   7.398   5.171   3.423 -1.2810  1.0248  0.0922
  115MOL0     H15460   7.355   5.463   3.128  1.7940 -1.0270  1.2494
  115MOL0     H15461   7.283   5.366   2.995 -1.0306  4.7818 -0.9978
  115MOL0     H15462   7.143   5.545   3.083 -0.1324  0.6457 -0.6471
  115MOL0     H15463   7.072   5.384   3.125  1.3061  0.0058 -3.1862
  115MOL0     H15464   7.211   5.433   3.361  0.6693  1.3247  0.5106
  115MOL0     H15465   7.201   5.596   3.305 -0.0104 -0.0695 -1.6917
  115MOL0     H15466   6.951   5.420   3.313  1.4720 -1.5417  1.3272
  115MOL0     H15467   7.003   5.528   3.449 -1.4982 -0.7929  0.0447
  115MOL0     H15468   6.973   5.712   3.310  1.8069 -2.7042  3.6448
  115MOL0     H15469   6.933   5.609   3.167  0.1367 -0.4960  0.0954
  115MOL0     H15470   6.725   5.535   3.286 -0.7786  1.4117 -3.4099
  115MOL0     H15471   6.787   5.621   3.431 -0.9827  0.7767  0.1365
  115MOL0     H15472   6.750   5.832   3.319  3.3099 -1.6997 -0.3690
  115MOL0     H15473   6.678   5.744   3.179 -1.2389  0.7543 -0.0516
  115MOL0     H15474   6.588   5.757   3.463  1.6739 -1.3505  0.7844
  115MOL0     H15475   6.526   5.632   3.349  2.0008 -0.0115 -1.0228
  115MOL0     H15476   6.463   5.781   3.100 -1.4711  1.3923 -0.5591
  115MOL0     H15477   6.396   6.121   3.034 -1.2426  1.4154 -1.6736
  115MOL0     H15478   6.354   5.972   2.969 -0.9579 -0.4761  0.1252
  115MOL0     H15479   6.150   6.140   3.124 -1.0946  1.7439 -1.6069
  115MOL0     H15480   6.116   5.987   3.060 -1.8529  0.6610  1.2271
  115MOL0     H15481   6.118   6.037   2.850  0.6525 -0.2346 -1.1617
  115MOL0     H15482   6.249   6.164   2.860 -0.3707  0.6070 -2.2790
  115MOL0     H15483   6.084   6.315   2.963  0.6055  1.3142 -0.0320
  115MOL0     H15484   5.952   6.191   2.929  0.0376 -0.5069  0.8764
  115MOL0     H15485   5.961   6.352   2.532 -3.9312 -1.8754 -1.0174
  115MOL0     H15486   5.646   6.534   2.417 -1.1173 -0.1250  0.7535
  115MOL0     H15487   5.801   6.617   2.393 -0.9387  1.0635  2.3333
  115MOL0     H15488   5.789   6.444   2.367 -3.0452 -0.5749 -1.1053
  115MOL0     H15489   5.552   6.830   2.984  0.3605 -0.5171 -0.9827
  115MOL0     H15490   5.428   7.034   3.044  4.8691 -1.7785  0.7448
  115MOL0     H15491   5.188   7.219   2.695 -0.0699 -0.8477 -1.0469
  115MOL0     H15492   5.089   7.123   2.791  0.0888  0.6683 -1.8915
  115MOL0     H15493   5.157   7.412   2.858 -0.8066  1.5695 -1.1733
  115MOL0     H15494   4.997   7.348   2.805  0.6656 -1.5931 -0.7561
  115MOL0     H15495   5.151   7.286   3.070 -0.8060 -2.8382  1.4716
  115MOL0     H15496   4.987   7.226   3.020 -2.5957  1.6063 -3.8537
  115MOL0     H15497   5.061   7.512   3.021  0.7525 -1.4278 -1.4059
  115MOL0     H15498   4.898   7.417   3.055 -0.3001 -0.8355 -0.7322
  115MOL0     H15499   4.996   7.560   3.241  4.5046  1.3559  0.0273
  115MOL0     H15500   5.138   7.460   3.253  0.0273 -1.7392  0.4556
  115MOL0     H15501   4.853   7.362   3.295 -0.8921 -1.4159  1.5631
  115MOL0     H15502   4.997   7.247   3.268 -0.2259 -0.1922  2.9710
  115MOL0     H15503   4.954   7.414   3.511 -0.0409  0.5974 -0.7882
  115MOL0     H15504   5.093   7.327   3.479  0.0923  1.9819 -0.0368
  115MOL0     H15505   4.910   7.210   3.620  0.8074  0.4220  0.2151
  115MOL0     H15506   4.953   7.104   3.489 -0.7655 -0.8432  0.3161
  115MOL0     H15507   5.244   6.990   2.638  0.3469 -1.7608 -0.6164
  115MOL0     H15508   5.390   6.807   2.593  2.3948  0.9768 -0.7425
  115MOL0     H15509   5.721   6.588   2.900  1.2640  2.5776 -2.1681
  115MOL0     H15510   5.856   6.407   2.945  1.1843  1.0136 -0.4420
  115MOL0     H15511   7.497   5.224   3.000 -2.3495 -4.1208  0.3902
  115MOL0     H15512   7.735   5.207   3.061 -1.7711  3.5425 -0.4730
  115MOL0     H15513   7.991   4.991   3.482  0.9486 -1.2451  0.1654
  115MOL0     H15514   8.205   4.902   3.551 -3.7047 -0.8877 -0.0372
  115MOL0     H15515   8.398   4.809   3.519  1.7320 -1.2936  2.5600
  115MOL0     H15516   8.568   4.827   3.466 -0.6859  0.0494 -1.1987
  115MOL0     H15517   8.499   4.831   3.722  2.4634  0.6446  0.7390
  115MOL0     H15518   8.441   4.988   3.688 -0.1948 -0.7024  0.6368
  115MOL0     H15519   8.658   5.076   3.607 -4.2347  0.4284  0.4439
  115MOL0     H15520   8.725   4.914   3.631 -0.2351 -0.7492 -0.1950
  115MOL0     H15521   8.609   5.079   3.873 -0.2883  1.9111 -0.3156
  115MOL0     H15522   8.773   5.105   3.813  0.2177 -0.9528  1.9359
  115MOL0     H15523   8.786   4.701   3.964  1.2269 -0.2201 -1.7897
  115MOL0     H15524   8.397   5.167   3.268 -0.6397 -0.5557  0.0547
  115MOL0     H15525   8.188   5.252   3.199  2.0991  0.1436 -0.1896
  116MOL0     O15526   6.607   9.918   8.827  0.1592 -0.4473 -0.2137
  116MOL0     C15527   6.707   9.873   8.773 -0.0066  1.1100  0.5332
  116MOL0     O15528   6.813   9.829   8.848 -0.0393  0.6434  0.2343
  116MOL0     C15529   6.837   9.846   8.984  0.4780 -0.0794 -0.6314
  116MOL0     C15530   6.956   9.779   9.024  0.3061 -1.1218 -0.0456
  116MOL0     C15531   6.994   9.790   9.162  0.4523 -0.6173 -0.5131
  116MOL0     C15532   6.931   9.890   9.250  0.2239  0.3205  0.9388
  116MOL0     O15533   6.981   9.945   9.363 -0.6268 -0.9903  0.5749
  116MOL0     C15534   7.129   9.958   9.350  0.2073  0.7277  0.5578
  116MOL0     C15535   7.184   9.995   9.482  0.7779 -1.2066 -0.0606
  116MOL0     C15536   7.329  10.028   9.480  0.5973  0.3541 -0.0464
  116MOL0     C15537   7.367  10.104   9.603 -0.0901  0.7050  0.4918
  116MOL0     C15538   7.526  10.129   9.615 -0.5807 -0.1520 -0.1798
  116MOL0     C15539   7.557  10.233   9.721  0.2916 -0.3719  1.0979
  116MOL0     C15540   7.486  10.212   9.855 -0.5780  0.9509  0.1918
  116MOL0     C15541   7.509  10.343   9.937  0.0272 -0.4697  0.4478
  116MOL0     N15542   7.428  10.460   9.880  0.1295  0.0739 -0.7461
  116MOL0     C15543   7.292  10.456   9.864  1.3399 -0.0994  0.4890
  116MOL0     C15544   7.257  10.572   9.808  0.1943 -0.3347 -0.0312
  116MOL0     C15545   7.115  10.623   9.782 -0.1173  0.1598 -0.2105
  116MOL0     C15546   7.067  10.593   9.636  0.1103 -0.2272 -0.7550
  116MOL0     C15547   7.053  10.441   9.615  0.1854 -0.0274  0.6428
  116MOL0     C15548   7.049  10.419   9.467  0.4623  0.0245  0.0648
  116MOL0     O15549   6.909  10.404   9.426  0.0347  0.3069 -0.5988
  116MOL0     C15550   6.874  10.379   9.300  0.4607 -0.6489  0.7429
  116MOL0     C15551   6.739  10.353   9.271  0.2113 -0.5395 -0.0470
  116MOL0     C15552   6.687  10.322   9.155  1.1387 -0.1042  1.1662
  116MOL0     C15553   6.539  10.307   9.155 -0.6247 -0.5107  0.2283
  116MOL0     C15554   6.772  10.309   9.039 -0.0322 -0.1922  0.3349
  116MOL0     C15555   6.715  10.279   8.900 -0.1497  0.2575 -0.4430
  116MOL0     O15556   6.581  10.312   8.877 -0.8215 -0.3324  0.0308
  116MOL0     C15557   6.542  10.313   8.743 -0.1127 -0.1573  0.7190
  116MOL0     C15558   6.412  10.260   8.717  0.0989 -0.4266 -0.4081
  116MOL0     C15559   6.363  10.233   8.590 -0.5245 -0.1811 -1.0121
  116MOL0     C15560   6.432  10.290   8.483 -1.5227  0.4188 -0.6594
  116MOL0     O15561   6.389  10.294   8.350 -0.3369  0.0475 -0.3944
  116MOL0     C15562   6.259  10.255   8.301 -0.4934  0.4685 -0.6857
  116MOL0     C15563   6.259  10.103   8.257 -0.0821  0.2011 -1.0928
  116MOL0     C15564   6.129  10.038   8.298 -0.8850  0.5258  0.6739
  116MOL0     C15565   6.009  10.104   8.235 -0.3246 -0.2098 -0.4046
  116MOL0     C15566   6.021  10.112   8.077 -0.2162  0.1648  0.2849
  116MOL0     C15567   5.891  10.151   8.005 -0.8157 -0.4412 -0.1191
  116MOL0     C15568   5.906  10.209   7.866 -0.9626  0.1207  0.9975
  116MOL0     C15569   5.763  10.222   7.796 -0.3020 -0.4882  0.4018
  116MOL0    Cl15570   5.660  10.080   7.827  0.2459 -0.3500  0.1142
  116MOL0     C15571   6.558  10.343   8.505  0.0025 -0.1231  0.3811
  116MOL0     C15572   6.610  10.355   8.634 -0.7844 -0.0082  0.1931
  116MOL0     O15573   6.791  10.226   8.821  0.3807 -0.0935  0.3671
  116MOL0     C15574   6.915  10.322   9.066  0.8047  0.5020 -0.0290
  116MOL0     C15575   6.965  10.363   9.189 -0.4291 -0.5228 -0.0592
  116MOL0     N15576   7.373  10.647   9.805 -0.4783  0.2782 -0.0908
  116MOL0     N15577   7.478  10.577   9.847 -0.0123  0.5431 -0.0645
  116MOL0     C15578   6.812   9.956   9.200  0.2093 -0.3817 -0.0777
  116MOL0     C15579   6.774   9.933   9.070 -0.5581 -0.1658  0.6396
  116MOL0     C15580   6.708   9.886   8.630 -0.0228  0.4283 -0.2300
  116MOL0     C15581   6.655   9.996   8.565  0.5075  0.3497 -0.6228
  116MOL0     C15582   6.652   9.997   8.428  0.3164 -0.1218  0.9705
  116MOL0     C15583   6.719   9.895   8.344 -0.2477 -0.6052  0.1000
  116MOL0     O15584   6.719   9.896   8.203 -0.1475  0.7780  0.0284
  116MOL0     C15585   6.622   9.977   8.145  0.4949  0.2239 -0.1304
  116MOL0     C15586   6.661   9.977   7.993  0.3194  0.3372 -0.7952
  116MOL0     C15587   6.667   9.834   7.922 -0.6313 -0.1572 -0.5636
  116MOL0     C15588   6.649   9.830   7.773 -0.3896 -0.1804  0.6146
  116MOL0     C15589   6.674   9.694   7.719  0.0141 -0.8675  0.0041
  116MOL0     C15590   6.713   9.584   7.664 -1.6831 -0.4294 -0.2630
  116MOL0     C15591   6.780   9.793   8.418  0.0541  1.0047 -0.7732
  116MOL0     C15592   6.773   9.784   8.558 -0.0009  0.0521  0.0184
  116MOL0     H15593   7.013   9.713   8.959  2.1112 -0.9859  1.3115
  116MOL0     H15594   7.078   9.737   9.204 -1.5599 -2.3259  1.5783
  116MOL0     H15595   7.178   9.864   9.324 -0.2395  0.9653 -1.2327
  116MOL0     H15596   7.155  10.026   9.269  0.5825  0.7711  0.7094
  116MOL0     H15597   7.138  10.082   9.529  1.6049 -0.8310  0.0691
  116MOL0     H15598   7.169   9.910   9.550 -2.1691 -0.9369 -0.2259
  116MOL0     H15599   7.391   9.938   9.478 -0.0455 -0.1215  0.9851
  116MOL0     H15600   7.349  10.087   9.389  1.8642  1.9369  1.1831
  116MOL0     H15601   7.312  10.199   9.611 -2.0408 -0.5002  3.0360
  116MOL0     H15602   7.353  10.049   9.697 -0.4698  0.7948  0.4921
  116MOL0     H15603   7.579  10.037   9.641  0.1407  0.6475  1.2580
  116MOL0     H15604   7.578  10.166   9.526 -1.5911  1.2284 -0.2353
  116MOL0     H15605   7.666  10.239   9.729  0.2779  3.8534  0.5366
  116MOL0     H15606   7.534  10.334   9.684 -2.5274  0.5396  4.6690
  116MOL0     H15607   7.380  10.183   9.846 -0.1519 -0.1977 -1.7269
  116MOL0     H15608   7.538  10.127   9.899 -2.5399  0.2171  1.2454
  116MOL0     H15609   7.616  10.365   9.944 -0.1074 -0.3483  2.6347
  116MOL0     H15610   7.473  10.334  10.040 -0.4452  0.3908  0.3659
  116MOL0     H15611   7.228  10.376   9.900  2.6863 -2.4709 -2.0337
  116MOL0     H15612   7.043  10.575   9.850  0.8718  1.7952  2.1454
  116MOL0     H15613   7.117  10.732   9.797  2.2215  0.3773 -1.6828
  116MOL0     H15614   7.151  10.631   9.576  0.2380  0.5426 -0.1159
  116MOL0     H15615   6.971  10.632   9.602 -0.6592 -1.8499 -0.5073
  116MOL0     H15616   6.958  10.406   9.658  0.7679 -1.9007  0.5015
  116MOL0     H15617   7.141  10.381   9.640  0.5834 -0.4029 -1.4965
  116MOL0     H15618   7.098  10.325   9.442  0.0226 -0.7008  1.7628
  116MOL0     H15619   7.084  10.508   9.414 -1.4812  2.6332  2.8084
  116MOL0     H15620   6.670  10.379   9.351  0.2030  1.0356 -0.5442
  116MOL0     H15621   6.496  10.290   9.254 -0.4960  1.3641  0.6308
  116MOL0     H15622   6.498  10.398   9.111  1.9833  0.4010 -0.5058
  116MOL0     H15623   6.520  10.218   9.094 -1.1105 -0.9366  0.9723
  116MOL0     H15624   6.347  10.227   8.798  0.5897  0.3395  0.3161
  116MOL0     H15625   6.265  10.199   8.557 -0.4494  1.9149 -3.6870
  116MOL0     H15626   6.184  10.278   8.377 -0.0468 -1.8839  0.5911
  116MOL0     H15627   6.242  10.313   8.210 -0.3372 -1.0469 -1.7206
  116MOL0     H15628   6.290  10.102   8.152 -0.0534  2.1242 -1.1505
  116MOL0     H15629   6.339  10.058   8.317 -2.6415 -0.7763  1.8792
  116MOL0     H15630   6.117  10.044   8.406  0.2455 -0.3903  0.8736
  116MOL0     H15631   6.140   9.933   8.271 -0.0580  0.7742 -0.0233
  116MOL0     H15632   5.919  10.056   8.273 -0.5572  0.3138 -0.2763
  116MOL0     H15633   6.002  10.207   8.273  1.0287 -0.4347  0.5340
  116MOL0     H15634   6.051  10.012   8.045 -2.3092 -0.5385  0.3683
  116MOL0     H15635   6.104  10.171   8.036  0.7680 -2.3041 -1.5062
  116MOL0     H15636   5.841  10.054   8.004  1.9570 -1.9703 -0.8128
  116MOL0     H15637   5.838  10.217   8.073  1.3861  1.8847 -0.5102
  116MOL0     H15638   5.965  10.144   7.801 -0.5663  0.0472  1.4317
  116MOL0     H15639   5.949  10.309   7.878 -3.4401  1.6085 -1.2393
  116MOL0     H15640   5.774  10.244   7.689 -2.0492  1.0888  0.5024
  116MOL0     H15641   5.714  10.314   7.831 -1.7375  0.0048 -2.5727
  116MOL0     H15642   6.604  10.408   8.431 -1.7519  0.3807 -0.3168
  116MOL0     H15643   6.701  10.410   8.656  1.3437 -2.3414 -2.0958
  116MOL0     H15644   6.982  10.314   8.982 -0.6148 -2.2568 -1.0359
  116MOL0     H15645   7.072  10.371   9.204 -0.6232 -2.3342  3.1668
  116MOL0     H15646   6.781  10.043   9.258  0.0538 -0.4218 -0.1001
  116MOL0     H15647   6.693   9.995   9.034 -0.5510 -1.6202 -2.1211
  116MOL0     H15648   6.621  10.076   8.629  3.0591  0.8266  0.2508
  116MOL0     H15649   6.602  10.085   8.390  1.0107  1.0790  2.7072
  116MOL0     H15650   6.526   9.929   8.168  0.7065  1.0815  3.1390
  116MOL0     H15651   6.626  10.077   8.188 -1.2577 -0.3337  1.4747
  116MOL0     H15652   6.764  10.011   7.978  0.1463  1.0651 -0.3869
  116MOL0     H15653   6.588  10.036   7.938 -0.0892  0.5226 -0.0751
  116MOL0     H15654   6.591   9.765   7.961 -0.8444  1.7530  2.7920
  116MOL0     H15655   6.767   9.799   7.947 -0.8661 -0.8108 -0.5188
  116MOL0     H15656   6.705   9.910   7.723  1.1987 -2.0969 -0.8295
  116MOL0     H15657   6.542   9.845   7.757 -0.7578 -1.2424  1.8748
  116MOL0     H15658   6.724   9.487   7.621  1.3248  1.0989 -3.4495
  116MOL0     H15659   6.818   9.716   8.352 -1.2292  0.3461 -0.7895
  116MOL0     H15660   6.817   9.699   8.610 -1.3764 -1.9275 -1.8587
  117MOL0     O15661   5.490   0.606   0.067  0.2143  0.0322  0.5437
  117MOL0     C15662   5.468   0.725   0.078 -1.1670  0.4010  0.1608
  117MOL0     O15663   5.556   0.819   0.126  0.1778 -1.0007  0.1740
  117MOL0     C15664   5.687   0.786   0.141  0.0538  0.6209  0.5450
  117MOL0     C15665   5.761   0.768   0.024 -0.5341  0.9296  0.3740
  117MOL0     C15666   5.899   0.730   0.043  0.1155 -0.3863  0.4696
  117MOL0     C15667   5.955   0.703   0.169 -0.0323  0.3002 -0.2335
  117MOL0     O15668   6.092   0.687   0.166 -0.3704  0.0277 -0.4839
  117MOL0     C15669   6.174   0.702   0.286  0.3676  0.0235 -0.3526
  117MOL0     C15670   6.310   0.701   0.228  0.4330 -0.5252 -0.0205
  117MOL0     C15671   6.360   0.567   0.172  0.5513  0.1408 -0.1707
  117MOL0     C15672   6.483   0.583   0.080 -0.4333 -0.0914  0.0330
  117MOL0     C15673   6.448   0.636  -0.066  0.2253 -0.3983 -0.3612
  117MOL0     C15674   6.396   0.539  -0.159  0.7285 -0.1293 -0.5430
  117MOL0     C15675   6.353   0.608  -0.285  0.7120 -0.2197  0.2141
  117MOL0     C15676   6.311   0.500  -0.384 -0.2890  0.4453 -0.1302
  117MOL0     N15677   6.244   0.556  -0.500 -0.5293 -0.3188 -0.3655
  117MOL0     C15678   6.264   0.676  -0.560  0.3064 -0.0709 -0.9724
  117MOL0     C15679   6.192   0.679  -0.673  0.5366  0.1856 -0.5293
  117MOL0     C15680   6.217   0.775  -0.785 -0.3275 -0.4961 -0.9427
  117MOL0     C15681   6.241   0.710  -0.922 -0.8154  0.4853  0.2099
  117MOL0     C15682   6.111   0.649  -0.973 -0.4715  0.0896  1.0405
  117MOL0     C15683   6.049   0.733  -1.082  1.0087 -0.0043 -0.7154
  117MOL0     O15684   5.928   0.674  -1.134  0.0536  0.0018 -0.0244
  117MOL0     C15685   5.939   0.587  -1.242  0.4760  0.3135 -0.2523
  117MOL0     C15686   6.051   0.563  -1.328  0.7019  1.3809  0.1019
  117MOL0     C15687   6.042   0.473  -1.439  0.4058 -0.1338  0.4405
  117MOL0     C15688   6.158   0.456  -1.533  0.7614  0.1820  0.2053
  117MOL0     C15689   5.913   0.410  -1.468 -0.0615 -0.6989  0.7157
  117MOL0     C15690   5.885   0.327  -1.591  0.5657 -0.1362 -0.0266
  117MOL0     O15691   5.953   0.349  -1.705 -0.0513  0.2511 -0.2036
  117MOL0     C15692   5.922   0.277  -1.821  0.9525  0.2905 -0.6053
  117MOL0     C15693   6.019   0.223  -1.902  0.3196 -0.0479  0.4987
  117MOL0     C15694   5.992   0.153  -2.020  0.2600 -0.0063 -0.4318
  117MOL0     C15695   5.861   0.131  -2.055 -0.7624  0.8007 -1.1366
  117MOL0     O15696   5.853   0.050  -2.163  0.4905 -0.8672  0.4381
  117MOL0     C15697   5.735  -0.027  -2.187  0.1258  0.6346 -0.2110
  117MOL0     C15698   5.727  -0.130  -2.071  0.2079  0.2932  0.0453
  117MOL0     C15699   5.649  -0.258  -2.100  0.2317 -0.7301 -0.6880
  117MOL0     C15700   5.715  -0.354  -2.202  0.5978 -0.8027  0.4534
  117MOL0     C15701   5.615  -0.472  -2.234  0.1333 -0.4609  0.3819
  117MOL0     C15702   5.661  -0.553  -2.357 -0.3325  0.4174  0.6013
  117MOL0     C15703   5.566  -0.669  -2.405  0.4533  0.0837  0.4305
  117MOL0     C15704   5.647  -0.779  -2.474 -0.7655  0.2500 -0.3849
  117MOL0    Cl15705   5.547  -0.903  -2.558 -0.0895 -0.5708  0.4752
  117MOL0     C15706   5.754   0.194  -1.981 -0.0012  0.7872 -0.2302
  117MOL0     C15707   5.787   0.268  -1.869 -0.5534 -0.6661 -0.9000
  117MOL0     O15708   5.794   0.241  -1.574  0.0114  0.0198  0.0506
  117MOL0     C15709   5.809   0.431  -1.376 -0.3045  0.4257  0.1116
  117MOL0     C15710   5.817   0.516  -1.266 -0.6590  0.1285  0.2970
  117MOL0     N15711   6.119   0.562  -0.679 -0.0011  0.8876 -1.0114
  117MOL0     N15712   6.161   0.486  -0.585  0.1987  0.3892 -1.1211
  117MOL0     C15713   5.871   0.720   0.290  0.0752 -0.8856 -1.0906
  117MOL0     C15714   5.735   0.758   0.272 -0.0243 -0.1773  0.0365
  117MOL0     C15715   5.328   0.766   0.062 -0.7572  0.2939 -0.0401
  117MOL0     C15716   5.228   0.677   0.023  0.8696 -0.9616 -0.3904
  117MOL0     C15717   5.087   0.710   0.027 -0.1769 -0.6290 -0.7778
  117MOL0     C15718   5.051   0.845   0.068  0.2548  0.3119  0.1048
  117MOL0     O15719   4.918   0.874   0.058 -0.0306 -0.1797 -0.1319
  117MOL0     C15720   4.871   1.012   0.063 -0.0997  0.7578  0.0400
  117MOL0     C15721   4.731   1.006  -0.001  0.2935  0.4941  0.3082
  117MOL0     C15722   4.608   1.003   0.100 -0.9719  0.2125  0.0549
  117MOL0     C15723   4.476   1.055   0.032  0.4176  0.8548 -0.0884
  117MOL0     C15724   4.417   0.954  -0.066  1.6681  0.6595  0.4441
  117MOL0     C15725   4.383   0.887  -0.162  0.2342  0.1120 -0.3807
  117MOL0     C15726   5.141   0.937   0.104 -1.4341 -0.6263  0.9830
  117MOL0     C15727   5.280   0.894   0.097 -0.8554 -0.0076  0.6869
  117MOL0     H15728   5.720   0.783  -0.075  0.0699 -0.1997 -0.0565
  117MOL0     H15729   5.965   0.721  -0.042  1.6838 -0.4140  1.6352
  117MOL0     H15730   6.141   0.797   0.329 -1.9359  0.4437 -2.7839
  117MOL0     H15731   6.158   0.614   0.350 -2.4277 -0.4793 -1.5759
  117MOL0     H15732   6.300   0.764   0.139  0.7106 -3.0409 -1.9485
  117MOL0     H15733   6.377   0.758   0.292 -1.0102  1.9067 -0.5568
  117MOL0     H15734   6.380   0.501   0.256 -0.1207 -0.1187 -0.2076
  117MOL0     H15735   6.279   0.525   0.111 -1.0093  1.0479  1.2051
  117MOL0     H15736   6.554   0.653   0.126 -1.8118  1.9771 -0.8319
  117MOL0     H15737   6.529   0.486   0.058  1.2834  1.1883 -2.5093
  117MOL0     H15738   6.369   0.710  -0.054 -1.2860 -2.2426  1.8281
  117MOL0     H15739   6.541   0.678  -0.105  1.0090 -0.4458  1.3596
  117MOL0     H15740   6.469   0.467  -0.198  0.4717 -0.7549  0.0976
  117MOL0     H15741   6.315   0.481  -0.112  2.1159 -1.4247  0.3486
  117MOL0     H15742   6.265   0.670  -0.268  1.4743  0.7003  0.9388
  117MOL0     H15743   6.428   0.668  -0.338 -2.3321  1.8579 -2.1119
  117MOL0     H15744   6.240   0.429  -0.339 -0.3383 -1.1470 -2.5637
  117MOL0     H15745   6.398   0.440  -0.414 -1.3483 -1.8033  1.0341
  117MOL0     H15746   6.325   0.759  -0.527  0.2060 -0.5977  0.6119
  117MOL0     H15747   6.139   0.853  -0.780 -1.5862 -1.7564 -0.0526
  117MOL0     H15748   6.308   0.830  -0.758  1.5116 -2.8829 -2.0033
  117MOL0     H15749   6.315   0.630  -0.908 -0.6234 -0.0929 -3.1071
  117MOL0     H15750   6.282   0.769  -1.005  3.8345 -4.8165 -1.9620
  117MOL0     H15751   6.044   0.644  -0.887 -1.7848 -1.6735 -0.0277
  117MOL0     H15752   6.122   0.548  -1.012  1.1727 -0.1017  1.9074
  117MOL0     H15753   6.129   0.760  -1.151  4.3166 -2.2139  1.8941
  117MOL0     H15754   6.027   0.827  -1.031  0.4170 -0.8169  0.5797
  117MOL0     H15755   6.145   0.616  -1.312 -0.3192  2.9218  1.3592
  117MOL0     H15756   6.139   0.479  -1.638  2.2529 -0.6636 -0.2947
  117MOL0     H15757   6.245   0.519  -1.509  2.2025 -0.7318 -2.2614
  117MOL0     H15758   6.199   0.354  -1.530  1.8653  0.6023 -0.0065
  117MOL0     H15759   6.124   0.225  -1.873  0.9037  2.4654 -1.3975
  117MOL0     H15760   6.068   0.101  -2.078  0.9197 -2.7299  2.5643
  117MOL0     H15761   5.646   0.036  -2.180  2.6589  4.4112  1.5366
  117MOL0     H15762   5.739  -0.075  -2.285 -1.1170  0.3197 -0.1240
  117MOL0     H15763   5.828  -0.155  -2.037  0.8414 -0.7215 -2.3770
  117MOL0     H15764   5.677  -0.078  -1.989  0.1482  3.8229 -2.0279
  117MOL0     H15765   5.547  -0.229  -2.129 -0.7773  1.7161  4.2198
  117MOL0     H15766   5.635  -0.307  -2.003 -0.2244  1.7535  0.6019
  117MOL0     H15767   5.733  -0.308  -2.299  0.4998  0.6151  1.0806
  117MOL0     H15768   5.814  -0.388  -2.168  0.5626  0.0755  1.4947
  117MOL0     H15769   5.515  -0.430  -2.251  0.2920  0.6349  1.9221
  117MOL0     H15770   5.602  -0.539  -2.148  1.8432 -1.6297 -0.2188
  117MOL0     H15771   5.678  -0.487  -2.443 -0.3230 -0.4549 -0.0796
  117MOL0     H15772   5.765  -0.588  -2.350 -1.0503 -1.9435  0.3542
  117MOL0     H15773   5.488  -0.623  -2.467  0.0953  1.2118  1.6654
  117MOL0     H15774   5.506  -0.714  -2.325 -1.4365 -1.4381 -1.7399
  117MOL0     H15775   5.726  -0.821  -2.411  0.8344  1.8131 -1.2782
  117MOL0     H15776   5.704  -0.732  -2.555 -1.0606  1.1922 -0.0580
  117MOL0     H15777   5.652   0.176  -2.013 -0.6550  1.3234  1.4834
  117MOL0     H15778   5.710   0.324  -1.817  1.0839 -0.0911  1.0494
  117MOL0     H15779   5.712   0.383  -1.385 -1.7262  2.7456  1.7800
  117MOL0     H15780   5.729   0.527  -1.203 -1.0922 -0.1380 -0.2470
  117MOL0     H15781   5.912   0.693   0.387  1.1949  0.9255 -1.0168
  117MOL0     H15782   5.668   0.755   0.356  1.1276 -0.0457  0.9901
  117MOL0     H15783   5.247   0.578  -0.018  2.2702 -0.6066 -0.6683
  117MOL0     H15784   5.018   0.636  -0.011 -0.5535 -0.6221 -0.1316
  117MOL0     H15785   4.867   1.061   0.161 -0.7972  3.4237 -1.2197
  117MOL0     H15786   4.939   1.070   0.000  0.2073 -0.1798 -0.5192
  117MOL0     H15787   4.737   0.923  -0.072  2.9142  1.3841 -0.6273
  117MOL0     H15788   4.727   1.094  -0.065  3.2826  1.7063  1.5570
  117MOL0     H15789   4.633   1.079   0.175  1.3825  0.1532 -0.6064
  117MOL0     H15790   4.605   0.910   0.158  1.8830  0.6856  1.0960
  117MOL0     H15791   4.510   1.148  -0.014  3.6396  0.0644  0.4449
  117MOL0     H15792   4.391   1.073   0.099  0.1983 -0.4748  0.0097
  117MOL0     H15793   4.343   0.806  -0.219 -0.6403  0.4194 -0.2221
  117MOL0     H15794   5.121   1.034   0.148 -2.5522 -0.9498  1.2270
  117MOL0     H15795   5.354   0.970   0.119  0.0783 -0.7281  0.1331
  118MOL0     O15796   0.014   9.612   0.458 -0.2337 -0.9679 -0.3596
  118MOL0     C15797  -0.088   9.652   0.401  0.6338  1.1490 -0.0533
  118MOL0     O15798  -0.102   9.754   0.305 -0.7341 -0.2607 -0.0716
  118MOL0     C15799   0.010   9.832   0.278 -0.2576 -0.3074  0.3534
  118MOL0     C15800  -0.001   9.963   0.305  0.4879 -0.3127  0.3214
  118MOL0     C15801   0.091  10.055   0.258  0.8726  0.2144 -0.0318
  118MOL0     C15802   0.210  10.019   0.199  0.5761 -0.0109 -0.3142
  118MOL0     O15803   0.303  10.110   0.165 -0.5702 -0.1240  0.6409
  118MOL0     C15804   0.442  10.075   0.138  0.3365 -0.5348 -0.2229
  118MOL0     C15805   0.513  10.039   0.268 -0.6622 -0.4181 -0.5349
  118MOL0     C15806   0.662  10.004   0.246  0.3832 -0.1677  0.5719
  118MOL0     C15807   0.736   9.971   0.381 -0.0540  0.1485  0.0759
  118MOL0     C15808   0.738  10.075   0.497 -0.2841 -0.1641 -1.3048
  118MOL0     C15809   0.761  10.002   0.632  0.6512  0.1342 -0.6065
  118MOL0     C15810   0.741  10.095   0.757  1.3879 -0.1366 -0.6250
  118MOL0     C15811   0.844  10.201   0.771 -0.3861  0.5958 -0.1502
  118MOL0     N15812   0.984  10.152   0.795  0.7305 -0.3579 -0.0240
  118MOL0     C15813   1.090  10.182   0.714 -0.0083  0.2458 -0.3387
  118MOL0     C15814   1.194  10.131   0.784 -0.2525  0.2774  1.4069
  118MOL0     C15815   1.339  10.144   0.740  0.0516 -0.1471 -0.3887
  118MOL0     C15816   1.380  10.055   0.620 -0.1957 -0.6342  0.1605
  118MOL0     C15817   1.425   9.916   0.671 -0.7050  0.2721  0.3580
  118MOL0     C15818   1.457   9.818   0.556  0.0682  0.5942 -0.1886
  118MOL0     O15819   1.580   9.849   0.498 -1.0281 -0.4222 -0.9550
  118MOL0     C15820   1.630   9.807   0.375 -0.3285  0.5621 -0.1146
  118MOL0     C15821   1.752   9.851   0.347  0.5962 -0.8407  0.6061
  118MOL0     C15822   1.816   9.818   0.223  0.0542  0.9839 -1.6427
  118MOL0     C15823   1.968   9.847   0.203  0.1796  0.2563  0.1841
  118MOL0     C15824   1.744   9.751   0.118  0.4378  0.0956 -0.2915
  118MOL0     C15825   1.794   9.722  -0.026 -0.1572  0.0582 -0.0070
  118MOL0     O15826   1.928   9.733  -0.055  0.2635 -0.1937  1.0198
  118MOL0     C15827   1.973   9.739  -0.183 -0.2859  0.2617  0.3327
  118MOL0     C15828   2.115   9.748  -0.187 -0.0654  0.7088 -0.0658
  118MOL0     C15829   2.187   9.736  -0.300  0.1631  0.0159 -0.0323
  118MOL0     C15830   2.129   9.749  -0.426 -0.1633  0.2614  0.0115
  118MOL0     O15831   2.208   9.759  -0.534 -0.1881  0.1899 -0.0919
  118MOL0     C15832   2.331   9.826  -0.526  0.0783 -0.5168 -0.0652
  118MOL0     C15833   2.405   9.822  -0.665  0.3217  0.1945 -0.6079
  118MOL0     C15834   2.513   9.928  -0.653  0.6645  0.2173 -0.4262
  118MOL0     C15835   2.626   9.907  -0.763  0.2107 -1.2168 -0.1765
  118MOL0     C15836   2.713  10.037  -0.764  0.2283  0.6440  0.2066
  118MOL0     C15837   2.840  10.007  -0.841 -0.7101  0.2379  0.0371
  118MOL0     C15838   2.931  10.123  -0.825 -0.2925 -0.4136 -0.2317
  118MOL0     C15839   3.065  10.117  -0.907  0.8885  0.2481 -0.6442
  118MOL0    Cl15840   3.158   9.974  -0.840 -0.3568  0.1309 -0.2301
  118MOL0     C15841   1.991   9.733  -0.426 -1.2578  0.5280  0.4372
  118MOL0     C15842   1.915   9.717  -0.308  0.0508 -0.9670 -0.3892
  118MOL0     O15843   1.704   9.702  -0.107  0.2708 -0.1551 -0.4428
  118MOL0     C15844   1.614   9.705   0.154 -0.8084 -0.6698 -0.1686
  118MOL0     C15845   1.565   9.725   0.283  0.3240 -0.2852  0.8426
  118MOL0     N15846   1.143  10.057   0.887 -0.0448 -0.9834 -0.6379
  118MOL0     N15847   1.019  10.079   0.899 -0.8803  0.3608  0.7678
  118MOL0     C15848   0.227   9.878   0.168 -0.5933 -0.8800  0.2634
  118MOL0     C15849   0.123   9.794   0.207 -0.0896 -0.0696  0.2385
  118MOL0     C15850  -0.205   9.568   0.425  0.3954 -0.2129  0.0105
  118MOL0     C15851  -0.220   9.495   0.543  0.4719 -0.5688 -0.2983
  118MOL0     C15852  -0.338   9.422   0.559 -0.1891  0.2277 -0.2798
  118MOL0     C15853  -0.426   9.411   0.455 -0.6474  0.7465  0.3167
  118MOL0     O15854  -0.539   9.333   0.442 -0.3344 -0.4907 -0.3375
  118MOL0     C15855  -0.559   9.237   0.546  0.2517 -0.5327 -0.7761
  118MOL0     C15856  -0.655   9.128   0.509 -0.0242  0.4922 -0.1993
  118MOL0     C15857  -0.626   9.064   0.368 -0.2219 -1.0388  0.7502
  118MOL0     C15858  -0.760   9.016   0.308 -0.2318  0.8872  0.1144
  118MOL0     C15859  -0.871   9.110   0.284 -0.0785 -0.2812  0.1469
  118MOL0     C15860  -0.939   9.210   0.258  0.2950  1.0939  0.3890
  118MOL0     C15861  -0.406   9.469   0.337  0.4437 -1.1686 -0.3184
  118MOL0     C15862  -0.301   9.567   0.329  0.2288  0.4561  0.0284
  118MOL0     H15863  -0.088   9.989   0.365  1.5822  2.4327  0.8625
  118MOL0     H15864   0.075  10.158   0.289  1.0646  0.3472 -0.3655
  118MOL0     H15865   0.451   9.987   0.073  1.7272 -1.7824  1.5899
  118MOL0     H15866   0.477  10.164   0.085  1.2908  0.6314  2.2225
  118MOL0     H15867   0.493  10.121   0.337  1.8398  0.2492 -0.5050
  118MOL0     H15868   0.471   9.943   0.301 -3.2202  1.5556  2.4700
  118MOL0     H15869   0.664   9.917   0.180  1.4658 -1.5198  2.2974
  118MOL0     H15870   0.714  10.094   0.210  0.4671  0.6417  2.5975
  118MOL0     H15871   0.683   9.889   0.432  0.0963  0.8379  1.3891
  118MOL0     H15872   0.839   9.942   0.362 -0.5668 -3.0959  1.5228
  118MOL0     H15873   0.811  10.155   0.482 -1.3863  1.7230  2.1533
  118MOL0     H15874   0.642  10.126   0.511 -0.0087 -0.1427  0.7755
  118MOL0     H15875   0.683   9.928   0.650 -1.6943  2.0607 -2.1999
  118MOL0     H15876   0.859   9.955   0.617 -1.0835 -3.7469 -0.9215
  118MOL0     H15877   0.651  10.156   0.767  1.5112 -0.3704  3.1868
  118MOL0     H15878   0.750  10.032   0.846  1.6966 -1.3209 -1.4637
  118MOL0     H15879   0.830  10.267   0.857  1.5371  1.8845 -0.7529
  118MOL0     H15880   0.840  10.258   0.677 -3.6494 -2.6920 -2.2508
  118MOL0     H15881   1.097  10.237   0.621  2.8460  1.8888  0.7369
  118MOL0     H15882   1.347  10.240   0.689  0.7011 -1.6617 -3.3818
  118MOL0     H15883   1.407  10.129   0.824  1.5284 -1.9299 -1.8226
  118MOL0     H15884   1.458  10.099   0.557 -1.1106 -1.1852 -1.4056
  118MOL0     H15885   1.292  10.030   0.561  2.1784 -4.1485 -2.2774
  118MOL0     H15886   1.344   9.867   0.725  0.6347  0.4691  2.6894
  118MOL0     H15887   1.507   9.916   0.744  0.1404  0.9755 -0.5611
  118MOL0     H15888   1.373   9.827   0.486 -0.0322  0.8037 -0.0407
  118MOL0     H15889   1.462   9.717   0.596  1.8462 -0.3076 -2.4234
  118MOL0     H15890   1.802   9.897   0.431 -0.7654  0.9157  0.5234
  118MOL0     H15891   2.032   9.759   0.192 -1.3754 -0.8847 -0.0216
  118MOL0     H15892   1.990   9.918   0.123  1.9873 -1.2082 -0.6916
  118MOL0     H15893   2.020   9.882   0.292 -3.2481  2.5306  1.4882
  118MOL0     H15894   2.172   9.745  -0.095  0.3163 -1.6200 -0.3271
  118MOL0     H15895   2.295   9.738  -0.291  0.1953  0.8865 -0.4830
  118MOL0     H15896   2.324   9.928  -0.486 -0.6104  1.0551 -3.7899
  118MOL0     H15897   2.391   9.770  -0.454 -0.1652  3.4043  3.6241
  118MOL0     H15898   2.439   9.718  -0.660  0.0234  0.1155 -0.0778
  118MOL0     H15899   2.348   9.840  -0.756  0.3962  2.1565 -0.3104
  118MOL0     H15900   2.559   9.906  -0.557 -2.3446 -3.3218  0.4307
  118MOL0     H15901   2.470  10.029  -0.650  1.8248  0.7428 -0.9007
  118MOL0     H15902   2.684   9.817  -0.739  0.9096 -0.5475  0.6973
  118MOL0     H15903   2.579   9.899  -0.862 -1.9069 -1.4125  0.7828
  118MOL0     H15904   2.733  10.065  -0.660 -0.3915 -0.1809  0.5599
  118MOL0     H15905   2.651  10.106  -0.823  1.1038  0.6062 -0.7863
  118MOL0     H15906   2.892   9.918  -0.805 -0.1890 -0.0595 -1.3794
  118MOL0     H15907   2.818   9.989  -0.947  1.5942 -1.0043 -0.3074
  118MOL0     H15908   2.957  10.143  -0.721 -4.3223  0.0576  0.8538
  118MOL0     H15909   2.875  10.216  -0.839 -3.4631 -2.1688 -0.1823
  118MOL0     H15910   3.119  10.207  -0.879 -1.2164  0.9093  1.6925
  118MOL0     H15911   3.040  10.116  -1.014  2.2620 -0.6923 -0.9818
  118MOL0     H15912   1.951   9.728  -0.526 -1.8636  1.6144  0.6068
  118MOL0     H15913   1.808   9.703  -0.318 -0.2417  1.4662 -1.5079
  118MOL0     H15914   1.548   9.642   0.095  0.6880 -2.0410 -0.4652
  118MOL0     H15915   1.478   9.670   0.317 -0.3447  0.9700  1.2366
  118MOL0     H15916   0.318   9.841   0.121 -0.1449 -0.7559  1.0127
  118MOL0     H15917   0.145   9.692   0.175  0.5577 -0.4218  1.7549
  118MOL0     H15918  -0.152   9.496   0.628  2.6210 -1.4891 -1.9217
  118MOL0     H15919  -0.356   9.367   0.651  1.8256 -2.7025 -1.4843
  118MOL0     H15920  -0.463   9.196   0.578  0.2358 -1.3263 -1.7212
  118MOL0     H15921  -0.589   9.293   0.635  1.4492 -0.3024 -0.4947
  118MOL0     H15922  -0.754   9.173   0.508 -0.8851 -1.3485 -1.2895
  118MOL0     H15923  -0.643   9.055   0.589  3.7833  1.3228  0.2194
  118MOL0     H15924  -0.547   8.989   0.368  1.9098  1.0726  1.1900
  118MOL0     H15925  -0.599   9.146   0.301 -3.1536 -1.2935 -0.9272
  118MOL0     H15926  -0.809   8.958   0.387  0.5247  2.7831  2.0540
  118MOL0     H15927  -0.747   8.966   0.212 -0.5205  0.0271  0.5093
  118MOL0     H15928  -1.007   9.288   0.232 -0.3778  0.0055 -1.2743
  118MOL0     H15929  -0.483   9.461   0.262 -2.0717  1.8572  1.6713
  118MOL0     H15930  -0.280   9.627   0.241 -1.6835  0.7438 -0.2611
  119MOL0     O15931   3.498   5.084   5.613 -0.4013 -0.1851  0.3379
  119MOL0     C15932   3.535   5.192   5.646 -0.1289  0.2121 -0.3499
  119MOL0     O15933   3.620   5.270   5.576  0.5487  0.7273 -0.3099
  119MOL0     C15934   3.638   5.235   5.444  0.5272  1.2400 -0.5384
  119MOL0     C15935   3.763   5.201   5.397 -0.0551  1.1015 -1.2877
  119MOL0     C15936   3.787   5.184   5.264  0.2558  0.2566 -0.5136
  119MOL0     C15937   3.689   5.180   5.165  0.8056  0.3400 -0.5119
  119MOL0     O15938   3.717   5.147   5.035 -0.6756 -0.1585  0.2605
  119MOL0     C15939   3.652   5.026   4.995 -1.1199  0.4319  0.4556
  119MOL0     C15940   3.664   5.005   4.839  0.1523 -0.3394 -0.6104
  119MOL0     C15941   3.580   5.110   4.757 -0.1302 -0.6243  0.7434
  119MOL0     C15942   3.627   5.110   4.614  0.5095  0.5478  0.0786
  119MOL0     C15943   3.586   5.227   4.531 -0.3427 -1.3711  0.9311
  119MOL0     C15944   3.696   5.326   4.543 -0.7256  0.5028 -0.6983
  119MOL0     C15945   3.669   5.457   4.473  0.2340  0.3747  0.0052
  119MOL0     C15946   3.574   5.552   4.547  1.6061  0.4014  0.8287
  119MOL0     N15947   3.615   5.596   4.678 -0.1431 -0.2503 -0.4115
  119MOL0     C15948   3.567   5.553   4.803 -0.3044  0.1061  0.4088
  119MOL0     C15949   3.640   5.602   4.897 -0.0640 -0.0431 -0.9596
  119MOL0     C15950   3.626   5.576   5.048  0.4943 -0.3619  0.2451
  119MOL0     C15951   3.757   5.524   5.103 -0.3718 -0.7649  1.1307
  119MOL0     C15952   3.861   5.636   5.112  1.3195  0.4645  0.4555
  119MOL0     C15953   3.979   5.593   5.204 -0.5441  0.3564 -0.2168
  119MOL0     O15954   4.102   5.665   5.197  1.1139 -0.3835  0.0355
  119MOL0     C15955   4.197   5.626   5.113  0.2771 -0.9529 -0.5488
  119MOL0     C15956   4.261   5.503   5.122 -0.7918  0.1788  0.1581
  119MOL0     C15957   4.366   5.474   5.032 -0.5730  0.3921 -0.9693
  119MOL0     C15958   4.440   5.349   5.052 -0.2656 -0.6389  0.4761
  119MOL0     C15959   4.396   5.561   4.922  1.0933 -0.1466 -0.6421
  119MOL0     C15960   4.490   5.541   4.810  0.4400 -0.1184  0.5207
  119MOL0     O15961   4.476   5.619   4.698 -0.2720  0.0844 -0.7882
  119MOL0     C15962   4.556   5.586   4.590 -0.2981  0.6882  0.2604
  119MOL0     C15963   4.633   5.702   4.551  0.9239  0.1653 -0.3959
  119MOL0     C15964   4.726   5.691   4.445  0.4812 -1.2300  0.4785
  119MOL0     C15965   4.732   5.567   4.377  0.5773 -0.3951  0.7687
  119MOL0     O15966   4.799   5.533   4.264  0.0161 -0.0046 -0.3785
  119MOL0     C15967   4.904   5.624   4.229 -0.6451  0.3562 -0.2841
  119MOL0     C15968   4.951   5.560   4.097 -0.7570  0.7224  0.7849
  119MOL0     C15969   4.853   5.567   3.981  0.2663 -0.0294  0.2613
  119MOL0     C15970   4.789   5.709   3.961  0.3760 -0.7376  0.5500
  119MOL0     C15971   4.888   5.814   3.931 -0.4673  0.5085  0.1873
  119MOL0     C15972   4.829   5.955   3.896 -0.0562 -0.3289  0.6266
  119MOL0     C15973   4.747   5.968   3.774 -0.7764  1.5233 -0.2404
  119MOL0     C15974   4.791   6.084   3.683 -0.4343 -0.3522 -1.5787
  119MOL0    Cl15975   4.959   6.094   3.633  0.2506 -0.1881 -0.1684
  119MOL0     C15976   4.658   5.455   4.425  0.0489 -0.4245  0.8957
  119MOL0     C15977   4.566   5.467   4.524 -0.6020  0.6018 -1.2258
  119MOL0     O15978   4.582   5.458   4.827  0.2352 -0.0135 -0.4628
  119MOL0     C15979   4.327   5.678   4.905  0.3934 -0.2947 -0.5281
  119MOL0     C15980   4.236   5.716   5.005  0.1411 -0.2774  0.2402
  119MOL0     N15981   3.733   5.687   4.839  0.2628 -0.1878 -0.0778
  119MOL0     N15982   3.719   5.680   4.711  1.4816 -0.3295  0.4937
  119MOL0     C15983   3.558   5.228   5.210  1.1294  0.2763  0.7492
  119MOL0     C15984   3.528   5.259   5.347  0.6575  0.9110  0.1355
  119MOL0     C15985   3.478   5.246   5.774  0.4330 -0.2341  0.5759
  119MOL0     C15986   3.409   5.161   5.860 -0.0818 -0.9030 -0.9999
  119MOL0     C15987   3.367   5.221   5.974  1.3291 -0.1766 -0.2935
  119MOL0     C15988   3.372   5.355   6.012 -0.4469  0.0106 -0.2138
  119MOL0     O15989   3.325   5.386   6.136  0.8116  0.0118 -0.1792
  119MOL0     C15990   3.278   5.520   6.157 -0.3303  0.0193  0.7447
  119MOL0     C15991   3.131   5.501   6.204 -0.3221  1.0272  0.0608
  119MOL0     C15992   3.047   5.455   6.078 -0.8925 -1.1407 -0.8749
  119MOL0     C15993   2.909   5.412   6.128  1.0389 -0.0450  0.2853
  119MOL0     C15994   2.832   5.509   6.202 -0.0901 -0.5562 -0.0048
  119MOL0     C15995   2.751   5.589   6.246  0.8397  0.0723  0.5116
  119MOL0     C15996   3.427   5.439   5.926 -0.0245 -0.5268 -0.4770
  119MOL0     C15997   3.498   5.385   5.814  0.5681 -0.1537  0.2534
  119MOL0     H15998   3.846   5.202   5.468 -2.7746 -3.0305  2.4900
  119MOL0     H15999   3.889   5.172   5.227  1.2224  1.6746  1.4785
  119MOL0     H16000   3.706   4.945   5.046  0.8127  2.1654  1.2828
  119MOL0     H16001   3.545   5.022   5.020 -1.3349  3.3317  0.3073
  119MOL0     H16002   3.769   4.990   4.814  1.2255  0.6213  2.8554
  119MOL0     H16003   3.618   4.907   4.823 -0.7729  0.2840 -1.9563
  119MOL0     H16004   3.476   5.078   4.772  0.9009 -2.6572  5.4368
  119MOL0     H16005   3.597   5.207   4.806 -1.0597 -0.5619  0.9566
  119MOL0     H16006   3.735   5.095   4.606  0.7027  2.5521 -3.7878
  119MOL0     H16007   3.584   5.021   4.569  1.2910  0.8676 -1.3520
  119MOL0     H16008   3.582   5.204   4.424  0.8476 -1.2724  0.8464
  119MOL0     H16009   3.489   5.260   4.567  1.4557  1.3136  3.8311
  119MOL0     H16010   3.698   5.337   4.652 -0.1028  0.2702 -0.6844
  119MOL0     H16011   3.791   5.285   4.507 -1.1749  0.6591 -2.1272
  119MOL0     H16012   3.764   5.510   4.469 -0.6817  2.5170  3.0780
  119MOL0     H16013   3.631   5.438   4.373  0.2107 -0.8556  0.2289
  119MOL0     H16014   3.478   5.503   4.560  1.4617  0.4688  0.0599
  119MOL0     H16015   3.553   5.645   4.494 -0.6094 -0.2183  0.5359
  119MOL0     H16016   3.479   5.491   4.818 -0.7692 -0.5325 -3.7324
  119MOL0     H16017   3.583   5.662   5.100  0.0299  0.5666 -1.5927
  119MOL0     H16018   3.547   5.501   5.054 -0.4890  0.6600  0.3161
  119MOL0     H16019   3.790   5.441   5.040 -0.8628  1.1383 -1.8388
  119MOL0     H16020   3.730   5.481   5.200 -2.7578 -1.5816  0.2043
  119MOL0     H16021   3.821   5.729   5.153 -0.1864  1.4115 -2.8794
  119MOL0     H16022   3.902   5.664   5.015  0.1629  1.0898  0.1387
  119MOL0     H16023   3.993   5.485   5.208  1.1425  0.5378 -0.4617
  119MOL0     H16024   3.941   5.617   5.304  0.2078  0.3386  0.0821
  119MOL0     H16025   4.235   5.428   5.197 -3.1035 -0.1521 -0.9036
  119MOL0     H16026   4.537   5.370   5.097 -0.1378 -0.1743  0.0034
  119MOL0     H16027   4.399   5.278   5.124  0.8435 -1.5326  0.2433
  119MOL0     H16028   4.445   5.297   4.956 -2.9980 -0.5147  0.1757
  119MOL0     H16029   4.609   5.796   4.599 -0.6083 -1.5657  2.4982
  119MOL0     H16030   4.760   5.787   4.408 -1.7822  0.1589  1.7526
  119MOL0     H16031   4.868   5.725   4.207 -0.4230 -0.0186 -2.6343
  119MOL0     H16032   4.984   5.624   4.302 -0.4844 -1.3418 -0.4161
  119MOL0     H16033   5.042   5.602   4.054 -2.6950  1.9146 -2.4722
  119MOL0     H16034   4.958   5.452   4.118 -5.0772  0.5029  2.0970
  119MOL0     H16035   4.764   5.509   4.007 -0.9593  1.1421 -1.1495
  119MOL0     H16036   4.893   5.523   3.889 -0.6193  2.4049 -1.3740
  119MOL0     H16037   4.723   5.696   3.874 -2.0280 -1.9765  2.4401
  119MOL0     H16038   4.737   5.734   4.054 -0.8332 -3.3587  0.6774
  119MOL0     H16039   4.951   5.779   3.848 -3.3256 -1.5991 -1.2630
  119MOL0     H16040   4.948   5.836   4.020 -0.9998  2.6223  0.0839
  119MOL0     H16041   4.766   5.978   3.983 -0.0951  0.2569  0.4427
  119MOL0     H16042   4.913   6.024   3.897  0.2096 -0.6407  0.2213
  119MOL0     H16043   4.642   5.970   3.803 -1.4585  1.2809 -2.5395
  119MOL0     H16044   4.763   5.879   3.712  0.7765  1.7756 -0.2550
  119MOL0     H16045   4.764   6.176   3.734  0.0373 -1.6841  1.2750
  119MOL0     H16046   4.725   6.082   3.596 -2.5183  3.0625 -0.2517
  119MOL0     H16047   4.680   5.359   4.378 -0.5848  1.0172 -2.6453
  119MOL0     H16048   4.526   5.379   4.574  2.6164 -0.6492 -0.5850
  119MOL0     H16049   4.350   5.751   4.828  1.8694 -1.3625 -1.1500
  119MOL0     H16050   4.187   5.812   5.003  0.0434 -0.2668  1.9840
  119MOL0     H16051   3.484   5.224   5.131  2.4783 -1.5198 -0.5084
  119MOL0     H16052   3.431   5.300   5.373  1.1731  2.1610  0.1844
  119MOL0     H16053   3.406   5.055   5.836  1.2536 -1.1620 -0.0958
  119MOL0     H16054   3.319   5.142   6.030 -2.7561  1.4176 -1.1730
  119MOL0     H16055   3.343   5.570   6.230  2.6057 -2.5336  0.1168
  119MOL0     H16056   3.288   5.580   6.065 -0.5961  0.2691  0.8770
  119MOL0     H16057   3.100   5.601   6.237  0.0198  1.7052 -1.5460
  119MOL0     H16058   3.132   5.428   6.285  3.5752  1.7668  0.8659
  119MOL0     H16059   3.104   5.375   6.030  0.1472 -0.2084 -1.2583
  119MOL0     H16060   3.044   5.544   6.015 -2.8408 -1.3516 -1.1341
  119MOL0     H16061   2.907   5.314   6.176  2.5418 -1.1941 -1.7901
  119MOL0     H16062   2.855   5.404   6.033  1.8805  0.7308 -0.2827
  119MOL0     H16063   2.674   5.638   6.302  0.9436 -1.3384  1.9690
  119MOL0     H16064   3.445   5.545   5.940  2.4549 -0.8055 -1.0261
  119MOL0     H16065   3.556   5.454   5.753  1.2977  0.3010  1.4107
  120MOL0     O16066   3.286  11.160   2.009 -0.1158  0.3055 -0.2566
  120MOL0     C16067   3.241  11.263   1.970 -0.1902 -0.9255  0.0141
  120MOL0     O16068   3.157  11.270   1.855  0.5897  0.9712 -0.4388
  120MOL0     C16069   3.106  11.156   1.791  0.8421  0.2651  1.0888
  120MOL0     C16070   3.117  11.158   1.650  0.2760 -0.6771 -0.1404
  120MOL0     C16071   3.081  11.049   1.574  0.2590 -0.3248  1.2982
  120MOL0     C16072   3.033  10.939   1.636  0.7247  0.4854 -0.6021
  120MOL0     O16073   3.012  10.823   1.570  0.2889 -0.0380 -0.2066
  120MOL0     C16074   2.879  10.840   1.500 -0.1605 -0.1762 -0.7925
  120MOL0     C16075   2.879  10.738   1.390 -0.7898  0.3850 -0.5875
  120MOL0     C16076   2.737  10.712   1.330  0.4493  0.8422 -0.7773
  120MOL0     C16077   2.748  10.598   1.224  0.4822 -0.0785  0.9557
  120MOL0     C16078   2.617  10.553   1.167  0.7846 -0.5784 -0.0311
  120MOL0     C16079   2.533  10.484   1.281 -0.6969 -0.3660  0.8164
  120MOL0     C16080   2.412  10.413   1.218 -0.1747  0.5090  1.0321
  120MOL0     C16081   2.463  10.301   1.119  0.4637  0.3548  0.3340
  120MOL0     N16082   2.360  10.197   1.080 -0.4188  0.1392  0.4158
  120MOL0     C16083   2.313  10.093   1.157 -0.3163 -0.2708 -1.2183
  120MOL0     C16084   2.194  10.075   1.105 -0.1080  0.1761 -0.3649
  120MOL0     C16085   2.109   9.967   1.161  0.2855 -0.2727 -0.4672
  120MOL0     C16086   2.028  10.013   1.284 -0.2322 -0.4464  0.3921
  120MOL0     C16087   1.933  10.137   1.250 -0.2180  0.6408  0.6196
  120MOL0     C16088   1.871  10.202   1.380  0.1025 -0.0317 -0.5635
  120MOL0     O16089   1.732  10.175   1.395 -0.1422  0.7011  0.0427
  120MOL0     C16090   1.663  10.292   1.432  0.3367  0.4939  0.9398
  120MOL0     C16091   1.535  10.315   1.379 -0.1998 -0.4472 -0.0195
  120MOL0     C16092   1.456  10.427   1.422 -0.9607  0.5328  0.9585
  120MOL0     C16093   1.318  10.434   1.343 -0.0077  0.6348 -0.1572
  120MOL0     C16094   1.511  10.526   1.508 -0.1339  0.5210  0.1456
  120MOL0     C16095   1.429  10.644   1.549  0.1565 -0.6312 -0.5334
  120MOL0     O16096   1.479  10.737   1.630 -0.0957  0.5721 -0.6237
  120MOL0     C16097   1.434  10.863   1.655 -0.8904 -0.6394 -0.6231
  120MOL0     C16098   1.300  10.901   1.676  0.2653 -0.1779  0.0969
  120MOL0     C16099   1.270  11.038   1.698 -0.5646 -0.1522 -1.2673
  120MOL0     C16100   1.374  11.130   1.701  0.6013  0.2199  0.1941
  120MOL0     O16101   1.341  11.261   1.689  0.1267  0.8754 -0.2790
  120MOL0     C16102   1.413  11.337   1.597 -0.6778  0.2229  0.2007
  120MOL0     C16103   1.319  11.443   1.526  0.2701 -0.0956 -0.6690
  120MOL0     C16104   1.387  11.523   1.415 -0.2814 -0.2770 -1.0764
  120MOL0     C16105   1.485  11.620   1.480 -0.0444  0.4559 -0.5587
  120MOL0     C16106   1.538  11.728   1.383  1.2544 -0.4137 -0.1089
  120MOL0     C16107   1.530  11.872   1.437 -0.5496  0.0457  0.7964
  120MOL0     C16108   1.586  11.964   1.327 -0.2029 -1.0423  0.2054
  120MOL0     C16109   1.570  12.109   1.372  0.8852  0.3268 -0.2153
  120MOL0    Cl16110   1.647  12.244   1.278 -0.3060  0.1501 -0.3556
  120MOL0     C16111   1.512  11.089   1.694 -0.5563 -0.4367  0.3552
  120MOL0     C16112   1.540  10.953   1.675 -0.4742 -0.7123 -0.4520
  120MOL0     O16113   1.321  10.652   1.507 -0.1314  0.1821 -0.4733
  120MOL0     C16114   1.641  10.500   1.558  0.0881 -0.6114 -0.1459
  120MOL0     C16115   1.710  10.386   1.527  0.1148  0.1610  0.6037
  120MOL0     N16116   2.176  10.139   0.991 -0.4542  0.2801  0.3397
  120MOL0     N16117   2.276  10.213   0.968  0.5249 -0.6699 -0.1929
  120MOL0     C16118   3.020  10.933   1.778 -0.4855  0.1744  0.4752
  120MOL0     C16119   3.053  11.040   1.856  0.2760 -0.0861 -0.0410
  120MOL0     C16120   3.269  11.385   2.047  0.0226 -0.2238 -0.3781
  120MOL0     C16121   3.373  11.397   2.143 -0.9769  0.2840  0.1652
  120MOL0     C16122   3.400  11.517   2.209  0.2283 -0.1152  0.0135
  120MOL0     C16123   3.318  11.629   2.186  0.0444  0.0419 -0.7840
  120MOL0     O16124   3.356  11.742   2.251  0.5920  0.2452  0.0931
  120MOL0     C16125   3.266  11.854   2.280  0.5211  0.2878  0.2127
  120MOL0     C16126   3.299  11.977   2.195 -0.5230  0.0672  0.8784
  120MOL0     C16127   3.280  11.957   2.037  0.0210  0.5570 -0.9622
  120MOL0     C16128   3.279  12.093   1.961 -0.0279 -0.1599  0.0752
  120MOL0     C16129   3.190  12.193   2.015  0.4844 -0.7333  0.0684
  120MOL0     C16130   3.129  12.282   2.074  0.2127 -0.4240 -0.1274
  120MOL0     C16131   3.213  11.614   2.091 -0.5186  0.5331 -0.2096
  120MOL0     C16132   3.189  11.495   2.025 -0.9703  0.4261  0.1549
  120MOL0     H16133   3.152  11.243   1.593  0.8516 -2.7550 -3.0720
  120MOL0     H16134   3.062  11.070   1.470  0.3216 -0.1451  1.3232
  120MOL0     H16135   2.795  10.823   1.569  1.5939  0.8118  1.7628
  120MOL0     H16136   2.862  10.938   1.456 -1.8665  0.1659  0.5143
  120MOL0     H16137   2.963  10.765   1.325 -0.5440 -1.2698 -1.0019
  120MOL0     H16138   2.911  10.643   1.435  3.0666  1.7732 -0.0276
  120MOL0     H16139   2.675  10.684   1.416  0.2480 -1.0449 -1.4877
  120MOL0     H16140   2.687  10.796   1.282 -3.9871 -0.6688  0.6740
  120MOL0     H16141   2.820  10.639   1.152  1.4220 -1.8709  0.8163
  120MOL0     H16142   2.789  10.502   1.255  3.6928  0.1947 -1.7714
  120MOL0     H16143   2.560  10.641   1.137  0.4822  0.1982  2.5323
  120MOL0     H16144   2.633  10.491   1.079  0.0064 -0.2271 -0.4294
  120MOL0     H16145   2.597  10.410   1.331 -0.1756 -0.3015  0.2632
  120MOL0     H16146   2.500  10.561   1.352 -0.2155 -1.4870  2.3144
  120MOL0     H16147   2.356  10.355   1.292  0.2962 -4.3871 -2.0083
  120MOL0     H16148   2.363  10.492   1.161 -0.4656 -2.5034 -3.3687
  120MOL0     H16149   2.533  10.243   1.179 -3.0464 -2.3507  2.1904
  120MOL0     H16150   2.490  10.351   1.026 -2.6362 -1.1766 -1.5373
  120MOL0     H16151   2.355  10.046   1.245  0.4013 -0.0922 -1.4558
  120MOL0     H16152   2.031   9.939   1.089 -0.7580  1.8451 -0.2286
  120MOL0     H16153   2.163   9.874   1.183  0.2835  0.0503  0.9734
  120MOL0     H16154   2.091  10.050   1.366 -3.2007 -0.4531  2.8650
  120MOL0     H16155   1.975   9.929   1.330  1.8088 -0.7513  2.3878
  120MOL0     H16156   1.858  10.099   1.180 -0.7036  0.6131  1.1443
  120MOL0     H16157   1.979  10.215   1.189 -0.2839  0.7721  0.7366
  120MOL0     H16158   1.894  10.309   1.378 -2.7831  0.6851  0.2113
  120MOL0     H16159   1.924  10.158   1.466  0.5670 -1.1655 -1.4062
  120MOL0     H16160   1.486  10.247   1.309  0.5219  2.4689 -3.6797
  120MOL0     H16161   1.305  10.531   1.293 -0.9002 -0.2650 -1.7581
  120MOL0     H16162   1.300  10.361   1.263 -0.6368 -1.3332  1.6963
  120MOL0     H16163   1.236  10.414   1.412  1.1041 -1.1055  0.7416
  120MOL0     H16164   1.217  10.831   1.672 -1.8151  1.9217  2.6373
  120MOL0     H16165   1.167  11.070   1.712 -0.0513  1.0237  0.0897
  120MOL0     H16166   1.491  11.387   1.654 -1.3574 -0.8883  2.2336
  120MOL0     H16167   1.465  11.270   1.528  0.0094  0.3990  0.5359
  120MOL0     H16168   1.234  11.386   1.487 -0.9552 -0.0146  1.7096
  120MOL0     H16169   1.286  11.509   1.606 -0.8008  0.5263 -1.5841
  120MOL0     H16170   1.316  11.574   1.350 -2.2580 -1.1396  0.2845
  120MOL0     H16171   1.420  11.441   1.351  0.2567 -2.7138  2.0680
  120MOL0     H16172   1.430  11.678   1.555 -3.0721 -1.8042 -0.8660
  120MOL0     H16173   1.563  11.562   1.531  0.2584 -0.5359 -2.0945
  120MOL0     H16174   1.477  11.722   1.293 -0.8763 -0.9107  1.3040
  120MOL0     H16175   1.638  11.695   1.353  1.4841  0.2584 -0.1002
  120MOL0     H16176   1.435  11.902   1.482 -0.4095  0.0400  1.1011
  120MOL0     H16177   1.589  11.880   1.529  1.2384  0.8068 -0.3679
  120MOL0     H16178   1.532  11.969   1.232  0.4668 -0.7672 -0.1715
  120MOL0     H16179   1.689  11.936   1.301 -0.5279 -2.7768  0.6537
  120MOL0     H16180   1.606  12.119   1.475 -2.2934  0.3010  1.0102
  120MOL0     H16181   1.463  12.135   1.373  1.1842  1.6026 -0.5271
  120MOL0     H16182   1.599  11.153   1.690 -0.2145 -0.9128  0.1017
  120MOL0     H16183   1.643  10.924   1.657 -0.8509 -1.0125 -2.3177
  120MOL0     H16184   1.685  10.578   1.619 -1.2346 -0.3309  0.4899
  120MOL0     H16185   1.811  10.371   1.564 -0.6858 -3.9718  1.6075
  120MOL0     H16186   2.990  10.840   1.825 -0.0832 -0.2116 -0.0208
  120MOL0     H16187   3.048  11.023   1.963  4.7427  0.9856  0.5546
  120MOL0     H16188   3.427  11.306   2.165 -1.9455 -0.3259  0.0982
  120MOL0     H16189   3.488  11.524   2.273  1.3321 -0.2894 -1.4517
  120MOL0     H16190   3.162  11.822   2.277 -0.3991  3.0253  0.4219
  120MOL0     H16191   3.282  11.869   2.388 -1.1083 -2.7566  1.0054
  120MOL0     H16192   3.403  12.001   2.219  1.3578 -1.3541 -4.4516
  120MOL0     H16193   3.233  12.058   2.228  1.7368  1.1620  3.0105
  120MOL0     H16194   3.182  11.911   2.021 -0.6055  2.0963 -1.8220
  120MOL0     H16195   3.353  11.882   2.005  0.1153  1.4692 -3.0511
  120MOL0     H16196   3.238  12.060   1.866 -0.9994 -1.4436  0.9143
  120MOL0     H16197   3.384  12.124   1.949  0.6509 -2.2109  0.3921
  120MOL0     H16198   3.063  12.353   2.119 -1.5263 -0.3317 -2.6342
  120MOL0     H16199   3.160  11.705   2.066 -0.2481  1.4470  2.2310
  120MOL0     H16200   3.112  11.482   1.949  0.5358  2.0908 -1.7722
  121MOL0     O16201   1.276   1.383   7.302  0.4336  0.2140 -0.2481
  121MOL0     C16202   1.364   1.456   7.350 -0.0481  0.8675 -0.1381
  121MOL0     O16203   1.469   1.502   7.287 -0.0551 -0.0681  0.7914
  121MOL0     C16204   1.501   1.456   7.157  0.4616  0.7410  1.2476
  121MOL0     C16205   1.419   1.414   7.053 -0.3773 -0.5529 -0.5866
  121MOL0     C16206   1.470   1.366   6.935  0.3609 -0.3172  0.2531
  121MOL0     C16207   1.603   1.358   6.910 -0.7068  0.1842  0.8430
  121MOL0     O16208   1.653   1.324   6.783 -0.4643  0.7093 -0.7469
  121MOL0     C16209   1.748   1.219   6.789  0.0768 -0.2660 -0.4183
  121MOL0     C16210   1.736   1.153   6.652  0.6784 -0.0138 -0.0687
  121MOL0     C16211   1.619   1.061   6.646  0.0934 -0.2628  0.7768
  121MOL0     C16212   1.603   0.983   6.525  0.0840  0.1310  0.1914
  121MOL0     C16213   1.589   1.049   6.376  0.3446  0.2976 -0.9695
  121MOL0     C16214   1.445   1.112   6.375 -0.7203 -0.4608  0.4260
  121MOL0     C16215   1.424   1.188   6.245  0.4118  0.2478 -0.4278
  121MOL0     C16216   1.455   1.107   6.115  0.9383  0.5133 -1.4501
  121MOL0     N16217   1.413   1.160   5.986  0.0192  0.2282  0.6169
  121MOL0     C16218   1.480   1.237   5.898  0.2531  0.7639 -0.2765
  121MOL0     C16219   1.386   1.278   5.810 -0.0667 -0.1657  0.8908
  121MOL0     C16220   1.418   1.373   5.703 -0.2267 -0.3407 -0.8970
  121MOL0     C16221   1.308   1.436   5.620 -1.2242 -0.3521 -0.6618
  121MOL0     C16222   1.375   1.549   5.538  0.1751 -1.0645 -0.6826
  121MOL0     C16223   1.284   1.610   5.432  0.2168  0.5186  0.0800
  121MOL0     O16224   1.320   1.546   5.306  0.3232  0.9015 -0.2118
  121MOL0     C16225   1.276   1.602   5.192  0.3355 -0.4637  0.6474
  121MOL0     C16226   1.185   1.710   5.167  0.5678  0.1521  0.4166
  121MOL0     C16227   1.155   1.751   5.041  0.1218  0.1678 -0.1560
  121MOL0     C16228   1.049   1.852   5.022 -0.1663  0.3873  0.6090
  121MOL0     C16229   1.227   1.705   4.932  0.3190 -0.2328 -0.2799
  121MOL0     C16230   1.211   1.749   4.790  0.5184  1.0200  0.0211
  121MOL0     O16231   1.322   1.740   4.706  0.2537 -0.1092  0.2236
  121MOL0     C16232   1.311   1.761   4.574 -0.6489 -0.5366  0.5507
  121MOL0     C16233   1.236   1.867   4.516  0.2628  0.1789 -0.1809
  121MOL0     C16234   1.249   1.891   4.370 -0.3046 -0.2321  0.2401
  121MOL0     C16235   1.345   1.824   4.293 -0.5764  0.3847  0.3267
  121MOL0     O16236   1.362   1.832   4.159  0.6139 -0.0199 -0.0812
  121MOL0     C16237   1.316   1.955   4.101 -0.4669  1.3857  0.1023
  121MOL0     C16238   1.369   1.937   3.958 -0.1317  0.3702  0.5494
  121MOL0     C16239   1.398   2.075   3.891  0.6703  0.2507  0.8980
  121MOL0     C16240   1.284   2.175   3.855  0.5875 -0.0696 -0.7149
  121MOL0     C16241   1.259   2.200   3.706 -0.6859  0.2688  0.0397
  121MOL0     C16242   1.159   2.096   3.651 -1.0783  0.5276  0.4370
  121MOL0     C16243   1.148   2.113   3.495 -0.9523  0.4359 -0.5696
  121MOL0     C16244   1.026   2.056   3.438 -0.7276  0.7045 -0.4171
  121MOL0    Cl16245   1.043   2.090   3.265  0.0398 -0.0034  0.2532
  121MOL0     C16246   1.413   1.717   4.347 -0.0482  0.4027 -0.3793
  121MOL0     C16247   1.399   1.687   4.487 -0.5399  0.0239  0.1519
  121MOL0     O16248   1.096   1.766   4.759  1.1787 -0.1858  1.0689
  121MOL0     C16249   1.327   1.608   4.953  0.7299  0.0205  0.1008
  121MOL0     C16250   1.341   1.553   5.084 -0.7173  0.7502  0.5964
  121MOL0     N16251   1.262   1.224   5.841  0.4776 -0.6921 -0.5286
  121MOL0     N16252   1.283   1.156   5.941 -1.0059  0.7977 -0.6950
  121MOL0     C16253   1.690   1.393   7.013  0.5766  0.1130 -0.1475
  121MOL0     C16254   1.638   1.453   7.127 -1.1433 -0.5892  0.1797
  121MOL0     C16255   1.343   1.505   7.490 -0.5591 -0.9070 -0.3097
  121MOL0     C16256   1.444   1.599   7.544  0.3298 -0.3162 -0.3464
  121MOL0     C16257   1.433   1.661   7.672  0.1935  0.3680  0.9272
  121MOL0     C16258   1.316   1.627   7.741 -0.5868 -0.5998  0.3405
  121MOL0     O16259   1.306   1.699   7.857 -0.0075 -0.4805 -0.1946
  121MOL0     C16260   1.209   1.661   7.948  0.0175  0.3183 -0.0296
  121MOL0     C16261   1.200   1.743   8.064  0.2526  0.7360 -0.5071
  121MOL0     C16262   1.165   1.886   8.030  0.1061  0.6404  0.2948
  121MOL0     C16263   1.101   1.959   8.149 -1.5702 -0.6911  0.2893
  121MOL0     C16264   1.207   1.992   8.247 -0.6133  0.7608  1.0900
  121MOL0     C16265   1.301   2.008   8.318  0.4115  0.6196 -0.8129
  121MOL0     C16266   1.228   1.521   7.696 -0.5468 -0.7661  0.7671
  121MOL0     C16267   1.241   1.467   7.570  0.4525  0.5853 -1.0064
  121MOL0     H16268   1.312   1.428   7.057 -0.7025 -2.9099  0.0524
  121MOL0     H16269   1.397   1.356   6.855 -0.5235  0.6485  0.8999
  121MOL0     H16270   1.844   1.269   6.801  0.2751 -0.1632 -2.1348
  121MOL0     H16271   1.716   1.141   6.859  0.7424  2.3291  3.0042
  121MOL0     H16272   1.724   1.231   6.576  1.2406  0.5497  0.4055
  121MOL0     H16273   1.833   1.108   6.631  2.9861  0.8659  6.4139
  121MOL0     H16274   1.622   0.991   6.731 -2.4880 -0.9847  0.3468
  121MOL0     H16275   1.530   1.124   6.649  0.9471  1.2560 -2.2036
  121MOL0     H16276   1.700   0.932   6.525  0.6242  1.0929 -1.1094
  121MOL0     H16277   1.516   0.921   6.547 -0.2646  1.2775  2.3126
  121MOL0     H16278   1.656   1.134   6.367  1.3198 -0.2704  0.4771
  121MOL0     H16279   1.598   0.974   6.297  3.1968  0.1724 -0.6235
  121MOL0     H16280   1.367   1.036   6.379 -1.2584  0.0039 -0.7859
  121MOL0     H16281   1.432   1.189   6.451 -1.3093  2.3519 -2.3159
  121MOL0     H16282   1.324   1.233   6.248  0.9359  1.4301  0.3915
  121MOL0     H16283   1.496   1.270   6.259  1.9032 -0.9319 -0.9777
  121MOL0     H16284   1.395   1.016   6.126  1.4675  0.3618  0.5405
  121MOL0     H16285   1.562   1.084   6.107  0.6105 -1.1347 -1.6218
  121MOL0     H16286   1.584   1.266   5.914  1.9174 -4.0103 -0.7609
  121MOL0     H16287   1.472   1.457   5.748 -2.3664  0.9819 -0.6921
  121MOL0     H16288   1.485   1.321   5.634  0.2829 -1.5097  0.4349
  121MOL0     H16289   1.218   1.459   5.678 -2.0435 -2.2762 -1.0730
  121MOL0     H16290   1.275   1.367   5.542 -0.3605 -2.3897  0.6806
  121MOL0     H16291   1.467   1.508   5.496  1.7935 -1.3160  2.7853
  121MOL0     H16292   1.404   1.627   5.609 -0.6068 -0.6344 -0.8257
  121MOL0     H16293   1.308   1.716   5.413 -1.7006  1.3261  1.8334
  121MOL0     H16294   1.181   1.602   5.468  0.2477 -0.5922 -0.0547
  121MOL0     H16295   1.122   1.742   5.249 -3.0945 -2.0938 -1.2299
  121MOL0     H16296   0.959   1.795   4.996 -0.0819 -0.1344  1.4439
  121MOL0     H16297   1.025   1.901   5.116 -3.2133  0.3421 -0.0272
  121MOL0     H16298   1.077   1.920   4.941  1.6200 -1.4513 -0.3920
  121MOL0     H16299   1.165   1.930   4.568 -2.2570 -1.7847 -0.9699
  121MOL0     H16300   1.185   1.963   4.320 -0.4129  0.8049  1.7924
  121MOL0     H16301   1.208   1.963   4.084 -0.5913  0.2330  0.2730
  121MOL0     H16302   1.355   2.039   4.159  0.2379  0.8906  0.3519
  121MOL0     H16303   1.465   1.886   3.946  0.4060  1.6626 -0.8468
  121MOL0     H16304   1.298   1.882   3.895  0.3064 -0.2942  0.6233
  121MOL0     H16305   1.443   2.050   3.794  0.2952 -2.6998  1.3928
  121MOL0     H16306   1.474   2.128   3.949  2.0634 -2.3403  1.5866
  121MOL0     H16307   1.189   2.146   3.901  1.0473  1.1381  1.0899
  121MOL0     H16308   1.306   2.270   3.905 -0.1477 -1.1174  1.7682
  121MOL0     H16309   1.354   2.196   3.652  0.2609 -0.2507  1.6771
  121MOL0     H16310   1.214   2.297   3.685 -2.4279  0.0411  2.3335
  121MOL0     H16311   1.193   1.996   3.680 -0.1173  1.1243  1.4836
  121MOL0     H16312   1.060   2.118   3.692 -1.5717 -2.0312  0.7295
  121MOL0     H16313   1.241   2.084   3.445 -0.8046  1.3709 -0.8501
  121MOL0     H16314   1.145   2.221   3.477 -1.8867  0.5698  0.3333
  121MOL0     H16315   0.937   2.098   3.486 -0.6877 -1.3058  1.5651
  121MOL0     H16316   1.028   1.949   3.461  2.0910  0.6656 -0.5328
  121MOL0     H16317   1.477   1.651   4.289 -2.3402 -1.1827 -1.2275
  121MOL0     H16318   1.458   1.608   4.531 -2.9297 -1.4481  0.9041
  121MOL0     H16319   1.379   1.562   4.869 -1.0128 -1.8959 -0.0244
  121MOL0     H16320   1.410   1.471   5.093  1.3751  1.7381 -3.9440
  121MOL0     H16321   1.799   1.390   7.005  1.0224  3.9920  2.0698
  121MOL0     H16322   1.708   1.486   7.203  0.8765  1.1234 -2.2692
  121MOL0     H16323   1.528   1.633   7.484  2.1127 -0.9016  1.6918
  121MOL0     H16324   1.504   1.735   7.709  1.3941 -0.9474  1.3330
  121MOL0     H16325   1.116   1.674   7.890  1.5830  1.9468 -2.3557
  121MOL0     H16326   1.231   1.558   7.978 -1.4917  0.5430  2.0767
  121MOL0     H16327   1.291   1.732   8.124 -0.6743 -2.6545  0.5350
  121MOL0     H16328   1.116   1.701   8.120  0.9142  1.7204  1.3134
  121MOL0     H16329   1.084   1.897   7.958 -0.6812  2.3029  1.3690
  121MOL0     H16330   1.250   1.943   7.990  1.0036 -0.4027  0.6529
  121MOL0     H16331   1.017   1.903   8.191 -1.4960 -2.7144 -2.0305
  121MOL0     H16332   1.077   2.058   8.110 -0.7240  0.0759  1.6246
  121MOL0     H16333   1.394   2.036   8.366 -0.4220  0.6655  0.8547
  121MOL0     H16334   1.150   1.471   7.752 -1.2606 -2.2594 -1.4361
  121MOL0     H16335   1.165   1.396   7.538 -1.7178  2.0372  0.6806
  122MOL0     O16336   3.891   4.531   3.758  0.4420 -0.0679  0.5527
  122MOL0     C16337   3.965   4.464   3.831 -0.4454 -0.0502  0.0898
  122MOL0     O16338   3.972   4.474   3.967 -0.4645  0.7205  0.4675
  122MOL0     C16339   3.866   4.535   4.033  0.1971 -0.2159 -1.2336
  122MOL0     C16340   3.728   4.501   4.011  0.0533  0.2299  0.9334
  122MOL0     C16341   3.632   4.570   4.076  0.1790  0.4063  0.6706
  122MOL0     C16342   3.663   4.670   4.168 -0.6282 -0.0874  0.2847
  122MOL0     O16343   3.559   4.742   4.217 -0.6254  0.0570  0.2626
  122MOL0     C16344   3.548   4.886   4.186 -0.3981 -0.5706 -0.0222
  122MOL0     C16345   3.400   4.933   4.184 -0.3037 -0.1156  0.3307
  122MOL0     C16346   3.391   5.089   4.174 -0.2344  0.1956 -0.2437
  122MOL0     C16347   3.259   5.145   4.212  0.3685 -0.3218  0.2848
  122MOL0     C16348   3.254   5.298   4.172 -0.2793  0.1023 -0.2202
  122MOL0     C16349   3.349   5.394   4.235 -0.5071 -0.0192 -0.8677
  122MOL0     C16350   3.282   5.533   4.240 -0.6703  0.3361  0.3926
  122MOL0     C16351   3.140   5.543   4.298 -0.2746  0.2815 -0.0695
  122MOL0     N16352   3.139   5.463   4.424 -0.0597  0.2853  0.1320
  122MOL0     C16353   3.042   5.363   4.437  0.7231 -0.5930 -0.6851
  122MOL0     C16354   3.068   5.310   4.562  0.6153  0.0015 -0.2308
  122MOL0     C16355   2.984   5.201   4.626  0.3159  0.0708  0.4496
  122MOL0     C16356   3.091   5.090   4.658 -0.4232  0.3385 -1.4064
  122MOL0     C16357   3.035   4.953   4.685 -0.4676 -0.3096 -0.4152
  122MOL0     C16358   2.938   4.897   4.577  0.4054  0.1504  0.0409
  122MOL0     O16359   2.989   4.924   4.445 -0.2553 -0.1744 -0.3747
  122MOL0     C16360   2.948   4.845   4.339 -0.2471 -0.5343  0.4708
  122MOL0     C16361   2.820   4.789   4.331  0.4588 -1.1173  0.6080
  122MOL0     C16362   2.788   4.698   4.226  0.2316 -1.1903 -0.8521
  122MOL0     C16363   2.655   4.626   4.251 -0.8507 -0.9084 -0.4032
  122MOL0     C16364   2.876   4.677   4.117 -0.1487 -0.6824 -0.2522
  122MOL0     C16365   2.841   4.593   4.005  0.3679 -0.0511 -0.0360
  122MOL0     O16366   2.848   4.456   4.008 -0.6602  0.1802 -0.2724
  122MOL0     C16367   2.835   4.392   3.885 -0.5100  0.1164  0.5373
  122MOL0     C16368   2.763   4.430   3.757  1.0264  0.3982 -0.7262
  122MOL0     C16369   2.743   4.340   3.652 -0.0337 -0.0798  0.4181
  122MOL0     C16370   2.792   4.210   3.660  0.2966  0.6206 -0.7125
  122MOL0     O16371   2.781   4.112   3.564 -0.2447  0.6916  0.4174
  122MOL0     C16372   2.734   4.153   3.434 -0.4463 -0.6195 -0.2460
  122MOL0     C16373   2.713   4.050   3.331  0.2181  1.1728 -0.1327
  122MOL0     C16374   2.842   3.959   3.309 -0.8066 -0.1315 -0.0794
  122MOL0     C16375   2.955   4.050   3.256 -0.6760  0.5429  0.0798
  122MOL0     C16376   3.085   3.966   3.214  0.4880 -0.3328  0.2238
  122MOL0     C16377   3.181   4.061   3.145 -0.6989 -0.5992  0.1556
  122MOL0     C16378   3.304   3.993   3.094 -0.0495 -0.0232  0.8425
  122MOL0     C16379   3.350   3.877   3.178 -0.6020  1.2155  0.1089
  122MOL0    Cl16380   3.424   3.942   3.329  0.1609  0.0333 -0.0878
  122MOL0     C16381   2.843   4.173   3.784 -0.0722  0.3894 -0.2193
  122MOL0     C16382   2.875   4.262   3.886  0.1621 -0.5181 -0.7973
  122MOL0     O16383   2.804   4.661   3.913 -0.0952 -1.2161  0.5372
  122MOL0     C16384   3.001   4.737   4.129  1.2781 -0.2897  0.4161
  122MOL0     C16385   3.034   4.820   4.235  1.0148  0.2432  0.1465
  122MOL0     N16386   3.171   5.383   4.625  0.4269  0.2699  0.8175
  122MOL0     N16387   3.223   5.468   4.533  1.6113 -0.4032  0.3607
  122MOL0     C16388   3.798   4.696   4.200  0.8083  0.6867 -1.1445
  122MOL0     C16389   3.898   4.623   4.132  0.2276  0.9661 -0.6828
  122MOL0     C16390   4.040   4.351   3.765 -0.3249 -0.3342 -0.3504
  122MOL0     C16391   4.131   4.277   3.844 -1.0427 -0.0763 -0.1836
  122MOL0     C16392   4.205   4.165   3.804 -0.1776 -0.0712 -0.0366
  122MOL0     C16393   4.179   4.128   3.673  0.3686  0.1280 -1.1157
  122MOL0     O16394   4.245   4.025   3.603 -0.5255 -0.6992 -0.5069
  122MOL0     C16395   4.387   4.006   3.617 -0.5438  0.2863  0.3699
  122MOL0     C16396   4.473   4.096   3.524 -0.3154 -0.1635  0.1219
  122MOL0     C16397   4.442   4.077   3.369 -0.3500  0.2193  0.5943
  122MOL0     C16398   4.494   3.942   3.340  0.3899 -0.1502 -0.0618
  122MOL0     C16399   4.468   3.910   3.199 -0.1385 -0.2292  0.2676
  122MOL0     C16400   4.443   3.877   3.084 -0.2966 -0.0951 -1.0445
  122MOL0     C16401   4.087   4.197   3.593  0.1122 -0.4888  0.0590
  122MOL0     C16402   4.018   4.306   3.637 -0.7306  0.4779 -0.4832
  122MOL0     H16403   3.706   4.427   3.934  0.4507  0.0083  1.0348
  122MOL0     H16404   3.533   4.536   4.049  0.8602 -1.0676 -0.0551
  122MOL0     H16405   3.610   4.949   4.251  0.5612 -0.9919 -0.5134
  122MOL0     H16406   3.588   4.899   4.086  2.5272 -1.3354  0.9439
  122MOL0     H16407   3.352   4.898   4.093  1.6509 -1.9663 -0.0626
  122MOL0     H16408   3.353   4.890   4.273  2.1294 -1.8716  0.8716
  122MOL0     H16409   3.468   5.135   4.237  0.0147 -1.1055  0.4198
  122MOL0     H16410   3.422   5.130   4.078  0.2590  4.0007  1.3349
  122MOL0     H16411   3.176   5.099   4.158  0.0271  0.3490  0.2178
  122MOL0     H16412   3.233   5.140   4.318  1.6489  2.1993  0.8136
  122MOL0     H16413   3.270   5.308   4.064  2.0741  1.4665  0.2030
  122MOL0     H16414   3.150   5.323   4.196 -0.1965 -1.1115  1.6256
  122MOL0     H16415   3.371   5.350   4.332  2.1524 -1.3913 -1.9897
  122MOL0     H16416   3.444   5.388   4.181 -1.5449 -1.7619 -2.6344
  122MOL0     H16417   3.356   5.588   4.298  0.2021 -2.3750  2.0290
  122MOL0     H16418   3.287   5.589   4.146  1.3063  3.8670  2.3938
  122MOL0     H16419   3.068   5.504   4.225 -0.3778  0.0727  0.1468
  122MOL0     H16420   3.134   5.647   4.332  1.7680 -0.8574  4.5467
  122MOL0     H16421   2.958   5.328   4.378 -2.2029  0.6377  2.4497
  122MOL0     H16422   2.939   5.236   4.719  0.5358 -0.5082  0.7813
  122MOL0     H16423   2.900   5.160   4.570  1.9150 -0.6738 -1.5211
  122MOL0     H16424   3.160   5.124   4.736 -1.8635 -0.3783  0.2509
  122MOL0     H16425   3.160   5.057   4.579  1.7796 -0.4064  0.6896
  122MOL0     H16426   2.974   4.948   4.775 -3.1212 -1.2495 -2.1365
  122MOL0     H16427   3.112   4.876   4.697  0.5713  0.9968  1.7354
  122MOL0     H16428   2.838   4.940   4.582 -0.0007 -0.7460 -0.2356
  122MOL0     H16429   2.922   4.789   4.585  0.2420  0.1734  0.0103
  122MOL0     H16430   2.753   4.806   4.415  1.5468  0.8866  1.1357
  122MOL0     H16431   2.584   4.691   4.305  1.6519  1.0643  0.7318
  122MOL0     H16432   2.607   4.606   4.155 -0.6654 -2.3274 -0.2105
  122MOL0     H16433   2.662   4.524   4.290 -1.7690 -2.7610 -4.5957
  122MOL0     H16434   2.705   4.522   3.752  0.6242  0.3050  1.3531
  122MOL0     H16435   2.693   4.375   3.562  1.1709  0.3906 -0.0926
  122MOL0     H16436   2.641   4.206   3.455  0.1732 -0.0718  1.2552
  122MOL0     H16437   2.803   4.228   3.394 -0.0672 -0.1345  1.2412
  122MOL0     H16438   2.622   3.996   3.357  0.9704  1.1604  2.8609
  122MOL0     H16439   2.696   4.100   3.235 -0.3933  1.5737  0.1807
  122MOL0     H16440   2.826   3.888   3.228  0.4913 -0.9855  0.3858
  122MOL0     H16441   2.861   3.909   3.404 -0.5239  3.0840  1.7030
  122MOL0     H16442   2.918   4.111   3.173 -1.8299 -0.8477 -0.4652
  122MOL0     H16443   2.981   4.115   3.341 -0.2843 -0.1843  0.5282
  122MOL0     H16444   3.051   3.883   3.152 -0.2431 -2.7297  3.5799
  122MOL0     H16445   3.126   3.933   3.310 -0.5583 -1.5398  0.2737
  122MOL0     H16446   3.125   4.120   3.072 -1.9203 -2.4362 -0.4591
  122MOL0     H16447   3.206   4.131   3.226 -0.5788  0.5567 -0.8562
  122MOL0     H16448   3.386   4.064   3.102  1.7398 -1.9773  0.8121
  122MOL0     H16449   3.288   3.965   2.989 -1.1474  1.7416  0.4986
  122MOL0     H16450   3.425   3.812   3.131  1.2710 -0.0460  4.3720
  122MOL0     H16451   3.277   3.799   3.202  0.4062 -0.6428 -2.4106
  122MOL0     H16452   2.874   4.070   3.796  1.2675 -0.1691 -5.8689
  122MOL0     H16453   2.924   4.222   3.974 -0.8086  0.5853  0.2790
  122MOL0     H16454   3.070   4.729   4.046  0.9480 -3.6259  0.2955
  122MOL0     H16455   3.116   4.890   4.233 -1.2291  3.0493  0.2459
  122MOL0     H16456   3.814   4.770   4.278  0.9512 -2.3473  1.9518
  122MOL0     H16457   4.003   4.649   4.136 -0.2069  2.7824  3.7966
  122MOL0     H16458   4.133   4.305   3.948 -1.3922  2.4549 -0.7939
  122MOL0     H16459   4.268   4.106   3.870  2.8433  0.8405 -1.8874
  122MOL0     H16460   4.430   4.030   3.715  3.5496 -0.3372 -1.0804
  122MOL0     H16461   4.418   3.903   3.597  0.2819  0.4759  0.6489
  122MOL0     H16462   4.578   4.074   3.547 -0.2405 -1.1528 -1.0735
  122MOL0     H16463   4.459   4.198   3.560  0.3685 -0.0298  0.0182
  122MOL0     H16464   4.492   4.151   3.305  0.3887 -2.1660 -1.7602
  122MOL0     H16465   4.334   4.075   3.357 -0.1812  0.4511 -1.3848
  122MOL0     H16466   4.445   3.867   3.403 -0.5903 -0.5154 -1.2210
  122MOL0     H16467   4.603   3.944   3.349  0.4584  1.4195 -0.8015
  122MOL0     H16468   4.401   3.846   2.990 -1.1232 -1.6933 -0.1956
  122MOL0     H16469   4.075   4.163   3.491  2.1455 -1.1362 -0.0069
  122MOL0     H16470   3.953   4.357   3.567 -2.9712 -2.1432 -0.4813
  123MOL0     O16471   5.924   3.473   3.318 -0.6594 -0.1025 -0.2488
  123MOL0     C16472   6.020   3.535   3.278  0.4354 -0.0157  0.5746
  123MOL0     O16473   6.133   3.487   3.212 -0.4866  0.2072  0.1950
  123MOL0     C16474   6.158   3.350   3.206 -0.2552 -0.0286 -1.2470
  123MOL0     C16475   6.064   3.254   3.159  0.3991 -1.3694 -0.5135
  123MOL0     C16476   6.101   3.128   3.146 -0.1864 -0.2340  0.1033
  123MOL0     C16477   6.224   3.075   3.182 -0.2119  0.4311  1.0430
  123MOL0     O16478   6.262   2.953   3.143  0.8017 -0.2887  0.8827
  123MOL0     C16479   6.169   2.848   3.123  0.0181  0.1977 -0.6880
  123MOL0     C16480   6.239   2.714   3.132 -0.2495  0.5448 -0.4064
  123MOL0     C16481   6.267   2.677   3.279 -0.4082  0.3521 -0.6982
  123MOL0     C16482   6.377   2.568   3.297 -0.2713 -0.2036  0.4175
  123MOL0     C16483   6.368   2.437   3.217  0.7236 -0.4406  0.7649
  123MOL0     C16484   6.483   2.347   3.258  0.0803  0.6810 -0.2689
  123MOL0     C16485   6.480   2.220   3.167  0.2624  0.6477  0.2206
  123MOL0     C16486   6.559   2.103   3.234  0.2691 -0.3570  0.5850
  123MOL0     N16487   6.472   2.019   3.322 -0.3011 -0.0272  1.1077
  123MOL0     C16488   6.458   2.050   3.454 -1.0046  0.9405 -0.5344
  123MOL0     C16489   6.378   1.953   3.499  0.5770 -0.1241  0.0412
  123MOL0     C16490   6.328   1.929   3.639  0.3757  0.1861 -1.2655
  123MOL0     C16491   6.349   1.777   3.678  0.0797  0.9820  0.2687
  123MOL0     C16492   6.338   1.763   3.832  0.3792 -0.5257  0.5822
  123MOL0     C16493   6.319   1.620   3.887 -0.4720  0.7078 -0.0643
  123MOL0     O16494   6.414   1.536   3.820  0.9841  0.0026  0.4485
  123MOL0     C16495   6.444   1.427   3.898 -0.3110  0.2659  0.9351
  123MOL0     C16496   6.510   1.455   4.025  1.4314  0.0770  0.4813
  123MOL0     C16497   6.545   1.346   4.111  0.0811 -0.2732  0.4161
  123MOL0     C16498   6.596   1.386   4.246 -0.8355 -0.3049  0.2317
  123MOL0     C16499   6.527   1.218   4.060 -0.4418  0.2895 -0.0488
  123MOL0     C16500   6.559   1.090   4.134  0.2882  1.1757  0.3578
  123MOL0     O16501   6.493   0.964   4.108 -0.6695 -0.6752 -0.0722
  123MOL0     C16502   6.544   0.852   4.173 -0.9098  0.7381 -0.1804
  123MOL0     C16503   6.556   0.739   4.092 -0.1690  0.0404  0.4115
  123MOL0     C16504   6.603   0.620   4.147  0.6137 -0.2972 -0.2030
  123MOL0     C16505   6.630   0.603   4.282 -0.0775 -0.0979 -0.4758
  123MOL0     O16506   6.671   0.479   4.317  0.3302  0.1887  0.9685
  123MOL0     C16507   6.685   0.446   4.457  0.0177  0.2656  0.1626
  123MOL0     C16508   6.716   0.296   4.476 -0.9137  0.2622  0.3123
  123MOL0     C16509   6.844   0.241   4.415 -0.1881 -0.5658  0.7009
  123MOL0     C16510   6.882   0.109   4.487 -0.2717  0.6709  0.5490
  123MOL0     C16511   7.030   0.061   4.481 -0.2172  0.2562 -0.2038
  123MOL0     C16512   7.076   0.016   4.341 -0.3518 -0.6665 -0.5419
  123MOL0     C16513   7.224  -0.008   4.340  0.1326  0.5286 -0.6953
  123MOL0     C16514   7.251  -0.102   4.215 -0.0543 -0.0795 -0.6973
  123MOL0    Cl16515   7.227  -0.013   4.065  0.1880 -0.6667  0.2143
  123MOL0     C16516   6.620   0.717   4.362 -0.9038  0.6433  0.6714
  123MOL0     C16517   6.576   0.839   4.311  0.0912  0.2510 -0.7776
  123MOL0     O16518   6.646   1.112   4.219 -0.1748  0.4345 -0.0613
  123MOL0     C16519   6.458   1.199   3.940  0.2161  0.0877  0.7407
  123MOL0     C16520   6.418   1.297   3.850  0.4617 -0.5998 -0.7485
  123MOL0     N16521   6.352   1.858   3.401  0.1016 -0.6773 -0.0030
  123MOL0     N16522   6.420   1.899   3.293  0.6188 -0.3639  0.1567
  123MOL0     C16523   6.319   3.164   3.227 -0.7272  0.2007 -0.7379
  123MOL0     C16524   6.284   3.298   3.253  0.0214 -0.4811  0.1834
  123MOL0     C16525   6.032   3.677   3.311 -0.9090  0.3158  1.2818
  123MOL0     C16526   5.919   3.751   3.349 -0.4572 -0.9244  0.1422
  123MOL0     C16527   5.935   3.885   3.360  0.5014 -0.5395 -0.0386
  123MOL0     C16528   6.064   3.945   3.325  0.4942  0.3519 -0.0105
  123MOL0     O16529   6.071   4.075   3.343  0.0837 -0.4064  0.3674
  123MOL0     C16530   6.125   4.127   3.461 -0.6015  0.4639  0.0253
  123MOL0     C16531   6.014   4.154   3.550  0.0438 -0.0594  0.7269
  123MOL0     C16532   5.912   4.243   3.484  0.0582  0.1135  0.3827
  123MOL0     C16533   5.815   4.319   3.571 -0.3594 -0.7528 -0.2035
  123MOL0     C16534   5.874   4.373   3.696  0.4184 -0.8397 -0.2072
  123MOL0     C16535   5.915   4.422   3.798 -0.4325  0.8959 -0.4336
  123MOL0     C16536   6.169   3.866   3.278  0.5635 -0.4356  0.2061
  123MOL0     C16537   6.151   3.731   3.275 -0.6253 -0.1318  0.0471
  123MOL0     H16538   5.976   3.306   3.124  1.9656  1.6761 -0.2157
  123MOL0     H16539   6.037   3.071   3.078 -1.0484 -2.1388  2.3721
  123MOL0     H16540   6.090   2.849   3.198  0.6907 -3.2993  0.2771
  123MOL0     H16541   6.116   2.828   3.029 -1.6038 -2.4684  0.6491
  123MOL0     H16542   6.183   2.628   3.093 -1.5738  1.9418 -1.7398
  123MOL0     H16543   6.331   2.715   3.072 -1.5826 -1.3662 -2.6544
  123MOL0     H16544   6.298   2.759   3.344  0.1099 -0.9999  0.8381
  123MOL0     H16545   6.173   2.635   3.318 -0.5450  0.2014 -1.1797
  123MOL0     H16546   6.471   2.618   3.275  0.1049 -0.8557  0.4968
  123MOL0     H16547   6.392   2.544   3.403  2.8341  0.6266  0.2592
  123MOL0     H16548   6.271   2.389   3.229  0.2773  0.2310 -0.0561
  123MOL0     H16549   6.380   2.454   3.110 -3.0774 -2.8032 -0.2483
  123MOL0     H16550   6.583   2.388   3.242 -0.1562  0.4572 -2.6866
  123MOL0     H16551   6.464   2.321   3.362  2.9039 -1.8130 -0.2159
  123MOL0     H16552   6.378   2.184   3.153  0.5267  0.0680 -0.2293
  123MOL0     H16553   6.531   2.232   3.071  1.8953  0.6592  1.0431
  123MOL0     H16554   6.645   2.142   3.289 -0.1450  3.8897 -1.3534
  123MOL0     H16555   6.603   2.044   3.153  0.5131  0.5857  0.0194
  123MOL0     H16556   6.486   2.142   3.504  0.8628  2.1118 -3.5220
  123MOL0     H16557   6.390   1.992   3.703  2.0365 -2.9918  0.4785
  123MOL0     H16558   6.222   1.954   3.656  0.5969  0.5440 -0.3486
  123MOL0     H16559   6.445   1.738   3.643  0.5118  2.7991 -0.7026
  123MOL0     H16560   6.269   1.716   3.634 -0.3311  1.1033  0.8382
  123MOL0     H16561   6.263   1.831   3.874  2.2758  2.1760 -0.1136
  123MOL0     H16562   6.435   1.798   3.868  0.7343  1.6534 -2.1138
  123MOL0     H16563   6.217   1.587   3.869 -0.0476 -1.5016  1.2226
  123MOL0     H16564   6.326   1.614   3.996 -1.3671 -0.2274 -0.0409
  123MOL0     H16565   6.538   1.555   4.056  0.6421 -0.1627  2.1024
  123MOL0     H16566   6.696   1.428   4.232 -1.8364  1.5655 -1.9883
  123MOL0     H16567   6.546   1.469   4.297 -0.2680 -0.3346  0.8606
  123MOL0     H16568   6.580   1.316   4.328 -0.5714 -0.3146  0.2765
  123MOL0     H16569   6.544   0.749   3.984  1.7071  0.9431  0.2424
  123MOL0     H16570   6.620   0.532   4.086 -0.7150 -2.2565  2.1131
  123MOL0     H16571   6.763   0.512   4.497  1.7365 -1.3405 -0.3644
  123MOL0     H16572   6.592   0.472   4.507  0.1067  0.1095  0.4131
  123MOL0     H16573   6.737   0.280   4.582  2.6846 -0.1266 -0.3209
  123MOL0     H16574   6.637   0.236   4.429 -0.9403  0.3161  0.2895
  123MOL0     H16575   6.918   0.322   4.421 -1.4318  0.6680  0.0064
  123MOL0     H16576   6.823   0.214   4.311  0.8065 -3.3046  1.1395
  123MOL0     H16577   6.863   0.108   4.595 -2.4489  1.4739  0.2188
  123MOL0     H16578   6.819   0.025   4.456 -2.5662  1.3806  2.8696
  123MOL0     H16579   7.048  -0.018   4.554 -1.5704 -0.2887 -0.4224
  123MOL0     H16580   7.096   0.142   4.513 -1.3227  0.9527  0.3957
  123MOL0     H16581   7.015  -0.071   4.315 -3.0807  0.4551  1.5334
  123MOL0     H16582   7.049   0.096   4.271  4.1126  0.9131 -0.7347
  123MOL0     H16583   7.256  -0.059   4.431  0.3359  0.3737 -0.8508
  123MOL0     H16584   7.284   0.083   4.337  1.5862 -0.4041 -1.9856
  123MOL0     H16585   7.175  -0.179   4.201  1.3563 -1.9521  1.2510
  123MOL0     H16586   7.352  -0.145   4.210  1.0154  2.1958 -0.0868
  123MOL0     H16587   6.635   0.691   4.467 -5.2804 -0.4076  1.2308
  123MOL0     H16588   6.553   0.923   4.377  4.6201 -0.8986  2.7684
  123MOL0     H16589   6.449   1.100   3.897  1.9230  1.4179 -3.2135
  123MOL0     H16590   6.361   1.283   3.759 -1.1842  3.5323 -0.5512
  123MOL0     H16591   6.425   3.143   3.239 -0.6233  0.2395 -1.5611
  123MOL0     H16592   6.369   3.348   3.299 -0.3901 -0.4720  0.9453
  123MOL0     H16593   5.820   3.716   3.377 -1.1162  0.0066 -0.9294
  123MOL0     H16594   5.853   3.940   3.405  1.6308 -2.5162  5.0895
  123MOL0     H16595   6.197   4.057   3.505 -2.7848 -3.1839 -1.6572
  123MOL0     H16596   6.177   4.220   3.440  1.7865 -1.2062 -1.9195
  123MOL0     H16597   6.050   4.213   3.634 -2.5111  0.6198  1.4375
  123MOL0     H16598   5.960   4.061   3.573 -0.9474 -0.6178 -3.0260
  123MOL0     H16599   5.849   4.176   3.424  0.9145 -1.9047  1.6055
  123MOL0     H16600   5.969   4.312   3.423  1.9695 -2.6433 -1.1734
  123MOL0     H16601   5.732   4.250   3.593 -0.2268 -0.6066  0.7967
  123MOL0     H16602   5.772   4.404   3.518 -0.9231 -1.8619 -1.6123
  123MOL0     H16603   5.930   4.451   3.900 -0.0288 -2.4427  0.5682
  123MOL0     H16604   6.257   3.911   3.233 -0.4619  0.2319 -1.2248
  123MOL0     H16605   6.232   3.672   3.234  0.1438  0.5658  0.5409
  124MOL0     O16606   7.558   2.748   0.549 -0.0679  0.2582 -0.0061
  124MOL0     C16607   7.562   2.625   0.562  0.1606  0.9239  0.7625
  124MOL0     O16608   7.620   2.542   0.472 -0.5590 -0.0487 -0.0121
  124MOL0     C16609   7.674   2.587   0.351 -0.2601  0.4898 -0.4638
  124MOL0     C16610   7.730   2.714   0.326  0.5004  0.7032 -0.1847
  124MOL0     C16611   7.794   2.748   0.204  0.1927  0.4711 -0.0343
  124MOL0     C16612   7.799   2.652   0.101  0.7973  1.0754 -0.7102
  124MOL0     O16613   7.859   2.690  -0.017 -1.0325  0.3066  0.4250
  124MOL0     C16614   7.793   2.649  -0.131 -1.1256 -0.3362  0.4050
  124MOL0     C16615   7.662   2.721  -0.144  0.7053  0.4399 -0.4513
  124MOL0     C16616   7.671   2.871  -0.157  0.1317 -0.3835 -0.4772
  124MOL0     C16617   7.526   2.939  -0.184 -0.4200 -0.1280  0.1650
  124MOL0     C16618   7.415   2.894  -0.091  0.4333  0.1152  0.4385
  124MOL0     C16619   7.451   2.895   0.064  0.3861  0.7713 -0.5530
  124MOL0     C16620   7.311   2.900   0.137 -0.2925  0.2021 -0.1118
  124MOL0     C16621   7.337   2.877   0.284  0.5841  0.0344  0.3453
  124MOL0     N16622   7.208   2.840   0.354  0.4017 -0.0916  0.8016
  124MOL0     C16623   7.116   2.743   0.320  0.6615 -0.6856 -0.5884
  124MOL0     C16624   7.020   2.751   0.414  0.5308 -0.4976 -0.6911
  124MOL0     C16625   6.904   2.653   0.431  0.5825  0.5744  0.5776
  124MOL0     C16626   6.782   2.683   0.342  0.6191 -0.0666 -0.7053
  124MOL0     C16627   6.715   2.823   0.361 -0.6728  0.2482 -0.0692
  124MOL0     C16628   6.616   2.844   0.251 -0.4862  0.7641 -0.5162
  124MOL0     O16629   6.550   2.969   0.266 -0.1287  0.1403  0.2380
  124MOL0     C16630   6.433   2.991   0.337 -0.1664 -0.5407  0.5857
  124MOL0     C16631   6.380   2.893   0.425 -0.3443 -0.7019  0.3341
  124MOL0     C16632   6.260   2.924   0.497 -0.4736 -0.0026 -0.0269
  124MOL0     C16633   6.213   2.817   0.590 -0.3226 -0.0121 -0.0390
  124MOL0     C16634   6.204   3.057   0.492  0.4031  0.0668  0.1956
  124MOL0     C16635   6.080   3.098   0.563 -0.4373  0.4105  1.3651
  124MOL0     O16636   6.007   3.199   0.501  0.2434 -0.0827 -1.2087
  124MOL0     C16637   5.874   3.180   0.509  0.7413 -0.2341  0.3182
  124MOL0     C16638   5.810   3.088   0.418  0.4352 -0.3839  0.2455
  124MOL0     C16639   5.665   3.084   0.407  0.2566  0.3665 -0.1185
  124MOL0     C16640   5.584   3.155   0.492  0.5343  0.0479 -0.0160
  124MOL0     O16641   5.450   3.129   0.496 -0.4246  1.0189  0.5814
  124MOL0     C16642   5.384   3.125   0.613  0.7406 -1.2723 -0.5420
  124MOL0     C16643   5.238   3.094   0.579 -0.5388 -0.2359  0.1075
  124MOL0     C16644   5.192   2.957   0.637 -0.2062  0.7616 -0.3117
  124MOL0     C16645   5.204   2.843   0.534 -0.1740 -0.5372 -0.4401
  124MOL0     C16646   5.082   2.819   0.447  0.2460  0.3611  0.3276
  124MOL0     C16647   5.075   2.903   0.324 -0.1941 -0.5017 -0.1668
  124MOL0     C16648   4.952   2.879   0.237  0.7647  0.0263 -1.3316
  124MOL0     C16649   4.956   2.969   0.112 -0.5092  0.6145 -1.1854
  124MOL0    Cl16650   4.788   2.986   0.045  0.1281  0.2119 -0.1400
  124MOL0     C16651   5.644   3.245   0.586 -0.6076  0.0115 -0.3420
  124MOL0     C16652   5.791   3.251   0.594 -0.4709  0.2547 -0.9592
  124MOL0     O16653   6.069   3.056   0.673  0.1272 -0.7208 -0.3003
  124MOL0     C16654   6.263   3.154   0.414 -0.2389 -0.2525  0.1885
  124MOL0     C16655   6.378   3.119   0.339 -0.5918 -0.1520 -0.4172
  124MOL0     N16656   7.045   2.851   0.505 -1.2941 -1.1711 -0.0784
  124MOL0     N16657   7.158   2.908   0.464  0.3396 -0.7299 -0.9345
  124MOL0     C16658   7.741   2.523   0.122  0.7649  0.0365  0.2302
  124MOL0     C16659   7.677   2.499   0.244 -0.3560 -0.8338 -1.2439
  124MOL0     C16660   7.483   2.556   0.666 -0.0824 -0.6542 -0.6856
  124MOL0     C16661   7.528   2.439   0.720 -0.3845  1.1691 -0.0107
  124MOL0     C16662   7.455   2.376   0.816  0.2717  0.0096  0.7275
  124MOL0     C16663   7.338   2.434   0.870  0.3147  1.1186  0.1125
  124MOL0     O16664   7.255   2.351   0.937 -0.3157  0.1187  0.2553
  124MOL0     C16665   7.251   2.340   1.079 -0.7908 -0.2101 -0.2491
  124MOL0     C16666   7.176   2.458   1.136  0.4615 -0.6218 -1.2426
  124MOL0     C16667   7.170   2.426   1.294  1.3060 -0.1085 -0.0640
  124MOL0     C16668   7.303   2.410   1.367 -0.1633 -0.4865 -0.1991
  124MOL0     C16669   7.389   2.527   1.334 -0.3291 -0.3452 -0.8477
  124MOL0     C16670   7.455   2.621   1.307  0.4068  0.2316  0.3972
  124MOL0     C16671   7.291   2.556   0.822  0.2786  0.6523 -0.1004
  124MOL0     C16672   7.366   2.614   0.710  0.2145  1.0631 -0.4519
  124MOL0     H16673   7.754   2.769   0.416  0.3690 -0.6107  0.6736
  124MOL0     H16674   7.837   2.848   0.207 -0.3968  0.7414 -0.3825
  124MOL0     H16675   7.863   2.674  -0.212  1.9461 -2.3649  2.2175
  124MOL0     H16676   7.772   2.542  -0.141 -2.5126  0.0967 -2.1963
  124MOL0     H16677   7.617   2.692  -0.240  3.5152 -0.6084 -1.5479
  124MOL0     H16678   7.598   2.697  -0.059 -0.0682  2.6598 -0.3283
  124MOL0     H16679   7.717   2.900  -0.062  1.7726 -1.2788 -0.9638
  124MOL0     H16680   7.723   2.905  -0.247 -1.2416 -0.6795 -1.4169
  124MOL0     H16681   7.535   3.048  -0.181 -1.3383 -0.0569  0.4821
  124MOL0     H16682   7.505   2.918  -0.290  0.0099 -0.0144  0.0579
  124MOL0     H16683   7.334   2.967  -0.102 -0.7459 -1.3983 -1.7060
  124MOL0     H16684   7.389   2.792  -0.121 -1.3466  1.1830 -1.9937
  124MOL0     H16685   7.495   2.799   0.092  2.0173  1.6157 -0.0604
  124MOL0     H16686   7.518   2.975   0.098 -1.2020  0.8834  2.7040
  124MOL0     H16687   7.257   2.995   0.127 -0.9292 -0.3320 -2.0243
  124MOL0     H16688   7.249   2.828   0.084 -2.3829  1.9410 -0.1754
  124MOL0     H16689   7.374   2.965   0.338 -1.2648 -0.8514  3.3060
  124MOL0     H16690   7.407   2.794   0.292  0.0092 -0.5233 -0.2722
  124MOL0     H16691   7.118   2.670   0.239  2.3051 -3.1063  1.4818
  124MOL0     H16692   6.948   2.557   0.402  1.4176  0.7873  1.1120
  124MOL0     H16693   6.871   2.647   0.535  1.3007 -1.3935  0.7345
  124MOL0     H16694   6.707   2.605   0.359  0.5132 -0.5174 -2.9492
  124MOL0     H16695   6.815   2.672   0.238 -1.2473 -0.8019 -1.2650
  124MOL0     H16696   6.803   2.888   0.362 -0.9329  0.6165 -0.8001
  124MOL0     H16697   6.669   2.849   0.457 -0.3670  1.2576 -0.1824
  124MOL0     H16698   6.539   2.767   0.254 -1.1590  1.4405  0.6496
  124MOL0     H16699   6.672   2.835   0.158  3.3538 -4.0890  1.7818
  124MOL0     H16700   6.420   2.795   0.448 -2.7880 -1.3018  2.5093
  124MOL0     H16701   6.129   2.767   0.543 -1.0646  1.0680  0.0840
  124MOL0     H16702   6.299   2.753   0.610  1.0646  1.4503 -1.0477
  124MOL0     H16703   6.178   2.857   0.686  2.0513  2.6234 -0.1177
  124MOL0     H16704   5.877   3.015   0.373  3.0910  1.1996  1.3737
  124MOL0     H16705   5.626   3.021   0.328  1.5560  1.2331 -1.5048
  124MOL0     H16706   5.415   3.045   0.681 -1.3178 -0.7951  1.0744
  124MOL0     H16707   5.393   3.222   0.662 -4.0197 -0.1692 -1.3107
  124MOL0     H16708   5.178   3.172   0.627 -0.1250  0.5385 -0.5967
  124MOL0     H16709   5.206   3.103   0.474 -1.6332 -2.6267  0.1744
  124MOL0     H16710   5.088   2.956   0.674  0.5978  0.0016  2.1659
  124MOL0     H16711   5.251   2.935   0.727 -0.4357 -0.2884 -0.4022
  124MOL0     H16712   5.290   2.860   0.469 -1.5648  1.5572 -1.8781
  124MOL0     H16713   5.217   2.762   0.607  0.0175  1.1687  1.5285
  124MOL0     H16714   4.989   2.837   0.502  0.6374 -1.4097  1.6565
  124MOL0     H16715   5.077   2.719   0.405  1.2969  0.7427 -0.7608
  124MOL0     H16716   5.077   3.009   0.351  0.0074 -0.2951 -0.9591
  124MOL0     H16717   5.163   2.892   0.261 -0.9613  0.9961 -1.5764
  124MOL0     H16718   4.863   2.909   0.294  2.4357  1.2810  0.7568
  124MOL0     H16719   4.950   2.776   0.203  1.6563 -0.4051 -0.1448
  124MOL0     H16720   5.023   2.920   0.041  4.1933  0.1202  2.9850
  124MOL0     H16721   4.994   3.069   0.136  1.6591 -0.3213 -0.5066
  124MOL0     H16722   5.583   3.300   0.656 -4.3829 -2.8379 -1.0929
  124MOL0     H16723   5.842   3.318   0.663  4.1836 -2.6796 -1.1261
  124MOL0     H16724   6.214   3.244   0.377 -0.6266 -0.9940 -1.1821
  124MOL0     H16725   6.441   3.195   0.293  3.9646  0.0295  4.9951
  124MOL0     H16726   7.755   2.450   0.043  2.4363 -0.3416  0.8416
  124MOL0     H16727   7.636   2.402   0.270 -0.7165 -0.2293  0.6160
  124MOL0     H16728   7.622   2.397   0.685 -1.5088  0.5251 -2.4631
  124MOL0     H16729   7.473   2.276   0.852 -0.2236  0.2939  1.8016
  124MOL0     H16730   7.197   2.248   1.105 -0.2449 -0.9621 -1.6797
  124MOL0     H16731   7.350   2.342   1.125 -1.3261  4.4887  1.2469
  124MOL0     H16732   7.074   2.467   1.096  0.3189 -1.1325 -1.0090
  124MOL0     H16733   7.230   2.552   1.122 -1.5557  1.0642  1.3944
  124MOL0     H16734   7.122   2.330   1.313  1.0969 -0.5673 -2.5307
  124MOL0     H16735   7.101   2.494   1.346  1.5630  2.0170 -2.2826
  124MOL0     H16736   7.354   2.315   1.350  4.0124  1.4218  0.1989
  124MOL0     H16737   7.290   2.408   1.476  2.5291 -1.6982  0.2058
  124MOL0     H16738   7.526   2.701   1.303  0.8894 -0.2148 -0.0771
  124MOL0     H16739   7.200   2.604   0.857  0.8730  0.8838  1.1988
  124MOL0     H16740   7.321   2.701   0.662 -2.0711  0.0818 -0.1849
  125MOL0     O16741  11.301  11.134   7.918  0.3680  0.8615  0.1193
  125MOL0     C16742  11.238  11.030   7.938  0.5080 -0.0975 -0.3522
  125MOL0     O16743  11.113  10.984   7.884  0.1343 -0.0661 -0.1224
  125MOL0     C16744  11.063  11.064   7.786  0.3235 -0.3709  0.1097
  125MOL0     C16745  10.977  11.168   7.815  0.6574 -0.0968 -0.4339
  125MOL0     C16746  10.943  11.250   7.712 -0.5686 -0.7138  0.8261
  125MOL0     C16747  10.961  11.204   7.577 -0.1640 -0.4583 -1.0250
  125MOL0     O16748  10.898  11.288   7.476  0.5754  0.0127 -0.1697
  125MOL0     C16749  10.843  11.220   7.362 -0.7318  0.2133  0.0721
  125MOL0     C16750  10.941  11.211   7.249  0.2872  0.1289  0.1327
  125MOL0     C16751  10.979  11.351   7.210  0.0196  0.9667  0.5639
  125MOL0     C16752  11.044  11.354   7.079  0.6885  0.1908  0.1123
  125MOL0     C16753  10.936  11.353   6.964 -0.0290 -0.6699 -0.0496
  125MOL0     C16754  10.982  11.432   6.843  0.1230  0.0021 -0.6558
  125MOL0     C16755  10.886  11.418   6.726 -0.5452 -0.2562 -0.8894
  125MOL0     C16756  10.944  11.494   6.597  0.1422  0.1425  0.1716
  125MOL0     N16757  10.849  11.485   6.487  0.2609 -0.0070 -0.1730
  125MOL0     C16758  10.811  11.361   6.431  1.3670 -0.3431  0.4645
  125MOL0     C16759  10.708  11.385   6.341 -0.1471 -0.6368  0.5379
  125MOL0     C16760  10.638  11.267   6.270 -0.1879 -0.3964  0.2854
  125MOL0     C16761  10.547  11.181   6.371 -0.5580  0.5096  0.2854
  125MOL0     C16762  10.436  11.273   6.428  0.0716  0.7558  0.8895
  125MOL0     C16763  10.345  11.217   6.533  0.4058  0.7679  0.2975
  125MOL0     O16764  10.253  11.311   6.585 -0.5581  0.6099 -0.4937
  125MOL0     C16765  10.167  11.274   6.687  0.1320  0.0745  0.2212
  125MOL0     C16766  10.148  11.153   6.739 -0.0012 -0.3014  1.3077
  125MOL0     C16767  10.070  11.122   6.850 -0.7436  1.2319 -0.0184
  125MOL0     C16768  10.036  10.976   6.868 -0.5029  0.2980  0.2149
  125MOL0     C16769  10.008  11.221   6.914 -0.2042 -0.7514 -0.7257
  125MOL0     C16770   9.911  11.198   7.034 -0.2863 -0.3112 -0.5209
  125MOL0     O16771   9.922  11.077   7.110 -0.3748 -0.7544  0.7462
  125MOL0     C16772   9.868  11.064   7.241 -0.0502  0.6088 -0.6676
  125MOL0     C16773   9.877  11.173   7.337 -0.2241  0.0965  0.2594
  125MOL0     C16774   9.838  11.148   7.468 -0.0245  0.6461  0.6787
  125MOL0     C16775   9.785  11.028   7.515 -0.6150  0.5631 -1.1266
  125MOL0     O16776   9.740  11.028   7.643  0.2334 -0.4126 -0.3686
  125MOL0     C16777   9.663  10.920   7.697 -0.5897  0.3091 -0.3903
  125MOL0     C16778   9.635  10.938   7.839 -0.1658  0.4898 -0.6604
  125MOL0     C16779   9.530  11.049   7.853  0.2954 -0.7458  0.0687
  125MOL0     C16780   9.511  11.089   8.003 -0.1227 -0.0682 -0.2927
  125MOL0     C16781   9.401  11.189   8.035  0.3995 -0.4773  0.6717
  125MOL0     C16782   9.276  11.200   7.945  0.7697  1.0091 -0.0460
  125MOL0     C16783   9.189  11.330   7.957  0.5155  0.1876  0.1039
  125MOL0     C16784   9.068  11.301   7.873 -0.1081  0.4128  0.2929
  125MOL0    Cl16785   8.964  11.440   7.870  0.6482 -1.0583 -0.4268
  125MOL0     C16786   9.768  10.927   7.419 -0.2545 -0.4073  0.2576
  125MOL0     C16787   9.810  10.946   7.286  0.1168  1.4453 -0.5750
  125MOL0     O16788   9.837  11.291   7.070  0.5642 -0.1331 -0.1163
  125MOL0     C16789  10.025  11.356   6.868 -0.0027  0.4868  0.2235
  125MOL0     C16790  10.106  11.382   6.750  0.5096  0.7983  0.1459
  125MOL0     N16791  10.682  11.520   6.344  0.1402 -0.3991  0.5531
  125MOL0     N16792  10.766  11.576   6.433 -0.0498  0.0899  0.3978
  125MOL0     C16793  11.018  11.085   7.543 -0.5672  0.1999  1.2479
  125MOL0     C16794  11.080  11.018   7.651  0.4157 -0.8611  0.7556
  125MOL0     C16795  11.290  10.944   8.047 -0.9235 -0.6554  0.7167
  125MOL0     C16796  11.241  10.817   8.074 -0.8625  0.7561  0.0617
  125MOL0     C16797  11.302  10.731   8.160  0.0953  0.6966 -0.5067
  125MOL0     C16798  11.418  10.779   8.227 -0.0510  0.3854 -0.3147
  125MOL0     O16799  11.487  10.705   8.322  0.4085 -0.2628 -0.1579
  125MOL0     C16800  11.450  10.565   8.350  0.4320 -0.0332 -0.0065
  125MOL0     C16801  11.358  10.551   8.467  0.2621  0.4492  0.2376
  125MOL0     C16802  11.362  10.416   8.543  0.8846 -0.2283 -0.0517
  125MOL0     C16803  11.306  10.438   8.687 -0.0447  0.1875 -0.8697
  125MOL0     C16804  11.359  10.344   8.780 -0.0738  1.1311 -0.0715
  125MOL0     C16805  11.417  10.260   8.844  0.5506  0.2985  0.7818
  125MOL0     C16806  11.466  10.907   8.207 -0.7734 -1.1064  0.2800
  125MOL0     C16807  11.405  10.995   8.117  0.7665  0.2748 -0.5992
  125MOL0     H16808  10.954  11.199   7.917 -0.4780  0.3250 -0.8043
  125MOL0     H16809  10.883  11.340   7.724  1.4298  0.9142 -0.6903
  125MOL0     H16810  10.796  11.124   7.386 -0.0731 -0.1304  0.0096
  125MOL0     H16811  10.761  11.287   7.335 -0.7964 -0.0843 -0.4801
  125MOL0     H16812  11.033  11.157   7.273  0.3166 -0.7026 -1.6166
  125MOL0     H16813  10.890  11.164   7.164  2.0267 -1.2190 -0.2337
  125MOL0     H16814  10.893  11.417   7.206  0.3833  1.3999 -1.9782
  125MOL0     H16815  11.038  11.403   7.286 -1.6499  0.5975  2.1716
  125MOL0     H16816  11.108  11.443   7.073  1.2080 -0.1622  0.3092
  125MOL0     H16817  11.102  11.263   7.061 -0.4680 -0.6488  0.5527
  125MOL0     H16818  10.928  11.249   6.929  1.7199 -1.7248  2.3971
  125MOL0     H16819  10.835  11.373   7.002  0.2220 -0.4110  0.4929
  125MOL0     H16820  10.997  11.538   6.867  3.0382 -0.2760 -0.8968
  125MOL0     H16821  11.083  11.397   6.819 -0.0484 -0.7505 -0.3292
  125MOL0     H16822  10.869  11.313   6.702  0.7062 -0.4228 -1.1088
  125MOL0     H16823  10.791  11.463   6.758 -3.1992 -4.6014 -1.8791
  125MOL0     H16824  11.031  11.443   6.554 -0.8982 -0.2041 -1.6198
  125MOL0     H16825  10.975  11.593   6.631 -1.6571  0.6286  0.5099
  125MOL0     H16826  10.852  11.264   6.457 -0.8167 -1.0057  1.7274
  125MOL0     H16827  10.580  11.304   6.186 -2.0246 -0.5078  1.4482
  125MOL0     H16828  10.713  11.200   6.227 -0.1530 -1.8205  2.3960
  125MOL0     H16829  10.608  11.136   6.450 -0.4724 -1.7101 -0.9521
  125MOL0     H16830  10.500  11.095   6.322  1.4474 -1.3059  1.3652
  125MOL0     H16831  10.370  11.299   6.344  0.9113  0.2551  0.0513
  125MOL0     H16832  10.475  11.368   6.468  2.1891 -0.1441  1.1216
  125MOL0     H16833  10.402  11.175   6.617 -1.4812 -2.6725  0.0450
  125MOL0     H16834  10.292  11.127   6.499  1.4522 -0.2798  1.3050
  125MOL0     H16835  10.209  11.080   6.686 -0.3542  1.0092 -1.0367
  125MOL0     H16836  10.055  10.946   6.971 -0.7561  1.8698  0.7436
  125MOL0     H16837   9.934  10.953   6.835 -0.5380  0.6793  0.0531
  125MOL0     H16838  10.102  10.907   6.814 -0.0561  0.1416  0.9545
  125MOL0     H16839   9.918  11.268   7.304  1.4431 -0.8479 -0.5232
  125MOL0     H16840   9.838  11.225   7.544 -0.4222  0.4217  0.9130
  125MOL0     H16841   9.573  10.915   7.634  0.6582  0.4086 -2.2392
  125MOL0     H16842   9.717  10.826   7.680 -1.5982 -0.2078 -0.8737
  125MOL0     H16843   9.595  10.846   7.881  1.1498  0.0471 -0.3494
  125MOL0     H16844   9.726  10.959   7.895  0.0469 -2.1617  0.0884
  125MOL0     H16845   9.434  11.007   7.823 -1.1419  2.9734 -1.2082
  125MOL0     H16846   9.561  11.135   7.793  0.6446 -1.0897 -0.2428
  125MOL0     H16847   9.483  10.996   8.055 -1.3811  0.2245 -0.4249
  125MOL0     H16848   9.603  11.127   8.047 -0.5271  0.4864  0.0814
  125MOL0     H16849   9.442  11.290   8.028 -0.6097 -0.1134 -0.1657
  125MOL0     H16850   9.372  11.166   8.138  2.5227 -2.1356  0.9694
  125MOL0     H16851   9.304  11.196   7.839  2.6195 -0.9080  0.4600
  125MOL0     H16852   9.222  11.107   7.969  4.3212 -1.1891  0.0903
  125MOL0     H16853   9.251  11.411   7.917  0.3471  1.0832  1.5808
  125MOL0     H16854   9.157  11.355   8.059 -1.5580 -1.2266 -0.1231
  125MOL0     H16855   9.018  11.217   7.922  2.1360 -0.4040  1.3082
  125MOL0     H16856   9.099  11.276   7.771 -3.0170 -0.8754 -0.3967
  125MOL0     H16857   9.732  10.829   7.448  2.4756 -0.3061  4.8479
  125MOL0     H16858   9.800  10.865   7.215  2.0447 -3.0694  3.7242
  125MOL0     H16859   9.973  11.444   6.902 -0.1632  1.8891 -3.2930
  125MOL0     H16860  10.121  11.480   6.707 -0.5095  1.8759  2.1518
  125MOL0     H16861  11.040  11.037   7.449 -1.3093 -0.3056  1.3147
  125MOL0     H16862  11.142  10.931   7.632 -1.1863 -1.8651 -0.1037
  125MOL0     H16863  11.166  10.771   8.010 -0.2586 -2.3737  1.4030
  125MOL0     H16864  11.263  10.633   8.183  2.6345 -0.0560  0.9711
  125MOL0     H16865  11.416  10.522   8.255 -1.1835 -1.1527  1.0457
  125MOL0     H16866  11.540  10.503   8.361  0.5400  0.1627  0.2166
  125MOL0     H16867  11.259  10.555   8.422  1.4521 -0.2716 -2.7418
  125MOL0     H16868  11.366  10.635   8.536  1.1072  2.0164 -1.6507
  125MOL0     H16869  11.460  10.367   8.545  0.5441 -0.9350 -0.0879
  125MOL0     H16870  11.288  10.345   8.505  0.4505 -0.8623  1.8545
  125MOL0     H16871  11.198  10.427   8.677 -0.0119 -2.4423  0.7467
  125MOL0     H16872  11.340  10.534   8.726  0.1765  0.2584 -1.2322
  125MOL0     H16873  11.466  10.181   8.898  3.5601 -0.8826 -3.2560
  125MOL0     H16874  11.557  10.941   8.256  0.5484 -7.2468  3.0251
  125MOL0     H16875  11.435  11.100   8.119  0.9351  0.2290  1.4227
  126MOL0     O16876   3.303  11.333   3.644 -0.5748  0.0646  0.7473
  126MOL0     C16877   3.389  11.421   3.665  0.4645 -0.5946 -0.7510
  126MOL0     O16878   3.521  11.400   3.692 -0.0616  0.1080 -0.6079
  126MOL0     C16879   3.567  11.274   3.719 -0.5613 -0.5096  0.2372
  126MOL0     C16880   3.703  11.257   3.686 -0.2531  0.1008 -0.0724
  126MOL0     C16881   3.777  11.145   3.711 -0.0026 -0.0228  0.3268
  126MOL0     C16882   3.713  11.041   3.770 -0.3618  0.3301 -0.0646
  126MOL0     O16883   3.786  10.931   3.804 -0.2705  1.0802  0.6570
  126MOL0     C16884   3.807  10.836   3.695  1.1951 -0.3903  0.8501
  126MOL0     C16885   3.721  10.709   3.712 -0.1502 -0.6964 -0.0215
  126MOL0     C16886   3.745  10.604   3.608 -0.4682 -0.4032 -0.5400
  126MOL0     C16887   3.633  10.497   3.602 -1.0691 -0.1883 -0.2058
  126MOL0     C16888   3.669  10.397   3.500  1.7168  0.1797 -0.0029
  126MOL0     C16889   3.574  10.281   3.502 -0.5739 -0.0658 -1.2070
  126MOL0     C16890   3.564  10.217   3.369  0.2437 -0.0109  0.0375
  126MOL0     C16891   3.439  10.130   3.356  0.3383  0.4293 -0.0364
  126MOL0     N16892   3.435  10.004   3.444 -0.6922  0.5079  0.2425
  126MOL0     C16893   3.382   9.995   3.569  0.2941 -1.0345  0.3123
  126MOL0     C16894   3.431   9.886   3.624 -0.1707  0.2150 -0.2217
  126MOL0     C16895   3.403   9.824   3.760  0.5210 -0.1369  0.5392
  126MOL0     C16896   3.474   9.886   3.882  0.3329  0.0474  0.5887
  126MOL0     C16897   3.484  10.041   3.877  0.2178  1.0328  0.0018
  126MOL0     C16898   3.473  10.091   4.018  0.1506 -0.0703 -0.8248
  126MOL0     O16899   3.515  10.227   4.012 -0.4309  0.8243 -0.1972
  126MOL0     C16900   3.576  10.285   4.116 -0.1348 -0.5881  0.8550
  126MOL0     C16901   3.592  10.422   4.097 -0.5799 -0.3222  0.8684
  126MOL0     C16902   3.680  10.501   4.174  0.2475  0.2447  0.5604
  126MOL0     C16903   3.710  10.632   4.123  0.5511  0.1227 -0.3198
  126MOL0     C16904   3.748  10.443   4.283  0.4139  0.5121 -0.2102
  126MOL0     C16905   3.841  10.512   4.386 -0.0026 -0.4592  0.1918
  126MOL0     O16906   3.916  10.428   4.471 -0.0664 -0.5354  0.0718
  126MOL0     C16907   4.015  10.473   4.559  0.2582 -0.4026 -0.0990
  126MOL0     C16908   4.086  10.597   4.551 -0.4033 -0.7051  0.2831
  126MOL0     C16909   4.185  10.638   4.640  1.0447 -1.1074  0.0093
  126MOL0     C16910   4.215  10.552   4.744 -0.2283 -0.4554  0.1298
  126MOL0     O16911   4.310  10.600   4.825 -0.4853 -0.5290  0.5883
  126MOL0     C16912   4.314  10.547   4.958  1.0547  0.6910  0.4844
  126MOL0     C16913   4.205  10.617   5.037  0.0051 -0.4263  0.1027
  126MOL0     C16914   4.235  10.764   5.055  0.3767  0.4925 -0.6906
  126MOL0     C16915   4.158  10.822   5.165  0.1641  0.7910 -0.0444
  126MOL0     C16916   4.147  10.973   5.158 -0.3307 -0.8236 -0.1020
  126MOL0     C16917   4.096  11.052   5.282 -1.1414 -0.1888 -0.6933
  126MOL0     C16918   4.204  11.060   5.382  0.1205 -0.5520  0.0841
  126MOL0     C16919   4.194  11.185   5.471  0.1882  0.4506 -0.7136
  126MOL0    Cl16920   4.290  11.320   5.424  0.5110 -0.6148  0.6856
  126MOL0     C16921   4.159  10.424   4.744  0.1177 -1.2391 -0.2398
  126MOL0     C16922   4.057  10.391   4.656 -0.1399 -0.1604  0.0126
  126MOL0     O16923   3.836  10.635   4.391  0.0595  0.4590  0.6057
  126MOL0     C16924   3.731  10.300   4.303 -0.0217  0.2442  0.4074
  126MOL0     C16925   3.646  10.231   4.216 -0.0190  0.2689  0.0693
  126MOL0     N16926   3.499   9.814   3.524 -0.1162  0.8970  0.3292
  126MOL0     N16927   3.499   9.889   3.415 -0.9586 -0.5685  0.0621
  126MOL0     C16928   3.573  11.043   3.794 -0.1502  0.0688  1.0237
  126MOL0     C16929   3.495  11.164   3.763  0.6530  0.2104 -0.6654
  126MOL0     C16930   3.342  11.552   3.686 -0.5163 -0.4477  0.0747
  126MOL0     C16931   3.202  11.591   3.719 -0.5846 -0.9545 -0.0543
  126MOL0     C16932   3.163  11.722   3.740  0.9910 -1.4057  0.2364
  126MOL0     C16933   3.259  11.822   3.740 -0.1853 -0.1519  0.6185
  126MOL0     O16934   3.210  11.946   3.745 -1.0022 -0.2573  0.1797
  126MOL0     C16935   3.265  12.042   3.831  0.2886 -0.0552  0.0062
  126MOL0     C16936   3.160  12.151   3.860 -0.0871  0.0169 -0.0702
  126MOL0     C16937   3.225  12.286   3.894 -0.0874  0.3352 -0.3803
  126MOL0     C16938   3.349  12.289   3.993  0.9938  0.1707  0.8328
  126MOL0     C16939   3.337  12.394   4.100 -0.0499  0.3159 -0.2493
  126MOL0     C16940   3.324  12.476   4.186 -0.0407 -0.0026 -0.2203
  126MOL0     C16941   3.394  11.798   3.711  0.5358 -1.2573  0.8266
  126MOL0     C16942   3.438  11.666   3.673  0.6627  0.7506  0.9863
  126MOL0     H16943   3.758  11.341   3.646 -0.9905  0.5115 -0.2411
  126MOL0     H16944   3.883  11.144   3.690 -0.4269 -0.5749 -2.0513
  126MOL0     H16945   3.783  10.882   3.599  4.1209  0.4338  0.4138
  126MOL0     H16946   3.915  10.817   3.697  1.2575 -0.0259  1.3880
  126MOL0     H16947   3.751  10.664   3.808  0.7461  1.6643  0.8721
  126MOL0     H16948   3.617  10.744   3.723  0.7961  2.1319  0.7181
  126MOL0     H16949   3.750  10.662   3.516  1.3259 -1.1701 -0.9730
  126MOL0     H16950   3.843  10.558   3.628  0.3490  0.1197 -2.9828
  126MOL0     H16951   3.638  10.447   3.699  3.8353 -2.1917 -1.1458
  126MOL0     H16952   3.532  10.534   3.583 -1.7895 -1.7056  0.4849
  126MOL0     H16953   3.677  10.442   3.401  2.4253  0.7023  0.2845
  126MOL0     H16954   3.773  10.364   3.507  2.0621  0.5932 -2.4254
  126MOL0     H16955   3.617  10.209   3.573 -3.1817 -0.0380  0.5575
  126MOL0     H16956   3.472  10.311   3.527 -0.9034  0.2259 -2.8041
  126MOL0     H16957   3.563  10.294   3.292  0.2712  1.0407  1.0709
  126MOL0     H16958   3.649  10.152   3.346 -1.2259 -1.2016 -2.4484
  126MOL0     H16959   3.419  10.101   3.252  0.5157  1.5060 -0.3806
  126MOL0     H16960   3.354  10.194   3.380  1.0218  0.6607  1.9952
  126MOL0     H16961   3.318  10.071   3.612  3.3117  0.5568  2.3449
  126MOL0     H16962   3.296   9.840   3.776  0.8627  3.2428  0.2636
  126MOL0     H16963   3.433   9.719   3.767  0.5039 -0.0388  2.5932
  126MOL0     H16964   3.573   9.839   3.872  0.0830 -0.6119  1.0943
  126MOL0     H16965   3.415   9.838   3.961  1.6658 -3.6862 -0.4458
  126MOL0     H16966   3.410  10.091   3.813 -2.0414 -1.4234  0.4606
  126MOL0     H16967   3.584  10.065   3.840  0.4399  1.0923  0.6316
  126MOL0     H16968   3.537  10.025   4.078  1.5805  2.2504  0.3503
  126MOL0     H16969   3.367  10.080   4.045 -0.3757 -0.0876 -2.7257
  126MOL0     H16970   3.548  10.471   4.011 -1.9515  1.0661  2.2999
  126MOL0     H16971   3.701  10.711   4.198 -0.3226  1.9303 -2.2179
  126MOL0     H16972   3.811  10.633   4.081  0.8087  2.5671  0.2206
  126MOL0     H16973   3.645  10.660   4.039  1.3138  0.1856 -0.8906
  126MOL0     H16974   4.061  10.666   4.471 -0.8351  0.3849  1.3267
  126MOL0     H16975   4.232  10.735   4.643 -2.3251  0.6841  2.7253
  126MOL0     H16976   4.294  10.440   4.966 -5.4813  1.6220  4.2777
  126MOL0     H16977   4.408  10.578   5.005  0.5033  2.5278  0.4673
  126MOL0     H16978   4.108  10.609   4.986 -1.0134  2.8292  1.3053
  126MOL0     H16979   4.198  10.563   5.132 -0.0513 -3.7481 -1.6336
  126MOL0     H16980   4.220  10.811   4.957  0.4299 -2.0779 -2.0138
  126MOL0     H16981   4.339  10.786   5.077  0.1245 -1.0165  2.5165
  126MOL0     H16982   4.062  10.771   5.180 -0.4254  1.4510 -1.3465
  126MOL0     H16983   4.204  10.805   5.262  0.4389  1.9147  0.0410
  126MOL0     H16984   4.089  10.994   5.068  2.9384  0.2573 -2.1401
  126MOL0     H16985   4.245  11.017   5.136  0.2551 -0.5873  2.5593
  126MOL0     H16986   4.070  11.152   5.248 -1.8494 -0.9751 -2.6150
  126MOL0     H16987   4.006  11.012   5.329  0.5245 -0.4352  2.5971
  126MOL0     H16988   4.298  11.077   5.328  2.0173  0.5082  3.3931
  126MOL0     H16989   4.194  10.969   5.442 -2.7039 -0.8105 -0.6335
  126MOL0     H16990   4.239  11.162   5.568  2.1897 -1.0731 -1.9060
  126MOL0     H16991   4.092  11.223   5.482 -0.3140 -0.3319 -2.3872
  126MOL0     H16992   4.195  10.342   4.806  0.3974 -0.3130  0.8682
  126MOL0     H16993   4.027  10.288   4.639  1.9046 -0.6162 -1.1029
  126MOL0     H16994   3.779  10.244   4.382  0.9806  3.4874  2.3013
  126MOL0     H16995   3.651  10.124   4.232 -0.9518 -0.1200 -1.9782
  126MOL0     H16996   3.532  10.949   3.830  0.8460 -1.0960 -0.7129
  126MOL0     H16997   3.392  11.177   3.794  1.2361  2.2881  0.6430
  126MOL0     H16998   3.121  11.519   3.727 -0.5559 -0.8197  1.8519
  126MOL0     H16999   3.061  11.751   3.761  1.0347 -1.4943  0.5736
  126MOL0     H17000   3.312  11.995   3.918  2.2398 -1.8764 -1.8910
  126MOL0     H17001   3.349  12.088   3.778  1.1732 -3.3500 -1.7164
  126MOL0     H17002   3.107  12.124   3.952  0.2230  1.3856  0.5338
  126MOL0     H17003   3.093  12.155   3.774  1.4631 -0.1454 -1.3463
  126MOL0     H17004   3.144  12.351   3.931 -0.1911 -0.9235  1.7287
  126MOL0     H17005   3.259  12.327   3.798 -1.5743  2.3606 -0.1283
  126MOL0     H17006   3.436  12.304   3.929 -0.1938 -0.1473 -0.9467
  126MOL0     H17007   3.357  12.188   4.034  1.5487 -1.2830 -2.5382
  126MOL0     H17008   3.318  12.567   4.242  0.4766  0.4361 -0.8552
  126MOL0     H17009   3.452  11.884   3.679  2.8543 -2.8132  0.5726
  126MOL0     H17010   3.533  11.635   3.634 -1.0400 -1.8175 -1.4488
  127MOL0     O17011   8.134  11.288   1.820 -0.4486  0.0851 -0.8164
  127MOL0     C17012   8.152  11.404   1.780  0.1497 -0.4557 -0.5523
  127MOL0     O17013   8.258  11.481   1.809 -0.1478  0.5829 -0.1912
  127MOL0     C17014   8.345  11.426   1.901  0.7603 -0.6267 -0.0414
  127MOL0     C17015   8.309  11.374   2.023  0.5486  1.4263 -0.1357
  127MOL0     C17016   8.402  11.327   2.110  0.7350  0.0439  0.2322
  127MOL0     C17017   8.525  11.325   2.073 -0.3048 -0.2515 -0.3428
  127MOL0     O17018   8.625  11.276   2.150  0.4778 -0.1624  0.4937
  127MOL0     C17019   8.617  11.285   2.290  0.2883  0.2678  0.6150
  127MOL0     C17020   8.559  11.161   2.362  0.0575 -0.0453  0.1146
  127MOL0     C17021   8.639  11.118   2.486  0.0819 -0.0326  0.6672
  127MOL0     C17022   8.564  11.004   2.550 -0.1177 -0.6838 -0.1817
  127MOL0     C17023   8.475  11.049   2.664  0.2610 -0.3446  0.4474
  127MOL0     C17024   8.384  10.939   2.707  0.8686 -0.1092  1.3817
  127MOL0     C17025   8.315  10.968   2.844  0.3031  0.0385 -0.4497
  127MOL0     C17026   8.177  10.887   2.881 -0.5464 -1.2050  1.2242
  127MOL0     N17027   8.063  10.935   2.796  0.0967 -0.2645  1.0004
  127MOL0     C17028   8.007  10.873   2.689 -0.4017 -0.2767  0.3968
  127MOL0     C17029   7.922  10.968   2.643 -0.2324 -0.9998 -0.2441
  127MOL0     C17030   7.823  10.947   2.537  0.1080 -0.7936 -0.6364
  127MOL0     C17031   7.718  10.840   2.584  0.5421 -0.4130  0.6136
  127MOL0     C17032   7.588  10.867   2.505  0.6575  0.8320  0.4468
  127MOL0     C17033   7.592  10.815   2.357  0.1506  0.0976  0.0696
  127MOL0     O17034   7.487  10.861   2.267  0.2629 -1.0250  0.7798
  127MOL0     C17035   7.363  10.812   2.260  0.4367 -0.0982 -0.3343
  127MOL0     C17036   7.324  10.696   2.332 -1.5618 -0.1731  0.4027
  127MOL0     C17037   7.197  10.638   2.332  0.0173  0.3210 -0.1221
  127MOL0     C17038   7.162  10.527   2.424  0.6869 -0.0776 -0.5941
  127MOL0     C17039   7.098  10.690   2.248 -0.4878 -0.2586  0.0115
  127MOL0     C17040   6.957  10.640   2.234 -1.0701 -0.0186 -0.2079
  127MOL0     O17041   6.918  10.517   2.285  0.5595 -0.3393 -0.4077
  127MOL0     C17042   6.810  10.443   2.252  0.9884  0.5038  0.7446
  127MOL0     C17043   6.748  10.465   2.134 -0.2922 -0.7793 -1.1191
  127MOL0     C17044   6.641  10.382   2.089  0.0424  0.3358  0.1197
  127MOL0     C17045   6.601  10.267   2.160  0.1672  0.0050 -0.3324
  127MOL0     O17046   6.499  10.194   2.101  0.1427  0.1672  0.0526
  127MOL0     C17047   6.433  10.102   2.178  0.3421 -0.3325 -0.4857
  127MOL0     C17048   6.305  10.045   2.112 -0.9666  0.0266 -0.2896
  127MOL0     C17049   6.221  10.156   2.051  0.7942  0.5052 -0.1483
  127MOL0     C17050   6.097  10.086   1.992 -0.2638 -0.2413  0.1039
  127MOL0     C17051   5.995  10.171   1.927  0.4842  0.0380 -0.0503
  127MOL0     C17052   5.867  10.089   1.881 -0.2221  0.3162 -0.1056
  127MOL0     C17053   5.758  10.173   1.803  0.1420  0.2571  0.6736
  127MOL0     C17054   5.799  10.275   1.711 -0.1751 -0.7972  0.0604
  127MOL0    Cl17055   5.660  10.347   1.637 -0.3201 -0.2420  0.1375
  127MOL0     C17056   6.658  10.243   2.283  0.7226  0.5881  0.8774
  127MOL0     C17057   6.766  10.328   2.326 -0.6223  0.2336  0.3623
  127MOL0     O17058   6.889  10.723   2.173 -0.6936 -0.6668  0.0844
  127MOL0     C17059   7.132  10.803   2.168  0.1827 -0.0252  0.0718
  127MOL0     C17060   7.264  10.861   2.176 -0.3216  0.2459 -0.1976
  127MOL0     N17061   7.934  11.086   2.717 -0.1205  0.3237  0.5369
  127MOL0     N17062   8.014  11.060   2.818 -0.0280 -0.1190  0.3114
  127MOL0     C17063   8.568  11.392   1.959 -0.3595 -0.2977  0.0477
  127MOL0     C17064   8.478  11.447   1.869  0.2405  0.0377  0.3352
  127MOL0     C17065   8.049  11.479   1.704 -0.0402  0.3307  1.2879
  127MOL0     C17066   7.920  11.424   1.689  0.7856  0.7409  0.4130
  127MOL0     C17067   7.831  11.475   1.598 -0.6696  0.3235 -0.5500
  127MOL0     C17068   7.855  11.592   1.527 -1.1771 -0.0774 -0.1912
  127MOL0     O17069   7.768  11.661   1.440  0.1673  0.4938 -0.9590
  127MOL0     C17070   7.638  11.607   1.428  0.6070  0.0170 -0.8718
  127MOL0     C17071   7.547  11.661   1.540 -0.9237 -1.0373  0.0394
  127MOL0     C17072   7.423  11.572   1.566 -0.0149 -1.2874  0.7934
  127MOL0     C17073   7.346  11.558   1.423 -0.1262  0.0682  0.0962
  127MOL0     C17074   7.237  11.458   1.424 -0.1669 -0.0426  0.3708
  127MOL0     C17075   7.142  11.381   1.406  0.1046  1.4160  0.1314
  127MOL0     C17076   7.983  11.646   1.550 -0.1368  0.5681  0.6085
  127MOL0     C17077   8.084  11.591   1.629 -0.4424  0.3796  1.2661
  127MOL0     H17078   8.208  11.355   2.060  1.5479  0.8688  2.5739
  127MOL0     H17079   8.360  11.274   2.195 -3.1588  0.0578 -1.4489
  127MOL0     H17080   8.719  11.291   2.328 -0.2192 -0.8113  2.2387
  127MOL0     H17081   8.568  11.380   2.314 -0.9692 -0.4457  0.9727
  127MOL0     H17082   8.458  11.190   2.389 -1.0572 -1.7767 -1.8915
  127MOL0     H17083   8.553  11.079   2.290  1.5285 -0.0841 -0.0024
  127MOL0     H17084   8.736  11.087   2.448 -0.8277  0.2282 -2.1943
  127MOL0     H17085   8.655  11.201   2.556  0.4780  0.9816 -0.5762
  127MOL0     H17086   8.492  10.963   2.478 -2.5934  3.0705 -0.1012
  127MOL0     H17087   8.633  10.925   2.583 -0.3214 -0.5418  0.5834
  127MOL0     H17088   8.528  11.067   2.758 -1.4151  0.3191  1.2994
  127MOL0     H17089   8.417  11.140   2.648  0.3178 -0.3289  0.3180
  127MOL0     H17090   8.314  10.931   2.623  1.4933 -1.7209  0.9804
  127MOL0     H17091   8.425  10.838   2.714 -1.6718 -1.3467  0.1092
  127MOL0     H17092   8.392  10.938   2.916 -0.7750  0.6336  1.0033
  127MOL0     H17093   8.304  11.076   2.832 -2.8473 -0.0758  0.4857
  127MOL0     H17094   8.163  10.914   2.986 -1.9648 -0.7059  0.9244
  127MOL0     H17095   8.198  10.780   2.867 -1.0446 -1.2233  0.5915
  127MOL0     H17096   8.028  10.773   2.654  1.7145 -0.5525  2.2380
  127MOL0     H17097   7.779  11.047   2.539  2.3586  0.2526  0.1833
  127MOL0     H17098   7.875  10.933   2.441  2.1441  0.0771  0.2776
  127MOL0     H17099   7.699  10.859   2.690  0.8844  0.1582  0.5803
  127MOL0     H17100   7.748  10.738   2.559  1.1838  0.3548 -2.0851
  127MOL0     H17101   7.580  10.976   2.494  2.1400  1.0660  1.4645
  127MOL0     H17102   7.504  10.826   2.561  1.4138 -2.3352 -0.5365
  127MOL0     H17103   7.581  10.706   2.360 -2.4684  0.3073  1.4117
  127MOL0     H17104   7.688  10.846   2.315  0.6958  1.0048  1.8856
  127MOL0     H17105   7.394  10.646   2.398 -2.2018 -4.0095 -1.5346
  127MOL0     H17106   7.245  10.519   2.495 -0.0359  4.2631  1.0417
  127MOL0     H17107   7.074  10.546   2.485  0.7290  3.2192 -1.3259
  127MOL0     H17108   7.145  10.431   2.375 -1.0621 -0.9178  1.4858
  127MOL0     H17109   6.782  10.539   2.062  0.9037  0.3223  0.5034
  127MOL0     H17110   6.595  10.406   1.993  0.1215  2.0972  0.4793
  127MOL0     H17111   6.492  10.014   2.204  1.6146  0.4767 -0.5386
  127MOL0     H17112   6.401  10.157   2.267  3.6856  1.7960 -0.4280
  127MOL0     H17113   6.330   9.965   2.041  0.2877 -0.0875  0.2523
  127MOL0     H17114   6.254  10.000   2.198  0.5562 -0.4052  0.4254
  127MOL0     H17115   6.267  10.218   1.973 -1.1631  2.6322  0.2767
  127MOL0     H17116   6.181  10.228   2.122 -1.5702 -2.4997  1.8403
  127MOL0     H17117   6.120  10.016   1.912 -2.4190 -1.7013  0.6553
  127MOL0     H17118   6.052  10.025   2.072  2.3162 -2.2093  0.1984
  127MOL0     H17119   6.026  10.222   1.835 -3.5650  3.3188  0.1387
  127MOL0     H17120   5.961  10.252   1.991  3.9786  1.1987  0.5487
  127MOL0     H17121   5.911  10.016   1.812  2.1113  3.0649 -1.8062
  127MOL0     H17122   5.827  10.034   1.966  0.7526 -1.8424 -0.9759
  127MOL0     H17123   5.705  10.231   1.880 -0.8097 -2.6996  2.4150
  127MOL0     H17124   5.677  10.111   1.764 -1.6766  3.3489 -0.9254
  127MOL0     H17125   5.865  10.232   1.635 -0.4588 -2.2190  0.5781
  127MOL0     H17126   5.855  10.350   1.768  0.8083 -0.0868 -1.7691
  127MOL0     H17127   6.651  10.157   2.349  1.4708 -0.3543 -0.2547
  127MOL0     H17128   6.822  10.312   2.417  0.7301  0.0853 -0.4682
  127MOL0     H17129   7.072  10.856   2.094  0.1332 -0.3737 -0.1412
  127MOL0     H17130   7.291  10.940   2.107  0.6170  1.2055  1.2184
  127MOL0     H17131   8.670  11.399   1.920 -0.9054 -1.0582 -1.6007
  127MOL0     H17132   8.508  11.480   1.770 -2.6187  2.4239  0.1313
  127MOL0     H17133   7.899  11.323   1.722  0.0126  0.7923  0.0813
  127MOL0     H17134   7.735  11.426   1.588 -0.6439  0.3945 -1.1939
  127MOL0     H17135   7.600  11.627   1.327 -0.6174 -2.9098 -1.0671
  127MOL0     H17136   7.636  11.498   1.434  0.4413  0.1035  2.0899
  127MOL0     H17137   7.529  11.766   1.519 -0.2440 -1.0453 -0.6273
  127MOL0     H17138   7.599  11.651   1.636  1.5111 -0.6411 -1.1675
  127MOL0     H17139   7.358  11.603   1.649 -3.2024 -1.7696 -1.3214
  127MOL0     H17140   7.451  11.470   1.592  2.0449 -0.5107  1.7941
  127MOL0     H17141   7.420  11.546   1.343 -0.0521  0.9952  0.0218
  127MOL0     H17142   7.297  11.650   1.390 -0.9617 -0.8077 -1.1892
  127MOL0     H17143   7.064  11.308   1.396 -1.0032  2.1987  2.3501
  127MOL0     H17144   7.993  11.746   1.510 -2.6363  0.5159 -0.3475
  127MOL0     H17145   8.181  11.637   1.643 -0.7659  0.5083  3.6705
  128MOL0     O17146   8.564   6.698   4.774  0.8605  0.2100  0.3781
  128MOL0     C17147   8.656   6.701   4.686  1.0045  0.7802 -0.0148
  128MOL0     O17148   8.637   6.691   4.550  0.0458  0.2784 -0.2445
  128MOL0     C17149   8.505   6.679   4.510 -0.2342 -0.3837  0.0740
  128MOL0     C17150   8.419   6.574   4.538 -1.1141  0.5483  0.5921
  128MOL0     C17151   8.284   6.580   4.498  1.1460  0.2197 -0.0493
  128MOL0     C17152   8.236   6.694   4.432 -0.4059 -0.8212  0.1621
  128MOL0     O17153   8.104   6.713   4.401  0.0333  0.4286  0.2730
  128MOL0     C17154   8.002   6.606   4.393  0.0694  0.6963 -0.5851
  128MOL0     C17155   7.895   6.631   4.271 -0.9695  0.0713  0.0961
  128MOL0     C17156   7.820   6.753   4.297 -0.3838 -0.4604  0.3417
  128MOL0     C17157   7.721   6.769   4.188 -0.1387 -0.0068  0.4747
  128MOL0     C17158   7.672   6.915   4.197  0.3007  0.1537  0.3552
  128MOL0     C17159   7.548   6.929   4.112 -0.2736  0.3180 -0.3707
  128MOL0     C17160   7.496   7.065   4.120 -0.0404 -0.8814  0.4944
  128MOL0     C17161   7.357   7.066   4.183 -0.1032 -0.1068  0.1696
  128MOL0     N17162   7.285   7.195   4.187  0.1508 -0.2267 -0.2203
  128MOL0     C17163   7.174   7.219   4.255  0.3461  1.1332 -0.1844
  128MOL0     C17164   7.141   7.352   4.248  0.1426 -0.0023  0.9773
  128MOL0     C17165   7.022   7.428   4.310  0.3646  1.2364 -0.0127
  128MOL0     C17166   6.996   7.390   4.459 -0.0993  0.5181  0.0712
  128MOL0     C17167   7.077   7.464   4.558 -0.6669 -0.1198 -0.5988
  128MOL0     C17168   7.232   7.485   4.539 -0.0762  0.5841  0.8881
  128MOL0     O17169   7.296   7.528   4.655  0.0591  0.3151  0.1533
  128MOL0     C17170   7.425   7.580   4.651  0.5520 -0.5137 -0.3170
  128MOL0     C17171   7.503   7.585   4.533 -0.2622 -0.2708  0.4151
  128MOL0     C17172   7.622   7.668   4.522 -0.0022  0.7929  0.0818
  128MOL0     C17173   7.683   7.681   4.383 -0.8767  0.9274 -0.1770
  128MOL0     C17174   7.666   7.739   4.634 -0.2127  0.3372  1.0775
  128MOL0     C17175   7.787   7.821   4.644 -0.1170 -0.3602  0.6138
  128MOL0     O17176   7.812   7.868   4.767 -1.1998  0.0669  0.1238
  128MOL0     C17177   7.942   7.880   4.815 -0.4822  0.5356 -0.3285
  128MOL0     C17178   8.053   7.816   4.765  0.9282  1.6563  0.6858
  128MOL0     C17179   8.176   7.819   4.826  1.4850  0.0362  0.0035
  128MOL0     C17180   8.188   7.893   4.939 -0.5564 -0.0265 -0.1007
  128MOL0     O17181   8.314   7.906   4.988  0.1935  0.6588 -0.1061
  128MOL0     C17182   8.323   7.825   5.107 -0.7405 -1.1748 -0.5299
  128MOL0     C17183   8.379   7.903   5.219 -0.7682 -0.2139 -0.4421
  128MOL0     C17184   8.528   7.921   5.223  0.0758 -0.9486  0.1079
  128MOL0     C17185   8.597   7.958   5.096 -0.4394  0.4448  0.6567
  128MOL0     C17186   8.734   8.020   5.112 -0.8127 -0.2334 -0.6326
  128MOL0     C17187   8.818   7.944   5.217  0.2339 -0.0950 -0.6068
  128MOL0     C17188   8.949   7.997   5.235 -0.8830  0.7316  0.3773
  128MOL0     C17189   9.038   7.886   5.318  0.2046  0.0100 -0.1818
  128MOL0    Cl17190   8.970   7.866   5.480 -0.0798  0.0758 -0.2818
  128MOL0     C17191   8.080   7.957   5.003 -0.9149  0.0943  0.7258
  128MOL0     C17192   7.959   7.944   4.936 -0.4339 -0.2641 -0.6313
  128MOL0     O17193   7.851   7.844   4.548 -0.1462 -0.0884  0.7240
  128MOL0     C17194   7.586   7.730   4.753  0.0005  0.9842 -0.2274
  128MOL0     C17195   7.461   7.666   4.756  0.2484  0.9825 -0.7014
  128MOL0     N17196   7.248   7.416   4.181 -0.2569  0.5449  0.6009
  128MOL0     N17197   7.328   7.318   4.137  0.0175  0.0588 -0.2221
  128MOL0     C17198   8.329   6.790   4.393  0.1988  0.4942  0.6425
  128MOL0     C17199   8.459   6.773   4.427  0.4681 -1.1443 -0.5872
  128MOL0     C17200   8.785   6.706   4.740 -0.7974 -0.7410  0.2047
  128MOL0     C17201   8.888   6.636   4.678  0.5327  0.1025 -0.3833
  128MOL0     C17202   9.017   6.641   4.733  0.2788  0.3113 -0.0042
  128MOL0     C17203   9.047   6.723   4.846 -0.8109  0.0586  1.5241
  128MOL0     O17204   9.180   6.732   4.884 -0.2080 -1.2220 -0.4676
  128MOL0     C17205   9.207   6.865   4.946 -0.7089  0.8969  0.2441
  128MOL0     C17206   9.357   6.876   4.994  0.0219  0.5230 -0.8432
  128MOL0     C17207   9.465   6.828   4.897 -0.2339  0.3954 -0.2829
  128MOL0     C17208   9.541   6.697   4.934  0.3335 -0.1159  0.2271
  128MOL0     C17209   9.470   6.576   4.889  0.6006  0.5471 -0.0786
  128MOL0     C17210   9.412   6.481   4.837  0.5462 -0.2054  0.6977
  128MOL0     C17211   8.940   6.779   4.905  0.1437 -0.5840 -0.5608
  128MOL0     C17212   8.816   6.779   4.852 -0.2373 -0.2449 -0.9744
  128MOL0     H17213   8.450   6.485   4.592 -0.0868  1.1190  0.9805
  128MOL0     H17214   8.220   6.498   4.529  0.0817  1.5199  1.2930
  128MOL0     H17215   8.048   6.509   4.370 -0.2360  0.6856 -1.1679
  128MOL0     H17216   7.945   6.591   4.485  0.6727 -0.5896 -0.3915
  128MOL0     H17217   7.953   6.637   4.178  0.9384  1.5333  1.3080
  128MOL0     H17218   7.822   6.551   4.257 -0.4655 -1.5217  4.8253
  128MOL0     H17219   7.777   6.762   4.397  1.7440  0.2831  1.2478
  128MOL0     H17220   7.891   6.835   4.286  0.7903 -1.4761  0.0899
  128MOL0     H17221   7.762   6.742   4.090  0.7241 -0.6516  1.0039
  128MOL0     H17222   7.654   6.688   4.219  3.8049 -3.4292  0.8850
  128MOL0     H17223   7.632   6.943   4.295  0.8726 -0.5916  0.8063
  128MOL0     H17224   7.754   6.980   4.166  1.1198  0.4951  3.0387
  128MOL0     H17225   7.578   6.910   4.008  0.7035 -2.1676  0.2939
  128MOL0     H17226   7.465   6.869   4.151 -2.8967  2.3907 -2.3782
  128MOL0     H17227   7.557   7.134   4.179 -0.1110 -1.6806  1.5095
  128MOL0     H17228   7.495   7.105   4.018  5.2505 -0.3720  0.3761
  128MOL0     H17229   7.365   7.031   4.287  1.4629  1.8247  0.7660
  128MOL0     H17230   7.297   7.003   4.116  0.7660  0.5094 -1.2255
  128MOL0     H17231   7.113   7.146   4.308 -0.8279  0.0878 -2.7743
  128MOL0     H17232   7.045   7.535   4.302  1.0172  1.0349 -0.9155
  128MOL0     H17233   6.933   7.400   4.253  0.8686 -1.2029  0.3112
  128MOL0     H17234   7.020   7.283   4.462 -0.3898  0.4236 -0.7261
  128MOL0     H17235   6.888   7.394   4.479 -0.9458 -2.4580 -2.9895
  128MOL0     H17236   7.071   7.414   4.655  0.5739  0.3549 -0.2570
  128MOL0     H17237   7.048   7.569   4.562  0.6869  0.3632 -2.0179
  128MOL0     H17238   7.243   7.551   4.452 -0.4846  0.1458  0.4985
  128MOL0     H17239   7.272   7.390   4.500  0.8854  0.9102  1.0433
  128MOL0     H17240   7.475   7.545   4.436 -1.7716  0.8699  0.3353
  128MOL0     H17241   7.670   7.784   4.350  2.9214  1.4807 -0.3868
  128MOL0     H17242   7.788   7.658   4.361 -0.3226  2.1369  1.0472
  128MOL0     H17243   7.617   7.620   4.320 -2.0878 -1.9532  3.4823
  128MOL0     H17244   8.044   7.756   4.675 -1.5730  2.0959  0.5912
  128MOL0     H17245   8.267   7.769   4.796  0.9202 -0.6807 -0.5361
  128MOL0     H17246   8.233   7.770   5.136 -1.3647  0.8071  1.6286
  128MOL0     H17247   8.395   7.746   5.086  0.6673  0.0409 -0.4299
  128MOL0     H17248   8.329   8.000   5.212  2.0079  1.5761  1.9299
  128MOL0     H17249   8.356   7.866   5.320 -1.0020 -0.7164 -0.6758
  128MOL0     H17250   8.580   7.831   5.260  1.0653 -0.7191 -0.6761
  128MOL0     H17251   8.540   8.011   5.283  1.7421  0.0727 -1.6473
  128MOL0     H17252   8.617   7.863   5.048 -1.3835  0.2351  0.6543
  128MOL0     H17253   8.532   8.026   5.039 -1.9688  1.7158  3.6573
  128MOL0     H17254   8.716   8.117   5.159 -0.6472 -0.1189 -0.8019
  128MOL0     H17255   8.796   8.038   5.024 -2.2414  0.1997 -1.5791
  128MOL0     H17256   8.774   7.953   5.316  0.4246  2.7725 -0.6846
  128MOL0     H17257   8.828   7.839   5.190  2.3109 -0.5966  1.7643
  128MOL0     H17258   8.944   8.088   5.295  1.2784  1.3673 -0.2979
  128MOL0     H17259   8.992   8.017   5.136 -0.7949  0.6918  0.4075
  128MOL0     H17260   9.133   7.942   5.321  0.3491  0.5597 -5.4426
  128MOL0     H17261   9.049   7.787   5.274 -2.3161  0.7384 -2.6873
  128MOL0     H17262   8.099   8.008   5.097 -3.6090  0.2011  1.2940
  128MOL0     H17263   7.868   7.978   4.985  0.0216  0.2444 -0.1069
  128MOL0     H17264   7.615   7.777   4.846 -0.2394 -1.8650  1.4308
  128MOL0     H17265   7.405   7.664   4.849  1.3049 -1.8720 -0.0428
  128MOL0     H17266   8.293   6.872   4.332 -1.8578 -0.5110  0.4292
  128MOL0     H17267   8.522   6.857   4.399  0.0307  0.0718  1.7870
  128MOL0     H17268   8.861   6.578   4.590  0.8526 -0.7433  0.0684
  128MOL0     H17269   9.104   6.584   4.703  0.3476  0.2889  0.2367
  128MOL0     H17270   9.187   6.936   4.866 -0.1610 -1.1399 -1.8004
  128MOL0     H17271   9.139   6.888   5.029  0.0331 -0.0446  1.1479
  128MOL0     H17272   9.383   6.840   5.094 -1.8142  2.0689  0.2555
  128MOL0     H17273   9.357   6.984   5.010 -1.1917  0.5867 -1.1887
  128MOL0     H17274   9.542   6.904   4.880  2.3840 -2.1928 -0.7617
  128MOL0     H17275   9.428   6.833   4.794  2.9353 -1.4937 -1.6564
  128MOL0     H17276   9.555   6.698   5.043  0.5446  0.0539  0.1984
  128MOL0     H17277   9.640   6.690   4.888  0.6933 -2.9653  1.2093
  128MOL0     H17278   9.349   6.407   4.792 -1.2670  1.9665 -0.5890
  128MOL0     H17279   8.959   6.829   4.999  3.8098 -1.7379 -0.5222
  128MOL0     H17280   8.745   6.836   4.912 -0.2181 -1.2196  0.0058
  129MOL0     O17281   7.683   9.596   4.200 -0.7321 -0.6779 -0.3461
  129MOL0     C17282   7.694   9.701   4.132 -0.1912  0.2143 -0.6533
  129MOL0     O17283   7.596   9.789   4.117  0.1385  0.2224  0.2528
  129MOL0     C17284   7.465   9.771   4.155  0.4214 -0.0599 -0.0957
  129MOL0     C17285   7.403   9.647   4.156 -0.6093  1.2259 -0.8073
  129MOL0     C17286   7.270   9.639   4.194  0.1844 -0.3705 -0.4541
  129MOL0     C17287   7.194   9.755   4.216 -1.0143 -0.0042 -0.2288
  129MOL0     O17288   7.060   9.754   4.248 -0.2569  0.0593  0.7785
  129MOL0     C17289   6.975   9.670   4.158  0.4600  0.0296  0.2756
  129MOL0     C17290   6.821   9.675   4.175 -0.0111  0.6064 -0.7015
  129MOL0     C17291   6.775   9.630   4.316  0.7029 -0.0798 -0.5788
  129MOL0     C17292   6.692   9.496   4.314  1.0895  0.6916  0.0151
  129MOL0     C17293   6.656   9.450   4.454 -0.3097 -0.5775 -0.1660
  129MOL0     C17294   6.558   9.340   4.449  1.0961 -0.0590 -0.4658
  129MOL0     C17295   6.534   9.284   4.585  0.8099  0.0268  0.2497
  129MOL0     C17296   6.399   9.203   4.572  1.0239 -0.7125  0.1375
  129MOL0     N17297   6.294   9.255   4.665  0.8271  0.6948 -0.9933
  129MOL0     C17298   6.159   9.257   4.635 -0.2584 -0.2544 -0.2256
  129MOL0     C17299   6.101   9.323   4.728  0.5794  0.4560 -0.2274
  129MOL0     C17300   5.950   9.346   4.762 -0.9482  0.0424 -0.3310
  129MOL0     C17301   5.885   9.426   4.643  0.5329 -0.2499  0.0236
  129MOL0     C17302   5.739   9.465   4.688  0.2612 -0.4899  0.7185
  129MOL0     C17303   5.689   9.588   4.602 -0.4031  0.2707  0.0163
  129MOL0     O17304   5.551   9.623   4.645 -0.2134  0.6875 -0.2233
  129MOL0     C17305   5.483   9.704   4.555 -0.0283 -0.8740  0.5812
  129MOL0     C17306   5.345   9.694   4.548  0.2738  1.0436  0.0961
  129MOL0     C17307   5.269   9.777   4.449  0.0296  0.0652 -0.7714
  129MOL0     C17308   5.122   9.751   4.455  0.2356  0.1770 -0.0624
  129MOL0     C17309   5.330   9.882   4.379 -0.2905  0.0633  0.9150
  129MOL0     C17310   5.262   9.993   4.300  0.6339  0.8304  1.0478
  129MOL0     O17311   5.344  10.053   4.216 -0.4363  0.1647  0.8429
  129MOL0     C17312   5.287  10.159   4.143 -0.4242 -0.0501  0.2914
  129MOL0     C17313   5.222  10.279   4.193  0.9094 -0.3436  0.3573
  129MOL0     C17314   5.150  10.370   4.110  1.3012  0.1616 -0.0573
  129MOL0     C17315   5.137  10.338   3.974 -0.4903  0.3099 -0.2403
  129MOL0     O17316   5.041  10.391   3.895 -1.0703 -0.1952  0.3159
  129MOL0     C17317   4.987  10.521   3.920  0.4906  0.4988  0.6075
  129MOL0     C17318   4.874  10.538   3.821  1.4563  0.9490 -0.9241
  129MOL0     C17319   4.783  10.654   3.873 -0.7040  0.1989  0.9087
  129MOL0     C17320   4.644  10.654   3.800  0.0037 -0.0287 -0.6367
  129MOL0     C17321   4.565  10.781   3.844 -0.5296 -0.4782 -0.4851
  129MOL0     C17322   4.418  10.773   3.806 -0.5080 -0.6876  0.2743
  129MOL0     C17323   4.344  10.901   3.867 -0.3684 -0.2666  0.3224
  129MOL0     C17324   4.202  10.900   3.802  0.0409 -0.0192 -0.0688
  129MOL0    Cl17325   4.091  11.002   3.912 -0.0762  0.0219 -0.3517
  129MOL0     C17326   5.209  10.233   3.927  0.0667  0.6256  0.0488
  129MOL0     C17327   5.274  10.138   4.004  0.1732 -0.2291  0.4871
  129MOL0     O17328   5.146  10.028   4.328 -0.3245  0.0525 -0.1400
  129MOL0     C17329   5.474   9.877   4.387 -0.1255 -0.1378  0.4293
  129MOL0     C17330   5.550   9.797   4.466  0.5773  0.5198  0.6204
  129MOL0     N17331   6.191   9.379   4.818  0.2227 -0.2942 -0.1224
  129MOL0     N17332   6.302   9.344   4.770 -0.3634  0.1235  0.0048
  129MOL0     C17333   7.251   9.880   4.199 -0.7538 -0.3711  0.0937
  129MOL0     C17334   7.391   9.888   4.165 -0.3973  0.3875  0.3295
  129MOL0     C17335   7.827   9.719   4.059  0.1508 -1.0008 -0.1258
  129MOL0     C17336   7.941   9.634   4.083  0.5859 -0.8777  0.4847
  129MOL0     C17337   8.049   9.635   4.000  0.4468 -0.1668 -0.1742
  129MOL0     C17338   8.064   9.735   3.912  0.4672 -0.0279  0.1301
  129MOL0     O17339   8.182   9.730   3.847 -0.0097 -0.0975 -0.4161
  129MOL0     C17340   8.215   9.827   3.745 -0.2195  0.6272 -0.0886
  129MOL0     C17341   8.273   9.956   3.811 -0.3244 -0.3208  0.7022
  129MOL0     C17342   8.414   9.929   3.866  0.1797  0.1947 -0.4111
  129MOL0     C17343   8.420   9.869   4.007 -1.5856  0.0491  1.0768
  129MOL0     C17344   8.556   9.871   4.063 -0.2038  0.2141 -0.4657
  129MOL0     C17345   8.661   9.866   4.126  0.0577 -0.2722  0.2965
  129MOL0     C17346   7.961   9.819   3.893 -0.1496 -0.4860 -0.6303
  129MOL0     C17347   7.843   9.823   3.963  0.2921 -0.4981 -0.7457
  129MOL0     H17348   7.461   9.560   4.124  1.9413  1.1168  3.3801
  129MOL0     H17349   7.223   9.541   4.190 -0.1532 -0.2935  1.1496
  129MOL0     H17350   6.997   9.694   4.054  2.3832 -1.5548  0.2462
  129MOL0     H17351   7.007   9.565   4.169 -2.1420 -0.9347 -0.6499
  129MOL0     H17352   6.778   9.775   4.165  3.2743  2.4174  1.3383
  129MOL0     H17353   6.782   9.608   4.098 -1.2585 -0.9464  1.1551
  129MOL0     H17354   6.863   9.616   4.380 -0.6863  1.2290  1.7107
  129MOL0     H17355   6.716   9.715   4.350 -0.1506 -0.8082 -0.1948
  129MOL0     H17356   6.598   9.504   4.259 -0.6939 -1.8448  2.4298
  129MOL0     H17357   6.761   9.426   4.267  2.6931  2.4862 -0.4538
  129MOL0     H17358   6.745   9.420   4.510  0.3371  0.5639 -0.5579
  129MOL0     H17359   6.613   9.531   4.514  0.2021 -1.4430  1.4189
  129MOL0     H17360   6.464   9.375   4.404  0.9443  0.1621  0.0059
  129MOL0     H17361   6.589   9.253   4.391  1.4790 -0.0249 -0.3134
  129MOL0     H17362   6.612   9.217   4.624  2.0406  1.7124  0.7938
  129MOL0     H17363   6.523   9.361   4.662 -1.9288 -0.7009  0.6942
  129MOL0     H17364   6.418   9.096   4.586 -0.6338 -1.5259 -2.8711
  129MOL0     H17365   6.360   9.205   4.470  0.9944 -1.2060  0.1357
  129MOL0     H17366   6.099   9.217   4.554 -3.6351  2.5351  0.6211
  129MOL0     H17367   5.907   9.245   4.763  0.7491 -0.7398 -1.4376
  129MOL0     H17368   5.950   9.397   4.859 -2.0482  1.2979 -0.9639
  129MOL0     H17369   5.882   9.369   4.550  0.8100  0.6707 -0.5618
  129MOL0     H17370   5.942   9.517   4.621 -0.6731 -0.2527 -3.6881
  129MOL0     H17371   5.740   9.505   4.789  0.2200  2.1715 -0.2463
  129MOL0     H17372   5.666   9.383   4.687 -1.4751  0.9454  2.1596
  129MOL0     H17373   5.690   9.549   4.500 -0.3800  1.1402 -0.3235
  129MOL0     H17374   5.761   9.671   4.593 -1.3933  1.1475  0.0430
  129MOL0     H17375   5.290   9.634   4.620  3.0312 -1.8104  0.0688
  129MOL0     H17376   5.081   9.740   4.354 -3.1688 -1.7752  1.3537
  129MOL0     H17377   5.089   9.656   4.500  0.3131 -0.5019 -1.3890
  129MOL0     H17378   5.067   9.833   4.502 -1.2539  0.9163 -2.8679
  129MOL0     H17379   5.244  10.302   4.297  3.0149  0.0274 -0.1201
  129MOL0     H17380   5.105  10.457   4.156 -0.9347  0.0962 -1.9481
  129MOL0     H17381   4.940  10.523   4.019 -3.9957 -2.1251 -1.1438
  129MOL0     H17382   5.060  10.594   3.883  0.0247 -0.1599 -1.7249
  129MOL0     H17383   4.894  10.553   3.715 -1.1952  0.9942 -1.4644
  129MOL0     H17384   4.812  10.449   3.818  0.9505  0.6186  5.2779
  129MOL0     H17385   4.831  10.749   3.848 -0.5765  0.2457  1.3265
  129MOL0     H17386   4.764  10.641   3.980 -2.8817 -1.6696  0.3748
  129MOL0     H17387   4.672  10.662   3.695  2.4079 -0.1646 -0.0711
  129MOL0     H17388   4.584  10.565   3.821 -0.4312  0.5167  0.5250
  129MOL0     H17389   4.616  10.870   3.806  1.9757 -2.2481 -1.5485
  129MOL0     H17390   4.569  10.800   3.951 -1.6639 -2.0114 -0.1296
  129MOL0     H17391   4.431  10.768   3.697  0.9313 -0.0301  0.3950
  129MOL0     H17392   4.377  10.684   3.854 -2.9896  1.7136  3.0156
  129MOL0     H17393   4.396  10.991   3.833 -0.0547 -0.9042 -0.9255
  129MOL0     H17394   4.334  10.902   3.976 -2.7979  0.3756  0.1566
  129MOL0     H17395   4.164  10.798   3.794  1.0873 -0.8892  3.7969
  129MOL0     H17396   4.206  10.951   3.705 -2.8852 -0.5506 -0.5511
  129MOL0     H17397   5.199  10.203   3.823  0.0026 -2.2533  0.7997
  129MOL0     H17398   5.326  10.051   3.965  1.3860  0.4740  0.4807
  129MOL0     H17399   5.539   9.947   4.335 -2.1317  0.4058 -1.4899
  129MOL0     H17400   5.656   9.818   4.458  0.6763 -0.4427 -1.0662
  129MOL0     H17401   7.189   9.968   4.213 -0.4853 -0.0608 -0.5970
  129MOL0     H17402   7.453   9.977   4.160  0.9967 -0.6142 -1.4951
  129MOL0     H17403   7.928   9.559   4.160 -1.1145  0.2925  1.4181
  129MOL0     H17404   8.118   9.551   3.992 -0.6530 -1.3179  1.7658
  129MOL0     H17405   8.288   9.776   3.681  1.4693  1.8081  0.8106
  129MOL0     H17406   8.127   9.856   3.686 -0.0627  1.5169  0.1026
  129MOL0     H17407   8.210   9.984   3.896 -0.6626  1.4893 -0.1029
  129MOL0     H17408   8.276  10.041   3.742 -2.3157 -0.8420 -0.1078
  129MOL0     H17409   8.460  10.028   3.870 -2.0633  1.3136 -0.3760
  129MOL0     H17410   8.454   9.865   3.787 -0.2956  0.5447 -0.9452
  129MOL0     H17411   8.373   9.771   4.015  2.4561 -2.1276  0.6140
  129MOL0     H17412   8.353   9.932   4.067 -1.8177 -0.0188  0.8910
  129MOL0     H17413   8.747   9.847   4.188  0.3483  1.8029  0.5931
  129MOL0     H17414   7.966   9.892   3.813 -2.1837 -0.5881 -0.9027
  129MOL0     H17415   7.763   9.883   3.920  0.7518  0.3750 -0.4013
  130MOL0     O17416   4.770  10.442   4.987 -0.0233  0.5455 -0.6134
  130MOL0     C17417   4.656  10.427   5.028  0.6009  0.2134 -0.4468
  130MOL0     O17418   4.550  10.360   4.978  0.0181  0.1908  0.3770
  130MOL0     C17419   4.585  10.274   4.879  0.4844  0.2214  0.4230
  130MOL0     C17420   4.538  10.300   4.747 -0.5966  0.1353 -0.0373
  130MOL0     C17421   4.548  10.205   4.651  0.1610  0.2906  0.7052
  130MOL0     C17422   4.615  10.082   4.681 -0.1628 -0.0190  0.1700
  130MOL0     O17423   4.612   9.981   4.579 -0.0016 -0.7201 -0.3530
  130MOL0     C17424   4.707  10.009   4.476  0.9468 -0.0703  0.3221
  130MOL0     C17425   4.762   9.875   4.406 -0.9312 -0.6318 -0.3307
  130MOL0     C17426   4.652   9.767   4.381 -0.6124 -1.1732  0.2608
  130MOL0     C17427   4.584   9.815   4.248  0.4121 -1.0662 -0.1298
  130MOL0     C17428   4.458   9.723   4.219 -0.4659  0.1202  0.4131
  130MOL0     C17429   4.377   9.763   4.094  0.5895  0.4301  0.4922
  130MOL0     C17430   4.260   9.659   4.104  0.5504  0.2636  0.2596
  130MOL0     C17431   4.161   9.682   3.987  0.1887 -0.9429 -0.5432
  130MOL0     N17432   4.212   9.694   3.853  0.5915  0.1554  0.9942
  130MOL0     C17433   4.230   9.582   3.768 -0.6507 -0.0919  0.5381
  130MOL0     C17434   4.278   9.625   3.648  0.3743  0.5166 -0.6393
  130MOL0     C17435   4.319   9.550   3.522  0.6322 -0.0655  0.0541
  130MOL0     C17436   4.467   9.542   3.509 -0.1461 -0.8910  0.3001
  130MOL0     C17437   4.536   9.456   3.619  1.0349  0.1021  0.5570
  130MOL0     C17438   4.687   9.460   3.631 -0.0431 -1.4079  0.3267
  130MOL0     O17439   4.727   9.438   3.495 -0.4194 -0.2688 -0.1731
  130MOL0     C17440   4.869   9.414   3.484  0.2679 -0.4759 -1.1437
  130MOL0     C17441   4.966   9.454   3.583  0.2166  1.0013  0.4109
  130MOL0     C17442   5.100   9.420   3.559  0.8404  1.1358 -0.2727
  130MOL0     C17443   5.196   9.472   3.664  0.3953  1.7113 -0.5310
  130MOL0     C17444   5.145   9.365   3.431 -1.3461 -0.3699 -0.8132
  130MOL0     C17445   5.287   9.352   3.397  0.7024 -0.1085  0.4720
  130MOL0     O17446   5.366   9.312   3.501  0.0604 -0.3614 -0.0736
  130MOL0     C17447   5.494   9.263   3.474 -0.5102 -0.1513 -0.2384
  130MOL0     C17448   5.529   9.139   3.531  0.3705 -0.1215  0.0188
  130MOL0     C17449   5.650   9.086   3.485 -1.3474  0.8285  0.2758
  130MOL0     C17450   5.748   9.151   3.399 -0.9184  0.7342 -0.2058
  130MOL0     O17451   5.863   9.087   3.363 -0.1001 -0.0817 -0.2228
  130MOL0     C17452   5.992   9.146   3.383 -0.3339 -0.8656 -0.0203
  130MOL0     C17453   6.019   9.158   3.537 -0.9119 -0.3170  0.2110
  130MOL0     C17454   6.159   9.224   3.545  0.4535  0.6699 -0.6235
  130MOL0     C17455   6.197   9.258   3.695 -0.0488  0.3497  0.4176
  130MOL0     C17456   6.213   9.136   3.781  0.9041 -0.9342 -1.7426
  130MOL0     C17457   6.293   9.174   3.913  0.3085 -0.8382 -0.7266
  130MOL0     C17458   6.218   9.244   4.018 -0.5225  0.1694  0.7369
  130MOL0     C17459   6.303   9.265   4.146  0.2744  0.6254 -0.4071
  130MOL0    Cl17460   6.348   9.096   4.210 -0.1959  0.4341  0.1667
  130MOL0     C17461   5.706   9.279   3.354  0.0720  0.5361 -0.2916
  130MOL0     C17462   5.587   9.333   3.394  0.5348  0.0738 -0.5996
  130MOL0     O17463   5.318   9.355   3.270  0.4025  0.8524 -1.3046
  130MOL0     C17464   5.044   9.340   3.339 -1.1772 -0.4521 -0.0258
  130MOL0     C17465   4.912   9.356   3.368 -0.4750 -0.0214  0.1539
  130MOL0     N17466   4.281   9.761   3.658 -1.0264  0.2093 -0.0287
  130MOL0     N17467   4.255   9.798   3.773  0.4445 -0.0532 -0.8177
  130MOL0     C17468   4.676  10.063   4.805 -0.2998  0.4629  0.6840
  130MOL0     C17469   4.661  10.149   4.904  0.7507  0.0725 -0.0388
  130MOL0     C17470   4.615  10.481   5.161 -1.3377  0.3185  0.0742
  130MOL0     C17471   4.682  10.601   5.197  1.1986 -0.1873 -0.7063
  130MOL0     C17472   4.648  10.664   5.321 -0.5474  0.2204 -0.5440
  130MOL0     C17473   4.555  10.604   5.406 -0.2185  0.2295  0.2534
  130MOL0     O17474   4.516  10.637   5.537  1.0673  0.0117  0.4205
  130MOL0     C17475   4.622  10.714   5.605 -0.1638 -0.1867  0.0777
  130MOL0     C17476   4.550  10.742   5.743  0.8288  0.0357  0.1945
  130MOL0     C17477   4.442  10.855   5.731  0.1913  0.7607  0.1035
  130MOL0     C17478   4.487  10.984   5.656 -0.2967  0.3113  0.1893
  130MOL0     C17479   4.603  11.052   5.712  0.7868  0.2327 -1.2314
  130MOL0     C17480   4.688  11.103   5.783  0.0000 -0.2784  0.2625
  130MOL0     C17481   4.484  10.494   5.358  0.6836 -0.2576 -0.2933
  130MOL0     C17482   4.512  10.429   5.237  0.2196 -0.7313  1.0781
  130MOL0     H17483   4.476  10.388   4.732 -1.0458  0.4744  3.2478
  130MOL0     H17484   4.508  10.221   4.552  4.6856  1.8080 -1.1167
  130MOL0     H17485   4.652  10.076   4.410  0.7483  1.4605  1.9785
  130MOL0     H17486   4.794  10.063   4.513  0.3270  1.2152 -0.0555
  130MOL0     H17487   4.807   9.908   4.312  1.0262  2.8550  1.6219
  130MOL0     H17488   4.836   9.848   4.483 -1.6209  0.4082  0.7185
  130MOL0     H17489   4.699   9.669   4.381 -2.1131 -2.0098  2.8759
  130MOL0     H17490   4.586   9.763   4.469  0.0457 -3.3512  0.7182
  130MOL0     H17491   4.542   9.915   4.259 -0.3092 -1.2474 -1.0996
  130MOL0     H17492   4.642   9.825   4.156 -0.5346  0.9281 -0.5790
  130MOL0     H17493   4.500   9.623   4.207 -2.1013 -0.4845 -0.7059
  130MOL0     H17494   4.391   9.729   4.305  1.5298 -0.0709  2.0660
  130MOL0     H17495   4.333   9.862   4.110 -1.7516 -0.5682  0.7025
  130MOL0     H17496   4.432   9.753   4.000 -0.3930  1.2866 -0.2077
  130MOL0     H17497   4.302   9.559   4.088 -1.7584 -0.2283 -4.3839
  130MOL0     H17498   4.209   9.659   4.200  0.7501 -1.9530  0.4156
  130MOL0     H17499   4.110   9.776   4.011  0.6515 -0.3329 -1.8366
  130MOL0     H17500   4.085   9.604   3.992  1.2182 -1.8687  1.9090
  130MOL0     H17501   4.223   9.476   3.792  2.4636  0.0731  2.6819
  130MOL0     H17502   4.269   9.452   3.528 -0.7416  0.5616 -0.6495
  130MOL0     H17503   4.280   9.600   3.433  0.4913  0.5198  0.4390
  130MOL0     H17504   4.503   9.644   3.526  0.6841 -1.0868 -0.2739
  130MOL0     H17505   4.504   9.508   3.412  1.4665 -0.0502  0.5903
  130MOL0     H17506   4.497   9.355   3.613  0.2924  0.3493  1.0810
  130MOL0     H17507   4.492   9.493   3.712 -0.1328 -2.1261  0.9571
  130MOL0     H17508   4.734   9.382   3.693  2.7608 -0.5819 -0.5956
  130MOL0     H17509   4.722   9.554   3.674  1.4938 -2.0109  0.4740
  130MOL0     H17510   4.940   9.497   3.680  1.4314  3.2037 -0.1944
  130MOL0     H17511   5.140   9.511   3.749 -0.9771  3.2497 -2.0752
  130MOL0     H17512   5.264   9.391   3.694 -1.2019  0.9021  1.0798
  130MOL0     H17513   5.263   9.551   3.630  3.0632  0.6194  1.6917
  130MOL0     H17514   5.460   9.101   3.606  0.3775  3.6750  2.2144
  130MOL0     H17515   5.672   8.991   3.531  1.4234  2.2000  2.0538
  130MOL0     H17516   6.068   9.088   3.330  0.8529 -0.0927  0.7880
  130MOL0     H17517   5.993   9.244   3.334 -0.5804 -0.7562  0.1925
  130MOL0     H17518   5.948   9.229   3.582 -0.0739  0.2246  0.7119
  130MOL0     H17519   6.019   9.063   3.591  1.0247 -2.7525 -3.6292
  130MOL0     H17520   6.166   9.316   3.486 -0.5248  2.2617  1.5804
  130MOL0     H17521   6.246   9.166   3.511  1.5421  2.3619 -0.8827
  130MOL0     H17522   6.286   9.321   3.683  1.8286 -2.3535 -1.0537
  130MOL0     H17523   6.120   9.319   3.743 -0.8853 -1.1273  1.0403
  130MOL0     H17524   6.273   9.071   3.716  0.2936  0.1558 -3.4570
  130MOL0     H17525   6.112   9.100   3.803  0.8087  2.2000  5.5403
  130MOL0     H17526   6.326   9.075   3.946 -0.4065 -0.3264  1.7773
  130MOL0     H17527   6.379   9.237   3.887  1.0192 -0.9855  1.0724
  130MOL0     H17528   6.122   9.202   4.049 -2.0198  1.2624 -2.0579
  130MOL0     H17529   6.186   9.344   3.988 -0.9901  0.4089  2.0068
  130MOL0     H17530   6.238   9.304   4.226  0.1247 -2.8756  1.3628
  130MOL0     H17531   6.396   9.322   4.139  2.2881 -2.6374 -2.5812
  130MOL0     H17532   5.772   9.326   3.281  0.3120 -0.4374 -0.7211
  130MOL0     H17533   5.551   9.427   3.355  2.2098  0.6353 -0.8470
  130MOL0     H17534   5.071   9.303   3.241  1.4698 -3.7291  1.7662
  130MOL0     H17535   4.830   9.345   3.298 -0.6578  2.4206 -0.1153
  130MOL0     H17536   4.722   9.967   4.824  1.9773  1.5687  1.1156
  130MOL0     H17537   4.702  10.126   5.002  2.2957 -1.0211 -0.9094
  130MOL0     H17538   4.759  10.650   5.138 -0.5471  3.6831 -0.0972
  130MOL0     H17539   4.707  10.748   5.355  0.1886  0.2356 -1.7981
  130MOL0     H17540   4.719  10.668   5.629 -1.2232 -2.9948 -0.6578
  130MOL0     H17541   4.643  10.809   5.555  1.0939 -0.9818 -0.9857
  130MOL0     H17542   4.632  10.769   5.810  0.5409  0.0757  0.5283
  130MOL0     H17543   4.504  10.648   5.772 -0.7729  1.3120  2.0858
  130MOL0     H17544   4.404  10.883   5.830  2.0160 -0.1017  1.0994
  130MOL0     H17545   4.367  10.809   5.667  0.4557  0.7845 -0.2263
  130MOL0     H17546   4.398  11.047   5.655 -0.9804 -0.6415  0.0104
  130MOL0     H17547   4.502  10.969   5.549  1.2559  4.8604 -0.4156
  130MOL0     H17548   4.758  11.135   5.856  2.3974 -2.0780 -1.1103
  130MOL0     H17549   4.401  10.450   5.412  0.7360  0.8835  0.7735
  130MOL0     H17550   4.456  10.345   5.198  0.9720 -0.0059 -1.8211
  131MOL0     O17551  10.483   0.725  11.446 -0.2063  0.2095 -0.1503
  131MOL0     C17552  10.578   0.681  11.384 -0.1937 -0.2285 -0.4019
  131MOL0     O17553  10.618   0.718  11.256 -0.6800 -0.2557  0.6529
  131MOL0     C17554  10.552   0.819  11.184 -0.0044  0.7150  0.3524
  131MOL0     C17555  10.567   0.955  11.225  0.0099 -0.0625  0.4736
  131MOL0     C17556  10.507   1.052  11.155  0.3157  0.2425  0.2060
  131MOL0     C17557  10.429   1.034  11.042 -0.0322  1.0685 -1.4751
  131MOL0     O17558  10.368   1.147  10.992  0.0037 -0.6283  0.3028
  131MOL0     C17559  10.379   1.157  10.849 -0.0514  0.1713 -0.3316
  131MOL0     C17560  10.425   1.296  10.801  0.1343  0.0268 -0.2207
  131MOL0     C17561  10.329   1.402  10.823 -0.4866  1.1316  0.1002
  131MOL0     C17562  10.305   1.441  10.969 -0.1236 -0.6147  0.1221
  131MOL0     C17563  10.223   1.570  10.982 -0.5638  0.2118 -0.3801
  131MOL0     C17564  10.195   1.604  11.121  0.3870 -0.2542 -0.9637
  131MOL0     C17565  10.319   1.645  11.213 -0.4322 -0.5760  0.3543
  131MOL0     C17566  10.369   1.786  11.181 -0.1565  1.2432 -0.2703
  131MOL0     N17567  10.257   1.877  11.170 -0.2265 -0.3887 -0.7132
  131MOL0     C17568  10.179   1.912  11.274 -1.0060 -0.7472  0.0571
  131MOL0     C17569  10.114   2.021  11.234 -0.7568  0.4558 -1.0852
  131MOL0     C17570  10.014   2.106  11.311  0.5385  0.9541 -0.5689
  131MOL0     C17571  10.070   2.251  11.341  0.0857  0.5594 -0.8907
  131MOL0     C17572  10.166   2.248  11.463 -0.1163  0.1093 -0.0389
  131MOL0     C17573  10.240   2.380  11.445  0.5788  0.5636  0.2063
  131MOL0     O17574  10.356   2.357  11.357  0.0543 -0.2844 -0.3834
  131MOL0     C17575  10.386   2.453  11.256  0.2283 -0.5407 -0.2226
  131MOL0     C17576  10.519   2.476  11.229 -0.1617  0.5075 -0.0486
  131MOL0     C17577  10.568   2.554  11.123  0.4084 -1.0622  0.8517
  131MOL0     C17578  10.717   2.559  11.099 -0.9561 -0.2714 -1.1103
  131MOL0     C17579  10.470   2.629  11.053 -0.6629 -0.5536  0.4161
  131MOL0     C17580  10.501   2.738  10.948  0.2469  0.2801  0.5627
  131MOL0     O17581  10.629   2.767  10.928 -0.4586 -0.0377 -0.1122
  131MOL0     C17582  10.680   2.865  10.844 -0.5223 -0.3314 -0.0313
  131MOL0     C17583  10.624   2.903  10.724 -0.3404  0.3051 -0.1172
  131MOL0     C17584  10.689   2.996  10.651 -0.0819 -0.6988  0.1168
  131MOL0     C17585  10.801   3.067  10.698 -1.1285 -1.3053 -0.2074
  131MOL0     O17586  10.829   3.165  10.600 -0.1147  0.0981 -0.3515
  131MOL0     C17587  10.930   3.262  10.621  0.5193  0.2654  1.0099
  131MOL0     C17588  10.927   3.381  10.520 -0.1074  0.0349  0.0188
  131MOL0     C17589  10.818   3.475  10.558  0.1013 -0.7651 -0.6675
  131MOL0     C17590  10.841   3.620  10.502  0.4611  1.3524  0.3131
  131MOL0     C17591  10.719   3.695  10.495  0.1411 -0.6991  0.7238
  131MOL0     C17592  10.741   3.832  10.424 -0.0451  0.7110 -0.9005
  131MOL0     C17593  10.635   3.952  10.438 -0.3078  0.1556 -0.6050
  131MOL0     C17594  10.610   3.972  10.590 -0.8783 -0.5534  0.2986
  131MOL0    Cl17595  10.493   4.105  10.625 -0.0443  0.0777 -0.3802
  131MOL0     C17596  10.861   3.035  10.820  0.2382  0.1214  0.6175
  131MOL0     C17597  10.800   2.933  10.890 -1.1782  0.0794  0.1146
  131MOL0     O17598  10.408   2.787  10.877  0.3981 -0.0060 -0.2910
  131MOL0     C17599  10.332   2.597  11.078 -0.1420 -0.2235 -0.8172
  131MOL0     C17600  10.291   2.510  11.179  0.1060 -0.3627  0.4076
  131MOL0     N17601  10.125   2.025  11.102 -0.1674  0.5591 -0.0824
  131MOL0     N17602  10.221   1.945  11.062  0.4390 -0.6202 -0.3225
  131MOL0     C17603  10.409   0.901  11.003 -1.8678 -1.1068  0.1916
  131MOL0     C17604  10.467   0.792  11.073 -0.7530  0.3526 -0.1188
  131MOL0     C17605  10.659   0.566  11.440  0.0418 -0.9974  0.4512
  131MOL0     C17606  10.615   0.500  11.551  0.4748  1.1017  0.7710
  131MOL0     C17607  10.689   0.397  11.612 -0.2416  0.3275  0.0693
  131MOL0     C17608  10.797   0.330  11.545  0.3718  0.9429  0.1114
  131MOL0     O17609  10.854   0.211  11.594 -0.0201 -0.2948  0.5048
  131MOL0     C17610  10.848   0.188  11.739 -0.1397  0.4362  0.6995
  131MOL0     C17611  10.946   0.273  11.813 -0.4419 -0.4174  0.1517
  131MOL0     C17612  11.098   0.232  11.817 -0.6200  0.0843  0.4927
  131MOL0     C17613  11.185   0.355  11.778 -1.5724 -0.0846 -0.6515
  131MOL0     C17614  11.199   0.467  11.876 -0.7548  0.4974  0.1621
  131MOL0     C17615  11.215   0.561  11.950 -0.1895 -0.5543  0.3556
  131MOL0     C17616  10.833   0.390  11.427 -0.2025  1.4240 -0.2579
  131MOL0     C17617  10.779   0.509  11.378  0.9436 -1.6316  0.1513
  131MOL0     H17618  10.626   0.971  11.315  1.5623 -0.9455 -0.3442
  131MOL0     H17619  10.507   1.155  11.191 -1.9796  0.3234  0.0956
  131MOL0     H17620  10.458   1.092  10.811  1.5361  2.3423 -0.8975
  131MOL0     H17621  10.284   1.141  10.796 -1.2787  1.7024  1.2644
  131MOL0     H17622  10.514   1.313  10.862 -0.7533  3.1649  0.3572
  131MOL0     H17623  10.451   1.305  10.696  3.3006 -0.2219  0.4273
  131MOL0     H17624  10.363   1.490  10.767 -1.6368  1.6418  0.1734
  131MOL0     H17625  10.230   1.369  10.789  0.5111 -0.7584 -1.1187
  131MOL0     H17626  10.265   1.370  11.042 -0.7630 -0.7350 -0.3354
  131MOL0     H17627  10.406   1.456  11.009 -0.1442  0.6585 -0.2639
  131MOL0     H17628  10.267   1.659  10.938 -1.8407  1.8804  1.5311
  131MOL0     H17629  10.134   1.555  10.921  1.2098 -1.1254 -2.7913
  131MOL0     H17630  10.120   1.684  11.117  2.7745  2.6558  4.0040
  131MOL0     H17631  10.157   1.509  11.159  3.2752  0.1843  3.6891
  131MOL0     H17632  10.295   1.626  11.318  0.0136 -4.0728 -0.0650
  131MOL0     H17633  10.399   1.573  11.191 -0.6630 -0.0497 -2.6460
  131MOL0     H17634  10.417   1.768  11.084 -0.0545 -2.1373  0.2829
  131MOL0     H17635  10.449   1.816  11.250  0.1309 -1.0245  0.4660
  131MOL0     H17636  10.188   1.875  11.376 -0.0311  1.3053  0.7796
  131MOL0     H17637   9.916   2.106  11.262  0.2475 -2.3431 -0.2000
  131MOL0     H17638  10.002   2.058  11.408  0.9151 -2.5407 -2.1163
  131MOL0     H17639   9.988   2.324  11.347  1.1189  1.7572 -0.9392
  131MOL0     H17640  10.122   2.280  11.249 -0.0035  1.0939 -0.7743
  131MOL0     H17641  10.247   2.174  11.452  0.4334  1.0402 -3.7098
  131MOL0     H17642  10.104   2.229  11.550 -0.9574 -0.5183 -0.7569
  131MOL0     H17643  10.279   2.408  11.543  2.6246 -1.7558  0.1513
  131MOL0     H17644  10.177   2.457  11.399  0.6396  0.0426 -0.7955
  131MOL0     H17645  10.588   2.425  11.295  1.5769 -0.3420 -2.3972
  131MOL0     H17646  10.768   2.478  11.152 -0.0626  1.4008  0.7563
  131MOL0     H17647  10.726   2.535  10.993  0.9404 -2.4863 -0.5411
  131MOL0     H17648  10.773   2.649  11.128  1.3025 -2.4024  1.9121
  131MOL0     H17649  10.524   2.872  10.695  0.1743  0.5889 -2.3849
  131MOL0     H17650  10.647   3.025  10.555 -0.9753 -0.7106  0.5041
  131MOL0     H17651  10.926   3.292  10.727  0.7811 -1.2689  1.4865
  131MOL0     H17652  11.033   3.226  10.611  0.5536  0.4464  0.7200
  131MOL0     H17653  11.022   3.433  10.537 -0.9231  1.2995  0.9549
  131MOL0     H17654  10.930   3.345  10.417 -2.1147 -0.4313  0.0922
  131MOL0     H17655  10.807   3.492  10.665  0.0333  2.5780 -1.1087
  131MOL0     H17656  10.723   3.429  10.530 -1.5971  0.6525  2.3147
  131MOL0     H17657  10.905   3.677  10.570 -1.2289  2.6215  0.9147
  131MOL0     H17658  10.890   3.620  10.404  1.8270 -1.3326  0.8933
  131MOL0     H17659  10.686   3.715  10.598  0.9235 -2.0488  1.2598
  131MOL0     H17660  10.629   3.648  10.455 -1.5568  0.3224  3.1314
  131MOL0     H17661  10.840   3.860  10.461 -0.0671 -0.5666  0.2030
  131MOL0     H17662  10.757   3.812  10.318 -1.5553  4.6468 -2.0452
  131MOL0     H17663  10.542   3.916  10.394 -1.2189  2.4061 -0.6618
  131MOL0     H17664  10.662   4.045  10.388  0.9561 -0.8674 -1.9232
  131MOL0     H17665  10.708   3.988  10.637 -0.4601 -3.3440  0.5692
  131MOL0     H17666  10.565   3.878  10.622  2.0216 -1.7819  1.1226
  131MOL0     H17667  10.940   3.095  10.864 -1.2747  1.5606  1.4585
  131MOL0     H17668  10.842   2.886  10.978 -0.9572 -0.9166 -0.5046
  131MOL0     H17669  10.252   2.659  11.039  0.8981  1.4147 -0.4717
  131MOL0     H17670  10.183   2.509  11.184 -0.1710  2.0559 -2.5974
  131MOL0     H17671  10.359   0.883  10.908  1.6442 -2.1461 -1.6363
  131MOL0     H17672  10.459   0.686  11.052  1.0761 -0.0133  0.7729
  131MOL0     H17673  10.518   0.519  11.596 -0.1203 -1.5374  0.8017
  131MOL0     H17674  10.649   0.350  11.701  0.5258 -0.1719  0.1587
  131MOL0     H17675  10.747   0.204  11.776 -0.6728  3.0171 -1.5516
  131MOL0     H17676  10.876   0.083  11.747 -0.9713  0.3304  3.1258
  131MOL0     H17677  10.914   0.275  11.918  0.1148 -0.6535  0.3300
  131MOL0     H17678  10.927   0.377  11.787  4.1894  0.4308 -0.6590
  131MOL0     H17679  11.117   0.152  11.744  1.2885 -0.2957  1.3518
  131MOL0     H17680  11.133   0.191  11.912  0.7877  1.2455  0.4955
  131MOL0     H17681  11.135   0.395  11.690 -0.0107  0.2137 -1.4229
  131MOL0     H17682  11.284   0.315  11.754 -2.2078 -0.7788 -2.2387
  131MOL0     H17683  11.223   0.655  12.001 -0.2469 -0.3942  0.0711
  131MOL0     H17684  10.917   0.348  11.372  0.0375 -0.9879  1.7906
  131MOL0     H17685  10.820   0.542  11.283  1.4860  0.2434  0.9905
  132MOL0     O17686   3.035   4.368   9.342 -0.1657  0.5716  0.3378
  132MOL0     C17687   2.979   4.338   9.233  0.5723  0.1646 -0.7572
  132MOL0     O17688   3.035   4.273   9.124 -0.7023 -0.7635  0.2679
  132MOL0     C17689   3.171   4.247   9.134  0.5570 -0.4354  0.4147
  132MOL0     C17690   3.221   4.148   9.225 -0.1456 -0.4305 -1.1913
  132MOL0     C17691   3.360   4.136   9.221 -0.4773 -0.6480 -0.1818
  132MOL0     C17692   3.449   4.198   9.132 -1.5649 -0.2823 -0.3324
  132MOL0     O17693   3.575   4.149   9.139  0.3978  0.4296  0.3246
  132MOL0     C17694   3.680   4.226   9.097 -0.5525  0.7718  0.3310
  132MOL0     C17695   3.719   4.179   8.953 -0.1768 -0.7656 -0.7179
  132MOL0     C17696   3.869   4.220   8.910  0.2644  1.0561  0.0109
  132MOL0     C17697   3.920   4.143   8.791  0.2292 -0.1372  0.4105
  132MOL0     C17698   4.058   4.183   8.758 -0.2806 -0.5458 -0.4939
  132MOL0     C17699   4.130   4.087   8.655 -0.0004  0.7029  0.5820
  132MOL0     C17700   4.097   4.127   8.510 -0.0400  0.0552  0.4284
  132MOL0     C17701   4.162   4.262   8.465  0.0673  0.0544  0.7890
  132MOL0     N17702   4.140   4.284   8.328 -0.1383  0.2342 -1.2258
  132MOL0     C17703   4.015   4.325   8.281 -0.0625  1.3852 -0.4392
  132MOL0     C17704   4.038   4.344   8.153  0.9857  0.3314  0.2794
  132MOL0     C17705   3.937   4.393   8.048 -0.2495  0.2791  0.1868
  132MOL0     C17706   3.961   4.542   8.033 -0.3341 -0.9936  1.3246
  132MOL0     C17707   3.900   4.595   7.906 -0.6514 -0.0532  0.1161
  132MOL0     C17708   3.751   4.572   7.873 -0.0676  0.3290 -0.4757
  132MOL0     O17709   3.673   4.577   8.000 -0.3764  0.7342  0.4077
  132MOL0     C17710   3.544   4.533   7.984 -0.7026 -0.3466 -0.3935
  132MOL0     C17711   3.460   4.543   8.102  1.0397  0.6734  0.2673
  132MOL0     C17712   3.334   4.469   8.108 -0.1088  0.4760  0.5876
  132MOL0     C17713   3.254   4.473   8.235 -0.5842 -0.0368  0.6491
  132MOL0     C17714   3.284   4.390   7.988 -0.7795 -0.7810  0.8516
  132MOL0     C17715   3.172   4.300   7.983  0.0901  0.1800  0.4685
  132MOL0     O17716   3.145   4.247   7.857 -0.2138  0.0214 -0.0661
  132MOL0     C17717   3.062   4.132   7.834 -0.3744 -0.4738 -0.7249
  132MOL0     C17718   3.081   4.062   7.720  0.5231 -1.8393 -0.2273
  132MOL0     C17719   3.012   3.950   7.687  0.2101  0.3562 -1.8749
  132MOL0     C17720   2.926   3.898   7.776  0.0534 -0.3883 -0.3386
  132MOL0     O17721   2.875   3.771   7.743 -0.6218 -0.9203 -0.4460
  132MOL0     C17722   2.797   3.694   7.832  0.1489 -0.2007 -0.5654
  132MOL0     C17723   2.648   3.750   7.842  0.4317 -0.1268 -0.2469
  132MOL0     C17724   2.557   3.662   7.922 -0.4143 -0.3061 -0.9415
  132MOL0     C17725   2.419   3.711   7.937  0.6932  0.1587 -0.8946
  132MOL0     C17726   2.363   3.646   8.068 -0.3630 -0.3442  0.1571
  132MOL0     C17727   2.221   3.705   8.107 -0.2907 -0.3787 -0.0992
  132MOL0     C17728   2.216   3.709   8.269  0.2187  0.0226  0.3722
  132MOL0     C17729   2.094   3.780   8.317 -0.2153  0.1734 -0.3574
  132MOL0    Cl17730   2.120   3.957   8.277  0.0522 -0.2810  0.6050
  132MOL0     C17731   2.904   3.970   7.902 -0.1064 -0.0984  0.0576
  132MOL0     C17732   2.973   4.087   7.928 -0.1457  0.5565 -0.7267
  132MOL0     O17733   3.105   4.287   8.083  0.3863 -0.3031  0.1834
  132MOL0     C17734   3.362   4.412   7.870 -0.4392 -0.0879 -0.1948
  132MOL0     C17735   3.491   4.478   7.866 -0.9368  0.0952 -0.8209
  132MOL0     N17736   4.171   4.297   8.125 -0.3064  0.1127  0.5015
  132MOL0     N17737   4.233   4.260   8.239  0.8507  0.2594  0.7893
  132MOL0     C17738   3.399   4.294   9.044 -0.3460 -0.1638 -0.6454
  132MOL0     C17739   3.261   4.317   9.045 -0.7864 -0.2163 -0.0154
  132MOL0     C17740   2.843   4.379   9.224  0.1361 -0.4060  0.4945
  132MOL0     C17741   2.768   4.370   9.106  0.0206  0.6625  1.2311
  132MOL0     C17742   2.634   4.409   9.097  0.1839  0.3573  0.0973
  132MOL0     C17743   2.567   4.469   9.205 -0.6970 -0.1971 -0.1395
  132MOL0     O17744   2.440   4.522   9.196 -0.1452 -0.6489 -0.3989
  132MOL0     C17745   2.392   4.561   9.068  0.2691  0.3217 -0.3679
  132MOL0     C17746   2.276   4.657   9.081 -0.0524 -0.8892  0.3246
  132MOL0     C17747   2.226   4.698   8.939  0.3580 -0.6483 -0.1310
  132MOL0     C17748   2.255   4.850   8.902  0.1507  0.1924 -0.4801
  132MOL0     C17749   2.392   4.897   8.922  0.0169 -0.3174 -0.0301
  132MOL0     C17750   2.499   4.918   8.973 -0.3802 -0.3827  0.8969
  132MOL0     C17751   2.646   4.495   9.316 -0.2735 -0.1365 -1.0693
  132MOL0     C17752   2.776   4.441   9.328 -0.8677 -0.5043 -0.3453
  132MOL0     H17753   3.153   4.101   9.295 -2.2889 -0.9492 -3.4855
  132MOL0     H17754   3.413   4.072   9.290  0.8251 -0.3082 -0.8363
  132MOL0     H17755   3.674   4.335   9.101 -1.7045  1.0540 -3.9565
  132MOL0     H17756   3.755   4.193   9.169 -0.0718  1.1853  0.0270
  132MOL0     H17757   3.710   4.071   8.939  0.7657 -0.9324 -0.1623
  132MOL0     H17758   3.646   4.219   8.882  0.0961 -1.2548 -1.2857
  132MOL0     H17759   3.865   4.327   8.888 -4.4058  0.4313 -3.9712
  132MOL0     H17760   3.939   4.220   8.994  1.3342 -0.3122 -0.8247
  132MOL0     H17761   3.928   4.038   8.822  0.3854  0.0608  1.0494
  132MOL0     H17762   3.857   4.149   8.701  4.5053 -2.3616 -3.1403
  132MOL0     H17763   4.058   4.288   8.729  3.5943  0.3075  1.8153
  132MOL0     H17764   4.119   4.175   8.848 -0.4845  0.5759 -0.2460
  132MOL0     H17765   4.238   4.092   8.669 -0.0959 -0.1608  1.8457
  132MOL0     H17766   4.101   3.983   8.671 -3.8280  1.2598 -1.6022
  132MOL0     H17767   4.145   4.055   8.443  1.3858  2.9086 -1.8108
  132MOL0     H17768   3.990   4.126   8.485 -0.1284 -1.2625  0.7818
  132MOL0     H17769   4.269   4.256   8.487  1.1693 -0.6300 -3.7590
  132MOL0     H17770   4.136   4.356   8.515  0.5240 -0.1562  1.4304
  132MOL0     H17771   3.934   4.341   8.351  2.1303 -0.2603  2.7449
  132MOL0     H17772   3.957   4.346   7.950 -0.9347  1.3610 -0.4892
  132MOL0     H17773   3.836   4.364   8.077 -0.7395  2.0999  0.3641
  132MOL0     H17774   4.066   4.570   8.030 -1.0050  1.7501  0.9378
  132MOL0     H17775   3.929   4.592   8.125 -3.0467 -3.4088  1.8713
  132MOL0     H17776   3.963   4.558   7.825  1.3107  2.3211  0.4201
  132MOL0     H17777   3.915   4.703   7.895  2.8560 -0.3153  1.1435
  132MOL0     H17778   3.763   4.475   7.824 -1.1358  0.2936 -0.6786
  132MOL0     H17779   3.705   4.643   7.805  0.9521 -0.2596 -1.8248
  132MOL0     H17780   3.495   4.592   8.192 -0.3033 -0.4564  1.4537
  132MOL0     H17781   3.325   4.514   8.308  2.5403  1.5705 -2.9539
  132MOL0     H17782   3.164   4.533   8.221 -1.4484  0.9624  7.1347
  132MOL0     H17783   3.223   4.375   8.272  3.4927 -1.3793  1.0377
  132MOL0     H17784   3.146   4.111   7.648 -0.3707  0.3751  0.3932
  132MOL0     H17785   3.036   3.910   7.589  1.6214  0.0115 -1.4135
  132MOL0     H17786   2.795   3.595   7.785 -2.2072 -0.0491 -0.8901
  132MOL0     H17787   2.835   3.677   7.934 -4.3102  0.3062  1.3912
  132MOL0     H17788   2.646   3.849   7.887 -0.0991 -1.5941  3.2443
  132MOL0     H17789   2.618   3.751   7.737  0.7522  0.0878 -0.3391
  132MOL0     H17790   2.597   3.662   8.025 -2.3901  2.0586 -0.0743
  132MOL0     H17791   2.548   3.557   7.893 -0.9743 -1.4427  2.7887
  132MOL0     H17792   2.420   3.820   7.947 -1.1634  0.2663 -1.4173
  132MOL0     H17793   2.349   3.695   7.855 -0.5425  1.2499 -0.1029
  132MOL0     H17794   2.438   3.659   8.146  0.2553  0.7499 -0.5861
  132MOL0     H17795   2.359   3.538   8.050  0.7404 -0.4877  0.6885
  132MOL0     H17796   2.190   3.802   8.066 -1.2184 -0.0480  1.2905
  132MOL0     H17797   2.150   3.638   8.058  1.6306 -0.4978 -2.9290
  132MOL0     H17798   2.304   3.760   8.310  0.7599 -0.3743 -0.2665
  132MOL0     H17799   2.217   3.607   8.309  2.7077 -0.2726 -0.2768
  132MOL0     H17800   2.077   3.775   8.425 -0.9359  1.3165 -0.3977
  132MOL0     H17801   2.013   3.733   8.260 -2.6721 -1.1645  3.7918
  132MOL0     H17802   2.854   3.926   7.988  1.4934 -0.7027  0.7274
  132MOL0     H17803   2.951   4.124   8.028  1.6863 -1.4942  0.5330
  132MOL0     H17804   3.351   4.366   7.773  4.8225  1.3363 -1.8330
  132MOL0     H17805   3.546   4.458   7.775 -0.3351  0.4026 -0.5334
  132MOL0     H17806   3.466   4.332   8.968 -0.2864  1.5080  0.2074
  132MOL0     H17807   3.214   4.374   8.965 -0.2558  0.7983  0.3779
  132MOL0     H17808   2.818   4.331   9.017  1.9278  0.6198  2.2641
  132MOL0     H17809   2.582   4.360   9.016 -1.4531 -2.1353  2.4733
  132MOL0     H17810   2.481   4.602   9.019  0.1148  0.4780 -0.5238
  132MOL0     H17811   2.371   4.469   9.013  3.6168 -0.0577 -1.2358
  132MOL0     H17812   2.307   4.740   9.145 -1.6630 -0.3137  0.4088
  132MOL0     H17813   2.193   4.611   9.135 -1.9848  0.1305 -1.6298
  132MOL0     H17814   2.117   4.691   8.939  0.1499  1.8693  0.3619
  132MOL0     H17815   2.266   4.632   8.861 -1.3419  0.6114 -2.1578
  132MOL0     H17816   2.198   4.912   8.972  0.3320  1.2378 -1.2479
  132MOL0     H17817   2.227   4.885   8.802  0.1422  3.1164  0.4678
  132MOL0     H17818   2.595   4.916   9.021  0.8319 -0.2038 -1.3889
  132MOL0     H17819   2.610   4.528   9.413 -0.4677 -3.4529  0.1106
  132MOL0     H17820   2.828   4.453   9.423 -4.6511  1.0296  1.7372
  133MOL0     O17821   8.855   2.927   8.459 -0.4788  0.1977 -0.0234
  133MOL0     C17822   8.928   2.827   8.493 -0.0144 -0.5087  0.3280
  133MOL0     O17823   8.964   2.725   8.410 -0.9655  0.2076  0.2815
  133MOL0     C17824   8.933   2.743   8.272 -0.3582 -0.4497 -1.4503
  133MOL0     C17825   8.983   2.848   8.201 -0.8633  1.1896 -0.2535
  133MOL0     C17826   8.956   2.866   8.066 -0.9002 -0.3076  0.3465
  133MOL0     C17827   8.867   2.783   7.998  0.0902 -0.5163 -0.3233
  133MOL0     O17828   8.831   2.823   7.871  0.8478 -0.3493  0.3411
  133MOL0     C17829   8.711   2.764   7.818 -0.8067  0.2006  0.2522
  133MOL0     C17830   8.681   2.840   7.684  0.0020  0.0018  0.5152
  133MOL0     C17831   8.553   2.794   7.616 -0.7739  1.2255  0.3078
  133MOL0     C17832   8.547   2.827   7.469  0.0096  0.3778 -0.4238
  133MOL0     C17833   8.404   2.808   7.417 -0.7601 -1.1843 -0.0493
  133MOL0     C17834   8.407   2.840   7.271 -0.6709  0.7780 -0.4857
  133MOL0     C17835   8.268   2.816   7.212  0.2360 -0.3223 -0.4421
  133MOL0     C17836   8.263   2.780   7.066  0.4542 -0.5540 -0.1410
  133MOL0     N17837   8.127   2.757   7.015 -0.3761  0.4617 -0.4182
  133MOL0     C17838   8.014   2.836   7.032 -0.3423  0.1443 -0.0740
  133MOL0     C17839   7.916   2.770   6.966 -0.7168  0.8465 -0.0582
  133MOL0     C17840   7.781   2.829   6.960  0.8466  0.5993  0.2177
  133MOL0     C17841   7.773   2.958   6.890 -0.1245  0.2219  0.0686
  133MOL0     C17842   7.638   3.012   6.920 -0.7455 -0.0823 -0.9217
  133MOL0     C17843   7.607   3.130   6.847  0.4178  0.4093  0.4156
  133MOL0     O17844   7.587   3.104   6.707 -0.9334  0.3993 -0.7594
  133MOL0     C17845   7.598   3.196   6.607 -0.4977  0.2318 -1.3784
  133MOL0     C17846   7.626   3.334   6.626 -0.3599 -0.1308  0.1170
  133MOL0     C17847   7.634   3.421   6.514  0.3375 -0.0673  0.2952
  133MOL0     C17848   7.677   3.557   6.549 -0.3141 -0.6876  0.4778
  133MOL0     C17849   7.614   3.369   6.384  1.1391  0.2576  0.1223
  133MOL0     C17850   7.614   3.445   6.259  0.0393 -0.3222  0.5190
  133MOL0     O17851   7.674   3.398   6.147  0.2818  0.3385 -0.6619
  133MOL0     C17852   7.637   3.455   6.026 -0.2115  0.2269 -0.5565
  133MOL0     C17853   7.718   3.553   5.974 -0.5223  0.6021  0.2380
  133MOL0     C17854   7.680   3.619   5.857 -0.4392 -0.0305 -0.4163
  133MOL0     C17855   7.565   3.590   5.785  0.3409 -0.2426  0.5681
  133MOL0     O17856   7.538   3.663   5.678  0.3841  0.2712 -0.5430
  133MOL0     C17857   7.489   3.612   5.559 -0.0293  0.0995  0.0416
  133MOL0     C17858   7.472   3.746   5.475  0.2951  0.4822  0.2177
  133MOL0     C17859   7.353   3.829   5.524 -0.9435 -0.2984  0.2638
  133MOL0     C17860   7.228   3.822   5.438 -0.7287  0.1920  0.0740
  133MOL0     C17861   7.136   3.951   5.464  0.3835  0.3893 -0.4307
  133MOL0     C17862   7.113   3.978   5.614 -0.0893  0.1302  0.1826
  133MOL0     C17863   7.022   4.098   5.632  0.5816 -0.6410 -0.3416
  133MOL0     C17864   6.883   4.052   5.688 -0.4890  0.4130  0.2866
  133MOL0    Cl17865   6.766   4.177   5.654 -0.6643 -0.1299 -0.1306
  133MOL0     C17866   7.482   3.490   5.834 -0.0628  0.2177  0.2286
  133MOL0     C17867   7.519   3.416   5.950 -0.3784 -0.0351 -0.0824
  133MOL0     O17868   7.564   3.561   6.273 -0.1719  0.7654 -0.2867
  133MOL0     C17869   7.586   3.236   6.370 -0.0525  1.0629 -0.5677
  133MOL0     C17870   7.585   3.141   6.482  1.2317 -0.4287  0.6545
  133MOL0     N17871   7.961   2.650   6.922  0.1343  0.8174  0.6033
  133MOL0     N17872   8.083   2.642   6.955 -1.2513  1.1928  0.9490
  133MOL0     C17873   8.830   2.669   8.063  0.4653  0.4742 -0.4510
  133MOL0     C17874   8.862   2.644   8.201  0.5704  0.6458 -0.8531
  133MOL0     C17875   8.988   2.825   8.635 -0.3562  0.3511 -0.4772
  133MOL0     C17876   8.941   2.917   8.729  0.2674 -0.4495 -0.9171
  133MOL0     C17877   9.012   2.923   8.851  0.4195 -0.0446  0.2377
  133MOL0     C17878   9.127   2.844   8.875 -0.4556  0.3922  0.1880
  133MOL0     O17879   9.189   2.860   8.994 -0.0796  0.2812 -0.2079
  133MOL0     C17880   9.301   2.772   9.028 -0.0597  0.2266 -0.3862
  133MOL0     C17881   9.241   2.639   9.088  0.2185 -0.0743 -0.1795
  133MOL0     C17882   9.356   2.554   9.138 -0.5105  0.0613 -0.8148
  133MOL0     C17883   9.311   2.427   9.190 -0.0939  0.3373 -0.1679
  133MOL0     C17884   9.408   2.375   9.279 -0.2846  0.3353  0.7330
  133MOL0     C17885   9.496   2.320   9.345  0.2311  0.1782 -0.6022
  133MOL0     C17886   9.164   2.748   8.777  0.5933 -0.0685 -0.1496
  133MOL0     C17887   9.095   2.740   8.656  0.1846  0.3673  0.4497
  133MOL0     H17888   9.056   2.919   8.239  1.3237 -1.1375  0.1862
  133MOL0     H17889   8.993   2.957   8.019  0.7503 -1.3405 -0.4748
  133MOL0     H17890   8.733   2.659   7.797 -1.1093  0.1109  0.3766
  133MOL0     H17891   8.626   2.769   7.887 -2.6701 -1.3405 -1.8044
  133MOL0     H17892   8.669   2.942   7.720 -1.3827  0.1049 -0.1851
  133MOL0     H17893   8.768   2.825   7.620  0.6736  1.8473  0.9413
  133MOL0     H17894   8.550   2.685   7.626  1.1178  1.2465  1.4881
  133MOL0     H17895   8.469   2.840   7.669 -3.0395 -2.1380  0.0174
  133MOL0     H17896   8.581   2.930   7.455 -3.4503  1.5377 -1.3420
  133MOL0     H17897   8.622   2.770   7.414 -1.1073  0.3576 -1.9775
  133MOL0     H17898   8.371   2.706   7.434 -2.6114 -0.6300 -0.1006
  133MOL0     H17899   8.336   2.875   7.471 -0.8891  1.9338 -3.6909
  133MOL0     H17900   8.440   2.942   7.250  0.4059  0.6561  0.5170
  133MOL0     H17901   8.478   2.776   7.218  0.1888  3.1557 -2.3925
  133MOL0     H17902   8.223   2.746   7.283 -0.2576  1.5327  1.1323
  133MOL0     H17903   8.217   2.910   7.235  1.5877  0.1329  0.8947
  133MOL0     H17904   8.331   2.694   7.058 -0.9252 -1.8115  1.0993
  133MOL0     H17905   8.306   2.866   7.014  0.6512 -2.2852 -3.0709
  133MOL0     H17906   8.002   2.932   7.081  0.2114 -0.4803  1.3389
  133MOL0     H17907   7.726   2.758   6.897  0.2046  2.1307 -1.0218
  133MOL0     H17908   7.740   2.828   7.062 -1.3541 -0.9932 -0.6092
  133MOL0     H17909   7.796   2.935   6.785  2.5916  1.3861  0.3195
  133MOL0     H17910   7.848   3.021   6.939 -3.0938  3.6152  0.6538
  133MOL0     H17911   7.645   3.043   7.025  2.5281 -1.8649 -0.4736
  133MOL0     H17912   7.573   2.925   6.905  0.4200 -1.1080 -0.2086
  133MOL0     H17913   7.685   3.204   6.868  1.0418  0.4296 -1.7123
  133MOL0     H17914   7.511   3.161   6.889 -0.7138 -3.6116  1.2188
  133MOL0     H17915   7.627   3.384   6.723  1.5623  1.0063 -0.4313
  133MOL0     H17916   7.585   3.616   6.543 -0.1849 -0.4750  0.5672
  133MOL0     H17917   7.715   3.560   6.651 -0.3784 -0.3304  0.4913
  133MOL0     H17918   7.752   3.597   6.480 -1.2934 -0.5023 -0.5027
  133MOL0     H17919   7.807   3.587   6.026  2.0948  0.4870 -3.7453
  133MOL0     H17920   7.742   3.705   5.831  1.5965 -0.6606  1.9335
  133MOL0     H17921   7.572   3.557   5.512  3.6922  2.5307  3.1891
  133MOL0     H17922   7.392   3.561   5.559 -0.7252  1.3634 -0.8951
  133MOL0     H17923   7.563   3.803   5.497  0.8158 -1.3518  3.4519
  133MOL0     H17924   7.468   3.723   5.368  4.2829 -0.5355  0.0961
  133MOL0     H17925   7.391   3.931   5.527  3.3775 -1.6381 -1.5867
  133MOL0     H17926   7.327   3.802   5.627 -1.2537  2.2194  0.9041
  133MOL0     H17927   7.257   3.806   5.334 -0.3636 -0.9662  0.3445
  133MOL0     H17928   7.172   3.736   5.478  0.1419 -0.5342 -0.2336
  133MOL0     H17929   7.036   3.929   5.424 -0.1559 -1.1935  1.5980
  133MOL0     H17930   7.182   4.035   5.413  2.3529 -1.1307 -1.2882
  133MOL0     H17931   7.075   3.885   5.657  0.9192 -1.2939 -1.8486
  133MOL0     H17932   7.216   3.988   5.651  1.6574 -1.7434 -3.5616
  133MOL0     H17933   6.994   4.136   5.533 -2.6002  0.9677  1.0409
  133MOL0     H17934   7.068   4.174   5.696 -0.1027  0.9031 -1.6086
  133MOL0     H17935   6.887   4.033   5.796 -2.1518 -0.7085  0.2018
  133MOL0     H17936   6.838   3.963   5.642 -0.2482  0.7121 -0.5469
  133MOL0     H17937   7.390   3.446   5.797 -1.2613  3.0653 -0.4288
  133MOL0     H17938   7.463   3.329   5.985  1.3150 -1.5681 -0.9821
  133MOL0     H17939   7.559   3.183   6.279 -0.9393  2.4867 -1.1630
  133MOL0     H17940   7.575   3.034   6.469  0.8424 -0.8785  3.8337
  133MOL0     H17941   8.774   2.598   8.003  1.0016  2.2618 -3.2623
  133MOL0     H17942   8.829   2.547   8.238 -2.2289  0.9832 -2.2133
  133MOL0     H17943   8.857   2.985   8.716  0.8048  0.5247  0.4597
  133MOL0     H17944   8.985   2.999   8.924 -0.1866 -0.5936  0.6065
  133MOL0     H17945   9.367   2.756   8.942 -0.0709  0.2946 -0.4061
  133MOL0     H17946   9.350   2.813   9.116  0.7273 -0.1344 -0.6405
  133MOL0     H17947   9.191   2.595   9.001  3.1431 -1.3424 -1.3618
  133MOL0     H17948   9.163   2.651   9.164 -0.1663 -2.9064  0.0107
  133MOL0     H17949   9.393   2.607   9.227  1.0154 -3.4387  0.8395
  133MOL0     H17950   9.430   2.546   9.058  0.3353  1.8351 -0.2708
  133MOL0     H17951   9.284   2.355   9.113 -1.0145 -2.4663  2.5553
  133MOL0     H17952   9.232   2.470   9.253  0.3844 -0.7067  1.2042
  133MOL0     H17953   9.557   2.267   9.415  1.0508 -0.0823 -1.4870
  133MOL0     H17954   9.252   2.686   8.788 -1.4229 -2.8230  2.1565
  133MOL0     H17955   9.137   2.678   8.577 -2.5284 -0.9535 -0.0625
  134MOL0     O17956   1.129   9.987   7.493 -0.6226 -0.0577 -0.8625
  134MOL0     C17957   1.063  10.090   7.472  0.3715 -0.5900 -0.1636
  134MOL0     O17958   1.087  10.220   7.520 -0.2437  0.1058  0.3606
  134MOL0     C17959   1.148  10.244   7.636 -0.1302  0.4337 -0.9121
  134MOL0     C17960   1.273  10.186   7.672  0.7222 -0.1015  0.4614
  134MOL0     C17961   1.326  10.209   7.800 -0.4179 -0.0382  0.6078
  134MOL0     C17962   1.261  10.282   7.903 -0.3999 -0.2939  1.3596
  134MOL0     O17963   1.331  10.311   8.018  1.0901  0.2613 -0.2829
  134MOL0     C17964   1.256  10.255   8.134  0.5085  0.6432 -0.4353
  134MOL0     C17965   1.322  10.312   8.254 -0.8347 -0.4155  0.7201
  134MOL0     C17966   1.315  10.236   8.389 -0.3229  0.5712 -0.1091
  134MOL0     C17967   1.173  10.243   8.456  0.3244  0.4672 -0.4510
  134MOL0     C17968   1.150  10.361   8.551  0.9978  0.0750 -0.2918
  134MOL0     C17969   1.033  10.325   8.654  0.1035 -0.9818  1.1501
  134MOL0     C17970   0.900  10.290   8.579  0.2731 -0.3976 -0.1715
  134MOL0     C17971   0.787  10.368   8.648  0.5217 -0.5316  0.6199
  134MOL0     N17972   0.663  10.300   8.635  0.9869 -1.1384 -0.0188
  134MOL0     C17973   0.609  10.184   8.695  0.3445  0.0096  0.2391
  134MOL0     C17974   0.477  10.187   8.661 -0.0454  0.3196 -1.2866
  134MOL0     C17975   0.370  10.089   8.694  0.4804 -0.3977  0.5159
  134MOL0     C17976   0.405   9.963   8.764  0.0675 -0.3250 -0.2694
  134MOL0     C17977   0.450  10.000   8.905 -0.5639 -0.1987 -0.9362
  134MOL0     C17978   0.430   9.878   8.996 -0.8941 -0.4363 -0.0309
  134MOL0     O17979   0.442   9.908   9.134  0.1685  0.0839  0.6220
  134MOL0     C17980   0.414   9.804   9.223 -0.0159  0.5367 -0.0741
  134MOL0     C17981   0.495   9.685   9.245  0.5954 -0.8161  0.7559
  134MOL0     C17982   0.453   9.585   9.332  0.2011  1.1991 -0.5574
  134MOL0     C17983   0.550   9.470   9.332 -0.2208  0.1826 -0.1929
  134MOL0     C17984   0.331   9.591   9.406 -0.3982 -0.0645  1.2220
  134MOL0     C17985   0.267   9.486   9.489  0.3035 -0.6110 -0.6738
  134MOL0     O17986   0.131   9.486   9.492  0.2259  0.2978  0.3253
  134MOL0     C17987   0.073   9.425   9.600  0.5818  0.2218  0.5018
  134MOL0     C17988   0.000   9.312   9.586 -0.1206  0.4624  0.1404
  134MOL0     C17989  -0.057   9.249   9.700  0.1258 -0.0499 -0.0444
  134MOL0     C17990  -0.065   9.310   9.824 -0.7687 -0.7265 -0.1743
  134MOL0     O17991  -0.109   9.259   9.945 -0.3036  0.1461  0.4733
  134MOL0     C17992  -0.113   9.114   9.960  0.4637 -0.4475  0.1179
  134MOL0     C17993  -0.176   9.083  10.100 -0.0761 -0.7977 -0.0782
  134MOL0     C17994  -0.231   8.934  10.115 -0.1624 -0.3837 -0.4073
  134MOL0     C17995  -0.372   8.936  10.172 -0.1042 -0.1223  0.2145
  134MOL0     C17996  -0.435   8.797  10.156 -0.2076 -0.2617  0.3779
  134MOL0     C17997  -0.559   8.788  10.237 -0.6812 -0.5736 -0.0892
  134MOL0     C17998  -0.620   8.646  10.258 -0.0454 -0.7788  0.0980
  134MOL0     C17999  -0.652   8.573  10.121  0.8107 -0.6101  0.4543
  134MOL0    Cl18000  -0.781   8.451  10.163  0.3826  0.2798  0.3208
  134MOL0     C18001  -0.007   9.441   9.837 -0.7858  0.4062  0.7649
  134MOL0     C18002   0.064   9.495   9.728 -0.6743 -0.6698  0.3555
  134MOL0     O18003   0.340   9.424   9.561 -0.4843  0.3267 -0.0834
  134MOL0     C18004   0.252   9.716   9.378 -0.2879  0.7784  0.4008
  134MOL0     C18005   0.297   9.805   9.290  1.1809 -0.3080 -0.4522
  134MOL0     N18006   0.449  10.312   8.614 -0.2931 -0.4831  0.1868
  134MOL0     N18007   0.556  10.373   8.597  0.4722 -0.2613  0.9236
  134MOL0     C18008   1.141  10.326   7.864 -0.0018 -1.0204 -0.5039
  134MOL0     C18009   1.085  10.314   7.736 -0.3653  1.3045  0.0166
  134MOL0     C18010   0.957  10.084   7.369  0.5817 -0.8243 -1.1831
  134MOL0     C18011   0.929   9.954   7.320 -0.7055  0.4357 -0.0854
  134MOL0     C18012   0.818   9.929   7.237  0.0509 -0.4195  0.8454
  134MOL0     C18013   0.729  10.030   7.210  0.9107  0.2704  1.2583
  134MOL0     O18014   0.606  10.021   7.143 -0.7539 -0.4537  0.3142
  134MOL0     C18015   0.587   9.905   7.065  0.9945 -0.1898  0.0109
  134MOL0     C18016   0.463   9.907   6.981  0.8995 -0.3543  0.5586
  134MOL0     C18017   0.449  10.009   6.865  0.0901 -0.4602 -0.3154
  134MOL0     C18018   0.450  10.154   6.916 -0.1366 -0.2704  0.7024
  134MOL0     C18019   0.578  10.217   6.911 -0.4367 -0.4903  0.5416
  134MOL0     C18020   0.689  10.277   6.902  0.8971  0.2861  0.9497
  134MOL0     C18021   0.747  10.158   7.266 -0.3920  1.0102 -0.5140
  134MOL0     C18022   0.859  10.178   7.341 -0.3758 -0.6375 -0.0685
  134MOL0     H18023   1.325  10.116   7.608  1.6767  1.9476 -1.1143
  134MOL0     H18024   1.419  10.162   7.830 -0.2407  1.2545  2.2462
  134MOL0     H18025   1.148  10.272   8.128  0.7409  1.8562 -4.2274
  134MOL0     H18026   1.259  10.145   8.137  0.7339  0.6643  1.6446
  134MOL0     H18027   1.429  10.325   8.238 -0.7844 -0.2568  1.1677
  134MOL0     H18028   1.282  10.412   8.271 -1.3870 -0.8874  2.4636
  134MOL0     H18029   1.333  10.129   8.372  3.4598  0.6555  2.0918
  134MOL0     H18030   1.393  10.269   8.459  0.5081 -1.8684  0.2074
  134MOL0     H18031   1.097  10.245   8.378 -0.7122  2.2082  0.5230
  134MOL0     H18032   1.162  10.158   8.524  0.6299  0.6969 -0.1027
  134MOL0     H18033   1.238  10.391   8.608  2.2159 -0.2993 -1.9115
  134MOL0     H18034   1.108  10.444   8.494 -2.9983 -0.6039  1.3036
  134MOL0     H18035   1.058  10.242   8.722  0.1220  0.3315  2.8111
  134MOL0     H18036   1.013  10.412   8.718 -0.9063  1.4404 -2.2247
  134MOL0     H18037   0.913  10.308   8.472 -4.2549  1.5641 -0.5946
  134MOL0     H18038   0.887  10.182   8.590 -0.5249 -0.0685  3.5098
  134MOL0     H18039   0.775  10.467   8.605 -4.3207 -0.4659  1.6102
  134MOL0     H18040   0.808  10.386   8.754 -1.7028  0.4423  0.9483
  134MOL0     H18041   0.668  10.103   8.735 -1.4381 -0.4281  2.1634
  134MOL0     H18042   0.297  10.153   8.745 -1.2970 -0.3207 -1.9150
  134MOL0     H18043   0.313  10.068   8.603 -0.4073  0.8612  0.7523
  134MOL0     H18044   0.486   9.904   8.719 -0.1599  1.3034 -3.0730
  134MOL0     H18045   0.312   9.907   8.769  0.6293 -1.2442  0.2654
  134MOL0     H18046   0.376  10.072   8.939 -0.7674  0.7781 -3.2436
  134MOL0     H18047   0.554  10.032   8.905 -1.7126  4.0979 -2.2168
  134MOL0     H18048   0.495   9.798   8.959 -0.1766  1.1610 -2.5234
  134MOL0     H18049   0.335   9.834   8.965 -1.5966  0.2790  1.0569
  134MOL0     H18050   0.592   9.677   9.197  1.6744  2.5577  2.1107
  134MOL0     H18051   0.573   9.432   9.232  0.3987  0.1945 -0.0583
  134MOL0     H18052   0.637   9.517   9.379 -0.5250  2.1666 -1.4886
  134MOL0     H18053   0.523   9.391   9.403 -0.0991  0.2934 -0.0228
  134MOL0     H18054   0.001   9.261   9.490 -2.5810  0.2345  0.1747
  134MOL0     H18055  -0.104   9.151   9.694 -4.0181  1.4761  2.9788
  134MOL0     H18056  -0.171   9.086   9.871 -0.4088  2.5719 -0.3650
  134MOL0     H18057  -0.016   9.064   9.953  0.1172 -0.9298 -2.2234
  134MOL0     H18058  -0.101   9.088  10.180  0.3988 -0.4580 -0.5419
  134MOL0     H18059  -0.254   9.160  10.105 -0.1353 -0.7503 -1.3901
  134MOL0     H18060  -0.168   8.876  10.183  1.4142  1.7053  0.0183
  134MOL0     H18061  -0.224   8.894  10.014  0.7346 -0.1115 -0.4610
  134MOL0     H18062  -0.367   8.954  10.280 -1.5209 -3.8872  1.0674
  134MOL0     H18063  -0.429   9.014  10.122  2.8716  0.6590 -2.2917
  134MOL0     H18064  -0.367   8.719  10.193 -0.9034 -1.2584 -0.4065
  134MOL0     H18065  -0.461   8.779  10.052 -2.1748  1.1701  0.5612
  134MOL0     H18066  -0.548   8.832  10.337 -1.0130 -0.9938  0.1355
  134MOL0     H18067  -0.634   8.837  10.174 -0.8667 -1.0038 -0.2037
  134MOL0     H18068  -0.713   8.663  10.313  0.8756  3.1571  0.7073
  134MOL0     H18069  -0.557   8.585  10.322 -0.2052  0.0878  1.1016
  134MOL0     H18070  -0.566   8.517  10.084  0.5792 -0.6486 -0.0386
  134MOL0     H18071  -0.701   8.641  10.050  2.2239 -0.6801 -0.6379
  134MOL0     H18072   0.011   9.497   9.929  2.0214  0.8969  0.0230
  134MOL0     H18073   0.115   9.585   9.760 -0.7990 -1.3593  2.6922
  134MOL0     H18074   0.162   9.739   9.433  1.3569  0.2130  3.5552
  134MOL0     H18075   0.232   9.886   9.258 -1.6499 -1.7887  1.1734
  134MOL0     H18076   1.074  10.377   7.933 -0.4330 -1.5477 -0.5320
  134MOL0     H18077   0.990  10.365   7.727 -1.2638 -0.0965  1.1288
  134MOL0     H18078   0.994   9.868   7.330 -1.1809  0.1195  0.3166
  134MOL0     H18079   0.812   9.831   7.191  2.9541  0.6498 -2.2077
  134MOL0     H18080   0.670   9.876   7.000  1.2373 -1.0866  0.6918
  134MOL0     H18081   0.564   9.825   7.136 -0.3481 -0.4714 -0.6955
  134MOL0     H18082   0.381   9.918   7.052 -1.6374 -1.8557 -1.9732
  134MOL0     H18083   0.449   9.812   6.928  1.3369  0.5906 -1.3179
  134MOL0     H18084   0.352   9.995   6.817 -1.0028  2.4253  0.8497
  134MOL0     H18085   0.522  10.001   6.785 -0.3375 -3.0204 -0.5536
  134MOL0     H18086   0.413  10.178   7.017 -2.4817 -0.7146 -0.0119
  134MOL0     H18087   0.382  10.201   6.845 -1.0992 -0.9454  1.1573
  134MOL0     H18088   0.784  10.324   6.884  0.8625 -0.6154 -2.2887
  134MOL0     H18089   0.674  10.235   7.244  0.7667  2.5751  0.8273
  134MOL0     H18090   0.881  10.282   7.360 -0.0864  0.0330 -3.4494
  135MOL0     O18091   6.945   4.177   3.817  0.0437  0.3480  0.1382
  135MOL0     C18092   7.022   4.085   3.803 -0.2729  0.0433 -0.1164
  135MOL0     O18093   7.017   3.962   3.861 -0.1740 -0.5095  0.0437
  135MOL0     C18094   6.912   3.899   3.917  0.4026  1.2418  1.2835
  135MOL0     C18095   6.920   3.758   3.924 -0.5929 -0.3765  0.8730
  135MOL0     C18096   6.815   3.678   3.963 -0.1929 -1.2254 -0.6526
  135MOL0     C18097   6.701   3.733   4.007 -0.5016  0.3534  0.4885
  135MOL0     O18098   6.611   3.637   4.047 -0.5686 -0.2030 -0.1662
  135MOL0     C18099   6.499   3.690   4.117  0.5095  0.8905 -0.5607
  135MOL0     C18100   6.391   3.577   4.132 -0.5035 -0.8269 -0.5720
  135MOL0     C18101   6.320   3.603   4.265 -0.2663 -0.3730  0.2761
  135MOL0     C18102   6.183   3.673   4.230  0.6629  0.8668 -0.6574
  135MOL0     C18103   6.116   3.718   4.367 -0.1623 -0.9616  1.1042
  135MOL0     C18104   6.033   3.840   4.360 -0.0779 -0.3858 -0.2767
  135MOL0     C18105   5.995   3.892   4.503 -0.1101  0.0878 -0.0756
  135MOL0     C18106   5.979   4.043   4.495  0.7870  1.0090  0.2132
  135MOL0     N18107   6.093   4.121   4.466 -0.5468 -0.6128 -0.1197
  135MOL0     C18108   6.186   4.171   4.559  1.0626  1.2502 -0.2214
  135MOL0     C18109   6.260   4.260   4.500  0.0892 -0.3233 -0.2391
  135MOL0     C18110   6.371   4.330   4.579 -0.5278 -0.5520  0.8500
  135MOL0     C18111   6.444   4.444   4.497  0.8847 -0.8056 -0.8596
  135MOL0     C18112   6.530   4.532   4.602 -0.4450  0.1806 -0.5384
  135MOL0     C18113   6.668   4.468   4.639  0.7448 -0.9429  0.2889
  135MOL0     O18114   6.734   4.567   4.717 -0.4716  0.0469 -0.0390
  135MOL0     C18115   6.846   4.532   4.794  0.5760 -0.0701  0.2017
  135MOL0     C18116   6.918   4.417   4.775  0.1282 -0.2939 -1.0351
  135MOL0     C18117   7.024   4.388   4.858  0.4181  0.0198 -0.2058
  135MOL0     C18118   7.096   4.253   4.817  1.0122 -0.3470 -0.2186
  135MOL0     C18119   7.071   4.481   4.962  0.2758  0.3381  1.0474
  135MOL0     C18120   7.180   4.448   5.062 -0.0368 -0.2167  0.2837
  135MOL0     O18121   7.201   4.532   5.164  0.5528 -0.4941  0.0663
  135MOL0     C18122   7.271   4.481   5.270  0.0498  0.5770 -0.2974
  135MOL0     C18123   7.410   4.486   5.282 -0.0538  0.0109  0.4694
  135MOL0     C18124   7.468   4.450   5.404  0.1053 -0.1908 -1.0824
  135MOL0     C18125   7.388   4.384   5.503  0.5463 -0.0091  0.4824
  135MOL0     O18126   7.439   4.320   5.610  0.6415  0.2686  0.2718
  135MOL0     C18127   7.582   4.293   5.609  0.8642  0.6439 -0.5768
  135MOL0     C18128   7.622   4.199   5.733  0.2467 -0.1769  0.6671
  135MOL0     C18129   7.565   4.066   5.701  0.2928 -0.5718  0.1931
  135MOL0     C18130   7.584   3.979   5.831 -0.1878  0.4657 -0.1875
  135MOL0     C18131   7.444   3.956   5.903 -0.4755 -0.4994 -0.5951
  135MOL0     C18132   7.447   3.874   6.026  0.0616  1.2743 -0.0327
  135MOL0     C18133   7.334   3.910   6.120  0.2897 -0.2017  1.0547
  135MOL0     C18134   7.323   3.805   6.232 -0.7146  0.3524  0.0507
  135MOL0    Cl18135   7.173   3.840   6.314  0.0317 -0.0550 -0.2539
  135MOL0     C18136   7.245   4.375   5.486 -0.2874  0.3004 -0.5338
  135MOL0     C18137   7.189   4.429   5.372 -0.4355  0.1489  0.2163
  135MOL0     O18138   7.247   4.346   5.038  0.2457  0.3803 -0.0158
  135MOL0     C18139   6.996   4.600   4.970  0.3395  0.1191 -0.9201
  135MOL0     C18140   6.886   4.627   4.886 -0.1987 -0.5827 -0.2373
  135MOL0     N18141   6.223   4.265   4.361 -0.0195  0.6949  0.2376
  135MOL0     N18142   6.123   4.187   4.351  0.5375  0.6471 -0.3861
  135MOL0     C18143   6.692   3.877   4.018  0.3195 -0.0127  0.1641
  135MOL0     C18144   6.796   3.959   3.975  0.4818  0.9654  0.8737
  135MOL0     C18145   7.152   4.119   3.731 -0.2276  0.2022 -0.0782
  135MOL0     C18146   7.163   4.245   3.675 -0.5918  0.1600 -0.0675
  135MOL0     C18147   7.279   4.292   3.601  0.9217 -0.7966 -0.4698
  135MOL0     C18148   7.385   4.206   3.597  0.4005  0.1452 -0.8247
  135MOL0     O18149   7.507   4.234   3.537  1.2538 -0.5204  0.2155
  135MOL0     C18150   7.547   4.368   3.501 -0.3572  0.6670 -0.9594
  135MOL0     C18151   7.467   4.419   3.377  0.7541 -0.2253 -0.2290
  135MOL0     C18152   7.455   4.568   3.384 -0.3652 -0.0994  0.1354
  135MOL0     C18153   7.364   4.616   3.270  0.0552 -0.0657  0.0503
  135MOL0     C18154   7.364   4.767   3.264 -0.9292 -0.0798 -1.0286
  135MOL0     C18155   7.371   4.880   3.220  0.3308  0.0661  0.4988
  135MOL0     C18156   7.380   4.085   3.664  0.2406  0.3683 -0.3460
  135MOL0     C18157   7.259   4.039   3.724  0.7917  0.5124  0.1431
  135MOL0     H18158   7.016   3.714   3.898 -1.3407 -1.8118  0.4213
  135MOL0     H18159   6.830   3.572   3.946  0.3925 -1.7156  2.3427
  135MOL0     H18160   6.531   3.732   4.212 -0.7327  0.4494  0.0772
  135MOL0     H18161   6.454   3.767   4.054  2.0840  2.2021 -0.1495
  135MOL0     H18162   6.333   3.581   4.040 -0.6198 -1.1117 -0.5119
  135MOL0     H18163   6.444   3.482   4.140 -0.7241 -0.9029  0.0103
  135MOL0     H18164   6.305   3.511   4.323 -0.4232 -0.5424 -0.0307
  135MOL0     H18165   6.377   3.669   4.331 -0.7523 -0.1410  0.4762
  135MOL0     H18166   6.199   3.764   4.172 -1.3701  0.9802 -1.1104
  135MOL0     H18167   6.114   3.611   4.171  0.9735 -0.0692 -0.0603
  135MOL0     H18168   6.061   3.631   4.404 -1.4277 -1.5377 -1.8264
  135MOL0     H18169   6.196   3.727   4.441  0.9200 -0.9448 -0.0400
  135MOL0     H18170   6.076   3.930   4.315 -2.0367  1.9179  2.1219
  135MOL0     H18171   5.949   3.818   4.293  2.6374  0.6111 -4.3593
  135MOL0     H18172   5.906   3.834   4.527  1.1338 -1.4952  1.0114
  135MOL0     H18173   6.064   3.860   4.582 -0.2025 -0.7680 -0.3347
  135MOL0     H18174   5.923   4.081   4.581  0.8368 -1.3891  1.3759
  135MOL0     H18175   5.904   4.059   4.416 -0.5090  0.0620  1.2124
  135MOL0     H18176   6.193   4.150   4.665  1.1954  3.4366  0.2411
  135MOL0     H18177   6.321   4.380   4.663  0.1213  2.2655 -0.3128
  135MOL0     H18178   6.452   4.264   4.611  3.6306  3.4495 -0.3034
  135MOL0     H18179   6.362   4.508   4.462 -0.2836 -1.3032  0.8189
  135MOL0     H18180   6.507   4.409   4.416 -2.0451 -5.7370 -1.4042
  135MOL0     H18181   6.476   4.531   4.697 -1.0157 -1.0690 -0.8520
  135MOL0     H18182   6.543   4.633   4.562 -1.5305  1.2079  1.5231
  135MOL0     H18183   6.723   4.461   4.545 -0.8654  0.5354 -0.8317
  135MOL0     H18184   6.658   4.368   4.682  1.6322 -2.1448 -2.1741
  135MOL0     H18185   6.888   4.338   4.706 -1.0624 -1.5730  0.8321
  135MOL0     H18186   7.196   4.284   4.786  2.2631 -2.1492  1.7625
  135MOL0     H18187   7.094   4.180   4.898  2.5170 -1.0345 -0.7651
  135MOL0     H18188   7.060   4.219   4.719  1.0620  2.8367 -1.4676
  135MOL0     H18189   7.471   4.525   5.202 -0.2838 -0.2272  0.1746
  135MOL0     H18190   7.577   4.452   5.407  0.1559  0.9912 -2.5258
  135MOL0     H18191   7.613   4.250   5.513 -0.7912 -1.2497 -0.3227
  135MOL0     H18192   7.640   4.385   5.609  0.2759  1.0193 -0.7859
  135MOL0     H18193   7.726   4.170   5.751  0.2570 -0.1784  0.6027
  135MOL0     H18194   7.582   4.233   5.829 -0.4881 -0.0217  0.3140
  135MOL0     H18195   7.608   4.023   5.609 -1.4300  3.2047 -2.6543
  135MOL0     H18196   7.459   4.070   5.673  0.1787 -2.6995  0.1015
  135MOL0     H18197   7.614   3.878   5.800 -0.2209 -0.0511  1.3376
  135MOL0     H18198   7.668   4.018   5.890  2.0379 -1.2271 -2.0328
  135MOL0     H18199   7.366   3.921   5.835  0.9893 -2.7208 -1.2344
  135MOL0     H18200   7.417   4.058   5.932  3.2293 -0.0612  2.1807
  135MOL0     H18201   7.439   3.766   6.006  2.1376  0.3361  3.4055
  135MOL0     H18202   7.542   3.886   6.077  1.6768 -3.5698 -1.3282
  135MOL0     H18203   7.246   3.903   6.055 -1.1629 -1.6869  3.0725
  135MOL0     H18204   7.336   4.011   6.163 -0.4132  0.9613 -1.4537
  135MOL0     H18205   7.409   3.802   6.299 -0.3948 -2.6222 -0.3515
  135MOL0     H18206   7.331   3.702   6.199 -0.9919 -0.5550  2.5598
  135MOL0     H18207   7.183   4.331   5.564  1.1375 -0.2638  0.3147
  135MOL0     H18208   7.084   4.419   5.349 -0.3443  0.8902 -0.5564
  135MOL0     H18209   7.025   4.683   5.034 -1.0663 -0.5023  0.5899
  135MOL0     H18210   6.844   4.728   4.888  0.4889 -0.3019  1.6765
  135MOL0     H18211   6.598   3.924   4.044 -1.0932 -2.5341 -0.0697
  135MOL0     H18212   6.788   4.062   4.006  0.0505  1.7745 -1.7134
  135MOL0     H18213   7.078   4.312   3.673 -0.0904  0.8037 -0.4194
  135MOL0     H18214   7.287   4.396   3.571  2.7722  0.1814  2.8991
  135MOL0     H18215   7.532   4.429   3.590  0.5167 -0.2818 -0.1344
  135MOL0     H18216   7.657   4.366   3.495  0.0606  0.2979  3.3875
  135MOL0     H18217   7.363   4.383   3.380 -0.8322  3.6144 -2.1192
  135MOL0     H18218   7.506   4.372   3.287  0.2633 -2.0472  0.4602
  135MOL0     H18219   7.552   4.618   3.379 -1.6001  2.4514 -0.5882
  135MOL0     H18220   7.411   4.603   3.478  0.7755 -0.2542  0.7378
  135MOL0     H18221   7.260   4.583   3.274 -0.2603  0.9724  2.0029
  135MOL0     H18222   7.412   4.560   3.190  2.8755 -2.8179  3.3281
  135MOL0     H18223   7.374   4.977   3.173  0.3788 -0.8025 -1.3946
  135MOL0     H18224   7.464   4.017   3.674  0.0415  0.1734  0.0427
  135MOL0     H18225   7.245   3.936   3.754  0.4580 -0.8425 -4.0736
  136MOL0     O18226  10.432   7.650   9.298 -0.0393  0.0957 -0.3634
  136MOL0     C18227  10.400   7.583   9.398 -1.0907 -1.3212  0.4891
  136MOL0     O18228  10.288   7.506   9.421 -0.1041  0.0006 -0.0891
  136MOL0     C18229  10.198   7.498   9.322  0.7759 -0.6501 -0.1742
  136MOL0     C18230  10.220   7.436   9.203 -0.4536  0.0093  0.4656
  136MOL0     C18231  10.127   7.415   9.100  0.0451  0.3541 -0.5648
  136MOL0     C18232   9.999   7.464   9.125  0.0372 -0.4302 -0.6460
  136MOL0     O18233   9.886   7.460   9.055  0.1238 -0.7348 -0.2660
  136MOL0     C18234   9.893   7.381   8.942  0.4731  0.1352  0.1484
  136MOL0     C18235   9.754   7.386   8.871 -0.3453  0.1985 -0.0987
  136MOL0     C18236   9.654   7.311   8.951  0.1930  0.0967  0.7545
  136MOL0     C18237   9.516   7.298   8.879  0.5455  0.1555  0.2947
  136MOL0     C18238   9.450   7.441   8.846 -0.7656 -1.1491 -0.2219
  136MOL0     C18239   9.345   7.419   8.740 -0.2137  0.2596  0.1147
  136MOL0     C18240   9.250   7.534   8.734 -0.5166 -0.9602 -0.9341
  136MOL0     C18241   9.295   7.650   8.647  0.3947 -0.5867  0.0102
  136MOL0     N18242   9.232   7.626   8.512  0.2298  0.0776  0.1768
  136MOL0     C18243   9.114   7.695   8.479  0.2347 -0.0232 -0.9452
  136MOL0     C18244   9.090   7.662   8.348 -0.2864 -1.0120  0.2157
  136MOL0     C18245   8.995   7.725   8.249  0.9865 -0.3550  1.5356
  136MOL0     C18246   9.044   7.845   8.182 -0.8756 -0.8724  0.0404
  136MOL0     C18247   9.029   7.977   8.276  0.2752  0.5060 -0.1495
  136MOL0     C18248   9.107   8.100   8.220  0.0165 -1.5090 -0.1495
  136MOL0     O18249   9.098   8.114   8.081 -0.1685  0.1021  0.2764
  136MOL0     C18250   8.986   8.183   8.035  0.5767  0.4138  0.6068
  136MOL0     C18251   8.996   8.319   7.997  0.0321  0.4153 -0.9815
  136MOL0     C18252   8.892   8.390   7.949  0.4703  0.8303 -1.2303
  136MOL0     C18253   8.913   8.518   7.889  0.3480 -0.7964 -0.8231
  136MOL0     C18254   8.770   8.320   7.939 -0.2768 -0.5572 -0.0620
  136MOL0     C18255   8.646   8.390   7.902 -0.2956  0.2418 -0.2997
  136MOL0     O18256   8.533   8.309   7.874  0.0600 -1.0932 -1.2589
  136MOL0     C18257   8.416   8.377   7.859  0.6755 -1.5000 -0.5067
  136MOL0     C18258   8.331   8.431   7.953  0.1019  0.3578 -0.4281
  136MOL0     C18259   8.212   8.505   7.922  0.3145  0.5359 -0.2556
  136MOL0     C18260   8.162   8.502   7.796 -0.0219 -0.3829  0.6482
  136MOL0     O18261   8.048   8.563   7.762 -0.1595 -0.1846 -0.3319
  136MOL0     C18262   7.971   8.488   7.675  1.0935 -0.1714  0.0530
  136MOL0     C18263   7.825   8.551   7.660 -0.0346 -0.1709 -0.0153
  136MOL0     C18264   7.736   8.570   7.780  0.3876  0.3165 -0.5011
  136MOL0     C18265   7.596   8.600   7.740 -0.1908  0.1328  0.2785
  136MOL0     C18266   7.507   8.620   7.864 -0.2283 -0.4861  0.2821
  136MOL0     C18267   7.544   8.751   7.939 -0.9586  0.3180 -0.2620
  136MOL0     C18268   7.471   8.770   8.073 -0.2520 -0.2522  0.5221
  136MOL0     C18269   7.485   8.921   8.109 -0.1643  0.5503 -0.4099
  136MOL0    Cl18270   7.468   8.954   8.285  0.3399  0.2421  0.1689
  136MOL0     C18271   8.252   8.460   7.698  1.1936  0.3761  0.4792
  136MOL0     C18272   8.373   8.387   7.730  0.1042  0.2949 -0.1942
  136MOL0     O18273   8.643   8.510   7.906 -0.6705 -0.0228 -0.1768
  136MOL0     C18274   8.752   8.182   7.971 -0.6316 -0.1416 -0.1901
  136MOL0     C18275   8.859   8.110   8.022 -0.3024 -0.3609 -0.7115
  136MOL0     N18276   9.203   7.594   8.303  0.1618 -0.5560 -0.3218
  136MOL0     N18277   9.276   7.571   8.400  0.2365  0.0016  0.0652
  136MOL0     C18278   9.972   7.543   9.239  0.5072  1.2528  0.6391
  136MOL0     C18279  10.074   7.566   9.337  1.0553  0.5423  0.5137
  136MOL0     C18280  10.496   7.597   9.504 -0.7278  0.1641  0.3448
  136MOL0     C18281  10.469   7.556   9.635  0.5741 -0.1905 -0.6722
  136MOL0     C18282  10.569   7.551   9.738  0.2226  0.0972 -0.5398
  136MOL0     C18283  10.698   7.586   9.713 -0.2091  0.3911 -0.4989
  136MOL0     O18284  10.785   7.576   9.821  0.6096 -0.4742  0.5401
  136MOL0     C18285  10.919   7.633   9.820 -0.2933 -0.6800 -0.1520
  136MOL0     C18286  10.992   7.579   9.941 -0.2023 -0.5563 -1.5273
  136MOL0     C18287  10.969   7.426   9.971 -0.0232  0.2604  0.2273
  136MOL0     C18288  11.109   7.370  10.021 -0.4019  0.1042 -0.6086
  136MOL0     C18289  11.183   7.279   9.926 -0.3641  0.0950  0.6882
  136MOL0     C18290  11.228   7.223   9.827  0.2186  0.0995 -1.5024
  136MOL0     C18291  10.730   7.641   9.584 -0.0240  0.5745 -0.5370
  136MOL0     C18292  10.630   7.643   9.481 -0.3470  0.7566 -0.3052
  136MOL0     H18293  10.323   7.412   9.178 -0.3064 -2.3442  2.8504
  136MOL0     H18294  10.149   7.374   9.003  0.2692  0.6870 -0.6565
  136MOL0     H18295   9.962   7.431   8.873  1.5492 -0.9759  0.4052
  136MOL0     H18296   9.918   7.283   8.982 -0.9250  0.8463  2.9734
  136MOL0     H18297   9.732   7.493   8.867 -0.8132  0.1003 -0.2254
  136MOL0     H18298   9.759   7.345   8.770  1.8187 -1.2293  0.5172
  136MOL0     H18299   9.697   7.213   8.970 -0.0260 -0.0003  0.7548
  136MOL0     H18300   9.657   7.343   9.056  0.0276 -0.6622  0.9977
  136MOL0     H18301   9.521   7.246   8.783 -1.9616 -1.5659  0.9941
  136MOL0     H18302   9.449   7.243   8.945  1.5623 -3.0818 -1.1717
  136MOL0     H18303   9.402   7.484   8.934 -1.5670 -2.5394  0.0462
  136MOL0     H18304   9.524   7.514   8.811  0.0036 -1.1572  1.3172
  136MOL0     H18305   9.396   7.403   8.644 -1.9322 -0.9952 -0.6571
  136MOL0     H18306   9.274   7.337   8.750 -1.2385  1.0224 -0.6912
  136MOL0     H18307   9.152   7.503   8.698 -1.7731  0.7729  0.8120
  136MOL0     H18308   9.232   7.564   8.838  1.6663  0.7536 -0.9583
  136MOL0     H18309   9.404   7.666   8.648  0.1559  1.8250 -2.0120
  136MOL0     H18310   9.244   7.739   8.685 -3.0444 -1.3126 -2.4252
  136MOL0     H18311   9.056   7.760   8.543  2.5684  1.8442 -0.5788
  136MOL0     H18312   8.962   7.641   8.188  0.2371 -0.5977  2.2537
  136MOL0     H18313   8.909   7.757   8.309  1.4385 -0.7734  2.4396
  136MOL0     H18314   8.993   7.858   8.086 -0.9181 -0.7651  0.0772
  136MOL0     H18315   9.151   7.839   8.162 -0.8719 -0.4246 -0.0706
  136MOL0     H18316   9.060   7.953   8.378  1.7573 -2.3850 -1.1878
  136MOL0     H18317   8.922   8.001   8.283  0.4449  0.8557  1.9148
  136MOL0     H18318   9.215   8.086   8.233  0.2635  0.8723  0.9026
  136MOL0     H18319   9.080   8.189   8.279 -0.3344 -2.3899  1.0675
  136MOL0     H18320   9.100   8.346   8.009  0.1028 -0.8544  2.2502
  136MOL0     H18321   9.017   8.550   7.902  0.2249 -0.2302 -1.2087
  136MOL0     H18322   8.877   8.521   7.786  1.6424 -1.6067 -1.3244
  136MOL0     H18323   8.863   8.596   7.947  0.5368 -1.4383  0.2195
  136MOL0     H18324   8.363   8.421   8.056 -1.0313 -0.3365 -0.1200
  136MOL0     H18325   8.146   8.547   7.997 -1.8530 -0.8434 -1.2783
  136MOL0     H18326   8.013   8.472   7.575 -1.2106 -0.0424 -1.0191
  136MOL0     H18327   7.935   8.393   7.714 -1.0982 -0.5115 -2.4701
  136MOL0     H18328   7.856   8.652   7.628 -1.7814  0.1006 -0.9423
  136MOL0     H18329   7.766   8.509   7.578 -2.7646 -0.2226  1.8495
  136MOL0     H18330   7.788   8.639   7.848  1.9063 -1.3611  0.1063
  136MOL0     H18331   7.741   8.483   7.847  0.8718  0.0414 -0.8831
  136MOL0     H18332   7.588   8.692   7.683 -2.8693  0.3724  0.9090
  136MOL0     H18333   7.549   8.515   7.690  1.3138 -0.1986 -0.6164
  136MOL0     H18334   7.545   8.544   7.933  1.0849 -1.2256 -1.2018
  136MOL0     H18335   7.403   8.595   7.841 -0.2037 -0.9481  0.6756
  136MOL0     H18336   7.652   8.758   7.959 -0.9417 -2.1496  0.7620
  136MOL0     H18337   7.536   8.839   7.874 -0.1587 -0.5749 -1.6162
  136MOL0     H18338   7.516   8.708   8.151  1.4113 -0.1237 -0.2901
  136MOL0     H18339   7.365   8.745   8.062 -0.3974  0.6069 -0.1550
  136MOL0     H18340   7.407   8.988   8.069  0.8927  1.9200 -0.2650
  136MOL0     H18341   7.575   8.967   8.066 -0.5167  0.0308 -1.7745
  136MOL0     H18342   8.241   8.473   7.591  1.0059  0.0646  0.4611
  136MOL0     H18343   8.432   8.335   7.654  2.3166  1.1341  0.8847
  136MOL0     H18344   8.665   8.122   7.943 -0.5110 -0.4239  0.0382
  136MOL0     H18345   8.844   8.005   8.045 -0.6896  0.0172  0.9007
  136MOL0     H18346   9.870   7.574   9.260 -0.0417  0.8655 -1.3060
  136MOL0     H18347  10.045   7.624   9.424 -1.8598 -0.2771  0.2300
  136MOL0     H18348  10.368   7.524   9.658  0.5376 -1.3341 -2.2550
  136MOL0     H18349  10.537   7.532   9.840 -1.6430  0.8333 -0.9432
  136MOL0     H18350  10.972   7.597   9.732 -0.3612 -2.2751  0.4181
  136MOL0     H18351  10.922   7.742   9.816  3.4312 -0.6517 -0.1806
  136MOL0     H18352  10.949   7.624  10.031 -2.6722 -3.5714 -1.0570
  136MOL0     H18353  11.099   7.600   9.948 -0.8079  2.4681  0.7994
  136MOL0     H18354  10.956   7.375   9.875  1.4792  2.1156 -1.0252
  136MOL0     H18355  10.876   7.410  10.025 -0.6835  1.4968 -0.4887
  136MOL0     H18356  11.082   7.298  10.098 -1.1491 -0.2943 -1.2281
  136MOL0     H18357  11.166   7.448  10.073 -1.7441 -1.0090  2.7988
  136MOL0     H18358  11.255   7.174   9.735 -0.1508  0.2962 -1.7152
  136MOL0     H18359  10.825   7.687   9.559 -0.0273 -0.0900 -1.8864
  136MOL0     H18360  10.674   7.659   9.382  2.7445  0.1188  0.8321
  137MOL0     O18361   5.239   5.915  10.059 -0.0880 -0.1202 -0.0884
  137MOL0     C18362   5.292   6.014   9.999  0.1547 -0.2220 -1.0828
  137MOL0     O18363   5.421   6.041  10.003 -0.4372  0.6763 -0.7080
  137MOL0     C18364   5.499   5.993  10.105  0.1505 -0.3387  0.2703
  137MOL0     C18365   5.451   6.031  10.225  0.2224  0.7647 -0.5576
  137MOL0     C18366   5.501   5.973  10.343  0.1642 -0.5702  1.2258
  137MOL0     C18367   5.593   5.870  10.328  0.7323  0.3636 -0.1152
  137MOL0     O18368   5.624   5.797  10.439 -0.2144 -0.0934 -0.9677
  137MOL0     C18369   5.764   5.787  10.471  1.1356  0.0131  0.1021
  137MOL0     C18370   5.834   5.912  10.527  0.0936  0.7849 -0.0880
  137MOL0     C18371   5.987   5.895  10.579  0.6733 -0.3655  0.9409
  137MOL0     C18372   6.071   5.954  10.468 -0.2935 -0.4742 -0.2650
  137MOL0     C18373   6.220   5.948  10.518 -0.0784 -0.4874 -0.6500
  137MOL0     C18374   6.316   6.001  10.412 -0.1676  0.6149  0.1559
  137MOL0     C18375   6.456   5.962  10.446  0.9993  0.1354 -0.1513
  137MOL0     C18376   6.518   6.042  10.567  0.8578  0.5726 -0.4524
  137MOL0     N18377   6.530   6.191  10.550 -0.0132 -0.8235 -0.3180
  137MOL0     C18378   6.548   6.254  10.429  0.9371  0.6935  0.1758
  137MOL0     C18379   6.526   6.385  10.460 -0.6748 -0.6938  0.2945
  137MOL0     C18380   6.533   6.491  10.353 -0.1502 -0.4108  0.7600
  137MOL0     C18381   6.666   6.555  10.323  0.4962 -0.7185  0.2804
  137MOL0     C18382   6.696   6.676  10.413  0.6179 -0.4121 -0.1191
  137MOL0     C18383   6.816   6.760  10.376 -0.2052 -0.0245  0.1060
  137MOL0     O18384   6.768   6.893  10.384 -0.3673 -0.1435  0.2489
  137MOL0     C18385   6.846   7.003  10.343 -0.0188  0.2979 -0.9073
  137MOL0     C18386   6.973   6.990  10.282 -0.8089  0.6486  0.9097
  137MOL0     C18387   7.038   7.100  10.228 -0.3855 -0.2180 -0.0532
  137MOL0     C18388   7.176   7.077  10.181 -0.1329  0.1909 -0.3135
  137MOL0     C18389   6.983   7.239  10.251  0.0132  0.7595 -0.0042
  137MOL0     C18390   7.057   7.363  10.226 -0.2877 -0.0599 -0.0544
  137MOL0     O18391   7.030   7.470  10.316  0.1899  0.8181  0.2574
  137MOL0     C18392   7.136   7.558  10.341 -0.9294 -0.2131  0.4510
  137MOL0     C18393   7.197   7.651  10.249 -0.4358 -0.5947 -0.0678
  137MOL0     C18394   7.287   7.754  10.295  1.1552  0.4178  0.0814
  137MOL0     C18395   7.305   7.767  10.435 -0.7381 -0.9322 -0.7083
  137MOL0     O18396   7.391   7.870  10.472 -0.0981  0.7216 -0.0856
  137MOL0     C18397   7.463   7.848  10.595 -0.1996  0.4327  0.6729
  137MOL0     C18398   7.575   7.955  10.596  0.4829  0.7597  0.3977
  137MOL0     C18399   7.701   7.909  10.517 -0.4914 -1.0734 -0.6244
  137MOL0     C18400   7.819   8.002  10.550 -0.4830 -0.3501  0.4083
  137MOL0     C18401   7.937   7.966  10.463  0.0251 -1.5906  0.8136
  137MOL0     C18402   8.054   8.057  10.485 -0.9235 -0.0691 -0.1821
  137MOL0     C18403   8.050   8.175  10.394  0.5346  1.4265 -0.3543
  137MOL0     C18404   8.190   8.250  10.394  1.1227  0.3540  0.2693
  137MOL0    Cl18405   8.321   8.161  10.309  0.2303  0.0375 -0.1574
  137MOL0     C18406   7.255   7.669  10.524  0.2926 -0.3686  0.3173
  137MOL0     C18407   7.161   7.575  10.478 -0.9152 -0.9678 -0.0473
  137MOL0     O18408   7.147   7.354  10.144 -0.6034 -0.4192 -0.3074
  137MOL0     C18409   6.869   7.241  10.336  0.9092  1.1226  0.4641
  137MOL0     C18410   6.795   7.127  10.363 -0.4044 -1.0723 -0.3871
  137MOL0     N18411   6.501   6.407  10.593 -0.5286  0.3793  0.0533
  137MOL0     N18412   6.503   6.292  10.646  0.6379  0.8144  0.1424
  137MOL0     C18413   5.634   5.831  10.199 -0.2781 -0.2628  0.2418
  137MOL0     C18414   5.593   5.902  10.086 -0.8732 -0.5301 -0.4297
  137MOL0     C18415   5.215   6.101   9.909 -0.2576  0.1544 -0.1696
  137MOL0     C18416   5.086   6.133   9.952  0.0101 -0.6292  0.0125
  137MOL0     C18417   5.021   6.229   9.876  0.4607  0.6635 -0.2235
  137MOL0     C18418   5.080   6.297   9.756  0.2141  0.3186  0.5688
  137MOL0     O18419   5.007   6.390   9.684  1.1729 -0.4489  0.2817
  137MOL0     C18420   5.010   6.402   9.540 -0.5515 -0.2115  0.3840
  137MOL0     C18421   5.070   6.544   9.509 -0.0719  0.7868  0.2014
  137MOL0     C18422   5.015   6.593   9.373 -0.5714  0.7693  0.2456
  137MOL0     C18423   5.086   6.723   9.326  0.4213  0.1990 -0.1870
  137MOL0     C18424   5.035   6.842   9.401  0.6892  0.5472 -0.1344
  137MOL0     C18425   4.991   6.939   9.456  0.2455 -0.5463 -0.4826
  137MOL0     C18426   5.208   6.247   9.712  0.1660  0.5211  0.8237
  137MOL0     C18427   5.276   6.158   9.796 -0.1491 -0.7501 -0.0494
  137MOL0     H18428   5.382   6.114  10.237  0.0634  0.4172  1.2134
  137MOL0     H18429   5.476   6.000  10.445  2.0731 -0.4643  1.7109
  137MOL0     H18430   5.762   5.716  10.554 -0.1161  1.1194  1.0563
  137MOL0     H18431   5.817   5.738  10.388 -1.1388 -2.0172 -0.2920
  137MOL0     H18432   5.838   5.988  10.449 -1.0629 -1.8975 -2.9741
  137MOL0     H18433   5.771   5.949  10.609  0.4172 -0.7919  0.9132
  137MOL0     H18434   6.013   5.957  10.665 -0.8237  2.5538 -0.6014
  137MOL0     H18435   6.007   5.791  10.608  2.4576 -0.4599 -0.4550
  137MOL0     H18436   6.055   5.904  10.373  3.4231  1.5294 -2.1762
  137MOL0     H18437   6.049   6.060  10.455  2.7389  0.1435 -1.2599
  137MOL0     H18438   6.221   6.019  10.601  0.9650 -0.2559 -0.8469
  137MOL0     H18439   6.236   5.846  10.555 -0.5953 -1.3754 -2.7311
  137MOL0     H18440   6.291   5.960  10.314  0.3562 -0.4663  0.4647
  137MOL0     H18441   6.289   6.105  10.392 -1.4955  0.5035  1.2159
  137MOL0     H18442   6.449   5.857  10.474  1.4772  0.3914  0.9643
  137MOL0     H18443   6.519   5.987  10.360  0.1925  2.0909 -0.2418
  137MOL0     H18444   6.621   6.006  10.561  0.8228  0.5144 -0.7117
  137MOL0     H18445   6.476   6.001  10.659  1.4497  0.9603 -0.0017
  137MOL0     H18446   6.563   6.205  10.334 -2.1202  4.2738 -2.4556
  137MOL0     H18447   6.482   6.466  10.259  0.0522  0.9260  0.2703
  137MOL0     H18448   6.461   6.567  10.383 -0.8311 -1.6010  2.2894
  137MOL0     H18449   6.670   6.590  10.219 -0.2481 -0.1343  0.4359
  137MOL0     H18450   6.742   6.477  10.331  0.8075 -0.3745  0.7305
  137MOL0     H18451   6.708   6.643  10.517 -0.2059 -2.1042 -0.5181
  137MOL0     H18452   6.603   6.731  10.402  1.7455  1.6658  0.2380
  137MOL0     H18453   6.852   6.743  10.274  0.5752 -2.5291  0.7221
  137MOL0     H18454   6.899   6.739  10.444 -0.8417  2.8141  1.8947
  137MOL0     H18455   7.024   6.894  10.284 -1.8356  0.0269 -0.7332
  137MOL0     H18456   7.244   7.158  10.207 -0.4531  1.4681 -3.1057
  137MOL0     H18457   7.223   6.986  10.221 -0.1868  1.1791  2.1362
  137MOL0     H18458   7.176   7.080  10.071 -1.0704 -1.7814 -0.4188
  137MOL0     H18459   7.178   7.632  10.144  4.9712 -1.7389 -1.1338
  137MOL0     H18460   7.327   7.825  10.224  0.0898  1.8934  0.8867
  137MOL0     H18461   7.400   7.859  10.683  2.2747  0.5198  2.5530
  137MOL0     H18462   7.503   7.746  10.598 -2.4633 -0.5033  0.6306
  137MOL0     H18463   7.535   8.052  10.567  0.9446  0.6121 -0.7434
  137MOL0     H18464   7.607   7.963  10.701  2.6514 -2.0817  0.0570
  137MOL0     H18465   7.690   7.913  10.408 -2.5661  1.3227 -0.4245
  137MOL0     H18466   7.725   7.805  10.543  0.4821 -0.7296 -0.1099
  137MOL0     H18467   7.794   8.106  10.529  0.0795 -0.5939 -1.7284
  137MOL0     H18468   7.848   7.995  10.655 -1.1790  1.0392  0.7103
  137MOL0     H18469   7.918   7.958  10.355 -0.2400  1.9732  0.4656
  137MOL0     H18470   7.968   7.865  10.488 -3.1230 -2.5169  1.3508
  137MOL0     H18471   8.064   8.075  10.593  0.4062 -0.6481 -0.1902
  137MOL0     H18472   8.144   8.001  10.457 -0.7207 -0.6726  1.5359
  137MOL0     H18473   7.968   8.243  10.416  0.3224  0.8242  0.7962
  137MOL0     H18474   8.047   8.143  10.289  0.5761 -0.5644  0.2110
  137MOL0     H18475   8.220   8.266  10.497  0.6523 -0.1667  0.4923
  137MOL0     H18476   8.168   8.341  10.336  0.3371 -2.5223 -4.5559
  137MOL0     H18477   7.272   7.689  10.630  3.0243  0.8727 -0.2651
  137MOL0     H18478   7.101   7.518  10.549 -2.6125  0.5653 -0.2022
  137MOL0     H18479   6.826   7.331  10.378  2.2367  3.0499 -2.0489
  137MOL0     H18480   6.702   7.145  10.415 -0.2989 -0.6778 -0.3316
  137MOL0     H18481   5.695   5.742  10.194  0.4637  0.3133 -2.6314
  137MOL0     H18482   5.602   5.869   9.983 -1.6042  2.1900 -1.4438
  137MOL0     H18483   5.048   6.080  10.038 -1.5038  0.5826  0.1314
  137MOL0     H18484   4.918   6.252   9.901  0.5092  0.0330  0.5942
  137MOL0     H18485   5.068   6.319   9.498 -1.2286 -0.2822 -0.4325
  137MOL0     H18486   4.906   6.397   9.505 -1.2738 -3.2609  2.5394
  137MOL0     H18487   5.179   6.538   9.511 -0.0025  1.7591  0.1423
  137MOL0     H18488   5.037   6.615   9.587 -2.2416 -1.2710  1.3014
  137MOL0     H18489   4.909   6.619   9.372 -0.5789  0.7408 -0.2231
  137MOL0     H18490   5.031   6.513   9.300  0.9623  0.0325  1.3527
  137MOL0     H18491   5.068   6.747   9.221  2.2003  0.8779 -0.3653
  137MOL0     H18492   5.193   6.709   9.342  0.6908  2.8015  0.6236
  137MOL0     H18493   4.949   7.027   9.498  0.6883 -0.6396  0.1747
  137MOL0     H18494   5.255   6.301   9.631 -0.6599 -0.1560 -0.1467
  137MOL0     H18495   5.379   6.128   9.780  0.5993  0.3984  2.1705
  138MOL0     O18496   8.315   7.127   8.275  0.2776  0.0797 -0.1067
  138MOL0     C18497   8.220   7.073   8.218  0.1817 -0.4483  0.4817
  138MOL0     O18498   8.107   7.137   8.157 -0.4681 -1.5512 -0.3155
  138MOL0     C18499   8.102   7.272   8.152  1.1372 -0.1118 -0.1530
  138MOL0     C18500   8.200   7.348   8.095  0.0984 -0.5947 -0.3418
  138MOL0     C18501   8.185   7.482   8.093  0.0008  0.1522  0.5065
  138MOL0     C18502   8.063   7.545   8.140  0.1833  1.1521 -0.0127
  138MOL0     O18503   8.045   7.684   8.139  0.0729  0.2541 -0.0388
  138MOL0     C18504   8.066   7.755   8.022 -0.1636 -0.2610 -0.0659
  138MOL0     C18505   8.202   7.835   8.026  0.3608 -0.0753 -0.1154
  138MOL0     C18506   8.229   7.909   8.161  0.6658  0.1242  0.0767
  138MOL0     C18507   8.347   7.996   8.156  0.5246 -0.3837  0.4746
  138MOL0     C18508   8.385   8.040   8.298  0.6395 -0.0848 -0.8761
  138MOL0     C18509   8.502   8.139   8.293 -0.4343 -0.2700 -0.0268
  138MOL0     C18510   8.585   8.160   8.422 -0.2500 -0.7678  1.0391
  138MOL0     C18511   8.659   8.282   8.406 -0.3144 -0.2555 -0.3112
  138MOL0     N18512   8.744   8.291   8.523 -1.0175  0.5494  1.0328
  138MOL0     C18513   8.711   8.329   8.645 -0.2468 -0.0699 -0.0852
  138MOL0     C18514   8.834   8.332   8.716  0.7163 -0.3356 -0.2455
  138MOL0     C18515   8.842   8.402   8.842  0.3014 -0.3517  0.0033
  138MOL0     C18516   8.792   8.305   8.954 -0.3109  0.8825  1.1960
  138MOL0     C18517   8.754   8.395   9.068  1.1751 -0.1216  0.0654
  138MOL0     C18518   8.720   8.316   9.190  0.6257  0.1395 -0.4857
  138MOL0     O18519   8.835   8.245   9.244  0.0221 -0.1623 -1.1984
  138MOL0     C18520   8.819   8.128   9.312 -0.0602  0.3101  0.1377
  138MOL0     C18521   8.706   8.102   9.403 -0.6962 -0.2079 -0.8216
  138MOL0     C18522   8.697   7.995   9.474  0.2055  0.8106  0.0468
  138MOL0     C18523   8.573   7.961   9.567 -0.7645 -0.3347  0.1170
  138MOL0     C18524   8.811   7.901   9.471  0.2638 -0.8036 -0.2628
  138MOL0     C18525   8.819   7.778   9.556  0.2125 -0.2325 -0.5647
  138MOL0     O18526   8.950   7.749   9.590 -0.0257  0.1238  0.4067
  138MOL0     C18527   8.988   7.616   9.590 -0.0296 -0.7234  0.1863
  138MOL0     C18528   9.101   7.571   9.518  0.3355  0.6866 -0.3458
  138MOL0     C18529   9.149   7.442   9.525  0.7217 -0.2669 -0.1808
  138MOL0     C18530   9.077   7.342   9.596  0.3781 -0.1336 -0.1307
  138MOL0     O18531   9.108   7.207   9.590 -0.2002  0.1125 -0.1140
  138MOL0     C18532   9.218   7.152   9.521 -0.3568  0.1661  0.9520
  138MOL0     C18533   9.232   7.001   9.549  0.6495 -0.0065 -0.1914
  138MOL0     C18534   9.134   6.917   9.470 -0.7777 -0.0645 -0.2861
  138MOL0     C18535   9.059   6.821   9.547 -0.7785 -0.5676 -0.7050
  138MOL0     C18536   8.996   6.716   9.454 -0.1207 -0.1285 -0.0658
  138MOL0     C18537   8.911   6.614   9.533 -0.5607 -0.9837 -0.3955
  138MOL0     C18538   8.884   6.483   9.469  0.4892 -0.3769 -0.4783
  138MOL0     C18539   8.765   6.410   9.537  0.0345 -0.0897  0.6250
  138MOL0    Cl18540   8.792   6.381   9.709 -0.3046  0.0707 -0.0309
  138MOL0     C18541   8.974   7.391   9.680  0.3312  0.3071  0.7152
  138MOL0     C18542   8.937   7.527   9.676 -0.8289  0.0096  0.3476
  138MOL0     O18543   8.721   7.709   9.580 -0.4035 -0.2672  0.4577
  138MOL0     C18544   8.922   7.927   9.390  0.3552  0.0880  0.6357
  138MOL0     C18545   8.928   8.036   9.304  0.2188 -0.5558 -0.1883
  138MOL0     N18546   8.934   8.304   8.621 -1.0102  0.4275  0.5867
  138MOL0     N18547   8.879   8.282   8.508  0.0089 -0.5165 -0.3123
  138MOL0     C18548   7.963   7.463   8.194  0.0713  0.4681 -0.0684
  138MOL0     C18549   7.974   7.325   8.187 -0.1451 -1.2753  0.7958
  138MOL0     C18550   8.204   6.920   8.223  1.4165 -0.4733  0.0896
  138MOL0     C18551   8.075   6.866   8.231 -1.0526 -1.0883 -0.6496
  138MOL0     C18552   8.053   6.727   8.234  0.5209 -0.4440 -1.2637
  138MOL0     C18553   8.157   6.639   8.246 -0.5752  0.1728  1.8466
  138MOL0     O18554   8.165   6.505   8.242 -0.4881  0.3966 -0.4029
  138MOL0     C18555   8.050   6.432   8.192 -0.4219 -0.4210  0.0982
  138MOL0     C18556   8.111   6.307   8.143 -0.0802  0.3118 -0.6089
  138MOL0     C18557   8.151   6.198   8.238  0.0350  0.3225  0.3463
  138MOL0     C18558   8.080   6.189   8.375  0.2043  0.4789 -0.1784
  138MOL0     C18559   8.148   6.090   8.457  0.1461 -0.3366 -0.5535
  138MOL0     C18560   8.204   6.006   8.530  0.5461 -0.4467 -0.6731
  138MOL0     C18561   8.291   6.689   8.244 -0.5556 -0.2017  0.2529
  138MOL0     C18562   8.312   6.833   8.238 -0.7050 -0.4013 -1.1182
  138MOL0     H18563   8.288   7.292   8.063 -1.7063 -3.0957 -1.2654
  138MOL0     H18564   8.271   7.544   8.068  1.8789 -1.7836  1.8253
  138MOL0     H18565   8.068   7.688   7.935 -0.5053 -2.5173  1.5593
  138MOL0     H18566   7.993   7.835   8.010  0.8511  1.1285  2.3730
  138MOL0     H18567   8.288   7.769   8.013 -0.9574 -2.0862  0.9188
  138MOL0     H18568   8.200   7.911   7.947 -1.9670  0.3727  0.2890
  138MOL0     H18569   8.138   7.958   8.199 -0.2770 -1.3701 -0.1787
  138MOL0     H18570   8.250   7.832   8.236  2.9795  2.4673  2.0173
  138MOL0     H18571   8.436   7.952   8.109 -0.4481 -0.8664 -0.9961
  138MOL0     H18572   8.329   8.078   8.086 -1.0694 -1.1816 -0.1042
  138MOL0     H18573   8.299   8.082   8.353  0.7371  0.8143 -1.3954
  138MOL0     H18574   8.413   7.955   8.362 -0.0240  0.3641  0.0400
  138MOL0     H18575   8.575   8.103   8.220 -1.1588 -2.5745  0.3173
  138MOL0     H18576   8.453   8.234   8.269 -4.2551 -2.3564 -1.2013
  138MOL0     H18577   8.521   8.157   8.511 -1.8719 -2.5794 -0.1058
  138MOL0     H18578   8.655   8.076   8.424  0.0224 -0.5397  1.1214
  138MOL0     H18579   8.591   8.367   8.408  1.1188  1.0321 -2.7491
  138MOL0     H18580   8.716   8.280   8.313  0.9663 -3.5365  0.3848
  138MOL0     H18581   8.619   8.373   8.681 -1.1834 -2.6073  0.8567
  138MOL0     H18582   8.949   8.423   8.853  0.5623 -1.7885  0.3600
  138MOL0     H18583   8.794   8.500   8.838  0.5635 -0.2457 -0.6092
  138MOL0     H18584   8.876   8.245   8.991 -0.2737 -0.8578 -1.4535
  138MOL0     H18585   8.712   8.238   8.924 -0.9801  2.7375 -1.5933
  138MOL0     H18586   8.665   8.452   9.039  0.3708 -1.2198  0.3160
  138MOL0     H18587   8.830   8.468   9.099 -0.0559  1.1431  0.2337
  138MOL0     H18588   8.636   8.250   9.166  0.3778 -0.3381  1.5482
  138MOL0     H18589   8.686   8.391   9.263 -1.1451 -0.4463 -0.6629
  138MOL0     H18590   8.624   8.173   9.401  0.6862  1.4845 -0.1246
  138MOL0     H18591   8.512   8.052   9.574 -0.5418 -0.0653 -1.1202
  138MOL0     H18592   8.515   7.880   9.523 -0.4464 -1.2472  1.3383
  138MOL0     H18593   8.614   7.928   9.662 -0.6941  1.1266  0.6184
  138MOL0     H18594   9.160   7.649   9.470 -1.9720  1.2489 -2.4740
  138MOL0     H18595   9.242   7.424   9.473  1.7689  3.7267 -0.0515
  138MOL0     H18596   9.203   7.169   9.414 -2.4526 -2.4296  0.7267
  138MOL0     H18597   9.309   7.202   9.555  2.1634 -3.2235 -0.2093
  138MOL0     H18598   9.334   6.963   9.537  0.6154 -1.8041  3.5592
  138MOL0     H18599   9.220   6.991   9.658  2.5367  3.6558  0.5322
  138MOL0     H18600   9.196   6.863   9.397  1.7375  0.9351  0.9946
  138MOL0     H18601   9.073   6.981   9.406  0.0202 -0.3802 -1.4043
  138MOL0     H18602   9.120   6.768   9.621 -0.6829 -0.1485 -0.4762
  138MOL0     H18603   8.983   6.869   9.610  3.2470  1.4565  3.2074
  138MOL0     H18604   9.065   6.670   9.382 -2.4071 -1.3730 -1.5999
  138MOL0     H18605   8.927   6.764   9.384 -3.1967  0.6844  3.2522
  138MOL0     H18606   8.957   6.591   9.629 -1.1177 -2.0994 -0.3706
  138MOL0     H18607   8.821   6.667   9.564  0.2210  0.2490 -0.1783
  138MOL0     H18608   8.977   6.426   9.469  1.1350  0.5651 -2.6748
  138MOL0     H18609   8.859   6.509   9.366  1.3392  1.2690 -0.3101
  138MOL0     H18610   8.740   6.317   9.487  0.8670 -0.2449  0.4759
  138MOL0     H18611   8.672   6.467   9.525  0.0902 -0.5915 -3.4887
  138MOL0     H18612   8.917   7.324   9.743 -0.5522 -0.4810 -0.8604
  138MOL0     H18613   8.854   7.553   9.742  0.9265  1.5249  2.0753
  138MOL0     H18614   8.999   7.852   9.379 -0.2050 -0.5655  1.1182
  138MOL0     H18615   9.011   8.042   9.233 -0.0304 -1.2977 -0.5526
  138MOL0     H18616   7.875   7.515   8.229 -1.1312 -2.2246  1.2170
  138MOL0     H18617   7.894   7.258   8.217  2.2208 -2.8681  4.2673
  138MOL0     H18618   8.005   6.948   8.219 -0.8269 -0.8382 -0.2466
  138MOL0     H18619   7.949   6.700   8.220  0.1995  1.3034 -2.6211
  138MOL0     H18620   7.976   6.416   8.271  2.3671 -0.8061  2.8692
  138MOL0     H18621   7.994   6.485   8.115 -0.9860 -0.2193  0.6396
  138MOL0     H18622   8.193   6.341   8.079  0.6842 -0.3236 -0.0021
  138MOL0     H18623   8.031   6.262   8.084  0.1128 -1.1930  0.2078
  138MOL0     H18624   8.256   6.213   8.264 -0.2554  0.1583  1.7423
  138MOL0     H18625   8.129   6.109   8.179 -4.0650  0.8040  0.8274
  138MOL0     H18626   7.978   6.151   8.364  0.6734 -1.8059  2.1802
  138MOL0     H18627   8.086   6.284   8.429 -0.9069  2.0613 -2.6930
  138MOL0     H18628   8.249   5.922   8.580 -1.3085 -0.5908  0.8804
  138MOL0     H18629   8.382   6.630   8.248  1.0368  2.1597  2.3864
  138MOL0     H18630   8.414   6.871   8.243 -0.7094 -0.4834 -0.3213
  139MOL0     O18631   7.039   6.343   1.307  0.6337  0.0151 -0.6976
  139MOL0     C18632   7.075   6.458   1.291 -0.0279  0.7115 -0.4529
  139MOL0     O18633   7.058   6.564   1.372 -0.0759 -0.0629  0.5068
  139MOL0     C18634   7.020   6.528   1.498 -1.1987  0.1758  0.6832
  139MOL0     C18635   6.900   6.468   1.531 -0.0043 -0.0481  0.2994
  139MOL0     C18636   6.865   6.428   1.659  0.4569 -0.5607 -1.0058
  139MOL0     C18637   6.953   6.458   1.761  0.2776  0.0501 -0.4091
  139MOL0     O18638   6.901   6.402   1.876  0.1065  0.0363  0.3460
  139MOL0     C18639   6.981   6.315   1.956 -0.0729 -0.5003 -0.2783
  139MOL0     C18640   6.973   6.166   1.925 -0.3466  0.1136 -0.4506
  139MOL0     C18641   7.018   6.082   2.042  0.7442  0.3174 -0.1689
  139MOL0     C18642   7.018   5.930   2.010 -0.1076  0.8986 -0.0169
  139MOL0     C18643   7.044   5.840   2.130  0.1110 -0.9447  0.9544
  139MOL0     C18644   7.049   5.697   2.088  0.9610  0.3662 -0.3629
  139MOL0     C18645   7.151   5.642   1.988  0.4123 -0.6660 -0.9513
  139MOL0     C18646   7.290   5.647   2.047 -0.9592  0.9968  0.0662
  139MOL0     N18647   7.379   5.593   1.951 -1.1813  0.5473 -0.5340
  139MOL0     C18648   7.422   5.642   1.832  0.5997 -0.4331  0.5809
  139MOL0     C18649   7.465   5.527   1.764  0.0340 -0.1204 -0.8348
  139MOL0     C18650   7.495   5.495   1.626  0.3708 -0.6655 -0.1629
  139MOL0     C18651   7.370   5.443   1.544  0.8066 -0.0896 -0.0772
  139MOL0     C18652   7.338   5.295   1.576 -1.1000 -0.4646 -0.0051
  139MOL0     C18653   7.208   5.243   1.508 -0.3074  0.2345 -0.5678
  139MOL0     O18654   7.195   5.293   1.376  0.0532 -0.4362  0.2130
  139MOL0     C18655   7.239   5.226   1.257 -0.2400 -0.4667  0.2330
  139MOL0     C18656   7.195   5.277   1.138 -1.0488  0.5698 -0.0279
  139MOL0     C18657   7.215   5.214   1.015  0.0022  0.1023  1.2341
  139MOL0     C18658   7.170   5.285   0.892  0.3155 -0.6646  0.4013
  139MOL0     C18659   7.294   5.091   1.017 -0.1114 -0.0564  0.0401
  139MOL0     C18660   7.346   5.024   0.887  0.6728 -0.4433  0.1310
  139MOL0     O18661   7.302   5.074   0.767 -1.1195 -0.6280  0.5167
  139MOL0     C18662   7.339   5.025   0.645  0.0311 -0.1587  0.6866
  139MOL0     C18663   7.363   4.889   0.623 -0.1351 -0.3970  0.7576
  139MOL0     C18664   7.409   4.853   0.495  0.0381 -0.1848  0.0841
  139MOL0     C18665   7.426   4.945   0.390 -0.8217 -0.7133  0.4468
  139MOL0     O18666   7.476   4.910   0.261 -0.4052  0.4229 -0.9059
  139MOL0     C18667   7.465   4.768   0.213 -0.9038 -0.4931  0.5041
  139MOL0     C18668   7.581   4.734   0.114 -0.4133 -0.1896 -0.9871
  139MOL0     C18669   7.719   4.808   0.155  0.1413 -0.0803  0.3936
  139MOL0     C18670   7.845   4.749   0.104 -0.4457 -0.7760  0.1483
  139MOL0     C18671   7.981   4.809   0.151 -0.3717  0.4277 -0.6424
  139MOL0     C18672   8.007   4.957   0.110 -0.5505 -0.1432  0.4930
  139MOL0     C18673   8.141   5.016   0.166 -0.2573  0.0056 -0.4008
  139MOL0     C18674   8.146   4.994   0.320 -0.4018 -0.0492  0.1764
  139MOL0    Cl18675   8.298   5.059   0.377  0.1419 -0.0283 -0.0895
  139MOL0     C18676   7.414   5.078   0.420  0.5638  0.1497 -0.2405
  139MOL0     C18677   7.360   5.122   0.542  0.2571 -0.2606  0.0183
  139MOL0     O18678   7.412   4.920   0.899 -0.6499  0.1010  0.5401
  139MOL0     C18679   7.339   5.039   1.144  0.0867 -0.3416  0.0708
  139MOL0     C18680   7.311   5.111   1.258 -0.0950 -0.4560  0.5418
  139MOL0     N18681   7.474   5.423   1.864 -0.8667  0.1026 -0.2524
  139MOL0     N18682   7.426   5.466   1.976  0.7416 -0.6090  0.0052
  139MOL0     C18683   7.078   6.515   1.732  0.9573 -0.5822 -0.2059
  139MOL0     C18684   7.110   6.545   1.599 -0.2344  0.4503 -0.1631
  139MOL0     C18685   7.158   6.486   1.180  0.1114  0.2467 -1.1796
  139MOL0     C18686   7.178   6.383   1.080 -0.1464 -0.1955  0.0035
  139MOL0     C18687   7.284   6.406   0.990  0.8290 -0.0876  0.0366
  139MOL0     C18688   7.336   6.534   0.966  1.2157 -0.4589 -0.2287
  139MOL0     O18689   7.417   6.569   0.862  0.7296 -0.3409 -0.2412
  139MOL0     C18690   7.476   6.457   0.791 -0.1360  0.0885 -1.0668
  139MOL0     C18691   7.566   6.492   0.675 -0.6103 -0.7598 -0.0498
  139MOL0     C18692   7.525   6.621   0.593 -0.1030 -0.6070  0.4697
  139MOL0     C18693   7.588   6.619   0.448  0.8197  0.2387 -0.2191
  139MOL0     C18694   7.519   6.733   0.372 -0.2980 -0.8041  0.4523
  139MOL0     C18695   7.461   6.829   0.315  0.1076  0.5875 -0.0425
  139MOL0     C18696   7.301   6.636   1.051  0.6338 -0.3469  0.2678
  139MOL0     C18697   7.215   6.612   1.161  0.3711 -1.1565 -0.2258
  139MOL0     H18698   6.832   6.436   1.453  1.7997  0.3454 -1.5139
  139MOL0     H18699   6.765   6.391   1.678 -0.4440  2.2860  0.3730
  139MOL0     H18700   7.084   6.349   1.940  0.6399 -1.8525  1.1567
  139MOL0     H18701   6.956   6.334   2.061  2.4103  1.0993  0.1163
  139MOL0     H18702   6.870   6.145   1.897 -1.2294  2.6405  0.6262
  139MOL0     H18703   7.028   6.136   1.835 -0.9923 -1.7425 -0.2768
  139MOL0     H18704   7.120   6.115   2.064  0.2324  1.7375  0.1470
  139MOL0     H18705   6.966   6.102   2.136 -0.4995 -2.6479 -0.0913
  139MOL0     H18706   6.923   5.904   1.964  0.8285 -0.5355 -1.2240
  139MOL0     H18707   7.097   5.911   1.936  1.0616 -0.9816  1.6182
  139MOL0     H18708   7.140   5.872   2.173  0.5129 -1.0064  0.1417
  139MOL0     H18709   6.966   5.861   2.203 -0.3629  0.8488 -0.0113
  139MOL0     H18710   7.054   5.634   2.178 -1.7558  2.1369  1.1516
  139MOL0     H18711   6.953   5.675   2.042  0.3366 -0.3363  1.1961
  139MOL0     H18712   7.134   5.537   1.966  0.0721 -0.4246 -1.8892
  139MOL0     H18713   7.146   5.688   1.889  0.2200 -1.5979 -1.3834
  139MOL0     H18714   7.294   5.575   2.130  1.5564  1.5480  0.4981
  139MOL0     H18715   7.324   5.749   2.067  0.7845  0.5509 -0.4969
  139MOL0     H18716   7.373   5.731   1.795  0.1430 -1.1779 -0.6644
  139MOL0     H18717   7.535   5.584   1.576 -0.0712 -0.7496 -0.6777
  139MOL0     H18718   7.572   5.418   1.629 -0.8000 -1.8802 -0.6861
  139MOL0     H18719   7.390   5.438   1.437  1.7131  1.3335  0.0081
  139MOL0     H18720   7.287   5.513   1.556  1.7270  0.9422  0.3908
  139MOL0     H18721   7.310   5.286   1.681 -2.6694  1.3376 -0.2185
  139MOL0     H18722   7.429   5.237   1.555 -0.3827  0.2840  0.9126
  139MOL0     H18723   7.117   5.276   1.558  0.6834 -0.9350  2.2346
  139MOL0     H18724   7.202   5.134   1.515 -2.4488  0.3163 -0.5092
  139MOL0     H18725   7.145   5.374   1.144 -1.3239  0.9100 -4.3560
  139MOL0     H18726   7.088   5.227   0.848 -0.0510 -1.3430  1.8975
  139MOL0     H18727   7.138   5.388   0.910  1.7013  0.2613 -2.0387
  139MOL0     H18728   7.255   5.290   0.825  0.1836 -3.7507 -0.1530
  139MOL0     H18729   7.344   4.819   0.704 -2.2741  3.3831  3.8589
  139MOL0     H18730   7.453   4.754   0.485  3.2624  1.0512  0.8363
  139MOL0     H18731   7.481   4.698   0.295 -5.0780 -1.6866  0.4840
  139MOL0     H18732   7.369   4.733   0.174 -1.2846  1.0216 -0.0023
  139MOL0     H18733   7.594   4.625   0.106  0.5115 -0.1900  0.1816
  139MOL0     H18734   7.555   4.777   0.018  0.4540  0.6226 -0.8773
  139MOL0     H18735   7.726   4.804   0.265  2.5257  5.2728  0.7499
  139MOL0     H18736   7.721   4.917   0.147 -0.1472  0.0050  1.3270
  139MOL0     H18737   7.843   4.640   0.108  0.6490 -0.7573  2.6796
  139MOL0     H18738   7.828   4.777  -0.001 -0.5222 -0.1183  0.3301
  139MOL0     H18739   8.064   4.755   0.104 -0.6000 -0.7658  0.2658
  139MOL0     H18740   7.991   4.781   0.256  0.8568 -1.9897 -1.3334
  139MOL0     H18741   8.017   4.965   0.001 -1.1600  5.3069  0.5998
  139MOL0     H18742   7.921   5.019   0.138  1.2703  1.2160  3.6308
  139MOL0     H18743   8.148   5.124   0.151 -2.2736 -0.0491 -2.1818
  139MOL0     H18744   8.228   4.969   0.118 -0.5054 -0.7366 -0.1416
  139MOL0     H18745   8.137   4.888   0.345 -0.1235 -0.6338 -1.9592
  139MOL0     H18746   8.068   5.057   0.363 -1.6883 -1.4187 -0.0772
  139MOL0     H18747   7.448   5.142   0.339  3.9846  2.2883  2.5446
  139MOL0     H18748   7.326   5.225   0.551 -0.5898 -0.5967  0.9064
  139MOL0     H18749   7.404   4.952   1.138  0.4822  0.0398 -1.8446
  139MOL0     H18750   7.346   5.071   1.353 -1.6014 -1.2121  0.8196
  139MOL0     H18751   7.152   6.550   1.804  0.9659  1.7240 -1.2552
  139MOL0     H18752   7.203   6.599   1.585  0.1097 -0.5185 -2.0180
  139MOL0     H18753   7.122   6.292   1.100 -4.1020  1.9276 -0.3100
  139MOL0     H18754   7.330   6.320   0.941 -1.5041 -0.7877 -1.0919
  139MOL0     H18755   7.541   6.407   0.863 -0.8059  0.2856 -0.3161
  139MOL0     H18756   7.411   6.378   0.754  4.7156 -4.5582 -0.9933
  139MOL0     H18757   7.561   6.412   0.601  2.6138 -1.4404  0.3304
  139MOL0     H18758   7.670   6.497   0.708 -1.1396  0.3493  1.5545
  139MOL0     H18759   7.557   6.707   0.652  1.2120  0.9613 -2.3290
  139MOL0     H18760   7.416   6.619   0.582 -0.1441  1.3597  0.3100
  139MOL0     H18761   7.568   6.522   0.403  1.2819 -0.7705  1.6170
  139MOL0     H18762   7.694   6.648   0.447  0.8392  0.7111  3.1106
  139MOL0     H18763   7.406   6.907   0.265 -0.2693  3.8187  4.7640
  139MOL0     H18764   7.341   6.736   1.036 -2.5366  0.9482 -0.4003
  139MOL0     H18765   7.198   6.692   1.234 -4.4327 -3.9925  2.2794
  140MOL0     O18766   8.627   1.837   7.300 -0.5848  0.2029  0.6457
  140MOL0     C18767   8.636   1.823   7.418  0.1541 -0.0103 -1.3693
  140MOL0     O18768   8.747   1.765   7.486  0.4478  0.1201 -0.1004
  140MOL0     C18769   8.861   1.758   7.402  0.4030 -0.5671  0.5777
  140MOL0     C18770   8.871   1.683   7.284 -0.3138 -0.2964 -0.8997
  140MOL0     C18771   8.979   1.692   7.200  0.4892  0.1560  0.1866
  140MOL0     C18772   9.095   1.768   7.238 -0.4223 -0.3441 -0.6650
  140MOL0     O18773   9.208   1.812   7.166  0.5582  0.1557  0.2214
  140MOL0     C18774   9.193   1.812   7.021  0.0221 -0.1025 -0.3805
  140MOL0     C18775   9.289   1.710   6.972  0.7748  0.6946  1.0191
  140MOL0     C18776   9.273   1.696   6.820  0.8308  0.0421 -0.5438
  140MOL0     C18777   9.382   1.615   6.755  0.3135 -0.0343  1.4830
  140MOL0     C18778   9.402   1.655   6.610 -0.4248 -0.2323 -0.2275
  140MOL0     C18779   9.294   1.625   6.514  0.9048  0.1940 -0.6217
  140MOL0     C18780   9.281   1.474   6.482 -0.4695  0.1071  0.4574
  140MOL0     C18781   9.157   1.410   6.538  0.7110 -0.0179  1.2366
  140MOL0     N18782   9.148   1.265   6.527 -0.3208 -0.1609  0.4335
  140MOL0     C18783   9.238   1.180   6.586 -0.5184  0.7130 -0.1931
  140MOL0     C18784   9.167   1.058   6.581 -0.1494 -0.8507  0.5810
  140MOL0     C18785   9.225   0.924   6.617 -0.3807 -0.5218  0.5326
  140MOL0     C18786   9.322   0.869   6.510 -1.0148  0.3462 -1.7712
  140MOL0     C18787   9.300   0.884   6.356 -0.1832  0.6012  0.1542
  140MOL0     C18788   9.164   0.840   6.316  0.7930 -0.3734  0.3829
  140MOL0     O18789   9.161   0.701   6.342  0.6270  0.4168  0.1943
  140MOL0     C18790   9.057   0.614   6.317 -0.4707 -0.4782 -0.2341
  140MOL0     C18791   8.949   0.658   6.246 -0.0313  0.4119  0.4283
  140MOL0     C18792   8.842   0.569   6.231 -0.3372 -0.2805 -0.0818
  140MOL0     C18793   8.717   0.627   6.168 -0.3022  0.3123 -0.1624
  140MOL0     C18794   8.854   0.435   6.271 -0.0365 -0.3834 -0.1375
  140MOL0     C18795   8.747   0.329   6.248 -0.4070  0.1084  0.3923
  140MOL0     O18796   8.781   0.201   6.300 -0.0525  0.0552  0.5889
  140MOL0     C18797   8.676   0.113   6.292  1.1778 -0.3693  0.1344
  140MOL0     C18798   8.656   0.010   6.208 -0.2702 -0.6065 -0.3522
  140MOL0     C18799   8.545  -0.080   6.218  0.9879  0.1787  0.5298
  140MOL0     C18800   8.448  -0.061   6.319 -0.3511  0.8378  0.3975
  140MOL0     O18801   8.339  -0.142   6.332  0.2890  0.0592  0.2045
  140MOL0     C18802   8.216  -0.066   6.308 -0.0536  0.2147  0.2290
  140MOL0     C18803   8.096  -0.164   6.263  0.0934  0.2363  0.5892
  140MOL0     C18804   8.137  -0.278   6.164  0.7418  1.1009 -0.2288
  140MOL0     C18805   8.045  -0.402   6.189 -0.0950  0.1089  0.2004
  140MOL0     C18806   8.088  -0.521   6.098  0.2190 -1.4413  0.2217
  140MOL0     C18807   8.222  -0.580   6.129  0.1547 -0.3871 -0.1248
  140MOL0     C18808   8.264  -0.678   6.023 -0.4568 -0.7662 -0.0752
  140MOL0     C18809   8.390  -0.772   6.052 -0.6752  0.0651 -0.7123
  140MOL0    Cl18810   8.519  -0.684   6.120 -0.1652 -0.5649  0.1244
  140MOL0     C18811   8.475   0.041   6.421  0.2300 -1.0480  0.1176
  140MOL0     C18812   8.583   0.125   6.399  0.0916  0.3899  0.2921
  140MOL0     O18813   8.652   0.353   6.174  1.1111 -0.4546  0.2115
  140MOL0     C18814   8.972   0.392   6.336 -1.2023 -0.1312  0.9894
  140MOL0     C18815   9.064   0.485   6.373 -0.1986 -0.1098 -0.7275
  140MOL0     N18816   9.035   1.081   6.544  0.1457  0.0856 -0.3380
  140MOL0     N18817   9.028   1.201   6.504 -0.3016 -0.5513 -0.5087
  140MOL0     C18818   9.085   1.839   7.362  0.1494  0.0296 -0.8814
  140MOL0     C18819   8.967   1.838   7.444  0.8261  0.0942 -0.7791
  140MOL0     C18820   8.519   1.856   7.502 -0.6966  0.0745  0.0040
  140MOL0     C18821   8.401   1.897   7.446 -0.4219  0.6386  0.7975
  140MOL0     C18822   8.286   1.928   7.517  0.8817 -0.1516 -0.5362
  140MOL0     C18823   8.285   1.910   7.656  1.0303  0.1584  0.5115
  140MOL0     O18824   8.172   1.957   7.712 -0.3598  0.3886 -0.0104
  140MOL0     C18825   8.179   2.040   7.828  0.1585  1.0840  0.3631
  140MOL0     C18826   8.044   2.069   7.893  0.6100 -0.3235 -1.0374
  140MOL0     C18827   8.022   2.042   8.042 -0.5865 -0.2156 -0.5672
  140MOL0     C18828   8.153   2.047   8.136 -0.3266  0.0331  0.6394
  140MOL0     C18829   8.218   2.178   8.122 -0.5734 -0.7877 -0.0826
  140MOL0     C18830   8.260   2.292   8.116 -0.0213 -0.1609 -0.8519
  140MOL0     C18831   8.405   1.871   7.721 -0.5363  0.3973  0.0862
  140MOL0     C18832   8.521   1.848   7.640 -0.1678 -0.4860 -0.5513
  140MOL0     H18833   8.776   1.645   7.248 -2.0090  2.5139  0.2678
  140MOL0     H18834   8.969   1.635   7.108  3.0898 -0.8282  0.4459
  140MOL0     H18835   9.094   1.790   6.981 -0.8757  0.3282  1.4734
  140MOL0     H18836   9.230   1.914   7.006  0.1882 -0.0782  0.1496
  140MOL0     H18837   9.396   1.733   6.983  1.3910  0.1109 -2.4120
  140MOL0     H18838   9.286   1.608   7.011  0.1776  0.0165 -0.6826
  140MOL0     H18839   9.176   1.658   6.788  0.6108  0.2671 -0.1525
  140MOL0     H18840   9.267   1.797   6.778 -3.8408  0.5957  0.9570
  140MOL0     H18841   9.476   1.635   6.807  0.8276 -0.2449  0.6503
  140MOL0     H18842   9.354   1.510   6.757 -0.8620  0.2668  1.5621
  140MOL0     H18843   9.434   1.759   6.599 -1.2017 -0.2578 -4.3147
  140MOL0     H18844   9.496   1.602   6.590  0.0395  1.1875 -2.1808
  140MOL0     H18845   9.201   1.673   6.547  2.1184  0.5525  2.6661
  140MOL0     H18846   9.323   1.678   6.423 -0.3883 -0.0126 -1.1713
  140MOL0     H18847   9.284   1.469   6.372  0.6903  1.3024  0.4151
  140MOL0     H18848   9.368   1.420   6.521 -0.0025 -1.9530 -2.9335
  140MOL0     H18849   9.072   1.446   6.479  1.1174 -1.2854 -0.1788
  140MOL0     H18850   9.138   1.430   6.643 -0.2457 -1.5692  1.3826
  140MOL0     H18851   9.342   1.186   6.616 -0.0396  1.9379 -1.9443
  140MOL0     H18852   9.281   0.924   6.711  0.2963 -1.9560  0.1593
  140MOL0     H18853   9.142   0.854   6.626 -0.0470 -0.7943  1.5622
  140MOL0     H18854   9.317   0.761   6.523 -2.8056  0.6691  1.0031
  140MOL0     H18855   9.427   0.889   6.535 -1.2514 -1.5104  1.2097
  140MOL0     H18856   9.378   0.828   6.305  0.1685  1.0759  0.1655
  140MOL0     H18857   9.316   0.988   6.323 -1.1554  0.6445 -0.2311
  140MOL0     H18858   9.158   0.871   6.212  3.3849  0.0173  0.2916
  140MOL0     H18859   9.085   0.897   6.367  2.2287  1.6167  0.5169
  140MOL0     H18860   8.943   0.754   6.197 -1.6814  0.2226  0.2000
  140MOL0     H18861   8.635   0.589   6.229  0.9223 -2.1896  0.0375
  140MOL0     H18862   8.721   0.736   6.183  3.5293  0.2239  0.5852
  140MOL0     H18863   8.708   0.616   6.059 -0.6463  1.8323 -0.3157
  140MOL0     H18864   8.723  -0.008   6.125 -0.9006 -1.5856 -0.6705
  140MOL0     H18865   8.522  -0.160   6.149  2.4664  0.1824 -0.0082
  140MOL0     H18866   8.193  -0.014   6.401  2.1178  1.8090 -0.0289
  140MOL0     H18867   8.234   0.008   6.229  1.6974  1.2713  1.5288
  140MOL0     H18868   8.048  -0.215   6.347 -0.1318 -1.6794 -0.6424
  140MOL0     H18869   8.025  -0.103   6.206 -2.0489 -1.1026  1.6884
  140MOL0     H18870   8.243  -0.304   6.169  0.1111 -1.9372 -0.4831
  140MOL0     H18871   8.113  -0.256   6.059 -3.3675  0.0233  0.3050
  140MOL0     H18872   8.054  -0.430   6.294  2.4444  2.0425  0.6113
  140MOL0     H18873   7.941  -0.375   6.169  0.4292 -0.1153 -3.5406
  140MOL0     H18874   8.097  -0.468   6.004  1.3348  0.0221  1.1114
  140MOL0     H18875   8.012  -0.600   6.092  0.5606 -1.7445 -0.2578
  140MOL0     H18876   8.294  -0.498   6.130 -0.7523  0.4325  1.1863
  140MOL0     H18877   8.209  -0.622   6.230  1.0265 -2.2473 -0.7359
  140MOL0     H18878   8.283  -0.614   5.937  0.0091 -1.0464 -0.1873
  140MOL0     H18879   8.174  -0.736   6.001 -1.5213  1.2020 -1.1311
  140MOL0     H18880   8.416  -0.827   5.962  2.6084 -0.1399  0.2162
  140MOL0     H18881   8.359  -0.840   6.132 -0.4767 -0.1863 -0.8472
  140MOL0     H18882   8.425   0.059   6.516  1.9874  0.0431  0.8715
  140MOL0     H18883   8.605   0.211   6.462  0.4926  2.1030 -2.0347
  140MOL0     H18884   8.983   0.290   6.373  1.8448 -1.0000 -1.9067
  140MOL0     H18885   9.155   0.462   6.427 -0.3187 -0.1899 -0.5604
  140MOL0     H18886   9.169   1.900   7.395  0.8895 -2.3854  2.2400
  140MOL0     H18887   8.965   1.885   7.542 -0.3956 -0.2084 -0.6495
  140MOL0     H18888   8.403   1.906   7.338 -3.1582 -2.6258  0.2821
  140MOL0     H18889   8.210   1.988   7.469  1.7241 -0.0028 -1.7352
  140MOL0     H18890   8.250   1.986   7.891  1.1169  0.7752 -0.9303
  140MOL0     H18891   8.235   2.132   7.812  1.8877  0.1495  0.8108
  140MOL0     H18892   7.962   2.025   7.834  0.9010  2.2202 -3.5932
  140MOL0     H18893   8.013   2.173   7.885  0.9509 -0.2144 -0.9023
  140MOL0     H18894   7.970   1.946   8.040 -0.8861 -0.1003 -3.5899
  140MOL0     H18895   7.957   2.123   8.075  0.4694 -0.4794  2.5050
  140MOL0     H18896   8.225   1.976   8.094  1.1662  1.5425  0.5401
  140MOL0     H18897   8.139   2.040   8.244 -0.4287  2.8241  0.8966
  140MOL0     H18898   8.303   2.389   8.112 -1.4676  0.6846  1.8480
  140MOL0     H18899   8.404   1.853   7.828  1.0350  0.6633  0.1704
  140MOL0     H18900   8.613   1.832   7.695 -0.9514 -1.9862  0.3988
  141MOL0     O18901   3.861   6.587   0.927 -0.5446  0.1593  0.4083
  141MOL0     C18902   3.760   6.520   0.907  0.5003  0.3905  0.3326
  141MOL0     O18903   3.730   6.395   0.976  0.5924  0.2048  0.1787
  141MOL0     C18904   3.818   6.328   1.055 -0.0285  0.0275  0.2064
  141MOL0     C18905   3.948   6.355   1.064 -0.8643  0.3530 -0.3276
  141MOL0     C18906   4.041   6.272   1.126  0.7863 -0.0756 -0.9177
  141MOL0     C18907   3.994   6.161   1.205  0.2825 -0.4167 -0.3514
  141MOL0     O18908   4.081   6.092   1.280 -0.4087 -0.7415 -0.7695
  141MOL0     C18909   4.155   5.993   1.219  0.0933  1.4889 -0.1058
  141MOL0     C18910   4.203   5.904   1.334  0.4184  0.3792  0.4245
  141MOL0     C18911   4.094   5.838   1.423 -0.5474 -0.6371  0.0238
  141MOL0     C18912   3.994   5.762   1.337 -0.1233  0.5810 -0.6637
  141MOL0     C18913   3.914   5.691   1.442  0.2902 -0.4404 -0.0951
  141MOL0     C18914   3.770   5.648   1.385  0.0644 -0.3358  0.1496
  141MOL0     C18915   3.683   5.583   1.494  0.4967 -0.1050  0.5968
  141MOL0     C18916   3.628   5.679   1.596  0.2947  0.1098  0.3463
  141MOL0     N18917   3.552   5.796   1.544  0.5662  1.3047 -0.5011
  141MOL0     C18918   3.605   5.927   1.518  0.4332 -0.3637  0.8000
  141MOL0     C18919   3.509   5.997   1.454 -0.7754 -0.1518  0.7643
  141MOL0     C18920   3.520   6.140   1.424  0.2129 -0.3775  0.0965
  141MOL0     C18921   3.480   6.224   1.553 -0.4124  0.1787  0.6693
  141MOL0     C18922   3.511   6.373   1.533 -0.1711  0.2148 -1.0632
  141MOL0     C18923   3.510   6.453   1.659  0.2296  0.4271 -0.5179
  141MOL0     O18924   3.390   6.453   1.733  0.4856 -0.4017 -0.1367
  141MOL0     C18925   3.397   6.494   1.868  0.9413  0.2471 -0.1432
  141MOL0     C18926   3.309   6.439   1.959  1.1638 -0.5549 -0.8827
  141MOL0     C18927   3.308   6.473   2.090 -0.5301  1.0422 -0.1551
  141MOL0     C18928   3.189   6.424   2.172  0.1862  0.1431 -0.3922
  141MOL0     C18929   3.400   6.575   2.129 -0.2103  0.3929 -0.1561
  141MOL0     C18930   3.415   6.620   2.278 -0.2568 -0.2279 -0.0791
  141MOL0     O18931   3.489   6.733   2.295 -0.1706  0.6257  0.3455
  141MOL0     C18932   3.535   6.760   2.424  0.1441 -0.0697  0.0502
  141MOL0     C18933   3.661   6.702   2.445  0.3304 -0.5726  0.5151
  141MOL0     C18934   3.726   6.733   2.560 -0.8388 -0.0417  0.0864
  141MOL0     C18935   3.674   6.815   2.656 -0.5693 -0.3979 -0.2215
  141MOL0     O18936   3.749   6.865   2.759 -0.3606 -0.6951  0.7233
  141MOL0     C18937   3.734   6.806   2.882  0.4343 -0.2126 -0.5280
  141MOL0     C18938   3.646   6.889   2.976 -0.3732 -0.6962 -0.4601
  141MOL0     C18939   3.706   7.029   3.010  0.9020 -0.2181  0.8348
  141MOL0     C18940   3.649   7.079   3.137 -0.9118  0.2590  0.3646
  141MOL0     C18941   3.688   7.214   3.182 -0.6740  0.2272 -0.3530
  141MOL0     C18942   3.617   7.328   3.107  0.3300  1.0231 -0.1469
  141MOL0     C18943   3.621   7.464   3.183 -1.3916 -0.1091 -0.0603
  141MOL0     C18944   3.548   7.570   3.103  0.2283  0.7925  0.3434
  141MOL0    Cl18945   3.635   7.632   2.959 -0.3585 -0.0748 -0.0382
  141MOL0     C18946   3.542   6.874   2.634 -0.2185  0.1748  0.6157
  141MOL0     C18947   3.474   6.846   2.515 -0.2355  0.2123 -1.1452
  141MOL0     O18948   3.371   6.551   2.375  0.0816 -0.0402  0.5372
  141MOL0     C18949   3.488   6.632   2.041  0.2627  0.4176  0.3247
  141MOL0     C18950   3.491   6.588   1.907 -0.2812 -0.3793 -0.4735
  141MOL0     N18951   3.399   5.911   1.446  0.1832  1.0353  0.0386
  141MOL0     N18952   3.422   5.798   1.501  0.2270  0.2750  0.2776
  141MOL0     C18953   3.859   6.136   1.201  0.4546 -0.4873  0.6493
  141MOL0     C18954   3.771   6.213   1.123  0.5094 -0.3736 -0.0714
  141MOL0     C18955   3.659   6.566   0.814  0.1785  0.8498  0.5787
  141MOL0     C18956   3.555   6.489   0.764  0.3769  0.2981  0.1429
  141MOL0     C18957   3.465   6.534   0.669 -0.1479  0.8377 -0.3642
  141MOL0     C18958   3.460   6.668   0.627  0.4308  0.1302  0.4541
  141MOL0     O18959   3.373   6.694   0.525  1.0082  0.6023 -1.1792
  141MOL0     C18960   3.348   6.826   0.486  0.1796 -0.0644 -0.5822
  141MOL0     C18961   3.248   6.855   0.382  0.0134  0.9962  0.5039
  141MOL0     C18962   3.283   6.798   0.240 -0.0202  0.2767 -0.3621
  141MOL0     C18963   3.194   6.844   0.123  0.1514 -0.1573  0.6617
  141MOL0     C18964   3.219   6.993   0.107 -0.1022 -0.2446 -0.4043
  141MOL0     C18965   3.259   7.109   0.120 -0.3838  0.3232  0.2674
  141MOL0     C18966   3.556   6.751   0.676 -0.7625  0.3074 -0.4810
  141MOL0     C18967   3.653   6.693   0.768 -0.5739 -0.4945 -0.6137
  141MOL0     H18968   4.001   6.437   1.016  2.4383 -2.3172 -1.6722
  141MOL0     H18969   4.146   6.294   1.141  1.7828 -2.0996 -4.0354
  141MOL0     H18970   4.103   5.937   1.141 -0.3384  0.5943  0.7978
  141MOL0     H18971   4.246   6.039   1.180  0.6028  0.2467 -0.4267
  141MOL0     H18972   4.263   5.825   1.287 -0.1327 -0.3152  0.8613
  141MOL0     H18973   4.271   5.968   1.392 -0.5463  0.2852  1.7091
  141MOL0     H18974   4.145   5.777   1.498  2.8404  0.0954 -1.4839
  141MOL0     H18975   4.036   5.914   1.476 -3.7925 -2.1676 -1.1188
  141MOL0     H18976   3.935   5.833   1.278 -4.0697 -0.5870  1.5213
  141MOL0     H18977   4.047   5.679   1.288 -1.0674 -0.1783 -0.4200
  141MOL0     H18978   3.972   5.604   1.477  2.1401  0.6072 -0.4236
  141MOL0     H18979   3.891   5.753   1.529 -0.3264 -0.7486 -0.0298
  141MOL0     H18980   3.716   5.729   1.335 -1.2276 -0.3091  1.5128
  141MOL0     H18981   3.792   5.574   1.308  1.0687 -1.8673  1.8322
  141MOL0     H18982   3.587   5.551   1.452  0.3194  0.2979  0.6842
  141MOL0     H18983   3.730   5.494   1.536  0.8474  1.1712  3.0627
  141MOL0     H18984   3.713   5.714   1.656 -2.1104  2.6033  2.5619
  141MOL0     H18985   3.556   5.629   1.662  1.9559 -0.6456  1.6704
  141MOL0     H18986   3.703   5.958   1.553  0.5547 -1.3021  1.3505
  141MOL0     H18987   3.617   6.168   1.382 -0.4922 -0.9837 -2.1222
  141MOL0     H18988   3.456   6.168   1.339  1.7571  0.0186 -0.9898
  141MOL0     H18989   3.537   6.187   1.639 -0.2189 -1.4505 -0.1356
  141MOL0     H18990   3.373   6.203   1.559 -0.2116 -2.0691 -1.8305
  141MOL0     H18991   3.438   6.404   1.458 -1.4099 -1.1016 -0.4517
  141MOL0     H18992   3.614   6.374   1.495 -0.1971  2.6167 -1.2025
  141MOL0     H18993   3.542   6.555   1.635  1.6243 -0.2470 -1.7122
  141MOL0     H18994   3.590   6.413   1.721 -2.0498 -0.9866  1.7005
  141MOL0     H18995   3.230   6.375   1.923 -3.5109  3.0449  1.8709
  141MOL0     H18996   3.218   6.372   2.264 -0.7336 -0.9894 -0.7253
  141MOL0     H18997   3.127   6.509   2.199  1.2541  1.8804 -2.9860
  141MOL0     H18998   3.136   6.352   2.108 -3.5534  0.3355  2.1850
  141MOL0     H18999   3.699   6.651   2.357 -2.9474 -1.0036 -0.7722
  141MOL0     H19000   3.827   6.694   2.569  0.6945  2.6962 -2.9535
  141MOL0     H19001   3.694   6.706   2.865  0.0888  0.3235 -3.3019
  141MOL0     H19002   3.834   6.803   2.927  1.4775 -1.0278 -2.7480
  141MOL0     H19003   3.541   6.895   2.944 -0.7173  2.4544  0.9116
  141MOL0     H19004   3.645   6.830   3.068 -0.8360 -2.3764 -1.4893
  141MOL0     H19005   3.677   7.096   2.928 -0.5292  1.4282  2.6045
  141MOL0     H19006   3.814   7.024   3.031  0.7728  3.0078  3.0462
  141MOL0     H19007   3.540   7.075   3.132 -1.0060  2.1858  0.4769
  141MOL0     H19008   3.688   7.006   3.210 -2.0794 -1.3817 -0.5825
  141MOL0     H19009   3.796   7.232   3.183 -0.3962 -1.3520  0.8143
  141MOL0     H19010   3.659   7.195   3.285  0.7211 -2.6248 -0.3789
  141MOL0     H19011   3.650   7.336   3.003 -1.8463  0.3824 -0.9324
  141MOL0     H19012   3.515   7.290   3.111  0.1861  1.5084  2.9929
  141MOL0     H19013   3.722   7.501   3.198 -1.5495  0.0247  0.6943
  141MOL0     H19014   3.567   7.438   3.274 -1.0475  1.5862  0.6486
  141MOL0     H19015   3.517   7.657   3.162 -1.3492  1.8674 -1.9349
  141MOL0     H19016   3.459   7.522   3.062  0.6643 -0.5326  0.8917
  141MOL0     H19017   3.495   6.943   2.704 -4.0162 -2.2723  0.7873
  141MOL0     H19018   3.385   6.903   2.488 -0.8022 -1.3014 -2.7135
  141MOL0     H19019   3.559   6.711   2.062  0.4337  1.1454 -2.5104
  141MOL0     H19020   3.573   6.633   1.851 -1.8935  3.4345 -0.0454
  141MOL0     H19021   3.819   6.064   1.272  2.5730 -0.6808  1.7111
  141MOL0     H19022   3.665   6.196   1.114  0.5903 -0.6918 -0.4246
  141MOL0     H19023   3.560   6.382   0.780  3.9430  0.4975  1.0422
  141MOL0     H19024   3.395   6.464   0.624 -1.4374  1.4629  0.6202
  141MOL0     H19025   3.325   6.874   0.582 -1.1606  0.2169 -1.0280
  141MOL0     H19026   3.443   6.869   0.454  0.6345  1.6097  2.6327
  141MOL0     H19027   3.253   6.963   0.371  1.4093  0.8047 -1.2552
  141MOL0     H19028   3.147   6.820   0.409  0.5747 -0.9779  0.2186
  141MOL0     H19029   3.272   6.690   0.247  2.8781 -0.0195  1.2704
  141MOL0     H19030   3.388   6.826   0.227  0.7814 -2.4639 -0.2802
  141MOL0     H19031   3.087   6.824   0.132 -0.2450  0.6406 -1.4935
  141MOL0     H19032   3.226   6.795   0.030 -2.9573 -0.7801 -0.1730
  141MOL0     H19033   3.284   7.213   0.119 -0.2450  0.3127  1.3495
  141MOL0     H19034   3.574   6.857   0.661  3.0208 -0.2949 -1.3794
  141MOL0     H19035   3.724   6.764   0.808  2.5340 -2.2082 -2.6724
  142MOL0     O19036   5.234   9.482  10.053  0.0870 -0.0771 -0.8470
  142MOL0     C19037   5.113   9.504  10.038  0.0599 -0.0410 -0.2400
  142MOL0     O19038   5.043   9.506   9.917 -0.4018 -0.3171  0.1481
  142MOL0     C19039   5.099   9.489   9.784 -0.2451  0.3320 -0.4504
  142MOL0     C19040   5.008   9.422   9.684  1.4588 -0.7224  0.1406
  142MOL0     C19041   5.060   9.378   9.563 -0.6776 -0.3594 -0.0402
  142MOL0     C19042   5.196   9.386   9.526  0.4598 -0.1651 -0.6246
  142MOL0     O19043   5.233   9.341   9.399  0.6487  0.1586 -0.4610
  142MOL0     C19044   5.368   9.333   9.348 -0.2485  0.4303 -0.2359
  142MOL0     C19045   5.419   9.473   9.314  0.4452 -0.1604 -0.6944
  142MOL0     C19046   5.569   9.469   9.286 -0.4342  0.4602  0.1460
  142MOL0     C19047   5.631   9.611   9.243  0.0357 -0.5074  0.6150
  142MOL0     C19048   5.779   9.617   9.184  0.2696  0.3328  0.3629
  142MOL0     C19049   5.779   9.530   9.053 -1.2941  0.1978 -0.7828
  142MOL0     C19050   5.912   9.540   8.983  0.1225  0.1238  0.9364
  142MOL0     C19051   5.935   9.680   8.919 -0.2942  0.5779 -0.0410
  142MOL0     N19052   5.828   9.739   8.838  0.5376  0.3469 -0.2393
  142MOL0     C19053   5.781   9.679   8.720  0.1043 -0.8964 -0.3469
  142MOL0     C19054   5.677   9.761   8.690 -0.1675 -0.4590  0.7791
  142MOL0     C19055   5.583   9.751   8.578  0.4372  0.1445  0.1210
  142MOL0     C19056   5.575   9.884   8.495  0.5682  0.1423 -0.4126
  142MOL0     C19057   5.450   9.967   8.530 -0.4693 -0.0288 -0.2572
  142MOL0     C19058   5.317   9.918   8.479 -0.8192  0.7961 -0.4546
  142MOL0     O19059   5.221  10.024   8.511 -0.4159  1.1356 -0.3009
  142MOL0     C19060   5.090  10.010   8.467  0.4302 -0.7940  0.0245
  142MOL0     C19061   5.055   9.923   8.366 -0.2041  0.2589 -1.1296
  142MOL0     C19062   4.930   9.929   8.307 -0.5057  0.3315  0.3922
  142MOL0     C19063   4.914   9.847   8.181  0.4647  0.7273 -0.3145
  142MOL0     C19064   4.833  10.003   8.379  0.1706  0.4406  0.1263
  142MOL0     C19065   4.694   9.982   8.341 -0.9895  0.5584  0.4354
  142MOL0     O19066   4.639  10.096   8.279  0.8042  0.6069  0.4469
  142MOL0     C19067   4.525  10.063   8.216 -0.2369  0.6131  0.8449
  142MOL0     C19068   4.538  10.061   8.080  0.2482 -0.2123 -0.7715
  142MOL0     C19069   4.423  10.021   8.010 -0.7556  0.0979 -0.1463
  142MOL0     C19070   4.300   9.991   8.065 -0.4579 -0.0906  0.0337
  142MOL0     O19071   4.197   9.954   7.985 -0.1942  0.1227  0.4928
  142MOL0     C19072   4.087   9.893   8.044  0.7014 -0.5156  0.4502
  142MOL0     C19073   3.975   9.877   7.938  0.0722  1.1995  0.9193
  142MOL0     C19074   4.017   9.781   7.822 -0.0582 -0.1203 -0.1407
  142MOL0     C19075   3.892   9.724   7.746 -0.2199 -0.4806 -1.1022
  142MOL0     C19076   3.940   9.639   7.626  0.1667 -0.3742 -0.8200
  142MOL0     C19077   3.821   9.586   7.539  0.1058 -0.2612 -0.7570
  142MOL0     C19078   3.741   9.470   7.612 -0.1312 -0.6380  0.9157
  142MOL0     C19079   3.696   9.361   7.509 -1.1421 -0.2920 -1.0507
  142MOL0    Cl19080   3.834   9.287   7.421  0.2538 -0.1491  0.2335
  142MOL0     C19081   4.296   9.986   8.205  0.1083 -0.3467  0.0574
  142MOL0     C19082   4.401  10.031   8.284  0.2666  1.0153  0.7319
  142MOL0     O19083   4.646   9.871   8.364 -0.0000  0.7024  0.8309
  142MOL0     C19084   4.867  10.080   8.490  0.6920 -0.1266 -0.0082
  142MOL0     C19085   5.002  10.091   8.524  0.8677 -0.2095 -0.2856
  142MOL0     N19086   5.649   9.842   8.793 -0.5990  0.9218 -0.7345
  142MOL0     N19087   5.737   9.832   8.882 -0.2112  0.5284 -0.0764
  142MOL0     C19088   5.278   9.448   9.627  0.3198 -0.2301  0.1637
  142MOL0     C19089   5.230   9.495   9.747  0.5489 -0.1564 -0.6293
  142MOL0     C19090   5.023   9.543  10.154 -0.3567  0.3310 -0.8282
  142MOL0     C19091   5.065   9.605  10.275  0.1423 -0.2726  0.2697
  142MOL0     C19092   4.971   9.634  10.379  0.0722  0.0321 -0.1309
  142MOL0     C19093   4.842   9.597  10.361 -0.4273 -0.2196  0.1300
  142MOL0     O19094   4.755   9.619  10.457 -0.4258  0.5034  0.4274
  142MOL0     C19095   4.630   9.685  10.414  0.4545 -0.0665 -0.0858
  142MOL0     C19096   4.522   9.681  10.524 -0.6040  0.1017  0.8143
  142MOL0     C19097   4.531   9.552  10.615  0.7573  0.4143  0.9446
  142MOL0     C19098   4.510   9.432  10.527  0.3599  0.7485 -0.0111
  142MOL0     C19099   4.371   9.410  10.499  0.1811 -0.8401 -0.7369
  142MOL0     C19100   4.249   9.374  10.476 -0.7351  0.6644 -0.2558
  142MOL0     C19101   4.807   9.524  10.249  0.6748  0.3417 -0.3890
  142MOL0     C19102   4.897   9.485  10.156 -0.4425  0.2796  0.2549
  142MOL0     H19103   4.901   9.409   9.697  1.2272  0.0737 -0.8773
  142MOL0     H19104   5.007   9.328   9.483  1.7205 -0.2933 -1.7672
  142MOL0     H19105   5.430   9.287   9.426 -3.5649  1.1370  3.1606
  142MOL0     H19106   5.373   9.276   9.255  5.0264  2.3469 -1.4843
  142MOL0     H19107   5.356   9.502   9.229  0.1638 -0.1943 -0.5005
  142MOL0     H19108   5.389   9.545   9.391 -1.2957 -2.3617  0.8112
  142MOL0     H19109   5.622   9.443   9.379 -0.0772  1.1688  0.1465
  142MOL0     H19110   5.598   9.387   9.220  0.4187  0.4617  0.4975
  142MOL0     H19111   5.564   9.654   9.168  1.3301  0.6137  0.0543
  142MOL0     H19112   5.624   9.679   9.328  0.3231 -1.1441  1.1578
  142MOL0     H19113   5.793   9.722   9.156 -3.6240  1.2009  1.0311
  142MOL0     H19114   5.846   9.582   9.263  0.9734 -1.2777 -0.8904
  142MOL0     H19115   5.759   9.427   9.083  2.5272 -0.1621  1.1314
  142MOL0     H19116   5.696   9.571   8.994 -1.6768 -0.6568 -0.8440
  142MOL0     H19117   5.989   9.503   9.051 -2.1255  0.1006  3.6437
  142MOL0     H19118   5.915   9.476   8.894 -1.5950  1.2460  0.0235
  142MOL0     H19119   6.025   9.673   8.858 -0.7994  6.0040 -2.0197
  142MOL0     H19120   5.958   9.744   9.004 -1.3543  0.1981  0.5503
  142MOL0     H19121   5.817   9.601   8.653 -1.8567 -1.7228 -0.4975
  142MOL0     H19122   5.620   9.667   8.518 -2.4340  0.1941 -1.9225
  142MOL0     H19123   5.482   9.734   8.618  0.2206 -1.0148 -0.8726
  142MOL0     H19124   5.578   9.861   8.388  3.1072  0.0449 -0.3854
  142MOL0     H19125   5.663   9.942   8.524 -0.6495  1.2310  1.2606
  142MOL0     H19126   5.467  10.067   8.489  1.0084 -1.4613 -3.5169
  142MOL0     H19127   5.448   9.976   8.639 -1.1189  1.3804 -0.3715
  142MOL0     H19128   5.282   9.822   8.518  0.5993  0.8123  0.9263
  142MOL0     H19129   5.317   9.904   8.370 -2.6820 -1.7328 -0.2326
  142MOL0     H19130   5.140   9.860   8.341  1.1404  1.3335  0.5110
  142MOL0     H19131   5.013   9.824   8.143  0.5719  0.1859  0.2802
  142MOL0     H19132   4.866   9.753   8.210  2.3366 -0.4675 -0.9129
  142MOL0     H19133   4.859   9.894   8.099  1.7244  1.6568 -0.6404
  142MOL0     H19134   4.631  10.070   8.025  0.0164 -4.7351 -2.3418
  142MOL0     H19135   4.436  10.023   7.902  1.2150 -2.0097 -0.0306
  142MOL0     H19136   4.104   9.798   8.096  0.7769 -1.7508 -1.6960
  142MOL0     H19137   4.047   9.963   8.117 -0.8310  0.5670 -1.3342
  142MOL0     H19138   3.887   9.834   7.986 -0.2205  0.7701  0.0075
  142MOL0     H19139   3.944   9.977   7.905 -0.1883  0.0519 -2.6893
  142MOL0     H19140   4.076   9.701   7.866  0.0637  0.1700  0.2274
  142MOL0     H19141   4.098   9.823   7.763  2.3543 -0.0227  2.9585
  142MOL0     H19142   3.827   9.666   7.812  0.9420 -0.5780 -0.0057
  142MOL0     H19143   3.837   9.810   7.708  0.1328 -0.7076 -2.1707
  142MOL0     H19144   3.993   9.560   7.681  1.5448  1.3522  0.4702
  142MOL0     H19145   4.028   9.678   7.574  1.1720 -0.1600  0.9583
  142MOL0     H19146   3.752   9.667   7.513  0.3735 -0.3612 -1.8320
  142MOL0     H19147   3.864   9.568   7.440 -0.4812  2.5431 -1.6295
  142MOL0     H19148   3.655   9.501   7.671 -0.1196  0.1099  0.5517
  142MOL0     H19149   3.798   9.432   7.697 -1.3935  2.4698  3.3625
  142MOL0     H19150   3.627   9.416   7.444 -1.6260  2.4669  1.5687
  142MOL0     H19151   3.637   9.290   7.567 -0.7383 -1.8857 -2.4946
  142MOL0     H19152   4.203   9.970   8.260 -0.4628  4.7725  1.1727
  142MOL0     H19153   4.388  10.028   8.391  1.5434 -0.3504  0.8738
  142MOL0     H19154   4.803  10.142   8.553 -2.3959 -2.4217 -0.6321
  142MOL0     H19155   5.026  10.160   8.603  0.8808 -1.9263  1.2774
  142MOL0     H19156   5.385   9.449   9.613  0.2229  0.5638 -0.6317
  142MOL0     H19157   5.297   9.552   9.810 -2.3031  1.3497  1.2637
  142MOL0     H19158   5.171   9.627  10.281  0.2650 -0.6828 -0.2743
  142MOL0     H19159   4.995   9.687  10.470 -3.3395 -0.9299  1.4808
  142MOL0     H19160   4.662   9.787  10.389  1.1755  0.0398  1.1928
  142MOL0     H19161   4.597   9.635  10.322  1.4007  0.6155 -0.8268
  142MOL0     H19162   4.424   9.705  10.483 -0.8888 -0.9357  0.8513
  142MOL0     H19163   4.548   9.765  10.590 -0.8503  0.2373  0.7357
  142MOL0     H19164   4.450   9.570  10.687 -1.4828  1.0055 -1.5954
  142MOL0     H19165   4.623   9.539  10.673 -2.0961 -3.0871  5.4704
  142MOL0     H19166   4.545   9.348  10.587 -3.0340 -0.0152  1.1151
  142MOL0     H19167   4.555   9.432  10.427 -2.2710 -2.6181 -1.3868
  142MOL0     H19168   4.150   9.337  10.461 -0.0349 -0.6947 -1.7742
  142MOL0     H19169   4.710   9.475  10.252  0.1596  1.2432  3.1381
  142MOL0     H19170   4.862   9.422  10.074  0.2995 -1.7713  1.4332
  143MOL0     O19171   5.323   3.230   7.319 -0.2265  0.3307 -0.4357
  143MOL0     C19172   5.370   3.167   7.412 -0.3113  0.9391 -0.0881
  143MOL0     O19173   5.347   3.183   7.556  0.4562  0.2189 -0.4687
  143MOL0     C19174   5.259   3.287   7.579 -0.7015 -0.6513 -1.0526
  143MOL0     C19175   5.121   3.276   7.559  0.1432  0.2559  0.2320
  143MOL0     C19176   5.034   3.374   7.595 -1.1382  0.3262 -0.2745
  143MOL0     C19177   5.080   3.502   7.636 -0.7061  1.4350  0.3404
  143MOL0     O19178   4.982   3.595   7.671 -0.1740 -0.3520  0.2446
  143MOL0     C19179   5.007   3.679   7.783  0.1639 -0.9963  0.5021
  143MOL0     C19180   4.871   3.728   7.843 -0.3755 -0.0591 -0.5249
  143MOL0     C19181   4.895   3.847   7.947  0.0097 -0.7173 -0.1437
  143MOL0     C19182   4.764   3.865   8.028  1.3372 -0.2587  0.2812
  143MOL0     C19183   4.769   3.978   8.139 -0.4482  0.0117 -0.2278
  143MOL0     C19184   4.637   4.009   8.198  0.1797  0.3693  0.3310
  143MOL0     C19185   4.627   4.136   8.293  0.0896  0.7962  0.3973
  143MOL0     C19186   4.614   4.274   8.221 -0.6666  1.0800  0.3153
  143MOL0     N19187   4.610   4.386   8.316  0.9804  0.6251  0.6028
  143MOL0     C19188   4.496   4.431   8.369  0.6107 -0.7685 -0.3622
  143MOL0     C19189   4.541   4.510   8.473  0.1851 -0.9445  0.0122
  143MOL0     C19190   4.456   4.582   8.578 -0.0318 -0.0133 -0.3193
  143MOL0     C19191   4.362   4.685   8.511  0.6244  0.4099  0.1192
  143MOL0     C19192   4.216   4.620   8.473 -0.5836  0.8970 -1.1216
  143MOL0     C19193   4.111   4.729   8.443 -0.1249  0.4538  0.2328
  143MOL0     O19194   3.997   4.666   8.386  0.3167  0.5661 -0.1397
  143MOL0     C19195   3.887   4.631   8.461  0.0843 -1.0696  0.2349
  143MOL0     C19196   3.867   4.664   8.593  0.1274 -0.1219 -0.5879
  143MOL0     C19197   3.758   4.603   8.667  1.1764  0.1644  0.2736
  143MOL0     C19198   3.744   4.655   8.814  0.5477 -0.0937 -0.0166
  143MOL0     C19199   3.672   4.509   8.601  0.6523 -0.1800  0.1629
  143MOL0     C19200   3.557   4.436   8.668 -0.3443 -0.2200 -0.4233
  143MOL0     O19201   3.480   4.345   8.591  0.7528  0.0823 -0.2005
  143MOL0     C19202   3.366   4.302   8.650  0.6406 -0.7553 -0.0132
  143MOL0     C19203   3.361   4.190   8.742  1.1079  0.0072 -0.8769
  143MOL0     C19204   3.235   4.156   8.788  1.1453 -0.1197  0.2575
  143MOL0     C19205   3.113   4.217   8.751  0.1569  0.0378  0.1258
  143MOL0     O19206   2.997   4.161   8.798 -0.3989 -0.5365  0.3653
  143MOL0     C19207   2.916   4.105   8.694 -0.5776 -0.1184  0.0600
  143MOL0     C19208   2.780   4.134   8.736  0.0114  0.1357 -0.3891
  143MOL0     C19209   2.743   4.280   8.704 -0.2150 -0.1344  0.2864
  143MOL0     C19210   2.586   4.300   8.709  0.4150 -0.2504  0.3310
  143MOL0     C19211   2.529   4.439   8.676 -0.3896 -0.2262 -0.4679
  143MOL0     C19212   2.405   4.427   8.580 -0.7569 -0.4696  0.2751
  143MOL0     C19213   2.273   4.423   8.651  0.0394  0.6798 -0.3969
  143MOL0     C19214   2.155   4.397   8.564  0.1719 -0.3098 -0.0808
  143MOL0    Cl19215   2.145   4.225   8.542  0.1898 -0.4295 -0.7164
  143MOL0     C19216   3.121   4.317   8.659  0.5773 -0.0781  0.9685
  143MOL0     C19217   3.245   4.365   8.613  0.9988 -0.0645 -0.7863
  143MOL0     O19218   3.547   4.450   8.789 -0.6085  0.4269  0.0406
  143MOL0     C19219   3.701   4.486   8.471  0.6241 -0.3943 -0.5205
  143MOL0     C19220   3.796   4.554   8.396 -0.0765  1.2936  0.7375
  143MOL0     N19221   4.680   4.513   8.467 -0.8335 -0.5706  1.7325
  143MOL0     N19222   4.722   4.445   8.364 -0.1323  0.5463  0.3239
  143MOL0     C19223   5.219   3.521   7.641  0.4905 -0.2851  0.6579
  143MOL0     C19224   5.309   3.419   7.607  0.3806  0.4132 -0.2128
  143MOL0     C19225   5.459   3.055   7.374 -0.6561  0.0399 -0.1621
  143MOL0     C19226   5.468   3.020   7.240 -0.6052  0.6013  0.3794
  143MOL0     C19227   5.531   2.901   7.197 -0.0625  0.2073 -0.2075
  143MOL0     C19228   5.583   2.818   7.299  0.8310  0.2401 -0.2957
  143MOL0     O19229   5.617   2.685   7.280 -0.0507 -0.0504  0.0665
  143MOL0     C19230   5.642   2.656   7.145 -0.1519  0.2963  0.2158
  143MOL0     C19231   5.726   2.529   7.144 -0.6678  0.0461 -0.5915
  143MOL0     C19232   5.671   2.393   7.196  0.2185  0.3301 -0.0162
  143MOL0     C19233   5.652   2.406   7.353  0.4031  0.1354  1.6815
  143MOL0     C19234   5.590   2.277   7.382  0.1369  0.9253 -0.5039
  143MOL0     C19235   5.538   2.169   7.390  0.8778 -0.1616  0.7983
  143MOL0     C19236   5.577   2.854   7.434  0.1155 -0.5049 -0.7082
  143MOL0     C19237   5.529   2.981   7.469 -0.5067  0.4269  1.0963
  143MOL0     H19238   5.074   3.192   7.508 -0.0610  0.9430 -0.7387
  143MOL0     H19239   4.927   3.362   7.582 -1.1938 -2.3952  1.7392
  143MOL0     H19240   5.068   3.639   7.865  1.3275 -1.0860 -0.3827
  143MOL0     H19241   5.051   3.772   7.747 -2.5887  1.2780  2.5241
  143MOL0     H19242   4.811   3.766   7.760 -0.9219 -2.3390 -1.2671
  143MOL0     H19243   4.826   3.641   7.892  3.5962 -2.4428 -0.6691
  143MOL0     H19244   4.968   3.813   8.021 -2.0174 -1.0246  1.8403
  143MOL0     H19245   4.923   3.944   7.905 -0.8308 -0.6640 -0.6006
  143MOL0     H19246   4.688   3.876   7.949  1.4502  0.6325  0.2873
  143MOL0     H19247   4.737   3.772   8.078  0.6339  0.2804  0.9360
  143MOL0     H19248   4.842   3.947   8.213 -0.5935  3.1216  1.3974
  143MOL0     H19249   4.814   4.072   8.103  0.8308  0.6092  2.7075
  143MOL0     H19250   4.572   4.016   8.111  0.2471  1.8282  0.3741
  143MOL0     H19251   4.603   3.920   8.252  2.1700 -3.0478 -3.4480
  143MOL0     H19252   4.544   4.115   8.361 -1.4734  0.0433 -1.6283
  143MOL0     H19253   4.721   4.134   8.349 -0.0319 -3.9775  0.8416
  143MOL0     H19254   4.517   4.262   8.172 -0.0544  2.9336 -1.4904
  143MOL0     H19255   4.690   4.283   8.143 -0.8192 -3.7888 -0.7077
  143MOL0     H19256   4.396   4.403   8.337  0.2011 -2.8343  2.3274
  143MOL0     H19257   4.409   4.502   8.636  0.8392 -0.2319  0.1104
  143MOL0     H19258   4.519   4.637   8.649 -1.9801  3.1769 -0.8354
  143MOL0     H19259   4.405   4.732   8.422  2.0957 -0.6343  0.2516
  143MOL0     H19260   4.323   4.760   8.581 -2.9364 -2.1852  1.2482
  143MOL0     H19261   4.181   4.553   8.553 -0.2622  1.8376 -0.1787
  143MOL0     H19262   4.224   4.550   8.389 -0.3812  1.5692 -1.6655
  143MOL0     H19263   4.153   4.796   8.368  1.0103  0.9976  1.3201
  143MOL0     H19264   4.091   4.797   8.527 -1.1932 -1.1095  1.2929
  143MOL0     H19265   3.925   4.737   8.650 -0.7796  1.0222 -1.0934
  143MOL0     H19266   3.832   4.708   8.852 -0.6851  0.9595  1.5026
  143MOL0     H19267   3.659   4.723   8.826  1.4015  1.0180 -0.0264
  143MOL0     H19268   3.735   4.565   8.876 -0.4884 -0.4331 -0.6423
  143MOL0     H19269   3.444   4.141   8.791  3.7575  5.3721  0.7532
  143MOL0     H19270   3.207   4.064   8.839 -0.8165 -0.9622 -2.1167
  143MOL0     H19271   2.935   4.153   8.597  2.5113  0.2693  0.7535
  143MOL0     H19272   2.935   3.998   8.684  1.6699  0.4480 -3.5823
  143MOL0     H19273   2.715   4.066   8.679  1.7080 -0.2887 -1.9022
  143MOL0     H19274   2.772   4.115   8.843  1.5422  0.6960 -0.1490
  143MOL0     H19275   2.784   4.301   8.604  0.4621 -1.1866  0.3278
  143MOL0     H19276   2.777   4.358   8.773 -3.7023  2.7425 -0.9099
  143MOL0     H19277   2.545   4.229   8.637 -0.2840  1.2983 -0.8546
  143MOL0     H19278   2.542   4.275   8.806 -0.1363  0.8614  0.3846
  143MOL0     H19279   2.607   4.490   8.620 -0.2415 -1.6878 -1.6468
  143MOL0     H19280   2.498   4.492   8.767  0.2961  2.2731 -1.6093
  143MOL0     H19281   2.404   4.522   8.525 -1.1367 -0.2695  0.6187
  143MOL0     H19282   2.410   4.358   8.496  0.5907  0.4168 -0.4223
  143MOL0     H19283   2.260   4.520   8.700  1.1732  2.5674 -3.4633
  143MOL0     H19284   2.265   4.342   8.723  0.9488  2.0880  1.3546
  143MOL0     H19285   2.177   4.445   8.468  1.5712 -0.9671 -0.1116
  143MOL0     H19286   2.062   4.432   8.611 -0.6510  1.9883 -3.0873
  143MOL0     H19287   3.030   4.359   8.618  1.5956 -0.1772 -1.5675
  143MOL0     H19288   3.248   4.452   8.548  1.1981  0.3499 -0.2321
  143MOL0     H19289   3.640   4.420   8.410  2.0550  0.1669 -2.6546
  143MOL0     H19290   3.819   4.533   8.293  2.1914  1.7512  1.0910
  143MOL0     H19291   5.260   3.617   7.671 -1.2507  0.5197  0.6021
  143MOL0     H19292   5.416   3.434   7.603  0.5875 -1.0780 -1.4192
  143MOL0     H19293   5.424   3.080   7.162 -1.9460  1.0739  1.4682
  143MOL0     H19294   5.518   2.866   7.096 -0.7291 -1.5680  0.4608
  143MOL0     H19295   5.549   2.660   7.087 -0.6886 -1.6226  0.8685
  143MOL0     H19296   5.706   2.733   7.101 -0.1563 -0.1097 -0.5105
  143MOL0     H19297   5.812   2.562   7.203 -2.4887  2.2904  0.9336
  143MOL0     H19298   5.747   2.507   7.038  1.5221 -4.8775  0.5706
  143MOL0     H19299   5.739   2.312   7.168  0.3380  0.1193  0.8557
  143MOL0     H19300   5.572   2.379   7.151  0.6662  2.7864 -2.0533
  143MOL0     H19301   5.577   2.482   7.377 -2.8397 -1.8048 -1.3722
  143MOL0     H19302   5.746   2.436   7.401  1.9598 -0.1472 -0.9704
  143MOL0     H19303   5.484   2.080   7.415 -3.3142  0.9208 -2.9698
  143MOL0     H19304   5.602   2.778   7.507  3.4097 -0.3481 -1.5096
  143MOL0     H19305   5.527   3.017   7.571  1.0954  1.0964  0.9368
  144MOL0     O19306   8.066   3.951   2.742 -0.3427 -0.4245  0.2664
  144MOL0     C19307   8.140   3.888   2.672  0.1201 -0.3925  1.0789
  144MOL0     O19308   8.272   3.884   2.693 -1.0471  0.2194  0.8011
  144MOL0     C19309   8.328   3.929   2.809  0.4889  0.0978  0.6672
  144MOL0     C19310   8.338   3.847   2.925  1.1564 -0.6798 -0.2463
  144MOL0     C19311   8.411   3.895   3.029  0.0465  0.3210  0.1592
  144MOL0     C19312   8.496   4.008   3.021 -0.3244 -0.0784 -0.3675
  144MOL0     O19313   8.576   4.057   3.119 -0.3147  0.8326 -0.0853
  144MOL0     C19314   8.539   4.178   3.178  0.5450  0.2198  0.1034
  144MOL0     C19315   8.636   4.199   3.299 -0.5890 -0.3838  0.3203
  144MOL0     C19316   8.776   4.233   3.230 -0.0364  0.1305 -0.3159
  144MOL0     C19317   8.881   4.192   3.333  0.0158  0.0229  0.2453
  144MOL0     C19318   9.011   4.271   3.327  0.0243 -1.0193  1.2053
  144MOL0     C19319   9.119   4.211   3.418 -0.5493 -0.2869 -0.7499
  144MOL0     C19320   9.245   4.304   3.402  0.3119 -0.3211 -0.1420
  144MOL0     C19321   9.380   4.245   3.474  0.8649  0.2972  0.6882
  144MOL0     N19322   9.402   4.097   3.468  0.2348 -0.0833  0.0942
  144MOL0     C19323   9.445   4.027   3.362 -0.0234  0.2688 -0.3458
  144MOL0     C19324   9.452   3.896   3.404  0.6698 -0.5188  0.0612
  144MOL0     C19325   9.503   3.776   3.337  0.1932 -0.1665  0.6609
  144MOL0     C19326   9.438   3.752   3.201 -0.9391  0.4500 -0.5362
  144MOL0     C19327   9.452   3.610   3.173  0.1797  0.4378 -0.4882
  144MOL0     C19328   9.587   3.545   3.148 -0.2029  0.1685  0.6530
  144MOL0     O19329   9.698   3.633   3.136 -0.0866 -0.1814  0.9909
  144MOL0     C19330   9.708   3.706   3.021 -0.3057  0.5853  0.1818
  144MOL0     C19331   9.806   3.802   3.006 -0.7512 -0.9647  0.3505
  144MOL0     C19332   9.836   3.874   2.894  0.1933  0.2779 -0.2313
  144MOL0     C19333   9.938   3.984   2.899 -0.4040 -0.0418 -0.2633
  144MOL0     C19334   9.751   3.858   2.781 -0.3952 -0.2540 -0.2202
  144MOL0     C19335   9.750   3.944   2.657  0.6073 -0.2010  1.0300
  144MOL0     O19336   9.628   3.925   2.590  0.2162  0.1990 -0.6864
  144MOL0     C19337   9.612   3.985   2.467  0.4337 -1.0145  0.1059
  144MOL0     C19338   9.487   4.052   2.441 -0.7138  0.3530 -0.5794
  144MOL0     C19339   9.472   4.120   2.321  0.5400  0.9038  0.2095
  144MOL0     C19340   9.555   4.107   2.209 -0.8292  0.1676  0.2706
  144MOL0     O19341   9.530   4.157   2.088  0.7924 -0.5487  0.1668
  144MOL0     C19342   9.447   4.077   2.016 -0.5224  0.6878  0.9636
  144MOL0     C19343   9.542   4.007   1.917  0.1774  0.9853 -0.1822
  144MOL0     C19344   9.471   3.964   1.793  0.3109  0.1633  0.1546
  144MOL0     C19345   9.359   3.864   1.823 -0.7937 -0.1152  0.8093
  144MOL0     C19346   9.331   3.783   1.704 -0.0490  0.4358  0.7161
  144MOL0     C19347   9.432   3.665   1.699  0.4890 -0.0653  0.3656
  144MOL0     C19348   9.388   3.576   1.585  0.1676 -0.1540  0.5676
  144MOL0     C19349   9.476   3.454   1.557 -0.8017 -0.0658  0.0735
  144MOL0    Cl19350   9.491   3.351   1.700  0.2969 -0.5994 -0.3423
  144MOL0     C19351   9.674   4.037   2.227  0.0651 -0.3514 -0.0682
  144MOL0     C19352   9.706   3.976   2.358 -0.9478 -0.0313 -0.1275
  144MOL0     O19353   9.833   4.029   2.626 -0.1087  0.3072  0.2912
  144MOL0     C19354   9.667   3.740   2.785  0.0254 -1.2523  0.4960
  144MOL0     C19355   9.642   3.670   2.901  0.6727 -0.0358 -0.1040
  144MOL0     N19356   9.400   3.894   3.531  0.8439 -0.0531 -0.0050
  144MOL0     N19357   9.375   4.015   3.572 -0.1789  0.2169  0.4580
  144MOL0     C19358   8.480   4.084   2.911  0.1965  0.3681  0.1131
  144MOL0     C19359   8.397   4.049   2.807  0.2823  0.4143 -0.4613
  144MOL0     C19360   8.087   3.817   2.564  0.3013 -0.1462 -0.1827
  144MOL0     C19361   8.123   3.686   2.531 -0.0457 -0.4508  0.4992
  144MOL0     C19362   8.087   3.636   2.408 -0.1401  0.0445 -0.2503
  144MOL0     C19363   7.991   3.691   2.325  0.3962  0.1295 -0.6148
  144MOL0     O19364   7.958   3.645   2.198  0.6664  0.3343 -0.6932
  144MOL0     C19365   7.997   3.520   2.155 -0.1674  0.0481 -0.2795
  144MOL0     C19366   7.935   3.404   2.232  0.1273  0.6357  0.5231
  144MOL0     C19367   7.785   3.382   2.185  0.0432  0.3722  0.8090
  144MOL0     C19368   7.773   3.289   2.060 -0.3045  0.2742 -0.1453
  144MOL0     C19369   7.783   3.161   2.128  0.3660 -0.0518 -0.2732
  144MOL0     C19370   7.812   3.047   2.170 -0.1405  0.0013  0.5902
  144MOL0     C19371   7.956   3.816   2.358 -0.2851  0.0690  0.7829
  144MOL0     C19372   8.000   3.883   2.473  0.7398  0.2546 -0.0306
  144MOL0     H19373   8.298   3.746   2.927 -3.2014  0.8193  0.9714
  144MOL0     H19374   8.430   3.838   3.119  0.6413  0.9354  0.4356
  144MOL0     H19375   8.531   4.262   3.108  0.6242 -2.4534 -3.4011
  144MOL0     H19376   8.437   4.159   3.212  0.2229 -0.4458 -1.1852
  144MOL0     H19377   8.579   4.272   3.356 -2.6062 -1.1982 -0.5395
  144MOL0     H19378   8.633   4.101   3.348 -2.0232  0.5477  2.1896
  144MOL0     H19379   8.778   4.181   3.134 -3.7582 -0.6300 -0.1189
  144MOL0     H19380   8.793   4.341   3.217  1.3654  0.2016  1.6738
  144MOL0     H19381   8.840   4.202   3.433 -0.8954 -3.7341  0.3678
  144MOL0     H19382   8.892   4.086   3.308 -0.6438  0.7118 -3.8255
  144MOL0     H19383   9.036   4.286   3.222 -0.5929 -1.4556  0.9852
  144MOL0     H19384   8.999   4.377   3.351 -0.7300 -0.1289 -2.4454
  144MOL0     H19385   9.079   4.219   3.519 -0.3492 -3.4159 -0.3331
  144MOL0     H19386   9.138   4.106   3.392 -0.3746  0.0584 -2.0801
  144MOL0     H19387   9.272   4.310   3.296 -0.3372  1.4867 -0.2316
  144MOL0     H19388   9.228   4.404   3.443 -0.7019 -0.3002 -0.5857
  144MOL0     H19389   9.371   4.285   3.576  0.4421  3.8167 -0.5824
  144MOL0     H19390   9.465   4.301   3.436  1.1254 -0.2754  0.4139
  144MOL0     H19391   9.462   4.075   3.267  0.7863  2.1182  0.6766
  144MOL0     H19392   9.610   3.798   3.332 -0.3260  2.8013  0.7763
  144MOL0     H19393   9.479   3.691   3.401  2.7061  1.6227  4.3448
  144MOL0     H19394   9.483   3.803   3.115 -0.5176 -1.2071 -1.3334
  144MOL0     H19395   9.331   3.775   3.206 -1.2535 -0.3669 -2.5389
  144MOL0     H19396   9.399   3.593   3.079 -1.5434 -0.2525  0.5446
  144MOL0     H19397   9.393   3.558   3.250  3.3053  1.6322  3.0241
  144MOL0     H19398   9.585   3.488   3.055  1.3618 -1.1035  1.3466
  144MOL0     H19399   9.619   3.487   3.236 -0.0404 -0.6279  0.0843
  144MOL0     H19400   9.863   3.838   3.091 -0.0955 -6.3277  2.5786
  144MOL0     H19401   9.889   4.082   2.904  0.9619  0.8142 -2.2386
  144MOL0     H19402   9.997   3.992   2.991  0.0156  1.9865 -0.6455
  144MOL0     H19403  10.012   3.985   2.819  0.8400  1.6431  0.8360
  144MOL0     H19404   9.415   4.054   2.523  1.0952 -1.9666  1.2167
  144MOL0     H19405   9.375   4.165   2.302 -0.4750 -2.0797 -2.6817
  144MOL0     H19406   9.379   4.009   2.067  0.8355 -1.4465  0.0464
  144MOL0     H19407   9.379   4.144   1.962  0.6327 -2.0253 -4.5383
  144MOL0     H19408   9.623   4.075   1.893  0.3239  0.5347 -1.0215
  144MOL0     H19409   9.603   3.929   1.963 -0.4164  0.7714  0.2610
  144MOL0     H19410   9.556   3.936   1.729  0.8212 -1.8423  1.6393
  144MOL0     H19411   9.432   4.059   1.754  0.9532  0.3762  0.0117
  144MOL0     H19412   9.374   3.799   1.909  0.1502 -1.5469 -0.4001
  144MOL0     H19413   9.272   3.923   1.853 -1.0094  0.1877 -0.3527
  144MOL0     H19414   9.329   3.839   1.610  3.4292 -0.3291  0.0359
  144MOL0     H19415   9.230   3.743   1.716  0.6865 -1.4303  1.0761
  144MOL0     H19416   9.532   3.704   1.679  0.5918 -1.6086 -2.8776
  144MOL0     H19417   9.431   3.602   1.788  0.5266 -0.3471  0.1698
  144MOL0     H19418   9.366   3.634   1.495 -2.5318 -2.1797 -0.2206
  144MOL0     H19419   9.294   3.527   1.614 -1.4060 -0.3867 -4.0332
  144MOL0     H19420   9.569   3.485   1.509  0.1530 -3.4200 -0.5093
  144MOL0     H19421   9.433   3.388   1.481  1.4046 -0.3630 -0.9709
  144MOL0     H19422   9.740   4.036   2.141 -0.3890 -0.3513 -0.4196
  144MOL0     H19423   9.798   3.921   2.374 -1.0758 -0.3304 -0.4160
  144MOL0     H19424   9.609   3.710   2.699 -0.6112 -2.2438  1.2507
  144MOL0     H19425   9.567   3.592   2.893 -0.7575  1.2701  0.0197
  144MOL0     H19426   8.535   4.176   2.893 -3.0409  1.9964 -2.7051
  144MOL0     H19427   8.403   4.109   2.717 -0.1626  2.6092  0.8975
  144MOL0     H19428   8.189   3.636   2.601 -0.4282 -0.4311  0.8779
  144MOL0     H19429   8.133   3.542   2.381  2.5422  0.6623  1.7516
  144MOL0     H19430   7.960   3.495   2.055  0.5609 -0.2401 -0.4812
  144MOL0     H19431   8.106   3.511   2.159 -0.2664 -0.9851  0.6819
  144MOL0     H19432   7.939   3.421   2.340 -0.1251  0.5317  0.5508
  144MOL0     H19433   7.989   3.312   2.209 -2.1618 -1.0897  1.5534
  144MOL0     H19434   7.744   3.482   2.170  1.5548  1.5465  3.7743
  144MOL0     H19435   7.729   3.349   2.273  3.4740 -1.9612  2.3306
  144MOL0     H19436   7.852   3.321   1.991  0.3071 -1.1519 -0.1379
  144MOL0     H19437   7.679   3.305   2.008 -0.4880 -0.9717 -0.2138
  144MOL0     H19438   7.852   2.949   2.191  1.0886  0.0709 -1.2135
  144MOL0     H19439   7.880   3.851   2.289  0.4298  1.0215  0.4540
  144MOL0     H19440   7.964   3.984   2.490  2.4976  0.7991  0.6625
  145MOL0     O19441   8.610   9.267   7.939 -0.0241 -0.4921  0.5964
  145MOL0     C19442   8.535   9.300   8.023 -0.0219  0.0798 -0.4826
  145MOL0     O19443   8.440   9.395   8.013  0.0450 -0.1484 -0.2214
  145MOL0     C19444   8.437   9.470   7.902  0.2572  0.6098  0.1538
  145MOL0     C19445   8.544   9.552   7.864  0.2915  0.5454  0.8620
  145MOL0     C19446   8.528   9.640   7.749 -0.9982  0.0852  0.5760
  145MOL0     C19447   8.413   9.638   7.676 -0.4853 -0.5226  0.2775
  145MOL0     O19448   8.407   9.724   7.565  0.4325 -0.7551 -0.0781
  145MOL0     C19449   8.508   9.722   7.462 -0.3934  0.6947 -0.1315
  145MOL0     C19450   8.447   9.745   7.317  0.0324  0.5280 -0.7556
  145MOL0     C19451   8.556   9.780   7.209 -0.2990  0.5558  0.6493
  145MOL0     C19452   8.504   9.833   7.070 -0.4743 -0.9830  0.2663
  145MOL0     C19453   8.627   9.862   6.986 -0.2039 -0.3398  1.3310
  145MOL0     C19454   8.592   9.907   6.848 -0.8736  0.1102 -0.0620
  145MOL0     C19455   8.721   9.947   6.769  0.4959 -0.2869 -0.3344
  145MOL0     C19456   8.693   9.935   6.619 -0.1734 -0.9742  0.1769
  145MOL0     N19457   8.822   9.962   6.544 -0.2181 -0.2896 -0.3032
  145MOL0     C19458   8.862  10.091   6.518 -0.0009 -0.3950  0.5076
  145MOL0     C19459   8.975  10.071   6.452 -0.5195  0.2045  1.3501
  145MOL0     C19460   9.069  10.186   6.429 -0.0045 -0.4635  0.5275
  145MOL0     C19461   9.218  10.154   6.464  0.5933 -1.0291  0.0779
  145MOL0     C19462   9.295  10.289   6.456 -0.8598  0.5678  0.0945
  145MOL0     C19463   9.444  10.249   6.507  0.0890 -0.1152  0.4006
  145MOL0     O19464   9.526  10.370   6.538  0.3013  0.5610  0.1772
  145MOL0     C19465   9.620  10.355   6.632 -0.1784  0.3507  0.5717
  145MOL0     C19466   9.573  10.343   6.762 -0.0192 -0.1774  0.8102
  145MOL0     C19467   9.675  10.324   6.859 -0.7757 -0.0370  0.4037
  145MOL0     C19468   9.625  10.322   7.004  0.2450  0.6822  1.1474
  145MOL0     C19469   9.810  10.310   6.824 -0.3202 -0.6304  0.6167
  145MOL0     C19470   9.919  10.263   6.921  0.7847  0.8025 -0.4987
  145MOL0     O19471  10.022  10.346   6.959 -0.3137  0.0254 -0.7627
  145MOL0     C19472  10.136  10.306   7.028 -0.4654  0.1772  0.1303
  145MOL0     C19473  10.142  10.278   7.166 -0.0790  0.9707  0.7981
  145MOL0     C19474  10.257  10.240   7.222  0.2728  0.6195 -0.3084
  145MOL0     C19475  10.369  10.209   7.154  1.0764 -1.0621 -0.2741
  145MOL0     O19476  10.474  10.170   7.234  0.1703  0.6422  0.5722
  145MOL0     C19477  10.600  10.162   7.163  0.2982 -0.5206  0.0061
  145MOL0     C19478  10.710  10.215   7.249  0.6091  0.3340 -0.2122
  145MOL0     C19479  10.857  10.232   7.181  0.1496  0.4840 -0.0175
  145MOL0     C19480  10.889  10.096   7.134 -0.1728  0.4103  0.3948
  145MOL0     C19481  11.035  10.092   7.082  0.1274  0.1372  0.4075
  145MOL0     C19482  11.140  10.097   7.181 -1.3794 -0.8003  0.2641
  145MOL0     C19483  11.272  10.074   7.108  0.9633 -0.2969  0.2001
  145MOL0     C19484  11.391  10.058   7.197 -0.1422 -0.1698 -0.7378
  145MOL0    Cl19485  11.545  10.025   7.106 -0.3505 -0.2299  0.0081
  145MOL0     C19486  10.358  10.225   7.011  1.2309  0.2786  0.2616
  145MOL0     C19487  10.239  10.273   6.941 -0.3747  0.5730 -0.5029
  145MOL0     O19488   9.899  10.145   6.965  0.1214 -0.7837  0.2379
  145MOL0     C19489   9.852  10.321   6.690  0.2513  0.1646  0.5787
  145MOL0     C19490   9.754  10.354   6.600 -0.8969  0.1513 -0.2259
  145MOL0     N19491   9.000   9.936   6.438 -0.4097  0.0077  0.1352
  145MOL0     N19492   8.899   9.874   6.481  0.1278  0.2705 -0.8930
  145MOL0     C19493   8.310   9.548   7.704  0.5836  0.2998  0.2619
  145MOL0     C19494   8.322   9.464   7.820  0.1740  0.5354 -0.5248
  145MOL0     C19495   8.544   9.221   8.146 -0.5120 -0.0851  0.6668
  145MOL0     C19496   8.426   9.205   8.225 -0.1618 -0.6858  0.5421
  145MOL0     C19497   8.429   9.129   8.340  0.4768  0.1396 -0.2707
  145MOL0     C19498   8.558   9.094   8.397 -0.0507 -0.2505  0.6154
  145MOL0     O19499   8.560   9.030   8.522 -0.2369 -0.0095  0.2158
  145MOL0     C19500   8.676   8.955   8.555 -0.4702  0.4073 -0.7406
  145MOL0     C19501   8.646   8.870   8.682  0.5122 -0.1656 -0.5138
  145MOL0     C19502   8.776   8.796   8.738  0.7406  0.3065 -0.7010
  145MOL0     C19503   8.902   8.890   8.763  0.6289 -0.6910  0.5067
  145MOL0     C19504   8.848   9.013   8.828 -0.4826  0.7673 -0.3467
  145MOL0     C19505   8.816   9.123   8.868  0.6473 -0.0035 -0.2918
  145MOL0     C19506   8.674   9.116   8.318 -0.1661 -0.4665  0.4344
  145MOL0     C19507   8.666   9.182   8.193  0.7441 -0.3123  0.4165
  145MOL0     H19508   8.635   9.546   7.921 -0.9798 -0.2501  2.9347
  145MOL0     H19509   8.612   9.704   7.723 -0.3038 -1.0272 -0.0014
  145MOL0     H19510   8.593   9.789   7.479 -0.4401  0.7190  0.0034
  145MOL0     H19511   8.556   9.623   7.463 -0.1305  0.2390 -7.1871
  145MOL0     H19512   8.390   9.657   7.285 -1.0045  0.6448  0.6569
  145MOL0     H19513   8.379   9.830   7.324 -0.5847 -0.0888  2.7079
  145MOL0     H19514   8.608   9.865   7.254 -0.5684  1.2947 -0.4275
  145MOL0     H19515   8.628   9.699   7.192  0.8689  1.0638  2.7522
  145MOL0     H19516   8.441   9.754   7.028  1.4245 -1.7368 -1.3438
  145MOL0     H19517   8.442   9.923   7.076 -1.3335 -1.4357 -1.2517
  145MOL0     H19518   8.692   9.942   7.023  1.7012  0.1097 -2.4148
  145MOL0     H19519   8.684   9.769   6.993 -1.8947 -1.6706 -1.1205
  145MOL0     H19520   8.540   9.822   6.801 -1.1673 -0.3887  1.1296
  145MOL0     H19521   8.524   9.992   6.844  2.2501  2.9235  2.0761
  145MOL0     H19522   8.740  10.051   6.795 -1.5808 -0.0651  0.4745
  145MOL0     H19523   8.795   9.873   6.800  2.6989  1.6434 -0.7040
  145MOL0     H19524   8.605  10.000   6.616  1.3121  1.5406  3.6546
  145MOL0     H19525   8.675   9.829   6.601  0.0358 -0.8069 -1.0433
  145MOL0     H19526   8.823  10.182   6.562 -0.5703 -1.4662  2.3066
  145MOL0     H19527   9.066  10.223   6.326  0.6613  0.7993  0.9438
  145MOL0     H19528   9.026  10.257   6.500 -2.3548 -1.7709  0.5469
  145MOL0     H19529   9.257  10.077   6.396  1.8366 -2.2249  2.0528
  145MOL0     H19530   9.237  10.112   6.563 -1.0647 -1.6964  0.1557
  145MOL0     H19531   9.247  10.362   6.521 -0.5157  1.4225 -0.5983
  145MOL0     H19532   9.290  10.332   6.355 -2.9579  1.3883  0.5108
  145MOL0     H19533   9.492  10.201   6.420  1.5324 -0.1036  1.1648
  145MOL0     H19534   9.452  10.182   6.592  1.7853 -1.6830 -0.8972
  145MOL0     H19535   9.466  10.353   6.779  0.2189  0.0724  2.2411
  145MOL0     H19536   9.517  10.309   7.010  0.2219 -1.3474 -1.6143
  145MOL0     H19537   9.662  10.232   7.054 -3.2160 -0.1539  2.4239
  145MOL0     H19538   9.655  10.411   7.060  1.8123  0.9145  0.0483
  145MOL0     H19539  10.049  10.286   7.222 -0.7238  0.2462 -0.1378
  145MOL0     H19540  10.260  10.227   7.329 -0.7588 -2.1595 -0.5380
  145MOL0     H19541  10.615  10.058   7.130 -2.2382 -0.0320 -3.2170
  145MOL0     H19542  10.599  10.230   7.077  1.7170  1.2880  1.3579
  145MOL0     H19543  10.682  10.311   7.293  0.8060  0.2190  0.1697
  145MOL0     H19544  10.719  10.142   7.330 -2.1170  0.2528  0.1090
  145MOL0     H19545  10.932  10.262   7.256 -0.1353 -0.2543  0.5756
  145MOL0     H19546  10.843  10.311   7.106  2.1697 -0.6133 -1.6396
  145MOL0     H19547  10.869  10.029   7.217 -0.7929 -2.4783 -1.9186
  145MOL0     H19548  10.823  10.067   7.051  2.1229 -0.2992 -1.2888
  145MOL0     H19549  11.050  10.173   7.010 -2.4732 -2.3501 -3.2575
  145MOL0     H19550  11.047   9.994   7.036 -4.0441 -0.8950  1.1313
  145MOL0     H19551  11.157  10.193   7.233  1.1128 -0.4405 -1.0260
  145MOL0     H19552  11.131  10.020   7.258 -0.5808  0.7702  2.0303
  145MOL0     H19553  11.293  10.149   7.031  1.4987 -1.4795 -0.8373
  145MOL0     H19554  11.252   9.980   7.057  1.9652 -0.2583 -0.2803
  145MOL0     H19555  11.363   9.981   7.269  0.8571 -0.1201 -0.2798
  145MOL0     H19556  11.401  10.152   7.252  0.2933  0.0511 -1.1828
  145MOL0     H19557  10.438  10.190   6.946  2.1099 -2.5197  2.6145
  145MOL0     H19558  10.234  10.297   6.835  1.6142  2.2248 -0.2757
  145MOL0     H19559   9.957  10.306   6.666  0.3989  0.8465  0.7776
  145MOL0     H19560   9.788  10.383   6.501  1.7042 -0.5478  0.3810
  145MOL0     H19561   8.232   9.550   7.629  1.5703  1.6337 -0.7858
  145MOL0     H19562   8.235   9.401   7.839  0.8965 -0.3060  0.0335
  145MOL0     H19563   8.328   9.237   8.190  0.6151  0.9392 -0.2695
  145MOL0     H19564   8.337   9.125   8.398 -0.3692  4.1464 -1.0446
  145MOL0     H19565   8.726   8.892   8.481  1.1861 -1.3891  1.7773
  145MOL0     H19566   8.758   9.017   8.592  2.0567 -1.8341 -2.2131
  145MOL0     H19567   8.561   8.805   8.659 -2.3632  2.7978  0.9160
  145MOL0     H19568   8.607   8.932   8.763  4.1666  1.6391  0.0820
  145MOL0     H19569   8.793   8.713   8.669  1.4288  0.8630 -1.2159
  145MOL0     H19570   8.749   8.734   8.824  3.5621  0.9599  0.7701
  145MOL0     H19571   8.954   8.914   8.670  1.9096  1.3072  1.6633
  145MOL0     H19572   8.985   8.850   8.823  2.3077  2.1615  0.2529
  145MOL0     H19573   8.779   9.214   8.910 -0.3206  0.0837 -1.3084
  145MOL0     H19574   8.779   9.106   8.346  0.6898 -1.4372 -2.7001
  145MOL0     H19575   8.752   9.212   8.135  0.9211 -2.6714 -0.6384
  146MOL0     O19576   8.357   3.758   6.075 -0.6236 -0.1138 -0.9756
  146MOL0     C19577   8.467   3.727   6.122 -0.3257 -0.3833 -0.0782
  146MOL0     O19578   8.547   3.803   6.218 -0.4696  0.9142 -0.4835
  146MOL0     C19579   8.494   3.901   6.306 -0.2507  0.0213  0.1801
  146MOL0     C19580   8.567   4.015   6.343 -1.2797 -1.0882  0.3561
  146MOL0     C19581   8.504   4.101   6.432 -1.0516 -0.3998 -0.0271
  146MOL0     C19582   8.372   4.081   6.486  0.3613  0.4637 -0.6108
  146MOL0     O19583   8.331   4.175   6.576 -0.0770  0.0013 -0.0928
  146MOL0     C19584   8.190   4.205   6.567  0.9177  0.4724  0.0124
  146MOL0     C19585   8.145   4.319   6.658 -1.0412 -0.2525 -0.5702
  146MOL0     C19586   8.154   4.457   6.595  0.6473  0.0404  0.1673
  146MOL0     C19587   8.119   4.567   6.697  0.0307 -0.4310 -0.0386
  146MOL0     C19588   8.103   4.713   6.639 -0.8446  0.4533 -0.7288
  146MOL0     C19589   8.031   4.743   6.503 -0.2631  0.1592  0.7289
  146MOL0     C19590   7.886   4.718   6.515 -0.1925  0.1666  1.0084
  146MOL0     C19591   7.820   4.746   6.380 -0.3147  0.6802  0.5890
  146MOL0     N19592   7.827   4.886   6.341  0.1800 -0.3262 -0.0826
  146MOL0     C19593   7.727   4.978   6.378 -0.7939  0.0704 -0.3379
  146MOL0     C19594   7.779   5.098   6.324 -0.4865  0.1052 -0.2607
  146MOL0     C19595   7.709   5.229   6.326  0.0397  0.1488 -0.4855
  146MOL0     C19596   7.781   5.342   6.403  0.8345 -0.1438  0.0699
  146MOL0     C19597   7.717   5.481   6.378  0.5384 -0.4257 -0.0529
  146MOL0     C19598   7.791   5.598   6.461 -0.6322  0.6750 -0.1633
  146MOL0     O19599   7.895   5.668   6.383 -0.4221  0.7375  0.3033
  146MOL0     C19600   7.863   5.745   6.274 -0.9680  0.1163  0.4692
  146MOL0     C19601   7.742   5.784   6.241  0.3390  0.0572  0.8443
  146MOL0     C19602   7.710   5.880   6.135 -0.4739 -0.0938  0.1075
  146MOL0     C19603   7.567   5.877   6.087  1.1485  1.2413  0.0851
  146MOL0     C19604   7.815   5.968   6.090  0.5935 -0.4229  0.8370
  146MOL0     C19605   7.798   6.087   5.991 -0.0182  0.0844  0.0674
  146MOL0     O19606   7.686   6.089   5.908  0.9910  0.2305 -0.5572
  146MOL0     C19607   7.665   6.191   5.824  0.0680 -1.1193  0.3449
  146MOL0     C19608   7.579   6.293   5.877 -0.0050  0.1427  0.4652
  146MOL0     C19609   7.550   6.400   5.789 -1.3780 -0.7030 -0.7050
  146MOL0     C19610   7.610   6.408   5.667 -0.8278 -0.0241  0.3014
  146MOL0     O19611   7.580   6.517   5.590  0.5494 -0.1540  0.1383
  146MOL0     C19612   7.672   6.549   5.478  0.3661 -0.3466 -0.2427
  146MOL0     C19613   7.622   6.666   5.398 -0.0751  0.2594  0.1996
  146MOL0     C19614   7.472   6.653   5.336  0.4951  0.1777 -0.0922
  146MOL0     C19615   7.416   6.792   5.297 -0.5940  1.4223 -0.5312
  146MOL0     C19616   7.275   6.776   5.221 -0.6044 -0.3873 -0.3496
  146MOL0     C19617   7.281   6.697   5.086  0.0955  0.3203 -0.0443
  146MOL0     C19618   7.349   6.774   4.972 -0.2472  0.2447  0.3590
  146MOL0     C19619   7.381   6.695   4.847  0.0942  0.1497  0.2818
  146MOL0    Cl19620   7.243   6.601   4.789  0.1247 -0.0088  0.5013
  146MOL0     C19621   7.694   6.301   5.627  0.1149 -0.4306 -0.7112
  146MOL0     C19622   7.727   6.197   5.701  0.9603  0.6657  0.9274
  146MOL0     O19623   7.892   6.165   5.986 -0.2268  0.1544 -0.2039
  146MOL0     C19624   7.945   5.922   6.124 -0.5492 -0.2528 -0.1074
  146MOL0     C19625   7.967   5.822   6.230 -0.6126  0.4121 -0.5085
  146MOL0     N19626   7.902   5.070   6.259 -0.6661 -0.2563  0.2651
  146MOL0     N19627   7.928   4.940   6.277  0.2843 -0.1229  0.6599
  146MOL0     C19628   8.290   3.980   6.437 -0.1707 -0.2651  0.4997
  146MOL0     C19629   8.356   3.886   6.350 -0.4968  0.0057 -0.5509
  146MOL0     C19630   8.539   3.612   6.068  0.4338  0.6385 -0.9653
  146MOL0     C19631   8.485   3.535   5.961  0.7160 -1.9535  0.2821
  146MOL0     C19632   8.543   3.413   5.931 -0.0377 -0.1923  0.8630
  146MOL0     C19633   8.654   3.354   5.997  0.3189  0.4687 -0.0887
  146MOL0     O19634   8.691   3.228   5.957 -1.0068 -0.4143  0.5541
  146MOL0     C19635   8.764   3.159   6.055 -0.4630  0.0478 -0.1065
  146MOL0     C19636   8.676   3.107   6.165  0.0405  1.3257  0.5377
  146MOL0     C19637   8.756   3.057   6.276 -1.2420 -0.5246 -0.4661
  146MOL0     C19638   8.843   2.936   6.248 -0.0341  0.1276  0.9611
  146MOL0     C19639   8.775   2.809   6.222  0.0069 -0.0519 -0.3694
  146MOL0     C19640   8.708   2.702   6.232  0.2553  0.1299 -0.6435
  146MOL0     C19641   8.711   3.434   6.099 -0.4981  0.3579  0.1481
  146MOL0     C19642   8.650   3.550   6.136 -1.2678  0.7192 -0.0034
  146MOL0     H19643   8.662   4.044   6.299 -2.4747  1.9305 -0.4848
  146MOL0     H19644   8.567   4.186   6.457 -0.2776 -0.7447 -0.7338
  146MOL0     H19645   8.159   4.222   6.464  0.4828  0.4408  0.1351
  146MOL0     H19646   8.134   4.116   6.597  1.7696 -0.1416 -0.1673
  146MOL0     H19647   8.036   4.304   6.665 -0.8508 -0.8597  3.7790
  146MOL0     H19648   8.177   4.309   6.762 -0.8470  0.0107 -0.6019
  146MOL0     H19649   8.252   4.465   6.546  1.2829 -1.4668  1.1346
  146MOL0     H19650   8.067   4.471   6.530 -1.2533  2.9343  3.0456
  146MOL0     H19651   8.039   4.539   6.765  0.7101  1.7375  1.8099
  146MOL0     H19652   8.201   4.570   6.769 -1.1204  0.9090  1.2888
  146MOL0     H19653   8.063   4.775   6.720  1.2308 -0.2333  0.9128
  146MOL0     H19654   8.203   4.751   6.616 -0.9450 -0.6713 -3.4211
  146MOL0     H19655   8.058   4.841   6.462  0.7131 -2.1748 -5.2435
  146MOL0     H19656   8.049   4.665   6.428 -1.4349  0.5437  0.0341
  146MOL0     H19657   7.871   4.614   6.547 -1.7524  0.9484  3.0311
  146MOL0     H19658   7.840   4.785   6.588  1.8328  1.2335  1.3712
  146MOL0     H19659   7.714   4.725   6.397 -1.2060  3.4808 -0.9231
  146MOL0     H19660   7.864   4.681   6.304  0.9819 -0.3954  2.1996
  146MOL0     H19661   7.631   4.971   6.427 -1.8768 -0.7411 -2.4739
  146MOL0     H19662   7.678   5.259   6.226  0.5164 -2.3437 -1.4423
  146MOL0     H19663   7.613   5.213   6.375  0.7118 -2.7444  0.0530
  146MOL0     H19664   7.887   5.355   6.379  0.3027 -2.0096 -4.2635
  146MOL0     H19665   7.770   5.317   6.509  0.8474 -0.3260  0.0283
  146MOL0     H19666   7.614   5.476   6.414  0.7040  1.8065  0.8729
  146MOL0     H19667   7.733   5.510   6.274 -0.7781 -0.1364 -0.1833
  146MOL0     H19668   7.830   5.553   6.553 -0.9334 -1.4175 -1.0009
  146MOL0     H19669   7.715   5.673   6.483 -0.7169  0.9457 -1.3063
  146MOL0     H19670   7.656   5.721   6.264  0.6102 -1.3658 -1.6385
  146MOL0     H19671   7.563   5.865   5.978 -1.6453 -3.2587  0.4133
  146MOL0     H19672   7.506   5.790   6.113  1.1370  1.5228  1.0254
  146MOL0     H19673   7.506   5.964   6.110  1.0211  1.5818 -1.4206
  146MOL0     H19674   7.528   6.286   5.973 -0.8286  1.7533  0.1903
  146MOL0     H19675   7.486   6.484   5.812  1.1643  1.4873 -1.1167
  146MOL0     H19676   7.773   6.566   5.516  1.1826 -3.0233 -0.9973
  146MOL0     H19677   7.675   6.467   5.406  2.0502  0.5008 -1.1889
  146MOL0     H19678   7.617   6.755   5.461 -2.2889  0.7652 -0.5779
  146MOL0     H19679   7.697   6.678   5.319 -1.2242 -0.9604 -1.1466
  146MOL0     H19680   7.401   6.593   5.395 -0.8822  0.6404 -1.2131
  146MOL0     H19681   7.476   6.598   5.242  0.7579 -4.9036  2.5098
  146MOL0     H19682   7.397   6.855   5.384 -1.5468  2.0181 -1.1485
  146MOL0     H19683   7.497   6.836   5.237  2.5105 -1.0163  1.5295
  146MOL0     H19684   7.232   6.875   5.201 -2.2654 -1.1767 -0.8537
  146MOL0     H19685   7.213   6.720   5.291  2.2972 -3.8909 -0.3396
  146MOL0     H19686   7.333   6.601   5.099  2.3787  1.2378 -1.7283
  146MOL0     H19687   7.187   6.655   5.050  0.6569 -0.9528 -0.0943
  146MOL0     H19688   7.443   6.816   5.008  0.2042 -1.4608  1.2433
  146MOL0     H19689   7.295   6.864   4.941  2.5700  2.0958  0.5086
  146MOL0     H19690   7.465   6.628   4.866  1.0181  0.8929 -1.0062
  146MOL0     H19691   7.411   6.764   4.768 -4.4942 -0.1263 -2.0326
  146MOL0     H19692   7.733   6.290   5.526 -0.6839 -2.8890 -0.8094
  146MOL0     H19693   7.797   6.119   5.673  3.3972  2.3407  2.1096
  146MOL0     H19694   8.030   5.976   6.083 -1.4319 -1.0589 -3.2768
  146MOL0     H19695   8.062   5.802   6.278 -1.1676 -1.9414 -0.2346
  146MOL0     H19696   8.193   3.958   6.480 -1.6296  2.9174 -0.8172
  146MOL0     H19697   8.298   3.799   6.324 -0.6393 -1.1304  2.9923
  146MOL0     H19698   8.397   3.564   5.906  0.9722 -0.7152  0.5019
  146MOL0     H19699   8.511   3.370   5.837 -2.6738  2.3724  0.4548
  146MOL0     H19700   8.817   3.072   6.013  1.3428 -0.5185  3.0381
  146MOL0     H19701   8.850   3.214   6.091 -0.9372 -0.4109  1.8290
  146MOL0     H19702   8.622   3.032   6.106 -0.9472  3.3775 -1.3058
  146MOL0     H19703   8.616   3.188   6.207 -1.4504 -0.3693  1.8110
  146MOL0     H19704   8.678   3.040   6.351 -2.2069  0.8717 -1.1018
  146MOL0     H19705   8.829   3.133   6.306 -0.2948 -1.1515 -1.1029
  146MOL0     H19706   8.893   2.911   6.342 -0.7226 -0.1828  1.2465
  146MOL0     H19707   8.914   2.957   6.167 -2.3210 -1.6357 -1.7111
  146MOL0     H19708   8.652   2.612   6.250 -2.0403  1.4639 -0.6933
  146MOL0     H19709   8.793   3.393   6.158  1.2498 -1.5520 -3.2779
  146MOL0     H19710   8.696   3.600   6.220  0.3170 -0.6115 -0.0383
  147MOL0     O19711   6.859  10.835   9.321 -0.0535 -0.5542  0.4658
  147MOL0     C19712   6.975  10.857   9.330 -1.2680 -0.6381  0.7119
  147MOL0     O19713   7.067  10.851   9.226  0.1720 -0.1425 -0.0329
  147MOL0     C19714   7.032  10.818   9.094  0.1272 -0.1091  0.2428
  147MOL0     C19715   7.069  10.902   8.990 -0.2392  0.6424  0.1037
  147MOL0     C19716   7.039  10.867   8.853  0.7394 -0.7309 -0.2549
  147MOL0     C19717   6.973  10.752   8.828  0.0403  0.2149 -0.1269
  147MOL0     O19718   6.940  10.744   8.696  0.3221 -0.6411  0.0697
  147MOL0     C19719   6.802  10.749   8.677  0.6494 -0.3610 -0.1082
  147MOL0     C19720   6.784  10.778   8.530  0.2705  0.5114  0.0636
  147MOL0     C19721   6.640  10.814   8.489  0.2099 -0.4276  0.0933
  147MOL0     C19722   6.524  10.720   8.539 -0.3400  0.7587 -0.1062
  147MOL0     C19723   6.387  10.791   8.564  0.0280  0.3801  0.1577
  147MOL0     C19724   6.332  10.828   8.428 -0.3598 -0.5780 -0.7119
  147MOL0     C19725   6.278  10.712   8.352 -0.5424  0.3713  0.3457
  147MOL0     C19726   6.237  10.760   8.212 -0.0986  0.0169 -0.2065
  147MOL0     N19727   6.146  10.663   8.143  1.1246 -0.3585 -0.4107
  147MOL0     C19728   6.015  10.680   8.128 -0.3365 -0.8015  0.3669
  147MOL0     C19729   5.963  10.568   8.077  0.2386  0.1697  0.1111
  147MOL0     C19730   5.818  10.546   8.040 -0.2855  0.3889  0.1207
  147MOL0     C19731   5.715  10.658   8.057  0.8840 -0.1543 -0.7509
  147MOL0     C19732   5.577  10.632   8.016 -0.2463  0.1625  0.3846
  147MOL0     C19733   5.476  10.642   8.129  0.5981  0.8837  0.3684
  147MOL0     O19734   5.445  10.783   8.141  0.3229  0.1875  0.3300
  147MOL0     C19735   5.332  10.833   8.198 -0.2603 -0.9700 -0.6955
  147MOL0     C19736   5.289  10.968   8.174  0.7218  0.4231 -1.5192
  147MOL0     C19737   5.180  11.021   8.243  0.3849  0.8236 -0.5089
  147MOL0     C19738   5.153  11.158   8.216  0.0805  1.0144  0.6919
  147MOL0     C19739   5.106  10.935   8.330  0.0717 -0.6231 -0.2529
  147MOL0     C19740   4.995  10.979   8.426 -0.2068 -0.8502  0.2946
  147MOL0     O19741   4.948  10.895   8.526  0.2634  1.1980  0.0182
  147MOL0     C19742   4.856  10.948   8.612  1.1090  0.3373 -0.2961
  147MOL0     C19743   4.738  10.884   8.613  0.7700  0.3648 -1.7339
  147MOL0     C19744   4.621  10.937   8.676 -0.0879 -1.0034 -0.4117
  147MOL0     C19745   4.634  11.056   8.751 -0.6970  0.8775  0.8712
  147MOL0     O19746   4.523  11.098   8.821  0.2388 -0.3114 -1.0241
  147MOL0     C19747   4.487  11.016   8.938 -0.1256 -0.1094 -0.2878
  147MOL0     C19748   4.381  11.079   9.036 -0.0998 -0.2894 -0.7533
  147MOL0     C19749   4.327  10.973   9.126  0.2526 -0.8581  0.0846
  147MOL0     C19750   4.426  10.944   9.247 -0.0708 -0.5405  0.1473
  147MOL0     C19751   4.387  10.812   9.317 -0.0553 -0.6262 -0.3762
  147MOL0     C19752   4.477  10.784   9.446 -0.3199 -0.1027  0.6279
  147MOL0     C19753   4.612  10.726   9.400 -1.5413 -0.4883  0.4567
  147MOL0     C19754   4.700  10.683   9.524  0.0717  0.1448  0.3211
  147MOL0    Cl19755   4.693  10.790   9.670  0.0579 -0.1049 -0.5698
  147MOL0     C19756   4.756  11.124   8.767  0.3221  0.1217 -0.3121
  147MOL0     C19757   4.863  11.065   8.696 -0.7252 -0.9111  0.4659
  147MOL0     O19758   4.941  11.084   8.394  0.2964 -0.4534  0.1377
  147MOL0     C19759   5.149  10.805   8.344 -0.0727  0.7087  0.2646
  147MOL0     C19760   5.259  10.759   8.282 -1.1421 -0.2174 -0.1527
  147MOL0     N19761   6.073  10.484   8.062  0.9448  0.5161  0.4187
  147MOL0     N19762   6.179  10.540   8.108  0.6746  0.2158 -0.6085
  147MOL0     C19763   6.945  10.659   8.931 -1.3308 -0.1401  0.7035
  147MOL0     C19764   6.968  10.695   9.059 -0.7552 -0.6010 -1.1196
  147MOL0     C19765   7.044  10.916   9.447  0.2771 -0.1779 -0.5929
  147MOL0     C19766   6.961  10.925   9.555  0.7011 -0.1751 -0.8229
  147MOL0     C19767   7.021  10.959   9.685 -1.0206  0.0113  0.6848
  147MOL0     C19768   7.157  10.964   9.704 -0.1658  0.2450  1.6449
  147MOL0     O19769   7.210  10.999   9.820 -0.3450 -0.1886 -0.7947
  147MOL0     C19770   7.348  11.032   9.839  0.0837 -0.4023  0.3608
  147MOL0     C19771   7.365  11.121   9.969  0.2400  0.6108 -0.1587
  147MOL0     C19772   7.357  11.028  10.093  0.5418  0.2960  0.1491
  147MOL0     C19773   7.432  10.895  10.088 -0.8864  0.5767 -0.0830
  147MOL0     C19774   7.574  10.910  10.070 -1.1638  0.1960  0.4094
  147MOL0     C19775   7.693  10.919  10.073  0.1386  0.1503  0.6774
  147MOL0     C19776   7.237  10.938   9.591 -0.3498 -0.4704  0.6983
  147MOL0     C19777   7.185  10.927   9.460 -0.3163  0.5826  0.2298
  147MOL0     H19778   7.091  11.003   9.024 -2.9816  1.5948 -0.6904
  147MOL0     H19779   7.064  10.943   8.780  0.0016  0.8047  1.0170
  147MOL0     H19780   6.751  10.654   8.696 -3.9954  1.3889 -2.1941
  147MOL0     H19781   6.761  10.834   8.731  1.1557  0.2541 -0.6710
  147MOL0     H19782   6.856  10.856   8.501  0.4531 -0.8023 -3.4802
  147MOL0     H19783   6.817  10.684   8.485 -0.6442 -2.2343  4.4797
  147MOL0     H19784   6.622  10.915   8.525  1.0587  0.2455 -1.2826
  147MOL0     H19785   6.639  10.809   8.379 -1.1291 -0.3654  0.0847
  147MOL0     H19786   6.504  10.644   8.463 -0.1714  0.7207 -0.1117
  147MOL0     H19787   6.549  10.654   8.623 -1.3623 -3.1024 -2.5763
  147MOL0     H19788   6.322  10.721   8.617 -0.6806 -0.0883 -1.2592
  147MOL0     H19789   6.398  10.884   8.619 -3.0873  0.4919  0.7747
  147MOL0     H19790   6.252  10.897   8.457 -0.6885 -2.0629  2.3964
  147MOL0     H19791   6.417  10.873   8.375  0.6854  0.7217  1.8803
  147MOL0     H19792   6.351  10.631   8.349 -1.0751 -0.0961 -0.2785
  147MOL0     H19793   6.191  10.668   8.401 -0.7237 -1.6153 -1.6198
  147MOL0     H19794   6.330  10.769   8.156  2.3114  0.7977  3.5682
  147MOL0     H19795   6.191  10.858   8.226 -0.4615 -0.1726 -0.0668
  147MOL0     H19796   5.965  10.775   8.144  4.8235  2.4111 -0.3531
  147MOL0     H19797   5.822  10.514   7.935 -1.2723 -1.5423  0.6236
  147MOL0     H19798   5.780  10.461   8.097  1.3259 -1.0868 -0.8711
  147MOL0     H19799   5.757  10.733   7.989  1.2976 -1.0386 -1.4971
  147MOL0     H19800   5.712  10.680   8.164 -1.5509 -2.1070 -0.3335
  147MOL0     H19801   5.569  10.526   7.987  0.9030 -0.2571  1.5021
  147MOL0     H19802   5.544  10.685   7.926 -2.1711 -1.9453 -0.2571
  147MOL0     H19803   5.509  10.598   8.223 -0.5911 -1.6497 -0.2975
  147MOL0     H19804   5.393  10.580   8.093  1.2719 -1.3524  2.4052
  147MOL0     H19805   5.360  11.039   8.132  0.5918  1.0980 -0.6224
  147MOL0     H19806   5.197  11.187   8.120 -2.1248 -1.4612 -1.1982
  147MOL0     H19807   5.045  11.175   8.209 -0.7738 -3.2659  1.0314
  147MOL0     H19808   5.207  11.201   8.301  3.7587 -2.9103  0.6634
  147MOL0     H19809   4.726  10.782   8.578 -4.0430  0.3306 -0.6937
  147MOL0     H19810   4.523  10.891   8.680 -0.6626  0.2125  0.1847
  147MOL0     H19811   4.453  10.918   8.903 -0.5948  0.3137 -1.0386
  147MOL0     H19812   4.574  10.996   9.001 -0.2378 -1.5506 -0.5715
  147MOL0     H19813   4.412  11.164   9.097 -0.2712 -0.5170 -0.3458
  147MOL0     H19814   4.297  11.101   8.969  1.1070  1.8954 -1.6509
  147MOL0     H19815   4.315  10.877   9.075  1.4452 -3.4091  4.0795
  147MOL0     H19816   4.229  11.008   9.159  0.7041 -1.3152  2.0618
  147MOL0     H19817   4.528  10.923   9.214  1.1238  1.2591  2.4035
  147MOL0     H19818   4.425  11.033   9.310 -0.7572 -0.1799 -0.3677
  147MOL0     H19819   4.386  10.727   9.248  0.0461 -3.2919  2.6566
  147MOL0     H19820   4.281  10.829   9.339 -0.4184 -1.4804 -1.3624
  147MOL0     H19821   4.492  10.880   9.497  1.6098  1.6530 -2.8396
  147MOL0     H19822   4.421  10.715   9.510 -2.8649 -1.9950 -3.2197
  147MOL0     H19823   4.663  10.798   9.336  0.2303 -1.8777  0.2479
  147MOL0     H19824   4.596  10.633   9.345  0.7522 -0.6164 -0.0683
  147MOL0     H19825   4.803  10.666   9.492  0.2898  0.1082  1.0151
  147MOL0     H19826   4.659  10.584   9.551 -1.9798  1.3956  2.2011
  147MOL0     H19827   4.775  11.199   8.843  3.8383 -0.1067 -0.7897
  147MOL0     H19828   4.960  11.113   8.693 -0.1836 -2.0055 -0.0319
  147MOL0     H19829   5.080  10.738   8.395 -0.1173 -1.6429 -2.6286
  147MOL0     H19830   5.292  10.656   8.288  0.6713  0.2489 -1.2747
  147MOL0     H19831   6.905  10.558   8.919 -1.2465 -0.0005 -1.0932
  147MOL0     H19832   6.938  10.636   9.145  0.4630  1.2411  0.6648
  147MOL0     H19833   6.853  10.914   9.554  0.4307  1.4943  1.5917
  147MOL0     H19834   6.951  10.972   9.767 -1.1957  1.8205  0.2732
  147MOL0     H19835   7.400  10.935   9.834  0.3422 -0.2593  0.2536
  147MOL0     H19836   7.376  11.094   9.753 -2.6380 -2.4209 -2.1754
  147MOL0     H19837   7.292  11.203   9.975  0.6327  0.9282  0.3372
  147MOL0     H19838   7.465  11.165   9.975  1.5058 -2.0268 -0.8212
  147MOL0     H19839   7.252  11.007  10.118  0.4603  2.1325  1.5162
  147MOL0     H19840   7.392  11.087  10.178 -1.5153 -1.1578  2.1154
  147MOL0     H19841   7.380  10.827  10.020 -1.1503  1.5811 -0.9137
  147MOL0     H19842   7.412  10.857  10.189 -1.7943  1.0270 -0.0809
  147MOL0     H19843   7.799  10.916  10.055  0.1338  0.5643  0.5813
  147MOL0     H19844   7.344  10.945   9.609 -0.4372  2.6442  0.5418
  147MOL0     H19845   7.255  10.915   9.378  0.4408  0.4098  0.8858
  148MOL0     O19846   5.415  10.253   9.596 -0.5636 -0.3012  0.0036
  148MOL0     C19847   5.476  10.256   9.702  0.0908 -0.1000 -0.4586
  148MOL0     O19848   5.593  10.187   9.745  0.0958  0.1501  0.6302
  148MOL0     C19849   5.675  10.118   9.648 -0.2978 -0.2576 -0.8225
  148MOL0     C19850   5.759  10.021   9.691 -1.0401 -0.1771 -0.2374
  148MOL0     C19851   5.875   9.973   9.613  0.9837 -0.1055 -0.4147
  148MOL0     C19852   5.886  10.020   9.484 -0.2224  0.5678 -0.2231
  148MOL0     O19853   5.991   9.964   9.415  0.5429  0.1345  0.1953
  148MOL0     C19854   6.000   9.975   9.270  0.0885  0.0544  0.5509
  148MOL0     C19855   6.076   9.858   9.198  0.3451 -0.1237 -0.0065
  148MOL0     C19856   6.219   9.834   9.237  0.7044  0.7540  0.4167
  148MOL0     C19857   6.275   9.704   9.177  0.1299 -1.0108  0.9315
  148MOL0     C19858   6.416   9.669   9.225  0.1474 -0.1420 -0.0133
  148MOL0     C19859   6.457   9.522   9.261 -0.4168 -0.0813 -0.0344
  148MOL0     C19860   6.582   9.503   9.348  0.4106  0.4083 -0.1896
  148MOL0     C19861   6.703   9.558   9.281  0.2222  0.2451  0.7463
  148MOL0     N19862   6.752   9.481   9.164  0.3554 -0.0933 -0.2060
  148MOL0     C19863   6.746   9.534   9.041 -0.5675 -0.1423  0.6468
  148MOL0     C19864   6.806   9.453   8.956 -1.3743  0.3571  0.6148
  148MOL0     C19865   6.838   9.464   8.812 -0.6841  0.5435 -0.3500
  148MOL0     C19866   6.990   9.450   8.780 -0.3763  0.0951  0.3545
  148MOL0     C19867   7.024   9.307   8.733 -0.4832 -0.3025  0.0381
  148MOL0     C19868   7.022   9.288   8.579  0.0927  0.3953 -0.1006
  148MOL0     O19869   7.103   9.384   8.503 -0.4317 -0.6674  0.1669
  148MOL0     C19870   7.104   9.360   8.367 -0.1991  0.9372 -0.5190
  148MOL0     C19871   7.019   9.441   8.294 -1.0302  0.0666  1.1398
  148MOL0     C19872   7.020   9.405   8.151  0.4028 -0.7109  0.2056
  148MOL0     C19873   6.908   9.480   8.072  0.3621 -0.3562 -0.0069
  148MOL0     C19874   7.100   9.302   8.094  0.1361  0.1818 -0.8694
  148MOL0     C19875   7.112   9.261   7.952  0.3463 -1.6884 -0.1507
  148MOL0     O19876   7.214   9.182   7.911 -0.2898 -0.6384 -0.1123
  148MOL0     C19877   7.211   9.125   7.788 -0.9448  0.8897  0.6524
  148MOL0     C19878   7.261   9.001   7.787  0.5020  0.3786 -0.4772
  148MOL0     C19879   7.263   8.927   7.672 -0.2184  0.1122 -0.5261
  148MOL0     C19880   7.245   8.978   7.549  0.6150  0.3979  0.4409
  148MOL0     O19881   7.261   8.900   7.430  0.0732 -0.7175  0.2610
  148MOL0     C19882   7.342   8.970   7.331 -0.4186  0.2020 -0.4754
  148MOL0     C19883   7.376   8.874   7.217 -0.2770 -0.3280  0.2505
  148MOL0     C19884   7.450   8.952   7.109  0.5695  0.0889 -0.1238
  148MOL0     C19885   7.516   8.843   7.008 -0.2092 -0.8903  1.1974
  148MOL0     C19886   7.547   8.920   6.870 -0.3713  0.0399 -0.0033
  148MOL0     C19887   7.632   9.047   6.885  0.3072  0.7179 -0.5085
  148MOL0     C19888   7.654   9.126   6.764  0.0935  0.4514 -1.0419
  148MOL0     C19889   7.752   9.244   6.760  0.1102  1.4755 -0.3250
  148MOL0    Cl19890   7.777   9.305   6.596  0.3011  0.0204 -0.0688
  148MOL0     C19891   7.195   9.111   7.542 -0.3904  0.5703 -0.2799
  148MOL0     C19892   7.180   9.184   7.662 -0.0055 -0.0862  0.1594
  148MOL0     O19893   7.010   9.294   7.883  0.1046 -0.2818 -0.0098
  148MOL0     C19894   7.184   9.232   8.177  0.1710 -0.1079 -0.2641
  148MOL0     C19895   7.176   9.253   8.316  0.0660  0.7903  0.2447
  148MOL0     N19896   6.865   9.350   9.032 -0.3768  0.0005 -0.0770
  148MOL0     N19897   6.831   9.372   9.157 -0.0767  0.5105 -0.2308
  148MOL0     C19898   5.795  10.109   9.435 -1.1219  0.1823 -0.4662
  148MOL0     C19899   5.689  10.161   9.516  0.9725 -0.1507  0.4607
  148MOL0     C19900   5.400  10.341   9.796  0.6760 -0.5572 -0.6510
  148MOL0     C19901   5.258  10.379   9.789 -0.8499 -0.6767  0.2356
  148MOL0     C19902   5.201  10.475   9.866 -0.5123 -0.0870 -0.2934
  148MOL0     C19903   5.266  10.536   9.969  0.7373  1.1748 -0.2305
  148MOL0     O19904   5.192  10.622  10.049  0.3936  0.9860 -0.9471
  148MOL0     C19905   5.265  10.707  10.135  0.6739  0.1312  0.5424
  148MOL0     C19906   5.162  10.815  10.174  0.3319 -0.2026  0.2584
  148MOL0     C19907   5.121  10.892  10.056 -0.3291 -0.4597 -0.2320
  148MOL0     C19908   5.030  11.009  10.088  0.6131  0.9311 -0.2749
  148MOL0     C19909   5.009  11.097   9.975  0.5537 -0.1615  0.3773
  148MOL0     C19910   5.009  11.183   9.882 -0.0142 -0.3246 -0.5708
  148MOL0     C19911   5.409  10.512   9.978  0.1740  0.2809 -0.4036
  148MOL0     C19912   5.470  10.403   9.904 -0.1576 -1.4079  0.0200
  148MOL0     H19913   5.752  10.002   9.797 -0.8699  0.6209 -0.0732
  148MOL0     H19914   5.943   9.905   9.664  1.7153  1.1980  0.3962
  148MOL0     H19915   5.901   9.979   9.224  1.0801  3.5114 -1.6207
  148MOL0     H19916   6.048  10.071   9.247 -3.0945  1.8090  0.6550
  148MOL0     H19917   6.017   9.768   9.214 -0.6100  0.5398  0.3161
  148MOL0     H19918   6.070   9.882   9.092 -2.2975  0.5457  0.2219
  148MOL0     H19919   6.279   9.920   9.207  0.6265 -0.3782 -3.4420
  148MOL0     H19920   6.227   9.823   9.346  3.0352 -4.2646  0.0236
  148MOL0     H19921   6.207   9.621   9.195  1.1409 -2.0459  0.0908
  148MOL0     H19922   6.282   9.716   9.069  1.2224 -1.2146  0.9738
  148MOL0     H19923   6.487   9.713   9.155 -0.0177  0.3027  0.0937
  148MOL0     H19924   6.424   9.729   9.316 -1.0745 -1.8322  1.2959
  148MOL0     H19925   6.373   9.481   9.316  0.0798 -0.5030  0.4137
  148MOL0     H19926   6.485   9.471   9.168  1.4676  1.7725 -0.5612
  148MOL0     H19927   6.560   9.570   9.432 -0.0890  4.2896 -3.1267
  148MOL0     H19928   6.597   9.397   9.372  1.2959  0.2337 -1.4332
  148MOL0     H19929   6.789   9.566   9.348 -0.0208  1.5167  0.9406
  148MOL0     H19930   6.696   9.665   9.258  1.3401  0.4620  1.3189
  148MOL0     H19931   6.694   9.628   9.029  0.6282  0.3120 -1.6546
  148MOL0     H19932   6.786   9.395   8.745  1.5606  0.3439 -2.0105
  148MOL0     H19933   6.807   9.565   8.782  1.5649  1.5020  0.3839
  148MOL0     H19934   7.055   9.489   8.859  0.9294  0.0458 -0.6824
  148MOL0     H19935   7.015   9.527   8.707  0.3883  0.1530  0.6717
  148MOL0     H19936   6.974   9.223   8.783  2.1807 -0.9200  1.9419
  148MOL0     H19937   7.128   9.296   8.766 -0.7598  0.5093  1.2632
  148MOL0     H19938   6.919   9.297   8.542  0.4715 -1.1058 -1.6497
  148MOL0     H19939   7.056   9.186   8.562 -1.7762 -0.3239  0.2462
  148MOL0     H19940   6.968   9.534   8.316 -2.1901 -0.1147 -0.5558
  148MOL0     H19941   6.857   9.563   8.123  1.5285  1.6073 -1.8609
  148MOL0     H19942   6.951   9.513   7.977 -0.7555 -1.1341 -0.7997
  148MOL0     H19943   6.835   9.402   8.046 -0.6375  0.4349  0.3361
  148MOL0     H19944   7.289   8.951   7.879  2.4683 -1.3580 -1.9309
  148MOL0     H19945   7.298   8.825   7.685 -1.1974  0.0275  1.9978
  148MOL0     H19946   7.279   9.050   7.291 -1.2747 -2.0961 -4.1563
  148MOL0     H19947   7.431   9.011   7.380  0.4216  0.3830 -2.0798
  148MOL0     H19948   7.451   8.810   7.265  2.2264  1.4014 -1.0865
  148MOL0     H19949   7.290   8.817   7.181  0.9086 -2.5182  0.6889
  148MOL0     H19950   7.537   8.998   7.158  0.7059 -1.2253  0.9241
  148MOL0     H19951   7.390   9.029   7.059 -0.2972 -2.8341 -4.1174
  148MOL0     H19952   7.608   8.800   7.049 -0.9347 -0.6902  3.1743
  148MOL0     H19953   7.443   8.765   6.986 -1.5646  0.8840 -1.0716
  148MOL0     H19954   7.455   8.951   6.820  0.5966  0.4009 -1.6184
  148MOL0     H19955   7.599   8.851   6.804 -2.3453 -1.0499 -0.5100
  148MOL0     H19956   7.587   9.116   6.958  1.8599  1.1646  0.0550
  148MOL0     H19957   7.731   9.020   6.921  0.9672  2.2223 -1.1322
  148MOL0     H19958   7.556   9.162   6.732  0.3899 -0.1413 -2.7324
  148MOL0     H19959   7.688   9.055   6.689  0.9848  0.5803 -0.7641
  148MOL0     H19960   7.854   9.230   6.795  0.9180  2.9462 -1.9270
  148MOL0     H19961   7.719   9.330   6.820  4.9517  1.8228  2.3247
  148MOL0     H19962   7.178   9.153   7.444  2.3746  2.4438 -0.0944
  148MOL0     H19963   7.163   9.291   7.658  0.4420  0.0360  1.1040
  148MOL0     H19964   7.232   9.142   8.141 -2.7829 -1.3157 -1.5344
  148MOL0     H19965   7.236   9.182   8.373 -1.6926  0.6391  2.0108
  148MOL0     H19966   5.796  10.143   9.332 -1.4489  2.2407  0.1689
  148MOL0     H19967   5.618  10.233   9.477 -0.7009 -1.9377  0.0097
  148MOL0     H19968   5.191  10.349   9.709  0.4237 -1.3796 -0.6230
  148MOL0     H19969   5.095  10.493   9.849 -0.6636 -0.4065  0.2790
  148MOL0     H19970   5.299  10.656  10.226 -0.8356 -2.0505 -0.0437
  148MOL0     H19971   5.359  10.733  10.085 -0.0456 -0.2578 -1.0364
  148MOL0     H19972   5.209  10.882  10.247  0.3688 -0.8637  0.8446
  148MOL0     H19973   5.071  10.786  10.228 -0.3251  0.0757 -0.6709
  148MOL0     H19974   5.058  10.830   9.991 -0.2696 -1.0270  0.2489
  148MOL0     H19975   5.208  10.929  10.001 -3.4465  2.4492 -3.8175
  148MOL0     H19976   5.076  11.073  10.163  0.4558 -0.0517  0.6836
  148MOL0     H19977   4.936  10.965  10.121  2.6108 -2.5475  1.3277
  148MOL0     H19978   5.029  11.271   9.823 -1.1367  2.0997  2.3926
  148MOL0     H19979   5.473  10.565  10.047  2.5147 -2.1304 -0.5589
  148MOL0     H19980   5.575  10.380   9.916  0.6466  1.7415 -0.1161
  149MOL0     O19981   9.195   0.176   1.871 -0.9573 -0.6677 -0.0337
  149MOL0     C19982   9.083   0.161   1.832 -0.4188 -0.3798  0.6582
  149MOL0     O19983   9.010   0.051   1.844  0.0708  0.9354  0.4755
  149MOL0     C19984   9.023  -0.050   1.931  0.8145 -0.0888  0.2926
  149MOL0     C19985   8.944  -0.158   1.893 -0.5174  0.4564  0.7969
  149MOL0     C19986   8.933  -0.269   1.972  0.1197 -0.5360  1.2888
  149MOL0     C19987   9.007  -0.279   2.096  0.1824 -0.3754  0.3154
  149MOL0     O19988   9.014  -0.389   2.176 -0.1247 -0.1278 -0.9790
  149MOL0     C19989   8.911  -0.489   2.162  0.1376 -0.3822 -0.0356
  149MOL0     C19990   8.912  -0.567   2.286 -0.6157  0.0289 -0.5975
  149MOL0     C19991   8.787  -0.651   2.288 -0.0116  0.2961  0.2220
  149MOL0     C19992   8.805  -0.767   2.384 -0.7226 -0.3161  0.4072
  149MOL0     C19993   8.742  -0.896   2.324 -0.6115 -0.3039 -0.1789
  149MOL0     C19994   8.590  -0.887   2.315 -0.6389  0.5367  0.7308
  149MOL0     C19995   8.524  -0.907   2.453  0.1516 -0.3561 -0.1443
  149MOL0     C19996   8.376  -0.869   2.467 -1.4715 -0.4563  0.8201
  149MOL0     N19997   8.329  -0.900   2.607 -0.5278  0.3502 -1.0561
  149MOL0     C19998   8.418  -0.921   2.714  0.1056 -0.2850 -0.6633
  149MOL0     C19999   8.333  -0.959   2.816 -1.1867 -0.8069  0.1837
  149MOL0     C20000   8.376  -1.016   2.952  0.0394 -0.5550 -0.3197
  149MOL0     C20001   8.326  -0.917   3.062 -0.5384 -0.2330  0.7938
  149MOL0     C20002   8.394  -0.783   3.064 -0.2031  0.0640 -0.5007
  149MOL0     C20003   8.528  -0.798   3.137  0.9408  1.5196  0.8437
  149MOL0     O20004   8.585  -0.676   3.179 -0.4875 -0.4035 -0.1284
  149MOL0     C20005   8.650  -0.602   3.085 -0.1083  0.8558 -0.3681
  149MOL0     C20006   8.695  -0.473   3.125  1.2295  0.4550  0.1068
  149MOL0     C20007   8.754  -0.379   3.049 -0.1719  0.0444  0.2506
  149MOL0     C20008   8.779  -0.246   3.106  0.1859  0.8757 -0.2400
  149MOL0     C20009   8.795  -0.428   2.922 -0.1315 -0.4316  0.9028
  149MOL0     C20010   8.875  -0.337   2.829  0.1381  0.5396  0.5706
  149MOL0     O20011   8.952  -0.407   2.729  0.3515 -0.0977  0.4688
  149MOL0     C20012   9.066  -0.346   2.685 -0.0941 -0.7024 -1.1690
  149MOL0     C20013   9.048  -0.284   2.572 -0.7944 -0.0202  0.5043
  149MOL0     C20014   9.152  -0.219   2.513  0.3073 -0.8837  0.0191
  149MOL0     C20015   9.275  -0.216   2.578  0.2174 -0.7504  1.1350
  149MOL0     O20016   9.384  -0.144   2.530 -0.3138 -0.5034 -0.0509
  149MOL0     C20017   9.407  -0.138   2.386 -0.0773 -0.0170  0.6580
  149MOL0     C20018   9.506  -0.260   2.352 -0.2465 -0.3268 -0.7106
  149MOL0     C20019   9.429  -0.397   2.381  0.2791 -0.4560  0.1839
  149MOL0     C20020   9.523  -0.509   2.348 -0.6640 -0.0671 -0.1857
  149MOL0     C20021   9.447  -0.642   2.372 -0.9018  0.3277 -0.4104
  149MOL0     C20022   9.401  -0.663   2.513  0.8590 -0.1928  0.9559
  149MOL0     C20023   9.340  -0.801   2.547  0.6032  0.2114 -1.3294
  149MOL0     C20024   9.340  -0.835   2.695 -0.3598  0.4004  0.1208
  149MOL0    Cl20025   9.221  -0.720   2.772  0.0058  0.0213  0.1964
  149MOL0     C20026   9.302  -0.283   2.697  0.0829 -0.1362  0.2325
  149MOL0     C20027   9.192  -0.346   2.752  0.1152 -0.1914  0.0531
  149MOL0     O20028   8.856  -0.220   2.832  0.3096 -0.0385 -0.6228
  149MOL0     C20029   8.768  -0.560   2.874  0.1084 -0.1589  0.0652
  149MOL0     C20030   8.697  -0.647   2.960  0.1717 -0.5766  0.0808
  149MOL0     N20031   8.201  -0.949   2.769 -0.7214  0.5065  0.3756
  149MOL0     N20032   8.199  -0.923   2.648 -0.5258  0.0790 -0.4389
  149MOL0     C20033   9.085  -0.173   2.138  0.5496  0.6597 -0.1605
  149MOL0     C20034   9.094  -0.056   2.047  0.0807  0.4185 -0.3017
  149MOL0     C20035   9.027   0.262   1.742  0.3144 -1.0193  0.4356
  149MOL0     C20036   8.889   0.256   1.717  0.5889 -0.8512 -0.7240
  149MOL0     C20037   8.825   0.342   1.618 -0.6094  1.5069 -0.0433
  149MOL0     C20038   8.905   0.434   1.555  0.7236 -0.1389 -0.4225
  149MOL0     O20039   8.862   0.533   1.468  0.8812 -0.1572  0.6739
  149MOL0     C20040   8.770   0.477   1.364 -0.5741 -0.0833 -0.0190
  149MOL0     C20041   8.733   0.583   1.275 -0.6361 -0.9884  0.0819
  149MOL0     C20042   8.690   0.526   1.141 -0.2037 -0.5382  0.1413
  149MOL0     C20043   8.607   0.634   1.068 -0.0882  0.0243  0.6825
  149MOL0     C20044   8.580   0.597   0.921 -1.0916  0.1795 -0.8217
  149MOL0     C20045   8.561   0.580   0.813 -0.3214  0.3470 -0.4547
  149MOL0     C20046   9.043   0.440   1.577  0.2856  0.0941  0.4524
  149MOL0     C20047   9.100   0.360   1.674  0.0040  1.2198 -0.4307
  149MOL0     H20048   8.887  -0.155   1.801  1.4280 -3.7335 -0.8354
  149MOL0     H20049   8.873  -0.346   1.924 -0.2848  1.6011 -1.9879
  149MOL0     H20050   8.811  -0.446   2.147 -1.0992 -3.4708 -1.7648
  149MOL0     H20051   8.920  -0.554   2.074  2.3981  0.9781 -0.8853
  149MOL0     H20052   9.005  -0.625   2.287 -0.0724  0.8329  1.6154
  149MOL0     H20053   8.913  -0.499   2.371 -0.5945  0.1026 -0.6555
  149MOL0     H20054   8.708  -0.582   2.319  1.8703  3.6805 -1.8356
  149MOL0     H20055   8.759  -0.691   2.190  1.0814 -1.0823  0.4440
  149MOL0     H20056   8.911  -0.775   2.412 -0.5386  0.7979  0.0779
  149MOL0     H20057   8.762  -0.736   2.479 -1.9069 -2.0288  0.4842
  149MOL0     H20058   8.785  -0.926   2.228 -0.2199  1.3167 -0.5422
  149MOL0     H20059   8.767  -0.976   2.394 -2.6478 -2.7095 -2.0063
  149MOL0     H20060   8.554  -0.793   2.272 -1.8509  1.3898  3.4279
  149MOL0     H20061   8.555  -0.967   2.249 -0.8648  1.1905  0.0323
  149MOL0     H20062   8.529  -1.014   2.475 -0.2473 -0.2239  0.6316
  149MOL0     H20063   8.583  -0.861   2.533 -0.3025 -2.3880  1.4499
  149MOL0     H20064   8.325  -0.928   2.391 -0.9870 -0.8657  0.8059
  149MOL0     H20065   8.379  -0.763   2.443  4.4805 -0.4870 -0.0044
  149MOL0     H20066   8.526  -0.923   2.726  0.3313  2.4350 -1.5127
  149MOL0     H20067   8.323  -1.111   2.962  1.1634 -1.3378 -1.4917
  149MOL0     H20068   8.483  -1.038   2.957 -0.4910 -3.2664  1.5450
  149MOL0     H20069   8.342  -0.969   3.156  2.7610 -2.9087 -1.0099
  149MOL0     H20070   8.220  -0.890   3.057 -0.5251 -0.2371  0.4109
  149MOL0     H20071   8.334  -0.723   3.134  0.3086 -1.3262  1.2179
  149MOL0     H20072   8.399  -0.738   2.965 -0.4868  2.4822  0.5109
  149MOL0     H20073   8.592  -0.861   3.074 -1.5475 -1.0302  0.6802
  149MOL0     H20074   8.506  -0.859   3.225 -1.7321 -1.6057 -1.7348
  149MOL0     H20075   8.672  -0.437   3.225  1.9170  1.2823 -0.0231
  149MOL0     H20076   8.885  -0.236   3.130  0.0740 -0.6697  1.0766
  149MOL0     H20077   8.752  -0.163   3.040  0.8942  0.7168 -0.7447
  149MOL0     H20078   8.734  -0.239   3.205 -0.1435 -1.1901 -0.2034
  149MOL0     H20079   8.949  -0.291   2.529 -0.3999  2.2165 -0.9499
  149MOL0     H20080   9.123  -0.167   2.422 -3.0804  1.0046  1.9803
  149MOL0     H20081   9.316  -0.142   2.326  0.8046  0.4088 -0.7822
  149MOL0     H20082   9.454  -0.043   2.360 -0.0244 -0.0312  0.7008
  149MOL0     H20083   9.537  -0.255   2.247 -1.8122 -0.1751 -1.1955
  149MOL0     H20084   9.591  -0.245   2.418  0.9344 -0.2590 -2.2043
  149MOL0     H20085   9.339  -0.414   2.323  0.3305  0.6588 -0.2377
  149MOL0     H20086   9.415  -0.409   2.489  3.8803  0.8657  0.9532
  149MOL0     H20087   9.576  -0.494   2.253 -0.1583  0.0564  0.1101
  149MOL0     H20088   9.609  -0.504   2.416  0.6947 -0.5000 -1.7888
  149MOL0     H20089   9.505  -0.732   2.355 -1.1601 -0.8340  3.7707
  149MOL0     H20090   9.363  -0.656   2.302 -2.5663 -3.3224  2.0490
  149MOL0     H20091   9.491  -0.662   2.574  1.0948 -0.2302  0.6086
  149MOL0     H20092   9.328  -0.585   2.540 -0.6565 -2.0490  2.5295
  149MOL0     H20093   9.401  -0.877   2.498  0.9621  0.6605 -1.5839
  149MOL0     H20094   9.238  -0.812   2.508  1.0279  0.1931 -2.4773
  149MOL0     H20095   9.441  -0.823   2.737  0.0460 -1.5958 -0.2026
  149MOL0     H20096   9.311  -0.939   2.706  0.2952 -0.0902 -2.2375
  149MOL0     H20097   9.399  -0.277   2.745  0.3175  3.1767 -0.4202
  149MOL0     H20098   9.206  -0.400   2.845  2.6566  1.9609  1.0529
  149MOL0     H20099   8.792  -0.598   2.775  2.0201  2.6718 -0.6544
  149MOL0     H20100   8.675  -0.751   2.939 -0.0849 -0.4312 -0.3952
  149MOL0     H20101   9.141  -0.172   2.231  1.8293 -1.2316 -0.8392
  149MOL0     H20102   9.141   0.034   2.085  0.3690  0.3426 -0.4803
  149MOL0     H20103   8.827   0.190   1.776  1.9689 -0.0897  1.7396
  149MOL0     H20104   8.718   0.332   1.603 -1.1751 -0.6835  4.0071
  149MOL0     H20105   8.806   0.394   1.303  0.3473 -0.8555  1.5426
  149MOL0     H20106   8.678   0.442   1.412 -0.6064  1.2342  0.9465
  149MOL0     H20107   8.822   0.644   1.260 -1.4295  0.2183  0.0615
  149MOL0     H20108   8.653   0.644   1.319 -2.6101 -2.1429 -1.7279
  149MOL0     H20109   8.639   0.430   1.145  3.0277 -2.5381 -1.6333
  149MOL0     H20110   8.777   0.507   1.076  1.9133  1.3620  2.2185
  149MOL0     H20111   8.654   0.732   1.054 -0.3264 -0.0734 -1.0385
  149MOL0     H20112   8.515   0.640   1.126 -1.4377  1.2014 -1.4623
  149MOL0     H20113   8.549   0.573   0.707  1.2096  2.9661 -0.8820
  149MOL0     H20114   9.115   0.502   1.525  1.8271 -0.6777  1.5796
  149MOL0     H20115   9.207   0.365   1.688  0.0873 -1.8230  0.7865
  150MOL0     O20116   1.307   5.514   0.444  0.4140  0.4363 -0.7048
  150MOL0     C20117   1.230   5.510   0.350  0.0878  0.1857 -0.2367
  150MOL0     O20118   1.226   5.609   0.248  0.1121 -0.6301 -0.1264
  150MOL0     C20119   1.325   5.697   0.232  0.1221  0.0583 -1.2317
  150MOL0     C20120   1.347   5.802   0.330 -0.4148  0.7990  0.3527
  150MOL0     C20121   1.426   5.911   0.289  0.9255  0.7736  0.1912
  150MOL0     C20122   1.495   5.912   0.167  0.0661  0.3463 -0.0356
  150MOL0     O20123   1.596   6.000   0.138 -0.0371  0.0739 -0.0404
  150MOL0     C20124   1.566   6.145   0.156  0.1379  0.3422 -0.1034
  150MOL0     C20125   1.604   6.224   0.029 -0.8798  0.0567  0.4791
  150MOL0     C20126   1.761   6.212  -0.000 -0.1372 -0.4902 -0.8919
  150MOL0     C20127   1.783   6.215  -0.156 -0.6868 -0.1157  0.3998
  150MOL0     C20128   1.803   6.359  -0.219  0.1586  0.1177  0.0905
  150MOL0     C20129   1.879   6.350  -0.353  0.8751  0.1498  0.7875
  150MOL0     C20130   1.858   6.475  -0.435 -0.1027 -1.2102  0.3150
  150MOL0     C20131   1.919   6.597  -0.375 -0.2061 -0.8142  0.1609
  150MOL0     N20132   1.946   6.700  -0.479 -0.2022 -0.1167 -0.0896
  150MOL0     C20133   1.857   6.743  -0.576 -0.4977  0.1436 -0.1465
  150MOL0     C20134   1.922   6.823  -0.664  0.4392  0.4076 -1.1425
  150MOL0     C20135   1.863   6.901  -0.779  0.1292  0.9671 -0.6030
  150MOL0     C20136   1.801   6.809  -0.886  0.5987  0.1486  0.1402
  150MOL0     C20137   1.920   6.740  -0.966 -0.3681  0.2552 -0.2989
  150MOL0     C20138   1.889   6.700  -1.116  0.4702  0.2037  0.7658
  150MOL0     O20139   1.980   6.740  -1.221  0.1685 -0.3943  0.0096
  150MOL0     C20140   2.033   6.863  -1.213  0.4812  0.2166  0.8283
  150MOL0     C20141   1.964   6.986  -1.190  0.6240  0.5212 -0.4333
  150MOL0     C20142   2.028   7.107  -1.194 -0.5146 -0.1112 -0.0632
  150MOL0     C20143   1.936   7.233  -1.170 -1.0538 -0.4567 -0.0077
  150MOL0     C20144   2.171   7.105  -1.225  0.9628 -0.4331  0.1772
  150MOL0     C20145   2.244   7.234  -1.237 -1.2484  0.5621 -0.0122
  150MOL0     O20146   2.354   7.238  -1.317 -1.0399 -0.3683 -0.5391
  150MOL0     C20147   2.423   7.358  -1.325  0.3284  0.7123 -0.3771
  150MOL0     C20148   2.540   7.385  -1.256 -0.2138 -0.3977  0.2671
  150MOL0     C20149   2.606   7.505  -1.253 -0.4732  0.1566  1.2397
  150MOL0     C20150   2.570   7.612  -1.338 -0.7240  0.4153 -0.5761
  150MOL0     O20151   2.639   7.737  -1.344  0.3568  0.5398  0.2805
  150MOL0     C20152   2.711   7.738  -1.468 -0.2284 -0.0882 -0.0513
  150MOL0     C20153   2.834   7.826  -1.444  0.0219 -0.0197  1.3548
  150MOL0     C20154   2.805   7.966  -1.403  0.3442 -0.9464  0.0720
  150MOL0     C20155   2.724   8.037  -1.512  0.0248  0.1753 -0.5546
  150MOL0     C20156   2.666   8.162  -1.441  0.3965 -0.2893 -0.8064
  150MOL0     C20157   2.546   8.210  -1.524 -0.7433  0.5125 -0.5646
  150MOL0     C20158   2.488   8.336  -1.456  0.3782  0.5131 -0.4208
  150MOL0     C20159   2.419   8.314  -1.322  0.4602  0.2189  0.1240
  150MOL0    Cl20160   2.302   8.184  -1.309 -0.0577  0.1739 -0.0633
  150MOL0     C20161   2.455   7.586  -1.412 -0.3448 -0.0663 -0.2243
  150MOL0     C20162   2.381   7.465  -1.403  1.0800 -0.2465  0.5355
  150MOL0     O20163   2.205   7.328  -1.177  0.0598 -0.2292  0.1977
  150MOL0     C20164   2.234   6.992  -1.262  0.0814  0.1689  0.2737
  150MOL0     C20165   2.163   6.874  -1.249 -0.4589  1.0671 -0.5856
  150MOL0     N20166   2.048   6.827  -0.616  0.0673 -0.0549 -0.1014
  150MOL0     N20167   2.065   6.753  -0.502  0.4484 -0.0784  0.6240
  150MOL0     C20168   1.484   5.806   0.079  0.3039 -0.1225 -0.2497
  150MOL0     C20169   1.398   5.704   0.117 -0.5330 -0.2332 -0.4917
  150MOL0     C20170   1.130   5.403   0.346  0.5601 -0.1971 -0.0517
  150MOL0     C20171   1.037   5.379   0.240 -0.3098  0.6337 -0.2449
  150MOL0     C20172   0.941   5.275   0.251  0.6117  0.5041 -0.0533
  150MOL0     C20173   0.928   5.197   0.361  0.0769 -0.3776 -0.0028
  150MOL0     O20174   0.832   5.101   0.367 -0.0089 -0.2618 -0.2080
  150MOL0     C20175   0.739   5.120   0.477 -1.0660  0.8171 -0.4474
  150MOL0     C20176   0.609   5.071   0.420  0.3812 -0.0429 -0.2539
  150MOL0     C20177   0.506   5.052   0.540  0.2537 -0.4504  0.6379
  150MOL0     C20178   0.389   4.962   0.502 -0.5207 -0.3495  1.6721
  150MOL0     C20179   0.436   4.826   0.489 -0.3012 -0.1413  0.9144
  150MOL0     C20180   0.482   4.710   0.473 -0.1071 -0.2483 -1.2746
  150MOL0     C20181   1.010   5.232   0.472 -0.1469  0.1438 -0.5056
  150MOL0     C20182   1.110   5.331   0.461  0.4650  0.1734 -0.0899
  150MOL0     H20183   1.306   5.813   0.430  1.5298  1.9721  1.0923
  150MOL0     H20184   1.437   5.995   0.357 -4.7738  0.1443  2.5178
  150MOL0     H20185   1.462   6.164   0.183  0.3748 -0.8245  1.7575
  150MOL0     H20186   1.617   6.181   0.246 -0.8323 -2.8234  1.8559
  150MOL0     H20187   1.551   6.189  -0.060 -3.4995 -0.1659  2.0407
  150MOL0     H20188   1.574   6.328   0.036  0.4472  0.5312 -0.3446
  150MOL0     H20189   1.817   6.291   0.050 -1.8713  0.1848  0.0596
  150MOL0     H20190   1.791   6.115   0.042  0.0417  0.9862  2.7312
  150MOL0     H20191   1.876   6.160  -0.171 -1.5758 -1.1571 -1.7053
  150MOL0     H20192   1.706   6.157  -0.209 -0.6793 -0.9266  1.2460
  150MOL0     H20193   1.706   6.409  -0.228  0.3853  0.1566 -4.0317
  150MOL0     H20194   1.867   6.409  -0.146  1.1659 -2.7033  1.3126
  150MOL0     H20195   1.984   6.333  -0.332  2.0947  1.1771 -3.4760
  150MOL0     H20196   1.846   6.266  -0.414  0.9213  0.5320  0.2218
  150MOL0     H20197   1.911   6.453  -0.528  0.0562 -0.7087  0.2830
  150MOL0     H20198   1.755   6.504  -0.457  0.2044 -0.2935  0.0198
  150MOL0     H20199   2.016   6.570  -0.333 -0.7137 -1.8733  0.6906
  150MOL0     H20200   1.849   6.643  -0.304 -1.9521 -2.9771 -0.0433
  150MOL0     H20201   1.752   6.724  -0.591  0.3211 -5.0675 -1.0172
  150MOL0     H20202   1.792   6.974  -0.737  1.0138  0.2905  2.3248
  150MOL0     H20203   1.945   6.956  -0.826 -0.6468  1.5410 -1.3421
  150MOL0     H20204   1.743   6.869  -0.957 -1.0113 -0.8521  0.5516
  150MOL0     H20205   1.725   6.745  -0.841  2.0205 -1.3928  0.4636
  150MOL0     H20206   1.966   6.660  -0.907 -3.2031 -1.4055 -0.1458
  150MOL0     H20207   2.006   6.808  -0.967 -0.1023  0.0431  2.0796
  150MOL0     H20208   1.789   6.731  -1.150  0.6188 -1.3938 -1.2772
  150MOL0     H20209   1.883   6.591  -1.111 -0.7426 -0.0911 -3.3860
  150MOL0     H20210   1.862   6.981  -1.153  1.5580 -0.2842  2.2690
  150MOL0     H20211   1.834   7.203  -1.196 -0.8535 -1.1090 -0.0646
  150MOL0     H20212   1.948   7.266  -1.066  0.4474  1.8313 -0.8304
  150MOL0     H20213   1.972   7.317  -1.230  0.8101  0.5063  2.2920
  150MOL0     H20214   2.578   7.310  -1.187 -0.6568  1.0817  2.2233
  150MOL0     H20215   2.700   7.510  -1.200 -0.0664 -4.2650  1.2858
  150MOL0     H20216   2.746   7.638  -1.497 -0.7212 -0.1447 -0.4609
  150MOL0     H20217   2.649   7.778  -1.548 -2.4608 -0.6217  1.3061
  150MOL0     H20218   2.889   7.782  -1.360  0.6393  0.4870  1.2286
  150MOL0     H20219   2.894   7.827  -1.536 -1.3023 -0.4643  0.4657
  150MOL0     H20220   2.895   8.023  -1.377  0.2348  0.1092 -1.6742
  150MOL0     H20221   2.738   7.966  -1.317 -2.1790  3.3740 -1.5830
  150MOL0     H20222   2.786   8.056  -1.601 -0.9199  1.5791 -0.9556
  150MOL0     H20223   2.641   7.972  -1.538  1.3703 -1.2048 -1.6265
  150MOL0     H20224   2.737   8.244  -1.430 -0.3919  0.8015 -3.2215
  150MOL0     H20225   2.636   8.144  -1.337 -1.8037  2.1081 -0.9203
  150MOL0     H20226   2.577   8.225  -1.628 -1.2222  0.6158 -0.6928
  150MOL0     H20227   2.473   8.129  -1.533  0.0203 -0.0314 -2.3955
  150MOL0     H20228   2.421   8.373  -1.533  1.4599  2.5729 -0.4484
  150MOL0     H20229   2.567   8.406  -1.424  0.3639  0.9932 -1.4123
  150MOL0     H20230   2.362   8.401  -1.288 -0.9050 -0.2489 -0.8847
  150MOL0     H20231   2.499   8.310  -1.247  1.6997 -0.6621 -1.1686
  150MOL0     H20232   2.417   7.668  -1.473 -0.4827 -1.0372 -1.4956
  150MOL0     H20233   2.290   7.467  -1.462  1.0834 -0.9293  0.4996
  150MOL0     H20234   2.340   6.991  -1.284  0.0080  1.0463 -0.1858
  150MOL0     H20235   2.210   6.779  -1.271  1.7492  1.7077  0.9411
  150MOL0     H20236   1.537   5.810  -0.015  3.3761  3.5856  1.3913
  150MOL0     H20237   1.394   5.616   0.054  0.0679  0.3297 -1.3624
  150MOL0     H20238   1.046   5.423   0.141  2.0729 -1.8010 -1.2405
  150MOL0     H20239   0.884   5.266   0.159  0.0530  1.5180  0.1822
  150MOL0     H20240   0.775   5.064   0.564 -3.2719 -0.4072 -0.2608
  150MOL0     H20241   0.734   5.224   0.511  0.3993  0.3644  1.3162
  150MOL0     H20242   0.620   4.973   0.373 -0.8792 -0.2713 -0.1246
  150MOL0     H20243   0.575   5.143   0.345 -2.4910  3.2761  3.7527
  150MOL0     H20244   0.468   5.151   0.568 -1.0945 -1.0033  0.8456
  150MOL0     H20245   0.556   5.009   0.628 -1.3296 -4.5661 -0.2171
  150MOL0     H20246   0.340   4.983   0.407 -0.6272 -2.0715  1.3251
  150MOL0     H20247   0.313   4.960   0.581 -4.5836 -1.4131 -1.8676
  150MOL0     H20248   0.503   4.607   0.455 -1.5460 -1.1704  1.6527
  150MOL0     H20249   0.998   5.162   0.555  1.9245 -1.1274 -1.2190
  150MOL0     H20250   1.185   5.335   0.539  2.1593  0.8499 -1.6821
  151MOL0     O20251   6.967   8.142   6.836 -0.7798  1.3956 -0.0380
  151MOL0     C20252   7.022   8.031   6.839 -0.9328 -0.3076 -0.5476
  151MOL0     O20253   7.118   7.984   6.753  0.0541 -0.6288  0.0637
  151MOL0     C20254   7.173   8.063   6.656  0.0053 -0.2967  0.4014
  151MOL0     C20255   7.183   8.208   6.644  0.0128  0.0672  0.1743
  151MOL0     C20256   7.250   8.267   6.544  0.1904  0.6844  0.0265
  151MOL0     C20257   7.309   8.191   6.445 -0.0650 -0.8933  0.1868
  151MOL0     O20258   7.381   8.255   6.349  0.1449 -0.3547 -0.1056
  151MOL0     C20259   7.414   8.194   6.222  0.1751 -0.2638 -0.6810
  151MOL0     C20260   7.472   8.291   6.117  0.2039  1.1428  1.2047
  151MOL0     C20261   7.557   8.214   6.018  0.2833 -0.0437  0.0819
  151MOL0     C20262   7.463   8.122   5.940  0.8218 -0.4573  0.1749
  151MOL0     C20263   7.542   8.027   5.844  0.6389 -1.1962 -0.1403
  151MOL0     C20264   7.586   7.901   5.918  0.3747 -0.3340 -0.8251
  151MOL0     C20265   7.481   7.789   5.908 -0.4927  0.4724  1.2230
  151MOL0     C20266   7.495   7.707   5.778  0.5996  1.2140 -0.4983
  151MOL0     N20267   7.397   7.593   5.775 -0.6493  0.1939  0.0862
  151MOL0     C20268   7.260   7.605   5.784 -0.0305 -0.7210  0.3556
  151MOL0     C20269   7.209   7.491   5.728  0.5569  0.2318 -0.3098
  151MOL0     C20270   7.069   7.457   5.729 -0.5423 -0.2056 -0.3302
  151MOL0     C20271   7.004   7.528   5.616  0.1723  0.0544  0.4084
  151MOL0     C20272   7.021   7.473   5.480  0.5203 -0.1596 -0.9037
  151MOL0     C20273   6.985   7.578   5.364  0.4039 -0.0757  0.2744
  151MOL0     O20274   6.865   7.661   5.400 -0.3143  1.0808  0.1202
  151MOL0     C20275   6.802   7.709   5.288 -0.2394  0.2161  0.4277
  151MOL0     C20276   6.859   7.768   5.175 -0.2437  0.1614 -0.2768
  151MOL0     C20277   6.778   7.803   5.070 -0.1358 -0.5853  0.4484
  151MOL0     C20278   6.859   7.861   4.960 -0.2124 -0.5467 -0.8335
  151MOL0     C20279   6.642   7.776   5.065 -0.4225 -0.5829 -0.7326
  151MOL0     C20280   6.540   7.804   4.952  0.1804  0.4048  0.2016
  151MOL0     O20281   6.430   7.734   4.963 -0.9274  0.5194 -0.6529
  151MOL0     C20282   6.341   7.712   4.863  0.1113 -0.3650  0.6298
  151MOL0     C20283   6.345   7.756   4.729  1.6292  0.1494  0.4776
  151MOL0     C20284   6.233   7.721   4.650  0.3678 -0.1087  0.7719
  151MOL0     C20285   6.136   7.632   4.689 -1.6425  0.9596 -0.3786
  151MOL0     O20286   6.041   7.593   4.594  0.3641 -0.5438 -0.2713
  151MOL0     C20287   5.911   7.543   4.630  0.1836  0.6561  0.5385
  151MOL0     C20288   5.817   7.647   4.672  1.1705 -0.6514  0.4594
  151MOL0     C20289   5.693   7.591   4.734 -0.4696  0.0944  0.3835
  151MOL0     C20290   5.654   7.643   4.872  0.0641 -0.6442 -0.3344
  151MOL0     C20291   5.555   7.576   4.961  0.7454  0.8123  0.4104
  151MOL0     C20292   5.405   7.599   4.918 -0.0642 -0.0324  0.0091
  151MOL0     C20293   5.352   7.503   4.814  0.8502 -0.3109 -0.3408
  151MOL0     C20294   5.204   7.483   4.829  0.6507 -0.1866  1.4446
  151MOL0    Cl20295   5.132   7.640   4.818 -0.8268  0.5593  0.1345
  151MOL0     C20296   6.136   7.585   4.818  0.2960 -0.8333  0.5223
  151MOL0     C20297   6.238   7.621   4.906 -0.8714  0.8664  0.1492
  151MOL0     O20298   6.572   7.881   4.861  0.9859 -0.2198  0.7002
  151MOL0     C20299   6.591   7.709   5.182  0.3016 -1.2298  0.3712
  151MOL0     C20300   6.669   7.670   5.286 -0.5903 -0.0855  0.1412
  151MOL0     N20301   7.309   7.406   5.704  0.3642 -0.3465  0.2269
  151MOL0     N20302   7.425   7.472   5.732  0.5155  0.0584 -0.3864
  151MOL0     C20303   7.299   8.052   6.441 -0.6747  0.0980  0.1663
  151MOL0     C20304   7.228   7.981   6.542  0.0623 -0.1593 -1.6202
  151MOL0     C20305   6.997   7.941   6.951  0.4181 -0.7222  0.5821
  151MOL0     C20306   6.914   7.977   7.062 -0.2746  0.0165  0.5207
  151MOL0     C20307   6.882   7.886   7.161  0.5340  0.7936  0.3320
  151MOL0     C20308   6.931   7.751   7.157 -0.1196  0.0937  0.3843
  151MOL0     O20309   6.893   7.666   7.253 -0.3349  0.3283 -0.0069
  151MOL0     C20310   6.880   7.522   7.218 -1.0096 -0.3913  0.0506
  151MOL0     C20311   6.754   7.476   7.297  0.3074  0.0931  0.4228
  151MOL0     C20312   6.792   7.424   7.436 -0.8215  0.4322  0.1493
  151MOL0     C20313   6.679   7.387   7.531 -0.8421 -0.7246 -0.1919
  151MOL0     C20314   6.614   7.269   7.474  0.4302  0.2612  0.8155
  151MOL0     C20315   6.564   7.180   7.408  0.7091  0.4987  0.1051
  151MOL0     C20316   6.997   7.710   7.037 -0.0160 -0.4403 -0.5091
  151MOL0     C20317   7.027   7.807   6.939  0.1916  0.3075 -0.0734
  151MOL0     H20318   7.135   8.276   6.714 -0.3982  0.1625 -0.2000
  151MOL0     H20319   7.258   8.375   6.545  0.5795  0.6761 -1.1064
  151MOL0     H20320   7.490   8.120   6.249 -1.9061 -1.4409  2.6124
  151MOL0     H20321   7.331   8.130   6.190  1.2621 -1.9921 -0.2074
  151MOL0     H20322   7.395   8.334   6.052  2.2755 -1.0585 -3.1806
  151MOL0     H20323   7.537   8.364   6.164  3.8328 -0.0197 -1.5462
  151MOL0     H20324   7.616   8.284   5.958 -1.8522  2.2899  0.5536
  151MOL0     H20325   7.625   8.154   6.079  1.7410 -0.6455 -2.0281
  151MOL0     H20326   7.401   8.059   6.005  0.8576  1.4084  2.1199
  151MOL0     H20327   7.393   8.184   5.884  0.7777  0.6010  1.3658
  151MOL0     H20328   7.481   7.997   5.758 -0.4368 -2.1565  0.9188
  151MOL0     H20329   7.638   8.067   5.810  0.7290 -0.4329  0.9918
  151MOL0     H20330   7.684   7.864   5.889 -0.0329 -1.4125 -0.8514
  151MOL0     H20331   7.590   7.933   6.023 -3.1710 -3.1231  0.3812
  151MOL0     H20332   7.493   7.720   5.993  0.8003 -2.3495 -1.0761
  151MOL0     H20333   7.379   7.827   5.919 -1.2111 -1.2383  0.7555
  151MOL0     H20334   7.598   7.677   5.759 -0.1596 -1.5599 -0.6636
  151MOL0     H20335   7.469   7.769   5.691 -0.8045 -0.3217 -1.2203
  151MOL0     H20336   7.205   7.694   5.810  2.3988  0.6345  1.1385
  151MOL0     H20337   7.041   7.351   5.726 -0.8506 -0.1230 -0.4153
  151MOL0     H20338   7.033   7.494   5.825  0.3755 -0.5879  0.1713
  151MOL0     H20339   7.051   7.628   5.615  0.3472  0.1013 -3.4900
  151MOL0     H20340   6.900   7.539   5.646 -0.1595 -1.5721 -0.0547
  151MOL0     H20341   6.974   7.374   5.475  1.0130 -0.8963  3.7917
  151MOL0     H20342   7.127   7.456   5.463 -0.1535 -3.0851 -2.9017
  151MOL0     H20343   6.962   7.536   5.266 -0.6174 -1.2259  0.9756
  151MOL0     H20344   7.071   7.645   5.355 -0.4725  0.8863 -1.5870
  151MOL0     H20345   6.965   7.789   5.172 -0.2118  0.2571  0.9224
  151MOL0     H20346   6.956   7.893   4.999 -0.2834 -1.4933  0.1658
  151MOL0     H20347   6.877   7.801   4.871  1.9419  0.0525 -0.8544
  151MOL0     H20348   6.813   7.958   4.939 -2.2348 -0.9223  1.3648
  151MOL0     H20349   6.421   7.822   4.687 -1.0264  2.4256 -1.1293
  151MOL0     H20350   6.233   7.755   4.547  2.4411 -1.4863  0.2301
  151MOL0     H20351   5.866   7.491   4.545  2.8116  1.9980 -1.8554
  151MOL0     H20352   5.929   7.465   4.705  0.5749 -0.3045 -0.5330
  151MOL0     H20353   5.864   7.710   4.748  1.3129  1.3435 -1.2212
  151MOL0     H20354   5.800   7.722   4.595 -0.4940 -0.8359  0.6196
  151MOL0     H20355   5.706   7.483   4.746  0.8056  0.0768 -0.9175
  151MOL0     H20356   5.610   7.608   4.666 -0.1712 -0.8191 -0.2270
  151MOL0     H20357   5.744   7.651   4.935  0.6146 -0.7880 -1.0832
  151MOL0     H20358   5.622   7.745   4.848  1.4694 -0.7166 -2.7782
  151MOL0     H20359   5.573   7.616   5.061  1.5841  4.1636 -0.9661
  151MOL0     H20360   5.589   7.473   4.972  1.5051  0.8321 -1.3919
  151MOL0     H20361   5.349   7.597   5.011  3.1717 -0.1407  2.1254
  151MOL0     H20362   5.399   7.695   4.867  0.9697 -0.4426 -0.9408
  151MOL0     H20363   5.394   7.404   4.796 -0.4079 -0.7353 -1.0367
  151MOL0     H20364   5.366   7.539   4.712  2.2774  1.3133  0.3725
  151MOL0     H20365   5.172   7.443   4.926 -3.5576  3.1124  1.7278
  151MOL0     H20366   5.170   7.421   4.746 -0.2434  1.3442  0.6188
  151MOL0     H20367   6.062   7.527   4.872  1.9308 -1.7082  1.9309
  151MOL0     H20368   6.235   7.578   5.005 -4.8701  1.5552  0.4852
  151MOL0     H20369   6.491   7.667   5.182 -0.4069  0.3837  1.1586
  151MOL0     H20370   6.624   7.618   5.370  0.0936  0.2917  0.7568
  151MOL0     H20371   7.334   7.993   6.357 -2.2491 -1.1807  0.3594
  151MOL0     H20372   7.206   7.875   6.550 -2.1549  0.3540  0.9808
  151MOL0     H20373   6.880   8.080   7.056 -0.5573 -0.0422  1.0122
  151MOL0     H20374   6.803   7.908   7.233 -1.3079  0.2697 -1.4313
  151MOL0     H20375   6.855   7.503   7.114 -0.4590  0.5788 -0.2738
  151MOL0     H20376   6.971   7.467   7.245  1.1586  1.8348 -2.1239
  151MOL0     H20377   6.721   7.391   7.238 -1.1455 -0.9857  2.6428
  151MOL0     H20378   6.676   7.552   7.303 -1.2198 -0.9379 -3.4128
  151MOL0     H20379   6.846   7.491   7.504 -2.1254 -2.5821  4.6852
  151MOL0     H20380   6.850   7.331   7.429 -1.5720  0.0495 -1.3662
  151MOL0     H20381   6.609   7.472   7.533 -0.2130 -0.1650 -1.2369
  151MOL0     H20382   6.710   7.370   7.634  0.2429  1.6390 -0.0509
  151MOL0     H20383   6.527   7.096   7.353 -0.2224  1.0191 -0.0891
  151MOL0     H20384   7.027   7.608   7.013  2.1199  0.3214 -1.3463
  151MOL0     H20385   7.071   7.771   6.847 -0.4201  1.7762 -0.9707
  152MOL0     O20386   2.876   1.163   0.925 -0.0861  0.2057  0.6094
  152MOL0     C20387   2.825   1.132   1.033  0.5517  0.7009 -0.3590
  152MOL0     O20388   2.897   1.084   1.144  0.0993  0.2298  0.1827
  152MOL0     C20389   3.030   1.058   1.121  0.8121  0.0073 -0.0580
  152MOL0     C20390   3.064   0.927   1.097 -0.0605  1.0077 -0.9294
  152MOL0     C20391   3.194   0.884   1.086 -0.0552 -0.1765  0.1605
  152MOL0     C20392   3.301   0.982   1.099  0.0030  1.4173 -0.6837
  152MOL0     O20393   3.425   0.931   1.111 -0.9902 -0.1995 -0.1385
  152MOL0     C20394   3.536   1.021   1.136 -0.3262  0.4612  0.4922
  152MOL0     C20395   3.660   0.936   1.115 -0.8456 -1.0938 -0.7318
  152MOL0     C20396   3.785   1.021   1.096 -0.1443  0.5785 -0.1456
  152MOL0     C20397   3.891   0.913   1.071 -0.3381 -0.1370  0.1673
  152MOL0     C20398   4.017   0.989   1.012  0.0930 -0.2220 -0.4722
  152MOL0     C20399   4.013   0.986   0.856  0.1153 -0.2001 -0.2333
  152MOL0     C20400   4.093   1.098   0.808 -0.3462  0.0360 -0.0739
  152MOL0     C20401   4.005   1.220   0.775 -0.1113  0.7603 -0.8696
  152MOL0     N20402   3.929   1.224   0.652  0.2906 -0.5943  0.0208
  152MOL0     C20403   3.929   1.150   0.543 -0.3009  0.6577  0.1417
  152MOL0     C20404   3.835   1.204   0.455 -0.4551 -0.8059  0.0902
  152MOL0     C20405   3.790   1.165   0.309  0.4183 -0.3076 -0.4095
  152MOL0     C20406   3.707   1.271   0.244 -0.3592 -0.4391  0.6905
  152MOL0     C20407   3.568   1.294   0.300 -0.0109  0.5796  0.4042
  152MOL0     C20408   3.549   1.440   0.272 -0.0514  0.4960 -0.5150
  152MOL0     O20409   3.412   1.479   0.296  0.1679  0.5514  0.0656
  152MOL0     C20410   3.350   1.515   0.183 -1.1658  0.2766  0.1148
  152MOL0     C20411   3.397   1.638   0.122  0.4342  0.7452 -0.6281
  152MOL0     C20412   3.332   1.695   0.017 -0.0654 -0.8312  0.1843
  152MOL0     C20413   3.390   1.826  -0.028 -1.0366  0.6961  1.0677
  152MOL0     C20414   3.211   1.631  -0.033 -0.1378 -0.2415  0.0703
  152MOL0     C20415   3.123   1.694  -0.144 -0.7191  0.0742  0.2518
  152MOL0     O20416   3.016   1.620  -0.183  0.0298 -0.6056 -0.5867
  152MOL0     C20417   2.927   1.643  -0.283  0.6353 -0.3077 -0.2971
  152MOL0     C20418   2.840   1.542  -0.295 -0.3354 -0.1009  0.9637
  152MOL0     C20419   2.728   1.542  -0.390 -0.5647 -0.1490 -1.2274
  152MOL0     C20420   2.715   1.654  -0.472 -0.0513 -0.3230 -0.1452
  152MOL0     O20421   2.613   1.684  -0.559  0.2566  0.0337  0.6599
  152MOL0     C20422   2.595   1.605  -0.677 -0.3595  0.4477 -0.2206
  152MOL0     C20423   2.529   1.472  -0.645  0.5507  0.2485 -0.4331
  152MOL0     C20424   2.525   1.376  -0.766 -0.0291  0.5179 -0.8674
  152MOL0     C20425   2.486   1.228  -0.724 -0.7377 -0.1913 -0.2486
  152MOL0     C20426   2.406   1.162  -0.844  0.5286  0.6528  0.6418
  152MOL0     C20427   2.362   1.020  -0.817  0.1184  1.3138 -0.4717
  152MOL0     C20428   2.493   0.933  -0.826  0.3102  0.4898  0.2000
  152MOL0     C20429   2.469   0.785  -0.794  0.3273 -0.6418 -0.9279
  152MOL0    Cl20430   2.395   0.760  -0.632  0.1362 -0.3627 -0.4608
  152MOL0     C20431   2.806   1.763  -0.455  0.2147 -0.2931 -0.1156
  152MOL0     C20432   2.915   1.756  -0.364  1.1217 -0.0357  0.2811
  152MOL0     O20433   3.156   1.800  -0.191 -1.0799 -0.2048  0.9418
  152MOL0     C20434   3.170   1.510   0.024 -0.3677 -0.4348 -0.9734
  152MOL0     C20435   3.236   1.453   0.128 -0.4839  0.3029 -0.3143
  152MOL0     N20436   3.766   1.292   0.528  0.3103 -0.3853  0.5448
  152MOL0     N20437   3.819   1.297   0.640  0.0760  0.3235  0.0349
  152MOL0     C20438   3.270   1.113   1.115 -0.3575 -0.1755 -0.6516
  152MOL0     C20439   3.134   1.156   1.129 -1.0271  0.0207  0.0195
  152MOL0     C20440   2.677   1.140   1.045 -0.1370  0.6929 -0.6552
  152MOL0     C20441   2.610   1.119   1.166  0.0917 -0.4553 -1.5938
  152MOL0     C20442   2.473   1.152   1.162  0.3416  0.6658 -1.7856
  152MOL0     C20443   2.397   1.202   1.053 -0.8516  0.9797  0.0025
  152MOL0     O20444   2.264   1.225   1.066 -0.0301 -0.2394 -0.1199
  152MOL0     C20445   2.180   1.195   0.951  0.1966  0.3045 -0.2485
  152MOL0     C20446   2.033   1.170   0.989 -0.1830  0.9289  0.2067
  152MOL0     C20447   1.955   1.115   0.865  0.8250 -0.3630 -0.2061
  152MOL0     C20448   1.809   1.101   0.905  0.3880 -0.8299  0.3239
  152MOL0     C20449   1.719   1.062   0.792 -0.3418 -0.6301 -0.6210
  152MOL0     C20450   1.650   1.011   0.703  0.6244 -0.5987 -0.2374
  152MOL0     C20451   2.470   1.204   0.926  0.1151  0.6377 -0.2434
  152MOL0     C20452   2.606   1.181   0.934  0.0316  0.3061  0.1011
  152MOL0     H20453   2.994   0.845   1.088  0.8603  0.1528 -0.5294
  152MOL0     H20454   3.219   0.779   1.072 -0.9227 -0.2839 -0.6832
  152MOL0     H20455   3.539   1.110   1.072 -1.0962  0.7387  0.8380
  152MOL0     H20456   3.547   1.056   1.239 -1.4119 -0.0276  0.7872
  152MOL0     H20457   3.678   0.872   1.203  2.1895 -0.8608 -1.0648
  152MOL0     H20458   3.660   0.867   1.030  4.2295 -2.2563 -0.1671
  152MOL0     H20459   3.766   1.098   1.021 -0.1540 -2.0092 -3.0041
  152MOL0     H20460   3.806   1.077   1.188 -2.5398  1.6393 -0.1604
  152MOL0     H20461   3.936   0.873   1.163 -0.3061 -0.0701  0.1806
  152MOL0     H20462   3.859   0.828   1.010  0.6415 -1.6730  1.6959
  152MOL0     H20463   4.013   1.087   1.060 -0.6030  0.9626 -2.7483
  152MOL0     H20464   4.111   0.940   1.038 -1.7094 -3.7484 -0.0517
  152MOL0     H20465   4.071   0.895   0.840  0.2220 -0.2865  0.6381
  152MOL0     H20466   3.918   0.996   0.802  1.0052  2.8353 -1.4004
  152MOL0     H20467   4.163   1.111   0.891 -1.8051 -1.4132  1.4735
  152MOL0     H20468   4.144   1.058   0.720  0.4654 -1.4877  1.0329
  152MOL0     H20469   4.078   1.301   0.776 -2.6817  3.2440  0.3067
  152MOL0     H20470   3.934   1.227   0.857  1.6795  1.0058  0.7243
  152MOL0     H20471   4.001   1.071   0.522  0.7455  1.3302  1.1140
  152MOL0     H20472   3.881   1.159   0.247  0.3959  0.3853 -0.5195
  152MOL0     H20473   3.740   1.069   0.316  2.3083 -1.4400 -1.5887
  152MOL0     H20474   3.697   1.241   0.139  1.6002  0.8757  0.0638
  152MOL0     H20475   3.764   1.363   0.262 -0.2573 -0.6719  1.5887
  152MOL0     H20476   3.542   1.273   0.404 -0.6416  1.0239  0.3414
  152MOL0     H20477   3.500   1.234   0.238  1.9145 -0.6799 -0.5711
  152MOL0     H20478   3.569   1.463   0.167 -0.0268  1.0391 -0.3932
  152MOL0     H20479   3.616   1.494   0.340  1.4382 -1.4125 -0.3740
  152MOL0     H20480   3.486   1.671   0.174  0.4928 -2.9652  2.0188
  152MOL0     H20481   3.328   1.912   0.001 -0.6941  2.0428 -1.7785
  152MOL0     H20482   3.493   1.856  -0.006 -0.9986  2.7054 -1.2861
  152MOL0     H20483   3.380   1.831  -0.137 -0.9487  1.8792  1.0948
  152MOL0     H20484   2.858   1.451  -0.238  2.9493  1.2690  2.3403
  152MOL0     H20485   2.660   1.458  -0.375  0.9475 -0.9920  1.3095
  152MOL0     H20486   2.536   1.660  -0.751 -0.8431 -0.8176 -0.8083
  152MOL0     H20487   2.690   1.586  -0.728  0.8924  0.0809  2.0994
  152MOL0     H20488   2.580   1.407  -0.574 -1.1597 -1.9651 -1.1102
  152MOL0     H20489   2.421   1.473  -0.628  0.6647  1.3975  0.2603
  152MOL0     H20490   2.626   1.372  -0.809  1.6134  1.1823  2.5740
  152MOL0     H20491   2.460   1.416  -0.844 -1.9680  2.2064  1.4526
  152MOL0     H20492   2.579   1.172  -0.713  0.1743  0.8698 -2.0906
  152MOL0     H20493   2.430   1.238  -0.630  3.3193 -0.8794  2.5127
  152MOL0     H20494   2.469   1.158  -0.934 -1.4328  0.3150 -0.7791
  152MOL0     H20495   2.315   1.221  -0.853 -2.3025 -3.3451  0.2145
  152MOL0     H20496   2.299   1.013  -0.727  1.7614 -0.1947  0.6403
  152MOL0     H20497   2.299   0.988  -0.901  0.2753  0.6777 -0.3550
  152MOL0     H20498   2.569   0.957  -0.751  1.4039 -0.2818 -0.6449
  152MOL0     H20499   2.536   0.944  -0.925  1.0504  1.9894  0.6571
  152MOL0     H20500   2.562   0.729  -0.804  0.5862 -0.1249 -1.5008
  152MOL0     H20501   2.403   0.734  -0.864  1.4498 -3.4096 -0.1012
  152MOL0     H20502   2.794   1.859  -0.505 -0.7330  0.2065  1.0137
  152MOL0     H20503   2.967   1.850  -0.355  2.2323 -0.6150  0.0723
  152MOL0     H20504   3.080   1.466  -0.018 -0.5624 -0.4920 -0.5012
  152MOL0     H20505   3.210   1.356   0.169 -1.6699 -0.0771 -1.8624
  152MOL0     H20506   3.349   1.188   1.116  0.1181 -0.6456 -1.3192
  152MOL0     H20507   3.103   1.256   1.157 -0.2899 -0.2533  1.8821
  152MOL0     H20508   2.631   1.082   1.266  0.0369  2.5031 -0.3840
  152MOL0     H20509   2.418   1.137   1.255  2.4374 -1.2119 -0.7717
  152MOL0     H20510   2.179   1.282   0.886 -3.9309  2.4965  2.3491
  152MOL0     H20511   2.223   1.104   0.907  1.4497 -0.3719  2.1829
  152MOL0     H20512   1.991   1.267   1.018  0.5708  0.8248  1.7774
  152MOL0     H20513   2.026   1.098   1.071  0.8274  2.5149  1.7624
  152MOL0     H20514   1.994   1.018   0.835  0.2452  0.0269 -2.4243
  152MOL0     H20515   1.967   1.185   0.782  1.3817  0.4517  0.5432
  152MOL0     H20516   1.760   1.192   0.940  0.5186 -2.1386  4.3973
  152MOL0     H20517   1.805   1.031   0.989  1.7148 -1.3161  0.0039
  152MOL0     H20518   1.600   0.964   0.621 -0.6805  0.8430 -0.3221
  152MOL0     H20519   2.425   1.233   0.831  2.9451  0.9136 -1.5956
  152MOL0     H20520   2.647   1.193   0.834  0.8407  1.2896  0.5323
  153MOL0     O20521   7.313   2.499   3.737  0.7011  0.2713  0.4340
  153MOL0     C20522   7.194   2.476   3.718  0.2152  0.4718 -0.3111
  153MOL0     O20523   7.114   2.530   3.612  0.7580 -0.0478  0.3753
  153MOL0     C20524   7.109   2.664   3.585 -0.1163  0.2111 -0.5094
  153MOL0     C20525   7.112   2.706   3.456  0.5751 -1.3665  1.2203
  153MOL0     C20526   7.108   2.839   3.422 -0.1848 -0.8009 -0.4089
  153MOL0     C20527   7.109   2.930   3.515  0.2761 -1.0808  0.0591
  153MOL0     O20528   7.104   3.067   3.479  0.0659 -0.0937  0.5061
  153MOL0     C20529   7.115   3.116   3.346 -0.5945  0.7236 -0.3866
  153MOL0     C20530   7.110   3.266   3.373 -0.1646 -0.0829  0.1995
  153MOL0     C20531   7.251   3.325   3.418  0.1446 -0.4972  0.3174
  153MOL0     C20532   7.291   3.280   3.560  0.6725  0.2628 -0.1240
  153MOL0     C20533   7.407   3.365   3.608  0.3634 -0.1420 -0.4260
  153MOL0     C20534   7.487   3.315   3.726 -0.0009  0.3533  0.4508
  153MOL0     C20535   7.574   3.405   3.816  0.0740  0.3816 -0.2580
  153MOL0     C20536   7.682   3.483   3.742  0.1476 -0.3609  0.8275
  153MOL0     N20537   7.634   3.556   3.626 -0.0270 -0.1294 -0.2971
  153MOL0     C20538   7.562   3.676   3.625 -0.4926  0.3632 -0.4372
  153MOL0     C20539   7.587   3.724   3.501  0.2606  0.0016  0.1829
  153MOL0     C20540   7.540   3.844   3.425  0.5538 -0.7429 -0.2588
  153MOL0     C20541   7.382   3.851   3.416  0.2433 -0.3268  0.0110
  153MOL0     C20542   7.333   3.705   3.364 -0.0407  0.1261 -0.0098
  153MOL0     C20543   7.386   3.664   3.227 -0.2172 -0.8917  0.6608
  153MOL0     O20544   7.339   3.765   3.133 -0.0210 -0.3877 -0.4055
  153MOL0     C20545   7.431   3.861   3.086  0.4812 -0.3840  0.7424
  153MOL0     C20546   7.566   3.847   3.054  0.3488 -0.2520 -0.1673
  153MOL0     C20547   7.649   3.950   3.004 -0.5168  0.6123  0.8362
  153MOL0     C20548   7.792   3.903   2.973 -0.1268 -0.0138  0.2279
  153MOL0     C20549   7.596   4.076   2.970 -0.9934 -0.1118 -0.7371
  153MOL0     C20550   7.675   4.187   2.917 -0.1091  0.0003 -0.6272
  153MOL0     O20551   7.681   4.208   2.787 -0.0808  0.7026  0.2284
  153MOL0     C20552   7.614   4.124   2.699  0.4610  0.7741  0.3086
  153MOL0     C20553   7.677   4.031   2.617 -0.2728 -0.1242  0.2104
  153MOL0     C20554   7.615   3.978   2.499 -0.4504 -0.2311 -0.4485
  153MOL0     C20555   7.486   4.011   2.469 -0.2969  0.2896  0.0949
  153MOL0     O20556   7.414   3.970   2.368  0.1098 -0.5276 -0.0262
  153MOL0     C20557   7.459   3.985   2.235 -0.2360  0.8534  0.1917
  153MOL0     C20558   7.345   3.950   2.135  0.2256  0.4128 -1.2073
  153MOL0     C20559   7.405   3.956   2.000  0.3267 -0.2435 -0.1669
  153MOL0     C20560   7.306   3.920   1.889  0.4589  0.1245 -0.0020
  153MOL0     C20561   7.233   4.035   1.832  0.7276  0.0233  0.3173
  153MOL0     C20562   7.140   4.006   1.709  0.0022  1.2569 -0.5568
  153MOL0     C20563   7.023   4.106   1.688  0.5092  0.6666  0.0857
  153MOL0     C20564   7.078   4.241   1.627 -0.3328 -0.2719 -0.3489
  153MOL0    Cl20565   7.162   4.233   1.466 -0.4193  0.8919  0.1461
  153MOL0     C20566   7.421   4.102   2.558  0.4975 -0.0228  0.3102
  153MOL0     C20567   7.486   4.159   2.660 -0.1495  0.0980  0.1871
  153MOL0     O20568   7.735   4.260   3.001  0.0699  0.0073  0.1382
  153MOL0     C20569   7.458   4.091   2.999 -0.8833  0.0417  0.2419
  153MOL0     C20570   7.378   3.989   3.064 -0.5710  0.8434  0.9882
  153MOL0     N20571   7.664   3.641   3.420  0.4112 -0.5022 -0.6454
  153MOL0     N20572   7.692   3.543   3.500  0.6185 -0.8471 -0.5996
  153MOL0     C20573   7.113   2.900   3.645 -0.3167  0.2598  0.3220
  153MOL0     C20574   7.105   2.767   3.684  0.5683  0.0058  0.5421
  153MOL0     C20575   7.122   2.372   3.792 -0.0736 -0.3875 -0.8581
  153MOL0     C20576   7.199   2.275   3.862 -0.2378  0.5622 -0.0935
  153MOL0     C20577   7.136   2.182   3.945  0.5209 -0.6774 -0.0663
  153MOL0     C20578   6.998   2.191   3.960  0.5869 -0.4844  0.5660
  153MOL0     O20579   6.924   2.112   4.041  0.4736  0.2901 -0.1770
  153MOL0     C20580   6.969   1.980   4.092  0.0792 -1.3826  0.6917
  153MOL0     C20581   6.855   1.901   4.149 -1.0774  0.0022  0.0683
  153MOL0     C20582   6.896   1.758   4.195 -0.0918 -0.4638 -0.2739
  153MOL0     C20583   7.030   1.745   4.262 -0.4441  0.7775 -0.2354
  153MOL0     C20584   7.131   1.687   4.166 -0.0650  0.2820 -0.8424
  153MOL0     C20585   7.218   1.638   4.102  0.1450 -0.4106  0.2312
  153MOL0     C20586   6.923   2.287   3.897 -0.6579 -0.9754  0.8659
  153MOL0     C20587   6.984   2.379   3.806  0.4795  0.3457  0.3601
  153MOL0     H20588   7.121   2.624   3.387  3.3468 -1.9613  2.1200
  153MOL0     H20589   7.100   2.860   3.316 -0.2315 -2.5266 -0.7836
  153MOL0     H20590   7.209   3.095   3.295  1.9717  3.0626  2.8609
  153MOL0     H20591   7.036   3.086   3.277  2.5701 -0.9941 -3.5212
  153MOL0     H20592   7.070   3.308   3.281 -0.7717  0.9504  0.9063
  153MOL0     H20593   7.038   3.298   3.449  0.4182  2.6144 -0.2738
  153MOL0     H20594   7.333   3.294   3.353 -0.2551  2.4631 -1.8196
  153MOL0     H20595   7.260   3.433   3.406  0.4222 -0.5069  0.4369
  153MOL0     H20596   7.208   3.283   3.630  2.8930 -1.7228  2.8098
  153MOL0     H20597   7.325   3.176   3.562  1.2419  0.4407 -0.4441
  153MOL0     H20598   7.478   3.380   3.526  1.2017 -2.0207 -0.0967
  153MOL0     H20599   7.359   3.458   3.640  0.8565 -0.1768  0.4487
  153MOL0     H20600   7.421   3.264   3.797  0.9872 -0.6828  0.6437
  153MOL0     H20601   7.557   3.242   3.684  0.9532  1.6327 -0.2580
  153MOL0     H20602   7.521   3.483   3.870 -1.1788 -0.7020  0.1306
  153MOL0     H20603   7.632   3.336   3.878  2.9981  1.8672 -1.1314
  153MOL0     H20604   7.744   3.411   3.688 -0.0260  0.3920 -0.4225
  153MOL0     H20605   7.740   3.545   3.811 -0.0109 -0.8582  1.4240
  153MOL0     H20606   7.515   3.721   3.712 -0.1275  1.4223 -0.7735
  153MOL0     H20607   7.583   3.932   3.474 -0.0648  1.1477 -2.9189
  153MOL0     H20608   7.585   3.844   3.325 -0.1506 -0.2428 -0.5839
  153MOL0     H20609   7.342   3.932   3.354 -2.3031 -1.5573 -0.0458
  153MOL0     H20610   7.339   3.855   3.517  2.6248  2.1925  1.0984
  153MOL0     H20611   7.226   3.718   3.344 -0.5858 -0.1016  2.5186
  153MOL0     H20612   7.347   3.622   3.433  0.5546 -0.9930 -1.4231
  153MOL0     H20613   7.344   3.570   3.190  0.2763 -0.3855 -1.3269
  153MOL0     H20614   7.496   3.658   3.229 -0.1999 -1.3313 -0.4397
  153MOL0     H20615   7.604   3.746   3.053  1.0343 -0.0057 -0.6494
  153MOL0     H20616   7.791   3.894   2.864 -2.1562 -1.9390  0.3458
  153MOL0     H20617   7.864   3.981   2.999  0.1639  0.0619 -0.7821
  153MOL0     H20618   7.823   3.808   3.019 -1.7804 -1.0678 -0.7530
  153MOL0     H20619   7.782   4.013   2.637  0.4177  3.5782  0.5837
  153MOL0     H20620   7.665   3.896   2.449  1.6260  0.0652  0.9987
  153MOL0     H20621   7.495   4.086   2.214 -2.4136  2.2102  2.3962
  153MOL0     H20622   7.540   3.913   2.217 -0.6510  0.9163 -2.3196
  153MOL0     H20623   7.289   3.862   2.167 -0.3734  1.3411  0.4544
  153MOL0     H20624   7.271   4.031   2.131 -0.3895 -0.1310 -0.9842
  153MOL0     H20625   7.485   3.882   1.988  0.9828  0.6949 -1.9357
  153MOL0     H20626   7.445   4.056   1.983  2.0662 -0.6078  1.4083
  153MOL0     H20627   7.361   3.870   1.808 -0.4346 -2.3581  0.8299
  153MOL0     H20628   7.236   3.839   1.912  1.8360 -1.2091 -0.2995
  153MOL0     H20629   7.302   4.115   1.803 -1.1672  1.1100 -1.4274
  153MOL0     H20630   7.179   4.075   1.918  1.0266  0.3055  0.3778
  153MOL0     H20631   7.211   4.000   1.625  1.0374  3.3788  0.1063
  153MOL0     H20632   7.089   3.912   1.733  2.2306  0.2262  0.4697
  153MOL0     H20633   6.963   4.123   1.778  0.3698  0.9719 -0.0620
  153MOL0     H20634   6.942   4.074   1.622 -2.2437  0.4236  3.2600
  153MOL0     H20635   7.132   4.299   1.703 -0.5294  2.1883 -1.9709
  153MOL0     H20636   6.990   4.306   1.622 -0.5839 -0.1665  3.0899
  153MOL0     H20637   7.323   4.138   2.530 -0.6834 -2.4835  1.0447
  153MOL0     H20638   7.439   4.242   2.710  1.8577  1.7049 -0.4606
  153MOL0     H20639   7.415   4.187   2.972 -2.2470 -0.6065  0.0234
  153MOL0     H20640   7.275   3.999   3.095 -0.8709  0.1517  0.2423
  153MOL0     H20641   7.121   2.974   3.724  0.5616 -0.1816  0.6615
  153MOL0     H20642   7.086   2.746   3.789  0.7579 -0.3046  0.5156
  153MOL0     H20643   7.304   2.279   3.839 -0.1678 -0.3051  0.0442
  153MOL0     H20644   7.186   2.105   4.004 -0.6502  0.7209  2.8876
  153MOL0     H20645   7.012   1.927   4.006 -0.7180  1.8620 -1.9055
  153MOL0     H20646   7.047   2.000   4.166 -0.0762  0.3925  0.4297
  153MOL0     H20647   6.784   1.887   4.067 -2.2708 -0.2039  1.1123
  153MOL0     H20648   6.824   1.952   4.241  0.1196 -0.9994  1.0616
  153MOL0     H20649   6.902   1.701   4.102 -0.7210 -1.2042  0.1217
  153MOL0     H20650   6.810   1.721   4.252  0.9243 -1.3385  0.7424
  153MOL0     H20651   7.020   1.685   4.353 -1.0106  2.5998  0.9388
  153MOL0     H20652   7.071   1.837   4.304 -1.7148  0.7144  1.2212
  153MOL0     H20653   7.297   1.582   4.055  0.2407  1.5932 -2.1721
  153MOL0     H20654   6.822   2.297   3.936 -0.9372 -0.8615  0.1236
  153MOL0     H20655   6.916   2.456   3.770  0.8032  0.2838 -0.4066
  154MOL0     O20656   0.959   8.014   8.252  0.1709  0.2479  0.0183
  154MOL0     C20657   1.047   7.975   8.178 -0.6724  0.3387 -1.3900
  154MOL0     O20658   1.132   7.875   8.207  0.3554  0.4582  2.0407
  154MOL0     C20659   1.141   7.828   8.334 -1.3890  0.5988 -0.6989
  154MOL0     C20660   1.132   7.895   8.454  0.2420  0.1105 -0.3043
  154MOL0     C20661   1.167   7.850   8.575  0.2248  1.8110  0.3608
  154MOL0     C20662   1.229   7.728   8.587 -0.2644  0.3452  0.3222
  154MOL0     O20663   1.257   7.690   8.721 -0.4255  0.9710  0.4197
  154MOL0     C20664   1.287   7.561   8.762  0.0366 -0.0429 -0.0053
  154MOL0     C20665   1.266   7.548   8.906 -0.0260 -0.7297 -0.0279
  154MOL0     C20666   1.125   7.546   8.961 -0.1749  0.4017  0.4124
  154MOL0     C20667   1.123   7.496   9.108 -0.3123 -0.1964  0.4163
  154MOL0     C20668   0.992   7.529   9.177  0.2008  0.1101  0.2614
  154MOL0     C20669   0.890   7.411   9.210 -0.1007 -0.1784  0.3058
  154MOL0     C20670   0.772   7.461   9.295 -0.2330 -0.7695 -0.3231
  154MOL0     C20671   0.799   7.469   9.444 -0.7421  0.4325 -0.2113
  154MOL0     N20672   0.766   7.341   9.504 -0.1333 -0.1089  0.4911
  154MOL0     C20673   0.858   7.241   9.524 -0.1576  0.0082  0.0575
  154MOL0     C20674   0.806   7.150   9.607  0.6442  0.6927  0.9768
  154MOL0     C20675   0.874   7.032   9.666  0.0255 -0.4421 -0.1464
  154MOL0     C20676   0.985   7.075   9.758 -0.0980 -0.6325 -0.7278
  154MOL0     C20677   1.064   6.954   9.805 -0.0696 -0.1410 -0.6012
  154MOL0     C20678   0.990   6.874   9.912  0.3597 -0.5396 -0.0086
  154MOL0     O20679   1.055   6.749   9.931 -0.0989  0.1131 -0.4842
  154MOL0     C20680   1.077   6.723  10.067  0.5407 -0.2013  1.0448
  154MOL0     C20681   1.049   6.589  10.111  0.1426  0.3319 -0.2433
  154MOL0     C20682   1.074   6.541  10.240  0.2887 -0.2570 -0.7316
  154MOL0     C20683   1.040   6.396  10.274 -0.7561  0.1821 -0.9850
  154MOL0     C20684   1.135   6.624  10.333  1.1926 -0.4062  0.7528
  154MOL0     C20685   1.170   6.580  10.472 -0.2631 -0.4730  0.1626
  154MOL0     O20686   1.257   6.662  10.530 -0.2638 -0.2370 -0.1876
  154MOL0     C20687   1.305   6.624  10.653  0.3051 -0.1166  1.2523
  154MOL0     C20688   1.225   6.651  10.771 -0.5316 -0.0143  0.1634
  154MOL0     C20689   1.267   6.629  10.896  0.3322  0.4030 -1.1739
  154MOL0     C20690   1.399   6.576  10.926  0.6492 -0.0488 -0.0602
  154MOL0     O20691   1.427   6.540  11.059 -0.6142  0.4699  0.3299
  154MOL0     C20692   1.382   6.408  11.098  0.8628  1.0450 -0.1241
  154MOL0     C20693   1.246   6.408  11.182 -0.9644 -1.0641 -0.2293
  154MOL0     C20694   1.246   6.503  11.305  0.3336  1.5949  0.1959
  154MOL0     C20695   1.358   6.466  11.399 -0.1687 -0.2275  0.0471
  154MOL0     C20696   1.327   6.521  11.544  0.2693  0.1243  0.1435
  154MOL0     C20697   1.240   6.419  11.611  0.0212 -0.2411 -1.1883
  154MOL0     C20698   1.224   6.443  11.767  0.5492 -0.1977 -0.0174
  154MOL0     C20699   1.147   6.332  11.846  0.2135  0.7050  0.0816
  154MOL0    Cl20700   1.206   6.168  11.827 -0.6657  0.1290  0.1927
  154MOL0     C20701   1.491   6.569  10.816 -0.2259 -0.2258  0.1230
  154MOL0     C20702   1.437   6.592  10.679 -0.2342  0.8082  0.1485
  154MOL0     O20703   1.133   6.480  10.532  0.1145  0.2992 -0.0757
  154MOL0     C20704   1.145   6.762  10.300  0.6310 -0.0095 -0.5154
  154MOL0     C20705   1.130   6.813  10.166  0.1334  0.8483  0.7996
  154MOL0     N20706   0.692   7.208   9.654 -0.2027  0.0344  1.4931
  154MOL0     N20707   0.663   7.315   9.587  0.2227 -0.4134  0.7747
  154MOL0     C20708   1.245   7.651   8.470  0.2949 -1.0488  0.4640
  154MOL0     C20709   1.203   7.706   8.347 -0.4241  0.1962  0.1984
  154MOL0     C20710   1.050   8.028   8.040  0.2428 -0.2257  0.8062
  154MOL0     C20711   0.962   8.127   7.997  1.0264 -0.3481 -0.7069
  154MOL0     C20712   0.955   8.171   7.869  0.2781 -0.0737  0.5382
  154MOL0     C20713   1.025   8.109   7.773  0.2967 -0.1399  0.6762
  154MOL0     O20714   1.003   8.150   7.644 -0.2098  0.0480 -0.0292
  154MOL0     C20715   1.109   8.105   7.552  0.5322 -0.1585  0.1286
  154MOL0     C20716   1.112   8.185   7.422  0.3082  0.8427 -0.3520
  154MOL0     C20717   1.193   8.119   7.311  0.2011 -0.5338 -0.0624
  154MOL0     C20718   1.345   8.114   7.334 -0.4322  0.6234  0.7652
  154MOL0     C20719   1.386   8.242   7.382 -0.3225 -0.0323  1.3696
  154MOL0     C20720   1.441   8.336   7.433  0.7060  0.4371 -0.3606
  154MOL0     C20721   1.115   8.001   7.801 -0.1566 -1.1715  0.1057
  154MOL0     C20722   1.133   7.970   7.938 -0.6161  0.8679 -0.1175
  154MOL0     H20723   1.089   7.995   8.456  3.2789  1.5227  0.9378
  154MOL0     H20724   1.134   7.919   8.652 -2.8111 -0.2389  1.0655
  154MOL0     H20725   1.218   7.488   8.719 -0.9429 -0.0710  1.5330
  154MOL0     H20726   1.391   7.540   8.734  1.7540  2.9408  3.3845
  154MOL0     H20727   1.323   7.464   8.948  0.0326 -0.5475  0.2591
  154MOL0     H20728   1.305   7.639   8.952 -1.2433  0.6684 -1.6421
  154MOL0     H20729   1.093   7.651   8.958  0.2473  0.5144 -0.2786
  154MOL0     H20730   1.060   7.486   8.897 -0.8378  1.3897  0.1251
  154MOL0     H20731   1.147   7.389   9.114  0.3337 -0.1274 -0.6346
  154MOL0     H20732   1.202   7.544   9.166  0.8901  1.4252 -2.3447
  154MOL0     H20733   1.011   7.593   9.264  3.8079 -2.1121  1.3399
  154MOL0     H20734   0.936   7.580   9.098 -2.1818  2.3375  3.1920
  154MOL0     H20735   0.839   7.380   9.118 -3.0993  1.4413  1.2842
  154MOL0     H20736   0.938   7.324   9.253  1.8607  0.7940  0.1771
  154MOL0     H20737   0.755   7.561   9.253 -0.4187 -0.3630  0.6918
  154MOL0     H20738   0.679   7.408   9.276 -0.3646  0.1464 -2.5064
  154MOL0     H20739   0.749   7.555   9.490  0.6975  2.1389 -1.7046
  154MOL0     H20740   0.907   7.468   9.465 -0.7054 -4.5359  0.7050
  154MOL0     H20741   0.963   7.232   9.496 -0.8522  1.8169 -3.7705
  154MOL0     H20742   0.791   6.974   9.707 -0.8639 -0.8007 -2.3009
  154MOL0     H20743   0.912   6.978   9.578  0.7206 -0.9232  0.4318
  154MOL0     H20744   0.953   7.130   9.847  1.5914  1.4306 -1.2963
  154MOL0     H20745   1.063   7.132   9.707  1.6075 -1.6857  0.5938
  154MOL0     H20746   1.163   6.982   9.843  1.0394 -0.9172 -2.7618
  154MOL0     H20747   1.100   6.894   9.721  0.4523 -1.5987  0.6167
  154MOL0     H20748   0.885   6.858   9.886 -0.0390  1.9983 -0.2026
  154MOL0     H20749   0.992   6.943   9.996  1.5333  1.0043 -1.2472
  154MOL0     H20750   1.011   6.520  10.036  0.1975  1.4197 -1.3082
  154MOL0     H20751   0.997   6.344  10.188 -2.6483 -1.5955  0.9149
  154MOL0     H20752   1.112   6.331  10.324  0.1048  1.1111 -0.9953
  154MOL0     H20753   0.958   6.399  10.347  0.7939  1.6151  0.7863
  154MOL0     H20754   1.124   6.686  10.754 -0.4080  0.6872  0.8062
  154MOL0     H20755   1.187   6.643  10.968 -1.5447 -2.6528 -2.4370
  154MOL0     H20756   1.359   6.348  11.009 -0.3729  2.0397 -0.5063
  154MOL0     H20757   1.462   6.353  11.150  0.8464 -0.3159 -1.4736
  154MOL0     H20758   1.161   6.437  11.119 -0.3355 -0.2316 -0.7168
  154MOL0     H20759   1.227   6.304  11.209 -2.7720 -1.3819 -2.4167
  154MOL0     H20760   1.146   6.509  11.348 -1.6786 -1.4164 -3.4445
  154MOL0     H20761   1.269   6.600  11.260  0.7276  1.4065 -0.0198
  154MOL0     H20762   1.387   6.360  11.399 -1.5777 -0.6880  2.2278
  154MOL0     H20763   1.446   6.517  11.358 -0.1827 -0.3316 -0.1135
  154MOL0     H20764   1.283   6.622  11.541  0.2482  0.4406  4.5007
  154MOL0     H20765   1.417   6.531  11.605 -0.4614  0.3443  1.2274
  154MOL0     H20766   1.144   6.436  11.562 -1.5228 -2.1196  0.9754
  154MOL0     H20767   1.268   6.315  11.588  2.2786  0.1302 -0.3905
  154MOL0     H20768   1.161   6.532  11.779  1.0621  0.0266  1.1929
  154MOL0     H20769   1.319   6.470  11.815 -0.3122  1.0526  1.0663
  154MOL0     H20770   1.041   6.323  11.822  0.4479  0.6307 -0.9585
  154MOL0     H20771   1.151   6.362  11.951  0.0143 -1.5837  0.7930
  154MOL0     H20772   1.599   6.562  10.820 -0.1210 -0.1637 -1.8802
  154MOL0     H20773   1.506   6.589  10.596 -0.3592 -0.3235  0.0698
  154MOL0     H20774   1.204   6.823  10.367  2.5532 -1.3119 -0.9315
  154MOL0     H20775   1.143   6.920  10.155  1.6333  0.5360 -1.1955
  154MOL0     H20776   1.269   7.545   8.463 -1.1925 -1.3791  0.0918
  154MOL0     H20777   1.211   7.659   8.250 -2.0289  2.7614 -1.2915
  154MOL0     H20778   0.895   8.168   8.072 -0.9298 -1.0740 -1.9768
  154MOL0     H20779   0.902   8.263   7.848 -0.6833 -0.6881  0.2343
  154MOL0     H20780   1.211   8.113   7.590 -0.0303  1.3214  1.4469
  154MOL0     H20781   1.093   8.000   7.527 -3.1776 -0.0909  1.6388
  154MOL0     H20782   1.158   8.280   7.449  2.6772 -0.0292 -1.0114
  154MOL0     H20783   1.007   8.190   7.394 -0.0380 -0.5317  0.5764
  154MOL0     H20784   1.181   8.161   7.211 -0.8716 -3.7703 -1.4333
  154MOL0     H20785   1.158   8.016   7.302 -1.2655 -0.2288  1.5531
  154MOL0     H20786   1.406   8.097   7.244 -0.7698 -1.4599  0.8749
  154MOL0     H20787   1.375   8.043   7.412 -0.8257  0.0153  0.3728
  154MOL0     H20788   1.480   8.423   7.483 -1.6094  0.7628  1.0553
  154MOL0     H20789   1.168   7.935   7.734 -1.6010 -1.7308 -0.5239
  154MOL0     H20790   1.202   7.888   7.958 -2.3907 -0.8298 -0.6522
  155MOL0     O20791  10.024  10.551   3.834  0.3343  0.1514 -0.2674
  155MOL0     C20792   9.995  10.534   3.957 -1.0136  0.4321  0.2682
  155MOL0     O20793  10.022  10.420   4.033  0.5221 -0.1474  0.3276
  155MOL0     C20794  10.067  10.299   3.972 -0.0568 -0.1691  1.1443
  155MOL0     C20795  10.012  10.185   4.024  1.2745 -1.4299  0.8401
  155MOL0     C20796  10.031  10.057   3.977 -0.1142  0.0742 -0.2438
  155MOL0     C20797  10.106  10.030   3.862  0.2294 -0.2778  0.0451
  155MOL0     O20798  10.098   9.905   3.816  0.0332  0.3419 -0.0991
  155MOL0     C20799  10.201   9.848   3.731 -0.3179 -0.6638 -0.1099
  155MOL0     C20800  10.292   9.742   3.809  0.3094 -0.3442  0.4994
  155MOL0     C20801  10.233   9.604   3.787 -0.3160  0.2559 -0.1408
  155MOL0     C20802  10.328   9.497   3.844  0.3266  0.1364 -0.2374
  155MOL0     C20803  10.255   9.373   3.864 -0.1532  0.3516  0.1763
  155MOL0     C20804  10.196   9.322   3.731  1.3517  0.1649  0.0405
  155MOL0     C20805  10.070   9.240   3.743  0.4564 -0.6011 -0.3991
  155MOL0     C20806   9.949   9.320   3.782  0.0790 -0.4107 -0.6767
  155MOL0     N20807   9.897   9.404   3.678 -0.8213 -0.3818 -0.1267
  155MOL0     C20808   9.918   9.543   3.674  0.2377  0.3036  0.0856
  155MOL0     C20809   9.880   9.575   3.553 -0.4497 -0.2700 -0.4825
  155MOL0     C20810   9.846   9.716   3.505 -0.0854  0.9715  0.5499
  155MOL0     C20811   9.801   9.812   3.614 -1.0256 -0.5521 -0.0685
  155MOL0     C20812   9.793   9.950   3.554 -0.1183 -0.9389  0.4159
  155MOL0     C20813   9.759  10.066   3.648 -0.7899 -0.6788  0.4766
  155MOL0     O20814   9.709  10.023   3.774 -0.1906  0.1343 -0.4520
  155MOL0     C20815   9.678  10.115   3.867  0.5252 -0.3512  0.0489
  155MOL0     C20816   9.711  10.090   4.003  1.1142  0.8158  0.1984
  155MOL0     C20817   9.677  10.176   4.103 -0.3882 -0.3140 -0.3313
  155MOL0     C20818   9.680  10.125   4.251  0.3567  0.0274 -0.4222
  155MOL0     C20819   9.606  10.299   4.073  0.8322 -0.1302 -0.2095
  155MOL0     C20820   9.588  10.399   4.176  0.3356 -0.0487 -0.3620
  155MOL0     O20821   9.484  10.490   4.168  0.4124 -0.3654  0.0007
  155MOL0     C20822   9.483  10.580   4.276 -0.5488  0.7019  1.1438
  155MOL0     C20823   9.560  10.696   4.269 -0.0065 -0.2201 -0.1701
  155MOL0     C20824   9.546  10.797   4.368  0.1105  0.3605  0.0633
  155MOL0     C20825   9.453  10.782   4.469  0.4661 -1.3898  0.3713
  155MOL0     O20826   9.440  10.893   4.556  0.1807  0.1545  0.1646
  155MOL0     C20827   9.558  10.908   4.646  0.6826  1.1837 -0.9394
  155MOL0     C20828   9.528  10.826   4.775  0.4385  0.0630 -0.3702
  155MOL0     C20829   9.416  10.882   4.868 -0.4388 -0.0169  0.0964
  155MOL0     C20830   9.369  10.765   4.962  0.6942  0.4434 -0.3589
  155MOL0     C20831   9.286  10.818   5.082  0.0790 -0.8284  1.4159
  155MOL0     C20832   9.372  10.918   5.173 -0.4534  0.5781 -0.7714
  155MOL0     C20833   9.293  10.966   5.288  0.0093 -0.9483 -0.2918
  155MOL0     C20834   9.381  11.065   5.366 -0.0103 -0.7822 -0.3484
  155MOL0    Cl20835   9.463  10.966   5.493  0.5354  0.0860 -0.5074
  155MOL0     C20836   9.389  10.660   4.486 -0.2385 -0.3655  0.2459
  155MOL0     C20837   9.394  10.562   4.388  0.2818 -0.0691  1.1209
  155MOL0     O20838   9.679  10.411   4.256 -0.0004  0.0918 -0.4342
  155MOL0     C20839   9.569  10.323   3.945 -0.1461  0.2812  0.5375
  155MOL0     C20840   9.602  10.233   3.843  0.0269  0.4607 -0.1800
  155MOL0     N20841   9.835   9.472   3.484 -0.1767  0.1739 -0.0710
  155MOL0     N20842   9.848   9.363   3.553 -0.0294 -0.5778  0.2372
  155MOL0     C20843  10.171  10.144   3.800 -1.0540  0.1677  0.3017
  155MOL0     C20844  10.146  10.275   3.852 -0.3032 -1.2002 -0.0388
  155MOL0     C20845   9.948  10.650   4.026  0.2979 -0.3629 -0.4655
  155MOL0     C20846   9.959  10.782   3.969 -0.7312  0.7292  1.8497
  155MOL0     C20847   9.917  10.889   4.042  0.0760  0.3540  1.5231
  155MOL0     C20848   9.891  10.878   4.178  0.5321  1.3485 -0.3006
  155MOL0     O20849   9.864  10.984   4.267 -0.0472  0.0163  0.4000
  155MOL0     C20850   9.940  11.112   4.259  0.1239 -0.4096  0.2132
  155MOL0     C20851   9.844  11.230   4.242  0.2194 -0.0626  0.1972
  155MOL0     C20852   9.714  11.237   4.319  0.4866 -0.1608  0.2302
  155MOL0     C20853   9.697  11.359   4.414 -0.9853  0.4512  0.1446
  155MOL0     C20854   9.608  11.337   4.530 -0.2159 -0.2582 -0.2244
  155MOL0     C20855   9.536  11.325   4.631 -0.3134  0.1611 -0.3082
  155MOL0     C20856   9.892  10.754   4.242 -0.8980 -0.0970  0.1569
  155MOL0     C20857   9.911  10.639   4.164 -0.0268 -0.8808 -0.2394
  155MOL0     H20858   9.935  10.195   4.100  2.2823 -2.2828  2.0084
  155MOL0     H20859   9.992   9.966   4.022  0.3901 -0.5074 -0.9496
  155MOL0     H20860  10.157   9.799   3.643 -2.1046 -0.0803  0.4127
  155MOL0     H20861  10.253   9.929   3.679  1.3379 -1.3593  0.4119
  155MOL0     H20862  10.383   9.743   3.748 -0.4477 -0.7542 -0.6888
  155MOL0     H20863  10.316   9.760   3.914  1.6434 -2.9249  0.7231
  155MOL0     H20864  10.138   9.584   3.836  1.1569 -1.1201  2.3291
  155MOL0     H20865  10.210   9.596   3.680 -1.5643  1.2228  0.0295
  155MOL0     H20866  10.413   9.485   3.777 -0.0204 -2.2290 -0.3252
  155MOL0     H20867  10.368   9.532   3.940  2.6804 -1.0952 -0.7043
  155MOL0     H20868  10.319   9.289   3.889  0.0622 -0.0787 -1.6808
  155MOL0     H20869  10.178   9.386   3.941 -0.1255  0.2635  0.2181
  155MOL0     H20870  10.190   9.399   3.653  6.0654  0.4142 -0.4000
  155MOL0     H20871  10.270   9.248   3.696  0.9634 -0.3508  0.3124
  155MOL0     H20872  10.057   9.198   3.643 -1.0862 -1.6377  0.1919
  155MOL0     H20873  10.077   9.156   3.813  0.0170 -0.3671 -0.0727
  155MOL0     H20874   9.959   9.382   3.872 -2.9991  2.9008 -2.3228
  155MOL0     H20875   9.869   9.251   3.811  1.5650 -2.4790 -1.2790
  155MOL0     H20876   9.963   9.611   3.746  1.8546 -1.3225  0.7006
  155MOL0     H20877   9.941   9.760   3.471  0.1842  0.1998  0.2768
  155MOL0     H20878   9.783   9.694   3.418  4.3201 -0.8116 -2.5815
  155MOL0     H20879   9.863   9.812   3.704 -2.7860  0.3361  1.2126
  155MOL0     H20880   9.703   9.779   3.650 -1.6776  0.3404 -0.9860
  155MOL0     H20881   9.715   9.940   3.478 -2.0599 -0.0156  2.1883
  155MOL0     H20882   9.884   9.982   3.504  0.0122  4.7097  3.5642
  155MOL0     H20883   9.684  10.132   3.603  2.0439  1.6969 -1.1542
  155MOL0     H20884   9.849  10.127   3.663 -2.1027  1.2954  0.7970
  155MOL0     H20885   9.748   9.990   4.022 -1.3313  0.1127  1.7063
  155MOL0     H20886   9.772  10.165   4.294  0.7781 -0.4615 -0.8633
  155MOL0     H20887   9.602  10.165   4.317 -0.8326 -2.4868 -0.2123
  155MOL0     H20888   9.669  10.019   4.274  2.1905  0.4260  2.9619
  155MOL0     H20889   9.637  10.710   4.194 -0.1282 -0.7167 -0.3920
  155MOL0     H20890   9.608  10.886   4.361  1.0932 -0.0764  2.2703
  155MOL0     H20891   9.645  10.859   4.602  1.0982  1.4604 -0.4408
  155MOL0     H20892   9.577  11.012   4.674  0.0471  1.6071 -2.0529
  155MOL0     H20893   9.498  10.729   4.736  1.2448  0.0522 -1.0054
  155MOL0     H20894   9.620  10.818   4.834 -1.3570  0.7771  2.7218
  155MOL0     H20895   9.332  10.917   4.808  1.2602  0.4521 -2.1727
  155MOL0     H20896   9.454  10.972   4.918  0.2094  0.2661 -0.8801
  155MOL0     H20897   9.309  10.701   4.897 -0.8868  1.6952 -0.2223
  155MOL0     H20898   9.455  10.707   4.996  0.5331 -0.6594 -1.7524
  155MOL0     H20899   9.246  10.730   5.133 -1.8181 -1.2792 -0.7053
  155MOL0     H20900   9.204  10.877   5.041  0.0180 -1.6263  0.3590
  155MOL0     H20901   9.461  10.864   5.206 -0.4843  0.8700 -0.1920
  155MOL0     H20902   9.385  11.009   5.113  0.7479  0.2212 -1.0979
  155MOL0     H20903   9.265  10.881   5.352  0.6656  0.7487  2.3776
  155MOL0     H20904   9.209  11.020   5.244  0.1044 -1.4952 -1.1740
  155MOL0     H20905   9.340  11.148   5.422  0.0895  0.0343 -1.4487
  155MOL0     H20906   9.451  11.106   5.292  1.1895 -1.2392  0.4989
  155MOL0     H20907   9.325  10.651   4.574  0.3547 -0.7473  0.6426
  155MOL0     H20908   9.347  10.465   4.392  1.9261 -0.8736  1.7007
  155MOL0     H20909   9.508  10.405   3.908  0.2680  1.1963  1.8481
  155MOL0     H20910   9.566  10.245   3.742  0.4378  0.7322 -0.3006
  155MOL0     H20911  10.215  10.138   3.701 -2.7449  0.0643 -0.4828
  155MOL0     H20912  10.186  10.359   3.795  0.5621 -0.5479  1.4605
  155MOL0     H20913   9.995  10.798   3.868 -3.5971  1.9830  0.9338
  155MOL0     H20914   9.916  10.988   3.999 -0.8611  0.0608  0.8431
  155MOL0     H20915   9.986  11.138   4.354  3.0275  4.5050 -2.1621
  155MOL0     H20916  10.021  11.115   4.186  0.2078  3.9101  0.2527
  155MOL0     H20917   9.822  11.221   4.135  1.9186 -0.0935 -0.1774
  155MOL0     H20918   9.896  11.325   4.256  0.9573 -0.7250  2.4311
  155MOL0     H20919   9.707  11.143   4.376  1.9235 -0.9718 -0.8560
  155MOL0     H20920   9.628  11.226   4.253  0.5857  0.6430 -0.0351
  155MOL0     H20921   9.666  11.439   4.347  0.8704 -0.9721 -2.5637
  155MOL0     H20922   9.798  11.383   4.449 -0.2023  1.1834 -2.3884
  155MOL0     H20923   9.481  11.309   4.721  0.7778  3.9119  1.2102
  155MOL0     H20924   9.863  10.760   4.346  0.6619  0.0307  0.6001
  155MOL0     H20925   9.906  10.552   4.228  2.7780 -0.3738  0.8195
  156MOL0     O20926  11.329  11.123   0.739  0.0140  0.6353 -0.1677
  156MOL0     C20927  11.293  11.018   0.798  0.7402 -0.6682 -0.4757
  156MOL0     O20928  11.369  10.909   0.829  0.6125 -0.5595 -0.2278
  156MOL0     C20929  11.508  10.907   0.812 -0.4378 -0.2699 -0.6671
  156MOL0     C20930  11.597  11.022   0.793 -0.0389 -0.6109  0.6011
  156MOL0     C20931  11.728  11.013   0.764 -1.0176  0.5976 -0.3658
  156MOL0     C20932  11.793  10.882   0.765  0.3058  0.0520 -0.2302
  156MOL0     O20933  11.920  10.849   0.733  0.0869 -0.2657  0.4375
  156MOL0     C20934  12.021  10.952   0.722  0.0461 -0.1319  0.1186
  156MOL0     C20935  12.027  11.014   0.588  0.3466 -0.1062  0.7039
  156MOL0     C20936  12.074  10.908   0.488 -0.5215 -0.6213 -0.2306
  156MOL0     C20937  12.089  10.963   0.351 -0.4914  0.2560 -0.0726
  156MOL0     C20938  12.138  10.846   0.259 -0.5387  0.4482 -0.9086
  156MOL0     C20939  12.134  10.878   0.111  0.8317  0.3917  1.1514
  156MOL0     C20940  11.993  10.895   0.052  0.2386  0.3992 -0.5607
  156MOL0     C20941  11.997  10.929  -0.099  0.4662  0.0201 -0.0741
  156MOL0     N20942  12.053  11.059  -0.118 -0.1592  0.2459 -0.6522
  156MOL0     C20943  11.999  11.181  -0.072 -0.4940 -0.8251 -1.0367
  156MOL0     C20944  12.096  11.271  -0.111  0.9144 -0.1305  0.0450
  156MOL0     C20945  12.075  11.423  -0.104 -0.3707 -0.3781 -0.3599
  156MOL0     C20946  12.066  11.473   0.041 -0.3594 -0.2982  0.3320
  156MOL0     C20947  11.933  11.449   0.114 -0.7690  0.1177 -0.7602
  156MOL0     C20948  11.929  11.485   0.271  0.5017 -0.1686 -0.1998
  156MOL0     O20949  12.033  11.405   0.332  1.0817 -0.7704 -0.1420
  156MOL0     C20950  12.034  11.411   0.469 -1.4249  0.0094 -0.8210
  156MOL0     C20951  11.928  11.399   0.558  0.6303 -0.9437 -0.8415
  156MOL0     C20952  11.941  11.419   0.694 -0.3019  1.1084 -1.1199
  156MOL0     C20953  11.819  11.400   0.786 -0.2751  0.5614 -0.0586
  156MOL0     C20954  12.067  11.430   0.754 -1.3570 -1.1707 -1.2368
  156MOL0     C20955  12.094  11.445   0.907  0.1406  0.3790  0.5015
  156MOL0     O20956  12.231  11.451   0.943  0.4527  0.0354  0.6205
  156MOL0     C20957  12.270  11.497   1.070 -0.0523  0.1239  0.3716
  156MOL0     C20958  12.393  11.573   1.073  0.4141  0.1127  0.9838
  156MOL0     C20959  12.447  11.610   1.190 -0.7136 -0.3913  0.1623
  156MOL0     C20960  12.388  11.568   1.315  0.1931 -0.0492 -0.2564
  156MOL0     O20961  12.429  11.606   1.444 -0.7700  0.1418 -0.7178
  156MOL0     C20962  12.500  11.730   1.466  0.8776 -0.8304 -0.9973
  156MOL0     C20963  12.429  11.799   1.586 -0.2362 -0.2547 -0.0820
  156MOL0     C20964  12.491  11.950   1.590  1.0995 -0.3066  0.7363
  156MOL0     C20965  12.638  11.953   1.626 -0.1168  1.0375 -0.4527
  156MOL0     C20966  12.685  12.076   1.702 -0.4703  0.5213 -0.5565
  156MOL0     C20967  12.834  12.055   1.740 -0.0709 -0.3523  0.7480
  156MOL0     C20968  12.853  11.942   1.835 -0.2814 -0.4782 -0.5729
  156MOL0     C20969  12.976  11.970   1.925 -0.1376 -0.7405  0.4591
  156MOL0    Cl20970  12.952  12.094   2.044 -0.2782 -0.0346 -0.0956
  156MOL0     C20971  12.277  11.479   1.313 -0.5894  0.4362  0.3721
  156MOL0     C20972  12.223  11.445   1.187 -0.9994  0.2978 -0.1362
  156MOL0     O20973  12.005  11.462   0.985  0.5046 -0.8517 -0.4328
  156MOL0     C20974  12.177  11.443   0.666 -0.7276  0.5912  0.3059
  156MOL0     C20975  12.161  11.432   0.524  0.3283  0.2277 -0.4924
  156MOL0     N20976  12.197  11.201  -0.173 -0.2748  0.2312  0.4589
  156MOL0     N20977  12.171  11.075  -0.180 -0.2105 -0.4171  0.0071
  156MOL0     C20978  11.718  10.762   0.780  0.5333  0.0437  0.6702
  156MOL0     C20979  11.579  10.782   0.805  0.2128  0.9219  0.2561
  156MOL0     C20980  11.153  11.010   0.821 -0.7258 -0.1894 -0.4356
  156MOL0     C20981  11.085  10.894   0.830 -1.1314  0.1013 -0.1929
  156MOL0     C20982  10.946  10.886   0.862 -0.8001 -0.6914  0.6407
  156MOL0     C20983  10.875  11.003   0.878 -0.0391  0.5189  0.1747
  156MOL0     O20984  10.744  10.991   0.916 -0.8297 -0.6888 -0.4749
  156MOL0     C20985  10.724  11.024   1.054  0.4226  0.3521 -0.0550
  156MOL0     C20986  10.657  10.913   1.137 -0.4139 -0.9605  1.1005
  156MOL0     C20987  10.509  10.897   1.078 -0.1382 -0.8178 -0.5230
  156MOL0     C20988  10.467  10.755   1.101  0.6021  0.3110 -0.7786
  156MOL0     C20989  10.444  10.717   1.245 -0.8099  0.3630 -0.0630
  156MOL0     C20990  10.423  10.667   1.352  0.7059  0.0542 -0.2376
  156MOL0     C20991  10.929  11.123   0.863 -0.4968 -0.9587 -0.1748
  156MOL0     C20992  11.069  11.128   0.836 -0.1924 -0.1588 -0.0536
  156MOL0     H20993  11.558  11.123   0.804 -0.4018 -0.9859  3.9006
  156MOL0     H20994  11.793  11.100   0.755 -1.8740  1.1750 -1.1602
  156MOL0     H20995  11.991  11.032   0.790 -3.2586  0.0481 -1.3769
  156MOL0     H20996  12.116  10.911   0.759 -0.0863 -0.4293  0.1377
  156MOL0     H20997  11.934  11.049   0.544  2.1617  2.5928 -1.2910
  156MOL0     H20998  12.101  11.095   0.584  0.3098 -0.0916  0.2360
  156MOL0     H20999  12.176  10.876   0.510 -0.1640  1.0110  0.6494
  156MOL0     H21000  11.995  10.832   0.488 -2.2731  0.8897  4.1384
  156MOL0     H21001  11.999  11.015   0.317  0.9209  3.4551  0.7285
  156MOL0     H21002  12.165  11.040   0.365  1.5194 -1.3693 -1.4051
  156MOL0     H21003  12.244  10.824   0.274 -0.1311  0.4674 -3.2848
  156MOL0     H21004  12.079  10.757   0.283 -1.2819  1.5266  1.5459
  156MOL0     H21005  12.195  10.969   0.102  2.9181 -0.9091  1.5053
  156MOL0     H21006  12.187  10.797   0.058  0.0679 -0.5094  1.7481
  156MOL0     H21007  11.949  10.797   0.070 -0.3619  0.3135 -2.3075
  156MOL0     H21008  11.922  10.959   0.106  0.2079 -2.2443  2.8393
  156MOL0     H21009  11.902  10.929  -0.153  1.9350 -1.2805 -2.8946
  156MOL0     H21010  12.055  10.862  -0.164  0.0335 -1.8873  1.4400
  156MOL0     H21011  11.898  11.186  -0.031 -0.7659 -0.0859 -1.7658
  156MOL0     H21012  12.149  11.479  -0.163 -2.7106  0.0621 -3.1238
  156MOL0     H21013  11.985  11.451  -0.161  0.5976 -0.1527 -1.8471
  156MOL0     H21014  12.078  11.582   0.044 -1.0257 -0.2242  0.3190
  156MOL0     H21015  12.146  11.425   0.098 -0.4087  0.7068  1.2974
  156MOL0     H21016  11.904  11.343   0.114 -0.6335  0.0796 -1.6578
  156MOL0     H21017  11.850  11.501   0.066 -0.0022  3.0020  0.8402
  156MOL0     H21018  11.830  11.464   0.311  1.2903 -1.9384  0.9542
  156MOL0     H21019  11.953  11.590   0.291  0.1301 -0.4239  1.7866
  156MOL0     H21020  11.829  11.380   0.518  0.0624 -3.7608  1.5617
  156MOL0     H21021  11.842  11.318   0.854 -0.5257  0.4768 -0.0751
  156MOL0     H21022  11.787  11.487   0.844 -1.5198  0.6063 -0.7656
  156MOL0     H21023  11.723  11.374   0.740 -1.0882 -0.4297  2.0814
  156MOL0     H21024  12.432  11.598   0.975  1.1523  1.0369  1.4939
  156MOL0     H21025  12.529  11.680   1.190  0.4758 -1.6505  2.4869
  156MOL0     H21026  12.607  11.715   1.484  1.5287  2.6807 -1.2411
  156MOL0     H21027  12.509  11.800   1.383  0.9800  2.8790  1.9066
  156MOL0     H21028  12.322  11.789   1.565 -0.1156 -3.2982  0.2887
  156MOL0     H21029  12.455  11.742   1.675  3.3368  1.0291 -0.1592
  156MOL0     H21030  12.427  12.009   1.656  1.5955 -0.5816  1.4752
  156MOL0     H21031  12.482  11.994   1.490  0.2929 -3.3043 -0.6168
  156MOL0     H21032  12.660  11.861   1.679  0.0925  1.4845  0.2453
  156MOL0     H21033  12.683  11.953   1.526 -0.5991 -0.4533 -0.6909
  156MOL0     H21034  12.619  12.090   1.788  2.2877  0.3736  1.7404
  156MOL0     H21035  12.680  12.168   1.643  0.9727  0.1509 -1.3003
  156MOL0     H21036  12.890  12.043   1.647  1.5703  1.2275  1.4757
  156MOL0     H21037  12.868  12.153   1.774  0.1672 -0.4733  0.8609
  156MOL0     H21038  12.875  11.848   1.783 -1.1307 -1.6126  1.0491
  156MOL0     H21039  12.775  11.935   1.911  0.7080  1.6513  0.7464
  156MOL0     H21040  13.073  11.983   1.877 -0.0666  0.1934  0.8349
  156MOL0     H21041  12.993  11.880   1.985 -2.1385  0.3091  2.7821
  156MOL0     H21042  12.250  11.435   1.409  3.0186 -0.2026  1.2469
  156MOL0     H21043  12.136  11.380   1.191  0.5776 -2.1104 -2.1508
  156MOL0     H21044  12.276  11.471   0.699  0.0901 -0.0154 -1.5387
  156MOL0     H21045  12.253  11.451   0.469  2.3749 -2.9057  1.4961
  156MOL0     H21046  11.753  10.660   0.773 -2.4184 -0.9580 -1.3525
  156MOL0     H21047  11.522  10.694   0.832 -0.2688  1.5966  1.5531
  156MOL0     H21048  11.142  10.802   0.838  1.9244  1.8599 -0.1446
  156MOL0     H21049  10.899  10.788   0.863 -0.3200 -0.9629 -0.8156
  156MOL0     H21050  10.809  11.069   1.105 -1.1599  2.6297  0.7959
  156MOL0     H21051  10.657  11.111   1.060  0.4801  0.2809  2.5114
  156MOL0     H21052  10.643  10.942   1.242 -1.5101  2.5420  0.1509
  156MOL0     H21053  10.711  10.819   1.134  1.0225 -0.1477  0.7061
  156MOL0     H21054  10.506  10.920   0.971 -1.1008  0.1175 -0.3083
  156MOL0     H21055  10.445  10.975   1.119  1.2119  0.4980 -0.8372
  156MOL0     H21056  10.544  10.687   1.062  0.1831 -0.1840 -0.7521
  156MOL0     H21057  10.381  10.725   1.040  2.0318 -4.1861 -0.9728
  156MOL0     H21058  10.396  10.633   1.450  0.9516  1.8468  0.4874
  156MOL0     H21059  10.871  11.212   0.884  2.0462  0.7562  0.0085
  156MOL0     H21060  11.125  11.221   0.839  3.1100 -1.9634  2.8863
  157MOL0     O21061   2.587  11.072   7.900  0.3108 -0.4306  0.8491
  157MOL0     C21062   2.611  10.954   7.915  0.0176 -0.4962 -0.2408
  157MOL0     O21063   2.619  10.862   7.811 -0.3106 -0.4852  0.6393
  157MOL0     C21064   2.646  10.922   7.689 -0.1071 -0.6651  0.0312
  157MOL0     C21065   2.546  10.951   7.598 -0.4790 -0.2409 -0.9632
  157MOL0     C21066   2.576  11.006   7.472 -0.3637 -0.0134  0.5730
  157MOL0     C21067   2.709  11.001   7.433 -0.3771  0.4405  0.9658
  157MOL0     O21068   2.737  11.006   7.295  0.3834 -0.0817 -0.5194
  157MOL0     C21069   2.870  11.028   7.241 -0.2299  0.4105 -0.7322
  157MOL0     C21070   2.855  11.032   7.093 -0.6308  0.1291  0.2883
  157MOL0     C21071   2.832  11.175   7.049  0.5619 -1.1020 -0.3544
  157MOL0     C21072   2.820  11.188   6.899 -0.3322  0.1610 -0.5508
  157MOL0     C21073   2.782  11.331   6.862  0.0139 -0.5526  0.1132
  157MOL0     C21074   2.826  11.359   6.717  0.1928 -0.4627  0.4968
  157MOL0     C21075   2.755  11.493   6.664  0.2467  0.2876 -0.6685
  157MOL0     C21076   2.762  11.506   6.507 -0.3041  0.8292 -0.7759
  157MOL0     N21077   2.677  11.387   6.464 -0.5856  0.1173 -0.5133
  157MOL0     C21078   2.713  11.272   6.399 -0.4160  0.1032 -0.1782
  157MOL0     C21079   2.598  11.213   6.370  0.3775  0.7756 -0.5681
  157MOL0     C21080   2.579  11.081   6.295 -0.8273 -0.3817  0.7196
  157MOL0     C21081   2.434  11.067   6.259 -0.1950 -0.2579  0.4982
  157MOL0     C21082   2.404  10.939   6.192 -0.4887  0.1369 -0.4827
  157MOL0     C21083   2.255  10.909   6.198  0.0831  0.3929 -0.1559
  157MOL0     O21084   2.154  11.010   6.176 -0.0984 -0.0905  0.7174
  157MOL0     C21085   2.025  10.961   6.164  0.8750 -0.2097 -1.3119
  157MOL0     C21086   1.933  11.043   6.088  1.1434 -0.1979  0.7633
  157MOL0     C21087   1.806  10.992   6.062  0.2174 -0.7541 -0.6241
  157MOL0     C21088   1.696  11.063   5.984 -0.0289 -1.2906 -0.1015
  157MOL0     C21089   1.767  10.874   6.127  1.1036  0.2031 -0.5329
  157MOL0     C21090   1.626  10.817   6.127 -0.3883 -0.0572  0.1705
  157MOL0     O21091   1.577  10.783   6.252 -1.2073  0.2773 -0.1000
  157MOL0     C21092   1.476  10.697   6.266  0.0187  0.3773  0.6577
  157MOL0     C21093   1.478  10.560   6.226 -0.2721 -0.4256 -0.0850
  157MOL0     C21094   1.366  10.482   6.231  0.1245  0.2997 -0.1967
  157MOL0     C21095   1.247  10.531   6.287  0.0398 -0.4947  0.1063
  157MOL0     O21096   1.129  10.463   6.310  0.0663 -1.1279  0.4778
  157MOL0     C21097   1.122  10.336   6.252  0.1395 -0.2812  0.0343
  157MOL0     C21098   0.973  10.294   6.267  0.1249  1.0203 -0.5236
  157MOL0     C21099   0.883  10.368   6.157 -0.1280 -0.2136  0.3228
  157MOL0     C21100   0.743  10.309   6.151  0.2779 -0.2038  1.0473
  157MOL0     C21101   0.630  10.395   6.212 -0.1493 -0.7232  0.4429
  157MOL0     C21102   0.498  10.320   6.240 -1.1564  0.0903 -0.3010
  157MOL0     C21103   0.503  10.239   6.369  0.0545  0.4427 -0.5303
  157MOL0     C21104   0.497  10.323   6.493 -0.3239  0.5395 -0.0173
  157MOL0    Cl21105   0.326  10.387   6.489  0.0290 -0.0372  0.1548
  157MOL0     C21106   1.244  10.671   6.320 -0.3956  0.1872 -0.2850
  157MOL0     C21107   1.357  10.759   6.313 -1.2857  0.0915  0.3722
  157MOL0     O21108   1.574  10.793   6.019  0.2910  0.4722  0.0567
  157MOL0     C21109   1.852  10.815   6.223  0.3522 -0.6316  0.2103
  157MOL0     C21110   1.982  10.852   6.236 -0.0997 -0.5549  0.1969
  157MOL0     N21111   2.495  11.283   6.427 -0.1340 -0.2089  0.2636
  157MOL0     N21112   2.543  11.383   6.489 -0.1651  0.7471 -0.1226
  157MOL0     C21113   2.812  10.974   7.519 -0.4174 -0.4441  0.2422
  157MOL0     C21114   2.781  10.932   7.650  0.1076 -0.6943  0.1854
  157MOL0     C21115   2.599  10.893   8.050  0.9184  0.4734  0.4557
  157MOL0     C21116   2.529  10.966   8.159  0.1277  0.7790 -0.5599
  157MOL0     C21117   2.535  10.916   8.293 -0.5247  1.2064 -0.4789
  157MOL0     C21118   2.592  10.791   8.320  0.2866  0.3869 -0.0297
  157MOL0     O21119   2.562  10.735   8.439 -0.0427 -0.8388 -0.0645
  157MOL0     C21120   2.650  10.641   8.508  0.0263 -0.7567  0.1895
  157MOL0     C21121   2.575  10.502   8.496  0.3943 -0.1101  0.4117
  157MOL0     C21122   2.439  10.503   8.557  0.1850  0.3780 -0.4811
  157MOL0     C21123   2.387  10.356   8.564  0.3189  0.6692 -1.4295
  157MOL0     C21124   2.296  10.347   8.688 -0.1987 -0.8380  0.2413
  157MOL0     C21125   2.224  10.343   8.788 -0.6918 -0.6418  0.5396
  157MOL0     C21126   2.668  10.724   8.219  0.6721  0.1240 -0.6175
  157MOL0     C21127   2.663  10.772   8.088  0.2979 -0.4100 -0.0193
  157MOL0     H21128   2.444  10.939   7.633 -2.0673  4.1372 -3.3811
  157MOL0     H21129   2.497  11.032   7.402  0.9114  4.4295  0.4709
  157MOL0     H21130   2.922  11.109   7.293 -0.3307  0.5610 -0.8648
  157MOL0     H21131   2.925  10.936   7.263 -0.5485  0.1685 -0.9397
  157MOL0     H21132   2.952  11.005   7.052  0.4844  1.5033  1.8492
  157MOL0     H21133   2.782  10.961   7.055  0.6416 -0.7906 -0.4990
  157MOL0     H21134   2.738  11.210   7.091  2.0526  3.1497 -0.0684
  157MOL0     H21135   2.907  11.241   7.093  0.1817 -0.3927 -0.7505
  157MOL0     H21136   2.917  11.168   6.853 -0.7334  0.2260 -1.4398
  157MOL0     H21137   2.748  11.126   6.844 -1.4912  0.6869  0.3364
  157MOL0     H21138   2.674  11.343   6.877 -0.1081 -1.4802  0.0545
  157MOL0     H21139   2.842  11.397   6.925 -2.3153  1.7802  0.0879
  157MOL0     H21140   2.935  11.373   6.711  0.1828  0.1798  1.5639
  157MOL0     H21141   2.804  11.276   6.649  0.8085  0.2112 -0.5514
  157MOL0     H21142   2.648  11.485   6.682  0.1505 -6.1764 -1.5827
  157MOL0     H21143   2.812  11.580   6.698  0.4323  0.4057 -1.2848
  157MOL0     H21144   2.863  11.484   6.470  0.0916 -0.8096  1.1132
  157MOL0     H21145   2.722  11.604   6.478 -3.8874  0.0456  0.9576
  157MOL0     H21146   2.811  11.239   6.365 -1.4600 -1.7831 -1.4858
  157MOL0     H21147   2.645  11.083   6.208 -0.3705 -0.4297  1.0600
  157MOL0     H21148   2.613  11.002   6.362  0.9940 -0.9519 -0.7866
  157MOL0     H21149   2.422  11.155   6.195  5.1706 -0.3183 -1.0999
  157MOL0     H21150   2.370  11.078   6.347 -0.9258  1.5413 -0.2057
  157MOL0     H21151   2.463  10.858   6.236  0.1612 -0.6775 -2.6988
  157MOL0     H21152   2.434  10.937   6.086  0.6520  1.9774 -0.2311
  157MOL0     H21153   2.244  10.891   6.305  1.2815 -1.7261 -0.3333
  157MOL0     H21154   2.233  10.813   6.149 -0.2614 -0.7381  2.0605
  157MOL0     H21155   1.955  11.138   6.042 -2.3083 -0.7124 -2.3634
  157MOL0     H21156   1.694  11.005   5.892  0.5454  1.5839 -2.0572
  157MOL0     H21157   1.605  11.068   6.045  0.0850 -0.7402  0.0324
  157MOL0     H21158   1.725  11.167   5.966 -3.4551 -0.1795  0.0938
  157MOL0     H21159   1.563  10.506   6.187  0.1269 -1.2345  1.8022
  157MOL0     H21160   1.364  10.383   6.188  2.8459 -2.2483  4.6306
  157MOL0     H21161   1.157  10.327   6.149  2.7136  0.6059  0.7389
  157MOL0     H21162   1.177  10.264   6.314  1.3702 -0.3657 -1.1018
  157MOL0     H21163   0.964  10.186   6.250  0.8195  0.6031  1.5475
  157MOL0     H21164   0.940  10.324   6.367  0.7235  4.0821 -1.1453
  157MOL0     H21165   0.933  10.344   6.063  0.6468 -0.6976  0.8522
  157MOL0     H21166   0.871  10.477   6.164 -2.3634 -0.0899 -3.0250
  157MOL0     H21167   0.724  10.293   6.044 -0.6960 -2.9504  1.5485
  157MOL0     H21168   0.748  10.212   6.200  2.0103 -0.2461  0.8686
  157MOL0     H21169   0.601  10.472   6.139  0.6744 -2.7019 -2.1372
  157MOL0     H21170   0.654  10.442   6.308 -2.5157  1.1981  0.1946
  157MOL0     H21171   0.419  10.395   6.248 -0.5949  1.6848 -5.5161
  157MOL0     H21172   0.472  10.268   6.147 -1.8668  2.0216 -1.2369
  157MOL0     H21173   0.596  10.184   6.384 -0.3766  0.2174  1.7874
  157MOL0     H21174   0.417  10.171   6.370 -0.0698  0.5156  2.0566
  157MOL0     H21175   0.573  10.401   6.500  0.1806  0.1249 -0.7543
  157MOL0     H21176   0.506  10.261   6.583 -3.0067 -0.5309 -0.3955
  157MOL0     H21177   1.142  10.702   6.338 -1.2593 -1.8410 -1.2760
  157MOL0     H21178   1.346  10.865   6.333 -0.2711 -0.0971  2.1089
  157MOL0     H21179   1.803  10.736   6.278 -0.8343 -3.3593 -4.2739
  157MOL0     H21180   2.041  10.799   6.310  1.9212  2.5679  1.0339
  157MOL0     H21181   2.913  10.969   7.480 -0.9175 -0.1722 -1.1514
  157MOL0     H21182   2.865  10.903   7.712  2.5998  2.2274 -1.5044
  157MOL0     H21183   2.480  11.060   8.135 -0.3988  0.0657 -2.4309
  157MOL0     H21184   2.489  10.971   8.375 -0.7943  1.5651 -0.8629
  157MOL0     H21185   2.749  10.648   8.461 -0.5276  0.0273 -0.9238
  157MOL0     H21186   2.660  10.667   8.614  0.9837 -0.7889  0.1182
  157MOL0     H21187   2.645  10.432   8.544  2.7297  1.9312  0.1607
  157MOL0     H21188   2.564  10.464   8.394 -3.1124 -1.2176  1.0605
  157MOL0     H21189   2.367  10.579   8.526 -0.0932  0.3871  0.1757
  157MOL0     H21190   2.462  10.533   8.660  0.4422 -1.4270  0.0210
  157MOL0     H21191   2.457  10.275   8.585 -0.3268  0.1211 -1.3265
  157MOL0     H21192   2.346  10.332   8.465 -0.6066 -0.5969 -0.7776
  157MOL0     H21193   2.168  10.333   8.879 -1.8861  1.5036  0.1147
  157MOL0     H21194   2.709  10.625   8.235 -0.6878 -0.1959  1.2473
  157MOL0     H21195   2.705  10.713   8.006 -2.0433 -1.9983 -0.1704
  158MOL0     O21196   6.893   6.549  10.084 -0.2138 -0.7487 -0.3873
  158MOL0     C21197   6.921   6.465   9.996  0.0515  1.4975  0.1887
  158MOL0     O21198   7.041   6.450   9.933 -0.3738 -0.6372 -0.2673
  158MOL0     C21199   7.135   6.544   9.926  0.6244 -0.2647  0.1867
  158MOL0     C21200   7.095   6.686   9.916  0.5345  0.6998  0.2715
  158MOL0     C21201   7.194   6.781   9.894 -0.0213 -0.0665  0.4188
  158MOL0     C21202   7.330   6.745   9.868 -0.0148 -0.1605  0.3035
  158MOL0     O21203   7.414   6.852   9.846 -0.6875  0.1259  0.3392
  158MOL0     C21204   7.549   6.849   9.892  0.4075 -0.0400 -0.4152
  158MOL0     C21205   7.566   6.923  10.027  0.6472  0.7562  0.5053
  158MOL0     C21206   7.519   7.074  10.026 -0.1378  0.2635 -0.7965
  158MOL0     C21207   7.541   7.137  10.168 -0.7205 -0.5075  0.6722
  158MOL0     C21208   7.532   7.289  10.157  0.8007 -0.5802  0.4308
  158MOL0     C21209   7.531   7.353  10.293 -0.3337  0.1545 -0.1895
  158MOL0     C21210   7.564   7.502  10.288 -0.1737 -0.0419 -0.0722
  158MOL0     C21211   7.698   7.553  10.244  0.2667  0.9012 -0.0764
  158MOL0     N21212   7.810   7.524  10.333  0.1188  0.6281  0.9491
  158MOL0     C21213   7.887   7.414  10.319 -0.1401  0.4235  0.5741
  158MOL0     C21214   7.965   7.404  10.427  0.1666 -0.1566  0.0920
  158MOL0     C21215   8.058   7.293  10.462  0.6248  0.9308  0.7446
  158MOL0     C21216   8.088   7.260  10.612  0.6114  1.2668  0.2106
  158MOL0     C21217   8.124   7.109  10.617  0.7454 -0.1741  0.0522
  158MOL0     C21218   8.108   7.068  10.755  0.0117  1.3602 -0.3322
  158MOL0     O21219   8.177   7.155  10.848 -0.0950  0.3408 -0.0301
  158MOL0     C21220   8.177   7.129  10.985  0.6078  0.2848 -0.6960
  158MOL0     C21221   8.206   7.000  11.029  0.1977  0.3339 -1.3609
  158MOL0     C21222   8.192   6.963  11.170 -0.1034  0.2558 -0.1361
  158MOL0     C21223   8.238   6.824  11.209 -0.0059  0.6565  0.1439
  158MOL0     C21224   8.132   7.056  11.256 -0.2014 -1.0253 -0.1462
  158MOL0     C21225   8.105   7.027  11.395 -1.0656  0.0943  0.5787
  158MOL0     O21226   7.990   7.079  11.437  0.1842 -0.1229 -0.0814
  158MOL0     C21227   7.940   7.057  11.559 -0.4247 -0.7064  0.5352
  158MOL0     C21228   7.904   7.165  11.634 -0.0249 -0.5940 -0.9524
  158MOL0     C21229   7.836   7.144  11.756  0.4719  0.0332  0.2439
  158MOL0     C21230   7.811   7.019  11.803  0.3503  0.1679  0.4959
  158MOL0     O21231   7.764   6.987  11.920  0.1657  0.0851 -0.3015
  158MOL0     C21232   7.716   7.088  12.002  0.3260  1.2292  0.1819
  158MOL0     C21233   7.611   7.020  12.095  0.3821 -0.6457  0.2484
  158MOL0     C21234   7.540   7.112  12.189  0.2131  0.0726 -0.1201
  158MOL0     C21235   7.428   7.037  12.264 -0.6591 -0.8671  0.0338
  158MOL0     C21236   7.346   7.132  12.358 -0.3915 -0.1332 -0.1887
  158MOL0     C21237   7.237   7.040  12.427 -0.0568 -0.1340 -0.2530
  158MOL0     C21238   7.129   7.125  12.506  0.1368  0.1203 -0.1346
  158MOL0     C21239   6.988   7.101  12.449 -0.1985  0.3797  0.8587
  158MOL0    Cl21240   6.958   7.122  12.279  0.1966  0.2304  0.1247
  158MOL0     C21241   7.863   6.911  11.731 -0.3514  0.3802  0.0418
  158MOL0     C21242   7.926   6.929  11.601 -0.1830  0.1631  0.2266
  158MOL0     O21243   8.186   6.962  11.461 -0.3450 -0.6806  0.1729
  158MOL0     C21244   8.107   7.187  11.214  0.4420  0.1350  0.1921
  158MOL0     C21245   8.125   7.220  11.076 -0.3264  0.3284  0.8194
  158MOL0     N21246   7.930   7.499  10.518 -0.1110 -0.3409 -0.3217
  158MOL0     N21247   7.834   7.564  10.461  0.6984  0.1470  0.2685
  158MOL0     C21248   7.362   6.612   9.874 -0.1307 -0.1685  0.4757
  158MOL0     C21249   7.266   6.512   9.899 -0.5612  0.5096 -0.4985
  158MOL0     C21250   6.809   6.380   9.948 -0.9126 -0.4165  0.4355
  158MOL0     C21251   6.671   6.419   9.956 -0.2679  0.4074  0.1774
  158MOL0     C21252   6.576   6.344   9.891 -0.3780 -0.0779 -0.5931
  158MOL0     C21253   6.603   6.223   9.834  0.0695 -0.4997  0.0627
  158MOL0     O21254   6.514   6.138   9.775 -0.3176  0.2167  0.0952
  158MOL0     C21255   6.368   6.168   9.799  0.8611  0.3434 -0.3559
  158MOL0     C21256   6.331   6.131   9.946  0.4941  0.0266 -0.2349
  158MOL0     C21257   6.300   5.977   9.952  0.8321 -0.4967  0.7592
  158MOL0     C21258   6.150   5.934   9.941 -0.3948  0.2558 -0.0228
  158MOL0     C21259   6.060   5.992  10.052 -0.4683  0.5293 -0.0318
  158MOL0     C21260   5.975   6.010  10.130  0.8426 -0.1239 -0.1110
  158MOL0     C21261   6.734   6.183   9.839  0.3770  0.1979 -0.2299
  158MOL0     C21262   6.837   6.254   9.892 -0.1636 -0.6980  1.0599
  158MOL0     H21263   6.990   6.709   9.929  1.1057  2.1866  3.4638
  158MOL0     H21264   7.161   6.884   9.883 -1.7791 -0.7811 -1.6819
  158MOL0     H21265   7.597   6.750   9.896 -0.2648 -0.5107 -2.3918
  158MOL0     H21266   7.610   6.907   9.822  0.8743  0.7607  0.6426
  158MOL0     H21267   7.506   6.878  10.108  0.0519  0.1914 -0.2316
  158MOL0     H21268   7.669   6.913  10.062  1.0239  2.5759  0.0357
  158MOL0     H21269   7.573   7.128   9.948  3.1368 -2.1716 -0.4297
  158MOL0     H21270   7.413   7.084  10.003 -0.5409  0.2761  0.9005
  158MOL0     H21271   7.472   7.101  10.246  1.1410 -3.3684  1.1572
  158MOL0     H21272   7.636   7.104  10.211  2.8180  1.1937 -4.8274
  158MOL0     H21273   7.614   7.309  10.087  0.3370  0.7905  0.2523
  158MOL0     H21274   7.437   7.322  10.114  1.5106 -0.9924 -1.5716
  158MOL0     H21275   7.435   7.324  10.336 -1.0540  1.2306 -0.9995
  158MOL0     H21276   7.606   7.297  10.349  1.3336 -1.5913 -3.8124
  158MOL0     H21277   7.483   7.557  10.238  0.7422  2.1006  0.6620
  158MOL0     H21278   7.555   7.542  10.390 -3.7891  1.5299 -0.8372
  158MOL0     H21279   7.709   7.662  10.237 -0.0587  0.8616 -1.5170
  158MOL0     H21280   7.716   7.516  10.143  1.1202 -2.6502  1.2407
  158MOL0     H21281   7.904   7.364  10.224  1.1443  1.2025  0.3569
  158MOL0     H21282   8.013   7.207  10.413  0.7470  1.5943 -0.5594
  158MOL0     H21283   8.149   7.330  10.413 -0.5746  1.5657 -1.0902
  158MOL0     H21284   8.004   7.283  10.679  0.0389 -2.1322  0.8693
  158MOL0     H21285   8.164   7.323  10.659  0.0597  0.5018  2.2479
  158MOL0     H21286   8.225   7.108  10.576 -0.3109  0.7372 -2.9113
  158MOL0     H21287   8.051   7.055  10.556 -0.4289  3.0011 -1.6325
  158MOL0     H21288   8.146   6.966  10.768 -1.1206  1.1687  1.8710
  158MOL0     H21289   8.009   7.057  10.799  0.0378  1.3839 -0.2666
  158MOL0     H21290   8.247   6.923  10.964 -0.0064 -0.6933 -0.3152
  158MOL0     H21291   8.344   6.823  11.238 -0.1192  0.6415  0.5768
  158MOL0     H21292   8.199   6.787  11.304  0.9316 -1.0995 -0.1179
  158MOL0     H21293   8.211   6.747  11.137 -2.9510  0.2355  1.5671
  158MOL0     H21294   7.915   7.269  11.602  0.3161  0.4944  2.3716
  158MOL0     H21295   7.811   7.234  11.810  3.0590  3.5928 -3.8206
  158MOL0     H21296   7.799   7.130  12.059  4.0833 -0.8868 -3.1977
  158MOL0     H21297   7.662   7.163  11.943 -0.0106 -0.1119 -1.2704
  158MOL0     H21298   7.538   6.976  12.027 -0.1290 -0.0334  0.3974
  158MOL0     H21299   7.652   6.933  12.147 -0.0941 -1.2897 -0.4412
  158MOL0     H21300   7.488   7.190  12.132  1.1555  0.8409  0.0561
  158MOL0     H21301   7.612   7.162  12.255  0.2693 -2.3844  1.8209
  158MOL0     H21302   7.352   6.980  12.209 -0.4252 -2.7626  1.5460
  158MOL0     H21303   7.477   6.958  12.321  1.5438  0.9479  0.7831
  158MOL0     H21304   7.296   7.216  12.308  1.0964  2.6363  2.6337
  158MOL0     H21305   7.397   7.186  12.438 -4.7726 -0.0869  2.9249
  158MOL0     H21306   7.175   6.985  12.356 -5.2870  2.8722  1.5022
  158MOL0     H21307   7.295   6.965  12.482  1.5692 -0.5475 -2.3790
  158MOL0     H21308   7.158   7.230  12.494  0.4263  0.0859  0.2433
  158MOL0     H21309   7.130   7.089  12.610 -1.1655 -0.4974 -0.3220
  158MOL0     H21310   6.920   7.169  12.502 -2.3145 -1.0873  0.1637
  158MOL0     H21311   6.965   6.996  12.472  2.0336 -1.1567 -3.0555
  158MOL0     H21312   7.846   6.810  11.766 -0.5796  0.4087  0.0147
  158MOL0     H21313   7.960   6.837  11.556  1.8041  0.4169  1.1227
  158MOL0     H21314   8.055   7.252  11.285 -4.2053 -0.3875 -2.3185
  158MOL0     H21315   8.100   7.318  11.037  1.0827 -0.0818 -1.2286
  158MOL0     H21316   7.467   6.588   9.868 -0.1387  0.0260 -3.9189
  158MOL0     H21317   7.308   6.412   9.901  1.3622  1.1845  3.6891
  158MOL0     H21318   6.636   6.509  10.005 -1.6156  0.6781 -1.2137
  158MOL0     H21319   6.482   6.399   9.894  0.6010  1.7034 -0.8841
  158MOL0     H21320   6.362   6.276   9.783  2.9618  0.3633 -1.3267
  158MOL0     H21321   6.308   6.123   9.719  2.1741  1.7687 -2.2300
  158MOL0     H21322   6.241   6.188   9.971  1.3209  0.0436  3.2146
  158MOL0     H21323   6.401   6.166  10.022 -0.1968  0.3188  0.2769
  158MOL0     H21324   6.341   5.941  10.047 -0.5179  1.9450  2.3569
  158MOL0     H21325   6.356   5.929   9.871  0.3557 -0.4950  0.4252
  158MOL0     H21326   6.149   5.825   9.946  0.6593  0.1292 -1.9391
  158MOL0     H21327   6.102   5.972   9.850 -0.6503 -0.6599 -0.2794
  158MOL0     H21328   5.888   6.040  10.186  0.7051  3.1191 -1.8190
  158MOL0     H21329   6.761   6.085   9.801  0.0807  0.6940 -1.7924
  158MOL0     H21330   6.938   6.218   9.875  0.8384  2.3391 -0.0477
  159MOL0     O21331   6.325   4.836   8.646  0.1335  0.0590  0.1780
  159MOL0     C21332   6.429   4.837   8.711 -0.0661 -0.2297 -0.1923
  159MOL0     O21333   6.471   4.947   8.787 -0.8424 -0.5695 -0.5979
  159MOL0     C21334   6.383   5.053   8.807  0.2837 -0.0102 -0.8278
  159MOL0     C21335   6.376   5.154   8.712 -0.1935  0.0543 -0.1414
  159MOL0     C21336   6.292   5.262   8.733  0.1190  0.9846 -0.4199
  159MOL0     C21337   6.207   5.262   8.846 -0.7234  0.2783 -0.6109
  159MOL0     O21338   6.124   5.363   8.873  0.3368  0.3370 -0.0554
  159MOL0     C21339   5.994   5.355   8.810 -0.1287 -0.3639 -0.3578
  159MOL0     C21340   5.946   5.496   8.826 -0.2281  0.9002  0.2116
  159MOL0     C21341   6.010   5.577   8.710  0.0847 -0.2363  0.1485
  159MOL0     C21342   6.002   5.723   8.731 -0.0282 -0.9270 -0.4751
  159MOL0     C21343   6.142   5.788   8.739 -0.5076  0.5675 -0.2531
  159MOL0     C21344   6.217   5.745   8.862 -1.4180  0.0239  0.9869
  159MOL0     C21345   6.366   5.749   8.855  0.3313  0.8539 -0.7374
  159MOL0     C21346   6.410   5.896   8.853  0.4090 -0.4286  1.2628
  159MOL0     N21347   6.544   5.914   8.906  0.2213 -0.2522  0.7430
  159MOL0     C21348   6.650   5.964   8.844 -0.3713  0.4062 -0.3089
  159MOL0     C21349   6.751   5.967   8.926 -0.5110  0.4494 -0.1780
  159MOL0     C21350   6.896   5.983   8.894 -0.0175  0.4205  0.6771
  159MOL0     C21351   6.958   6.129   8.904  0.4646  0.5859 -0.5822
  159MOL0     C21352   7.108   6.129   8.880 -0.0556 -0.1705 -0.9179
  159MOL0     C21353   7.156   6.080   8.736 -0.0663 -0.3863 -0.0383
  159MOL0     O21354   7.061   6.138   8.644 -0.0377 -0.0515 -0.6390
  159MOL0     C21355   7.053   6.076   8.523 -0.2822 -0.2735  0.4348
  159MOL0     C21356   7.158   6.050   8.438 -0.5269  0.3476 -0.4494
  159MOL0     C21357   7.139   5.980   8.318  0.4375  0.2173 -0.5814
  159MOL0     C21358   7.257   5.972   8.226  0.8034  0.5985  0.2641
  159MOL0     C21359   7.017   5.942   8.272  0.0088  0.6436  0.7911
  159MOL0     C21360   6.994   5.905   8.126  0.8034 -0.2169 -0.6461
  159MOL0     O21361   6.886   5.827   8.116 -0.2273  0.3708 -0.4969
  159MOL0     C21362   6.814   5.839   8.001 -0.3020  0.4661 -0.0722
  159MOL0     C21363   6.702   5.921   7.988  0.3017  0.3823 -0.7386
  159MOL0     C21364   6.642   5.922   7.863 -0.0250 -0.7184 -0.4350
  159MOL0     C21365   6.693   5.853   7.751 -0.1566  0.3291 -0.5948
  159MOL0     O21366   6.628   5.876   7.632 -0.1167  0.0333 -0.4504
  159MOL0     C21367   6.644   5.790   7.520 -0.7469 -0.2673 -1.2134
  159MOL0     C21368   6.577   5.838   7.395  0.4844 -1.2058  0.2398
  159MOL0     C21369   6.432   5.778   7.377  0.0124 -0.0775  0.2345
  159MOL0     C21370   6.396   5.775   7.230 -0.6095 -0.7111  0.4763
  159MOL0     C21371   6.273   5.706   7.203  0.0402  0.0857  0.2536
  159MOL0     C21372   6.242   5.711   7.052  0.1903 -0.3859  0.3495
  159MOL0     C21373   6.145   5.614   7.010  0.6017 -0.7849  0.9929
  159MOL0     C21374   6.121   5.621   6.852 -0.5584  0.0264 -0.2062
  159MOL0    Cl21375   6.060   5.787   6.801  0.1305  0.3353  0.2127
  159MOL0     C21376   6.800   5.764   7.769  0.2736 -0.1332 -0.2316
  159MOL0     C21377   6.863   5.755   7.896  0.4412 -0.1059  0.7895
  159MOL0     O21378   7.050   5.957   8.030  0.2050  0.3335  0.0874
  159MOL0     C21379   6.909   5.961   8.362  0.9534  0.4250 -0.8401
  159MOL0     C21380   6.929   6.035   8.487  0.2204  0.5604  0.2554
  159MOL0     N21381   6.707   5.911   9.044 -0.3139 -0.1913 -0.2706
  159MOL0     N21382   6.580   5.881   9.033 -0.4820 -0.6069  0.4282
  159MOL0     C21383   6.218   5.166   8.949 -0.5986 -0.3938 -0.4198
  159MOL0     C21384   6.314   5.062   8.929 -0.3192  1.2977 -0.3767
  159MOL0     C21385   6.518   4.715   8.707 -0.6843  0.0717  0.3331
  159MOL0     C21386   6.635   4.706   8.779  0.0470 -0.7777  0.4712
  159MOL0     C21387   6.736   4.624   8.739 -0.6007  0.2709  0.2728
  159MOL0     C21388   6.714   4.524   8.659  0.0368  0.6177 -0.4457
  159MOL0     O21389   6.812   4.434   8.637  0.3904  0.2241 -0.6753
  159MOL0     C21390   6.869   4.442   8.507  0.5698 -0.1439 -0.0165
  159MOL0     C21391   6.955   4.566   8.500 -1.1261 -0.4921  0.5051
  159MOL0     C21392   7.016   4.584   8.358  0.4682  0.5887 -1.3829
  159MOL0     C21393   7.132   4.671   8.363 -1.3148 -0.5789 -0.4207
  159MOL0     C21394   7.235   4.623   8.268 -0.6177 -0.4691  0.1219
  159MOL0     C21395   7.322   4.586   8.189  0.8765 -0.0810  0.3163
  159MOL0     C21396   6.584   4.505   8.608 -0.0086 -0.0015  1.0979
  159MOL0     C21397   6.487   4.608   8.626 -0.8481  0.6481  0.1241
  159MOL0     H21398   6.432   5.121   8.625 -0.8591 -0.4752 -0.3781
  159MOL0     H21399   6.294   5.345   8.663  0.1241 -1.5411 -3.6561
  159MOL0     H21400   5.997   5.329   8.704 -3.3167 -0.6651 -0.4838
  159MOL0     H21401   5.930   5.283   8.862 -1.4127 -0.9252 -2.5828
  159MOL0     H21402   5.839   5.492   8.803 -0.4135  1.0683  1.0293
  159MOL0     H21403   5.978   5.537   8.922  0.4773  1.3113 -0.1862
  159MOL0     H21404   6.115   5.552   8.694  0.3365  1.4603 -1.1730
  159MOL0     H21405   5.955   5.559   8.618 -0.5705 -0.8470  0.6486
  159MOL0     H21406   5.960   5.772   8.643 -0.7683  2.0946  1.4231
  159MOL0     H21407   5.939   5.756   8.814  1.7134  1.5776 -0.0357
  159MOL0     H21408   6.190   5.761   8.644  1.0139  1.1789  0.3128
  159MOL0     H21409   6.143   5.897   8.746  0.6904  0.7146 -2.0330
  159MOL0     H21410   6.170   5.795   8.947  0.5283 -0.2682  2.3113
  159MOL0     H21411   6.202   5.638   8.879 -0.8996 -0.9694 -3.4938
  159MOL0     H21412   6.403   5.696   8.943  0.0869 -1.7805 -2.1057
  159MOL0     H21413   6.414   5.699   8.771 -2.1365 -2.1610 -0.5399
  159MOL0     H21414   6.339   5.947   8.919 -1.1169  0.2275 -0.7791
  159MOL0     H21415   6.394   5.943   8.755  2.3299 -2.0495  0.0823
  159MOL0     H21416   6.660   6.009   8.746  2.4372  0.7964  0.0519
  159MOL0     H21417   6.944   5.909   8.958  0.1429  0.3995  0.5354
  159MOL0     H21418   6.906   5.969   8.785 -0.8487 -2.0966  0.8458
  159MOL0     H21419   6.955   6.149   9.011  3.0634 -1.6638  0.0421
  159MOL0     H21420   6.903   6.204   8.847 -2.7620  1.8406  3.6715
  159MOL0     H21421   7.149   6.055   8.949 -0.6154  2.1934  2.1686
  159MOL0     H21422   7.154   6.222   8.914  0.4020  0.1541 -2.3533
  159MOL0     H21423   7.168   5.972   8.726  3.7832 -0.2167  0.9430
  159MOL0     H21424   7.250   6.129   8.710 -0.5340 -0.6548 -2.4552
  159MOL0     H21425   7.247   6.098   8.479 -2.5481  2.0865  2.3354
  159MOL0     H21426   7.244   5.873   8.181  0.4226  0.2438  1.1439
  159MOL0     H21427   7.249   6.045   8.144 -1.3809 -0.6822 -0.7829
  159MOL0     H21428   7.354   5.974   8.275  1.6747  1.7837 -1.3788
  159MOL0     H21429   6.674   5.977   8.076  0.8013 -2.3670  1.3169
  159MOL0     H21430   6.548   5.975   7.854  0.0766 -0.3587  0.4245
  159MOL0     H21431   6.750   5.780   7.495 -0.7808 -3.5894 -0.3907
  159MOL0     H21432   6.599   5.696   7.551 -0.5251  0.5380  1.9732
  159MOL0     H21433   6.575   5.946   7.379 -0.9048 -1.2067  0.2805
  159MOL0     H21434   6.646   5.802   7.319 -2.2722  1.1334 -3.7232
  159MOL0     H21435   6.354   5.838   7.426 -0.8519 -0.7359 -0.3155
  159MOL0     H21436   6.429   5.678   7.421 -0.0271  0.4487  1.4598
  159MOL0     H21437   6.377   5.874   7.187  2.4176 -0.5589 -0.7743
  159MOL0     H21438   6.482   5.731   7.177  1.5186  2.0334  1.4065
  159MOL0     H21439   6.197   5.741   7.273  0.9817  3.9572 -0.4161
  159MOL0     H21440   6.304   5.602   7.219  0.4942 -0.0866 -1.5567
  159MOL0     H21441   6.195   5.807   7.027 -1.1041 -1.2642 -0.7296
  159MOL0     H21442   6.332   5.704   6.991 -0.2833 -0.4182 -0.3600
  159MOL0     H21443   6.049   5.629   7.060  0.2725 -0.7081  0.3485
  159MOL0     H21444   6.180   5.516   7.043  1.2083 -0.7932  0.3429
  159MOL0     H21445   6.058   5.540   6.814  1.0096 -0.4749 -1.8364
  159MOL0     H21446   6.219   5.602   6.809 -0.0828 -1.3824  1.4110
  159MOL0     H21447   6.846   5.712   7.686 -2.3242  0.7688 -2.3797
  159MOL0     H21448   6.952   5.694   7.899 -0.0310 -1.1159 -2.4634
  159MOL0     H21449   6.811   5.931   8.329  1.0909 -0.3843 -0.5426
  159MOL0     H21450   6.853   6.061   8.560 -0.0567  2.1668 -0.5641
  159MOL0     H21451   6.153   5.172   9.035 -1.0150  1.5528 -0.8390
  159MOL0     H21452   6.322   4.991   9.010 -1.7456  2.8209  1.1933
  159MOL0     H21453   6.670   4.791   8.837  1.4652 -0.6435 -0.5411
  159MOL0     H21454   6.836   4.638   8.779 -0.2533  0.2788 -0.5900
  159MOL0     H21455   6.927   4.350   8.491 -3.3859 -2.8660 -0.0075
  159MOL0     H21456   6.788   4.444   8.434  1.7964 -1.6206 -1.5054
  159MOL0     H21457   7.028   4.548   8.579 -1.1183 -2.5711  0.0727
  159MOL0     H21458   6.905   4.661   8.519  0.8736  1.2637 -2.2341
  159MOL0     H21459   6.941   4.626   8.290 -0.8728  1.8655  0.7586
  159MOL0     H21460   7.044   4.485   8.318  3.8664  1.1553 -0.7493
  159MOL0     H21461   7.173   4.667   8.465 -0.8833  0.5711 -0.5328
  159MOL0     H21462   7.100   4.772   8.336  0.5659  0.4109  0.8306
  159MOL0     H21463   7.386   4.584   8.103  0.6430  1.8817  0.0413
  159MOL0     H21464   6.566   4.413   8.554  1.7706 -0.3309  1.0046
  159MOL0     H21465   6.394   4.584   8.576 -0.2653 -5.1607  1.1384
  160MOL0     O21466   5.350   1.351   8.784  0.4940  0.3412 -0.2800
  160MOL0     C21467   5.349   1.248   8.845 -0.4311 -0.0393 -0.1596
  160MOL0     O21468   5.368   1.233   8.976 -0.0656 -0.2461 -0.2730
  160MOL0     C21469   5.408   1.336   9.048  0.3544  0.2996 -0.8158
  160MOL0     C21470   5.530   1.396   9.032 -0.6318 -0.2299  0.3221
  160MOL0     C21471   5.566   1.502   9.111  0.6437  0.3619 -0.2823
  160MOL0     C21472   5.477   1.551   9.201  1.0341 -0.3437 -0.3032
  160MOL0     O21473   5.528   1.654   9.284 -0.7148  0.1696  0.2177
  160MOL0     C21474   5.426   1.737   9.347 -0.0115  0.2497 -0.2486
  160MOL0     C21475   5.488   1.858   9.406  0.9336  0.3271  0.0282
  160MOL0     C21476   5.537   1.854   9.553 -0.9330  0.0456 -0.2977
  160MOL0     C21477   5.425   1.807   9.649 -1.0108 -0.4893  0.4698
  160MOL0     C21478   5.476   1.836   9.793 -0.0798  0.7802 -0.2240
  160MOL0     C21479   5.357   1.789   9.889  0.9443  1.5965 -0.1475
  160MOL0     C21480   5.363   1.824  10.035 -0.0907  0.3259 -0.4719
  160MOL0     C21481   5.501   1.804  10.095 -0.0289 -0.7381 -0.3309
  160MOL0     N21482   5.489   1.840  10.239  1.4605 -0.5464 -0.0518
  160MOL0     C21483   5.476   1.963  10.293  0.5476 -0.1278  0.2996
  160MOL0     C21484   5.389   1.946  10.399  0.3067 -0.7648  0.0105
  160MOL0     C21485   5.337   2.066  10.472 -0.2739 -0.2902  0.6794
  160MOL0     C21486   5.424   2.096  10.601  0.3715  1.1163 -0.5696
  160MOL0     C21487   5.409   1.984  10.704 -0.8987  0.4160 -0.9335
  160MOL0     C21488   5.476   2.029  10.834  0.9493  0.3393 -0.6559
  160MOL0     O21489   5.615   2.026  10.801  0.7601 -0.5183  0.7163
  160MOL0     C21490   5.696   1.994  10.905  0.3304  1.3861  0.7184
  160MOL0     C21491   5.767   1.879  10.890 -0.4348  0.7422  0.4336
  160MOL0     C21492   5.863   1.838  10.985 -0.1367 -0.6170 -0.1529
  160MOL0     C21493   5.934   1.707  10.962 -0.6173  0.3917  0.1483
  160MOL0     C21494   5.903   1.926  11.089  0.1627  0.4627 -0.4952
  160MOL0     C21495   6.013   1.899  11.187  0.4050  0.2264  0.8977
  160MOL0     O21496   6.081   1.782  11.185  0.7764  0.1757  0.7535
  160MOL0     C21497   6.205   1.767  11.233  0.3715 -0.3236 -0.4507
  160MOL0     C21498   6.230   1.650  11.299  0.1248 -0.4532  0.5014
  160MOL0     C21499   6.360   1.621  11.338  0.6702  0.1962  0.1466
  160MOL0     C21500   6.472   1.706  11.305 -0.1011  0.7127 -0.7886
  160MOL0     O21501   6.603   1.659  11.320  0.0019 -0.1311  0.1684
  160MOL0     C21502   6.654   1.611  11.190 -0.8325 -0.0205 -0.1585
  160MOL0     C21503   6.783   1.683  11.156 -0.5698  0.2196  0.0323
  160MOL0     C21504   6.909   1.624  11.241  0.7739 -0.6379 -0.4699
  160MOL0     C21505   7.033   1.696  11.188 -0.5934  0.0253  0.2569
  160MOL0     C21506   7.171   1.660  11.260  0.2316  0.5979  0.3866
  160MOL0     C21507   7.204   1.505  11.240  0.2826 -0.1911  0.6282
  160MOL0     C21508   7.344   1.484  11.276  0.1700 -0.5968  0.3850
  160MOL0     C21509   7.410   1.412  11.164  0.2637 -0.0327  0.2203
  160MOL0    Cl21510   7.356   1.236  11.144  0.0224 -0.0619 -0.0637
  160MOL0     C21511   6.444   1.828  11.235 -0.0692  0.0608 -0.1572
  160MOL0     C21512   6.317   1.847  11.200  0.6191  0.2325 -0.0849
  160MOL0     O21513   6.028   1.990  11.265 -0.1293  0.1984  0.1175
  160MOL0     C21514   5.825   2.048  11.096  0.3105 -0.1999 -0.9662
  160MOL0     C21515   5.719   2.074  11.012 -0.1988  0.1996  0.0757
  160MOL0     N21516   5.373   1.813  10.417 -0.2587  0.7053  0.0676
  160MOL0     N21517   5.434   1.755  10.321  0.1596 -0.7387  0.6649
  160MOL0     C21518   5.358   1.484   9.228 -0.3956  0.0708  0.5249
  160MOL0     C21519   5.324   1.374   9.151 -0.2100 -0.6789 -0.6037
  160MOL0     C21520   5.330   1.121   8.778 -0.0018  0.5815 -0.3545
  160MOL0     C21521   5.290   1.125   8.647 -0.4820 -0.3492 -0.4276
  160MOL0     C21522   5.266   1.005   8.567  0.1097  0.5834 -0.0629
  160MOL0     C21523   5.287   0.887   8.632  0.3120  0.3469 -0.6495
  160MOL0     O21524   5.266   0.761   8.569 -0.4672 -0.2963 -0.1047
  160MOL0     C21525   5.300   0.759   8.423  0.7442  0.9383 -0.6385
  160MOL0     C21526   5.448   0.766   8.367 -0.3632  0.6801  0.8030
  160MOL0     C21527   5.551   0.716   8.465  0.1974 -0.4612  0.2210
  160MOL0     C21528   5.698   0.714   8.409  0.2234 -0.9505 -0.4924
  160MOL0     C21529   5.783   0.606   8.447 -0.5700  0.2976  0.9064
  160MOL0     C21530   5.849   0.514   8.478 -1.0710  0.2322 -0.4522
  160MOL0     C21531   5.316   0.877   8.765 -0.3415 -0.8274 -0.4160
  160MOL0     C21532   5.338   0.998   8.838 -0.6435 -0.3094 -1.3946
  160MOL0     H21533   5.606   1.372   8.958  0.3516  0.1417  1.1826
  160MOL0     H21534   5.669   1.532   9.094  0.1825  0.6756 -2.9276
  160MOL0     H21535   5.358   1.761   9.265  0.0383  0.3233 -0.2690
  160MOL0     H21536   5.378   1.670   9.419 -0.3746 -0.7591 -1.3981
  160MOL0     H21537   5.574   1.875   9.341 -0.8015  0.2036 -2.4259
  160MOL0     H21538   5.420   1.942   9.387  0.0279 -0.9411 -2.7711
  160MOL0     H21539   5.615   1.780   9.572 -1.4111 -0.0768  1.3949
  160MOL0     H21540   5.573   1.957   9.562  2.2443 -1.0433  0.6866
  160MOL0     H21541   5.332   1.864   9.633 -2.1197 -2.3819 -0.0903
  160MOL0     H21542   5.413   1.700   9.630 -1.5627 -0.4675  0.6838
  160MOL0     H21543   5.571   1.785   9.809 -0.8384 -0.8993 -0.8709
  160MOL0     H21544   5.497   1.943   9.807 -0.5073  0.7900  0.3860
  160MOL0     H21545   5.267   1.850   9.875  1.3139  3.0300  2.8919
  160MOL0     H21546   5.351   1.680   9.875  2.4939  1.3626  0.7840
  160MOL0     H21547   5.338   1.928  10.057 -1.5742  0.0338 -0.7112
  160MOL0     H21548   5.292   1.766  10.095 -2.1322  2.2208 -0.9276
  160MOL0     H21549   5.578   1.868  10.052 -0.0242  0.2427  1.0791
  160MOL0     H21550   5.519   1.697  10.082 -0.2880 -0.8803  0.3850
  160MOL0     H21551   5.508   2.059  10.254  1.5629 -0.0706  1.2435
  160MOL0     H21552   5.364   2.148  10.405  1.7961  0.8104  2.7092
  160MOL0     H21553   5.231   2.060  10.497 -0.2771 -0.2892  0.6670
  160MOL0     H21554   5.393   2.189  10.650  3.7614  1.2981  1.5907
  160MOL0     H21555   5.526   2.111  10.565  0.7488 -0.0526 -0.0251
  160MOL0     H21556   5.451   1.892  10.662  1.0166  0.9191 -0.2628
  160MOL0     H21557   5.303   1.961  10.715  0.1145 -3.9670  2.0798
  160MOL0     H21558   5.448   1.967  10.920 -0.9084  1.5285 -0.3309
  160MOL0     H21559   5.444   2.132  10.855  2.5283  0.9405 -1.0479
  160MOL0     H21560   5.749   1.807  10.811  0.2891 -0.4954  1.3469
  160MOL0     H21561   5.901   1.648  11.049 -1.1207 -0.3579 -0.5399
  160MOL0     H21562   5.909   1.668  10.863 -1.2151  3.1507 -0.8646
  160MOL0     H21563   6.039   1.735  10.959 -0.9067  1.4029 -0.8610
  160MOL0     H21564   6.149   1.585  11.329 -1.1401 -0.1243 -1.9254
  160MOL0     H21565   6.374   1.522  11.380  3.5989 -0.1389 -1.4045
  160MOL0     H21566   6.677   1.504  11.204 -3.6667 -0.7687 -0.6132
  160MOL0     H21567   6.590   1.629  11.104 -1.2920 -0.8130  0.0017
  160MOL0     H21568   6.820   1.674  11.053 -5.5858 -0.4566 -1.9611
  160MOL0     H21569   6.784   1.790  11.180  2.2508  0.2781  0.0598
  160MOL0     H21570   6.910   1.515  11.227 -1.8355 -1.7958  5.5529
  160MOL0     H21571   6.901   1.632  11.349  2.9966  1.4281 -0.3711
  160MOL0     H21572   7.053   1.675  11.083 -0.2874 -1.4678  0.5900
  160MOL0     H21573   7.026   1.806  11.190  1.2582  0.2311 -1.3947
  160MOL0     H21574   7.172   1.686  11.366 -0.5858  0.6287  0.3918
  160MOL0     H21575   7.248   1.714  11.204 -0.4250  1.7004  0.5061
  160MOL0     H21576   7.136   1.445  11.302  3.2339 -2.1194  2.2490
  160MOL0     H21577   7.189   1.468  11.138 -0.7482  0.2893  0.5855
  160MOL0     H21578   7.330   1.440  11.376 -2.3101  3.1915  1.9532
  160MOL0     H21579   7.382   1.586  11.289 -1.3760  0.1535 -0.6863
  160MOL0     H21580   7.519   1.408  11.176  0.3191 -1.0889 -0.4920
  160MOL0     H21581   7.391   1.467  11.071 -2.2991 -1.2283 -0.0330
  160MOL0     H21582   6.520   1.903  11.214  1.6319 -1.7145 -0.6353
  160MOL0     H21583   6.293   1.933  11.138 -1.6680 -0.3849 -0.1563
  160MOL0     H21584   5.859   2.124  11.165  0.5980  2.0507 -3.4438
  160MOL0     H21585   5.667   2.169  11.003  0.3981  0.7895  2.2920
  160MOL0     H21586   5.285   1.515   9.302 -3.7315  0.2525 -2.5591
  160MOL0     H21587   5.234   1.316   9.171  1.5505 -2.9820  1.2326
  160MOL0     H21588   5.254   1.222   8.614  4.3578  1.3130 -1.7138
  160MOL0     H21589   5.230   1.003   8.465  0.9024 -0.6355 -0.3415
  160MOL0     H21590   5.270   0.656   8.401  1.9088 -0.7376  4.2760
  160MOL0     H21591   5.229   0.834   8.386 -1.2477 -0.7847 -0.4910
  160MOL0     H21592   5.468   0.870   8.338  1.7724  0.6014  1.7604
  160MOL0     H21593   5.446   0.706   8.276  1.2884  0.0378  1.1559
  160MOL0     H21594   5.509   0.618   8.493  0.1983 -0.0487  1.7875
  160MOL0     H21595   5.546   0.776   8.557 -2.6320  1.4009 -1.0110
  160MOL0     H21596   5.728   0.814   8.443 -5.6743  1.4383 -1.2325
  160MOL0     H21597   5.693   0.716   8.300 -1.7313 -2.3990 -0.4688
  160MOL0     H21598   5.893   0.421   8.508 -1.4338  0.7511  1.8983
  160MOL0     H21599   5.312   0.779   8.812 -0.8609  0.2477  1.9592
  160MOL0     H21600   5.361   0.991   8.944  1.6507  0.0383 -1.8051
  161MOL0     O21601   8.460   3.748   7.520 -0.5352 -0.2338  0.1533
  161MOL0     C21602   8.565   3.750   7.465  0.5629 -0.3999 -0.4870
  161MOL0     O21603   8.660   3.662   7.487 -0.1615 -0.5780  0.2888
  161MOL0     C21604   8.659   3.563   7.584  0.0614  0.6657 -0.2378
  161MOL0     C21605   8.701   3.585   7.713  0.6064 -0.2751 -0.3009
  161MOL0     C21606   8.710   3.474   7.807  0.0479 -0.6708  0.9493
  161MOL0     C21607   8.670   3.337   7.771  0.4416 -0.0599 -0.2208
  161MOL0     O21608   8.693   3.230   7.854  0.8922 -0.3573  0.1305
  161MOL0     C21609   8.586   3.222   7.947  0.5984  0.8421  0.3537
  161MOL0     C21610   8.573   3.071   7.985 -0.1558 -0.5519  0.1185
  161MOL0     C21611   8.456   3.045   8.089 -1.2524 -0.3332  0.1866
  161MOL0     C21612   8.449   2.901   8.145  0.1047 -0.3401 -0.2099
  161MOL0     C21613   8.346   2.887   8.250  0.1390 -0.7295  0.0911
  161MOL0     C21614   8.269   2.753   8.261  0.2194  0.1062 -0.2270
  161MOL0     C21615   8.354   2.623   8.272 -0.5254 -0.4067 -0.4434
  161MOL0     C21616   8.462   2.634   8.383 -0.1845  0.5980 -0.4012
  161MOL0     N21617   8.536   2.506   8.397 -0.3764  0.0836 -0.5763
  161MOL0     C21618   8.576   2.426   8.291 -0.1936 -0.6032  0.0888
  161MOL0     C21619   8.653   2.333   8.345 -1.0603  0.6807 -0.1374
  161MOL0     C21620   8.731   2.223   8.280  0.6230 -1.0501  1.0068
  161MOL0     C21621   8.638   2.127   8.210 -0.5745  0.6711 -0.5361
  161MOL0     C21622   8.703   1.991   8.181  0.6098 -0.4943 -0.1140
  161MOL0     C21623   8.611   1.908   8.095  0.6218  0.6331 -0.0570
  161MOL0     O21624   8.485   1.880   8.164  0.0341 -0.2513 -0.5856
  161MOL0     C21625   8.490   1.804   8.282  0.0016  0.8552  0.2424
  161MOL0     C21626   8.579   1.698   8.299 -0.2249  0.5429  0.4605
  161MOL0     C21627   8.589   1.619   8.417 -0.0277 -0.8554  1.3661
  161MOL0     C21628   8.685   1.505   8.421  0.2349  0.6450 -0.2077
  161MOL0     C21629   8.510   1.658   8.525  0.3867 -1.5919  0.6503
  161MOL0     C21630   8.503   1.597   8.656 -0.0717 -1.0387  0.1649
  161MOL0     O21631   8.527   1.470   8.673  0.4047  0.7239 -0.0844
  161MOL0     C21632   8.487   1.400   8.786  0.1144 -0.1698  1.0704
  161MOL0     C21633   8.563   1.292   8.816 -0.0041 -0.3518  0.2629
  161MOL0     C21634   8.539   1.208   8.925  0.2935 -0.1900  0.6665
  161MOL0     C21635   8.426   1.230   8.999  1.2033 -0.5744 -1.4974
  161MOL0     O21636   8.404   1.145   9.103  0.0466  0.1267  0.1626
  161MOL0     C21637   8.266   1.123   9.132  0.0390  0.4289  0.5024
  161MOL0     C21638   8.249   1.004   9.227 -0.1854  0.5770  0.4625
  161MOL0     C21639   8.291   0.864   9.178 -1.3937  0.3349  0.7818
  161MOL0     C21640   8.274   0.752   9.273 -0.3308 -0.8575 -0.8270
  161MOL0     C21641   8.336   0.615   9.233 -0.1666 -0.5212 -0.1762
  161MOL0     C21642   8.311   0.498   9.328  0.0644 -0.2515 -0.0036
  161MOL0     C21643   8.382   0.502   9.467  0.7216  0.2112  0.2308
  161MOL0     C21644   8.531   0.522   9.472  0.0839 -0.1645  0.2439
  161MOL0    Cl21645   8.574   0.537   9.645 -0.4790  0.4501  0.3622
  161MOL0     C21646   8.340   1.340   8.967 -0.8405 -0.3975 -0.9336
  161MOL0     C21647   8.378   1.428   8.859  0.4773  0.4873  0.0254
  161MOL0     O21648   8.470   1.672   8.746  0.0446  0.2640 -0.2906
  161MOL0     C21649   8.426   1.774   8.508 -0.4546 -0.4335  0.5673
  161MOL0     C21650   8.413   1.849   8.387 -0.4232  0.4237 -0.2330
  161MOL0     N21651   8.651   2.360   8.481 -1.2601  0.1901 -0.1793
  161MOL0     N21652   8.576   2.458   8.514  0.4437  0.4605  0.1030
  161MOL0     C21653   8.621   3.325   7.635 -0.9786 -0.0648  0.4711
  161MOL0     C21654   8.614   3.431   7.546  0.8212 -0.5976  0.0921
  161MOL0     C21655   8.575   3.848   7.347 -0.8540  0.6972 -0.3812
  161MOL0     C21656   8.641   3.819   7.225 -0.1080  0.7513 -0.5235
  161MOL0     C21657   8.652   3.914   7.119 -0.0081  0.7405  0.4917
  161MOL0     C21658   8.593   4.042   7.135  0.8217 -0.5480  0.2743
  161MOL0     O21659   8.618   4.149   7.050 -0.4281 -1.1191 -0.1954
  161MOL0     C21660   8.718   4.144   6.948 -0.3741  0.8789  0.3390
  161MOL0     C21661   8.709   4.280   6.884  0.0867  0.6459 -0.2774
  161MOL0     C21662   8.565   4.302   6.831  0.1108  0.2030  0.6141
  161MOL0     C21663   8.538   4.426   6.738 -0.5437 -0.0885  0.7380
  161MOL0     C21664   8.536   4.549   6.829 -0.3627  0.5761 -0.1528
  161MOL0     C21665   8.544   4.653   6.896 -0.4490  0.3365 -0.0856
  161MOL0     C21666   8.520   4.076   7.252  0.1092 -0.1412 -0.2453
  161MOL0     C21667   8.523   3.975   7.365  0.4676 -0.2842  0.4948
  161MOL0     H21668   8.728   3.689   7.728  2.0912 -0.1226 -3.3026
  161MOL0     H21669   8.762   3.471   7.902  2.6091 -2.1459 -0.4107
  161MOL0     H21670   8.610   3.274   8.041 -0.9890 -0.9136  1.8109
  161MOL0     H21671   8.495   3.265   7.905  1.4555  2.4928  0.1079
  161MOL0     H21672   8.539   3.011   7.900 -3.7017 -0.3189  1.2104
  161MOL0     H21673   8.663   3.031   8.032 -1.3758  0.0203  3.1460
  161MOL0     H21674   8.472   3.115   8.171 -0.4368  2.5266 -2.2129
  161MOL0     H21675   8.359   3.065   8.043 -0.1886 -1.7303 -3.0188
  161MOL0     H21676   8.421   2.827   8.070  0.5211 -0.2562 -0.4557
  161MOL0     H21677   8.551   2.876   8.177 -0.0964 -1.5333 -0.4641
  161MOL0     H21678   8.387   2.919   8.346  1.9250 -1.0686 -0.5171
  161MOL0     H21679   8.268   2.961   8.229  1.8582  1.3773  0.6763
  161MOL0     H21680   8.200   2.755   8.345  1.2228  0.3235  0.6221
  161MOL0     H21681   8.211   2.745   8.169 -0.1737 -1.0417  0.1103
  161MOL0     H21682   8.291   2.536   8.291 -0.0428 -0.2885  1.9913
  161MOL0     H21683   8.412   2.609   8.180  0.7853 -1.8091  0.5461
  161MOL0     H21684   8.432   2.662   8.485  4.8496  0.5025  1.4102
  161MOL0     H21685   8.542   2.699   8.346  3.1946 -2.8883  0.1155
  161MOL0     H21686   8.555   2.455   8.189  0.7916 -1.3323 -0.3382
  161MOL0     H21687   8.802   2.271   8.211  2.7683 -3.9001  1.0571
  161MOL0     H21688   8.788   2.173   8.358 -0.4544 -0.1067  2.4380
  161MOL0     H21689   8.607   2.172   8.115 -2.1932 -0.4117 -0.5580
  161MOL0     H21690   8.556   2.095   8.274  0.4006  1.2627  1.0946
  161MOL0     H21691   8.740   1.947   8.274  2.6132  0.7803 -0.2431
  161MOL0     H21692   8.791   1.991   8.116  0.2865 -1.9828 -0.5923
  161MOL0     H21693   8.664   1.817   8.065  1.8313  1.1991  0.3118
  161MOL0     H21694   8.576   1.962   8.006  0.2867 -0.1145 -0.3927
  161MOL0     H21695   8.648   1.660   8.225 -1.9968 -1.6689 -0.1730
  161MOL0     H21696   8.760   1.522   8.343  2.3690 -3.0890  0.7949
  161MOL0     H21697   8.739   1.495   8.515  1.0458  3.1415 -0.3399
  161MOL0     H21698   8.633   1.417   8.381  0.5684  0.7595 -0.9143
  161MOL0     H21699   8.648   1.257   8.759 -0.8670 -0.9891 -0.6831
  161MOL0     H21700   8.588   1.117   8.956 -1.4340 -1.1964  0.6085
  161MOL0     H21701   8.233   1.213   9.185 -1.7261  1.2872 -1.8812
  161MOL0     H21702   8.206   1.116   9.041 -0.6557  0.1179  0.9676
  161MOL0     H21703   8.304   1.033   9.317 -1.2618  1.2296  0.9214
  161MOL0     H21704   8.142   1.000   9.246 -0.3466  1.0082 -0.3075
  161MOL0     H21705   8.391   0.878   9.135 -1.1355  0.3216  1.3724
  161MOL0     H21706   8.231   0.839   9.090  1.8534 -1.8971 -0.9828
  161MOL0     H21707   8.316   0.784   9.369 -3.2251  3.1968 -0.6548
  161MOL0     H21708   8.169   0.721   9.283 -0.5670  0.2242  0.4428
  161MOL0     H21709   8.445   0.624   9.223  0.0415 -2.6048 -0.2720
  161MOL0     H21710   8.296   0.582   9.137  0.8901  0.8804 -1.1305
  161MOL0     H21711   8.202   0.505   9.336  0.1483  1.3102  0.0850
  161MOL0     H21712   8.324   0.397   9.288  2.0762 -0.8512  1.9412
  161MOL0     H21713   8.348   0.413   9.520  1.0617  1.5391  2.8345
  161MOL0     H21714   8.345   0.589   9.522  0.7403 -0.1334  0.7864
  161MOL0     H21715   8.558   0.613   9.417  1.0072 -0.1521  0.7004
  161MOL0     H21716   8.583   0.438   9.427  1.2616  0.4021  0.4992
  161MOL0     H21717   8.246   1.374   9.011  0.3431  1.9787 -0.0296
  161MOL0     H21718   8.306   1.504   8.831 -0.2251  0.0995  0.7516
  161MOL0     H21719   8.359   1.817   8.582  0.5556 -0.4763  1.5415
  161MOL0     H21720   8.351   1.936   8.369 -2.3189 -0.8688 -0.2263
  161MOL0     H21721   8.596   3.225   7.599  0.5189 -0.0588 -0.6574
  161MOL0     H21722   8.603   3.408   7.441  0.7901 -0.4459  0.0618
  161MOL0     H21723   8.683   3.719   7.218  1.2247  1.1612  0.9455
  161MOL0     H21724   8.725   3.896   7.040 -0.9222 -1.5343  0.0893
  161MOL0     H21725   8.814   4.134   6.999  0.0084  1.9777 -0.1242
  161MOL0     H21726   8.705   4.067   6.872 -5.0885  1.8998 -0.1659
  161MOL0     H21727   8.777   4.270   6.799 -0.5844 -0.8778 -0.6654
  161MOL0     H21728   8.754   4.358   6.946 -2.6159  1.1711  1.1738
  161MOL0     H21729   8.494   4.312   6.914  0.3064  5.2498  0.5088
  161MOL0     H21730   8.538   4.214   6.772 -1.2731 -0.3624  2.0225
  161MOL0     H21731   8.436   4.417   6.698 -0.8964  2.4124  0.9127
  161MOL0     H21732   8.606   4.440   6.655 -0.5013 -1.6353  0.4905
  161MOL0     H21733   8.549   4.744   6.953  0.9475  2.4185 -3.2428
  161MOL0     H21734   8.483   4.178   7.248  3.8118  1.2856 -1.3135
  161MOL0     H21735   8.462   4.001   7.451  0.1865 -0.8441  0.4634
  162MOL0     O21736   4.548   6.788   2.839 -0.1537  0.3207 -0.7593
  162MOL0     C21737   4.436   6.733   2.856  0.3667  0.1134  0.6114
  162MOL0     O21738   4.317   6.774   2.802  0.2687 -0.4827  0.0955
  162MOL0     C21739   4.329   6.881   2.713  0.8726 -0.3309  0.6014
  162MOL0     C21740   4.374   7.004   2.742  0.0044 -0.8083  0.3073
  162MOL0     C21741   4.356   7.110   2.652  0.2488 -0.2223  0.2049
  162MOL0     C21742   4.277   7.095   2.536  0.4397 -1.0995  0.4331
  162MOL0     O21743   4.230   7.206   2.476 -0.3170 -0.9540 -0.4685
  162MOL0     C21744   4.098   7.235   2.517 -0.5650 -0.2481 -0.0725
  162MOL0     C21745   4.102   7.385   2.561  0.6755 -0.6673  0.2014
  162MOL0     C21746   3.964   7.451   2.589  0.4705  0.5237  0.3615
  162MOL0     C21747   3.883   7.475   2.467  0.3677  0.2021 -0.0258
  162MOL0     C21748   3.744   7.525   2.502 -0.4376 -0.2744 -0.1454
  162MOL0     C21749   3.733   7.671   2.557  0.6556  0.6521 -1.1672
  162MOL0     C21750   3.773   7.790   2.484  0.0250 -1.1491 -1.9889
  162MOL0     C21751   3.767   7.920   2.569 -0.7006  0.0863  0.6817
  162MOL0     N21752   3.828   8.042   2.506  1.3883 -0.6826  0.1473
  162MOL0     C21753   3.813   8.165   2.565 -0.3221 -0.1695  0.0283
  162MOL0     C21754   3.856   8.256   2.465  1.1433  0.5877  0.6042
  162MOL0     C21755   3.861   8.402   2.462 -0.9767 -1.3517  0.1214
  162MOL0     C21756   3.957   8.456   2.560 -0.6699  0.1637 -1.2242
  162MOL0     C21757   3.980   8.609   2.563 -0.7920 -0.1935 -0.1232
  162MOL0     C21758   3.851   8.677   2.592 -0.0108  0.0869  0.5078
  162MOL0     O21759   3.799   8.661   2.731  0.2803  0.3934  0.5992
  162MOL0     C21760   3.700   8.744   2.761 -0.1496  0.0062 -0.6376
  162MOL0     C21761   3.581   8.762   2.687 -0.0978 -0.2250 -0.6271
  162MOL0     C21762   3.476   8.835   2.745 -0.4565 -0.1937  0.7125
  162MOL0     C21763   3.358   8.864   2.658  0.7826 -0.9440  0.4847
  162MOL0     C21764   3.490   8.898   2.868 -0.4918 -0.3956 -1.0637
  162MOL0     C21765   3.386   8.978   2.928  0.4462 -1.3121 -0.1315
  162MOL0     O21766   3.436   9.104   2.956 -0.5654  0.0183 -0.6540
  162MOL0     C21767   3.353   9.210   2.988 -0.3534 -0.2884  0.3897
  162MOL0     C21768   3.331   9.310   2.904 -0.5421 -0.0969  0.3398
  162MOL0     C21769   3.242   9.415   2.937  0.2437 -0.1345 -0.6416
  162MOL0     C21770   3.176   9.413   3.061  0.1386  0.5613 -0.2588
  162MOL0     O21771   3.089   9.509   3.099  0.1505  0.4271  0.0273
  162MOL0     C21772   3.126   9.600   3.203 -0.4687 -0.1869 -0.2500
  162MOL0     C21773   3.119   9.748   3.149 -0.1590 -0.0161 -0.3188
  162MOL0     C21774   3.248   9.796   3.069  0.4468 -0.4667  0.2462
  162MOL0     C21775   3.224   9.938   3.018 -0.4730  0.0415 -0.1817
  162MOL0     C21776   3.310   9.991   2.908  0.6098 -0.2003 -0.1016
  162MOL0     C21777   3.462   9.984   2.951  0.4719  0.0746 -0.0564
  162MOL0     C21778   3.531  10.113   2.917  0.1280 -0.5303 -0.7404
  162MOL0     C21779   3.657  10.125   3.007  0.3054 -0.4413 -0.3849
  162MOL0    Cl21780   3.786  10.057   2.907 -0.3954 -0.7699 -0.1545
  162MOL0     C21781   3.205   9.310   3.151  0.2868 -0.2607 -0.4165
  162MOL0     C21782   3.284   9.198   3.113 -0.5488 -0.1264  0.5631
  162MOL0     O21783   3.263   8.948   2.920 -0.6509  0.3751  0.5336
  162MOL0     C21784   3.604   8.874   2.941 -0.8408  0.1131  0.2626
  162MOL0     C21785   3.712   8.794   2.888  0.6969 -0.9789  0.2649
  162MOL0     N21786   3.896   8.178   2.363  0.4222 -0.1664  0.8460
  162MOL0     N21787   3.873   8.049   2.381  0.5165 -0.5290  0.4424
  162MOL0     C21788   4.251   6.971   2.493 -0.4245  0.6909 -0.8644
  162MOL0     C21789   4.278   6.860   2.582  0.5124  0.7451  1.1524
  162MOL0     C21790   4.431   6.601   2.944  0.9538 -0.6340  0.2035
  162MOL0     C21791   4.542   6.556   3.019  0.5930 -0.0450  0.5569
  162MOL0     C21792   4.542   6.440   3.091 -0.5842 -0.7259  0.2229
  162MOL0     C21793   4.436   6.357   3.086 -0.0887 -0.2747  0.4291
  162MOL0     O21794   4.448   6.240   3.142 -0.4292  0.8902  0.5341
  162MOL0     C21795   4.424   6.251   3.281  0.3555  0.3074 -0.5049
  162MOL0     C21796   4.407   6.114   3.344 -0.6610 -0.0768  0.2406
  162MOL0     C21797   4.427   6.118   3.491  0.3178  0.5190 -0.6030
  162MOL0     C21798   4.405   5.984   3.567 -0.0306  0.4430  1.0101
  162MOL0     C21799   4.265   5.950   3.571  0.9014 -0.8632  0.7010
  162MOL0     C21800   4.148   5.912   3.592 -0.6079 -0.1755  0.1415
  162MOL0     C21801   4.326   6.394   3.016 -0.0963  0.9187  0.1187
  162MOL0     C21802   4.324   6.515   2.941 -0.6618 -0.2819  1.2873
  162MOL0     H21803   4.418   7.032   2.837  1.8000 -2.3517 -0.0162
  162MOL0     H21804   4.395   7.207   2.682  0.8467 -0.5941  0.6403
  162MOL0     H21805   4.041   7.232   2.423  0.0344  2.1549 -0.5910
  162MOL0     H21806   4.050   7.167   2.588  0.3155  1.1205  1.9394
  162MOL0     H21807   4.156   7.405   2.654 -0.1909 -0.3473  0.6481
  162MOL0     H21808   4.162   7.437   2.486 -1.0970 -0.3605 -1.0499
  162MOL0     H21809   3.901   7.396   2.660  1.5891 -0.3067  0.7439
  162MOL0     H21810   3.989   7.550   2.629 -1.1584  0.7217  0.9686
  162MOL0     H21811   3.927   7.552   2.403  1.0375  1.2453  1.6265
  162MOL0     H21812   3.867   7.385   2.408 -0.8149 -0.0017  0.5750
  162MOL0     H21813   3.694   7.534   2.405 -0.2199  0.2476 -0.2100
  162MOL0     H21814   3.692   7.458   2.571 -1.1069 -0.6812 -1.0149
  162MOL0     H21815   3.628   7.689   2.581  0.4920 -1.6633  0.1701
  162MOL0     H21816   3.789   7.661   2.650  0.5595 -2.1426 -1.3120
  162MOL0     H21817   3.876   7.787   2.449  0.4318  0.2344 -1.0022
  162MOL0     H21818   3.722   7.797   2.387 -0.0910  1.3014 -1.8238
  162MOL0     H21819   3.832   7.914   2.657  2.2484  0.2999 -1.3301
  162MOL0     H21820   3.662   7.937   2.593 -1.6292 -2.1674 -1.3122
  162MOL0     H21821   3.773   8.199   2.660  1.3559  0.0777  0.6934
  162MOL0     H21822   3.885   8.447   2.364  1.4006 -2.9609 -0.1262
  162MOL0     H21823   3.768   8.445   2.499 -0.9678 -0.4126 -0.8664
  162MOL0     H21824   4.057   8.417   2.540 -0.1789  0.8744 -0.2915
  162MOL0     H21825   3.923   8.416   2.656  1.6369 -1.3029 -0.9186
  162MOL0     H21826   4.020   8.648   2.468 -1.0473  1.4870  0.4210
  162MOL0     H21827   4.058   8.629   2.637  1.6010 -0.1684 -2.4609
  162MOL0     H21828   3.774   8.638   2.526  2.8706 -0.1894 -2.9854
  162MOL0     H21829   3.855   8.784   2.570 -0.1137  0.0395  0.2615
  162MOL0     H21830   3.570   8.734   2.583  1.0185  1.2710 -1.1906
  162MOL0     H21831   3.357   8.806   2.565 -5.2836 -1.2201  0.2676
  162MOL0     H21832   3.262   8.835   2.702  0.4031 -2.1734 -1.0454
  162MOL0     H21833   3.363   8.970   2.631 -2.8953 -1.3721 -2.8532
  162MOL0     H21834   3.375   9.317   2.805 -2.8510 -2.6090 -0.9731
  162MOL0     H21835   3.204   9.484   2.863 -1.1324  0.6613  0.7408
  162MOL0     H21836   3.049   9.577   3.277  1.0006 -1.0808  1.0662
  162MOL0     H21837   3.218   9.593   3.262 -1.6105 -1.1115  1.5129
  162MOL0     H21838   3.030   9.750   3.085 -2.3388  0.6554  2.5392
  162MOL0     H21839   3.104   9.813   3.236 -3.0796 -1.2131  0.2171
  162MOL0     H21840   3.257   9.732   2.981  0.3949 -0.6347  0.3625
  162MOL0     H21841   3.334   9.799   3.137  0.4051  0.7093  0.2748
  162MOL0     H21842   3.123   9.932   2.977 -1.7047  1.8631  2.3404
  162MOL0     H21843   3.232  10.004   3.105  0.6510 -2.1034  1.4572
  162MOL0     H21844   3.273  10.091   2.884 -0.0987 -0.3024  0.5330
  162MOL0     H21845   3.296   9.939   2.813  4.3161 -2.4767  0.3957
  162MOL0     H21846   3.466   9.970   3.060  2.6947  1.1134  0.0468
  162MOL0     H21847   3.503   9.894   2.903 -1.8378 -0.6248 -0.8348
  162MOL0     H21848   3.462  10.196   2.928  0.2857 -0.5692  0.8272
  162MOL0     H21849   3.558  10.110   2.811  0.9641 -3.3443 -0.5548
  162MOL0     H21850   3.637  10.062   3.094 -0.7059 -1.6236 -1.4392
  162MOL0     H21851   3.676  10.227   3.041 -5.1890 -0.2541  3.4434
  162MOL0     H21852   3.168   9.317   3.253  4.3254 -1.4630  1.3297
  162MOL0     H21853   3.307   9.117   3.181  1.4866  1.3596  1.7861
  162MOL0     H21854   3.627   8.918   3.038 -1.9591 -0.5721  0.8573
  162MOL0     H21855   3.793   8.782   2.959  1.4664  0.0762 -0.3957
  162MOL0     H21856   4.195   6.955   2.401 -2.5829  0.8287  0.3478
  162MOL0     H21857   4.263   6.758   2.547 -2.9940  1.4484  0.2283
  162MOL0     H21858   4.634   6.613   3.030  1.2329 -0.7757 -0.7217
  162MOL0     H21859   4.633   6.414   3.144  0.5578  2.3805 -0.0242
  162MOL0     H21860   4.512   6.298   3.327  0.1683 -0.3808  0.5843
  162MOL0     H21861   4.331   6.304   3.301 -0.8118 -0.7600 -2.7448
  162MOL0     H21862   4.481   6.045   3.302 -0.2989  0.2719  0.2990
  162MOL0     H21863   4.315   6.066   3.311 -1.0254  1.0811 -0.5083
  162MOL0     H21864   4.364   6.198   3.530 -2.0524 -1.6690  0.4136
  162MOL0     H21865   4.529   6.151   3.514  0.6517 -0.3414 -0.7933
  162MOL0     H21866   4.431   5.998   3.672  0.5327 -1.6548  1.1907
  162MOL0     H21867   4.454   5.892   3.534 -1.8625 -1.3701  2.9838
  162MOL0     H21868   4.048   5.876   3.600 -0.6385  0.1107  1.2328
  162MOL0     H21869   4.237   6.332   3.017 -0.4045  1.3679  0.7375
  162MOL0     H21870   4.236   6.554   2.891  0.6375 -1.3160 -2.0926
  163MOL0     O21871  10.292   9.635   9.189  0.1955  0.1010 -1.2213
  163MOL0     C21872  10.190   9.598   9.134 -0.3580  0.4497 -0.0831
  163MOL0     O21873  10.180   9.492   9.050 -0.2277  0.9812  0.1406
  163MOL0     C21874  10.290   9.431   9.006 -0.0609  0.6327  0.7356
  163MOL0     C21875  10.270   9.300   8.958  0.4759 -1.2191 -0.3005
  163MOL0     C21876  10.371   9.234   8.901  0.8521  0.5261  0.5062
  163MOL0     C21877  10.497   9.288   8.893 -0.3846 -0.5743 -0.2839
  163MOL0     O21878  10.603   9.228   8.841 -0.3212 -0.2023 -0.0010
  163MOL0     C21879  10.581   9.223   8.702  0.0995  0.6926 -0.2765
  163MOL0     C21880  10.704   9.157   8.629 -0.3055 -0.7197 -0.5035
  163MOL0     C21881  10.820   9.246   8.638 -1.1558  0.2178  0.0061
  163MOL0     C21882  10.959   9.180   8.617 -0.1025 -0.0746 -0.4349
  163MOL0     C21883  10.996   9.167   8.471  0.6377 -1.3806  0.3343
  163MOL0     C21884  11.148   9.125   8.455  0.3651  0.7350 -0.2782
  163MOL0     C21885  11.183   9.096   8.309  0.0646  0.1725 -0.6292
  163MOL0     C21886  11.295   9.183   8.266 -0.1932 -0.2385  0.7621
  163MOL0     N21887  11.332   9.141   8.125  1.0587 -0.2235  0.1106
  163MOL0     C21888  11.405   9.022   8.097 -0.5610 -1.0126  0.7814
  163MOL0     C21889  11.409   9.022   7.960  0.5394 -0.1690  0.2518
  163MOL0     C21890  11.508   8.929   7.882 -0.5251 -0.6556 -0.1328
  163MOL0     C21891  11.634   9.006   7.854 -0.8154 -0.4769  0.6753
  163MOL0     C21892  11.743   8.941   7.774  0.4239  0.3813  0.5988
  163MOL0     C21893  11.861   8.897   7.852 -0.2725  0.9967  0.0223
  163MOL0     O21894  11.810   8.806   7.950  0.1061  0.2578  0.3622
  163MOL0     C21895  11.864   8.693   7.993  1.1406  0.5900  0.3674
  163MOL0     C21896  11.993   8.666   7.961 -0.2190  0.7429  0.5918
  163MOL0     C21897  12.062   8.551   8.008 -0.4385  0.7322 -0.7085
  163MOL0     C21898  12.202   8.535   7.965  0.7751  0.7603 -0.4796
  163MOL0     C21899  11.987   8.464   8.087  0.9753 -0.3887  0.5242
  163MOL0     C21900  12.049   8.343   8.151  0.4396  0.6456  0.4703
  163MOL0     O21901  11.966   8.237   8.186 -0.3170 -0.0771  1.0347
  163MOL0     C21902  12.031   8.142   8.265  0.2028  0.0561  0.4354
  163MOL0     C21903  12.102   8.025   8.199  1.4961 -0.1670 -0.2786
  163MOL0     C21904  12.163   7.925   8.279  0.1722  1.0248 -0.2891
  163MOL0     C21905  12.146   7.931   8.419 -0.2178 -0.8837 -0.2236
  163MOL0     O21906  12.187   7.836   8.499 -0.5454 -0.0737 -0.1312
  163MOL0     C21907  12.238   7.717   8.439 -1.2179  0.9490 -0.2476
  163MOL0     C21908  12.254   7.617   8.558 -0.4809 -0.0609  0.4211
  163MOL0     C21909  12.320   7.486   8.517 -0.3675  0.2345  0.0008
  163MOL0     C21910  12.361   7.397   8.639 -1.1519 -0.8100  1.2923
  163MOL0     C21911  12.391   7.258   8.592  0.4066 -0.3631  0.0728
  163MOL0     C21912  12.514   7.238   8.508 -0.0037  0.0008  0.2487
  163MOL0     C21913  12.542   7.093   8.471 -1.5207  0.2816 -0.0374
  163MOL0     C21914  12.423   7.016   8.414 -0.7038 -0.3011  0.4774
  163MOL0    Cl21915  12.366   7.118   8.278  0.2279  0.6129  0.0085
  163MOL0     C21916  12.075   8.034   8.472  0.0753 -0.6860  0.7532
  163MOL0     C21917  12.035   8.149   8.397 -0.4786 -0.2128 -0.1017
  163MOL0     O21918  12.172   8.348   8.174 -0.8779 -0.2814  0.1278
  163MOL0     C21919  11.854   8.497   8.124 -0.4077 -0.2189 -0.2536
  163MOL0     C21920  11.790   8.608   8.079  0.0845  0.1953  0.1904
  163MOL0     N21921  11.345   9.139   7.909 -0.8018  0.4234  0.0792
  163MOL0     N21922  11.298   9.206   8.011 -0.6207  0.3934  0.0950
  163MOL0     C21923  10.519   9.414   8.932 -0.1126 -0.4734  0.1139
  163MOL0     C21924  10.415   9.488   8.985  0.3199 -0.5291  0.2686
  163MOL0     C21925  10.063   9.677   9.148 -0.7678  0.2812  0.6413
  163MOL0     C21926   9.941   9.613   9.161  0.3966 -0.6544  0.5424
  163MOL0     C21927   9.829   9.683   9.201  0.1174 -0.3179  0.5966
  163MOL0     C21928   9.830   9.822   9.216  0.3041 -0.9070  0.1123
  163MOL0     O21929   9.717   9.905   9.241 -0.2830  0.0904  0.0843
  163MOL0     C21930   9.585   9.855   9.253  1.0738 -0.5915 -0.6048
  163MOL0     C21931   9.496   9.945   9.344  0.4694  0.8237 -0.2118
  163MOL0     C21932   9.535  10.092   9.304  0.6743  0.4378  0.4490
  163MOL0     C21933   9.431  10.189   9.364 -0.1527 -0.4901 -0.6847
  163MOL0     C21934   9.502  10.316   9.372  0.4105 -0.7050 -0.9228
  163MOL0     C21935   9.545  10.433   9.394  0.3128 -0.6936 -0.2068
  163MOL0     C21936   9.954   9.888   9.186 -0.0590 -1.4434  0.3673
  163MOL0     C21937  10.067   9.818   9.149 -0.0373  0.5985 -0.3324
  163MOL0     H21938  10.172   9.253   8.947 -1.9014  3.6124 -3.5894
  163MOL0     H21939  10.352   9.143   8.846 -3.1374  1.2266  0.4283
  163MOL0     H21940  10.513   9.138   8.688  1.2794 -0.0437 -1.8017
  163MOL0     H21941  10.541   9.315   8.660  0.2064  0.1924 -1.5206
  163MOL0     H21942  10.738   9.062   8.672  1.3353  0.2605  0.4575
  163MOL0     H21943  10.683   9.142   8.523  0.8272  2.6523 -1.3144
  163MOL0     H21944  10.803   9.330   8.570  0.1127  3.4651  3.3460
  163MOL0     H21945  10.820   9.294   8.736 -1.0033  0.2267  0.0023
  163MOL0     H21946  11.034   9.246   8.662  0.4916  1.1526 -3.0494
  163MOL0     H21947  10.948   9.081   8.662  1.6175 -0.1455 -0.1100
  163MOL0     H21948  10.928   9.099   8.420 -1.7042  1.5303 -0.7586
  163MOL0     H21949  10.990   9.255   8.406 -1.2786  0.2670  2.5794
  163MOL0     H21950  11.205   9.208   8.496  0.0015  0.9461 -0.1954
  163MOL0     H21951  11.177   9.038   8.514 -3.1052 -1.6196 -1.6480
  163MOL0     H21952  11.199   8.990   8.287  0.5135  0.5276 -2.1632
  163MOL0     H21953  11.095   9.117   8.248 -1.3487  0.2829  1.3610
  163MOL0     H21954  11.384   9.166   8.328  1.3366  0.4333 -1.1524
  163MOL0     H21955  11.284   9.289   8.243  1.3631 -0.9342 -4.3729
  163MOL0     H21956  11.459   8.949   8.157  4.2432 -0.3189 -2.1687
  163MOL0     H21957  11.535   8.847   7.949 -1.5702 -0.5912  0.3952
  163MOL0     H21958  11.466   8.883   7.793  0.5856  0.0979 -1.0718
  163MOL0     H21959  11.682   9.035   7.948  0.0810 -1.8775  0.6740
  163MOL0     H21960  11.603   9.096   7.800  2.4514  1.0368  1.0676
  163MOL0     H21961  11.787   9.014   7.705 -0.6637 -0.7994 -1.4533
  163MOL0     H21962  11.703   8.876   7.696 -1.7272  0.5961  1.4453
  163MOL0     H21963  11.914   8.982   7.896  0.4895 -0.0399  1.1958
  163MOL0     H21964  11.927   8.848   7.779 -1.8221 -0.4751 -0.4360
  163MOL0     H21965  12.054   8.739   7.910  2.5465 -1.2234  0.8544
  163MOL0     H21966  12.266   8.551   8.052  1.5911 -1.4268 -0.6113
  163MOL0     H21967  12.224   8.429   7.944  0.7720  0.9688 -1.6231
  163MOL0     H21968  12.226   8.602   7.882 -0.4224  1.7171 -0.0761
  163MOL0     H21969  12.102   8.030   8.090  0.1408  1.5669 -0.2413
  163MOL0     H21970  12.213   7.840   8.236  3.1584  0.9275  2.9401
  163MOL0     H21971  12.165   7.677   8.368 -0.3242 -2.1430  0.3967
  163MOL0     H21972  12.336   7.741   8.397  0.1194 -3.0068  0.1711
  163MOL0     H21973  12.312   7.653   8.644 -0.2733  1.8324 -0.4669
  163MOL0     H21974  12.152   7.596   8.591 -0.4914  0.1886  0.5464
  163MOL0     H21975  12.391   7.500   8.435  0.5044 -0.7749  0.5539
  163MOL0     H21976  12.244   7.419   8.475 -1.9028 -0.3864  3.4387
  163MOL0     H21977  12.461   7.433   8.665 -2.2808  3.5709  0.3040
  163MOL0     H21978  12.294   7.393   8.725 -1.0198 -3.0592  1.3460
  163MOL0     H21979  12.308   7.214   8.536 -0.2653 -1.3012  1.7338
  163MOL0     H21980  12.399   7.209   8.690  1.5767  5.3097  3.2592
  163MOL0     H21981  12.517   7.300   8.418  1.3793 -0.1688  0.1574
  163MOL0     H21982  12.600   7.267   8.568  0.4603  2.5036 -1.4906
  163MOL0     H21983  12.596   7.050   8.555  0.3916  1.7901 -0.4056
  163MOL0     H21984  12.616   7.094   8.390 -0.4173 -1.5390  0.8919
  163MOL0     H21985  12.348   6.997   8.491  0.6064 -2.2073  1.3439
  163MOL0     H21986  12.457   6.917   8.381  0.6494  0.7126 -1.3536
  163MOL0     H21987  12.054   8.024   8.578  1.1931  1.6283  1.2555
  163MOL0     H21988  11.995   8.241   8.438 -0.0118  1.3622 -2.9666
  163MOL0     H21989  11.805   8.425   8.189 -1.1970 -3.1367 -3.7504
  163MOL0     H21990  11.694   8.638   8.120 -1.3093  2.1538 -4.0123
  163MOL0     H21991  10.618   9.457   8.916 -0.6195 -0.4101 -3.9788
  163MOL0     H21992  10.441   9.591   9.006 -1.2298  0.0037 -0.3015
  163MOL0     H21993   9.929   9.506   9.177 -3.8856 -0.0815  2.3490
  163MOL0     H21994   9.737   9.626   9.210  0.8164 -1.2573  2.2320
  163MOL0     H21995   9.545   9.875   9.153  0.9199  3.8300  0.1467
  163MOL0     H21996   9.586   9.751   9.285  1.0357 -0.1430  0.9508
  163MOL0     H21997   9.527   9.927   9.447  0.9490  1.4410 -0.2449
  163MOL0     H21998   9.387   9.938   9.334 -0.0770  3.0318  2.9052
  163MOL0     H21999   9.513  10.117   9.200  1.0088 -0.1372  0.2317
  163MOL0     H22000   9.636  10.117   9.340  1.6695 -1.3704 -0.8867
  163MOL0     H22001   9.400  10.156   9.463 -0.3073  0.3378 -0.4459
  163MOL0     H22002   9.343  10.193   9.299 -1.1279 -0.2272  0.6050
  163MOL0     H22003   9.569  10.535   9.418 -0.9548 -0.6068  0.7807
  163MOL0     H22004   9.949   9.997   9.180  1.3770 -1.3599  0.3376
  163MOL0     H22005  10.164   9.861   9.124  0.2227 -0.0592 -0.4959
  164MOL0     O22006   2.213   7.813   0.852 -0.4059 -0.5157 -0.1517
  164MOL0     C22007   2.200   7.697   0.844 -0.3281 -0.0454 -0.6532
  164MOL0     O22008   2.234   7.620   0.737  0.1172 -0.1979 -0.3387
  164MOL0     C22009   2.250   7.683   0.610  1.2196  0.7177 -0.5867
  164MOL0     C22010   2.193   7.623   0.502  0.0596  0.2787  1.0827
  164MOL0     C22011   2.213   7.683   0.370 -0.2616 -0.1073  0.2343
  164MOL0     C22012   2.317   7.780   0.357  0.5198 -0.1628 -0.4353
  164MOL0     O22013   2.346   7.854   0.246 -0.3402  0.1287  0.3979
  164MOL0     C22014   2.243   7.901   0.162 -0.4472  0.0938  0.4979
  164MOL0     C22015   2.302   7.973   0.041  0.7764  0.5023  0.3088
  164MOL0     C22016   2.184   8.009  -0.052 -0.5293  0.9593 -0.0762
  164MOL0     C22017   2.041   7.990  -0.001 -0.3230  0.2351 -0.0247
  164MOL0     C22018   1.958   8.047  -0.116  0.6135  1.0402  0.3500
  164MOL0     C22019   1.812   8.003  -0.102  0.6512  0.3474  0.2048
  164MOL0     C22020   1.724   8.060  -0.215  0.7257  1.0379 -0.5763
  164MOL0     C22021   1.737   7.987  -0.351  0.6343  0.2108 -0.1038
  164MOL0     N22022   1.630   8.033  -0.432 -0.1786 -1.1492  0.6851
  164MOL0     C22023   1.543   7.953  -0.497 -0.0346 -0.3358  0.7700
  164MOL0     C22024   1.473   8.042  -0.580  0.2207 -0.0212 -0.0126
  164MOL0     C22025   1.348   8.013  -0.655 -0.0187  0.2652 -0.3547
  164MOL0     C22026   1.364   7.885  -0.746 -0.4261 -0.3648  0.6931
  164MOL0     C22027   1.226   7.845  -0.802 -0.0933 -0.5270  0.6589
  164MOL0     C22028   1.231   7.741  -0.915  0.0014  0.4861  0.3598
  164MOL0     O22029   1.103   7.716  -0.975  0.6509  0.0980  0.4156
  164MOL0     C22030   1.080   7.623  -1.068  0.7029  0.3269 -0.6037
  164MOL0     C22031   1.180   7.543  -1.123 -0.7124  0.6530  0.0093
  164MOL0     C22032   1.152   7.442  -1.220 -0.1087 -0.2691  0.5025
  164MOL0     C22033   1.265   7.373  -1.282 -0.1362  0.3386  0.0526
  164MOL0     C22034   1.015   7.426  -1.260 -0.3779 -0.3053  0.0702
  164MOL0     C22035   0.973   7.310  -1.348  0.5331  0.2610  0.5788
  164MOL0     O22036   0.836   7.296  -1.347 -0.3490  0.3668 -0.3974
  164MOL0     C22037   0.787   7.179  -1.395  0.0239 -0.6767  0.0576
  164MOL0     C22038   0.807   7.067  -1.315  0.1540  0.3500  0.5343
  164MOL0     C22039   0.738   6.950  -1.344 -0.2629 -0.4352  0.2610
  164MOL0     C22040   0.650   6.941  -1.450 -0.0208  0.0388  0.5566
  164MOL0     O22041   0.576   6.828  -1.471  0.7848  0.4535  0.0714
  164MOL0     C22042   0.544   6.745  -1.363  0.3144  0.9701 -0.3031
  164MOL0     C22043   0.431   6.799  -1.286  0.2448  0.0790 -0.3223
  164MOL0     C22044   0.316   6.854  -1.366  0.1077  0.1943  0.1428
  164MOL0     C22045   0.217   6.932  -1.278  0.0086  0.1865  0.2242
  164MOL0     C22046   0.092   6.976  -1.363 -1.0222 -0.4300 -0.1946
  164MOL0     C22047   0.007   7.086  -1.288 -0.5775 -0.3814  0.6706
  164MOL0     C22048  -0.084   7.011  -1.193  0.3875 -0.3481  0.5722
  164MOL0     C22049  -0.161   7.095  -1.097  0.2663 -0.2702  0.5967
  164MOL0    Cl22050  -0.064   7.122  -0.944  0.1299 -0.0736 -0.0448
  164MOL0     C22051   0.636   7.054  -1.536  0.3524 -0.1086 -0.3553
  164MOL0     C22052   0.709   7.176  -1.505 -0.7779 -0.0052 -0.5594
  164MOL0     O22053   1.051   7.236  -1.410  0.4834 -0.2909  0.8616
  164MOL0     C22054   0.920   7.515  -1.204 -0.1681  0.6619  0.7423
  164MOL0     C22055   0.954   7.607  -1.107  0.8960 -0.1952 -0.4458
  164MOL0     N22056   1.523   8.169  -0.569 -0.1347  0.7257 -0.1389
  164MOL0     N22057   1.605   8.163  -0.461  0.5517 -0.4618  0.1158
  164MOL0     C22058   2.374   7.829   0.471  0.1772  0.0366 -0.1428
  164MOL0     C22059   2.351   7.775   0.595  0.9309 -0.9168  0.3245
  164MOL0     C22060   2.140   7.630   0.961  0.8511  0.2655 -0.3392
  164MOL0     C22061   2.088   7.692   1.075 -0.2048  0.4895  0.6443
  164MOL0     C22062   2.051   7.621   1.190  0.3973  0.0757  0.1072
  164MOL0     C22063   2.062   7.480   1.191 -0.3401  0.8030 -1.0159
  164MOL0     O22064   2.025   7.406   1.294  0.6317  0.1990  0.1851
  164MOL0     C22065   1.913   7.319   1.269  0.2676 -0.0002  0.4266
  164MOL0     C22066   1.934   7.164   1.277  0.2441 -0.1238 -0.5464
  164MOL0     C22067   1.811   7.080   1.301 -0.0443 -0.1450 -0.4280
  164MOL0     C22068   1.731   7.124   1.431  0.6490 -0.6707 -0.3236
  164MOL0     C22069   1.656   7.009   1.479  0.0506  0.0502  0.0634
  164MOL0     C22070   1.600   6.905   1.505  0.3006  0.0254 -0.8575
  164MOL0     C22071   2.098   7.417   1.073 -0.3220 -0.3056 -0.6459
  164MOL0     C22072   2.146   7.486   0.960 -1.0394  0.1332 -0.9873
  164MOL0     H22073   2.132   7.533   0.511  0.3733 -0.1042 -0.4311
  164MOL0     H22074   2.163   7.641   0.283  0.3723  3.0917 -1.8426
  164MOL0     H22075   2.203   7.808   0.120  2.4004 -0.4485 -1.2979
  164MOL0     H22076   2.168   7.950   0.225 -1.1776  0.2394 -0.4588
  164MOL0     H22077   2.355   8.066   0.065  0.1397  0.5321  1.7213
  164MOL0     H22078   2.379   7.908  -0.002  0.1985 -2.6360  3.4918
  164MOL0     H22079   2.198   8.105  -0.101  0.1852  0.2091 -1.3916
  164MOL0     H22080   2.195   7.942  -0.138  1.0502  1.0396  0.0348
  164MOL0     H22081   2.026   7.882   0.008  0.0422  0.1162 -0.7267
  164MOL0     H22082   2.019   8.034   0.096 -2.3308  0.1500 -0.3961
  164MOL0     H22083   1.957   8.157  -0.117 -2.9743  1.1043  0.0046
  164MOL0     H22084   2.005   8.016  -0.211 -0.9987 -1.9432  0.4118
  164MOL0     H22085   1.790   7.900  -0.076 -5.6079  1.7871  2.3089
  164MOL0     H22086   1.767   8.059  -0.019 -0.4869  2.0091 -1.4401
  164MOL0     H22087   1.623   8.059  -0.175  0.7080  4.3211 -0.2288
  164MOL0     H22088   1.752   8.165  -0.232  1.1846  0.6797 -2.2334
  164MOL0     H22089   1.725   7.880  -0.330 -0.5543  0.6411  1.6340
  164MOL0     H22090   1.834   8.012  -0.393  0.6917 -1.0246 -0.7569
  164MOL0     H22091   1.530   7.848  -0.474  0.2186 -0.8983 -1.4241
  164MOL0     H22092   1.263   7.985  -0.594 -1.0208 -1.6840 -2.4660
  164MOL0     H22093   1.314   8.095  -0.719  1.0981  1.1337  0.1292
  164MOL0     H22094   1.400   7.804  -0.683 -0.6638 -0.0827  1.1977
  164MOL0     H22095   1.439   7.913  -0.821  0.9695  0.2923  2.2494
  164MOL0     H22096   1.168   7.931  -0.835 -0.8191 -1.0126  0.6567
  164MOL0     H22097   1.164   7.805  -0.721 -1.8997 -1.0737 -0.9073
  164MOL0     H22098   1.272   7.652  -0.867 -0.6476  1.1461  2.2561
  164MOL0     H22099   1.305   7.764  -0.993 -0.5125 -3.3984 -1.4927
  164MOL0     H22100   1.280   7.561  -1.085  0.3393 -1.5916 -1.4508
  164MOL0     H22101   1.275   7.264  -1.273  1.9971  0.5374  0.5857
  164MOL0     H22102   1.273   7.399  -1.388  2.7781  0.3685  0.1885
  164MOL0     H22103   1.357   7.409  -1.237  0.1641  0.3213 -0.5304
  164MOL0     H22104   0.859   7.064  -1.219 -2.1470 -5.1190  2.0162
  164MOL0     H22105   0.770   6.862  -1.289  0.4893  1.1366  2.4841
  164MOL0     H22106   0.505   6.657  -1.415 -1.0022  0.2396  1.8003
  164MOL0     H22107   0.630   6.704  -1.309 -1.3354 -2.3600  0.0205
  164MOL0     H22108   0.386   6.718  -1.227  0.0356 -0.4698 -1.2100
  164MOL0     H22109   0.481   6.865  -1.215  4.1461 -2.5387 -0.2586
  164MOL0     H22110   0.272   6.760  -1.401 -0.0999  0.1275  0.5794
  164MOL0     H22111   0.336   6.905  -1.460  1.3805  0.4702  0.5380
  164MOL0     H22112   0.197   6.861  -1.198 -1.6633 -0.9165 -1.1170
  164MOL0     H22113   0.268   7.018  -1.233 -1.5853  0.8786  0.7766
  164MOL0     H22114   0.021   6.894  -1.377 -0.4851 -0.3755 -4.7948
  164MOL0     H22115   0.118   7.014  -1.462  1.1954 -2.0831 -0.3042
  164MOL0     H22116   0.070   7.155  -1.231  0.5755 -0.1163 -0.8557
  164MOL0     H22117  -0.048   7.149  -1.358  2.0828  0.6384 -0.6722
  164MOL0     H22118  -0.025   6.940  -1.135  1.0107  0.7650  1.3439
  164MOL0     H22119  -0.153   6.949  -1.252 -1.3739  1.1665  0.9409
  164MOL0     H22120  -0.251   7.036  -1.079 -2.0070  3.3527  2.2218
  164MOL0     H22121  -0.179   7.195  -1.138  1.1398  1.0966  3.3341
  164MOL0     H22122   0.579   7.041  -1.626  0.3267 -0.3859 -0.2997
  164MOL0     H22123   0.720   7.266  -1.565  1.4299 -0.1122 -0.3925
  164MOL0     H22124   0.815   7.497  -1.227  0.0377  0.0300  0.2597
  164MOL0     H22125   0.872   7.666  -1.066  0.6822 -0.4125 -0.5549
  164MOL0     H22126   2.443   7.912   0.456 -1.6284  1.8162  0.8875
  164MOL0     H22127   2.415   7.793   0.680 -0.4407  0.7091  1.0674
  164MOL0     H22128   2.083   7.801   1.070  0.8594  0.5066 -3.0030
  164MOL0     H22129   2.018   7.657   1.287 -4.7184 -3.7566  0.2568
  164MOL0     H22130   1.841   7.344   1.348  2.9800 -2.8940  4.2256
  164MOL0     H22131   1.866   7.334   1.172  2.4803 -0.4110 -0.7761
  164MOL0     H22132   2.012   7.139   1.350  0.2383  0.2121 -0.4226
  164MOL0     H22133   1.977   7.132   1.182  0.9823  0.5308 -0.4477
  164MOL0     H22134   1.852   6.980   1.316 -1.3081 -0.8036 -1.2410
  164MOL0     H22135   1.748   7.075   1.212  2.5700 -3.0821 -2.3309
  164MOL0     H22136   1.670   7.212   1.409 -1.6161 -2.5363 -2.0549
  164MOL0     H22137   1.797   7.157   1.512  1.1402 -0.8005 -0.6671
  164MOL0     H22138   1.563   6.809   1.535 -1.9075  1.1009  0.1463
  164MOL0     H22139   2.099   7.309   1.059 -0.1955 -0.3922  0.0231
  164MOL0     H22140   2.171   7.426   0.874  2.1122 -1.5796  0.9218
  165MOL0     O22141  10.061   2.884  10.851  0.3595  0.1050  0.0602
  165MOL0     C22142  10.029   2.757  10.855  0.2828 -0.0013 -0.2668
  165MOL0     O22143  10.074   2.656  10.772  0.0047 -0.3139 -0.6137
  165MOL0     C22144  10.166   2.700  10.674  0.3732 -0.6821 -0.3562
  165MOL0     C22145  10.288   2.633  10.649 -0.4789 -0.4838  0.7765
  165MOL0     C22146  10.379   2.668  10.550 -0.2053  0.2437 -0.4359
  165MOL0     C22147  10.356   2.783  10.466  0.1735 -0.2219 -0.1747
  165MOL0     O22148  10.449   2.828  10.382 -0.0078 -0.6880  0.0288
  165MOL0     C22149  10.574   2.754  10.354  0.6544 -0.5331 -0.7605
  165MOL0     C22150  10.612   2.791  10.207  0.9139 -2.2340 -0.2518
  165MOL0     C22151  10.728   2.713  10.168  0.1537 -0.4934 -0.2154
  165MOL0     C22152  10.779   2.766  10.034  0.4954 -0.5479 -1.5735
  165MOL0     C22153  10.880   2.666   9.967  0.3708  0.7835  0.4969
  165MOL0     C22154  11.012   2.673  10.040 -0.0903  0.4625 -1.3503
  165MOL0     C22155  11.092   2.800  10.019 -0.8202  0.2480  0.4310
  165MOL0     C22156  11.225   2.811  10.100  0.5857 -0.5661  1.0356
  165MOL0     N22157  11.223   2.797  10.248 -0.4927 -0.2573 -0.1916
  165MOL0     C22158  11.125   2.844  10.332 -0.1148  0.0670 -0.4876
  165MOL0     C22159  11.165   2.815  10.461 -0.0728  0.2041 -0.4809
  165MOL0     C22160  11.120   2.871  10.596 -0.2076 -0.1165 -0.6872
  165MOL0     C22161  11.243   2.898  10.698  0.3320  0.0793  0.0219
  165MOL0     C22162  11.375   2.967  10.649 -0.3724 -0.2429 -0.1459
  165MOL0     C22163  11.468   3.011  10.759 -0.4559  1.0156 -0.1898
  165MOL0     O22164  11.597   3.049  10.728 -0.4830  0.3525  0.1126
  165MOL0     C22165  11.675   3.054  10.839 -0.4321 -0.2266  1.0564
  165MOL0     C22166  11.730   3.175  10.877 -0.0970 -0.6117  0.9736
  165MOL0     C22167  11.824   3.189  10.990 -0.0807 -0.4755 -0.4285
  165MOL0     C22168  11.865   3.335  11.006 -0.1211  0.4986 -0.8311
  165MOL0     C22169  11.869   3.069  11.059  0.0664 -1.0752 -0.2642
  165MOL0     C22170  11.958   3.067  11.176 -0.3092  0.5166 -0.3955
  165MOL0     O22171  11.963   2.950  11.248  0.0306 -0.7601 -0.1048
  165MOL0     C22172  12.069   2.940  11.338 -0.3668 -0.1286  0.0314
  165MOL0     C22173  12.183   2.878  11.288 -0.0340 -0.0720 -0.0300
  165MOL0     C22174  12.296   2.865  11.362 -0.5807 -0.8501  0.4516
  165MOL0     C22175  12.300   2.896  11.490  0.1185  0.7659  0.6393
  165MOL0     O22176  12.421   2.861  11.552 -0.8757 -0.2815  0.0916
  165MOL0     C22177  12.431   2.882  11.690  0.1535  0.6929  0.0889
  165MOL0     C22178  12.564   2.821  11.738 -0.8131 -0.2960 -0.4929
  165MOL0     C22179  12.569   2.785  11.882 -0.1444  0.7050  0.3693
  165MOL0     C22180  12.721   2.763  11.912  0.2652 -0.9006 -0.1624
  165MOL0     C22181  12.738   2.736  12.060  0.2483  0.1265  0.3254
  165MOL0     C22182  12.876   2.780  12.109  0.5958  0.0083  0.4269
  165MOL0     C22183  12.883   2.782  12.260 -0.2419  0.1870  0.0147
  165MOL0     C22184  12.887   2.633  12.294  0.0761 -0.4756  0.8892
  165MOL0    Cl22185  12.917   2.601  12.463 -0.3991  0.0684 -0.0871
  165MOL0     C22186  12.185   2.941  11.551 -0.1410  0.6852 -0.1766
  165MOL0     C22187  12.066   2.968  11.469 -0.9425  0.4537 -0.3893
  165MOL0     O22188  12.019   3.169  11.202  0.2589 -0.6311  0.1434
  165MOL0     C22189  11.809   2.949  11.013  0.1195 -0.0609 -0.2365
  165MOL0     C22190  11.717   2.936  10.910  0.3748 -0.1860  0.0279
  165MOL0     N22191  11.281   2.731  10.451  0.0224  0.2822 -0.0491
  165MOL0     N22192  11.301   2.712  10.322 -0.5179 -0.1212 -0.4839
  165MOL0     C22193  10.235   2.853  10.487  0.3432 -0.0913 -0.8030
  165MOL0     C22194  10.135   2.810  10.583  1.1252  0.1075 -0.2223
  165MOL0     C22195   9.965   2.703  10.977  0.2152 -0.4029  0.1861
  165MOL0     C22196   9.968   2.777  11.096  0.4696  0.2657 -0.7182
  165MOL0     C22197   9.911   2.731  11.220  0.8089 -0.7141  0.8054
  165MOL0     C22198   9.862   2.602  11.225  0.2580  0.6206  0.2605
  165MOL0     O22199   9.832   2.537  11.346 -0.4058 -0.9220  0.1706
  165MOL0     C22200   9.815   2.632  11.464 -0.6492 -0.1617  0.4236
  165MOL0     C22201   9.760   2.554  11.587 -0.3427  0.2524  0.0895
  165MOL0     C22202   9.752   2.641  11.715  0.9363  0.1372 -0.5176
  165MOL0     C22203   9.669   2.596  11.824 -1.0223  0.7613 -0.9985
  165MOL0     C22204   9.741   2.506  11.917  0.1266 -0.7812 -0.6734
  165MOL0     C22205   9.798   2.432  11.991 -0.4032  0.7361  0.6286
  165MOL0     C22206   9.860   2.519  11.099  0.5515 -0.3647 -0.5022
  165MOL0     C22207   9.906   2.576  10.981 -0.0983  0.0368  0.2734
  165MOL0     H22208  10.315   2.553  10.717 -0.0429 -0.9242  0.0905
  165MOL0     H22209  10.467   2.607  10.534 -2.1010 -2.4881 -1.3668
  165MOL0     H22210  10.650   2.793  10.423 -1.0499  0.4890  0.6104
  165MOL0     H22211  10.558   2.647  10.365 -1.6398 -0.0227  1.9848
  165MOL0     H22212  10.522   2.786  10.146 -1.2907 -0.0376  2.5736
  165MOL0     H22213  10.653   2.891  10.189 -0.1038 -1.7428  0.0960
  165MOL0     H22214  10.807   2.717  10.245 -1.0588 -0.1383  1.0610
  165MOL0     H22215  10.698   2.610  10.149 -3.3522  0.6314 -1.6843
  165MOL0     H22216  10.695   2.769   9.964 -0.6516 -1.5313 -0.2987
  165MOL0     H22217  10.838   2.857  10.043  1.9343 -1.6318  0.9526
  165MOL0     H22218  10.850   2.561   9.960 -0.7506  0.9005  2.6354
  165MOL0     H22219  10.893   2.709   9.868 -0.6030 -0.0238 -0.0093
  165MOL0     H22220  10.997   2.650  10.146  0.4939  0.5228 -1.2510
  165MOL0     H22221  11.068   2.588   9.999  1.3164  0.3357  0.7164
  165MOL0     H22222  11.122   2.821   9.916 -1.7026  3.3457  0.6863
  165MOL0     H22223  11.045   2.895  10.046 -0.6490  0.4612 -0.0194
  165MOL0     H22224  11.270   2.907  10.071 -3.1010  1.8129  2.4026
  165MOL0     H22225  11.298   2.743  10.056  3.2820  3.4913 -1.4524
  165MOL0     H22226  11.042   2.913  10.319 -0.2573  0.3458  1.5026
  165MOL0     H22227  11.072   2.967  10.574  0.9021  0.5204 -0.4044
  165MOL0     H22228  11.044   2.815  10.651 -0.2159 -0.5204 -1.1023
  165MOL0     H22229  11.262   2.801  10.744 -2.1027 -0.2405  0.4927
  165MOL0     H22230  11.208   2.965  10.778 -0.3478  1.1744 -1.1448
  165MOL0     H22231  11.353   3.057  10.591 -0.3060  0.4501  0.8658
  165MOL0     H22232  11.425   2.894  10.585 -0.8009 -0.0085 -0.7565
  165MOL0     H22233  11.472   2.925  10.827  1.6189  2.2736  1.3979
  165MOL0     H22234  11.410   3.094  10.801 -2.3219  0.8863 -2.3232
  165MOL0     H22235  11.707   3.265  10.822 -3.4704 -0.9647  1.6162
  165MOL0     H22236  11.912   3.358  11.102  1.6601 -1.1553 -1.2624
  165MOL0     H22237  11.935   3.348  10.923  0.5626 -1.7108 -0.6701
  165MOL0     H22238  11.770   3.389  11.003  0.6607  1.8670 -2.7272
  165MOL0     H22239  12.189   2.846  11.184  0.0019 -0.5749  0.1215
  165MOL0     H22240  12.388   2.827  11.318  1.5205  2.6727  1.3760
  165MOL0     H22241  12.426   2.989  11.712  0.6321  1.3260 -2.5440
  165MOL0     H22242  12.349   2.822  11.732 -0.6311 -0.4267 -2.8093
  165MOL0     H22243  12.570   2.727  11.682 -0.5811 -0.7016  0.1983
  165MOL0     H22244  12.655   2.878  11.718 -0.6648 -0.7544 -1.1610
  165MOL0     H22245  12.524   2.688  11.904 -0.5906  1.0812  1.1843
  165MOL0     H22246  12.511   2.859  11.939  0.8887  2.5579 -0.9034
  165MOL0     H22247  12.766   2.680  11.856  1.1742  0.0988 -0.9679
  165MOL0     H22248  12.782   2.852  11.892  2.6126 -2.5020 -0.6054
  165MOL0     H22249  12.724   2.627  12.065 -0.9674  0.2758  0.6084
  165MOL0     H22250  12.669   2.802  12.114  0.0280  0.6686 -0.6056
  165MOL0     H22251  12.957   2.726  12.060  0.2663  0.3550 -0.5315
  165MOL0     H22252  12.892   2.883  12.077  3.1340 -0.3707  0.3036
  165MOL0     H22253  12.803   2.844  12.301  0.1309 -0.1142  1.2561
  165MOL0     H22254  12.981   2.822  12.287  0.4075 -2.0989  1.3248
  165MOL0     H22255  12.948   2.573  12.225  0.6892  0.1390  0.8834
  165MOL0     H22256  12.787   2.595  12.271 -1.0226  2.5198  0.3945
  165MOL0     H22257  12.179   2.962  11.657 -2.4098  2.3566 -0.5514
  165MOL0     H22258  11.976   3.011  11.512 -0.2917  1.2338  0.2297
  165MOL0     H22259  11.837   2.851  11.049  1.3688 -0.4571 -2.1107
  165MOL0     H22260  11.663   2.844  10.892  0.8774 -1.0370  2.4223
  165MOL0     H22261  10.216   2.933  10.416  0.5510  0.9295  0.2600
  165MOL0     H22262  10.044   2.869  10.581  2.4473  2.2773  0.4845
  165MOL0     H22263  10.019   2.873  11.096  0.6827  0.4674  4.6050
  165MOL0     H22264   9.912   2.801  11.303 -2.1816 -0.0925  0.4408
  165MOL0     H22265   9.912   2.670  11.498 -1.0738  0.9893  0.3699
  165MOL0     H22266   9.757   2.717  11.428  1.2967  1.1687  0.2694
  165MOL0     H22267   9.821   2.468  11.616  2.1484  2.3505  1.4994
  165MOL0     H22268   9.658   2.522  11.565  0.1387 -1.2342 -0.0892
  165MOL0     H22269   9.703   2.729  11.672  1.6428  0.8943  0.1916
  165MOL0     H22270   9.853   2.668  11.747  0.7538  2.5190 -1.6752
  165MOL0     H22271   9.580   2.546  11.784 -2.3415  1.8982  0.3701
  165MOL0     H22272   9.634   2.686  11.877 -0.6290  1.6720 -2.2326
  165MOL0     H22273   9.848   2.361  12.054  0.7738  0.8657 -0.1319
  165MOL0     H22274   9.827   2.416  11.096 -2.3764  0.5101 -2.6832
  165MOL0     H22275   9.908   2.515  10.892 -0.2982  1.2495 -0.5911
  166MOL0     O22276   5.707   2.220   6.215 -0.2596 -0.7500  0.4766
  166MOL0     C22277   5.675   2.332   6.251  0.1643 -0.0919  0.3280
  166MOL0     O22278   5.724   2.386   6.363  0.3919 -0.3196  0.7284
  166MOL0     C22279   5.835   2.341   6.431  0.8145 -0.4907 -0.5991
  166MOL0     C22280   5.938   2.264   6.380 -0.2829  0.3379 -0.5554
  166MOL0     C22281   6.043   2.218   6.465 -1.0057 -0.4065  0.7609
  166MOL0     C22282   6.050   2.260   6.598 -0.7198 -1.4783 -0.1324
  166MOL0     O22283   6.162   2.228   6.666  0.2031 -0.1463  0.4287
  166MOL0     C22284   6.182   2.282   6.794  0.3267 -0.4558 -0.8315
  166MOL0     C22285   6.300   2.233   6.859  0.0873  0.3942 -1.3782
  166MOL0     C22286   6.425   2.281   6.793 -0.3588  0.3572 -0.7285
  166MOL0     C22287   6.546   2.231   6.867  1.4302  0.6634  0.6092
  166MOL0     C22288   6.681   2.281   6.810  0.6717  0.1544 -0.0569
  166MOL0     C22289   6.800   2.202   6.863 -0.1919 -0.2389 -0.2691
  166MOL0     C22290   6.923   2.288   6.821 -0.1131  0.3504 -0.2267
  166MOL0     C22291   7.056   2.219   6.871  0.4039  0.6873 -0.0237
  166MOL0     N22292   7.075   2.082   6.829  0.6509 -0.1993 -0.1136
  166MOL0     C22293   7.142   2.037   6.724 -1.6450 -0.7677  0.7135
  166MOL0     C22294   7.160   1.907   6.748 -0.0443  0.2080  0.1917
  166MOL0     C22295   7.224   1.822   6.654 -0.4095 -0.0519  0.4506
  166MOL0     C22296   7.125   1.741   6.560  0.4643 -0.6430 -1.2889
  166MOL0     C22297   7.198   1.619   6.503 -0.3976  0.3221 -1.1371
  166MOL0     C22298   7.198   1.497   6.596  0.3883  0.3158  0.7231
  166MOL0     O22299   7.277   1.522   6.717 -0.7871  1.0127 -0.1379
  166MOL0     C22300   7.240   1.449   6.831 -0.5247  0.4767  0.5530
  166MOL0     C22301   7.299   1.487   6.948  0.9965 -0.5269  0.9812
  166MOL0     C22302   7.287   1.417   7.071 -0.9101  0.6112  0.6222
  166MOL0     C22303   7.358   1.490   7.180  0.3202 -0.5611 -0.1508
  166MOL0     C22304   7.218   1.307   7.082  0.5111  0.7757  0.3181
  166MOL0     C22305   7.195   1.230   7.208  0.3787  0.3316  0.0810
  166MOL0     O22306   7.127   1.117   7.192 -0.7226  0.0287 -0.4665
  166MOL0     C22307   7.101   1.021   7.285 -0.1863 -0.3863  0.6964
  166MOL0     C22308   7.154   1.009   7.413 -0.0240 -0.1670  0.4840
  166MOL0     C22309   7.108   0.909   7.496 -0.2178  0.5594  0.5264
  166MOL0     C22310   7.008   0.819   7.455 -0.9019 -0.5506 -0.2882
  166MOL0     O22311   6.985   0.738   7.560  0.2891 -0.2589  0.5825
  166MOL0     C22312   6.904   0.620   7.536  0.0324 -0.3850 -1.0724
  166MOL0     C22313   6.755   0.655   7.541  0.2203  1.0133 -0.7593
  166MOL0     C22314   6.711   0.683   7.689  0.9692  0.8121  0.0658
  166MOL0     C22315   6.575   0.752   7.700 -0.4818  0.5914 -0.0973
  166MOL0     C22316   6.532   0.796   7.843  0.1071 -0.5131 -0.8103
  166MOL0     C22317   6.399   0.738   7.905 -0.8950  0.2453  0.8287
  166MOL0     C22318   6.392   0.592   7.931  0.7503  0.2807  0.6877
  166MOL0     C22319   6.464   0.562   8.061  0.5861  0.1421  0.6188
  166MOL0    Cl22320   6.432   0.391   8.099 -0.2966  0.2973 -0.2244
  166MOL0     C22321   6.950   0.827   7.330  0.5180  0.1773  1.3377
  166MOL0     C22322   7.003   0.933   7.245  0.9540 -0.7087  0.0704
  166MOL0     O22323   7.235   1.275   7.321 -0.3371 -0.3829 -0.1916
  166MOL0     C22324   7.158   1.260   6.955  0.8683 -0.7409  0.7279
  166MOL0     C22325   7.169   1.329   6.831  0.0904 -0.2988 -0.4039
  166MOL0     N22326   7.077   1.872   6.848 -0.0621  0.1819  0.9692
  166MOL0     N22327   7.049   1.977   6.918  0.0159 -0.3715 -0.4483
  166MOL0     C22328   5.954   2.359   6.639  0.0027  0.2956  0.1426
  166MOL0     C22329   5.855   2.403   6.558  0.4190 -0.4219  0.0263
  166MOL0     C22330   5.561   2.408   6.197  0.3698  0.0041  0.4834
  166MOL0     C22331   5.487   2.359   6.083 -0.5036 -0.6872  0.3350
  166MOL0     C22332   5.382   2.437   6.031  0.2708 -0.4592  0.3406
  166MOL0     C22333   5.352   2.565   6.076  0.5566 -0.4589  1.0345
  166MOL0     O22334   5.250   2.645   6.022  0.6680  0.4007 -0.6109
  166MOL0     C22335   5.170   2.598   5.904 -0.0389 -0.3204 -0.2030
  166MOL0     C22336   5.041   2.688   5.882  0.1474  1.0004  0.4357
  166MOL0     C22337   5.077   2.823   5.812 -0.7735  1.1667 -0.2300
  166MOL0     C22338   4.967   2.924   5.790 -0.3396 -0.4443 -0.6007
  166MOL0     C22339   4.918   2.962   5.920 -0.2833  0.4365  0.5010
  166MOL0     C22340   4.862   2.990   6.028 -0.2048  0.3430 -0.1078
  166MOL0     C22341   5.425   2.612   6.182  0.4226 -0.3434  0.3435
  166MOL0     C22342   5.527   2.539   6.245 -0.4236  0.3119  0.4714
  166MOL0     H22343   5.935   2.235   6.276 -2.8956 -2.0041  0.0415
  166MOL0     H22344   6.123   2.158   6.423 -1.3100 -3.0601  3.6427
  166MOL0     H22345   6.201   2.390   6.784  3.1138 -0.8991 -1.0971
  166MOL0     H22346   6.103   2.257   6.865  0.8775 -0.9092 -0.3725
  166MOL0     H22347   6.303   2.264   6.964 -1.3835 -0.6142 -1.0217
  166MOL0     H22348   6.301   2.124   6.865 -2.8146  0.4178  1.9611
  166MOL0     H22349   6.425   2.227   6.698 -0.2412  1.1899 -1.2137
  166MOL0     H22350   6.416   2.389   6.777 -1.6304  0.9129  2.8676
  166MOL0     H22351   6.543   2.264   6.971 -1.0727  0.7243  0.5778
  166MOL0     H22352   6.552   2.122   6.862  1.9367  0.7241 -3.0363
  166MOL0     H22353   6.675   2.262   6.702 -3.2604 -2.5870  0.4282
  166MOL0     H22354   6.686   2.389   6.829  0.5910 -0.0118  0.9510
  166MOL0     H22355   6.793   2.213   6.972  1.4646 -4.3307  0.4446
  166MOL0     H22356   6.798   2.101   6.821 -3.4051  0.0419 -1.0701
  166MOL0     H22357   6.919   2.286   6.712  0.1599  1.1127 -0.2551
  166MOL0     H22358   6.919   2.394   6.850 -0.3858  0.0740  0.7733
  166MOL0     H22359   7.068   2.226   6.980 -0.0855 -3.0516  0.4093
  166MOL0     H22360   7.132   2.283   6.827  0.6308 -1.1593 -2.4939
  166MOL0     H22361   7.169   2.111   6.649 -3.0511 -0.2301  0.7009
  166MOL0     H22362   7.298   1.877   6.595  3.5474 -3.1469  2.1271
  166MOL0     H22363   7.281   1.754   6.716 -2.3857 -1.5632  0.7078
  166MOL0     H22364   7.089   1.803   6.477  2.5984 -0.5226 -2.2024
  166MOL0     H22365   7.045   1.690   6.614  2.6705 -1.6121  1.3107
  166MOL0     H22366   7.303   1.646   6.492 -0.1207  0.2789  0.9572
  166MOL0     H22367   7.143   1.601   6.410 -1.5414  1.3180 -0.6914
  166MOL0     H22368   7.232   1.409   6.540 -2.2536  0.1608 -0.8278
  166MOL0     H22369   7.091   1.483   6.617  0.4390  1.3699  1.8124
  166MOL0     H22370   7.357   1.579   6.946  3.0878 -1.6735  3.1912
  166MOL0     H22371   7.427   1.568   7.145  0.5973 -0.9393 -0.4534
  166MOL0     H22372   7.287   1.527   7.255  0.1626  1.6448 -1.2807
  166MOL0     H22373   7.427   1.423   7.231  0.1691  0.0076  0.8214
  166MOL0     H22374   7.241   1.062   7.451  0.3308 -0.7359  0.4818
  166MOL0     H22375   7.142   0.899   7.598 -2.5079  1.2763  1.3957
  166MOL0     H22376   6.926   0.570   7.442  0.1255 -2.9525  0.2146
  166MOL0     H22377   6.924   0.545   7.613 -1.9655 -2.4708 -2.4847
  166MOL0     H22378   6.735   0.743   7.479 -0.9068  0.2542 -1.5003
  166MOL0     H22379   6.695   0.574   7.499 -1.7961  2.2004 -0.3259
  166MOL0     H22380   6.789   0.746   7.733  3.0618  1.8699 -4.5111
  166MOL0     H22381   6.705   0.593   7.751  1.9158  1.9761  1.9128
  166MOL0     H22382   6.598   0.838   7.637  0.4176  0.6070  0.2422
  166MOL0     H22383   6.501   0.697   7.641 -3.5990  0.8319  3.2277
  166MOL0     H22384   6.529   0.904   7.860  0.0896 -0.9697  3.1402
  166MOL0     H22385   6.614   0.764   7.909 -0.5104 -0.7602 -0.1479
  166MOL0     H22386   6.378   0.791   7.998 -1.5542  2.5204 -0.5414
  166MOL0     H22387   6.324   0.767   7.831 -1.3690  0.3127  1.3381
  166MOL0     H22388   6.441   0.526   7.860  1.5562 -0.2852  1.7333
  166MOL0     H22389   6.285   0.568   7.928  1.0231 -0.9008 -0.0175
  166MOL0     H22390   6.424   0.625   8.141  0.9556 -0.6314  1.4192
  166MOL0     H22391   6.572   0.577   8.060  0.7472 -0.6860  2.3376
  166MOL0     H22392   6.873   0.757   7.300 -0.5656  0.2288  3.7745
  166MOL0     H22393   6.942   0.955   7.157 -0.6727  0.0525  1.3371
  166MOL0     H22394   7.098   1.171   6.939  0.0437  0.3563 -3.5127
  166MOL0     H22395   7.122   1.287   6.743  0.2714 -0.2391 -0.5295
  166MOL0     H22396   5.942   2.395   6.740 -1.6898 -1.9294  0.8120
  166MOL0     H22397   5.773   2.474   6.574  0.1598 -1.2165  2.7906
  166MOL0     H22398   5.508   2.268   6.028  0.5999 -0.1508 -0.1648
  166MOL0     H22399   5.336   2.405   5.938  2.3617  0.3522 -1.0601
  166MOL0     H22400   5.232   2.590   5.815 -2.1679  1.5737 -1.9875
  166MOL0     H22401   5.123   2.502   5.924  0.3538 -0.8748 -1.7983
  166MOL0     H22402   5.007   2.709   5.984 -0.1760  2.1543  0.1098
  166MOL0     H22403   4.969   2.626   5.827 -1.8798  2.5342  1.2404
  166MOL0     H22404   5.136   2.796   5.724 -2.1482  2.4802 -1.6279
  166MOL0     H22405   5.139   2.870   5.889 -3.2008  0.0489  2.6206
  166MOL0     H22406   4.883   2.898   5.726 -0.7220 -0.8908  0.0651
  166MOL0     H22407   5.024   3.001   5.738  1.2694 -1.5197 -0.5263
  166MOL0     H22408   4.804   3.013   6.116 -0.1311 -1.7679  0.5441
  166MOL0     H22409   5.395   2.706   6.228 -0.1232 -0.5193  0.3595
  166MOL0     H22410   5.579   2.580   6.330 -0.0024  0.1480  0.2963
  167MOL0     O22411   9.011   9.812   9.281 -0.6848 -0.2455 -0.7035
  167MOL0     C22412   8.920   9.846   9.204  0.3063  1.0458  0.4418
  167MOL0     O22413   8.873   9.970   9.189 -0.2770 -0.7753  0.2536
  167MOL0     C22414   8.930  10.065   9.270 -0.2682 -0.4999  0.4593
  167MOL0     C22415   8.865  10.103   9.388 -0.8894  0.5364  0.2216
  167MOL0     C22416   8.914  10.207   9.469  0.3677  0.0803 -0.0652
  167MOL0     C22417   9.028  10.281   9.426 -0.5190  0.1719  0.1441
  167MOL0     O22418   9.076  10.372   9.516 -0.0662 -0.3286 -0.1069
  167MOL0     C22419   9.154  10.482   9.462  0.8445 -1.2122  0.5595
  167MOL0     C22420   9.201  10.581   9.566  0.0937 -0.4682 -0.9737
  167MOL0     C22421   9.329  10.543   9.653  0.0770  0.2039 -0.3026
  167MOL0     C22422   9.316  10.412   9.730 -0.1726 -0.3872 -0.6744
  167MOL0     C22423   9.433  10.374   9.834  0.5849 -0.9053 -0.0402
  167MOL0     C22424   9.423  10.475   9.955  0.0331  0.1461 -0.1949
  167MOL0     C22425   9.474  10.413  10.088  1.0439  1.1936  0.5187
  167MOL0     C22426   9.622  10.381  10.079 -0.3235 -0.0353 -0.3762
  167MOL0     N22427   9.702  10.502  10.107  0.0172  0.3825 -0.1665
  167MOL0     C22428   9.777  10.524  10.221 -0.9837  0.2373  0.4538
  167MOL0     C22429   9.836  10.647  10.195  1.3194  0.5984 -0.5763
  167MOL0     C22430   9.907  10.717  10.303 -0.8797  0.8412  0.3703
  167MOL0     C22431  10.054  10.671  10.310 -1.2171  0.3297 -0.6070
  167MOL0     C22432  10.072  10.513  10.314  0.9097 -0.4732  0.1616
  167MOL0     C22433  10.224  10.493  10.288 -0.0899 -0.0422  1.0005
  167MOL0     O22434  10.254  10.352  10.303 -0.2002 -1.0067  0.7155
  167MOL0     C22435  10.367  10.311  10.367 -0.2664  0.1344 -0.4349
  167MOL0     C22436  10.405  10.367  10.489 -1.1408  0.2749  0.0452
  167MOL0     C22437  10.507  10.315  10.569  0.0263 -0.1240 -0.1832
  167MOL0     C22438  10.544  10.391  10.697  0.1237 -0.4477 -0.7996
  167MOL0     C22439  10.568  10.198  10.526  0.6096  0.1599 -0.3072
  167MOL0     C22440  10.631  10.108  10.631  0.1380 -1.1658 -0.0187
  167MOL0     O22441  10.550  10.070  10.739  0.3537  0.1872 -0.3603
  167MOL0     C22442  10.605  10.016  10.857 -0.3766  1.0254 -0.2939
  167MOL0     C22443  10.745  10.014  10.892  0.3182  0.1036  0.0422
  167MOL0     C22444  10.787   9.973  11.019 -0.5309 -0.6400 -0.3684
  167MOL0     C22445  10.699   9.906  11.113 -0.8651  0.6202 -0.2152
  167MOL0     O22446  10.730   9.834  11.220 -0.6171  0.7640 -0.2808
  167MOL0     C22447  10.867   9.774  11.224  0.1120 -0.1438  1.2694
  167MOL0     C22448  10.863   9.665  11.329 -1.0588 -0.0301 -0.3596
  167MOL0     C22449  10.951   9.534  11.295 -0.0286 -0.3712  0.3394
  167MOL0     C22450  10.964   9.456  11.421 -0.1820  0.3705  0.7681
  167MOL0     C22451  11.005   9.312  11.376  0.0350 -0.3586  0.4611
  167MOL0     C22452  11.053   9.238  11.503 -0.2619 -0.7812 -0.3075
  167MOL0     C22453  11.077   9.086  11.483  0.2388 -0.3630  0.3567
  167MOL0     C22454  10.953   9.017  11.438  0.1672  0.3137 -0.4819
  167MOL0    Cl22455  10.959   8.861  11.509  0.0719  0.0946 -0.3498
  167MOL0     C22456  10.567   9.910  11.072 -0.2963  0.9111 -0.5992
  167MOL0     C22457  10.512   9.967  10.955 -1.1425  0.1557 -0.0548
  167MOL0     O22458  10.738  10.055  10.600 -0.0910 -0.9624  0.6129
  167MOL0     C22459  10.543  10.144  10.400  0.2003 -1.0665  0.8608
  167MOL0     C22460  10.444  10.209  10.319 -0.0724 -0.1628  0.3427
  167MOL0     N22461   9.805  10.688  10.067 -0.1842 -0.7089 -0.6052
  167MOL0     N22462   9.722  10.604  10.012 -0.3773 -0.8004 -0.5740
  167MOL0     C22463   9.090  10.250   9.299  0.3277  0.1229 -0.7738
  167MOL0     C22464   9.032  10.150   9.220 -1.1614 -0.3012  0.0017
  167MOL0     C22465   8.867   9.743   9.113  0.5594  0.3235 -0.1206
  167MOL0     C22466   8.754   9.776   9.024  1.0413  0.6191 -0.7335
  167MOL0     C22467   8.703   9.683   8.937 -0.9051  0.1103 -0.2292
  167MOL0     C22468   8.749   9.550   8.940 -0.2054 -0.3869  0.4067
  167MOL0     O22469   8.715   9.453   8.851 -0.0610 -0.1502  0.6208
  167MOL0     C22470   8.628   9.482   8.734 -0.0045 -0.1944  0.3442
  167MOL0     C22471   8.708   9.431   8.611 -0.1539 -0.5923  0.4029
  167MOL0     C22472   8.847   9.502   8.588  0.6949 -0.4445 -0.9751
  167MOL0     C22473   8.919   9.459   8.453 -0.1758 -0.5797 -0.7508
  167MOL0     C22474   8.977   9.328   8.484 -0.0842  0.9252  0.4457
  167MOL0     C22475   9.033   9.218   8.483 -0.5216  0.3955 -0.3659
  167MOL0     C22476   8.852   9.518   9.029  0.6448  0.0106 -1.5301
  167MOL0     C22477   8.900   9.605   9.123  0.7712  0.2186  0.2942
  167MOL0     H22478   8.796  10.032   9.432 -1.0865  0.2498 -0.5211
  167MOL0     H22479   8.873  10.224   9.567  0.6073  0.6589 -0.0604
  167MOL0     H22480   9.246  10.446   9.415  0.5871 -0.7045 -0.3421
  167MOL0     H22481   9.094  10.538   9.390  3.5295 -0.3634 -1.1562
  167MOL0     H22482   9.228  10.681   9.530 -0.6987  0.3723  0.6187
  167MOL0     H22483   9.112  10.599   9.627  1.7925 -0.0918  1.5534
  167MOL0     H22484   9.419  10.538   9.591  0.2562 -2.1016  0.0562
  167MOL0     H22485   9.340  10.620   9.731  4.0557 -0.1772 -0.2747
  167MOL0     H22486   9.219  10.418   9.780  1.2941 -2.2358  2.7351
  167MOL0     H22487   9.317  10.329   9.658  2.2992 -1.1976  0.1777
  167MOL0     H22488   9.426  10.271   9.870  0.2875 -1.4732 -1.6159
  167MOL0     H22489   9.534  10.394   9.796  0.1744 -0.5297 -0.9716
  167MOL0     H22490   9.472  10.569   9.929  0.4397 -0.1341 -0.4548
  167MOL0     H22491   9.316  10.490   9.970 -0.2906 -1.2250 -1.0050
  167MOL0     H22492   9.460  10.488  10.166  2.8025 -0.6143  2.7047
  167MOL0     H22493   9.411  10.330  10.120  1.7426  1.6063  3.1786
  167MOL0     H22494   9.660  10.336   9.987  0.2766  0.7787 -0.5363
  167MOL0     H22495   9.644  10.312  10.160 -0.3892 -1.1435 -1.2811
  167MOL0     H22496   9.782  10.456  10.305 -0.1779  1.3511  1.3380
  167MOL0     H22497   9.897  10.824  10.284  3.3381  1.2091 -0.8295
  167MOL0     H22498   9.861  10.692  10.399 -1.6661 -0.3130 -0.2792
  167MOL0     H22499  10.119  10.709  10.390  0.1780 -0.7618 -1.1743
  167MOL0     H22500  10.107  10.718  10.227  3.6365  0.2846  2.0505
  167MOL0     H22501  10.021  10.458  10.235  2.7206 -0.6863 -0.9189
  167MOL0     H22502  10.053  10.459  10.407 -0.4168  1.3794  1.0475
  167MOL0     H22503  10.281  10.564  10.348  0.5553  2.8524 -2.6301
  167MOL0     H22504  10.247  10.500  10.181 -2.6890 -1.8437  0.2073
  167MOL0     H22505  10.348  10.453  10.522 -2.0427 -0.1173 -0.4434
  167MOL0     H22506  10.483  10.482  10.694  0.0973 -0.4892 -1.9288
  167MOL0     H22507  10.520  10.336  10.788  1.2483  1.2873  0.6215
  167MOL0     H22508  10.645  10.432  10.693 -0.9756  2.9306  1.6633
  167MOL0     H22509  10.819  10.059  10.827 -0.3154  0.6638 -0.3011
  167MOL0     H22510  10.894   9.972  11.039 -0.5563 -1.4673 -0.2577
  167MOL0     H22511  10.880   9.733  11.123  0.2193  1.7478  0.4607
  167MOL0     H22512  10.940   9.856  11.232  0.4762 -0.4044  0.7306
  167MOL0     H22513  10.905   9.718  11.415 -1.4238  2.4591 -1.6035
  167MOL0     H22514  10.761   9.632  11.346 -1.1751  0.1851 -0.6189
  167MOL0     H22515  11.052   9.558  11.261 -1.0767  1.8943 -1.4899
  167MOL0     H22516  10.895   9.471  11.225 -0.6821  1.1216 -0.5441
  167MOL0     H22517  11.045   9.510  11.471  0.6398 -0.7669  0.7065
  167MOL0     H22518  10.870   9.461  11.477 -1.5127  1.9814 -1.4482
  167MOL0     H22519  11.080   9.305  11.298 -2.4232  0.6223 -2.1549
  167MOL0     H22520  10.912   9.259  11.351  1.7965 -2.6122 -1.8857
  167MOL0     H22521  11.145   9.284  11.541 -0.2644 -0.3355 -0.8325
  167MOL0     H22522  10.977   9.236  11.582 -1.0036 -4.6629 -0.9233
  167MOL0     H22523  11.122   9.042  11.573  1.5842 -0.1569 -0.2014
  167MOL0     H22524  11.158   9.077  11.411 -0.5339  3.9776 -1.3529
  167MOL0     H22525  10.939   8.993  11.332 -0.2254 -1.3998 -0.0829
  167MOL0     H22526  10.867   9.078  11.468  0.1144  0.0152 -0.0067
  167MOL0     H22527  10.501   9.862  11.144 -0.1164  0.7522 -0.5380
  167MOL0     H22528  10.408   9.972  10.923 -1.0758 -2.8519 -1.0417
  167MOL0     H22529  10.579  10.049  10.363  0.7327 -0.1106 -1.2473
  167MOL0     H22530  10.419  10.168  10.222 -0.4773  2.0354 -0.5469
  167MOL0     H22531   9.167  10.316   9.259  1.1313 -1.7944 -2.5514
  167MOL0     H22532   9.070  10.141   9.118  2.1917 -1.9782  1.2537
  167MOL0     H22533   8.711   9.875   9.019  1.1849  0.8981  2.1295
  167MOL0     H22534   8.616   9.710   8.879 -1.3501 -0.2556  0.2579
  167MOL0     H22535   8.531   9.433   8.751 -0.0624 -1.1860 -2.3611
  167MOL0     H22536   8.606   9.587   8.713 -0.8977 -0.0142  2.0256
  167MOL0     H22537   8.647   9.444   8.521 -1.4944 -2.4081  0.9939
  167MOL0     H22538   8.732   9.325   8.622  0.0857 -0.6835 -0.8763
  167MOL0     H22539   8.906   9.460   8.670 -1.8712 -0.0988  1.1696
  167MOL0     H22540   8.844   9.611   8.587 -1.8022 -0.4759 -1.9014
  167MOL0     H22541   8.988   9.538   8.423 -0.3291 -0.0972  0.1538
  167MOL0     H22542   8.851   9.440   8.369  0.0936 -1.9088 -0.6887
  167MOL0     H22543   9.059   9.114   8.487  1.0204  0.7890  1.6835
  167MOL0     H22544   8.872   9.411   9.037 -1.7482 -0.4534 -0.9851
  167MOL0     H22545   8.972   9.571   9.196  0.4616  1.6760  1.3256
  168MOL0     O22546   2.271   4.779  10.823  0.4204  0.1350  0.0842
  168MOL0     C22547   2.334   4.713  10.743  0.0498  0.3064 -0.2708
  168MOL0     O22548   2.303   4.699  10.609 -0.3288 -0.1569 -0.2961
  168MOL0     C22549   2.211   4.782  10.551  0.6210  0.2024 -0.6487
  168MOL0     C22550   2.237   4.837  10.424  0.6057  0.9258 -0.0416
  168MOL0     C22551   2.141   4.900  10.362 -0.5508  0.3357 -0.3514
  168MOL0     C22552   2.015   4.924  10.432  0.0682 -0.0584  0.2065
  168MOL0     O22553   1.917   4.997  10.383  0.5316 -0.5023  1.7012
  168MOL0     C22554   1.874   4.973  10.249 -0.6612 -0.1447  0.0949
  168MOL0     C22555   1.812   5.089  10.181  0.0465 -0.0885 -0.4282
  168MOL0     C22556   1.752   5.051  10.044  0.2320  0.3586 -0.1549
  168MOL0     C22557   1.667   5.168   9.981 -0.1162 -0.6478 -0.4027
  168MOL0     C22558   1.687   5.188   9.830 -1.0029 -0.2889 -0.7095
  168MOL0     C22559   1.620   5.079   9.740  0.6788  0.7227  0.2422
  168MOL0     C22560   1.661   5.069   9.591 -0.1379 -0.5625 -0.1124
  168MOL0     C22561   1.638   5.192   9.497 -0.3887 -0.2967 -0.4141
  168MOL0     N22562   1.673   5.165   9.361 -0.3234  0.1233 -0.4913
  168MOL0     C22563   1.692   5.043   9.288  0.5783  0.7559 -0.7334
  168MOL0     C22564   1.720   5.078   9.155  0.0167 -0.4334 -0.3614
  168MOL0     C22565   1.751   5.004   9.029 -0.9788  0.1988 -0.9531
  168MOL0     C22566   1.660   5.023   8.907 -0.5301 -1.1042  0.3459
  168MOL0     C22567   1.729   4.980   8.771  0.3360 -0.7467 -0.5382
  168MOL0     C22568   1.739   4.830   8.764  0.0465 -0.6124 -0.7127
  168MOL0     O22569   1.874   4.805   8.727  0.1232  0.9364 -0.1426
  168MOL0     C22570   1.912   4.811   8.597  0.3159  0.3578  0.3290
  168MOL0     C22571   2.037   4.764   8.565  0.1752 -0.4380  0.1227
  168MOL0     C22572   2.107   4.788   8.444  0.6310 -0.6732 -0.0836
  168MOL0     C22573   2.252   4.760   8.445  0.2251 -0.2653  0.3257
  168MOL0     C22574   2.036   4.859   8.342 -0.3671 -0.5593  0.7529
  168MOL0     C22575   2.103   4.886   8.215  0.7184  0.8479  0.0683
  168MOL0     O22576   2.202   4.804   8.177 -0.2489 -0.4564 -0.1714
  168MOL0     C22577   2.249   4.820   8.048  0.2310  0.1937 -0.2338
  168MOL0     C22578   2.366   4.890   8.027 -0.1093 -0.1367  0.1245
  168MOL0     C22579   2.420   4.897   7.899 -0.4452 -0.5771  0.3927
  168MOL0     C22580   2.364   4.830   7.787  0.7511 -0.2294 -0.2104
  168MOL0     O22581   2.422   4.825   7.664  0.2140 -0.2257 -0.1630
  168MOL0     C22582   2.565   4.823   7.649 -0.1850  0.5942  0.2340
  168MOL0     C22583   2.601   4.786   7.503 -0.6673 -1.2770 -0.3764
  168MOL0     C22584   2.756   4.793   7.473  0.1095 -0.6313 -0.4704
  168MOL0     C22585   2.820   4.664   7.430 -0.3204  0.5251 -1.2714
  168MOL0     C22586   2.972   4.680   7.395  0.4504 -0.5130 -0.1410
  168MOL0     C22587   3.040   4.570   7.320 -0.8033 -0.5822  0.2368
  168MOL0     C22588   3.075   4.440   7.403  0.5821  0.1764  0.2331
  168MOL0     C22589   3.141   4.326   7.314  0.9202  0.2193  0.5921
  168MOL0    Cl22590   3.169   4.188   7.410  0.3458  0.2709 -0.1832
  168MOL0     C22591   2.236   4.776   7.814 -0.4453  0.6379  0.0774
  168MOL0     C22592   2.178   4.759   7.939  0.8039  0.4051  0.4431
  168MOL0     O22593   2.050   4.971   8.136  0.3937  0.0672  0.4041
  168MOL0     C22594   1.901   4.894   8.364 -0.7436 -0.1298 -0.5393
  168MOL0     C22595   1.838   4.862   8.486 -0.4047 -0.1469 -0.1956
  168MOL0     N22596   1.738   5.217   9.162  0.0863  0.0984  0.3660
  168MOL0     N22597   1.707   5.265   9.278 -0.4407  0.0610 -0.3451
  168MOL0     C22598   1.990   4.864  10.553  0.7807  0.6922 -0.1811
  168MOL0     C22599   2.088   4.803  10.621  0.0526 -0.7614  1.1974
  168MOL0     C22600   2.448   4.627  10.791  1.0451  0.2127 -0.2632
  168MOL0     C22601   2.450   4.587  10.927 -0.3084  0.8367  0.1455
  168MOL0     C22602   2.546   4.497  10.977 -0.3329 -0.5504  0.2316
  168MOL0     C22603   2.642   4.456  10.892 -0.7549  0.0773  0.2232
  168MOL0     O22604   2.762   4.380  10.924  0.9049 -1.0467 -0.1556
  168MOL0     C22605   2.756   4.242  10.871  0.5656 -0.3717  0.3997
  168MOL0     C22606   2.732   4.143  10.980 -0.0949 -0.2317  0.7067
  168MOL0     C22607   2.845   4.112  11.079  0.5333  0.2959 -0.0108
  168MOL0     C22608   2.830   3.999  11.184  1.1100  1.2113  0.1987
  168MOL0     C22609   2.897   4.011  11.307  0.8018  0.3454 -0.0079
  168MOL0     C22610   2.963   4.010  11.404  0.0241  0.3805 -0.5853
  168MOL0     C22611   2.649   4.499  10.757  1.0385 -0.2260 -0.1902
  168MOL0     C22612   2.550   4.588  10.711 -0.1160  0.1052  0.7013
  168MOL0     H22613   2.335   4.812  10.384  0.3665 -0.0711 -0.0465
  168MOL0     H22614   2.169   4.944  10.267  1.4901  1.8944  0.8935
  168MOL0     H22615   1.960   4.934  10.193 -1.3215 -0.4059 -0.7630
  168MOL0     H22616   1.797   4.895  10.255 -4.0858  2.7961 -1.3612
  168MOL0     H22617   1.727   5.118  10.244 -1.4308 -1.6747 -1.5931
  168MOL0     H22618   1.885   5.170  10.180  0.9098 -0.7813  1.0608
  168MOL0     H22619   1.833   5.013   9.980  0.1707  0.6652 -0.4175
  168MOL0     H22620   1.690   4.962  10.060  1.5005 -0.3096  1.2246
  168MOL0     H22621   1.570   5.120   9.995  0.7064 -1.2667  5.5479
  168MOL0     H22622   1.676   5.264  10.032  0.4644 -0.7261 -0.3548
  168MOL0     H22623   1.650   5.287   9.802  1.3920  0.3398 -1.9108
  168MOL0     H22624   1.796   5.186   9.823 -0.5660  4.4292  1.1271
  168MOL0     H22625   1.648   4.980   9.778  0.8272  1.3805  1.9158
  168MOL0     H22626   1.512   5.097   9.737  0.1628 -2.0326 -0.2242
  168MOL0     H22627   1.769   5.054   9.595  0.4685  3.0169  1.9991
  168MOL0     H22628   1.603   4.984   9.555  0.3338 -0.2943 -1.5795
  168MOL0     H22629   1.692   5.279   9.535 -1.5436 -0.1011  0.8398
  168MOL0     H22630   1.532   5.212   9.484 -0.1134  1.1130 -0.7033
  168MOL0     H22631   1.680   4.940   9.321  0.1451 -0.0001 -3.0677
  168MOL0     H22632   1.854   5.026   8.998  0.1810  0.1540  2.4563
  168MOL0     H22633   1.757   4.898   9.059 -0.4448  0.4786 -0.0157
  168MOL0     H22634   1.637   5.129   8.891  0.0655 -1.4471 -4.3649
  168MOL0     H22635   1.565   4.970   8.915 -1.3681 -0.1938 -2.2882
  168MOL0     H22636   1.824   5.031   8.753  0.8699 -2.2328 -2.2321
  168MOL0     H22637   1.653   5.007   8.697  1.3850  1.6752 -0.8293
  168MOL0     H22638   1.668   4.778   8.699 -0.8152 -1.1337  0.6158
  168MOL0     H22639   1.719   4.801   8.867 -2.0790  0.4735 -0.7570
  168MOL0     H22640   2.090   4.724   8.651  1.0790  0.0885 -0.1770
  168MOL0     H22641   2.308   4.834   8.387 -0.9850 -0.2158 -0.8131
  168MOL0     H22642   2.297   4.758   8.545 -0.1987 -2.7997  0.5303
  168MOL0     H22643   2.276   4.661   8.405 -0.2726 -0.5898  0.8254
  168MOL0     H22644   2.407   4.934   8.117 -1.6011  0.0165  0.7565
  168MOL0     H22645   2.512   4.956   7.897 -0.3944 -0.6183  1.0926
  168MOL0     H22646   2.601   4.924   7.672 -0.3498  1.4255 -2.7990
  168MOL0     H22647   2.613   4.751   7.717 -0.9538 -1.5984 -1.4338
  168MOL0     H22648   2.563   4.687   7.477  1.5991 -2.9027  2.0690
  168MOL0     H22649   2.559   4.857   7.430  3.1866 -0.0117 -1.6254
  168MOL0     H22650   2.798   4.829   7.567 -0.3786 -0.9509 -0.1206
  168MOL0     H22651   2.770   4.867   7.394 -0.4962  0.6306  0.5597
  168MOL0     H22652   2.811   4.589   7.509 -0.9573 -1.5943 -3.2573
  168MOL0     H22653   2.765   4.634   7.341 -3.5884  4.2114 -0.7738
  168MOL0     H22654   3.032   4.688   7.485  0.3514 -2.5780  0.1668
  168MOL0     H22655   2.981   4.774   7.340 -1.6936  0.2282  0.6527
  168MOL0     H22656   2.990   4.527   7.233  2.9083 -2.9506 -0.9682
  168MOL0     H22657   3.135   4.606   7.279 -0.6564  0.0565  1.1073
  168MOL0     H22658   2.992   4.407   7.466  1.5283  0.4220  1.6559
  168MOL0     H22659   3.155   4.467   7.473  0.6321  0.8490 -0.0798
  168MOL0     H22660   3.238   4.359   7.276  0.0400  0.1346 -1.9307
  168MOL0     H22661   3.082   4.306   7.225  1.6123 -3.0330  0.7474
  168MOL0     H22662   2.193   4.737   7.722 -1.9982 -0.0545  1.0671
  168MOL0     H22663   2.083   4.708   7.956  0.9405 -0.5229 -1.3620
  168MOL0     H22664   1.838   4.948   8.294  2.6983  2.9174 -1.6328
  168MOL0     H22665   1.740   4.901   8.513 -1.0005 -0.2792 -2.0357
  168MOL0     H22666   1.886   4.876  10.583  0.6675 -1.0262  0.2095
  168MOL0     H22667   2.066   4.770  10.722  2.0823 -1.9135  1.3214
  168MOL0     H22668   2.386   4.634  11.001  1.3369  0.0799  2.1064
  168MOL0     H22669   2.562   4.464  11.079 -1.5919 -0.6262  0.4134
  168MOL0     H22670   2.683   4.232  10.790 -0.8564  0.5735  1.5146
  168MOL0     H22671   2.853   4.222  10.824  1.3736 -5.7964  3.4730
  168MOL0     H22672   2.707   4.056  10.918  1.4429 -0.3326  0.1981
  168MOL0     H22673   2.635   4.162  11.028  1.5103  2.0841  3.3677
  168MOL0     H22674   2.852   4.201  11.142  3.1527 -0.6895  1.2513
  168MOL0     H22675   2.936   4.095  11.020  0.0620  3.9754 -2.0891
  168MOL0     H22676   2.862   3.902  11.144  1.4860  1.2154  0.4815
  168MOL0     H22677   2.723   3.990  11.203  0.8636  1.6376 -0.8686
  168MOL0     H22678   3.029   4.018  11.488  1.1978  4.8934 -1.6688
  168MOL0     H22679   2.740   4.488  10.699 -0.0089 -0.2540 -1.8819
  168MOL0     H22680   2.563   4.611  10.606  2.9516  1.1505  1.1986
  169MOL0     O22681  10.121   5.674   0.068  0.3061  0.4682  0.6470
  169MOL0     C22682  10.080   5.562   0.082 -0.0556 -0.0529  0.2116
  169MOL0     O22683  10.165   5.453   0.113  0.2894 -0.0958  0.1042
  169MOL0     C22684  10.305   5.448   0.105 -0.3698 -0.4261 -0.2103
  169MOL0     C22685  10.394   5.557   0.114  0.0886 -0.5418 -0.5998
  169MOL0     C22686  10.530   5.529   0.129 -0.5913 -0.8562 -0.0843
  169MOL0     C22687  10.586   5.403   0.121 -0.9352  0.1226 -1.0143
  169MOL0     O22688  10.722   5.388   0.123  0.7084 -0.0266 -0.6630
  169MOL0     C22689  10.799   5.273   0.082 -0.1517 -1.5388 -0.0204
  169MOL0     C22690  10.935   5.295   0.143 -0.1820 -0.1072 -0.4477
  169MOL0     C22691  11.032   5.391   0.085 -0.6312 -1.2398 -0.3186
  169MOL0     C22692  11.177   5.377   0.133 -0.1924 -0.2625 -0.1514
  169MOL0     C22693  11.199   5.456   0.265  0.8585 -0.2739 -0.4540
  169MOL0     C22694  11.328   5.545   0.257 -0.4195 -0.7666  0.2264
  169MOL0     C22695  11.348   5.631   0.383 -0.5912  0.1384 -0.1719
  169MOL0     C22696  11.479   5.688   0.380 -0.3363  0.2548  0.0407
  169MOL0     N22697  11.513   5.752   0.501  0.3402 -0.1038 -0.4446
  169MOL0     C22698  11.509   5.700   0.630  0.5674  0.7479  0.3951
  169MOL0     C22699  11.602   5.784   0.694  0.1842 -0.1939  0.7179
  169MOL0     C22700  11.612   5.782   0.844 -0.2587  0.5851  0.5521
  169MOL0     C22701  11.683   5.898   0.918  0.4821 -0.2113 -0.7530
  169MOL0     C22702  11.834   5.877   0.904  0.6469  0.4523 -0.6581
  169MOL0     C22703  11.907   5.961   1.003 -0.1148  0.4742 -0.0919
  169MOL0     O22704  12.048   5.972   0.982 -0.6494  0.4724  0.7968
  169MOL0     C22705  12.089   6.043   0.871  0.2807  0.3983  0.0321
  169MOL0     C22706  12.219   6.048   0.838 -0.8398 -0.5153 -1.2172
  169MOL0     C22707  12.275   6.099   0.723 -0.1067  0.1700  0.2370
  169MOL0     C22708  12.422   6.091   0.709  0.0996  0.0748 -1.0161
  169MOL0     C22709  12.188   6.178   0.640  0.2775 -0.1291  0.5059
  169MOL0     C22710  12.234   6.253   0.514  1.1245  0.3120  0.4385
  169MOL0     O22711  12.145   6.349   0.468  0.5378  0.3655  0.7440
  169MOL0     C22712  12.190   6.429   0.367  0.4728 -0.2620  0.5634
  169MOL0     C22713  12.197   6.386   0.231  0.1562  0.3669 -0.4052
  169MOL0     C22714  12.222   6.470   0.125 -0.1999  0.0743 -0.4576
  169MOL0     C22715  12.235   6.600   0.150 -0.4528  0.2092 -0.1725
  169MOL0     O22716  12.263   6.690   0.050  0.7196  0.1083  0.3293
  169MOL0     C22717  12.269   6.646  -0.089 -0.2001  0.1158 -0.1345
  169MOL0     C22718  12.269   6.769  -0.181 -0.2350  0.3019 -0.1361
  169MOL0     C22719  12.416   6.810  -0.198  0.2008 -0.0309 -0.7029
  169MOL0     C22720  12.425   6.936  -0.292  0.1175 -0.7651  0.5252
  169MOL0     C22721  12.346   7.055  -0.230  0.5751  0.3605 -0.3600
  169MOL0     C22722  12.346   7.175  -0.318  0.6047 -0.3183  1.0037
  169MOL0     C22723  12.275   7.291  -0.250  0.2296  0.2993  0.3779
  169MOL0     C22724  12.296   7.421  -0.332  0.2114  0.8973  0.0632
  169MOL0    Cl22725  12.470   7.474  -0.327  0.7588  0.0615 -0.0887
  169MOL0     C22726  12.214   6.649   0.278  0.1199  0.0797 -0.3270
  169MOL0     C22727  12.204   6.566   0.395 -0.2021 -1.0086 -0.1937
  169MOL0     O22728  12.336   6.221   0.456  0.0664 -0.1262  0.6035
  169MOL0     C22729  12.052   6.190   0.677  1.0396  0.1440 -0.1331
  169MOL0     C22730  12.001   6.128   0.794 -0.0190  1.0415  0.4335
  169MOL0     N22731  11.653   5.874   0.609  0.3003  0.1577 -0.0423
  169MOL0     N22732  11.613   5.841   0.493  0.7452 -0.3872  0.0531
  169MOL0     C22733  10.492   5.300   0.108 -1.0904  0.4009 -0.0430
  169MOL0     C22734  10.357   5.319   0.100  0.3744 -0.2138 -0.8645
  169MOL0     C22735   9.931   5.543   0.084  0.4550  0.2696 -0.6155
  169MOL0     C22736   9.886   5.415   0.125  0.0008 -0.2383  0.0510
  169MOL0     C22737   9.746   5.391   0.123  0.7935  0.5388 -0.0950
  169MOL0     C22738   9.651   5.490   0.100 -0.8238 -0.0210  0.5682
  169MOL0     O22739   9.518   5.452   0.092 -0.4779 -1.2483  0.1169
  169MOL0     C22740   9.421   5.548   0.159 -1.0434  0.6244  1.0165
  169MOL0     C22741   9.454   5.589   0.301 -0.1167 -0.6376 -0.3892
  169MOL0     C22742   9.397   5.478   0.387  0.1321 -0.0194  0.1267
  169MOL0     C22743   9.398   5.503   0.536  1.0626 -0.9257 -0.2882
  169MOL0     C22744   9.402   5.381   0.614  0.5408  0.9558 -0.1771
  169MOL0     C22745   9.401   5.273   0.676 -0.0748  0.3370 -0.4412
  169MOL0     C22746   9.699   5.615   0.081  0.9483  0.4281 -0.1314
  169MOL0     C22747   9.833   5.649   0.066 -0.0569  0.8222  0.2742
  169MOL0     H22748  10.354   5.657   0.122  1.4105 -0.0746  0.5940
  169MOL0     H22749  10.608   5.604   0.142 -0.3484 -1.0495 -0.4091
  169MOL0     H22750  10.749   5.188   0.128 -1.4383  0.1642  1.9116
  169MOL0     H22751  10.814   5.255  -0.025 -2.4137 -2.3987 -0.2427
  169MOL0     H22752  10.915   5.335   0.243  3.3425  1.2796 -0.1749
  169MOL0     H22753  10.975   5.194   0.158 -1.9182 -0.7122  0.5153
  169MOL0     H22754  11.040   5.386  -0.024  1.0676 -1.1017 -0.2239
  169MOL0     H22755  11.010   5.495   0.111  4.2701  0.3817 -1.4674
  169MOL0     H22756  11.219   5.278   0.151  2.8063  1.0516  0.7138
  169MOL0     H22757  11.237   5.428   0.057 -1.5138 -1.1418 -1.8547
  169MOL0     H22758  11.108   5.507   0.299  2.3843  0.9117  2.1923
  169MOL0     H22759  11.214   5.384   0.346 -0.1065  1.9455  1.8284
  169MOL0     H22760  11.416   5.482   0.238 -0.3885 -2.0926  3.9374
  169MOL0     H22761  11.319   5.609   0.169  0.1812 -2.4894 -1.1431
  169MOL0     H22762  11.277   5.714   0.383  1.1551  1.6752 -0.4568
  169MOL0     H22763  11.339   5.558   0.465 -1.1549  0.7351  0.3107
  169MOL0     H22764  11.503   5.749   0.292  3.5592 -1.8394 -0.5811
  169MOL0     H22765  11.544   5.601   0.366  2.2846  2.0920 -0.1425
  169MOL0     H22766  11.459   5.613   0.672  1.1725 -0.6538 -1.6645
  169MOL0     H22767  11.510   5.764   0.880  0.1276 -1.2924  0.7832
  169MOL0     H22768  11.675   5.696   0.869 -1.0977 -0.0799  0.4404
  169MOL0     H22769  11.643   5.890   1.019  1.5446 -2.8397 -0.4394
  169MOL0     H22770  11.650   5.989   0.867 -3.5741 -1.3284 -0.4132
  169MOL0     H22771  11.871   5.893   0.802 -1.8367  0.2725 -1.6624
  169MOL0     H22772  11.861   5.773   0.929  1.3042  0.6051 -0.6978
  169MOL0     H22773  11.891   5.911   1.099  0.5674 -0.0257 -0.2301
  169MOL0     H22774  11.858   6.058   1.008 -1.9409 -0.4039 -0.0344
  169MOL0     H22775  12.283   5.983   0.897 -2.4917 -0.5585  0.6236
  169MOL0     H22776  12.441   6.006   0.643  0.6472 -0.7947  0.2367
  169MOL0     H22777  12.465   6.183   0.668 -3.5693  1.8131 -1.3848
  169MOL0     H22778  12.477   6.076   0.802 -1.1830 -0.3515 -0.3136
  169MOL0     H22779  12.177   6.281   0.218  1.3397  0.0765  0.0116
  169MOL0     H22780  12.243   6.435   0.025 -0.0634 -3.7660  0.7320
  169MOL0     H22781  12.361   6.588  -0.100 -0.2462  0.3268 -2.0333
  169MOL0     H22782  12.187   6.578  -0.113  1.4308 -1.5238 -1.3981
  169MOL0     H22783  12.217   6.748  -0.275 -1.4008 -0.5507  0.6705
  169MOL0     H22784  12.208   6.842  -0.128 -0.2592 -0.4114  0.8624
  169MOL0     H22785  12.474   6.729  -0.244 -0.2676 -0.4763 -0.5137
  169MOL0     H22786  12.472   6.832  -0.107  1.4114 -0.8771 -1.2107
  169MOL0     H22787  12.528   6.972  -0.304 -0.8778  1.8729 -1.1215
  169MOL0     H22788  12.395   6.908  -0.394  2.1397 -2.2424  0.2663
  169MOL0     H22789  12.390   7.074  -0.131 -1.4911 -2.5828  1.2689
  169MOL0     H22790  12.242   7.034  -0.203  0.1116  0.6069 -1.8727
  169MOL0     H22791  12.453   7.198  -0.331  0.5236 -0.5987 -0.2692
  169MOL0     H22792  12.298   7.156  -0.414  0.7929 -4.2126  1.5211
  169MOL0     H22793  12.320   7.313  -0.152  1.1204  2.3822 -0.4284
  169MOL0     H22794  12.168   7.274  -0.235  0.4133 -0.3298  1.0013
  169MOL0     H22795  12.235   7.502  -0.293  0.5367  0.5397  1.3747
  169MOL0     H22796  12.265   7.404  -0.435 -3.2423  1.8260  0.8376
  169MOL0     H22797  12.230   6.754   0.301  1.6225 -0.1899 -0.0429
  169MOL0     H22798  12.202   6.627   0.485 -1.8713  0.7402 -1.3331
  169MOL0     H22799  11.982   6.257   0.627 -0.8633 -1.2734  0.5376
  169MOL0     H22800  11.893   6.129   0.808 -0.2448 -3.6926  0.5589
  169MOL0     H22801  10.516   5.196   0.129 -2.8199 -0.2770 -1.2273
  169MOL0     H22802  10.286   5.237   0.091 -0.0938  0.2970 -2.0836
  169MOL0     H22803   9.961   5.338   0.138  0.7378  0.6260  1.1334
  169MOL0     H22804   9.709   5.289   0.123 -0.5979  1.0013  1.4997
  169MOL0     H22805   9.419   5.632   0.089  1.2906 -0.7849 -0.9315
  169MOL0     H22806   9.326   5.495   0.163  0.8584 -3.3878 -0.3468
  169MOL0     H22807   9.409   5.687   0.319 -0.0426 -0.8147  0.8354
  169MOL0     H22808   9.563   5.602   0.310 -0.0209 -2.2337  1.2471
  169MOL0     H22809   9.461   5.389   0.377 -1.3130 -1.0925  0.1618
  169MOL0     H22810   9.298   5.439   0.362 -0.0878 -0.9280  2.2008
  169MOL0     H22811   9.311   5.567   0.556  3.2570  2.0033  0.4834
  169MOL0     H22812   9.484   5.561   0.569  1.1489 -3.1076  3.9908
  169MOL0     H22813   9.422   5.173   0.709  4.3076  1.2113  0.0441
  169MOL0     H22814   9.632   5.699   0.063  1.0722  0.3704 -0.8953
  169MOL0     H22815   9.873   5.750   0.066  1.4290  0.2772 -0.8052
  170MOL0     O22816   8.812   7.425   8.420  0.6801 -0.6409 -0.1413
  170MOL0     C22817   8.834   7.323   8.485 -0.5217 -0.0537 -0.3385
  170MOL0     O22818   8.765   7.276   8.598 -0.1294 -0.0098 -0.0007
  170MOL0     C22819   8.636   7.325   8.630  0.6661 -0.4754  0.8189
  170MOL0     C22820   8.533   7.359   8.533  0.4657  0.6158 -0.2675
  170MOL0     C22821   8.410   7.406   8.568  0.3616 -0.2210 -0.5119
  170MOL0     C22822   8.381   7.431   8.701 -0.2659 -0.0361  0.3422
  170MOL0     O22823   8.254   7.471   8.737 -0.0463  0.2724 -0.2157
  170MOL0     C22824   8.210   7.420   8.871  0.4489  0.1640 -0.4677
  170MOL0     C22825   8.057   7.442   8.879 -0.7313 -0.6388  0.6398
  170MOL0     C22826   8.014   7.557   8.974 -0.2076  0.0812 -0.7152
  170MOL0     C22827   8.049   7.703   8.922  0.0185 -1.2310 -0.4007
  170MOL0     C22828   7.949   7.804   8.969 -0.7267 -0.7684  0.0228
  170MOL0     C22829   7.826   7.819   8.885  0.1108 -0.7877  0.0920
  170MOL0     C22830   7.752   7.952   8.930 -0.7412 -0.0443  0.1088
  170MOL0     C22831   7.637   7.975   8.844  0.5559  0.4683  0.8859
  170MOL0     N22832   7.512   7.950   8.921  0.8981 -0.1285  0.6191
  170MOL0     C22833   7.499   7.836   9.000 -0.3103 -0.8234  0.0656
  170MOL0     C22834   7.377   7.837   9.046 -0.5648  0.3465 -0.7186
  170MOL0     C22835   7.309   7.731   9.128 -0.1399 -0.0215  0.1448
  170MOL0     C22836   7.252   7.795   9.263  0.3211  0.5101  0.4397
  170MOL0     C22837   7.127   7.706   9.303 -1.0416 -0.2352 -0.4245
  170MOL0     C22838   7.059   7.742   9.441  0.1282  0.5518  1.2479
  170MOL0     O22839   7.123   7.693   9.553  0.1844 -0.6062 -0.6460
  170MOL0     C22840   7.047   7.675   9.667 -0.5732 -0.3713 -1.0532
  170MOL0     C22841   6.929   7.739   9.692 -0.2779  0.6670 -0.3829
  170MOL0     C22842   6.862   7.720   9.818  0.3346 -0.0143  0.6020
  170MOL0     C22843   6.732   7.801   9.841 -0.4070 -0.1255  0.4943
  170MOL0     C22844   6.920   7.619   9.910  0.2981 -0.1811 -0.1513
  170MOL0     C22845   6.848   7.581  10.040 -0.7579  0.3767 -0.2150
  170MOL0     O22846   6.797   7.692  10.108 -0.2730  0.3205 -0.0778
  170MOL0     C22847   6.747   7.690  10.233 -0.8782  0.6710 -1.0945
  170MOL0     C22848   6.643   7.608  10.268 -0.2653  0.6712 -0.7914
  170MOL0     C22849   6.589   7.612  10.399  0.1859  0.2807 -0.3481
  170MOL0     C22850   6.653   7.679  10.500 -0.9371 -0.0200 -0.0017
  170MOL0     O22851   6.603   7.679  10.629 -0.3931  0.4010 -0.5153
  170MOL0     C22852   6.654   7.768  10.728 -0.5818  0.8277 -0.1324
  170MOL0     C22853   6.579   7.753  10.859  0.8478  0.1939 -0.2463
  170MOL0     C22854   6.548   7.608  10.907  0.7575 -0.1862  0.5258
  170MOL0     C22855   6.672   7.508  10.897  0.5860 -0.4840 -0.4809
  170MOL0     C22856   6.790   7.562  10.987  1.4376 -0.5986 -0.1816
  170MOL0     C22857   6.771   7.529  11.137 -0.3911 -0.3090 -0.1294
  170MOL0     C22858   6.790   7.376  11.162  0.4073 -0.2447  0.5686
  170MOL0     C22859   6.759   7.327  11.303 -0.1607  0.0150 -0.6190
  170MOL0    Cl22860   6.587   7.343  11.350 -0.1128 -0.2707  0.6741
  170MOL0     C22861   6.760   7.763  10.468 -0.2436  0.0185  0.3894
  170MOL0     C22862   6.808   7.770  10.328 -0.4021  0.2854 -0.0709
  170MOL0     O22863   6.838   7.462  10.066 -0.1732 -0.2685 -0.2399
  170MOL0     C22864   7.034   7.552   9.882  0.3511  0.0710  1.2359
  170MOL0     C22865   7.102   7.587   9.761 -0.7355  0.2588 -1.0623
  170MOL0     N22866   7.320   7.948   8.997 -0.5812 -0.9809 -0.1767
  170MOL0     N22867   7.398   8.020   8.918  1.5333  0.0890 -0.1371
  170MOL0     C22868   8.482   7.402   8.795  0.3605  0.0540  0.2247
  170MOL0     C22869   8.603   7.348   8.761  0.5177  0.6482  0.1560
  170MOL0     C22870   8.955   7.252   8.456  0.9975  0.2997 -0.2351
  170MOL0     C22871   9.057   7.304   8.389 -0.2380 -0.2993 -0.1532
  170MOL0     C22872   9.182   7.240   8.382  1.0040  0.1799  0.2874
  170MOL0     C22873   9.197   7.114   8.439 -0.5821  0.6294 -0.0317
  170MOL0     O22874   9.328   7.055   8.438 -0.1905  0.1208 -0.0017
  170MOL0     C22875   9.367   6.933   8.511 -0.2057  0.1034 -0.0762
  170MOL0     C22876   9.406   6.966   8.656 -0.0373 -0.1945 -0.4514
  170MOL0     C22877   9.545   6.912   8.700  0.2358  0.1457  0.3499
  170MOL0     C22878   9.536   6.757   8.693 -0.0088 -0.0899  0.7072
  170MOL0     C22879   9.445   6.697   8.792  0.6675  0.1049  0.7252
  170MOL0     C22880   9.376   6.644   8.874  0.3162  1.0608 -0.3092
  170MOL0     C22881   9.087   7.049   8.506  0.3906 -0.5415  0.6327
  170MOL0     C22882   8.970   7.120   8.507  0.1069 -0.5353 -0.7090
  170MOL0     H22883   8.560   7.350   8.428 -2.6325 -2.7906 -0.9846
  170MOL0     H22884   8.327   7.439   8.506 -0.9996  0.7484  1.6990
  170MOL0     H22885   8.236   7.314   8.861  2.3953  0.7050 -2.0329
  170MOL0     H22886   8.262   7.453   8.961  1.1840 -1.1668 -0.3829
  170MOL0     H22887   8.015   7.454   8.778  0.7459 -2.4218 -0.2464
  170MOL0     H22888   8.021   7.349   8.925 -1.0572 -0.3761  0.9154
  170MOL0     H22889   7.905   7.545   8.974  0.0364 -4.6185  2.1735
  170MOL0     H22890   8.042   7.528   9.075 -1.0325  0.1183 -0.4667
  170MOL0     H22891   8.147   7.736   8.958 -0.1429  2.1106 -2.6553
  170MOL0     H22892   8.051   7.690   8.814 -1.4836 -1.5423 -0.4160
  170MOL0     H22893   7.927   7.800   9.076 -2.0283  2.8132  0.0106
  170MOL0     H22894   8.010   7.892   8.951  0.6599 -1.7418 -0.1790
  170MOL0     H22895   7.850   7.819   8.778 -1.1427 -1.4265 -0.2065
  170MOL0     H22896   7.755   7.737   8.902 -0.9934 -0.3566 -2.0539
  170MOL0     H22897   7.734   7.957   9.038 -0.1766 -0.6484  0.2309
  170MOL0     H22898   7.819   8.032   8.898  0.0830 -0.7206  0.0996
  170MOL0     H22899   7.636   7.916   8.752  2.2273 -0.3596  1.3511
  170MOL0     H22900   7.617   8.079   8.818 -2.8808  0.0209  1.1755
  170MOL0     H22901   7.564   7.754   9.028  0.5251  0.4962  2.2296
  170MOL0     H22902   7.221   7.696   9.073  0.5199  0.3507 -1.1907
  170MOL0     H22903   7.372   7.649   9.163 -0.5480 -0.2064  0.4558
  170MOL0     H22904   7.215   7.898   9.255  1.6921  0.8689 -2.6607
  170MOL0     H22905   7.335   7.794   9.334  0.3490  1.2609  0.4225
  170MOL0     H22906   7.160   7.601   9.304  0.6752  0.2619 -0.5879
  170MOL0     H22907   7.047   7.732   9.234 -2.4919  3.4797  2.3679
  170MOL0     H22908   6.965   7.685   9.438  1.5074 -1.9330 -2.0095
  170MOL0     H22909   7.047   7.850   9.451  0.7385  1.0691 -2.3960
  170MOL0     H22910   6.893   7.800   9.610 -1.1298  0.1449 -0.4067
  170MOL0     H22911   6.705   7.835   9.741 -0.6186 -1.5680  0.0353
  170MOL0     H22912   6.648   7.743   9.880  0.0285 -1.0808  0.0366
  170MOL0     H22913   6.745   7.882   9.914  0.3447 -0.1882  0.4427
  170MOL0     H22914   6.611   7.538  10.192 -1.8734  0.5933 -0.0919
  170MOL0     H22915   6.507   7.545  10.424 -0.1509  0.0491 -1.9690
  170MOL0     H22916   6.760   7.743  10.725 -0.9400 -0.6787 -1.8529
  170MOL0     H22917   6.648   7.875  10.705 -3.0765  1.2752  2.0954
  170MOL0     H22918   6.627   7.803  10.944 -3.2390  0.5411  2.1277
  170MOL0     H22919   6.488   7.813  10.848 -0.7489 -1.9628  0.4815
  170MOL0     H22920   6.472   7.558  10.847  0.5999 -0.2337  0.7675
  170MOL0     H22921   6.510   7.600  11.009  2.4163 -2.2424  1.0379
  170MOL0     H22922   6.639   7.408  10.924 -2.3990 -0.0682 -2.0866
  170MOL0     H22923   6.704   7.500  10.793 -1.4341  1.5485 -1.3544
  170MOL0     H22924   6.801   7.670  10.971 -1.2719 -0.7304 -4.4038
  170MOL0     H22925   6.880   7.520  10.941 -0.1349 -2.9609 -1.2938
  170MOL0     H22926   6.853   7.581  11.187  0.2532 -0.6523 -0.8096
  170MOL0     H22927   6.667   7.543  11.169 -0.0390 -0.8190  1.3346
  170MOL0     H22928   6.895   7.355  11.142  0.4834  2.0806 -2.0296
  170MOL0     H22929   6.733   7.310  11.096 -0.5904  0.7658  0.3883
  170MOL0     H22930   6.813   7.368  11.389 -0.6211 -1.8802  0.6359
  170MOL0     H22931   6.783   7.220  11.304 -0.6648 -0.0968 -0.5669
  170MOL0     H22932   6.806   7.822  10.547 -2.9335 -1.0364  2.9414
  170MOL0     H22933   6.890   7.828  10.285  1.5420 -3.1448 -1.4325
  170MOL0     H22934   7.078   7.484   9.955 -0.4373  0.4161  2.0503
  170MOL0     H22935   7.198   7.545   9.733  0.9794  1.0849  2.8759
  170MOL0     H22936   8.473   7.426   8.900 -0.6365 -3.6877  1.1645
  170MOL0     H22937   8.682   7.326   8.831  1.8886 -1.7760 -1.9604
  170MOL0     H22938   9.064   7.404   8.348  0.5504 -0.1691  0.2803
  170MOL0     H22939   9.273   7.295   8.361  0.9901  1.3430  2.9123
  170MOL0     H22940   9.291   6.854   8.504 -0.7719  0.6737 -0.5119
  170MOL0     H22941   9.457   6.900   8.460 -0.0995  0.5273 -0.1645
  170MOL0     H22942   9.329   6.926   8.722  0.6386 -1.2347 -0.2861
  170MOL0     H22943   9.408   7.075   8.664 -0.4184 -0.0298 -2.0956
  170MOL0     H22944   9.572   6.933   8.804 -0.3855 -2.3753  1.1043
  170MOL0     H22945   9.625   6.946   8.635  1.1752  1.2392  1.9859
  170MOL0     H22946   9.634   6.713   8.713 -0.0694  0.1368  1.5281
  170MOL0     H22947   9.502   6.722   8.595 -3.6597  1.9704  1.0706
  170MOL0     H22948   9.309   6.603   8.947  1.8814  0.5349  0.8950
  170MOL0     H22949   9.083   6.945   8.536  0.6519 -0.2250  1.8122
  170MOL0     H22950   8.881   7.077   8.554  1.2169 -2.2182 -0.0565
  171MOL0     O22951   5.232   8.573   8.910 -0.8554 -0.8806  0.1983
  171MOL0     C22952   5.290   8.487   8.842  0.2527  1.0976 -0.2329
  171MOL0     O22953   5.385   8.505   8.750  0.4856  0.1981 -0.0877
  171MOL0     C22954   5.435   8.626   8.736  0.8609 -0.8726 -0.7834
  171MOL0     C22955   5.554   8.659   8.797 -0.9204  0.1667  0.6531
  171MOL0     C22956   5.612   8.785   8.760  0.2621  1.1815  0.6528
  171MOL0     C22957   5.555   8.871   8.671 -0.9465 -0.9805  0.0189
  171MOL0     O22958   5.613   8.997   8.651  0.5388 -0.0071  0.9064
  171MOL0     C22959   5.535   9.100   8.583 -0.4761 -0.2080  0.3595
  171MOL0     C22960   5.612   9.236   8.559  0.4313 -0.3506  0.8457
  171MOL0     C22961   5.672   9.286   8.690  0.6520  0.2347 -1.1075
  171MOL0     C22962   5.577   9.316   8.810  0.2092  0.1449  0.5256
  171MOL0     C22963   5.488   9.444   8.800 -1.0524  0.6773  0.4535
  171MOL0     C22964   5.415   9.470   8.938  0.3853  0.2576  0.9777
  171MOL0     C22965   5.273   9.540   8.931 -1.1636 -0.8855  0.4579
  171MOL0     C22966   5.276   9.678   8.865  0.3765 -0.1412  0.9869
  171MOL0     N22967   5.155   9.752   8.864  0.8045  1.2704  0.2692
  171MOL0     C22968   5.027   9.689   8.871 -0.0771 -0.1984 -0.4844
  171MOL0     C22969   4.946   9.774   8.807  0.1841  0.5072 -0.2604
  171MOL0     C22970   4.797   9.755   8.780  0.3255  0.1136  0.2413
  171MOL0     C22971   4.753   9.613   8.738 -0.8343  1.0027  0.4333
  171MOL0     C22972   4.837   9.552   8.628  0.4204  0.5225 -0.4206
  171MOL0     C22973   4.815   9.621   8.493  0.1399  0.4769 -0.4419
  171MOL0     O22974   4.841   9.528   8.387  0.6953 -0.0525 -0.0678
  171MOL0     C22975   4.969   9.473   8.367  0.3360 -0.1485 -0.7711
  171MOL0     C22976   5.092   9.524   8.413 -0.0327 -0.0373 -0.3770
  171MOL0     C22977   5.216   9.463   8.389 -0.3343  0.2965  0.6635
  171MOL0     C22978   5.344   9.524   8.438 -0.2035 -0.5182  0.0795
  171MOL0     C22979   5.204   9.348   8.304  0.3865 -1.6052  0.3342
  171MOL0     C22980   5.313   9.259   8.270  1.1477  0.1375  0.8468
  171MOL0     O22981   5.353   9.278   8.142  0.0074  0.5919  0.1112
  171MOL0     C22982   5.470   9.227   8.088  0.9622  0.5880  0.3011
  171MOL0     C22983   5.543   9.311   8.000 -0.3899 -1.4461 -0.1119
  171MOL0     C22984   5.649   9.245   7.927  0.0294 -0.7035 -0.7924
  171MOL0     C22985   5.695   9.123   7.963 -0.1346  0.1284  0.0648
  171MOL0     O22986   5.812   9.078   7.910 -0.3367  0.0568 -0.3920
  171MOL0     C22987   5.899   9.140   7.814 -0.9283 -0.3439 -0.2240
  171MOL0     C22988   6.009   9.228   7.874  0.3432  0.0834 -0.0625
  171MOL0     C22989   6.102   9.274   7.761 -1.1145  1.0255  0.6155
  171MOL0     C22990   6.240   9.310   7.824 -0.2376 -0.1301  0.6544
  171MOL0     C22991   6.341   9.335   7.727  0.0451  0.3489  0.7831
  171MOL0     C22992   6.396   9.219   7.641 -0.0653  0.5699 -0.9892
  171MOL0     C22993   6.519   9.281   7.569  0.9834 -0.3549 -0.1478
  171MOL0     C22994   6.549   9.205   7.439 -0.3210 -0.6027  0.2333
  171MOL0    Cl22995   6.695   9.251   7.347  0.3818 -0.2671  0.0748
  171MOL0     C22996   5.630   9.047   8.052 -0.8983  0.5505 -0.8857
  171MOL0     C22997   5.512   9.094   8.106 -0.3587  0.6563 -0.0043
  171MOL0     O22998   5.328   9.161   8.341 -1.2327 -0.2409  0.3513
  171MOL0     C22999   5.089   9.312   8.240  0.7389  0.2474 -0.3974
  171MOL0     C23000   4.967   9.358   8.289  0.1114  0.0812 -0.4701
  171MOL0     N23001   5.018   9.890   8.771  0.4027  1.1169 -0.0388
  171MOL0     N23002   5.140   9.875   8.808 -0.4467 -0.0282  0.6787
  171MOL0     C23003   5.439   8.832   8.606  0.4508 -0.2179 -0.4301
  171MOL0     C23004   5.379   8.712   8.636  1.0137  0.3062  1.3029
  171MOL0     C23005   5.255   8.341   8.866 -1.1618  0.9513  1.2264
  171MOL0     C23006   5.318   8.228   8.813 -0.4001 -0.0454  0.4276
  171MOL0     C23007   5.286   8.093   8.858  0.4404  0.2035  0.5280
  171MOL0     C23008   5.179   8.068   8.947 -0.3159  0.5142  0.1291
  171MOL0     O23009   5.171   7.937   8.977 -0.3466 -0.1044 -0.6281
  171MOL0     C23010   5.101   7.907   9.104 -0.9687 -0.6315  0.1107
  171MOL0     C23011   5.051   7.762   9.102 -0.0663 -0.4053 -0.0333
  171MOL0     C23012   4.904   7.757   9.056 -0.5085  0.4956 -0.0019
  171MOL0     C23013   4.842   7.612   9.054  0.6232 -0.6839 -0.4735
  171MOL0     C23014   4.818   7.563   9.188  0.3763  0.3784  0.8439
  171MOL0     C23015   4.798   7.528   9.306 -0.4685  0.2670  0.3713
  171MOL0     C23016   5.117   8.182   9.001  0.3345 -0.9094 -0.3582
  171MOL0     C23017   5.148   8.311   8.954 -1.0400 -0.5743 -0.5993
  171MOL0     H23018   5.622   8.594   8.852 -0.1227 -0.0787 -0.5787
  171MOL0     H23019   5.703   8.803   8.815  0.6533  0.3063  0.3163
  171MOL0     H23020   5.506   9.072   8.481  1.9784  0.2860 -0.5400
  171MOL0     H23021   5.438   9.114   8.632 -1.1387 -0.3648 -0.8727
  171MOL0     H23022   5.684   9.237   8.476 -2.0582  3.0808 -1.5894
  171MOL0     H23023   5.530   9.301   8.527 -1.9662 -3.9710 -0.9151
  171MOL0     H23024   5.739   9.207   8.724  2.6207  1.8832 -0.9271
  171MOL0     H23025   5.730   9.376   8.666  0.6018  0.3940 -0.6468
  171MOL0     H23026   5.524   9.228   8.849  1.1552 -1.6806 -1.9926
  171MOL0     H23027   5.646   9.330   8.893 -0.0615 -0.4616  0.8581
  171MOL0     H23028   5.558   9.526   8.778  0.5037 -0.5085  0.7922
  171MOL0     H23029   5.418   9.432   8.717 -1.1998  2.1765  0.3296
  171MOL0     H23030   5.386   9.375   8.984 -2.1540  0.2634 -0.4690
  171MOL0     H23031   5.479   9.527   9.007  4.3173 -3.0748  0.4973
  171MOL0     H23032   5.205   9.473   8.878 -1.0212 -1.2219  0.6962
  171MOL0     H23033   5.241   9.552   9.035 -0.2693 -1.0958  0.7631
  171MOL0     H23034   5.304   9.661   8.760  0.5085  0.7537  0.8754
  171MOL0     H23035   5.348   9.732   8.927 -0.4968 -0.4659  2.3355
  171MOL0     H23036   5.000   9.599   8.925  1.6179  0.6688  2.0119
  171MOL0     H23037   4.744   9.790   8.869 -0.9571  1.4422 -0.9890
  171MOL0     H23038   4.764   9.834   8.711 -2.8328  0.7801  2.3020
  171MOL0     H23039   4.649   9.601   8.705 -0.4915 -2.8468  0.2727
  171MOL0     H23040   4.780   9.546   8.819  2.1021 -0.8790 -1.8788
  171MOL0     H23041   4.815   9.446   8.613 -0.1326  0.5828 -0.0674
  171MOL0     H23042   4.945   9.542   8.646  0.2099 -1.5683 -0.0492
  171MOL0     H23043   4.878   9.709   8.481  0.0654  0.8086  1.3199
  171MOL0     H23044   4.710   9.651   8.484  0.9175  3.9685  0.5607
  171MOL0     H23045   5.096   9.618   8.468 -2.1501 -0.0257 -0.1309
  171MOL0     H23046   5.424   9.454   8.413  0.9559  0.0280  2.1386
  171MOL0     H23047   5.355   9.618   8.384 -2.4430  0.7591  1.7005
  171MOL0     H23048   5.352   9.538   8.546  1.5736 -2.5057  0.2629
  171MOL0     H23049   5.513   9.413   7.980 -1.3060 -1.3528  1.5253
  171MOL0     H23050   5.707   9.310   7.862 -1.2362  0.1632 -1.0759
  171MOL0     H23051   5.944   9.073   7.740  0.4566 -1.4846  1.5682
  171MOL0     H23052   5.837   9.201   7.748  1.3731  0.3601 -1.8509
  171MOL0     H23053   5.963   9.318   7.916 -0.7694 -0.0080 -1.0220
  171MOL0     H23054   6.061   9.171   7.952 -0.9314  1.2520  1.7189
  171MOL0     H23055   6.061   9.357   7.703 -2.0736  0.5010  0.5299
  171MOL0     H23056   6.114   9.191   7.691 -3.6239 -0.3310  1.6764
  171MOL0     H23057   6.226   9.406   7.876  0.7676  0.5224 -0.2618
  171MOL0     H23058   6.277   9.230   7.890  2.1931 -0.9599 -1.5707
  171MOL0     H23059   6.417   9.387   7.786 -4.3398  3.0637  4.7407
  171MOL0     H23060   6.300   9.410   7.659  2.5637  1.6767  0.6203
  171MOL0     H23061   6.430   9.136   7.705 -2.2122 -0.3629 -0.9799
  171MOL0     H23062   6.331   9.185   7.560 -0.9193  2.6729 -1.2518
  171MOL0     H23063   6.601   9.299   7.639 -1.0652  1.4282  1.9719
  171MOL0     H23064   6.490   9.377   7.526 -1.3088 -0.3967  1.0970
  171MOL0     H23065   6.466   9.219   7.369  2.1126  0.7840 -2.5934
  171MOL0     H23066   6.547   9.097   7.458 -1.5704 -0.7139 -0.4225
  171MOL0     H23067   5.668   8.946   8.067 -2.2970 -0.2836 -2.5283
  171MOL0     H23068   5.447   9.035   8.170 -2.3209  0.2655 -2.2383
  171MOL0     H23069   5.088   9.224   8.176 -1.8538  1.9383 -2.9314
  171MOL0     H23070   4.876   9.315   8.247  0.2242  0.0355 -0.6723
  171MOL0     H23071   5.392   8.907   8.543 -2.0429  0.4645  2.0393
  171MOL0     H23072   5.298   8.668   8.579  1.0409 -3.0484  3.5594
  171MOL0     H23073   5.407   8.238   8.752  1.5036  0.3131  3.0949
  171MOL0     H23074   5.341   8.009   8.818 -0.1597 -0.4997  1.1488
  171MOL0     H23075   5.173   7.925   9.184 -0.5425 -0.6974 -0.2521
  171MOL0     H23076   5.012   7.963   9.133 -1.5615 -2.0247  1.1169
  171MOL0     H23077   5.060   7.731   9.206  0.2003  1.4135  0.5028
  171MOL0     H23078   5.117   7.696   9.045  0.4162 -1.9454  2.1839
  171MOL0     H23079   4.895   7.792   8.953 -3.0319 -0.5506 -0.2200
  171MOL0     H23080   4.855   7.832   9.120  2.6386  2.0820  0.7216
  171MOL0     H23081   4.905   7.549   8.991 -0.7006 -0.2639 -2.2944
  171MOL0     H23082   4.747   7.615   9.000  1.1225  0.2568 -1.3162
  171MOL0     H23083   4.786   7.527   9.413 -3.9900  2.3553  0.1569
  171MOL0     H23084   5.037   8.182   9.074  0.0244  2.7815 -0.5082
  171MOL0     H23085   5.088   8.388   9.001 -0.5306 -0.6896  0.2598
  172MOL0     O23086   0.361   9.289   4.089  0.0564 -0.2426 -0.3792
  172MOL0     C23087   0.363   9.375   4.171  0.6575 -0.3956  0.2126
  172MOL0     O23088   0.271   9.396   4.273  0.3212  0.1121  0.0303
  172MOL0     C23089   0.169   9.316   4.302  1.2279 -0.3216 -0.4047
  172MOL0     C23090   0.094   9.224   4.224  0.7657  0.1053  0.6523
  172MOL0     C23091  -0.016   9.151   4.274  0.3871 -0.6792 -0.3817
  172MOL0     C23092  -0.035   9.168   4.414  0.2663  0.1629 -0.4044
  172MOL0     O23093  -0.136   9.098   4.464 -0.1642 -0.6877  0.1186
  172MOL0     C23094  -0.093   8.960   4.493 -0.0549  0.1225 -1.0196
  172MOL0     C23095  -0.191   8.889   4.577  0.8570  0.0773 -0.0119
  172MOL0     C23096  -0.123   8.780   4.649 -0.3430  0.4047 -0.1730
  172MOL0     C23097  -0.026   8.822   4.755  0.0769  1.1852 -0.4610
  172MOL0     C23098  -0.075   8.935   4.847 -0.6152  1.0734 -0.3017
  172MOL0     C23099  -0.019   8.935   4.987 -0.6894 -0.3682 -0.5712
  172MOL0     C23100  -0.075   9.045   5.072 -0.2353  0.5345  0.5839
  172MOL0     C23101  -0.078   9.194   5.012 -0.0666  0.0243 -0.2346
  172MOL0     N23102  -0.197   9.214   4.928 -0.6721 -0.2160  1.0004
  172MOL0     C23103  -0.331   9.205   4.966 -0.3474 -0.2283  0.2367
  172MOL0     C23104  -0.398   9.224   4.850 -0.6057 -0.0256 -1.2979
  172MOL0     C23105  -0.550   9.221   4.857 -0.0204  1.0954 -0.0945
  172MOL0     C23106  -0.618   9.101   4.910 -0.3917 -0.0616  0.6578
  172MOL0     C23107  -0.575   8.974   4.825  0.8152  0.6600 -0.5966
  172MOL0     C23108  -0.684   8.874   4.849  0.5594  0.1271 -0.3674
  172MOL0     O23109  -0.708   8.844   4.995 -0.2080  1.2370 -0.7877
  172MOL0     C23110  -0.803   8.748   5.027 -1.1835  0.5383  0.2613
  172MOL0     C23111  -0.894   8.691   4.936  0.9409 -0.6890  0.0954
  172MOL0     C23112  -0.982   8.592   4.981  0.2867 -0.1871 -0.2971
  172MOL0     C23113  -1.093   8.557   4.874 -0.4311  0.2347 -0.0331
  172MOL0     C23114  -0.969   8.548   5.118 -0.3773  0.4241  0.4488
  172MOL0     C23115  -1.044   8.431   5.160  0.3057 -0.1128  0.7415
  172MOL0     O23116  -1.052   8.398   5.288 -0.3914 -0.3201  0.6567
  172MOL0     C23117  -1.113   8.279   5.312  0.4701  0.4845 -0.6104
  172MOL0     C23118  -1.039   8.166   5.351  0.5414  0.5605 -0.3781
  172MOL0     C23119  -1.078   8.032   5.369 -0.2015 -0.0770  0.1752
  172MOL0     C23120  -1.215   8.010   5.347  0.3003  0.1207 -0.0477
  172MOL0     O23121  -1.264   7.878   5.351  0.2293 -0.2151 -0.3815
  172MOL0     C23122  -1.400   7.851   5.389 -0.3888  0.0269 -0.2349
  172MOL0     C23123  -1.417   7.694   5.402 -0.0980 -0.2649 -0.9549
  172MOL0     C23124  -1.380   7.659   5.551 -0.3699 -0.0086  0.7655
  172MOL0     C23125  -1.454   7.548   5.616 -0.3605 -0.5254 -0.2025
  172MOL0     C23126  -1.412   7.404   5.568  0.6639  0.1854 -0.9113
  172MOL0     C23127  -1.266   7.375   5.567 -0.1026  0.0491 -0.3738
  172MOL0     C23128  -1.188   7.384   5.435  0.1461  0.3408 -0.2195
  172MOL0     C23129  -1.039   7.375   5.451 -0.2486 -0.6172  1.1439
  172MOL0    Cl23130  -0.959   7.372   5.290 -0.5388  0.2965 -0.4080
  172MOL0     C23131  -1.304   8.123   5.318  0.1396 -0.9381  1.0961
  172MOL0     C23132  -1.255   8.256   5.296  0.4661  0.0236 -0.4883
  172MOL0     O23133  -1.098   8.364   5.070 -0.2941  0.4019 -0.3489
  172MOL0     C23134  -0.877   8.605   5.205 -0.0574 -0.4277 -0.2157
  172MOL0     C23135  -0.791   8.704   5.163  0.4145  0.9029 -1.0997
  172MOL0     N23136  -0.310   9.239   4.745  0.3842 -0.8302  0.4183
  172MOL0     N23137  -0.190   9.235   4.787 -0.1453  0.5547  0.0201
  172MOL0     C23138   0.049   9.248   4.495  0.5185 -0.7953 -0.2998
  172MOL0     C23139   0.151   9.311   4.440 -0.5145 -1.7220  0.5245
  172MOL0     C23140   0.491   9.448   4.168  0.3874 -0.8115  0.6329
  172MOL0     C23141   0.606   9.419   4.092  0.3255 -0.0258 -0.5021
  172MOL0     C23142   0.720   9.487   4.106 -1.0055 -0.5905  0.4023
  172MOL0     C23143   0.727   9.596   4.188  0.1293  0.1326  0.4722
  172MOL0     O23144   0.847   9.656   4.203  0.2407 -0.8095  0.1441
  172MOL0     C23145   0.947   9.595   4.290  0.4514  0.3679 -0.9402
  172MOL0     C23146   1.079   9.571   4.214  0.5318 -0.6642  0.2732
  172MOL0     C23147   1.206   9.521   4.299 -0.1240  0.0866 -0.3869
  172MOL0     C23148   1.331   9.493   4.210 -0.1043 -0.4389 -0.1549
  172MOL0     C23149   1.439   9.471   4.308 -0.7643  0.5567  0.6308
  172MOL0     C23150   1.535   9.450   4.376 -0.5255  0.7803  0.3919
  172MOL0     C23151   0.618   9.637   4.258 -0.6440  0.0835 -0.7089
  172MOL0     C23152   0.499   9.560   4.259  1.0607 -0.0360  0.0138
  172MOL0     H23153   0.119   9.223   4.118 -2.1153 -5.2393 -0.3164
  172MOL0     H23154  -0.090   9.097   4.216 -4.4232  2.8859  1.7874
  172MOL0     H23155  -0.073   8.900   4.403  1.1009  0.1686 -0.8125
  172MOL0     H23156   0.006   8.970   4.539  1.0859  0.2872 -3.3140
  172MOL0     H23157  -0.238   8.960   4.645 -1.1279 -0.9961 -0.2035
  172MOL0     H23158  -0.268   8.846   4.513  1.8374 -0.4120 -0.8890
  172MOL0     H23159  -0.211   8.737   4.698 -0.6951 -0.8892 -1.8476
  172MOL0     H23160  -0.071   8.718   4.575 -1.5064  0.7496 -1.3245
  172MOL0     H23161  -0.008   8.732   4.816 -0.1449  0.7939 -0.9655
  172MOL0     H23162   0.071   8.839   4.706 -1.2707  1.4994 -3.1763
  172MOL0     H23163  -0.060   9.033   4.800 -3.2137  0.9026 -1.6478
  172MOL0     H23164  -0.181   8.927   4.874 -0.4051  3.3402  1.5296
  172MOL0     H23165  -0.047   8.845   5.042  0.0156 -0.5009 -0.4208
  172MOL0     H23166   0.089   8.953   4.977 -0.9316  1.6441  0.0420
  172MOL0     H23167  -0.175   9.016   5.104 -0.3006  0.4168  0.2810
  172MOL0     H23168  -0.010   9.045   5.160  1.8538 -2.4783 -0.7760
  172MOL0     H23169   0.020   9.221   4.971  1.0312 -2.2782  0.6790
  172MOL0     H23170  -0.092   9.265   5.095  1.2687  2.1179 -1.6868
  172MOL0     H23171  -0.344   9.180   5.070 -2.9742 -0.1514 -0.0143
  172MOL0     H23172  -0.602   9.305   4.905 -0.1880  2.0903 -1.9394
  172MOL0     H23173  -0.567   9.233   4.750  1.1729  0.3090 -0.3842
  172MOL0     H23174  -0.726   9.118   4.902 -0.6814 -2.2619 -1.8587
  172MOL0     H23175  -0.588   9.092   5.014  0.6880 -0.9244  0.2916
  172MOL0     H23176  -0.475   8.952   4.864  1.5823  0.4349 -2.5742
  172MOL0     H23177  -0.548   8.974   4.719  1.1476  0.1774 -0.5180
  172MOL0     H23178  -0.646   8.781   4.805  2.9685  1.0805 -0.4863
  172MOL0     H23179  -0.779   8.892   4.799  1.2745  1.5714 -1.2827
  172MOL0     H23180  -0.909   8.735   4.838  0.6779  1.6157  1.1161
  172MOL0     H23181  -1.121   8.645   4.815  0.7988  0.5683 -0.1459
  172MOL0     H23182  -1.059   8.483   4.802  0.6071 -0.2865  0.9605
  172MOL0     H23183  -1.186   8.525   4.923  0.2831  0.5563  1.5795
  172MOL0     H23184  -0.932   8.180   5.364  0.7514 -0.5142 -0.8691
  172MOL0     H23185  -1.010   7.951   5.394  0.2479  0.8854  2.3077
  172MOL0     H23186  -1.417   7.909   5.480  1.1822  2.3834 -1.3517
  172MOL0     H23187  -1.469   7.885   5.312 -1.8611  0.5510  1.2644
  172MOL0     H23188  -1.520   7.662   5.380 -0.3946  0.0537 -0.0697
  172MOL0     H23189  -1.355   7.634   5.335 -1.2623 -0.4157 -1.9346
  172MOL0     H23190  -1.383   7.743   5.621 -0.1369  1.0212 -0.4376
  172MOL0     H23191  -1.277   7.624   5.538 -1.3370 -2.1525 -2.4074
  172MOL0     H23192  -1.429   7.549   5.722 -0.9155 -2.4035 -0.0126
  172MOL0     H23193  -1.562   7.562   5.606 -0.6046 -0.9425  1.4824
  172MOL0     H23194  -1.467   7.366   5.481 -2.1855 -0.9779  1.2576
  172MOL0     H23195  -1.438   7.339   5.652  3.0140 -1.5938 -1.4528
  172MOL0     H23196  -1.220   7.443   5.639 -2.8305 -1.0366  2.5732
  172MOL0     H23197  -1.254   7.274   5.607  1.8793  0.5277  0.3645
  172MOL0     H23198  -1.216   7.481   5.393  0.4435  1.1470  1.3552
  172MOL0     H23199  -1.223   7.302   5.371  0.4783  1.5982 -2.1158
  172MOL0     H23200  -1.015   7.287   5.511  2.5421 -0.1197  0.8979
  172MOL0     H23201  -1.003   7.465   5.501  1.4934 -0.1042 -0.8774
  172MOL0     H23202  -1.411   8.122   5.302 -0.1924 -0.4359  3.0276
  172MOL0     H23203  -1.314   8.343   5.268 -0.4368 -0.1398  0.8168
  172MOL0     H23204  -0.869   8.551   5.298  0.9201  1.8614  1.1076
  172MOL0     H23205  -0.728   8.745   5.241  1.3638 -2.9737  0.4268
  172MOL0     H23206   0.028   9.265   4.600 -2.1685  0.0353 -0.8757
  172MOL0     H23207   0.217   9.379   4.494  0.7626 -0.3991 -2.4725
  172MOL0     H23208   0.608   9.329   4.031  2.4304  0.7733 -1.7206
  172MOL0     H23209   0.811   9.444   4.066 -0.0376  0.3087  1.5748
  172MOL0     H23210   0.966   9.661   4.375 -1.0971  0.6682 -0.7958
  172MOL0     H23211   0.924   9.490   4.312  1.7679 -0.0620 -1.5026
  172MOL0     H23212   1.101   9.663   4.159 -1.2597 -2.7032 -4.4402
  172MOL0     H23213   1.053   9.492   4.143 -0.6575 -0.0438 -0.0108
  172MOL0     H23214   1.177   9.436   4.360 -0.7182  1.4273  1.2833
  172MOL0     H23215   1.219   9.613   4.357  0.3583 -0.8281  0.9795
  172MOL0     H23216   1.353   9.574   4.140 -1.4025 -0.9580 -1.2081
  172MOL0     H23217   1.322   9.406   4.144 -1.3284  1.2473 -2.3543
  172MOL0     H23218   1.623   9.423   4.430  1.3581  2.2867 -1.7439
  172MOL0     H23219   0.618   9.730   4.316 -0.5525 -0.4427  0.1582
  172MOL0     H23220   0.414   9.608   4.307  0.1651  0.6711 -2.1549
  173MOL0     O23221   2.129   7.016   3.797  0.2198 -0.2891 -0.4448
  173MOL0     C23222   2.074   7.009   3.914 -0.9819 -0.4303  0.7161
  173MOL0     O23223   2.107   7.080   4.021  0.0721 -0.8332 -0.0363
  173MOL0     C23224   2.224   7.166   4.003  0.0812 -0.1302 -0.5949
  173MOL0     C23225   2.347   7.133   4.073  0.2045 -1.2007 -0.5966
  173MOL0     C23226   2.455   7.224   4.062 -0.0118  0.7955 -0.4657
  173MOL0     C23227   2.442   7.338   3.977 -0.7805 -0.0871  0.5363
  173MOL0     O23228   2.545   7.430   3.962  0.2089  0.5952 -0.4578
  173MOL0     C23229   2.643   7.385   3.872  0.1862  0.2374 -0.4175
  173MOL0     C23230   2.656   7.501   3.783 -0.2257  1.0001 -0.1189
  173MOL0     C23231   2.775   7.493   3.683  0.7127 -0.2351 -0.5119
  173MOL0     C23232   2.792   7.359   3.607  0.9043 -0.4531  0.0120
  173MOL0     C23233   2.869   7.393   3.477  0.0397  0.2407  0.1527
  173MOL0     C23234   2.809   7.318   3.359 -0.0744 -0.7452 -0.0261
  173MOL0     C23235   2.820   7.165   3.346 -0.1068 -1.2198 -0.4165
  173MOL0     C23236   2.726   7.099   3.248 -0.1681  0.1353  0.2975
  173MOL0     N23237   2.754   7.159   3.119 -0.0215  0.3015  0.8043
  173MOL0     C23238   2.862   7.112   3.049  0.5989 -1.2971  0.6667
  173MOL0     C23239   2.875   7.196   2.936 -0.5041 -0.0408 -0.6876
  173MOL0     C23240   2.941   7.176   2.799  0.2259  0.5879  0.8452
  173MOL0     C23241   3.003   7.305   2.749  0.9690  0.1105  0.6419
  173MOL0     C23242   3.161   7.315   2.774  1.3433 -0.5709  0.8817
  173MOL0     C23243   3.239   7.242   2.668 -1.0740 -0.4945  0.5256
  173MOL0     O23244   3.380   7.263   2.711  0.4857 -0.1481 -0.6008
  173MOL0     C23245   3.481   7.243   2.619  0.0147 -0.1627  0.3883
  173MOL0     C23246   3.462   7.225   2.484  0.2719  0.1431 -0.4475
  173MOL0     C23247   3.561   7.168   2.404 -0.0086  0.5730 -0.2447
  173MOL0     C23248   3.519   7.135   2.255 -0.4351  0.5371  0.1495
  173MOL0     C23249   3.683   7.129   2.455  0.2013 -1.4014  0.6552
  173MOL0     C23250   3.789   7.083   2.368 -0.3897  0.2924 -0.6471
  173MOL0     O23251   3.859   6.975   2.385  0.0868  0.5244 -0.4260
  173MOL0     C23252   3.887   6.891   2.282  0.0549  1.1198  0.0126
  173MOL0     C23253   3.984   6.792   2.308  0.1725  0.9492 -0.4815
  173MOL0     C23254   4.024   6.695   2.215 -0.5089  0.5165 -0.3096
  173MOL0     C23255   3.976   6.700   2.082  0.8758  0.3690  0.3193
  173MOL0     O23256   4.001   6.610   1.981  0.1658  0.1237 -0.3918
  173MOL0     C23257   4.083   6.497   2.020 -0.4752  0.5818 -0.5778
  173MOL0     C23258   4.000   6.383   2.086 -0.3759  0.6114  0.0560
  173MOL0     C23259   3.885   6.324   1.993  0.4604  0.7115  0.5090
  173MOL0     C23260   3.875   6.167   2.009 -0.1021 -1.6881 -0.4155
  173MOL0     C23261   3.764   6.114   1.923  0.6878  0.7317  0.0078
  173MOL0     C23262   3.636   6.138   1.992 -0.4686 -0.2645 -1.0702
  173MOL0     C23263   3.592   6.004   2.066  0.1210 -0.0231  0.1524
  173MOL0     C23264   3.450   6.011   2.117  0.1793 -0.8983 -0.0008
  173MOL0    Cl23265   3.443   6.133   2.247 -0.2535  0.5185  0.0131
  173MOL0     C23266   3.872   6.798   2.048 -0.1478 -0.2722  0.1765
  173MOL0     C23267   3.831   6.890   2.150 -0.1371  0.7088  0.4340
  173MOL0     O23268   3.807   7.154   2.266  0.0674 -0.0248 -0.9496
  173MOL0     C23269   3.707   7.155   2.593 -0.5686 -0.2083 -0.8027
  173MOL0     C23270   3.601   7.212   2.676 -0.1718 -0.2262  0.3577
  173MOL0     N23271   2.784   7.302   2.957 -0.0543  0.1968  0.2800
  173MOL0     N23272   2.723   7.276   3.067  1.5247  0.3240 -0.4542
  173MOL0     C23273   2.325   7.356   3.909  0.4160  1.1488  0.7921
  173MOL0     C23274   2.211   7.275   3.917 -1.0631  0.3998  0.9384
  173MOL0     C23275   1.970   6.902   3.925 -0.0300 -0.4535  0.5267
  173MOL0     C23276   1.924   6.834   3.813 -0.8552  0.4739  0.1431
  173MOL0     C23277   1.829   6.733   3.822  0.6067 -0.6115  0.8546
  173MOL0     C23278   1.761   6.708   3.944 -0.3222 -1.1831  0.6924
  173MOL0     O23279   1.663   6.611   3.944 -0.0580  0.3734 -0.1233
  173MOL0     C23280   1.686   6.497   4.032 -1.4363  0.1198  0.4698
  173MOL0     C23281   1.581   6.392   3.992  0.2355 -0.9684  0.4726
  173MOL0     C23282   1.617   6.249   4.026 -0.0668  0.5841 -0.0662
  173MOL0     C23283   1.538   6.144   3.944  0.3254 -0.3003 -0.2169
  173MOL0     C23284   1.574   6.144   3.800  0.2024 -0.1216 -0.6612
  173MOL0     C23285   1.590   6.152   3.683  0.1087  0.3133  1.0817
  173MOL0     C23286   1.799   6.781   4.055  0.4695  0.5243 -0.0627
  173MOL0     C23287   1.908   6.874   4.049  0.1251  0.1045  0.1231
  173MOL0     H23288   2.337   7.052   4.143  1.3445 -1.3783 -0.6245
  173MOL0     H23289   2.542   7.217   4.125  0.1522  0.7828 -0.6941
  173MOL0     H23290   2.744   7.371   3.913 -0.1079 -3.4725 -0.5566
  173MOL0     H23291   2.608   7.302   3.810 -1.1305 -0.3613  1.0386
  173MOL0     H23292   2.559   7.492   3.733 -0.7628  0.5518  0.9675
  173MOL0     H23293   2.670   7.597   3.832 -1.8292  1.3807 -0.3529
  173MOL0     H23294   2.740   7.566   3.610 -2.3606  0.3273  1.3497
  173MOL0     H23295   2.868   7.529   3.729  1.0945 -0.3048 -1.2232
  173MOL0     H23296   2.838   7.275   3.659  1.0558 -0.4236 -0.0759
  173MOL0     H23297   2.692   7.333   3.571  1.0568  1.0884 -1.6927
  173MOL0     H23298   2.866   7.502   3.465 -0.1212  0.6184  2.8954
  173MOL0     H23299   2.974   7.370   3.497 -0.5175 -1.6777  1.1803
  173MOL0     H23300   2.701   7.337   3.354  0.3202  1.5280 -1.7617
  173MOL0     H23301   2.853   7.361   3.269  1.1649 -1.7243  0.0833
  173MOL0     H23302   2.924   7.144   3.317 -0.3326 -0.9082 -1.4887
  173MOL0     H23303   2.802   7.127   3.447 -2.3741  0.1590 -0.2451
  173MOL0     H23304   2.622   7.109   3.281  0.1558 -1.2745  1.9311
  173MOL0     H23305   2.729   6.990   3.238 -1.5852  0.0190  0.8929
  173MOL0     H23306   2.928   7.027   3.066  1.4147 -0.6646  0.6891
  173MOL0     H23307   3.013   7.094   2.789 -2.2065 -1.4851 -1.1302
  173MOL0     H23308   2.867   7.147   2.724  1.4240 -0.7103  0.1163
  173MOL0     H23309   2.957   7.389   2.802 -1.0014  0.9943 -2.2260
  173MOL0     H23310   2.980   7.323   2.644  2.6945 -0.2931  0.1618
  173MOL0     H23311   3.192   7.273   2.870  1.0299 -1.7779  0.4735
  173MOL0     H23312   3.175   7.423   2.766  1.3253 -0.5050  1.6495
  173MOL0     H23313   3.216   7.286   2.570 -3.6866 -2.5598  0.0920
  173MOL0     H23314   3.215   7.136   2.678  0.7735 -1.0541 -0.3768
  173MOL0     H23315   3.362   7.228   2.442 -0.5241 -0.5465  1.2994
  173MOL0     H23316   3.571   7.215   2.201  0.8801  0.8230  1.7313
  173MOL0     H23317   3.555   7.036   2.226  1.2953  1.1621  0.0494
  173MOL0     H23318   3.416   7.149   2.222  0.3451  1.6481 -2.0388
  173MOL0     H23319   4.012   6.792   2.413 -3.1098 -3.5124  0.7024
  173MOL0     H23320   4.088   6.614   2.248 -1.8021 -1.5863 -2.5572
  173MOL0     H23321   4.139   6.439   1.946  0.4931 -2.3190  2.1843
  173MOL0     H23322   4.165   6.539   2.078  0.8635 -2.6962  0.1562
  173MOL0     H23323   4.079   6.314   2.116  2.1544  2.9789 -0.7727
  173MOL0     H23324   3.957   6.412   2.183 -0.8720  1.0015 -0.2757
  173MOL0     H23325   3.919   6.352   1.893 -3.3920  0.0654 -1.1562
  173MOL0     H23326   3.787   6.372   1.998 -0.4539 -1.0327  0.1199
  173MOL0     H23327   3.965   6.129   1.961  0.8521  0.8912 -0.8481
  173MOL0     H23328   3.872   6.145   2.117 -0.4760  3.1852  0.8046
  173MOL0     H23329   3.782   6.008   1.907 -2.4711  0.0853  0.0736
  173MOL0     H23330   3.759   6.154   1.822 -4.2705 -0.5440 -0.4972
  173MOL0     H23331   3.649   6.216   2.068 -1.9196  0.2795 -1.3388
  173MOL0     H23332   3.556   6.168   1.924  1.5654  0.4182 -3.2600
  173MOL0     H23333   3.666   5.983   2.143  0.4243  1.3483  0.2655
  173MOL0     H23334   3.584   5.932   1.984  0.5065 -0.6656  0.6742
  173MOL0     H23335   3.412   5.919   2.161  1.4708 -1.7925 -0.7084
  173MOL0     H23336   3.373   6.043   2.046 -0.8284 -1.4712  0.8008
  173MOL0     H23337   3.850   6.806   1.942  3.2412  4.1678 -0.5209
  173MOL0     H23338   3.752   6.960   2.126 -2.9028 -1.2831  2.9250
  173MOL0     H23339   3.799   7.132   2.645  0.8607  2.5643 -1.9192
  173MOL0     H23340   3.619   7.233   2.781  0.4166 -3.9637  1.1303
  173MOL0     H23341   2.331   7.433   3.832  1.6651 -2.0441 -2.5878
  173MOL0     H23342   2.124   7.293   3.855 -1.8724 -1.6858  1.3778
  173MOL0     H23343   1.975   6.862   3.722 -0.5826 -0.1170  0.1149
  173MOL0     H23344   1.801   6.681   3.731  0.3018  2.9718 -1.2580
  173MOL0     H23345   1.780   6.445   4.017 -2.4938 -1.7637  0.0906
  173MOL0     H23346   1.679   6.534   4.135  0.7798  2.3271 -0.0647
  173MOL0     H23347   1.549   6.410   3.889  1.9524 -2.7619 -0.4197
  173MOL0     H23348   1.490   6.415   4.048  1.2765  1.0595  1.4347
  173MOL0     H23349   1.601   6.238   4.134  1.1487  2.5519  0.3688
  173MOL0     H23350   1.725   6.240   4.010  0.0340  2.2159 -0.5240
  173MOL0     H23351   1.431   6.168   3.951  0.4074 -0.1700  0.7288
  173MOL0     H23352   1.566   6.046   3.984 -1.4176  0.0019  1.9541
  173MOL0     H23353   1.597   6.162   3.576  2.3552  3.8396  1.3940
  173MOL0     H23354   1.752   6.757   4.150  2.2787 -0.0037  0.7642
  173MOL0     H23355   1.926   6.924   4.144 -0.9771  0.8010 -0.0130
  174MOL0     O23356   6.813   1.453   9.242 -1.3433 -0.0870 -0.6445
  174MOL0     C23357   6.767   1.349   9.203 -1.7030  0.2706 -0.0910
  174MOL0     O23358   6.713   1.255   9.282 -0.1948 -0.0751  0.1630
  174MOL0     C23359   6.718   1.253   9.417  0.0099  0.0489  0.6544
  174MOL0     C23360   6.610   1.198   9.487 -0.2198  0.0119 -0.4712
  174MOL0     C23361   6.606   1.201   9.626 -0.6681  0.0861 -0.6005
  174MOL0     C23362   6.715   1.253   9.696  0.0033  0.1101 -0.3268
  174MOL0     O23363   6.723   1.237   9.830 -0.3788 -0.5800 -0.2863
  174MOL0     C23364   6.635   1.143   9.887  0.3741  0.5744 -0.1940
  174MOL0     C23365   6.673   1.112  10.038 -0.1286  1.7203 -0.4520
  174MOL0     C23366   6.831   1.105  10.064  0.1583  0.2512 -0.2775
  174MOL0     C23367   6.902   0.990   9.981 -0.7492  0.4622 -0.3631
  174MOL0     C23368   7.033   0.937  10.045  0.2373 -0.5320 -0.5476
  174MOL0     C23369   7.142   1.042  10.053 -0.3947 -0.0765 -0.2687
  174MOL0     C23370   7.264   0.998  10.133 -0.5139 -1.0416 -0.1585
  174MOL0     C23371   7.367   0.930  10.050  0.1753  0.2701  0.6280
  174MOL0     N23372   7.446   0.832  10.118 -0.0402  0.1297  0.2475
  174MOL0     C23373   7.398   0.721  10.178  0.3950  0.1625 -0.2298
  174MOL0     C23374   7.503   0.638  10.198 -0.4950  0.6135 -0.4016
  174MOL0     C23375   7.496   0.506  10.275 -0.4633 -0.9805  0.6361
  174MOL0     C23376   7.507   0.527  10.423  1.1233 -0.3356 -0.2185
  174MOL0     C23377   7.375   0.516  10.504  0.1586 -0.0470 -0.9509
  174MOL0     C23378   7.323   0.660  10.543 -0.5473 -1.0286 -0.9071
  174MOL0     O23379   7.428   0.734  10.614 -0.3504 -0.6955 -0.4265
  174MOL0     C23380   7.474   0.853  10.556  0.5804 -0.3067 -0.4115
  174MOL0     C23381   7.608   0.861  10.527  0.0225 -0.5197  0.6519
  174MOL0     C23382   7.655   0.961  10.443  0.7707 -0.2326 -0.1204
  174MOL0     C23383   7.798   0.952  10.405  0.1426  0.1913 -0.4486
  174MOL0     C23384   7.566   1.061  10.394 -0.3343  0.3118 -0.1726
  174MOL0     C23385   7.612   1.153  10.292 -0.3542  0.0712  0.1170
  174MOL0     O23386   7.621   1.119  10.161 -0.2106  0.4775 -0.2020
  174MOL0     C23387   7.712   1.198  10.085  0.1195 -0.1487 -0.7843
  174MOL0     C23388   7.833   1.137  10.048 -0.8821 -0.3586 -0.1561
  174MOL0     C23389   7.923   1.210   9.966 -0.0931  0.1538  0.0292
  174MOL0     C23390   7.893   1.343   9.934  0.2442 -0.9442  0.3130
  174MOL0     O23391   7.980   1.424   9.857 -0.3410 -0.5646 -0.7687
  174MOL0     C23392   8.113   1.385   9.823 -0.5902 -0.4405 -0.3934
  174MOL0     C23393   8.198   1.391   9.944 -0.2818  0.5641  0.5884
  174MOL0     C23394   8.344   1.350   9.914 -0.9230  0.5240  0.4599
  174MOL0     C23395   8.384   1.226   9.987 -0.2431  0.0079 -0.4689
  174MOL0     C23396   8.536   1.189   9.972  0.6377 -1.0542 -1.6912
  174MOL0     C23397   8.592   1.063  10.040 -0.0116 -0.5292 -0.1698
  174MOL0     C23398   8.742   1.048  10.054 -0.3568 -0.3723 -0.8977
  174MOL0     C23399   8.778   0.913  10.104  0.5918  0.5204  0.2427
  174MOL0    Cl23400   8.715   0.764  10.019 -0.3722 -0.2071  0.0499
  174MOL0     C23401   7.777   1.403   9.979 -0.5131  0.0602 -0.1353
  174MOL0     C23402   7.681   1.332  10.049 -0.0793  0.0943 -0.7812
  174MOL0     O23403   7.659   1.262  10.333  0.4410  0.2735  1.1116
  174MOL0     C23404   7.436   1.064  10.442  1.0072  0.3033 -0.3265
  174MOL0     C23405   7.395   0.961  10.525 -0.6176  0.1184 -1.2623
  174MOL0     N23406   7.617   0.705  10.151  0.1187 -0.6858 -0.2428
  174MOL0     N23407   7.578   0.816  10.094  0.1130  0.6996 -0.5810
  174MOL0     C23408   6.821   1.313   9.628 -0.1058 -0.3575  0.4279
  174MOL0     C23409   6.822   1.306   9.490 -0.5657  0.3067 -0.1746
  174MOL0     C23410   6.777   1.317   9.061 -0.5296  0.9886 -0.0693
  174MOL0     C23411   6.794   1.418   8.964  0.1469  0.5507  0.5414
  174MOL0     C23412   6.823   1.389   8.835 -0.4532 -0.1296  0.0107
  174MOL0     C23413   6.819   1.263   8.782  0.0581 -0.1695  0.9220
  174MOL0     O23414   6.849   1.243   8.645  0.1255  0.4485 -0.4148
  174MOL0     C23415   6.946   1.148   8.611  0.4548 -0.8140 -1.2091
  174MOL0     C23416   6.972   1.144   8.462  0.4688 -0.0484 -0.3536
  174MOL0     C23417   6.979   1.271   8.397 -0.0975 -0.1765 -0.3949
  174MOL0     C23418   7.062   1.373   8.470 -0.4516 -0.2901  0.0143
  174MOL0     C23419   7.095   1.497   8.397  0.2037 -0.3160  0.0773
  174MOL0     C23420   7.140   1.599   8.356 -0.7016 -0.3276 -0.3743
  174MOL0     C23421   6.791   1.156   8.877 -0.1813 -0.5526 -0.1132
  174MOL0     C23422   6.781   1.184   9.010 -0.9265 -0.7955 -0.0148
  174MOL0     H23423   6.520   1.168   9.435 -0.7450 -1.1508  1.0373
  174MOL0     H23424   6.519   1.157   9.672 -0.5883 -2.9747 -3.0658
  174MOL0     H23425   6.535   1.187   9.872 -0.1077 -1.0158 -2.1656
  174MOL0     H23426   6.639   1.051   9.829 -1.1120  0.3577 -0.0099
  174MOL0     H23427   6.627   1.194  10.094 -1.1632 -0.6483  2.4470
  174MOL0     H23428   6.631   1.026  10.090 -1.7707  2.0043 -1.2533
  174MOL0     H23429   6.873   1.206  10.057 -1.7823  1.4306  2.9819
  174MOL0     H23430   6.840   1.067  10.166 -1.4118 -2.4097 -1.0412
  174MOL0     H23431   6.840   0.900   9.978 -0.0075 -0.0331 -1.4776
  174MOL0     H23432   6.912   1.032   9.881 -0.2134 -0.2142 -0.6000
  174MOL0     H23433   7.002   0.899  10.143  1.9235 -0.4374  0.0538
  174MOL0     H23434   7.065   0.856   9.981 -1.9521  0.2175 -2.7527
  174MOL0     H23435   7.176   1.071   9.953  1.9988 -1.6658  0.0026
  174MOL0     H23436   7.097   1.129  10.103 -1.4582 -1.2685  0.9312
  174MOL0     H23437   7.311   1.085  10.180 -1.0714 -1.6195  1.5741
  174MOL0     H23438   7.229   0.927  10.209 -0.8630 -0.4032  0.2931
  174MOL0     H23439   7.430   1.004  10.000 -0.9730  0.3593 -0.7581
  174MOL0     H23440   7.309   0.868   9.980 -1.7425  2.4017  0.2271
  174MOL0     H23441   7.292   0.715  10.200 -0.5384  3.5638 -2.9499
  174MOL0     H23442   7.402   0.455  10.249 -1.6165  0.2731  2.0987
  174MOL0     H23443   7.581   0.444  10.245 -0.8483  0.1008 -3.2910
  174MOL0     H23444   7.551   0.627  10.433  3.6327 -1.3766 -0.2244
  174MOL0     H23445   7.562   0.446  10.472 -5.7981 -3.6727  3.6257
  174MOL0     H23446   7.410   0.469  10.597  1.5399 -1.3040 -2.0465
  174MOL0     H23447   7.294   0.456  10.461 -0.2751 -1.5692  1.7417
  174MOL0     H23448   7.227   0.646  10.592 -0.7629  0.4533 -0.8730
  174MOL0     H23449   7.291   0.723  10.460  0.1419 -4.0443 -3.6736
  174MOL0     H23450   7.674   0.779  10.552  1.0132  0.0377 -0.0975
  174MOL0     H23451   7.851   0.951  10.501 -0.6973 -0.0869  0.0304
  174MOL0     H23452   7.827   0.872  10.335  0.6830  0.3511 -0.4094
  174MOL0     H23453   7.827   1.044  10.354 -1.4074  2.8069  2.9623
  174MOL0     H23454   7.845   1.034  10.080 -1.5203 -0.5008 -0.3458
  174MOL0     H23455   8.021   1.171   9.939  0.5906  0.9961  1.1854
  174MOL0     H23456   8.104   1.296   9.761 -1.5811  0.5086 -1.6690
  174MOL0     H23457   8.144   1.470   9.761 -2.0099  0.5887  0.2523
  174MOL0     H23458   8.188   1.495   9.979 -1.9444  0.5652  0.1857
  174MOL0     H23459   8.165   1.314  10.015  1.7502 -1.0245 -0.0792
  174MOL0     H23460   8.410   1.422   9.963 -0.3668 -1.2680  2.4771
  174MOL0     H23461   8.367   1.354   9.807  6.4630 -1.1922  1.4201
  174MOL0     H23462   8.353   1.238  10.091 -1.9157 -0.0287 -0.9432
  174MOL0     H23463   8.328   1.135   9.964 -1.8190  1.2869 -1.8742
  174MOL0     H23464   8.585   1.279  10.010 -2.8168  0.7616 -1.0152
  174MOL0     H23465   8.548   1.174   9.865  1.1364 -1.2614 -1.6059
  174MOL0     H23466   8.546   1.048  10.138  1.3644 -0.7174  0.4660
  174MOL0     H23467   8.551   0.980   9.983 -1.0604  1.7659 -3.0326
  174MOL0     H23468   8.789   1.117  10.125  0.8391  0.2278 -2.2302
  174MOL0     H23469   8.789   1.072   9.959 -0.6015 -1.4230 -1.2946
  174MOL0     H23470   8.743   0.916  10.208  0.5304  2.9141  0.1981
  174MOL0     H23471   8.887   0.904  10.102  1.1396  2.6575  5.2868
  174MOL0     H23472   7.761   1.506   9.948 -1.1116 -0.0582 -0.2233
  174MOL0     H23473   7.601   1.385  10.100  0.1886 -0.1802 -0.0695
  174MOL0     H23474   7.366   1.131  10.393 -1.3159  0.6759  3.1285
  174MOL0     H23475   7.289   0.971  10.548  0.1718  2.0235  2.2199
  174MOL0     H23476   6.901   1.359   9.686 -0.1465  0.2585  0.0113
  174MOL0     H23477   6.908   1.339   9.433 -0.3361 -1.9168 -1.2065
  174MOL0     H23478   6.794   1.523   8.992 -4.0179  0.8299  0.1740
  174MOL0     H23479   6.836   1.472   8.767  2.7616  1.9955  2.9094
  174MOL0     H23480   7.035   1.168   8.672  0.4024  0.9516 -1.6579
  174MOL0     H23481   6.907   1.047   8.624 -0.9140 -0.1257  0.4023
  174MOL0     H23482   6.891   1.081   8.424 -0.3441 -0.9534  2.5885
  174MOL0     H23483   7.070   1.096   8.447  1.1931  1.9480 -2.6136
  174MOL0     H23484   6.878   1.312   8.388  0.5502  1.2663 -1.3360
  174MOL0     H23485   7.028   1.261   8.299  0.3868  2.5323 -0.4914
  174MOL0     H23486   7.155   1.320   8.492 -1.9964 -2.7048  1.1839
  174MOL0     H23487   7.012   1.393   8.565 -1.4529  1.2335 -0.7891
  174MOL0     H23488   7.182   1.689   8.317  0.8407 -1.6001 -1.8000
  174MOL0     H23489   6.800   1.051   8.850 -0.9731 -0.4136 -0.9556
  174MOL0     H23490   6.779   1.103   9.082 -2.3241  0.2037  1.1409
  175MOL0     O23491  11.289   1.066   7.523  0.6529  0.0517 -0.0364
  175MOL0     C23492  11.179   1.034   7.575  0.8078  0.2880 -0.3938
  175MOL0     O23493  11.065   1.006   7.508 -0.4605  0.5588 -0.4449
  175MOL0     C23494  11.013   1.073   7.397 -0.2140  0.4447 -0.1697
  175MOL0     C23495  10.873   1.046   7.363  0.4313 -0.2114 -0.3938
  175MOL0     C23496  10.812   1.088   7.244 -0.3277  0.4644  0.2702
  175MOL0     C23497  10.879   1.167   7.162 -0.1499  0.2353 -0.3583
  175MOL0     O23498  10.825   1.210   7.040  0.5463  0.1300 -0.1529
  175MOL0     C23499  10.685   1.170   7.016  0.3347 -0.0500  0.1414
  175MOL0     C23500  10.661   1.197   6.863  1.0943  0.6439  0.3622
  175MOL0     C23501  10.515   1.165   6.841  0.2478  0.6946 -0.1446
  175MOL0     C23502  10.471   1.208   6.709 -0.1092 -0.7020  0.0806
  175MOL0     C23503  10.334   1.152   6.671  0.1527  0.3208  0.0536
  175MOL0     C23504  10.296   1.163   6.523  0.4748 -0.2043  0.1973
  175MOL0     C23505  10.194   1.059   6.475  0.5904 -0.1148 -0.6193
  175MOL0     C23506  10.058   1.056   6.538 -0.1260 -0.4001 -0.9082
  175MOL0     N23507   9.998   1.189   6.533  1.1429 -0.6862 -0.2709
  175MOL0     C23508  10.014   1.282   6.431  0.7162  0.2433 -0.0083
  175MOL0     C23509   9.982   1.403   6.487  0.1260  0.2837  0.3453
  175MOL0     C23510   9.985   1.535   6.423  0.3410 -0.1740  0.8904
  175MOL0     C23511   9.862   1.569   6.347 -0.0043 -0.3203  0.2009
  175MOL0     C23512   9.890   1.571   6.196  0.9391  0.0148 -0.9446
  175MOL0     C23513   9.764   1.619   6.117  0.7371 -0.0145  0.2409
  175MOL0     O23514   9.707   1.499   6.038 -0.6459 -0.2078 -0.8554
  175MOL0     C23515   9.758   1.463   5.919  0.2041 -0.2106  0.9789
  175MOL0     C23516   9.898   1.454   5.876  0.5003  0.5924 -0.4957
  175MOL0     C23517   9.933   1.404   5.751  0.4232  0.4972  0.2010
  175MOL0     C23518  10.079   1.406   5.711 -0.5360 -0.5057  0.3935
  175MOL0     C23519   9.828   1.357   5.657 -0.3489 -0.4235  0.4435
  175MOL0     C23520   9.848   1.315   5.515 -0.4380 -0.3097 -0.1374
  175MOL0     O23521   9.972   1.292   5.458 -0.0620 -0.3830 -0.1160
  175MOL0     C23522  10.000   1.324   5.327  0.1008  0.5682  0.9794
  175MOL0     C23523   9.945   1.240   5.224  0.4266 -0.4153  0.7102
  175MOL0     C23524   9.981   1.240   5.086 -0.1690  0.3685  0.9454
  175MOL0     C23525  10.071   1.346   5.054  0.2461 -0.5681 -0.1254
  175MOL0     O23526  10.104   1.347   4.920 -0.3783  0.3535 -0.3418
  175MOL0     C23527  10.180   1.462   4.873 -0.0451 -0.1717  0.2073
  175MOL0     C23528  10.130   1.475   4.730  0.4826  1.1613  0.4299
  175MOL0     C23529  10.229   1.569   4.664 -0.8369 -0.5015  0.4618
  175MOL0     C23530  10.196   1.579   4.512 -0.1054 -1.0344  0.5402
  175MOL0     C23531  10.310   1.646   4.428 -0.1638  0.0418 -0.0705
  175MOL0     C23532  10.263   1.632   4.287 -0.8317 -1.2372 -0.4331
  175MOL0     C23533  10.343   1.725   4.200  0.1424 -0.0700  0.0236
  175MOL0     C23534  10.300   1.730   4.049  0.0667 -1.2127  0.5105
  175MOL0    Cl23535  10.121   1.718   4.008 -0.2861  0.1247  0.0270
  175MOL0     C23536  10.121   1.442   5.156  1.2071 -0.1074  0.3952
  175MOL0     C23537  10.080   1.431   5.292 -0.5079 -0.2360 -0.6945
  175MOL0     O23538   9.743   1.314   5.452 -1.0244  0.1298  0.1079
  175MOL0     C23539   9.699   1.363   5.711  1.6314 -0.4911  0.9810
  175MOL0     C23540   9.666   1.409   5.833  0.4442  0.1043  0.3464
  175MOL0     N23541   9.943   1.378   6.621  0.4564  0.1300  1.1970
  175MOL0     N23542   9.959   1.246   6.646  0.3287  0.0444 -0.2602
  175MOL0     C23543  11.009   1.209   7.198 -0.1427  0.4251  0.2592
  175MOL0     C23544  11.078   1.156   7.308  0.1865 -1.1013  1.0422
  175MOL0     C23545  11.172   1.038   7.724  0.1760 -0.0607 -0.5435
  175MOL0     C23546  11.039   1.026   7.779 -0.0799  1.1998  0.1069
  175MOL0     C23547  11.018   1.022   7.920  0.8453 -0.4397  1.0309
  175MOL0     C23548  11.123   1.030   8.008 -0.2127 -0.1965  0.2165
  175MOL0     O23549  11.122   1.039   8.148  0.2427  0.4736 -0.4023
  175MOL0     C23550  10.994   1.063   8.204  0.4756 -0.3805 -0.5651
  175MOL0     C23551  10.997   1.057   8.350  0.1293  0.5681  0.2006
  175MOL0     C23552  10.866   1.099   8.416 -0.1613 -0.3801  0.6590
  175MOL0     C23553  10.862   1.057   8.571 -0.3020  0.0836 -0.2268
  175MOL0     C23554  10.725   1.090   8.620  0.4094  0.7141 -0.0537
  175MOL0     C23555  10.614   1.133   8.660 -0.3523  1.5024  0.3653
  175MOL0     C23556  11.251   1.045   7.947  0.3329  0.9710 -0.4001
  175MOL0     C23557  11.275   1.056   7.811  0.5472 -0.5016 -0.1781
  175MOL0     H23558  10.818   0.982   7.431  0.6154  0.6998  0.6359
  175MOL0     H23559  10.705   1.069   7.244 -0.3813  0.2361  3.0603
  175MOL0     H23560  10.668   1.064   7.037  1.2373  0.2972  3.0315
  175MOL0     H23561  10.614   1.238   7.065  0.0494  1.0686 -1.7150
  175MOL0     H23562  10.685   1.302   6.840  1.9701  0.6956  1.4372
  175MOL0     H23563  10.723   1.132   6.801 -0.7165  0.5720 -1.4563
  175MOL0     H23564  10.506   1.056   6.845 -1.0123  0.7946  0.3067
  175MOL0     H23565  10.455   1.209   6.922  0.4673  0.3272  0.2182
  175MOL0     H23566  10.462   1.317   6.709 -0.6544 -0.7440  0.0979
  175MOL0     H23567  10.550   1.184   6.637 -0.0297 -1.2555  0.3483
  175MOL0     H23568  10.340   1.044   6.683  2.2338  0.3005 -0.7756
  175MOL0     H23569  10.265   1.195   6.744 -0.1028  1.9400 -1.0814
  175MOL0     H23570  10.271   1.265   6.491 -1.5662 -1.3141 -2.0660
  175MOL0     H23571  10.386   1.130   6.470 -2.5578 -2.5133 -4.1232
  175MOL0     H23572  10.177   1.075   6.368  0.5365 -1.2870 -0.8054
  175MOL0     H23573  10.241   0.961   6.489  1.0174  0.5561  3.9936
  175MOL0     H23574  10.057   1.010   6.637 -0.5644 -1.6868 -1.4790
  175MOL0     H23575   9.988   0.981   6.498 -0.5915 -0.4289 -0.0676
  175MOL0     H23576  10.042   1.270   6.327  2.4730  1.1248  0.3211
  175MOL0     H23577  10.009   1.612   6.497  0.8564  1.6013 -1.0282
  175MOL0     H23578  10.075   1.530   6.361 -0.0661 -2.2669  0.3943
  175MOL0     H23579   9.822   1.658   6.397 -0.2569  0.0513 -0.6370
  175MOL0     H23580   9.796   1.487   6.374 -0.4565  0.2347  0.8151
  175MOL0     H23581   9.923   1.469   6.176  2.0422  0.3749 -1.0125
  175MOL0     H23582   9.976   1.636   6.177 -0.3555  1.6688 -1.4036
  175MOL0     H23583   9.807   1.700   6.057 -1.7127  1.4264  0.2954
  175MOL0     H23584   9.690   1.664   6.184  2.7767  1.5585  1.6011
  175MOL0     H23585   9.971   1.495   5.946 -0.7826  3.0146 -0.4763
  175MOL0     H23586  10.094   1.472   5.626  1.4155  1.1721  1.9337
  175MOL0     H23587  10.143   1.444   5.792 -0.5939  0.1942  0.1128
  175MOL0     H23588  10.117   1.308   5.679  0.8118 -0.1728  0.9018
  175MOL0     H23589   9.883   1.158   5.260 -0.7421  0.7689  1.5331
  175MOL0     H23590   9.951   1.169   5.009  4.1167  0.7610 -1.3686
  175MOL0     H23591  10.164   1.562   4.916 -0.9164 -1.4075  2.9644
  175MOL0     H23592  10.285   1.433   4.876 -0.0615 -0.7477 -2.3670
  175MOL0     H23593  10.132   1.373   4.689  2.4110  0.7111  1.4981
  175MOL0     H23594  10.025   1.502   4.726 -0.8222 -3.2609 -1.2877
  175MOL0     H23595  10.330   1.527   4.676 -0.2856  0.0772 -1.7867
  175MOL0     H23596  10.234   1.667   4.713  1.4596 -0.1770 -0.2909
  175MOL0     H23597  10.168   1.483   4.468 -2.7396 -0.2626  0.3687
  175MOL0     H23598  10.109   1.645   4.502  0.0924 -0.3741  2.6615
  175MOL0     H23599  10.399   1.584   4.434  0.8445  1.5305  0.8735
  175MOL0     H23600  10.320   1.751   4.454 -0.9810  0.6770 -2.1651
  175MOL0     H23601  10.276   1.528   4.255 -1.0653 -1.1642 -0.7611
  175MOL0     H23602  10.160   1.665   4.277  0.3687  2.8880 -0.7881
  175MOL0     H23603  10.451   1.705   4.198  0.2912  0.7567 -0.7921
  175MOL0     H23604  10.336   1.828   4.237  2.0881  0.8543 -1.9641
  175MOL0     H23605  10.355   1.652   3.997  2.6048  1.1450 -0.5996
  175MOL0     H23606  10.340   1.819   3.999 -1.6247 -0.5166  0.3205
  175MOL0     H23607  10.183   1.522   5.116  0.0030 -0.6018 -2.6890
  175MOL0     H23608  10.118   1.500   5.366 -0.3532 -2.2406  1.1941
  175MOL0     H23609   9.614   1.319   5.660  0.0370 -0.7491  3.6407
  175MOL0     H23610   9.564   1.400   5.869  0.1205  0.0742 -0.5454
  175MOL0     H23611  11.060   1.277   7.131  0.2498  0.9520  1.0734
  175MOL0     H23612  11.182   1.177   7.330 -0.0292  1.3471 -0.0032
  175MOL0     H23613  10.948   1.020   7.720  1.0317 -1.0772 -1.5205
  175MOL0     H23614  10.916   1.008   7.954  0.0599 -1.2705 -1.4239
  175MOL0     H23615  10.970   1.164   8.170  3.0447  0.5296  0.0881
  175MOL0     H23616  10.925   0.985   8.171 -2.5841  3.3049 -3.9081
  175MOL0     H23617  11.084   1.110   8.391  0.3681 -1.9250  3.3108
  175MOL0     H23618  11.004   0.950   8.375 -1.8412  0.5410  0.7902
  175MOL0     H23619  10.783   1.048   8.366 -2.2571  3.2317  0.1128
  175MOL0     H23620  10.836   1.205   8.411 -1.0301 -0.6761 -1.7241
  175MOL0     H23621  10.933   1.112   8.634  0.4466  1.0093 -1.8178
  175MOL0     H23622  10.874   0.949   8.571 -2.2822 -0.1792 -0.4710
  175MOL0     H23623  10.517   1.174   8.677 -0.0890  2.0097  0.6878
  175MOL0     H23624  11.340   1.047   8.009 -0.7705  1.0001  1.2134
  175MOL0     H23625  11.369   1.070   7.758 -0.1081 -2.6411 -2.0758
  176MOL0     O23626   1.169   5.039   3.886 -0.5196  0.0439 -0.4788
  176MOL0     C23627   1.118   4.926   3.884 -0.7146 -0.1896 -1.1087
  176MOL0     O23628   1.140   4.836   3.980  0.1148  0.5101  0.6101
  176MOL0     C23629   1.228   4.876   4.079  0.0111 -1.3233  0.0689
  176MOL0     C23630   1.357   4.830   4.075  0.3985 -0.6446 -0.0269
  176MOL0     C23631   1.455   4.876   4.167  0.5598  0.1378 -0.9427
  176MOL0     C23632   1.417   4.950   4.278  0.1394  0.1995 -0.2594
  176MOL0     O23633   1.511   4.987   4.376  0.5316 -0.1582  0.0296
  176MOL0     C23634   1.623   5.060   4.330  0.0599 -0.1264  0.6882
  176MOL0     C23635   1.680   5.125   4.452  0.3149 -0.8126  0.3361
  176MOL0     C23636   1.809   5.210   4.435  0.2193 -0.6690 -0.8182
  176MOL0     C23637   1.802   5.306   4.322 -0.0505 -0.2917  0.6072
  176MOL0     C23638   1.703   5.423   4.348  0.8921 -0.4014  0.2419
  176MOL0     C23639   1.735   5.549   4.273 -0.2170 -0.6192  0.1375
  176MOL0     C23640   1.632   5.655   4.286 -0.0021  0.3029  0.7343
  176MOL0     C23641   1.690   5.794   4.256 -0.0902 -0.6360 -0.0282
  176MOL0     N23642   1.608   5.904   4.305  0.1226  0.1209 -0.1971
  176MOL0     C23643   1.468   5.910   4.294  0.8272  0.0629  0.1788
  176MOL0     C23644   1.428   6.032   4.341  0.6459 -0.2777 -0.5197
  176MOL0     C23645   1.287   6.077   4.343 -0.4508 -0.3224 -0.2410
  176MOL0     C23646   1.268   6.215   4.268 -0.2323 -0.6657 -0.4022
  176MOL0     C23647   1.259   6.327   4.373 -0.8990 -0.1146 -0.6362
  176MOL0     C23648   1.295   6.467   4.318  0.3393  0.5484 -0.1097
  176MOL0     O23649   1.433   6.485   4.328 -0.5885  0.3904 -0.6800
  176MOL0     C23650   1.466   6.618   4.315 -0.3388 -0.2818  0.3403
  176MOL0     C23651   1.455   6.691   4.188 -0.0297 -1.3568 -0.5931
  176MOL0     C23652   1.484   6.829   4.180  0.4799  0.1135  0.8181
  176MOL0     C23653   1.434   6.893   4.052 -0.0256 -0.3029  0.5728
  176MOL0     C23654   1.553   6.891   4.282  0.2178  0.1241  0.7030
  176MOL0     C23655   1.577   7.035   4.272  0.7715 -0.7683 -0.4682
  176MOL0     O23656   1.538   7.115   4.378  0.5068  0.0926 -0.1512
  176MOL0     C23657   1.560   7.248   4.401 -0.2622 -0.4290 -0.1025
  176MOL0     C23658   1.604   7.342   4.313  0.3605 -0.2096  0.7541
  176MOL0     C23659   1.589   7.492   4.329 -0.3520  0.4063 -0.2377
  176MOL0     C23660   1.545   7.541   4.453  0.2048  0.6809 -0.7623
  176MOL0     O23661   1.529   7.679   4.494 -0.6024  0.0381  0.1797
  176MOL0     C23662   1.517   7.776   4.397 -0.0017 -0.0446 -0.5487
  176MOL0     C23663   1.520   7.906   4.470  1.7490 -0.6110 -0.0023
  176MOL0     C23664   1.624   7.922   4.588 -0.2513 -0.5791 -0.2029
  176MOL0     C23665   1.762   7.891   4.533 -0.1823 -0.2322  0.5464
  176MOL0     C23666   1.876   7.943   4.625 -0.3772  0.0250  0.2770
  176MOL0     C23667   2.003   7.854   4.613  0.4414 -0.5268 -0.1148
  176MOL0     C23668   2.122   7.931   4.665 -0.6781  1.0597 -0.1651
  176MOL0     C23669   2.259   7.851   4.654  0.2115 -0.6461 -0.0331
  176MOL0    Cl23670   2.375   7.917   4.785 -0.1081 -0.4998  0.0911
  176MOL0     C23671   1.496   7.439   4.544 -0.8601 -0.8401 -0.4372
  176MOL0     C23672   1.500   7.303   4.515 -0.2489  0.4708  0.2049
  176MOL0     O23673   1.656   7.071   4.178  0.0325  0.6332 -0.0613
  176MOL0     C23674   1.579   6.815   4.405  0.5711 -0.7301 -0.0387
  176MOL0     C23675   1.540   6.680   4.425  0.3683 -0.2190 -0.2149
  176MOL0     N23676   1.540   6.095   4.372 -0.0450 -0.5265 -0.4808
  176MOL0     N23677   1.649   6.022   4.346 -0.5092 -0.6152 -0.6079
  176MOL0     C23678   1.283   4.978   4.299  0.2187  0.6022 -0.6422
  176MOL0     C23679   1.193   4.946   4.196  0.3414 -0.6260  0.2307
  176MOL0     C23680   1.045   4.887   3.771  0.5764  0.2087 -0.3960
  176MOL0     C23681   0.984   4.758   3.761  0.6366  0.2445  0.5666
  176MOL0     C23682   0.903   4.736   3.647 -1.8518  0.1633  0.0616
  176MOL0     C23683   0.883   4.832   3.546  0.3790 -0.5793 -1.3256
  176MOL0     O23684   0.806   4.815   3.427 -0.0333  0.2135 -0.4364
  176MOL0     C23685   0.754   4.686   3.401  0.4523  1.2928  0.6742
  176MOL0     C23686   0.726   4.663   3.251 -0.3568  0.1052  0.3208
  176MOL0     C23687   0.773   4.528   3.194 -0.2176  0.2875 -0.2059
  176MOL0     C23688   0.921   4.525   3.168 -0.6105 -0.2316 -0.2734
  176MOL0     C23689   0.962   4.408   3.091 -1.1576 -1.0409 -0.1596
  176MOL0     C23690   0.976   4.307   3.018 -0.8100 -0.7058 -0.3183
  176MOL0     C23691   0.945   4.958   3.555  0.0425 -0.6956 -0.1314
  176MOL0     C23692   1.030   4.982   3.670  0.4273 -0.0117  0.2218
  176MOL0     H23693   1.377   4.766   3.990  4.1308 -0.3316  0.4635
  176MOL0     H23694   1.560   4.861   4.145  0.4237 -1.5749 -0.5217
  176MOL0     H23695   1.697   4.992   4.287  1.5925  2.0433 -0.2454
  176MOL0     H23696   1.589   5.126   4.249  0.2335 -0.5149  0.2918
  176MOL0     H23697   1.601   5.191   4.491 -0.6458 -0.4996 -1.9731
  176MOL0     H23698   1.706   5.047   4.524  2.3980  0.5802  1.1910
  176MOL0     H23699   1.824   5.265   4.528  6.3633 -0.5970 -1.4294
  176MOL0     H23700   1.896   5.144   4.447 -0.4020 -1.1253  1.9427
  176MOL0     H23701   1.900   5.355   4.320  1.3779 -2.9018  1.5903
  176MOL0     H23702   1.786   5.259   4.225  0.3660  1.5634 -0.3927
  176MOL0     H23703   1.603   5.395   4.313  0.0889 -0.2693  2.2940
  176MOL0     H23704   1.708   5.447   4.454  0.1698  1.2031 -0.0506
  176MOL0     H23705   1.836   5.574   4.307 -1.0649  0.8589  1.7785
  176MOL0     H23706   1.748   5.523   4.168  0.6852 -0.6372  0.2457
  176MOL0     H23707   1.544   5.636   4.224  0.7759 -0.3977 -0.1865
  176MOL0     H23708   1.590   5.655   4.387  0.9991  2.5392  1.2089
  176MOL0     H23709   1.704   5.817   4.150  0.3372 -1.1637 -0.0901
  176MOL0     H23710   1.785   5.802   4.310 -0.8897 -0.7728  1.4396
  176MOL0     H23711   1.405   5.829   4.259  0.1573  1.2585 -1.5677
  176MOL0     H23712   1.218   6.010   4.290  1.4258 -1.9970 -0.6687
  176MOL0     H23713   1.243   6.077   4.443  0.3147  0.1305  0.0993
  176MOL0     H23714   1.181   6.224   4.203 -0.5405  2.8716  0.2716
  176MOL0     H23715   1.356   6.225   4.203  1.5274 -2.9243  1.4670
  176MOL0     H23716   1.332   6.316   4.453 -1.2753 -1.1977 -0.4197
  176MOL0     H23717   1.162   6.332   4.423 -0.1180  0.1665  0.9068
  176MOL0     H23718   1.245   6.550   4.370 -0.7026  0.2829 -0.6590
  176MOL0     H23719   1.258   6.466   4.215 -0.1580 -1.0489  0.0689
  176MOL0     H23720   1.410   6.632   4.108 -0.2654 -1.8256 -0.1192
  176MOL0     H23721   1.513   6.910   3.978 -1.4441  4.1971 -0.2168
  176MOL0     H23722   1.355   6.833   4.006 -1.6455  1.9695  0.2437
  176MOL0     H23723   1.395   6.992   4.075  0.3788 -0.4793  2.1443
  176MOL0     H23724   1.645   7.322   4.215  1.7292 -2.8732  1.7659
  176MOL0     H23725   1.635   7.564   4.262 -3.2665  0.4612 -2.3619
  176MOL0     H23726   1.587   7.762   4.314 -0.0166  0.0742 -0.5821
  176MOL0     H23727   1.421   7.758   4.347 -0.8176  0.9886  0.5818
  176MOL0     H23728   1.527   7.979   4.390  0.6438  0.3160  0.7298
  176MOL0     H23729   1.417   7.922   4.501  0.4059 -2.1985 -3.1872
  176MOL0     H23730   1.605   7.849   4.667  0.3351  0.6632  1.1333
  176MOL0     H23731   1.618   8.022   4.634 -0.0621  0.7252 -2.8130
  176MOL0     H23732   1.769   7.783   4.515  1.9218 -0.1452  0.5258
  176MOL0     H23733   1.768   7.949   4.440 -1.9528  0.5109  0.8586
  176MOL0     H23734   1.837   7.927   4.726 -0.5128  0.8177  0.3558
  176MOL0     H23735   1.894   8.049   4.605 -2.1405  0.2247 -0.3843
  176MOL0     H23736   1.983   7.756   4.656 -0.5649 -2.3223 -4.2087
  176MOL0     H23737   2.021   7.832   4.507 -0.1496 -1.3944 -0.0399
  176MOL0     H23738   2.112   7.947   4.773 -0.7285  1.0697 -0.1709
  176MOL0     H23739   2.129   8.028   4.615 -0.9582  2.0348  1.6002
  176MOL0     H23740   2.290   7.872   4.552  0.2169  1.2898  0.3193
  176MOL0     H23741   2.243   7.744   4.669  2.9717 -0.8491  2.3270
  176MOL0     H23742   1.469   7.480   4.640 -0.4635  0.3826 -0.8306
  176MOL0     H23743   1.444   7.225   4.565  1.3173 -0.9589 -0.1730
  176MOL0     H23744   1.626   6.868   4.487  1.1703 -0.7527 -0.3687
  176MOL0     H23745   1.565   6.622   4.514  1.4943 -0.9766 -0.9918
  176MOL0     H23746   1.251   5.024   4.392 -0.0952  1.0013 -0.9479
  176MOL0     H23747   1.089   4.975   4.208  0.4112  0.5840 -1.6626
  176MOL0     H23748   0.999   4.688   3.842 -0.9213  1.5552  2.0713
  176MOL0     H23749   0.847   4.643   3.642  0.2698 -1.1504 -0.4957
  176MOL0     H23750   0.836   4.615   3.417  0.5529 -0.0886 -4.2225
  176MOL0     H23751   0.670   4.671   3.469 -0.8813 -3.5513 -1.5966
  176MOL0     H23752   0.760   4.743   3.185 -1.4329  0.5080  0.2269
  176MOL0     H23753   0.619   4.661   3.228 -0.5340 -5.7728  0.3115
  176MOL0     H23754   0.720   4.500   3.103 -2.5282  0.8546  0.8976
  176MOL0     H23755   0.751   4.444   3.259  2.1843 -0.0463  0.2803
  176MOL0     H23756   0.980   4.527   3.260  0.8722 -0.2422 -1.1875
  176MOL0     H23757   0.952   4.617   3.117  0.2091  0.1172  0.8025
  176MOL0     H23758   0.979   4.216   2.961  3.9716 -1.2997  0.5391
  176MOL0     H23759   0.935   5.043   3.489  2.7642 -0.4265 -0.3336
  176MOL0     H23760   1.076   5.080   3.667 -1.6243  0.9857 -1.1124
  177MOL0     O23761   0.197   0.211   0.309  0.2958 -0.3877  0.4941
  177MOL0     C23762   0.158   0.330   0.310 -0.0006 -0.4668 -0.5086
  177MOL0     O23763   0.124   0.411   0.197 -0.0235  0.2403  0.5656
  177MOL0     C23764   0.166   0.392   0.071 -0.0508  0.7499  0.8282
  177MOL0     C23765   0.265   0.303   0.035  0.8833 -0.5916  0.4324
  177MOL0     C23766   0.287   0.266  -0.096 -0.1189  0.9716  0.4904
  177MOL0     C23767   0.221   0.332  -0.195  0.2455  0.1940 -0.3590
  177MOL0     O23768   0.262   0.305  -0.323 -0.3746  0.3546 -0.3830
  177MOL0     C23769   0.292   0.411  -0.411 -1.2469  0.7759  0.6444
  177MOL0     C23770   0.375   0.347  -0.518 -0.1452  0.8795 -0.3035
  177MOL0     C23771   0.454   0.466  -0.594 -0.3362  0.6928 -0.2180
  177MOL0     C23772   0.547   0.418  -0.709  0.2766  0.0846 -0.1852
  177MOL0     C23773   0.637   0.521  -0.764 -0.3563  0.6626  0.6150
  177MOL0     C23774   0.740   0.470  -0.882 -0.5169  0.1173 -0.6797
  177MOL0     C23775   0.796   0.584  -0.956  0.3654  0.0460 -0.1207
  177MOL0     C23776   0.909   0.658  -0.885  0.1393 -0.2366  0.1011
  177MOL0     N23777   0.979   0.740  -0.981  0.5945  0.1659 -0.3623
  177MOL0     C23778   1.110   0.770  -0.986 -0.3004 -0.4483  0.9498
  177MOL0     C23779   1.131   0.877  -1.068  0.3962  0.1667  0.2237
  177MOL0     C23780   1.255   0.958  -1.094 -0.9673  0.5599  0.4795
  177MOL0     C23781   1.372   0.866  -1.129  0.1095 -0.0205  0.6599
  177MOL0     C23782   1.507   0.941  -1.152 -0.2675 -0.7076 -0.3735
  177MOL0     C23783   1.512   1.009  -1.279  0.0506  0.0044  0.2702
  177MOL0     O23784   1.637   1.071  -1.313 -0.1336 -0.0506  0.7690
  177MOL0     C23785   1.744   1.007  -1.369 -0.1191 -0.0634 -0.3284
  177MOL0     C23786   1.836   1.093  -1.415 -0.8297 -0.0822 -0.1823
  177MOL0     C23787   1.948   1.040  -1.484 -0.5958 -0.6661  0.3031
  177MOL0     C23788   2.033   1.151  -1.531 -0.2775 -0.5497  0.8420
  177MOL0     C23789   1.966   0.901  -1.504 -0.1949  0.0212 -0.5719
  177MOL0     C23790   2.080   0.839  -1.578  0.3203  0.0749 -0.4509
  177MOL0     O23791   2.087   0.694  -1.560  0.2078  0.6574  0.7776
  177MOL0     C23792   2.169   0.629  -1.646 -0.9396 -0.0399 -0.0023
  177MOL0     C23793   2.120   0.547  -1.754 -0.2806 -0.2090 -0.2309
  177MOL0     C23794   2.209   0.480  -1.837 -0.9798 -0.3996  0.3505
  177MOL0     C23795   2.345   0.480  -1.812 -1.2844  0.0015 -0.2044
  177MOL0     O23796   2.438   0.397  -1.868  0.3023  0.5639 -0.7962
  177MOL0     C23797   2.488   0.392  -2.009  0.5515  0.1007 -0.2144
  177MOL0     C23798   2.609   0.290  -2.004  0.9367  0.6185  0.0335
  177MOL0     C23799   2.672   0.244  -2.139  0.1751  1.0835 -0.3280
  177MOL0     C23800   2.778   0.136  -2.104 -0.3037 -0.1188 -0.3801
  177MOL0     C23801   2.857   0.099  -2.228  0.2324 -0.5972 -0.2814
  177MOL0     C23802   2.955  -0.017  -2.203 -0.6375  0.4619  1.0308
  177MOL0     C23803   3.029  -0.056  -2.335 -0.5983 -0.4928 -0.4067
  177MOL0     C23804   3.141  -0.164  -2.323  0.0549 -0.1516 -0.3762
  177MOL0    Cl23805   3.240  -0.118  -2.183  0.1110 -0.3766 -0.2197
  177MOL0     C23806   2.390   0.552  -1.702  0.3961  0.5371  0.5714
  177MOL0     C23807   2.305   0.624  -1.625  0.1262 -0.3597 -0.7063
  177MOL0     O23808   2.159   0.914  -1.640 -0.0490 -0.2292 -0.4376
  177MOL0     C23809   1.859   0.815  -1.460 -0.6325  0.7109 -0.7620
  177MOL0     C23810   1.751   0.869  -1.389 -0.3882 -0.4734 -0.6340
  177MOL0     N23811   1.004   0.908  -1.117 -0.4788  0.0735 -0.6051
  177MOL0     N23812   0.911   0.827  -1.071  0.6807 -0.4786  0.3143
  177MOL0     C23813   0.125   0.430  -0.167  0.1053 -1.5359 -1.2230
  177MOL0     C23814   0.090   0.459  -0.026  0.7148  0.3800  0.2622
  177MOL0     C23815   0.125   0.397   0.441  0.1972  0.3650  1.0022
  177MOL0     C23816   0.142   0.333   0.560 -0.1442 -0.0442 -0.5591
  177MOL0     C23817   0.131   0.396   0.686 -0.1018  0.7871 -0.7005
  177MOL0     C23818   0.099   0.530   0.689  0.2662 -0.1484  0.1405
  177MOL0     O23819   0.080   0.605   0.805  0.2519 -0.3702  0.7548
  177MOL0     C23820   0.185   0.589   0.904  0.9299 -0.7495  0.4389
  177MOL0     C23821   0.211   0.712   0.983  0.5040 -0.2175 -0.6645
  177MOL0     C23822   0.324   0.700   1.093 -0.1034  0.7332 -0.6653
  177MOL0     C23823   0.349   0.827   1.173  0.3374 -0.4377  0.3409
  177MOL0     C23824   0.451   0.818   1.272  0.0586  0.4016 -0.1945
  177MOL0     C23825   0.536   0.836   1.359  0.0347 -0.0330  0.0736
  177MOL0     C23826   0.081   0.602   0.567  1.5308 -0.4649  0.0159
  177MOL0     C23827   0.088   0.534   0.441  0.2129  0.7989 -0.1396
  177MOL0     H23828   0.323   0.252   0.112 -0.9997  0.8787  2.9708
  177MOL0     H23829   0.373   0.201  -0.112 -0.8488 -0.6669  2.7519
  177MOL0     H23830   0.210   0.469  -0.453 -1.7852 -0.8979 -0.7218
  177MOL0     H23831   0.354   0.481  -0.353 -1.5913  1.0132  0.7320
  177MOL0     H23832   0.446   0.279  -0.469 -1.1337 -1.1707 -1.6054
  177MOL0     H23833   0.312   0.290  -0.586 -0.0942 -1.5882  1.5981
  177MOL0     H23834   0.386   0.539  -0.641  2.6885  2.5915 -1.9796
  177MOL0     H23835   0.510   0.517  -0.516 -2.3436  2.0114  0.4563
  177MOL0     H23836   0.609   0.340  -0.665 -2.1528 -1.6145  0.4167
  177MOL0     H23837   0.483   0.376  -0.787 -0.6743  1.9057 -0.4500
  177MOL0     H23838   0.568   0.599  -0.798 -3.8596 -2.1129  0.8349
  177MOL0     H23839   0.700   0.544  -0.677 -0.7999 -0.6151  1.2946
  177MOL0     H23840   0.822   0.410  -0.841 -2.0933 -0.6808  1.4866
  177MOL0     H23841   0.684   0.399  -0.944 -1.7725 -1.5493  2.1578
  177MOL0     H23842   0.818   0.542  -1.055  0.2135  0.8356 -0.5019
  177MOL0     H23843   0.719   0.660  -0.975  0.5635  0.0080 -1.1648
  177MOL0     H23844   0.981   0.596  -0.829  2.7967  1.6227 -1.0292
  177MOL0     H23845   0.875   0.728  -0.809 -0.5789  2.0115 -2.1694
  177MOL0     H23846   1.193   0.719  -0.938  0.8561  0.5359  0.0616
  177MOL0     H23847   1.231   1.021  -1.180 -2.3858  0.4222  0.7470
  177MOL0     H23848   1.270   1.017  -1.003 -4.9813 -1.6912  2.9002
  177MOL0     H23849   1.353   0.792  -1.207  2.8415 -0.5376  0.3958
  177MOL0     H23850   1.390   0.808  -1.037  1.3140 -0.4656  0.1617
  177MOL0     H23851   1.594   0.875  -1.157  2.0086  1.9991  0.6999
  177MOL0     H23852   1.530   1.018  -1.078  2.4684 -0.9614 -0.8594
  177MOL0     H23853   1.447   1.095  -1.260 -0.6448 -0.9741  2.7291
  177MOL0     H23854   1.479   0.942  -1.359  4.1797 -2.0091  0.0304
  177MOL0     H23855   1.823   1.200  -1.414  2.6093  0.4208  0.1470
  177MOL0     H23856   2.136   1.148  -1.496  0.4358  2.4424 -0.6433
  177MOL0     H23857   2.028   1.138  -1.640 -1.4279  3.5295  0.2571
  177MOL0     H23858   2.010   1.251  -1.494  0.3785 -1.4115  3.8234
  177MOL0     H23859   2.014   0.528  -1.766  0.2018 -1.7311 -2.9787
  177MOL0     H23860   2.168   0.421  -1.919 -0.3515  0.1662 -0.3978
  177MOL0     H23861   2.412   0.346  -2.072  0.3826 -2.0605  1.4142
  177MOL0     H23862   2.520   0.484  -2.057 -1.4267  0.2757 -1.2828
  177MOL0     H23863   2.676   0.325  -1.925 -1.6509 -1.0219  3.1889
  177MOL0     H23864   2.561   0.199  -1.968 -3.5892  1.9561 -1.8762
  177MOL0     H23865   2.729   0.316  -2.198  3.4469  0.7083  2.0813
  177MOL0     H23866   2.587   0.200  -2.192  0.9210 -1.4452  0.4179
  177MOL0     H23867   2.842   0.164  -2.020 -1.2134  0.4005  0.1592
  177MOL0     H23868   2.732   0.042  -2.072  1.5162 -0.0497  2.8297
  177MOL0     H23869   2.905   0.187  -2.271  0.5973 -0.0359  1.1907
  177MOL0     H23870   2.787   0.069  -2.306 -0.0445  0.9607 -0.6628
  177MOL0     H23871   3.021   0.022  -2.125  1.0997  2.2614 -1.2032
  177MOL0     H23872   2.898  -0.104  -2.169  0.6928 -0.4533  0.9904
  177MOL0     H23873   3.068   0.029  -2.393 -0.7031 -1.3013 -1.6943
  177MOL0     H23874   2.956  -0.103  -2.401 -0.7524  0.1076 -0.6705
  177MOL0     H23875   3.192  -0.177  -2.418  1.8179  2.8415  0.0305
  177MOL0     H23876   3.079  -0.251  -2.297  1.2465 -0.3491  2.1483
  177MOL0     H23877   2.495   0.550  -1.674  0.1469 -1.2479  1.5281
  177MOL0     H23878   2.347   0.676  -1.539 -0.2978 -1.2304  0.0435
  177MOL0     H23879   1.848   0.709  -1.480  0.2611  0.9404 -2.6477
  177MOL0     H23880   1.685   0.791  -1.353  0.8814 -0.2270  2.5685
  177MOL0     H23881   0.073   0.480  -0.247 -2.7016 -0.6714  0.9729
  177MOL0     H23882   0.015   0.533   0.001 -0.4723  0.4970 -2.9335
  177MOL0     H23883   0.178   0.231   0.563 -0.5183 -0.1555  0.7772
  177MOL0     H23884   0.142   0.337   0.776 -3.3245  0.0618 -0.6745
  177MOL0     H23885   0.157   0.504   0.967 -0.8405  0.6634  1.6406
  177MOL0     H23886   0.281   0.555   0.864  0.8413 -2.1030  1.3041
  177MOL0     H23887   0.119   0.748   1.029 -1.1937 -0.6089 -3.5164
  177MOL0     H23888   0.246   0.794   0.920 -0.5425  0.3044 -0.5949
  177MOL0     H23889   0.413   0.663   1.042 -1.1969 -2.1646 -0.6814
  177MOL0     H23890   0.299   0.620   1.163 -0.1718  1.2816 -0.0474
  177MOL0     H23891   0.253   0.845   1.222 -0.2177 -0.6083 -0.6624
  177MOL0     H23892   0.383   0.911   1.112 -0.0685 -1.0843 -0.7921
  177MOL0     H23893   0.606   0.834   1.440  3.0286  1.8210 -2.2348
  177MOL0     H23894   0.081   0.710   0.580  4.6022 -0.6030  2.3163
  177MOL0     H23895   0.052   0.584   0.352 -1.9457 -2.7859 -1.4953
  178MOL0     O23896   0.039   6.269   0.859  0.8675 -0.0686 -0.2637
  178MOL0     C23897  -0.007   6.364   0.800  0.3424 -0.2803  0.2020
  178MOL0     O23898  -0.044   6.482   0.852  0.1882 -0.2530  0.5518
  178MOL0     C23899  -0.038   6.501   0.988  0.1714 -0.0922 -1.1815
  178MOL0     C23900   0.042   6.595   1.047  0.1785 -0.9377 -0.3316
  178MOL0     C23901   0.042   6.622   1.191  0.7188  0.5115  0.4766
  178MOL0     C23902  -0.053   6.550   1.268 -0.3184  0.4132 -0.0439
  178MOL0     O23903  -0.056   6.574   1.402 -0.2352 -0.3680 -0.0453
  178MOL0     C23904  -0.056   6.463   1.498  0.9340 -0.3783  0.3970
  178MOL0     C23905   0.089   6.417   1.523 -0.7274  0.8530 -0.1018
  178MOL0     C23906   0.166   6.531   1.593  0.2930  0.6226 -0.6635
  178MOL0     C23907   0.148   6.522   1.749  0.6416 -0.3483 -0.3048
  178MOL0     C23908   0.230   6.618   1.838  0.7750 -0.4956  0.1576
  178MOL0     C23909   0.217   6.590   1.987  0.6399 -0.1336  1.5176
  178MOL0     C23910   0.289   6.699   2.057 -0.0699 -0.2139 -0.7344
  178MOL0     C23911   0.352   6.622   2.188  1.2258 -0.3443  0.4104
  178MOL0     N23912   0.432   6.707   2.265  0.3094 -0.2783  0.4858
  178MOL0     C23913   0.429   6.703   2.403 -0.4685  0.6375  0.1659
  178MOL0     C23914   0.519   6.805   2.440  0.1165  1.5689  0.0762
  178MOL0     C23915   0.536   6.853   2.580 -0.1934 -0.0359  0.4595
  178MOL0     C23916   0.607   6.740   2.661  1.0216 -0.7890  0.0409
  178MOL0     C23917   0.760   6.741   2.628 -0.1206 -0.0304  0.3588
  178MOL0     C23918   0.840   6.707   2.750  1.1443  0.0368  0.6226
  178MOL0     O23919   0.847   6.565   2.754 -0.2597 -0.5370 -0.1053
  178MOL0     C23920   0.829   6.492   2.868  0.3962 -0.6919  0.5547
  178MOL0     C23921   0.795   6.356   2.863 -0.8220  0.2964 -0.1390
  178MOL0     C23922   0.797   6.281   2.982  0.1452 -0.2937 -0.2293
  178MOL0     C23923   0.752   6.128   2.972 -0.8935 -0.3008 -0.0779
  178MOL0     C23924   0.833   6.341   3.107  0.0847 -1.1321 -0.0428
  178MOL0     C23925   0.849   6.258   3.241  0.3338 -0.6707  0.5174
  178MOL0     O23926   0.849   6.118   3.238  0.1622 -0.2388  0.2823
  178MOL0     C23927   0.783   6.043   3.335 -0.3592  1.5748  0.6202
  178MOL0     C23928   0.696   6.099   3.431  1.2436 -0.8624 -0.7379
  178MOL0     C23929   0.629   6.017   3.519  0.4911  0.6134  0.5710
  178MOL0     C23930   0.621   5.877   3.507 -0.2478  0.3221 -0.5703
  178MOL0     O23931   0.548   5.788   3.582  0.8528 -0.1657 -0.4366
  178MOL0     C23932   0.479   5.834   3.700 -0.5475  0.3572 -0.8502
  178MOL0     C23933   0.466   5.707   3.781 -0.3632  0.5911  0.1775
  178MOL0     C23934   0.407   5.738   3.920  0.1553 -0.4282 -0.1784
  178MOL0     C23935   0.365   5.610   3.989  1.1207  1.5372  0.0275
  178MOL0     C23936   0.403   5.602   4.138  0.6514 -0.3464 -0.2421
  178MOL0     C23937   0.549   5.588   4.171 -0.7491 -1.0141 -0.1815
  178MOL0     C23938   0.580   5.627   4.323 -0.2592 -0.2939  0.0260
  178MOL0     C23939   0.733   5.609   4.353 -0.7031  0.4800 -0.2191
  178MOL0    Cl23940   0.762   5.637   4.517 -0.1402  0.0348 -0.4317
  178MOL0     C23941   0.703   5.824   3.410 -0.4137  0.5173  0.3786
  178MOL0     C23942   0.778   5.904   3.322  0.1551  0.0118  0.1825
  178MOL0     O23943   0.860   6.319   3.341  0.0590 -0.9995 -0.3610
  178MOL0     C23944   0.862   6.471   3.111 -0.2229 -0.4798 -0.6772
  178MOL0     C23945   0.865   6.548   2.992  0.1724 -0.4216 -0.2434
  178MOL0     N23946   0.589   6.835   2.321  0.5679 -0.6049  0.6916
  178MOL0     N23947   0.526   6.789   2.218 -0.0395  0.6891  1.0160
  178MOL0     C23948  -0.141   6.460   1.209 -0.6516  0.3326  0.5220
  178MOL0     C23949  -0.127   6.432   1.073 -0.3531  0.7406 -0.0167
  178MOL0     C23950  -0.040   6.340   0.660 -0.7063  0.0040  0.6568
  178MOL0     C23951  -0.005   6.211   0.592  0.2153  0.5187  0.4726
  178MOL0     C23952  -0.030   6.194   0.457 -0.3512  0.3814 -0.2023
  178MOL0     C23953  -0.097   6.289   0.384 -0.7259  1.2145  0.8486
  178MOL0     O23954  -0.114   6.266   0.245 -0.2915  0.2711 -0.2197
  178MOL0     C23955  -0.044   6.357   0.158  0.2681  0.6765 -0.4423
  178MOL0     C23956  -0.145   6.407   0.042 -0.1205  0.4716  0.2789
  178MOL0     C23957  -0.246   6.508   0.093 -0.0467  0.2959 -0.3104
  178MOL0     C23958  -0.344   6.549  -0.022  0.6389 -0.3520 -0.0052
  178MOL0     C23959  -0.280   6.638  -0.120 -0.1429  0.5838 -0.1941
  178MOL0     C23960  -0.220   6.714  -0.196  0.5893  0.6793  0.2321
  178MOL0     C23961  -0.144   6.404   0.441  0.7828 -0.3422 -0.5687
  178MOL0     C23962  -0.111   6.438   0.574  0.5564 -0.0109 -0.3672
  178MOL0     H23963   0.116   6.649   0.989  0.6468 -2.0970 -0.8435
  178MOL0     H23964   0.104   6.696   1.241  1.3566 -1.0347  2.0967
  178MOL0     H23965  -0.098   6.499   1.592 -1.2647 -1.7248  0.0096
  178MOL0     H23966  -0.105   6.374   1.457  1.8904 -0.8193  0.1751
  178MOL0     H23967   0.098   6.324   1.579 -1.5856  1.7776  1.6612
  178MOL0     H23968   0.141   6.380   1.434 -1.0519  1.7548 -0.6836
  178MOL0     H23969   0.269   6.514   1.560  0.6795  1.3969  0.0833
  178MOL0     H23970   0.133   6.628   1.554 -0.8125 -0.7029 -3.2406
  178MOL0     H23971   0.040   6.524   1.764  0.5068  2.2629 -0.9872
  178MOL0     H23972   0.184   6.422   1.772 -2.1557 -1.6536 -1.2191
  178MOL0     H23973   0.331   6.620   1.797 -0.0639 -0.6589 -2.0360
  178MOL0     H23974   0.192   6.720   1.825  1.2155 -0.3309  0.1494
  178MOL0     H23975   0.112   6.577   2.015 -0.0882 -4.1531 -1.9783
  178MOL0     H23976   0.263   6.492   2.004  2.6279 -0.3987 -3.6881
  178MOL0     H23977   0.372   6.741   1.999 -1.4719  0.0474 -2.6327
  178MOL0     H23978   0.222   6.781   2.085  0.6180 -0.4022  1.6897
  178MOL0     H23979   0.416   6.536   2.166 -1.2960 -2.8697  2.2409
  178MOL0     H23980   0.269   6.579   2.244  1.4151  1.1511  1.9264
  178MOL0     H23981   0.363   6.646   2.468  1.0484  0.2002  1.3907
  178MOL0     H23982   0.594   6.945   2.590 -0.0574  0.0490 -0.9044
  178MOL0     H23983   0.437   6.872   2.622 -1.1576 -0.5483 -1.4310
  178MOL0     H23984   0.570   6.639   2.640  1.4224 -0.8815 -0.2389
  178MOL0     H23985   0.584   6.763   2.765 -0.3208 -1.4673 -0.0828
  178MOL0     H23986   0.788   6.843   2.601 -2.0320  0.2201 -0.9246
  178MOL0     H23987   0.776   6.662   2.554 -1.1396 -0.0846  0.1748
  178MOL0     H23988   0.783   6.742   2.837 -1.2607 -3.8824  0.9095
  178MOL0     H23989   0.938   6.753   2.741  2.6996 -3.0608  0.1122
  178MOL0     H23990   0.780   6.316   2.763 -0.1455  2.3920 -1.1186
  178MOL0     H23991   0.724   6.085   2.875  0.1494 -2.1369  0.3852
  178MOL0     H23992   0.827   6.056   3.005 -0.4809  0.9891  1.9356
  178MOL0     H23993   0.670   6.119   3.044  0.9839 -0.5476  2.1468
  178MOL0     H23994   0.681   6.205   3.447 -2.1446 -1.0633 -1.9127
  178MOL0     H23995   0.563   6.067   3.589  0.5700  1.8140 -0.1877
  178MOL0     H23996   0.534   5.911   3.755 -0.9141  0.4993 -0.6793
  178MOL0     H23997   0.381   5.874   3.673 -0.4793  0.5722 -0.7887
  178MOL0     H23998   0.402   5.634   3.730  0.4036 -0.6427  0.9347
  178MOL0     H23999   0.567   5.665   3.786 -0.6040 -0.0002  0.1555
  178MOL0     H24000   0.317   5.799   3.906  0.6163  0.4803  0.7328
  178MOL0     H24001   0.479   5.791   3.982 -1.1135 -0.0805  1.0683
  178MOL0     H24002   0.257   5.605   3.977  1.1073  0.7849  0.4273
  178MOL0     H24003   0.398   5.518   3.939 -1.8282 -0.8842  2.1780
  178MOL0     H24004   0.356   5.511   4.178  1.7768 -2.0918 -2.6415
  178MOL0     H24005   0.359   5.687   4.191 -0.0855  1.7556 -3.9029
  178MOL0     H24006   0.589   5.488   4.156  0.2528 -0.6107 -0.2953
  178MOL0     H24007   0.612   5.655   4.112 -0.1059 -2.0931 -0.7422
  178MOL0     H24008   0.523   5.558   4.386  0.5458  0.3189  1.4869
  178MOL0     H24009   0.549   5.730   4.343  0.5191  0.4841 -2.4585
  178MOL0     H24010   0.787   5.677   4.287  0.4503 -2.1935 -2.2137
  178MOL0     H24011   0.751   5.504   4.328 -0.7271  0.7911 -1.5954
  178MOL0     H24012   0.721   5.717   3.405  3.1614  0.6441  4.1992
  178MOL0     H24013   0.830   5.855   3.240 -0.8696 -0.3819 -0.2431
  178MOL0     H24014   0.890   6.520   3.203 -2.6136  0.9152 -0.6369
  178MOL0     H24015   0.906   6.647   3.005 -0.4204  0.0093 -1.5033
  178MOL0     H24016  -0.207   6.397   1.267  2.9356 -1.2128  3.2965
  178MOL0     H24017  -0.203   6.368   1.029  0.6128  0.5825 -1.4957
  178MOL0     H24018   0.054   6.132   0.639  0.9915 -0.4928 -2.0260
  178MOL0     H24019  -0.004   6.097   0.417  0.0309 -0.2753  1.5433
  178MOL0     H24020  -0.008   6.451   0.203  1.7993  0.0185 -0.2112
  178MOL0     H24021   0.041   6.303   0.116  0.0482  0.3649 -0.4848
  178MOL0     H24022  -0.200   6.323  -0.002 -0.5942  1.2676 -0.6831
  178MOL0     H24023  -0.083   6.461  -0.030 -0.0247  0.4622  0.3545
  178MOL0     H24024  -0.202   6.602   0.128  0.1479  0.1693 -0.2133
  178MOL0     H24025  -0.310   6.468   0.171  1.9864 -0.1296  1.2171
  178MOL0     H24026  -0.426   6.610   0.016  0.5510 -0.5535  0.1316
  178MOL0     H24027  -0.386   6.471  -0.086 -1.2928  1.1947 -0.7012
  178MOL0     H24028  -0.158   6.766  -0.267  0.0905 -3.2428 -3.4533
  178MOL0     H24029  -0.199   6.470   0.374  0.8751 -0.1733 -0.4781
  178MOL0     H24030  -0.145   6.528   0.624  0.8226 -0.7744  1.2907
  179MOL0     O24031  10.531   3.895   0.063  0.2773 -1.0560  0.6371
  179MOL0     C24032  10.608   3.983   0.025  0.3428 -0.8990  0.2964
  179MOL0     O24033  10.665   4.075   0.108  0.3073  0.8720 -0.6801
  179MOL0     C24034  10.643   4.077   0.243  0.5099 -0.7293  0.2830
  179MOL0     C24035  10.710   4.006   0.330 -0.7123  1.0228 -0.2308
  179MOL0     C24036  10.677   4.000   0.466  0.0885 -0.6039  0.2217
  179MOL0     C24037  10.568   4.060   0.515  1.2831 -1.2203  0.6840
  179MOL0     O24038  10.543   4.055   0.648  1.3590 -0.2703  0.3509
  179MOL0     C24039  10.533   4.185   0.709  0.5145 -0.2869  0.4220
  179MOL0     C24040  10.551   4.169   0.860  0.6601  0.8963  1.1672
  179MOL0     C24041  10.440   4.099   0.950  0.3065  0.4252 -0.1829
  179MOL0     C24042  10.434   4.159   1.091 -0.3746  0.6913 -0.2597
  179MOL0     C24043  10.355   4.090   1.197  1.0748 -0.5247 -0.0211
  179MOL0     C24044  10.206   4.067   1.164 -1.0082  0.0044  0.4994
  179MOL0     C24045  10.133   4.038   1.297 -0.4786  0.3619 -0.8144
  179MOL0     C24046  10.024   3.931   1.276 -0.1303 -0.8018 -0.4418
  179MOL0     N24047   9.958   3.892   1.405  0.0649 -0.1869  0.3781
  179MOL0     C24048  10.025   3.839   1.506 -0.7184 -0.6505 -0.4636
  179MOL0     C24049   9.931   3.837   1.610 -0.6796  0.5609 -0.1579
  179MOL0     C24050   9.968   3.793   1.757 -0.2962  0.3012 -0.1279
  179MOL0     C24051   9.839   3.748   1.826  0.7534  0.8112  0.4809
  179MOL0     C24052   9.840   3.641   1.932  0.9484  0.8376  0.6512
  179MOL0     C24053   9.700   3.574   1.943  0.2438 -0.7049  0.4276
  179MOL0     O24054   9.611   3.668   2.019  0.1977  0.4286  0.6519
  179MOL0     C24055   9.541   3.613   2.126  0.3316  0.2010  0.9580
  179MOL0     C24056   9.482   3.487   2.134  0.1663 -0.7919 -0.4672
  179MOL0     C24057   9.428   3.440   2.255 -0.3018  0.6977 -0.1409
  179MOL0     C24058   9.371   3.306   2.272 -0.0437  0.8877 -0.6234
  179MOL0     C24059   9.418   3.525   2.372  0.8594  0.1770 -1.0687
  179MOL0     C24060   9.367   3.474   2.507 -0.1057 -0.7740 -0.6726
  179MOL0     O24061   9.445   3.498   2.615  0.0652  0.1908 -1.0511
  179MOL0     C24062   9.397   3.447   2.740  0.1467  0.6842  0.5093
  179MOL0     C24063   9.433   3.312   2.779 -0.6167 -1.1633 -0.4275
  179MOL0     C24064   9.366   3.251   2.890 -0.1546  0.4743  0.7706
  179MOL0     C24065   9.268   3.320   2.966 -0.3997  0.3798  0.3572
  179MOL0     O24066   9.221   3.256   3.072  0.2850  0.2462  0.2504
  179MOL0     C24067   9.087   3.280   3.125 -0.0571 -0.7658  0.9181
  179MOL0     C24068   9.054   3.165   3.218  0.1507  0.8042  0.1863
  179MOL0     C24069   8.934   3.182   3.310  0.6007 -0.0687 -0.0497
  179MOL0     C24070   8.800   3.216   3.226 -0.0149  0.4588  0.5304
  179MOL0     C24071   8.687   3.222   3.326 -1.2641 -0.6073  0.2250
  179MOL0     C24072   8.584   3.325   3.283  0.7839  0.1029  0.7369
  179MOL0     C24073   8.491   3.273   3.176  0.1851 -0.0573  0.1157
  179MOL0     C24074   8.398   3.374   3.118  0.2055  0.7096 -1.4719
  179MOL0    Cl24075   8.488   3.519   3.048 -0.1819 -0.1411 -0.0582
  179MOL0     C24076   9.222   3.443   2.912  0.1904 -0.1298  0.0739
  179MOL0     C24077   9.292   3.512   2.811 -0.4414 -0.0622  0.5366
  179MOL0     O24078   9.257   3.417   2.508  0.0198  0.9376  0.6242
  179MOL0     C24079   9.472   3.651   2.360  1.2192 -0.6063  0.6247
  179MOL0     C24080   9.535   3.695   2.235 -0.0043  0.2185 -0.0926
  179MOL0     N24081   9.810   3.885   1.559 -0.0772 -0.0823 -0.2528
  179MOL0     N24082   9.829   3.916   1.435 -0.8707 -0.5330 -0.9091
  179MOL0     C24083  10.490   4.125   0.426  0.1438  0.8382  0.2978
  179MOL0     C24084  10.523   4.137   0.292 -0.5686 -0.9680 -0.2429
  179MOL0     C24085  10.647   3.964  -0.120  0.6371  0.3564 -0.6036
  179MOL0     C24086  10.652   3.835  -0.184  0.0287  0.3342 -0.3286
  179MOL0     C24087  10.690   3.819  -0.313  0.1313 -0.8804 -0.4825
  179MOL0     C24088  10.719   3.935  -0.392 -0.0866  0.6539  0.5631
  179MOL0     O24089  10.742   3.912  -0.525  0.2450 -1.2688 -0.6854
  179MOL0     C24090  10.870   3.964  -0.577 -0.2547 -0.1772  0.0452
  179MOL0     C24091  10.986   3.879  -0.528  0.5130  0.2560 -0.1226
  179MOL0     C24092  11.126   3.940  -0.553 -0.0802 -0.6141 -0.3329
  179MOL0     C24093  11.246   3.845  -0.554  0.2010 -0.5357  0.2254
  179MOL0     C24094  11.247   3.803  -0.690 -0.0305  0.1101  0.6269
  179MOL0     C24095  11.250   3.766  -0.807 -0.2741 -0.5649  0.1220
  179MOL0     C24096  10.708   4.059  -0.331 -0.0622 -0.4943  0.1905
  179MOL0     C24097  10.670   4.070  -0.198 -0.1392 -0.6053  0.4204
  179MOL0     H24098  10.798   3.957   0.291 -0.9131  1.6028 -1.4626
  179MOL0     H24099  10.737   3.944   0.538 -1.8742 -1.1750  1.4960
  179MOL0     H24100  10.612   4.253   0.675 -0.8080  0.2532 -1.7717
  179MOL0     H24101  10.436   4.229   0.683  0.9887  0.4336 -0.1999
  179MOL0     H24102  10.638   4.104   0.872 -0.1157 -0.1929  0.9759
  179MOL0     H24103  10.576   4.268   0.900 -0.9237  0.6045  3.0282
  179MOL0     H24104  10.340   4.118   0.909 -0.6094 -0.5897  1.4674
  179MOL0     H24105  10.446   3.990   0.944 -0.3031  0.4265 -1.3001
  179MOL0     H24106  10.538   4.166   1.122  0.3695 -2.6665 -1.5252
  179MOL0     H24107  10.387   4.256   1.073  0.8478  0.8707 -2.8622
  179MOL0     H24108  10.411   3.998   1.217  1.8006  0.2104  1.5361
  179MOL0     H24109  10.360   4.161   1.280  5.1321  0.1080 -0.6125
  179MOL0     H24110  10.163   4.155   1.114 -2.9793 -1.6895 -0.9504
  179MOL0     H24111  10.202   3.980   1.099 -1.0378 -0.0555  0.5814
  179MOL0     H24112  10.201   4.000   1.373 -1.8487 -2.1404 -0.7552
  179MOL0     H24113  10.077   4.125   1.334 -3.4885 -1.2373 -1.2934
  179MOL0     H24114  10.066   3.844   1.224  2.0766 -1.2993  1.9915
  179MOL0     H24115   9.948   3.987   1.221 -0.8488  1.7525  2.8703
  179MOL0     H24116  10.126   3.803   1.519  1.5512  4.4553 -1.6630
  179MOL0     H24117  10.044   3.713   1.757  2.9922  3.1677 -1.1106
  179MOL0     H24118  10.027   3.872   1.805  2.7236 -2.5639  1.3713
  179MOL0     H24119   9.785   3.708   1.740  1.3906  3.1478 -1.0937
  179MOL0     H24120   9.816   3.846   1.868  1.2038  1.6825 -1.2354
  179MOL0     H24121   9.878   3.673   2.029  0.6980  2.8461  0.1187
  179MOL0     H24122   9.901   3.558   1.894  3.8249  3.4443 -0.8364
  179MOL0     H24123   9.711   3.478   1.995 -0.6071 -1.4332 -0.6838
  179MOL0     H24124   9.654   3.543   1.849 -3.3402 -0.3236  1.8999
  179MOL0     H24125   9.493   3.424   2.046  0.9520 -0.3293 -0.7165
  179MOL0     H24126   9.417   3.253   2.355 -0.1130  1.4102 -0.2485
  179MOL0     H24127   9.262   3.304   2.282 -0.2742 -1.9273 -2.5062
  179MOL0     H24128   9.395   3.243   2.186  2.4178  1.8331 -0.7172
  179MOL0     H24129   9.511   3.255   2.729 -1.9517 -2.2604 -1.3287
  179MOL0     H24130   9.388   3.149   2.919  4.9518  1.6673  1.9562
  179MOL0     H24131   9.102   3.371   3.184  0.0092  1.8020 -2.7224
  179MOL0     H24132   9.010   3.298   3.049  2.5630  1.7166 -1.3856
  179MOL0     H24133   9.051   3.069   3.165 -1.5340  1.9976 -2.0709
  179MOL0     H24134   9.137   3.162   3.289  0.2690  2.3426  0.1496
  179MOL0     H24135   8.964   3.253   3.387  0.1574 -0.8471  0.8539
  179MOL0     H24136   8.905   3.091   3.363 -1.5438  0.5155 -0.1441
  179MOL0     H24137   8.821   3.316   3.188 -1.3342  0.8706  0.8249
  179MOL0     H24138   8.783   3.151   3.140  3.5664 -0.5411  0.4079
  179MOL0     H24139   8.727   3.256   3.422  0.0040  0.2847 -0.5997
  179MOL0     H24140   8.633   3.128   3.340 -1.2765 -0.9873 -2.1237
  179MOL0     H24141   8.513   3.347   3.363 -0.8552  1.0763 -0.8886
  179MOL0     H24142   8.637   3.418   3.259  1.7453 -1.0079 -1.8030
  179MOL0     H24143   8.427   3.197   3.222  0.4891 -1.4917 -1.6748
  179MOL0     H24144   8.552   3.225   3.099 -0.8158  0.5651 -1.1029
  179MOL0     H24145   8.339   3.401   3.206  1.0308 -1.7465 -0.0900
  179MOL0     H24146   8.334   3.319   3.048  1.1263 -0.1487 -1.6633
  179MOL0     H24147   9.145   3.487   2.976  2.1289  0.7899  1.9115
  179MOL0     H24148   9.262   3.612   2.783  3.5587  1.6807  1.6228
  179MOL0     H24149   9.467   3.719   2.444 -1.3765 -0.6131  0.5447
  179MOL0     H24150   9.589   3.787   2.251  1.3393 -0.5172 -0.2909
  179MOL0     H24151  10.390   4.153   0.458 -0.3854 -1.4895  0.8299
  179MOL0     H24152  10.463   4.183   0.214  0.6725 -1.8244 -1.7630
  179MOL0     H24153  10.629   3.745  -0.127 -0.3492 -1.0656 -2.5736
  179MOL0     H24154  10.688   3.722  -0.362 -0.0087 -0.1847 -1.9127
  179MOL0     H24155  10.871   3.969  -0.686  0.4492  1.2776  0.0962
  179MOL0     H24156  10.879   4.069  -0.547  1.6146 -0.0268 -0.9240
  179MOL0     H24157  10.973   3.783  -0.580  0.8461  0.9297 -1.4990
  179MOL0     H24158  10.967   3.853  -0.423 -0.5620 -1.6479 -0.7336
  179MOL0     H24159  11.134   4.017  -0.476 -0.0200 -1.2775  0.3380
  179MOL0     H24160  11.124   3.989  -0.651 -2.3619 -4.0088 -2.2186
  179MOL0     H24161  11.232   3.765  -0.480 -1.6994 -1.6173 -1.2076
  179MOL0     H24162  11.343   3.894  -0.541  1.5262 -2.8821 -0.3233
  179MOL0     H24163  11.252   3.732  -0.909 -1.0259  1.4114 -0.5989
  179MOL0     H24164  10.735   4.141  -0.398 -1.5940 -0.7841 -0.8313
  179MOL0     H24165  10.667   4.172  -0.161 -0.3647 -0.8460  1.0786
  180MOL0     O24166   6.601   2.105   3.849 -0.0411 -0.3055  0.0671
  180MOL0     C24167   6.530   2.194   3.878  0.8855 -0.2091 -0.7108
  180MOL0     O24168   6.421   2.177   3.950 -1.0688  1.1922  0.0711
  180MOL0     C24169   6.430   2.075   4.047  0.0214  0.4786  0.3280
  180MOL0     C24170   6.538   2.045   4.130 -0.3972  0.1580 -0.1792
  180MOL0     C24171   6.533   1.945   4.225  0.5811 -0.0627  0.6021
  180MOL0     C24172   6.420   1.869   4.245  0.3025 -0.4454 -0.6594
  180MOL0     O24173   6.418   1.776   4.341 -0.1682 -0.7179 -0.5082
  180MOL0     C24174   6.310   1.783   4.441  0.2128 -0.0339 -0.3308
  180MOL0     C24175   6.320   1.653   4.522 -0.1373  0.3838  0.0600
  180MOL0     C24176   6.459   1.624   4.589 -0.8299  0.8760  1.4759
  180MOL0     C24177   6.465   1.490   4.670 -0.4174  0.2988 -0.1782
  180MOL0     C24178   6.576   1.506   4.765  0.2525 -0.0601 -0.3715
  180MOL0     C24179   6.572   1.402   4.873 -0.2374 -0.0183  0.4800
  180MOL0     C24180   6.680   1.439   4.977 -0.0572  0.1830 -0.2259
  180MOL0     C24181   6.695   1.330   5.083 -0.4046 -0.0132 -0.3550
  180MOL0     N24182   6.767   1.215   5.024  0.1159  0.6151 -0.4290
  180MOL0     C24183   6.865   1.223   4.928 -0.7238 -0.4067 -0.4133
  180MOL0     C24184   6.939   1.110   4.929 -0.4485 -0.1840 -0.8279
  180MOL0     C24185   7.051   1.060   4.850 -0.1577  0.0252 -0.0594
  180MOL0     C24186   7.187   1.061   4.925  0.1606 -0.2501  0.1212
  180MOL0     C24187   7.274   1.184   4.902 -0.2471  0.3288 -0.0887
  180MOL0     C24188   7.203   1.304   4.951  0.3211 -0.4221  0.3143
  180MOL0     O24189   7.290   1.416   4.927  0.1471  0.3393 -0.9682
  180MOL0     C24190   7.252   1.531   4.987  1.1173 -0.1799 -1.0373
  180MOL0     C24191   7.130   1.550   5.059  0.5364  0.5041  0.5822
  180MOL0     C24192   7.100   1.673   5.113 -0.5498 -0.0553 -0.6485
  180MOL0     C24193   6.968   1.677   5.178  1.0377  0.2156 -0.0737
  180MOL0     C24194   7.184   1.784   5.107 -0.0803 -0.0977 -0.6056
  180MOL0     C24195   7.164   1.920   5.173  0.6353 -0.1251 -0.2660
  180MOL0     O24196   7.089   1.926   5.287 -0.0894 -0.3058 -0.4582
  180MOL0     C24197   7.021   2.045   5.308  0.1068 -0.4138 -0.1117
  180MOL0     C24198   7.065   2.137   5.405 -0.7890  0.6369  0.5804
  180MOL0     C24199   6.992   2.258   5.401  0.2861  0.5563 -0.2828
  180MOL0     C24200   6.882   2.288   5.311  0.1060  0.5887 -0.4511
  180MOL0     O24201   6.809   2.401   5.319  0.9158  0.6321  0.2329
  180MOL0     C24202   6.846   2.518   5.388  0.7870 -0.4617  0.7091
  180MOL0     C24203   6.761   2.635   5.342  0.4974 -0.4302 -0.4377
  180MOL0     C24204   6.780   2.760   5.434  0.2240  1.0621 -0.3819
  180MOL0     C24205   6.677   2.868   5.391  0.4824 -0.6442  0.1217
  180MOL0     C24206   6.667   2.984   5.499  0.6568  0.0135  0.0373
  180MOL0     C24207   6.594   3.092   5.422 -0.1654 -0.4686 -0.5061
  180MOL0     C24208   6.691   3.203   5.368 -0.5182 -0.0874 -0.0622
  180MOL0     C24209   6.603   3.317   5.302  0.8670  0.3412  0.1748
  180MOL0    Cl24210   6.497   3.257   5.166  0.7064  0.5715 -0.2118
  180MOL0     C24211   6.833   2.189   5.227 -0.3798  0.7183  0.4631
  180MOL0     C24212   6.905   2.069   5.223  1.0535 -0.3200  0.0780
  180MOL0     O24213   7.200   2.018   5.101  0.4361  0.2603  0.2321
  180MOL0     C24214   7.308   1.773   5.028 -0.0083  1.0289  0.1048
  180MOL0     C24215   7.329   1.646   4.966 -1.0010  0.7384 -0.0492
  180MOL0     N24216   6.883   1.030   5.021 -0.0991  0.0597 -0.2498
  180MOL0     N24217   6.774   1.088   5.070  0.3510 -0.0471 -0.1377
  180MOL0     C24218   6.313   1.894   4.165  0.6485  0.3008  0.4675
  180MOL0     C24219   6.309   2.008   4.076  0.4659  1.2968 -0.5037
  180MOL0     C24220   6.543   2.320   3.807  0.4141  0.0932  0.4202
  180MOL0     C24221   6.477   2.434   3.855  0.2088 -1.2171 -0.1980
  180MOL0     C24222   6.475   2.551   3.772 -0.2748 -0.2168 -0.3329
  180MOL0     C24223   6.567   2.561   3.669  1.0906  0.1465 -0.0219
  180MOL0     O24224   6.590   2.669   3.594 -0.7784 -1.6184  0.6715
  180MOL0     C24225   6.621   2.797   3.650  0.5018  0.0273  0.5079
  180MOL0     C24226   6.701   2.874   3.545 -0.2567 -0.6688  0.2643
  180MOL0     C24227   6.612   2.896   3.424 -0.2356 -0.1590  0.6094
  180MOL0     C24228   6.694   2.966   3.315 -0.1489  0.0336  1.1008
  180MOL0     C24229   6.638   2.958   3.179  1.2646  0.1003 -0.4514
  180MOL0     C24230   6.585   2.948   3.072 -0.7669  0.6044  0.1375
  180MOL0     C24231   6.612   2.442   3.615  0.1936  1.0402  0.3370
  180MOL0     C24232   6.609   2.324   3.679  0.8487  0.1956  0.1714
  180MOL0     H24233   6.630   2.095   4.099 -0.1129 -1.4635 -2.1703
  180MOL0     H24234   6.610   1.928   4.299  0.4071  0.2661  0.8579
  180MOL0     H24235   6.324   1.870   4.505  1.2674  0.7287 -1.5476
  180MOL0     H24236   6.216   1.795   4.386 -0.9337  1.4972  1.8049
  180MOL0     H24237   6.250   1.657   4.606  1.7177 -0.7150  1.7533
  180MOL0     H24238   6.276   1.564   4.476 -0.2934  0.0699  0.8034
  180MOL0     H24239   6.522   1.611   4.501 -2.3049  3.5925 -0.1340
  180MOL0     H24240   6.502   1.714   4.634  1.7643  2.0982 -2.8271
  180MOL0     H24241   6.370   1.476   4.722 -1.0908  0.9877 -1.1821
  180MOL0     H24242   6.484   1.410   4.599  1.7869 -0.7002  1.4310
  180MOL0     H24243   6.664   1.485   4.704 -0.3613 -0.6751 -1.0781
  180MOL0     H24244   6.568   1.606   4.808 -0.1440 -0.3755  0.2990
  180MOL0     H24245   6.475   1.398   4.922  0.4021 -3.4326  1.6989
  180MOL0     H24246   6.580   1.298   4.842  2.2016  0.2064  0.1210
  180MOL0     H24247   6.779   1.467   4.939  1.5935  0.5916  3.8900
  180MOL0     H24248   6.630   1.527   5.018 -0.5463 -1.0998  2.1201
  180MOL0     H24249   6.600   1.292   5.119 -0.8299  3.2818  2.6832
  180MOL0     H24250   6.749   1.370   5.170 -0.0876 -3.5882  1.2628
  180MOL0     H24251   6.882   1.303   4.856 -1.3194 -1.2321 -1.5236
  180MOL0     H24252   7.036   0.956   4.823  0.1562 -0.3696  1.2079
  180MOL0     H24253   7.043   1.106   4.751 -0.8978 -1.2640 -0.6218
  180MOL0     H24254   7.248   0.975   4.898 -3.2411 -3.9888  3.0773
  180MOL0     H24255   7.169   1.050   5.032 -2.2356 -0.2375 -0.2136
  180MOL0     H24256   7.310   1.178   4.799  1.7695 -2.1178  0.6782
  180MOL0     H24257   7.367   1.177   4.959  1.0938 -2.0498 -2.3895
  180MOL0     H24258   7.167   1.292   5.054  1.0912 -1.3949  0.4865
  180MOL0     H24259   7.114   1.314   4.888 -0.5550  0.6491  1.6513
  180MOL0     H24260   7.061   1.468   5.070 -2.2392  2.3379 -1.6546
  180MOL0     H24261   6.978   1.663   5.286  1.2519 -0.1141 -0.1333
  180MOL0     H24262   6.917   1.771   5.160  0.0569 -0.4770 -1.0055
  180MOL0     H24263   6.900   1.599   5.143 -1.2587  0.8031  2.7033
  180MOL0     H24264   7.146   2.107   5.471 -0.1928 -3.9309 -1.8022
  180MOL0     H24265   7.021   2.339   5.468  1.3662 -2.2968  3.0071
  180MOL0     H24266   6.841   2.493   5.494  0.3151 -1.8563  0.3803
  180MOL0     H24267   6.949   2.546   5.361  0.2250  0.9079 -0.1119
  180MOL0     H24268   6.773   2.663   5.237 -5.5700  2.2548 -0.8735
  180MOL0     H24269   6.656   2.603   5.345  1.0543 -2.5073 -1.4377
  180MOL0     H24270   6.882   2.801   5.437 -0.6771  3.4066  2.1077
  180MOL0     H24271   6.777   2.738   5.542  2.9706  0.9300 -0.2370
  180MOL0     H24272   6.719   2.912   5.301  1.7602 -0.3355  0.8434
  180MOL0     H24273   6.574   2.833   5.374 -0.9262  2.8523  0.5183
  180MOL0     H24274   6.766   3.014   5.534 -0.5007  3.8937  0.3845
  180MOL0     H24275   6.615   2.941   5.586  0.0153 -2.1397 -1.3133
  180MOL0     H24276   6.534   3.055   5.339  1.2811  3.9844 -3.8848
  180MOL0     H24277   6.517   3.137   5.486  0.8305 -0.2374  0.5814
  180MOL0     H24278   6.757   3.167   5.289 -1.4731  1.9158 -1.8607
  180MOL0     H24279   6.756   3.233   5.451 -0.8591  0.3550  0.0469
  180MOL0     H24280   6.663   3.406   5.283 -2.4055  2.8442  0.6870
  180MOL0     H24281   6.538   3.352   5.383  1.8340 -1.9966  2.0647
  180MOL0     H24282   6.740   2.187   5.171 -1.3898 -1.2333  2.1070
  180MOL0     H24283   6.871   1.993   5.153 -0.5343  1.3691 -1.0839
  180MOL0     H24284   7.381   1.852   5.011  2.3355 -1.2346 -0.8939
  180MOL0     H24285   7.411   1.628   4.897  1.0052 -1.1525  2.6111
  180MOL0     H24286   6.226   1.831   4.156 -0.0203  1.3710 -0.8090
  180MOL0     H24287   6.223   2.030   4.014  1.4129  0.7013 -2.0907
  180MOL0     H24288   6.413   2.421   3.942 -1.3175 -1.5520 -1.3335
  180MOL0     H24289   6.419   2.635   3.811  0.6186  0.8127 -1.1895
  180MOL0     H24290   6.526   2.850   3.660  1.7478  3.1041 -2.1814
  180MOL0     H24291   6.679   2.791   3.743  0.8758 -1.5737  0.2058
  180MOL0     H24292   6.794   2.821   3.521  0.5872  0.5958  0.5749
  180MOL0     H24293   6.728   2.972   3.587 -1.9762 -0.8855  2.0068
  180MOL0     H24294   6.524   2.956   3.451  0.3737 -0.1592  2.7885
  180MOL0     H24295   6.576   2.803   3.380 -2.7137  1.2812 -0.6465
  180MOL0     H24296   6.795   2.925   3.298 -0.5744  0.5159 -4.3298
  180MOL0     H24297   6.696   3.073   3.338 -3.7287  0.7387 -1.1436
  180MOL0     H24298   6.550   2.931   2.972 -1.4244 -4.6851  0.9552
  180MOL0     H24299   6.656   2.448   3.516 -1.0894  0.7451 -0.2691
  180MOL0     H24300   6.650   2.240   3.624 -1.2302  0.9580 -2.7570
  181MOL0     O24301   2.408   2.949  10.238  0.5799 -0.6024  0.2485
  181MOL0     C24302   2.365   3.029  10.152  0.6836 -1.1401  0.6300
  181MOL0     O24303   2.327   3.001  10.022 -0.9080 -0.2158 -0.3420
  181MOL0     C24304   2.305   2.878   9.987 -0.1394  0.3130 -0.2108
  181MOL0     C24305   2.391   2.765  10.009  0.8896 -0.1840  0.2679
  181MOL0     C24306   2.360   2.631   9.958  0.1718 -0.2178  0.2267
  181MOL0     C24307   2.237   2.620   9.898 -0.4699  0.2739  0.5606
  181MOL0     O24308   2.206   2.496   9.839 -0.1560  0.0443 -0.1403
  181MOL0     C24309   2.216   2.374   9.915 -0.1144  0.0767  0.5596
  181MOL0     C24310   2.085   2.327   9.974 -0.4722  0.4257  0.1927
  181MOL0     C24311   1.981   2.320   9.866  0.0632 -1.4733 -0.4093
  181MOL0     C24312   1.874   2.216   9.935 -0.5576 -0.5482  0.7234
  181MOL0     C24313   1.759   2.210   9.833 -0.2533 -0.7927  0.1066
  181MOL0     C24314   1.802   2.124   9.702  0.4654  0.0138  0.0612
  181MOL0     C24315   1.681   2.134   9.601 -0.9156  0.5389  0.3290
  181MOL0     C24316   1.548   2.057   9.639  0.4016 -0.0155 -0.2935
  181MOL0     N24317   1.457   2.028   9.529  0.4817  0.6168  0.3772
  181MOL0     C24318   1.351   2.103   9.493 -0.0385  0.1494  0.0488
  181MOL0     C24319   1.303   2.051   9.381  0.4389  0.0721  0.2009
  181MOL0     C24320   1.181   2.102   9.309 -0.0101 -0.3184 -0.4546
  181MOL0     C24321   1.154   2.067   9.162  0.5172 -0.6077 -1.0947
  181MOL0     C24322   1.033   2.130   9.102  0.6204  0.4896 -0.3592
  181MOL0     C24323   1.024   2.073   8.953  0.5841 -0.1720  0.1194
  181MOL0     O24324   0.887   2.089   8.914  0.0020 -0.1763 -0.0182
  181MOL0     C24325   0.801   1.984   8.928 -0.0193  0.2611 -0.2893
  181MOL0     C24326   0.687   1.997   8.848 -0.1831  0.2686  0.0224
  181MOL0     C24327   0.599   1.889   8.834  0.8797  0.7035 -0.0119
  181MOL0     C24328   0.479   1.913   8.752  0.5556  0.7535  0.0818
  181MOL0     C24329   0.617   1.768   8.909  0.2741 -0.8097  0.7477
  181MOL0     C24330   0.530   1.651   8.883  0.6537  0.0946  0.4476
  181MOL0     O24331   0.504   1.618   8.747 -0.3307 -0.5452 -0.6066
  181MOL0     C24332   0.456   1.492   8.714  0.7314 -0.1757 -0.6084
  181MOL0     C24333   0.497   1.371   8.778 -0.7636  0.4178 -0.0919
  181MOL0     C24334   0.444   1.243   8.739  0.7753  0.4103 -0.6244
  181MOL0     C24335   0.358   1.230   8.628  0.1910  0.2158 -2.2644
  181MOL0     O24336   0.305   1.114   8.578  0.3139 -0.2361  0.0757
  181MOL0     C24337   0.399   1.002   8.543  0.0428 -1.0020  1.3011
  181MOL0     C24338   0.521   1.042   8.462  0.0611 -0.6761  0.0302
  181MOL0     C24339   0.484   1.119   8.337 -0.6293 -0.0056 -0.1441
  181MOL0     C24340   0.585   1.066   8.218 -0.6961 -0.0602  1.1353
  181MOL0     C24341   0.599   1.168   8.096 -1.0346 -0.4622 -0.8860
  181MOL0     C24342   0.469   1.221   8.032  0.1498 -0.9949  0.3442
  181MOL0     C24343   0.486   1.315   7.905  0.5374 -0.3328  0.8065
  181MOL0     C24344   0.588   1.254   7.801  0.4095 -0.1380 -0.6792
  181MOL0    Cl24345   0.521   1.099   7.774  0.3431 -0.4006  0.3769
  181MOL0     C24346   0.326   1.350   8.563  0.9371 -0.4708 -0.3126
  181MOL0     C24347   0.360   1.476   8.611 -0.7299  0.0469  0.7124
  181MOL0     O24348   0.484   1.596   8.977  0.2312 -0.3191 -0.3276
  181MOL0     C24349   0.725   1.767   8.997  1.1388 -0.1156  0.1961
  181MOL0     C24350   0.810   1.881   9.013  0.4967 -0.1864 -0.1800
  181MOL0     N24351   1.381   1.950   9.342 -1.0801 -0.3272 -0.3303
  181MOL0     N24352   1.472   1.936   9.434 -0.0551  0.4621  0.0127
  181MOL0     C24353   2.156   2.726   9.871  0.0401 -0.3115 -1.0503
  181MOL0     C24354   2.188   2.859   9.919  0.6930  0.6438 -0.1104
  181MOL0     C24355   2.353   3.171  10.189  0.3405  0.1351  0.7426
  181MOL0     C24356   2.274   3.263  10.119  0.3185 -0.9160  0.1390
  181MOL0     C24357   2.265   3.400  10.154 -0.3659  0.0710 -0.2509
  181MOL0     C24358   2.338   3.446  10.259  0.7098 -0.0375 -1.3212
  181MOL0     O24359   2.359   3.575  10.294 -0.0764  0.0169  0.0803
  181MOL0     C24360   2.323   3.676  10.193 -0.3085 -0.3997  0.2780
  181MOL0     C24361   2.394   3.798  10.241 -0.3004 -0.5007 -0.1065
  181MOL0     C24362   2.343   3.926  10.164 -0.6185 -0.7203  0.4816
  181MOL0     C24363   2.470   4.017  10.142 -0.1395 -0.0771 -0.5133
  181MOL0     C24364   2.431   4.133  10.063  0.5742  0.8873 -0.3360
  181MOL0     C24365   2.414   4.239  10.008  0.1714 -0.0325 -0.1208
  181MOL0     C24366   2.414   3.351  10.331  0.4460  0.1068  0.0925
  181MOL0     C24367   2.427   3.222  10.295  0.5265  0.0467 -0.5983
  181MOL0     H24368   2.494   2.775  10.041  1.4416 -3.4000 -0.1334
  181MOL0     H24369   2.425   2.547   9.982  2.2708  0.3741 -2.7889
  181MOL0     H24370   2.242   2.301   9.838 -2.6941 -0.7083  0.3521
  181MOL0     H24371   2.293   2.376   9.993 -0.5501  5.0748  1.1903
  181MOL0     H24372   2.099   2.227  10.015 -0.5153 -0.6805 -2.2882
  181MOL0     H24373   2.067   2.407  10.046 -1.3564  0.5217 -0.1280
  181MOL0     H24374   1.941   2.420   9.850  0.8061 -0.4904  3.0671
  181MOL0     H24375   2.009   2.290   9.764  1.3530 -1.0657 -0.1950
  181MOL0     H24376   1.897   2.110   9.945 -2.0106 -1.0599 -0.9590
  181MOL0     H24377   1.846   2.254  10.033 -0.3943  1.5221  0.0211
  181MOL0     H24378   1.680   2.146   9.874 -1.3349 -2.1435 -3.7107
  181MOL0     H24379   1.728   2.311   9.805 -0.2887 -1.1679 -1.2866
  181MOL0     H24380   1.893   2.168   9.659  1.1887 -0.6823  0.8490
  181MOL0     H24381   1.827   2.021   9.730 -2.4275 -0.1955  2.2892
  181MOL0     H24382   1.652   2.239   9.591 -1.2822  0.2659 -2.5188
  181MOL0     H24383   1.709   2.097   9.501 -1.2549 -0.4300  0.5788
  181MOL0     H24384   1.495   2.100   9.724 -0.1643  0.7422 -1.0216
  181MOL0     H24385   1.579   1.955   9.666 -0.6573 -1.0471 -2.6615
  181MOL0     H24386   1.305   2.181   9.553 -1.8112 -0.6978 -0.1498
  181MOL0     H24387   1.096   2.061   9.365 -0.5836  0.2140 -0.9086
  181MOL0     H24388   1.190   2.211   9.315 -0.3140 -0.3038 -0.2438
  181MOL0     H24389   1.156   1.958   9.153 -2.6630 -0.8887  0.2561
  181MOL0     H24390   1.233   2.103   9.096 -0.6187  1.2819 -1.4990
  181MOL0     H24391   1.038   2.239   9.115  1.5393  0.3886  0.1996
  181MOL0     H24392   0.945   2.098   9.159 -0.1381  1.8174 -0.7325
  181MOL0     H24393   1.063   1.972   8.945 -0.4193 -0.7353  1.7561
  181MOL0     H24394   1.082   2.132   8.882 -1.2906  0.8551 -0.6386
  181MOL0     H24395   0.673   2.091   8.796 -1.0455  0.5668  0.7472
  181MOL0     H24396   0.464   2.021   8.747 -0.8931  0.7415  2.4593
  181MOL0     H24397   0.483   1.858   8.657  3.8408 -0.2832  0.6724
  181MOL0     H24398   0.397   1.868   8.809  2.5875 -0.0341  2.6059
  181MOL0     H24399   0.562   1.379   8.865 -2.0323  2.3582  0.7404
  181MOL0     H24400   0.463   1.149   8.790 -0.7066 -0.1353 -1.0261
  181MOL0     H24401   0.435   0.956   8.635  0.1882 -0.9051  1.2923
  181MOL0     H24402   0.352   0.931   8.475 -0.0757  1.7341 -1.7234
  181MOL0     H24403   0.578   1.103   8.534 -0.4518 -0.8927  0.6208
  181MOL0     H24404   0.569   0.946   8.444  1.2273 -0.3508  1.1783
  181MOL0     H24405   0.495   1.227   8.351  2.1414 -0.1927 -0.4981
  181MOL0     H24406   0.379   1.102   8.311 -0.3551 -3.1294  0.4124
  181MOL0     H24407   0.684   1.067   8.265  0.4262  0.2912 -1.1014
  181MOL0     H24408   0.556   0.967   8.181 -2.3598  1.4712 -2.0219
  181MOL0     H24409   0.662   1.127   8.017 -0.8176  1.2028 -1.6174
  181MOL0     H24410   0.651   1.256   8.135  0.0015 -0.7589 -1.5379
  181MOL0     H24411   0.412   1.134   7.999 -2.5848  1.9662 -3.7436
  181MOL0     H24412   0.405   1.274   8.103  2.2186  2.0802  0.1007
  181MOL0     H24413   0.515   1.412   7.947 -0.8104  0.2349  0.4735
  181MOL0     H24414   0.393   1.341   7.853  1.4614  2.1907  0.2864
  181MOL0     H24415   0.685   1.232   7.847 -0.6982  0.6909  2.3391
  181MOL0     H24416   0.604   1.303   7.704  1.2113  2.2250  0.5484
  181MOL0     H24417   0.246   1.339   8.491 -1.9835  1.4934  2.3308
  181MOL0     H24418   0.307   1.560   8.567  2.1427  1.5005 -0.2792
  181MOL0     H24419   0.731   1.679   9.061 -0.7724 -0.2249  0.2721
  181MOL0     H24420   0.897   1.880   9.078 -0.8187  0.9111  1.6532
  181MOL0     H24421   2.063   2.705   9.820 -0.6568 -0.2999  0.1592
  181MOL0     H24422   2.126   2.946   9.900 -1.7770 -0.8037  0.8824
  181MOL0     H24423   2.223   3.224  10.031  1.4316 -2.3830  0.1005
  181MOL0     H24424   2.216   3.467  10.083  0.1555 -2.0585 -2.8006
  181MOL0     H24425   2.345   3.655  10.088  1.6578  4.5705 -0.5981
  181MOL0     H24426   2.214   3.683  10.189 -0.3483 -0.9341  0.3772
  181MOL0     H24427   2.497   3.783  10.206 -0.5072  1.0932 -1.4710
  181MOL0     H24428   2.385   3.826  10.346  2.6670 -0.3543  0.2129
  181MOL0     H24429   2.279   3.994  10.221  0.6452  3.2297 -2.3760
  181MOL0     H24430   2.290   3.894  10.073 -1.1362 -2.1300  1.2430
  181MOL0     H24431   2.545   3.963  10.084  0.3904  2.1266 -2.0305
  181MOL0     H24432   2.506   4.047  10.240 -2.1353 -0.3180  0.3453
  181MOL0     H24433   2.388   4.333   9.962 -1.3584 -0.9907 -1.3068
  181MOL0     H24434   2.469   3.398  10.412 -1.0880 -0.6403  1.6441
  181MOL0     H24435   2.497   3.165  10.354  0.2008 -1.3379 -1.5017
  182MOL0     O24436   0.112   7.016   2.351 -0.7548 -0.0688  0.7866
  182MOL0     C24437   0.119   7.132   2.388  0.3630 -0.5818 -0.6034
  182MOL0     O24438   0.017   7.203   2.421  0.5162  0.1146 -0.2191
  182MOL0     C24439  -0.112   7.142   2.438 -0.0191 -0.4034  0.8799
  182MOL0     C24440  -0.142   7.063   2.553 -0.3317 -0.2573  0.0391
  182MOL0     C24441  -0.262   7.001   2.574 -0.8117  0.6596 -0.0471
  182MOL0     C24442  -0.354   7.013   2.475 -0.0905  0.1654  0.4973
  182MOL0     O24443  -0.475   6.949   2.489 -0.6324 -0.4035  0.2952
  182MOL0     C24444  -0.481   6.809   2.461 -0.6023  0.5305 -0.1595
  182MOL0     C24445  -0.569   6.781   2.337  0.2594  0.1710  0.3046
  182MOL0     C24446  -0.502   6.829   2.197 -0.4352  0.8706 -0.0301
  182MOL0     C24447  -0.594   6.903   2.110  0.4651  0.3140  0.1596
  182MOL0     C24448  -0.533   6.976   1.998 -0.2321 -0.1169  0.2098
  182MOL0     C24449  -0.640   7.038   1.903 -0.3489  0.3297 -0.5660
  182MOL0     C24450  -0.582   7.100   1.774  0.4505 -0.6474 -0.0492
  182MOL0     C24451  -0.683   7.197   1.708 -0.5122 -0.0688 -0.5514
  182MOL0     N24452  -0.641   7.280   1.591 -0.6623 -0.4756 -0.1911
  182MOL0     C24453  -0.673   7.249   1.465  1.0914  0.5451 -0.4186
  182MOL0     C24454  -0.626   7.349   1.394 -0.6247  0.7805  0.0894
  182MOL0     C24455  -0.650   7.358   1.249 -0.0626 -0.1591  0.3375
  182MOL0     C24456  -0.769   7.447   1.218  0.4207  0.1713  0.6333
  182MOL0     C24457  -0.817   7.425   1.071 -0.7912  1.0225 -0.6385
  182MOL0     C24458  -0.920   7.532   1.036 -0.7797 -0.4140 -0.7351
  182MOL0     O24459  -0.958   7.512   0.900 -0.3532 -0.6396 -0.0312
  182MOL0     C24460  -1.037   7.611   0.847  0.0133 -1.1089 -0.6567
  182MOL0     C24461  -1.129   7.694   0.916 -0.1846 -0.2289 -0.5421
  182MOL0     C24462  -1.217   7.784   0.853  0.5821  0.6627  0.6166
  182MOL0     C24463  -1.313   7.856   0.948 -0.5972  0.0354  0.2711
  182MOL0     C24464  -1.229   7.773   0.710 -0.2275 -0.7512 -1.0494
  182MOL0     C24465  -1.320   7.852   0.626 -0.4599 -0.3295 -0.2018
  182MOL0     O24466  -1.346   7.802   0.504 -0.1810 -0.3519  0.7817
  182MOL0     C24467  -1.443   7.860   0.432  0.3182  0.3122  0.6809
  182MOL0     C24468  -1.411   7.975   0.353 -0.1476  0.5845  0.0779
  182MOL0     C24469  -1.504   8.028   0.264 -0.2887  0.8533 -0.1192
  182MOL0     C24470  -1.638   7.974   0.254 -1.0457  0.2279 -0.0884
  182MOL0     O24471  -1.732   8.034   0.171 -0.6487 -0.6297 -0.0550
  182MOL0     C24472  -1.706   8.173   0.131  0.0485  0.7289 -0.0092
  182MOL0     C24473  -1.823   8.209   0.039 -0.6026  0.3602 -0.4179
  182MOL0     C24474  -1.788   8.323  -0.057 -0.2535 -0.3679 -0.2650
  182MOL0     C24475  -1.901   8.393  -0.129 -0.3314  0.8017 -0.6548
  182MOL0     C24476  -1.854   8.514  -0.198 -0.6002 -0.3765 -0.1648
  182MOL0     C24477  -1.967   8.598  -0.246  0.0314  0.3117 -0.1206
  182MOL0     C24478  -2.086   8.520  -0.302 -0.2840  0.4660 -0.1277
  182MOL0     C24479  -2.154   8.597  -0.411  1.0443  0.0451 -0.4634
  182MOL0    Cl24480  -2.087   8.554  -0.579  0.1665 -0.5624  0.0748
  182MOL0     C24481  -1.670   7.868   0.343  0.4487  0.6464  0.2982
  182MOL0     C24482  -1.576   7.801   0.422 -0.4271  0.2458 -0.3824
  182MOL0     O24483  -1.371   7.955   0.672 -0.1395 -0.6581  0.5534
  182MOL0     C24484  -1.137   7.689   0.643 -0.3534  0.1912  0.1344
  182MOL0     C24485  -1.051   7.607   0.711 -0.2114  0.0037  0.3183
  182MOL0     N24486  -0.573   7.455   1.476  0.4740 -0.3113  0.0307
  182MOL0     N24487  -0.580   7.401   1.596 -0.6562  0.3373 -0.3721
  182MOL0     C24488  -0.343   7.095   2.367  0.1462 -0.8191  0.9352
  182MOL0     C24489  -0.219   7.155   2.336  0.3649 -1.9481  0.0216
  182MOL0     C24490   0.253   7.197   2.403  0.5743  0.3930 -0.2851
  182MOL0     C24491   0.366   7.117   2.391  0.6370 -0.3632  0.4625
  182MOL0     C24492   0.491   7.174   2.408  0.0372 -0.4374 -0.9071
  182MOL0     C24493   0.501   7.311   2.444 -0.4531  0.2094  0.3844
  182MOL0     O24494   0.627   7.367   2.471 -0.7253  0.7693  0.4989
  182MOL0     C24495   0.737   7.277   2.486 -0.5414  0.4376  0.4533
  182MOL0     C24496   0.876   7.345   2.506  0.2664 -0.1059  0.1038
  182MOL0     C24497   0.879   7.440   2.630 -0.5430  0.2035 -1.1576
  182MOL0     C24498   1.023   7.483   2.650 -0.5818  0.3745 -0.0606
  182MOL0     C24499   1.052   7.575   2.766 -0.2334  0.3856  0.4684
  182MOL0     C24500   1.070   7.667   2.848 -0.0693  0.0660 -0.6984
  182MOL0     C24501   0.391   7.395   2.461 -0.7028  0.0212 -0.4617
  182MOL0     C24502   0.268   7.331   2.437  0.4753  0.9862  0.0328
  182MOL0     H24503  -0.058   7.053   2.621 -0.5867  3.0466  1.0632
  182MOL0     H24504  -0.283   6.933   2.656  0.6989  0.0187 -0.1679
  182MOL0     H24505  -0.380   6.771   2.442 -0.3540  1.2778 -0.3592
  182MOL0     H24506  -0.524   6.761   2.549  0.1774  1.7023  0.8981
  182MOL0     H24507  -0.584   6.673   2.323  3.0980 -0.0797 -1.4476
  182MOL0     H24508  -0.669   6.824   2.351  0.0034 -0.8609  1.8595
  182MOL0     H24509  -0.416   6.895   2.211  0.5949 -0.3592 -0.4518
  182MOL0     H24510  -0.468   6.739   2.147 -2.9829  0.4396 -1.1354
  182MOL0     H24511  -0.669   6.835   2.069  1.9180 -0.3356 -1.5740
  182MOL0     H24512  -0.653   6.970   2.173 -2.0386 -3.0521  1.6543
  182MOL0     H24513  -0.465   7.049   2.043 -0.3576  0.0653  0.1090
  182MOL0     H24514  -0.472   6.904   1.942 -0.9516  0.6185 -1.6227
  182MOL0     H24515  -0.723   6.970   1.882 -0.8829  1.2319 -1.5244
  182MOL0     H24516  -0.670   7.123   1.965  3.3571  0.1937  1.6663
  182MOL0     H24517  -0.494   7.162   1.792  0.1809 -0.3325  0.1888
  182MOL0     H24518  -0.556   7.020   1.704  2.8333 -0.6860  0.7884
  182MOL0     H24519  -0.718   7.267   1.784 -0.3671  0.6246 -1.1159
  182MOL0     H24520  -0.771   7.135   1.684 -0.5470 -0.4701  0.5571
  182MOL0     H24521  -0.728   7.159   1.440 -1.1797  0.7618  3.0739
  182MOL0     H24522  -0.557   7.396   1.205  0.5004 -2.2909 -0.4582
  182MOL0     H24523  -0.669   7.256   1.213 -1.1774 -0.1719  0.9180
  182MOL0     H24524  -0.735   7.550   1.231 -0.5347  0.3342  2.1851
  182MOL0     H24525  -0.859   7.426   1.277 -1.8123  0.8862 -2.2937
  182MOL0     H24526  -0.869   7.329   1.079  0.5698  0.3512  0.8002
  182MOL0     H24527  -0.730   7.425   1.004 -1.3326  1.4228 -1.3456
  182MOL0     H24528  -0.882   7.634   1.048 -3.0947  0.8360 -2.9591
  182MOL0     H24529  -1.009   7.531   1.100 -0.8307 -1.6963 -0.8035
  182MOL0     H24530  -1.129   7.679   1.023 -0.0538  1.2452 -0.3137
  182MOL0     H24531  -1.413   7.848   0.907 -0.6575 -1.2891  0.6343
  182MOL0     H24532  -1.321   7.809   1.047  0.3791 -0.4582  0.1328
  182MOL0     H24533  -1.266   7.954   0.962  1.1596 -0.7691  0.3646
  182MOL0     H24534  -1.308   8.010   0.348  0.9827 -2.6075 -2.4225
  182MOL0     H24535  -1.465   8.112   0.207  1.4837  1.3302  1.6976
  182MOL0     H24536  -1.717   8.243   0.214 -0.7579  0.8063 -0.1780
  182MOL0     H24537  -1.616   8.207   0.079 -1.7257  2.7633 -1.9532
  182MOL0     H24538  -1.862   8.130  -0.025 -1.4177  1.5676 -1.4377
  182MOL0     H24539  -1.903   8.250   0.101  1.4713  0.5366  2.3675
  182MOL0     H24540  -1.721   8.293  -0.138 -1.8348 -0.4011 -1.5997
  182MOL0     H24541  -1.734   8.398   0.002  0.2716 -2.7449  2.5148
  182MOL0     H24542  -1.946   8.321  -0.198  1.2663 -1.1965  0.2740
  182MOL0     H24543  -1.976   8.422  -0.054  3.0590  0.7997  3.0646
  182MOL0     H24544  -1.803   8.486  -0.291  1.5871  1.8151  0.2744
  182MOL0     H24545  -1.795   8.586  -0.140 -1.4241 -0.7438  1.1653
  182MOL0     H24546  -2.010   8.652  -0.161  1.9134 -1.6197  2.2287
  182MOL0     H24547  -1.928   8.676  -0.312 -2.1475  0.4448 -1.3534
  182MOL0     H24548  -2.156   8.493  -0.223 -1.1185 -1.5456 -1.4612
  182MOL0     H24549  -2.053   8.427  -0.350 -1.1458  0.6102 -1.0372
  182MOL0     H24550  -2.163   8.706  -0.403 -0.1195  0.0410 -1.3496
  182MOL0     H24551  -2.254   8.555  -0.402  1.6736 -1.4143  0.0204
  182MOL0     H24552  -1.773   7.836   0.341  0.5107  0.4982 -0.9735
  182MOL0     H24553  -1.601   7.718   0.488 -3.4523  0.1067 -1.5380
  182MOL0     H24554  -1.131   7.691   0.534  0.4304 -3.9820 -0.0553
  182MOL0     H24555  -0.987   7.552   0.642 -0.1779  0.5542 -0.0999
  182MOL0     H24556  -0.428   7.122   2.305  0.3756  2.3657  1.8018
  182MOL0     H24557  -0.195   7.217   2.250 -1.2831 -0.1287  0.7912
  182MOL0     H24558   0.357   7.016   2.353 -5.0935  1.6822 -5.3443
  182MOL0     H24559   0.576   7.110   2.387  1.4341  0.9455  0.3122
  182MOL0     H24560   0.722   7.203   2.565 -0.5566  1.4900  1.4484
  182MOL0     H24561   0.731   7.229   2.387 -2.0638 -0.3131  0.8714
  182MOL0     H24562   0.907   7.388   2.410  0.2044 -0.5487 -0.1167
  182MOL0     H24563   0.949   7.267   2.529  0.6333  0.6408  1.5276
  182MOL0     H24564   0.846   7.390   2.721 -0.3911  1.6618 -0.2736
  182MOL0     H24565   0.811   7.523   2.610  0.4070  1.0031 -1.1201
  182MOL0     H24566   1.064   7.534   2.562  1.1096  2.0009  1.6012
  182MOL0     H24567   1.075   7.388   2.666 -1.5654 -0.1935 -0.1433
  182MOL0     H24568   1.095   7.749   2.911 -0.9447 -0.1757 -0.0065
  182MOL0     H24569   0.397   7.503   2.473  1.7104 -0.1365  0.2168
  182MOL0     H24570   0.180   7.393   2.448 -1.3284 -0.6613 -3.5890
  183MOL0     O24571   3.821   1.447   9.950  0.8019  0.4006  0.8126
  183MOL0     C24572   3.921   1.524   9.962  0.8204 -0.2756 -0.3843
  183MOL0     O24573   4.051   1.515   9.915 -0.0130 -0.0653  0.3196
  183MOL0     C24574   4.083   1.409   9.830  0.1714 -0.7206 -0.4082
  183MOL0     C24575   4.101   1.428   9.694  0.1492  0.2011 -0.4342
  183MOL0     C24576   4.118   1.310   9.609  1.9930  0.0945  0.3434
  183MOL0     C24577   4.125   1.183   9.662  0.3115  0.2484 -0.0205
  183MOL0     O24578   4.159   1.063   9.606  0.1849  0.0131 -1.0241
  183MOL0     C24579   4.144   1.050   9.469 -0.0200 -0.2434 -0.3063
  183MOL0     C24580   4.176   0.912   9.414 -0.1722  0.8578 -0.6538
  183MOL0     C24581   4.191   0.883   9.269  1.9345 -0.3114  1.0783
  183MOL0     C24582   4.064   0.919   9.179  0.5114  0.1581 -0.2090
  183MOL0     C24583   4.105   0.942   9.034  0.3390 -0.5039  0.4859
  183MOL0     C24584   3.978   0.969   8.954  0.5037  0.0534  0.5176
  183MOL0     C24585   4.021   1.020   8.819  0.2433 -0.2619  0.4639
  183MOL0     C24586   3.894   1.064   8.741 -0.8576  0.1773 -0.5768
  183MOL0     N24587   3.931   1.124   8.613 -0.1419 -0.7173 -0.1768
  183MOL0     C24588   3.933   1.061   8.491 -0.0919 -0.3115 -0.1181
  183MOL0     C24589   3.979   1.155   8.401 -0.4821  0.0656  0.6812
  183MOL0     C24590   4.024   1.127   8.257  0.6091 -0.0766  0.0035
  183MOL0     C24591   4.051   1.246   8.168  0.2907  0.8320  0.0159
  183MOL0     C24592   4.062   1.207   8.029  0.2226  0.0652  1.3359
  183MOL0     C24593   4.100   1.328   7.943 -0.9668 -0.7560  0.4854
  183MOL0     O24594   4.137   1.275   7.811  0.1256 -0.2801  0.2550
  183MOL0     C24595   4.253   1.213   7.801 -0.1154  0.4577  0.1531
  183MOL0     C24596   4.347   1.181   7.901  0.1884 -0.5651 -0.2761
  183MOL0     C24597   4.447   1.090   7.883  0.1619  0.1664  0.5692
  183MOL0     C24598   4.522   1.064   8.019 -0.5555  0.5409 -0.0837
  183MOL0     C24599   4.463   1.028   7.754 -0.3511 -0.6286 -0.9628
  183MOL0     C24600   4.554   0.916   7.736  0.4351  0.9508  0.4405
  183MOL0     O24601   4.530   0.827   7.636 -0.3506 -0.1765  0.2021
  183MOL0     C24602   4.625   0.720   7.617  0.7814 -0.7800  0.2158
  183MOL0     C24603   4.566   0.598   7.579 -0.0369  0.6646  0.4840
  183MOL0     C24604   4.651   0.490   7.555 -0.2809  1.3132  0.6866
  183MOL0     C24605   4.790   0.505   7.561  0.6415  0.2067  0.3955
  183MOL0     O24606   4.861   0.390   7.532 -0.4230  0.7564 -0.0936
  183MOL0     C24607   5.000   0.392   7.549 -0.3121 -0.4179  0.6466
  183MOL0     C24608   5.069   0.428   7.419 -0.1739  0.3431  0.9496
  183MOL0     C24609   5.219   0.434   7.439 -0.7876 -0.4447  0.7023
  183MOL0     C24610   5.268   0.582   7.428  0.7348 -0.3182  0.1300
  183MOL0     C24611   5.427   0.580   7.432  0.6542 -0.1518 -0.4697
  183MOL0     C24612   5.503   0.699   7.489 -0.1974  0.6218 -0.0823
  183MOL0     C24613   5.488   0.829   7.413  0.0102  1.0360 -1.7866
  183MOL0     C24614   5.573   0.932   7.478  0.6119 -0.9339  0.5683
  183MOL0    Cl24615   5.487   1.100   7.471  0.2395 -0.0222  0.1433
  183MOL0     C24616   4.850   0.632   7.597  0.3038 -0.1545 -0.5562
  183MOL0     C24617   4.763   0.742   7.613  1.0764 -0.6241 -0.2055
  183MOL0     O24618   4.644   0.910   7.817  0.0523 -0.6889  0.0590
  183MOL0     C24619   4.370   1.051   7.659 -0.3882  0.0458  0.1446
  183MOL0     C24620   4.268   1.146   7.678 -0.6531 -0.9468 -0.7017
  183MOL0     N24621   4.017   1.269   8.473 -0.1028  0.7263  0.0517
  183MOL0     N24622   3.985   1.247   8.594 -0.8660 -0.8163 -0.5723
  183MOL0     C24623   4.100   1.168   9.802 -0.5613 -0.2854  0.9325
  183MOL0     C24624   4.081   1.279   9.884 -0.6821  0.1570  0.7070
  183MOL0     C24625   3.898   1.633  10.055  0.0609 -0.4077  0.5287
  183MOL0     C24626   3.982   1.742  10.045  0.2786 -0.2676 -0.7451
  183MOL0     C24627   3.969   1.850  10.133 -1.1784 -0.4893  0.8330
  183MOL0     C24628   3.865   1.852  10.233  0.5037  1.1718 -0.0326
  183MOL0     O24629   3.834   1.958  10.314 -0.2544 -0.5511  0.1508
  183MOL0     C24630   3.937   1.979  10.417  0.1370 -0.4428 -0.5679
  183MOL0     C24631   3.860   2.038  10.526  0.5228  0.1258  0.9171
  183MOL0     C24632   3.933   2.073  10.651 -0.3822 -0.3753  0.3698
  183MOL0     C24633   3.864   2.176  10.744 -0.1598 -0.6313  0.5521
  183MOL0     C24634   3.966   2.249  10.826 -0.5668 -0.1128  0.0337
  183MOL0     C24635   4.060   2.301  10.881 -0.7864  0.7112 -0.0905
  183MOL0     C24636   3.777   1.742  10.240 -0.0537  0.1808 -0.1523
  183MOL0     C24637   3.799   1.631  10.155  0.0477  0.5021 -0.7214
  183MOL0     H24638   4.104   1.524   9.643  3.0427 -0.5301 -1.9076
  183MOL0     H24639   4.122   1.329   9.502 -1.4155 -0.5111 -0.0143
  183MOL0     H24640   4.041   1.079   9.444 -0.2369 -1.5034 -0.9749
  183MOL0     H24641   4.210   1.124   9.423 -0.2715  0.9192  1.1391
  183MOL0     H24642   4.274   0.887   9.456  0.2364  2.4950 -0.5631
  183MOL0     H24643   4.103   0.840   9.452  0.4000  0.1040 -0.9666
  183MOL0     H24644   4.278   0.941   9.237 -0.4788  2.1223 -1.6198
  183MOL0     H24645   4.207   0.779   9.239 -1.1323 -0.5143 -0.2194
  183MOL0     H24646   3.991   0.839   9.191  1.3614 -0.5901  0.0573
  183MOL0     H24647   4.022   1.011   9.221  0.5297  0.4359 -0.7869
  183MOL0     H24648   4.185   1.017   9.024 -1.3266  1.2759  0.0402
  183MOL0     H24649   4.139   0.845   8.997  0.6510 -0.4961  0.7437
  183MOL0     H24650   3.921   0.877   8.938  0.7298 -0.1414  0.8272
  183MOL0     H24651   3.916   1.039   9.012  0.2175  0.4687 -0.2705
  183MOL0     H24652   4.084   1.107   8.840 -0.2301  0.6711 -1.7448
  183MOL0     H24653   4.077   0.945   8.762  0.0377  1.4925 -2.2362
  183MOL0     H24654   3.852   1.149   8.795 -0.9033 -0.9979  1.3019
  183MOL0     H24655   3.837   0.971   8.733  2.2125 -2.0378  1.2490
  183MOL0     H24656   3.914   0.958   8.462 -0.6363  0.8099 -4.4688
  183MOL0     H24657   4.126   1.087   8.262  0.7972  0.0498 -2.0514
  183MOL0     H24658   3.951   1.064   8.206 -1.9651  3.1207 -0.6001
  183MOL0     H24659   4.150   1.284   8.192  0.2490 -0.9888  3.6502
  183MOL0     H24660   3.974   1.323   8.180 -1.4949 -0.6849 -1.1358
  183MOL0     H24661   3.971   1.171   7.981  1.5759 -0.0718 -1.3085
  183MOL0     H24662   4.138   1.129   8.015 -0.9913 -0.7345 -1.3902
  183MOL0     H24663   4.183   1.388   7.981  0.1700 -2.9832  1.7442
  183MOL0     H24664   4.010   1.389   7.929 -1.5793 -1.9536 -1.1770
  183MOL0     H24665   4.339   1.234   7.995  1.8939 -1.3881  0.3776
  183MOL0     H24666   4.534   0.956   8.031  0.8796  0.5426 -1.3303
  183MOL0     H24667   4.618   1.113   8.004 -2.2194  3.9389 -0.5431
  183MOL0     H24668   4.464   1.109   8.100 -4.1669 -0.3586 -1.9715
  183MOL0     H24669   4.459   0.586   7.574 -0.2124 -0.2267  3.6730
  183MOL0     H24670   4.610   0.392   7.531  1.5069  0.7330 -0.2144
  183MOL0     H24671   5.045   0.439   7.637  0.9635 -1.3563  0.5282
  183MOL0     H24672   5.024   0.288   7.573 -1.5243 -0.9459 -0.2760
  183MOL0     H24673   5.045   0.354   7.342 -0.2519  3.1913 -1.9928
  183MOL0     H24674   5.026   0.520   7.378  0.6044  0.8746  1.2928
  183MOL0     H24675   5.277   0.373   7.369  1.5683 -0.9188  2.9369
  183MOL0     H24676   5.247   0.402   7.540  0.5411 -1.0158  0.1727
  183MOL0     H24677   5.221   0.637   7.346 -2.4655 -4.7698 -1.4498
  183MOL0     H24678   5.242   0.621   7.527  0.4950 -0.8545  0.2825
  183MOL0     H24679   5.466   0.565   7.330  0.2827  0.6626 -0.7439
  183MOL0     H24680   5.462   0.495   7.491 -0.7398  0.7992  1.8506
  183MOL0     H24681   5.463   0.724   7.588 -4.0487 -3.0831 -0.4424
  183MOL0     H24682   5.607   0.665   7.485 -1.0601 -2.3491  0.7162
  183MOL0     H24683   5.384   0.863   7.424  0.9484  3.9707 -1.1270
  183MOL0     H24684   5.506   0.812   7.307  1.3500 -1.1180 -1.2732
  183MOL0     H24685   5.665   0.933   7.418  1.5277 -3.5884  1.7831
  183MOL0     H24686   5.621   0.906   7.573  3.2817 -0.9066 -0.6773
  183MOL0     H24687   4.957   0.649   7.596  0.3887 -0.3012  1.5238
  183MOL0     H24688   4.804   0.841   7.625  0.1069 -0.4799  3.0512
  183MOL0     H24689   4.398   1.011   7.562 -1.4714 -0.9708  0.2282
  183MOL0     H24690   4.204   1.163   7.592 -0.0388  1.1036 -0.8020
  183MOL0     H24691   4.094   1.074   9.855  1.5328 -0.8470  0.2502
  183MOL0     H24692   4.061   1.274   9.991 -0.3360  5.2539  1.2389
  183MOL0     H24693   4.062   1.734   9.973 -0.9900 -0.1406 -2.2266
  183MOL0     H24694   4.019   1.945  10.120 -0.2179 -0.8644  1.5995
  183MOL0     H24695   3.988   1.893  10.462  1.8506 -0.4556 -2.3665
  183MOL0     H24696   4.021   2.041  10.385  1.0847 -1.5871 -0.3900
  183MOL0     H24697   3.788   1.960  10.550 -0.3425  0.5864 -0.0840
  183MOL0     H24698   3.812   2.125  10.480  1.2825 -1.2717 -2.8853
  183MOL0     H24699   4.029   2.115  10.621 -1.0540  0.8353 -0.1702
  183MOL0     H24700   3.953   1.987  10.715 -0.3150  0.0375  0.9131
  183MOL0     H24701   3.783   2.130  10.803 -1.3895  0.9632  0.1831
  183MOL0     H24702   3.827   2.260  10.685  1.2772  1.0548  1.9472
  183MOL0     H24703   4.140   2.331  10.945  0.3714  1.5718 -1.8344
  183MOL0     H24704   3.689   1.738  10.302 -0.7058  2.6035 -0.7952
  183MOL0     H24705   3.736   1.543  10.163  0.7849 -0.0586 -0.9161
  184MOL0     O24706   9.203   0.269  10.457 -0.0805  0.0752 -0.3703
  184MOL0     C24707   9.107   0.288  10.384  0.4063 -0.1949 -0.1273
  184MOL0     O24708   8.976   0.265  10.409 -0.2878  0.7115  0.2229
  184MOL0     C24709   8.937   0.200  10.523  0.0120  0.6944 -0.1403
  184MOL0     C24710   8.993   0.074  10.556 -0.5567  0.2306 -0.3328
  184MOL0     C24711   8.937  -0.006  10.653 -0.8781 -0.3838 -0.1029
  184MOL0     C24712   8.813   0.019  10.715 -0.2311 -0.1772  0.7387
  184MOL0     O24713   8.778  -0.078  10.807  0.4620  0.8618 -1.2723
  184MOL0     C24714   8.706  -0.020  10.918 -0.5236  1.0032 -0.2060
  184MOL0     C24715   8.681  -0.117  11.034 -0.1543  0.6054 -0.0973
  184MOL0     C24716   8.539  -0.180  11.033  0.3765  0.1375  0.2069
  184MOL0     C24717   8.505  -0.284  10.927  0.0036 -0.2787 -0.1885
  184MOL0     C24718   8.354  -0.302  10.907 -0.1265 -0.1631 -0.6007
  184MOL0     C24719   8.307  -0.393  11.021 -0.3702  0.4180 -0.0988
  184MOL0     C24720   8.162  -0.423  10.995 -0.5855  0.9191 -0.9182
  184MOL0     C24721   8.098  -0.477  11.124 -0.5024 -0.3537  0.3802
  184MOL0     N24722   7.960  -0.527  11.113 -0.8353 -0.3554 -0.3878
  184MOL0     C24723   7.930  -0.654  11.061  0.3145 -1.1344  0.3334
  184MOL0     C24724   7.790  -0.645  11.062 -0.0157  0.3956  0.4655
  184MOL0     C24725   7.693  -0.767  11.041  0.2271 -0.0957 -0.1279
  184MOL0     C24726   7.615  -0.753  10.906 -0.1368  0.1659 -0.5753
  184MOL0     C24727   7.474  -0.824  10.909 -0.1471  0.0472 -0.0505
  184MOL0     C24728   7.488  -0.973  10.927 -1.0661  0.4416  0.4571
  184MOL0     O24729   7.570  -1.035  10.819 -0.7137 -0.3624 -0.1472
  184MOL0     C24730   7.565  -1.167  10.793 -0.1930 -0.0055  1.1915
  184MOL0     C24731   7.669  -1.214  10.717  0.3488  0.1352 -0.1119
  184MOL0     C24732   7.670  -1.345  10.668 -0.2997 -0.0571 -0.1944
  184MOL0     C24733   7.796  -1.393  10.613  0.1841  0.4743 -0.7915
  184MOL0     C24734   7.564  -1.430  10.706  1.4839 -0.0610  0.4065
  184MOL0     C24735   7.563  -1.577  10.688 -0.5975  0.0657  0.5931
  184MOL0     O24736   7.621  -1.631  10.570 -0.3965  0.0778 -0.2332
  184MOL0     C24737   7.618  -1.766  10.562 -0.2026  0.5561 -0.9391
  184MOL0     C24738   7.714  -1.852  10.620 -0.1747  0.7093  0.7634
  184MOL0     C24739   7.681  -1.987  10.635 -0.0839 -0.7625 -0.1292
  184MOL0     C24740   7.561  -2.043  10.591 -0.1030 -0.0438  0.1551
  184MOL0     O24741   7.518  -2.167  10.608 -0.4879  0.7274  0.0410
  184MOL0     C24742   7.612  -2.267  10.639  0.2612  0.0855  1.2759
  184MOL0     C24743   7.556  -2.399  10.624  0.2375 -1.1264  0.6306
  184MOL0     C24744   7.504  -2.425  10.474  0.1946  0.0547  1.4615
  184MOL0     C24745   7.415  -2.547  10.462 -0.1297  0.0302 -0.0931
  184MOL0     C24746   7.466  -2.636  10.342 -0.2954 -0.1779 -0.5212
  184MOL0     C24747   7.599  -2.722  10.353  0.1238 -0.1029 -0.3313
  184MOL0     C24748   7.587  -2.864  10.305  0.7695  0.0777  0.7229
  184MOL0     C24749   7.708  -2.966  10.315 -0.3210  0.3372  0.7347
  184MOL0    Cl24750   7.835  -2.906  10.216  0.0015  0.0599  0.0191
  184MOL0     C24751   7.476  -1.957  10.512  0.6564 -0.2042 -0.1245
  184MOL0     C24752   7.507  -1.824  10.500 -0.0155 -0.0806  0.2987
  184MOL0     O24753   7.504  -1.644  10.775 -0.4762  0.1000 -1.5178
  184MOL0     C24754   7.457  -1.379  10.784 -0.2259  0.3841 -0.1110
  184MOL0     C24755   7.460  -1.245  10.829 -0.2045 -0.4427  0.9176
  184MOL0     N24756   7.743  -0.528  11.116  0.4021 -0.8030  0.2357
  184MOL0     N24757   7.846  -0.452  11.143 -0.7137 -0.2034 -0.0584
  184MOL0     C24758   8.754   0.140  10.670  1.2194 -1.0202  0.2697
  184MOL0     C24759   8.812   0.236  10.585  0.6376  0.1276 -0.7888
  184MOL0     C24760   9.130   0.352  10.253  0.2390  0.2985  0.3371
  184MOL0     C24761   9.025   0.410  10.185  0.1998 -1.0301  0.7356
  184MOL0     C24762   9.048   0.479  10.067 -0.5137 -0.4601  0.5792
  184MOL0     C24763   9.183   0.489  10.016  0.3721 -0.5933  0.1713
  184MOL0     O24764   9.212   0.540   9.892  0.4670  0.3811 -0.2414
  184MOL0     C24765   9.115   0.580   9.790 -0.1008 -0.2161 -0.5413
  184MOL0     C24766   9.046   0.715   9.819 -0.1370  0.5040  0.4911
  184MOL0     C24767   9.145   0.826   9.841 -0.4785 -0.6717 -0.0352
  184MOL0     C24768   9.276   0.838   9.754  0.3203 -0.2674 -0.7698
  184MOL0     C24769   9.246   0.814   9.613  0.1441  0.0675  0.8613
  184MOL0     C24770   9.215   0.800   9.497 -0.0473 -0.4769 -0.0267
  184MOL0     C24771   9.282   0.426  10.077  0.0089 -0.2086  0.3905
  184MOL0     C24772   9.254   0.359  10.195  0.0757 -0.2355  1.2329
  184MOL0     H24773   9.083   0.036  10.507 -1.1874  1.0820 -2.2459
  184MOL0     H24774   8.992  -0.097  10.676 -0.3391 -0.5411 -1.9066
  184MOL0     H24775   8.763   0.068  10.951  0.8681  0.8735 -2.0948
  184MOL0     H24776   8.612   0.022  10.880 -0.0115  2.4324  0.0523
  184MOL0     H24777   8.749  -0.199  11.011  0.1663  0.5628  0.9458
  184MOL0     H24778   8.709  -0.069  11.128 -2.1103 -1.7925  1.8667
  184MOL0     H24779   8.522  -0.225  11.132 -0.6048  2.5891  1.2240
  184MOL0     H24780   8.465  -0.101  11.020 -0.5871 -0.5889  1.0656
  184MOL0     H24781   8.538  -0.252  10.828 -0.5485 -2.6625 -1.2053
  184MOL0     H24782   8.561  -0.371  10.962  0.2716  1.2003  3.6175
  184MOL0     H24783   8.308  -0.203  10.901  1.9079  0.8492 -0.3161
  184MOL0     H24784   8.340  -0.345  10.807  0.1210 -1.2344 -0.1923
  184MOL0     H24785   8.370  -0.482  11.028  1.0182  1.5457  3.2248
  184MOL0     H24786   8.318  -0.332  11.111  4.1994 -0.1406 -0.0588
  184MOL0     H24787   8.111  -0.332  10.961 -2.5176  1.5063  3.0710
  184MOL0     H24788   8.153  -0.500  10.917  0.8567  2.1492 -2.3837
  184MOL0     H24789   8.110  -0.397  11.198  4.6389  0.2618 -0.6977
  184MOL0     H24790   8.159  -0.561  11.159  2.1846  0.1167 -2.7454
  184MOL0     H24791   7.995  -0.735  11.030  0.0093 -0.6559 -1.6294
  184MOL0     H24792   7.740  -0.865  11.051 -3.7989 -2.1524  0.8414
  184MOL0     H24793   7.622  -0.760  11.124 -0.6087 -0.8712 -0.7589
  184MOL0     H24794   7.672  -0.802  10.827  0.9354  1.8647 -0.9094
  184MOL0     H24795   7.599  -0.646  10.885  2.4306  1.0849  1.6199
  184MOL0     H24796   7.422  -0.795  10.818 -1.0676 -2.6249 -0.4709
  184MOL0     H24797   7.417  -0.793  10.997 -0.0964  0.4583 -0.1609
  184MOL0     H24798   7.386  -1.011  10.939 -2.1505  3.0703  0.2321
  184MOL0     H24799   7.543  -0.998  11.018  2.4888  1.4466 -1.2332
  184MOL0     H24800   7.764  -1.162  10.707  1.0367 -0.7094  1.6005
  184MOL0     H24801   7.873  -1.335  10.665 -1.5578  2.0133  0.1950
  184MOL0     H24802   7.813  -1.500  10.625  1.4586  0.8859  1.6084
  184MOL0     H24803   7.807  -1.370  10.506 -3.2599 -1.6648 -1.7791
  184MOL0     H24804   7.799  -1.792  10.651 -0.6009  0.7698  1.8527
  184MOL0     H24805   7.739  -2.042  10.708  0.6622 -0.5453 -0.5510
  184MOL0     H24806   7.696  -2.274  10.569  1.7127 -2.1221  3.1073
  184MOL0     H24807   7.641  -2.251  10.743 -1.5739  0.6273  1.7403
  184MOL0     H24808   7.629  -2.476  10.649  1.9266 -0.5234 -1.9508
  184MOL0     H24809   7.465  -2.406  10.685  0.7812 -0.8716  1.4846
  184MOL0     H24810   7.592  -2.444  10.411 -0.5211 -1.4741  0.8547
  184MOL0     H24811   7.444  -2.344  10.434 -1.2889 -2.1132 -1.0649
  184MOL0     H24812   7.423  -2.601  10.557 -2.4691 -0.6922 -0.2548
  184MOL0     H24813   7.309  -2.519  10.463 -0.5970 -1.3070  3.3423
  184MOL0     H24814   7.466  -2.572  10.254 -1.8192  2.3661  1.2001
  184MOL0     H24815   7.391  -2.715  10.330 -0.2511 -0.1019 -1.3819
  184MOL0     H24816   7.683  -2.679  10.298  0.8337 -4.5969 -3.2556
  184MOL0     H24817   7.644  -2.721  10.453 -0.2156  0.2273 -0.1757
  184MOL0     H24818   7.554  -2.860  10.200  2.9206  1.3578  0.0276
  184MOL0     H24819   7.510  -2.915  10.363 -0.5067  1.1630  0.0414
  184MOL0     H24820   7.685  -3.067  10.280 -0.0411  0.6388 -0.3427
  184MOL0     H24821   7.738  -2.983  10.419 -0.6792 -0.9313  0.6518
  184MOL0     H24822   7.391  -2.012  10.475 -1.3472  0.2880  3.3411
  184MOL0     H24823   7.445  -1.756  10.443  1.3457 -0.9274 -2.3467
  184MOL0     H24824   7.367  -1.440  10.790 -0.1127  0.3318  1.6169
  184MOL0     H24825   7.368  -1.208  10.873  0.1051  3.2467 -1.0860
  184MOL0     H24826   8.656   0.177  10.697  0.5213 -0.2134 -2.9735
  184MOL0     H24827   8.757   0.328  10.568 -1.2804 -0.7177  0.5202
  184MOL0     H24828   8.924   0.400  10.225  0.1696  0.3087  1.0532
  184MOL0     H24829   8.966   0.525  10.012  0.9339  0.3247 -1.0145
  184MOL0     H24830   9.162   0.572   9.692 -0.0348 -1.6687 -0.4153
  184MOL0     H24831   9.040   0.499   9.785 -1.7036  1.2432 -1.2001
  184MOL0     H24832   8.978   0.722   9.905 -0.8347  0.6248 -0.0636
  184MOL0     H24833   8.991   0.753   9.733 -1.4531 -0.2358  0.9775
  184MOL0     H24834   9.185   0.822   9.943  1.5417  2.0408 -0.5973
  184MOL0     H24835   9.093   0.922   9.835  0.1244 -0.2284  1.3260
  184MOL0     H24836   9.347   0.763   9.790  2.3577  1.6752 -0.4948
  184MOL0     H24837   9.326   0.934   9.767  1.3012 -1.0275  1.7191
  184MOL0     H24838   9.222   0.790   9.391 -1.7538 -1.2071 -0.1007
  184MOL0     H24839   9.378   0.426  10.026 -1.1247  2.9562 -2.0444
  184MOL0     H24840   9.341   0.322  10.249  1.3456 -0.3923 -0.8138
  185MOL0     O24841   4.779   9.189  10.022 -0.0943 -0.8674 -0.1701
  185MOL0     C24842   4.804   9.071  10.020 -0.5719  0.6332  0.8401
  185MOL0     O24843   4.803   8.985  10.128 -0.4237  0.1247 -0.4231
  185MOL0     C24844   4.794   9.031  10.257 -1.0086 -0.2844  0.7084
  185MOL0     C24845   4.737   8.942  10.340  1.3704 -0.1080 -0.0365
  185MOL0     C24846   4.716   8.969  10.473  0.7287 -0.4009 -0.7430
  185MOL0     C24847   4.753   9.101  10.518 -0.2744  0.2721 -0.0774
  185MOL0     O24848   4.746   9.136  10.649  0.8736  0.1063  0.6754
  185MOL0     C24849   4.692   9.047  10.751 -0.9601 -0.0364  0.4787
  185MOL0     C24850   4.692   9.118  10.883 -0.5497  0.9356 -0.1691
  185MOL0     C24851   4.590   9.223  10.886 -0.3077  0.0040 -0.4458
  185MOL0     C24852   4.612   9.312  11.008 -0.2275 -0.5533  0.0309
  185MOL0     C24853   4.581   9.235  11.130  0.4118 -0.5088  0.3618
  185MOL0     C24854   4.529   9.317  11.249  0.3241 -0.3441 -0.0632
  185MOL0     C24855   4.625   9.417  11.313  0.9917 -0.0070  0.2552
  185MOL0     C24856   4.591   9.439  11.455  0.0128 -0.7320 -0.0907
  185MOL0     N24857   4.643   9.567  11.508 -0.3826 -0.1986 -0.5477
  185MOL0     C24858   4.707   9.673  11.455 -0.1487 -0.3606 -0.0365
  185MOL0     C24859   4.733   9.754  11.557 -1.0327  0.3224 -0.4051
  185MOL0     C24860   4.813   9.884  11.539  0.6438 -0.3047 -0.7765
  185MOL0     C24861   4.727   9.977  11.459  0.1135  0.4110 -0.5835
  185MOL0     C24862   4.811  10.085  11.387  0.6577  0.4775 -0.3922
  185MOL0     C24863   4.904  10.170  11.468  0.2902  0.0356  0.5331
  185MOL0     O24864   4.834  10.270  11.535  0.1014 -0.6426  0.5602
  185MOL0     C24865   4.892  10.375  11.603 -0.4799 -0.0376  0.6716
  185MOL0     C24866   5.030  10.401  11.602  0.5252 -0.6201 -0.5326
  185MOL0     C24867   5.072  10.508  11.690  0.2550  0.2160 -0.7055
  185MOL0     C24868   5.219  10.547  11.671  0.0683  0.4065 -0.8081
  185MOL0     C24869   4.979  10.590  11.772 -0.7228  0.7932 -0.8480
  185MOL0     C24870   5.019  10.716  11.846 -0.7490  0.2025  0.6528
  185MOL0     O24871   5.123  10.793  11.794  0.7233  0.1029  0.3745
  185MOL0     C24872   5.154  10.906  11.853  0.0019 -0.1282 -0.0274
  185MOL0     C24873   5.247  10.909  11.958 -0.7238  0.6460 -0.0268
  185MOL0     C24874   5.291  11.030  12.015 -0.2212 -0.2723  0.2246
  185MOL0     C24875   5.239  11.150  11.965 -0.1506 -0.5589  1.1290
  185MOL0     O24876   5.289  11.269  12.013 -0.1772 -0.2930  0.0676
  185MOL0     C24877   5.294  11.273  12.157  0.3216 -0.9411  0.3087
  185MOL0     C24878   5.324  11.408  12.215 -0.5379 -0.2338 -0.3712
  185MOL0     C24879   5.232  11.520  12.157  0.3357  0.0491  0.4182
  185MOL0     C24880   5.089  11.505  12.221  0.4927 -0.1612 -0.4208
  185MOL0     C24881   4.997  11.624  12.186 -0.1161  0.3886  0.3831
  185MOL0     C24882   4.949  11.649  12.044 -0.8487 -0.0631 -0.1375
  185MOL0     C24883   4.878  11.527  11.988 -0.1415  0.3638 -0.2233
  185MOL0     C24884   4.831  11.571  11.852 -0.4393  0.4301 -0.4915
  185MOL0    Cl24885   4.966  11.547  11.718  0.1517  0.1625 -0.1570
  185MOL0     C24886   5.158  11.151  11.854 -0.3894 -0.4843 -0.3055
  185MOL0     C24887   5.110  11.031  11.803  0.0709  0.0527  0.7246
  185MOL0     O24888   4.956  10.741  11.949 -0.8784  0.5162  0.0024
  185MOL0     C24889   4.852  10.541  11.782 -0.3249  0.4078 -0.7385
  185MOL0     C24890   4.812  10.435  11.698  0.4544  0.1387 -0.2077
  185MOL0     N24891   4.665   9.711  11.673 -0.5554  0.3413  0.8752
  185MOL0     N24892   4.624   9.593  11.646  0.1171  0.6770 -1.0315
  185MOL0     C24893   4.831   9.186  10.434  0.8335 -0.3947 -1.1975
  185MOL0     C24894   4.840   9.163  10.294 -0.1305  0.6666 -0.1541
  185MOL0     C24895   4.842   9.012   9.890  0.2927 -0.0800  0.5996
  185MOL0     C24896   4.856   8.873   9.882  0.1994 -0.5950  0.0900
  185MOL0     C24897   4.896   8.814   9.767  0.3124  0.1491 -0.1047
  185MOL0     C24898   4.946   8.891   9.659  0.2490 -1.1606 -0.8005
  185MOL0     O24899   5.001   8.838   9.541  0.6188 -0.8414 -0.5137
  185MOL0     C24900   5.140   8.804   9.509 -0.4645  0.3400  0.0414
  185MOL0     C24901   5.192   8.834   9.374 -0.5043  0.0063 -0.7786
  185MOL0     C24902   5.206   8.986   9.351  0.9163  0.2106  0.0262
  185MOL0     C24903   5.192   9.020   9.201 -0.2517 -0.8666  0.6075
  185MOL0     C24904   5.299   8.965   9.117 -0.1329 -0.4814  0.1959
  185MOL0     C24905   5.390   8.939   9.043  0.7111  0.1690  0.1355
  185MOL0     C24906   4.944   9.027   9.668  0.1303 -0.6646 -0.0989
  185MOL0     C24907   4.888   9.089   9.779  0.4847  0.1892  0.0793
  185MOL0     H24908   4.695   8.851  10.299 -2.1901  0.8405  1.1834
  185MOL0     H24909   4.670   8.898  10.541  2.2092  0.4677  1.3049
  185MOL0     H24910   4.590   9.011  10.733 -0.6167 -1.4820  1.2358
  185MOL0     H24911   4.772   8.974  10.764  0.5696  1.8817  2.8088
  185MOL0     H24912   4.663   9.040  10.955 -1.7685 -0.5198 -2.1382
  185MOL0     H24913   4.791   9.162  10.899 -0.6756  2.1868 -2.4697
  185MOL0     H24914   4.587   9.289  10.799 -1.6894  1.5264  0.6835
  185MOL0     H24915   4.483   9.202  10.893 -1.2540  4.2054  0.5193
  185MOL0     H24916   4.717   9.337  11.025  0.1891 -0.3783 -2.3503
  185MOL0     H24917   4.551   9.403  11.004  1.7487  0.7933 -0.9170
  185MOL0     H24918   4.502   9.164  11.102  0.8092 -0.8859  0.1815
  185MOL0     H24919   4.668   9.173  11.152 -0.7165 -3.0006 -1.6787
  185MOL0     H24920   4.448   9.376  11.203  1.5174  0.6073 -1.0055
  185MOL0     H24921   4.483   9.253  11.325 -0.5646 -1.7056 -1.6875
  185MOL0     H24922   4.732   9.395  11.305  0.9224 -0.1076 -0.5716
  185MOL0     H24923   4.607   9.511  11.261  1.3748  0.6681  1.3161
  185MOL0     H24924   4.627   9.353  11.512  0.8341 -0.4288 -0.1392
  185MOL0     H24925   4.481   9.439  11.455 -0.0829  2.4740 -0.0500
  185MOL0     H24926   4.746   9.670  11.354  0.9375 -1.4756  0.3888
  185MOL0     H24927   4.829   9.930  11.637  3.0105  1.2651 -1.8056
  185MOL0     H24928   4.900   9.865  11.477 -0.8086 -1.5685 -2.5448
  185MOL0     H24929   4.654  10.019  11.529  2.6458  2.8380  0.8060
  185MOL0     H24930   4.673   9.929  11.377 -3.4354  0.9525  1.2248
  185MOL0     H24931   4.742  10.148  11.329 -2.1551  2.1339  4.2433
  185MOL0     H24932   4.865  10.028  11.311  0.9785  0.4476 -0.1449
  185MOL0     H24933   4.989  10.205  11.409 -1.3489 -1.2457 -2.8805
  185MOL0     H24934   4.950  10.124  11.556 -0.3222 -0.7617  0.4484
  185MOL0     H24935   5.114  10.362  11.546 -0.6216 -0.1606 -2.7143
  185MOL0     H24936   5.271  10.492  11.592  3.1138  2.0906 -0.1236
  185MOL0     H24937   5.223  10.651  11.639 -0.5043  0.5799 -0.3357
  185MOL0     H24938   5.268  10.519  11.764 -2.5785  0.3722  0.6883
  185MOL0     H24939   5.273  10.811  11.996 -0.7045 -0.8397 -3.5139
  185MOL0     H24940   5.374  11.028  12.085 -1.4537  0.1888  1.7675
  185MOL0     H24941   5.194  11.245  12.194 -1.1180  3.6596  0.5379
  185MOL0     H24942   5.370  11.202  12.190 -1.5312 -3.1294  0.1615
  185MOL0     H24943   5.325  11.404  12.324 -0.1252 -0.9092 -0.3918
  185MOL0     H24944   5.430  11.423  12.191 -0.0186  0.6957  2.1727
  185MOL0     H24945   5.225  11.507  12.049  3.5322  0.2131  0.0912
  185MOL0     H24946   5.274  11.621  12.169  0.4866  0.0584 -0.1752
  185MOL0     H24947   5.035  11.415  12.191 -3.0130  1.1958  1.1846
  185MOL0     H24948   5.093  11.511  12.330 -3.9795 -0.1340 -0.0694
  185MOL0     H24949   5.056  11.711  12.216  0.0289  1.1904 -2.0381
  185MOL0     H24950   4.903  11.612  12.242  0.3680 -2.9410  0.7008
  185MOL0     H24951   4.887  11.738  12.052 -1.2681 -0.2737 -0.9422
  185MOL0     H24952   5.038  11.669  11.984  0.8524 -1.8058  1.6553
  185MOL0     H24953   4.801  11.494  12.057  1.0568  0.9584  1.4676
  185MOL0     H24954   4.948  11.443  11.982 -1.3688 -0.6571 -0.6406
  185MOL0     H24955   4.779  11.667  11.855 -2.9044 -0.7566 -2.0004
  185MOL0     H24956   4.760  11.492  11.826 -0.7963  0.4595  0.3645
  185MOL0     H24957   5.131  11.249  11.814  0.3283  0.0271  0.4435
  185MOL0     H24958   5.028  11.034  11.732  1.6277  3.2332 -1.1484
  185MOL0     H24959   4.790  10.565  11.868  3.0358  2.1587  1.3837
  185MOL0     H24960   4.717  10.386  11.720  2.5381 -3.9270  0.8921
  185MOL0     H24961   4.868   9.280  10.472  0.2205  0.1102 -1.8105
  185MOL0     H24962   4.875   9.229  10.214 -0.4471 -1.1454 -1.8692
  185MOL0     H24963   4.821   8.808   9.962 -0.9495 -0.4725 -0.2947
  185MOL0     H24964   4.911   8.707   9.752  0.6486  0.3272 -1.0985
  185MOL0     H24965   5.203   8.848   9.587  1.9338  0.1299 -1.6950
  185MOL0     H24966   5.146   8.697   9.529  0.5582  0.0502 -1.6779
  185MOL0     H24967   5.139   8.775   9.298 -2.0274  0.9929 -0.5352
  185MOL0     H24968   5.293   8.796   9.384 -1.3900 -2.0926  0.9011
  185MOL0     H24969   5.303   9.025   9.384  0.1814  0.3232  2.1873
  185MOL0     H24970   5.133   9.033   9.417  0.6512 -1.4251  0.9566
  185MOL0     H24971   5.196   9.130   9.200 -0.4550 -0.7758 -2.8130
  185MOL0     H24972   5.096   8.981   9.166 -0.3355 -1.3816  1.3834
  185MOL0     H24973   5.472   8.920   8.976 -1.8275 -3.7568 -2.2338
  185MOL0     H24974   4.986   9.074   9.580  0.1848 -1.9688 -0.7963
  185MOL0     H24975   4.898   9.197   9.771 -0.8030  0.3652  0.5260
  186MOL0     O24976   2.638   5.394  11.424 -0.3574 -0.6856  0.4782
  186MOL0     C24977   2.664   5.319  11.515 -0.3730 -0.9995  0.8246
  186MOL0     O24978   2.791   5.286  11.559  0.9503  0.3258 -0.1767
  186MOL0     C24979   2.905   5.334  11.495  1.1933  0.4805 -0.1308
  186MOL0     C24980   2.913   5.466  11.453  0.6230  0.1088 -0.5854
  186MOL0     C24981   3.027   5.520  11.395 -0.6945  0.3627  0.5540
  186MOL0     C24982   3.137   5.441  11.357  0.1934 -0.8873  0.5298
  186MOL0     O24983   3.237   5.508  11.291  0.9446  0.0285  0.0669
  186MOL0     C24984   3.328   5.436  11.212  1.4230 -0.1093 -0.1604
  186MOL0     C24985   3.368   5.530  11.100  0.9323  0.0782  0.3856
  186MOL0     C24986   3.460   5.459  11.005 -0.8974  0.4316  0.1667
  186MOL0     C24987   3.513   5.559  10.911 -0.3379 -0.0948 -0.1576
  186MOL0     C24988   3.585   5.489  10.798  0.5580 -0.6482 -0.2028
  186MOL0     C24989   3.633   5.572  10.675  0.0538  0.8572  0.1589
  186MOL0     C24990   3.518   5.634  10.594  0.6424  0.8909  0.2329
  186MOL0     C24991   3.568   5.696  10.459  0.2830  0.3453 -0.4086
  186MOL0     N24992   3.654   5.618  10.373  0.6675 -0.9999  0.1006
  186MOL0     C24993   3.741   5.677  10.285  0.0437 -0.2758  0.1590
  186MOL0     C24994   3.783   5.574  10.210  0.0706  0.3216 -0.8234
  186MOL0     C24995   3.877   5.568  10.096 -0.6083 -0.7057 -0.7749
  186MOL0     C24996   3.826   5.482   9.981 -0.3388  0.6183  0.0758
  186MOL0     C24997   3.690   5.526   9.920  0.5965  0.1788  0.6238
  186MOL0     C24998   3.703   5.653   9.835  0.0280 -0.1336 -0.2999
  186MOL0     O24999   3.585   5.728   9.849 -0.3337  0.2612  1.0894
  186MOL0     C25000   3.587   5.835   9.926 -0.5736  0.0992 -0.8630
  186MOL0     C25001   3.656   5.956   9.888  0.7616  0.0963  0.1340
  186MOL0     C25002   3.673   6.056   9.982 -0.4276 -0.6039  1.2730
  186MOL0     C25003   3.746   6.180   9.928 -0.8169 -0.1443  0.2238
  186MOL0     C25004   3.636   6.042  10.121 -0.5885  0.0570  1.0557
  186MOL0     C25005   3.670   6.149  10.228 -0.6414  0.0455 -0.4901
  186MOL0     O25006   3.619   6.132  10.351  0.8227  0.4663 -0.2816
  186MOL0     C25007   3.626   6.219  10.460  0.2098  1.2067 -0.5534
  186MOL0     C25008   3.701   6.332  10.466  0.2128 -0.7657 -0.7996
  186MOL0     C25009   3.700   6.419  10.572  0.4909 -0.0970  0.3851
  186MOL0     C25010   3.620   6.394  10.689  0.4836 -0.5041  0.7933
  186MOL0     O25011   3.620   6.480  10.794  0.0126 -0.2669  0.1057
  186MOL0     C25012   3.694   6.430  10.908  0.2657  0.0087  0.3899
  186MOL0     C25013   3.846   6.416  10.871 -0.2918 -0.3122 -0.6436
  186MOL0     C25014   3.924   6.378  11.000  0.3568 -0.2428  0.0773
  186MOL0     C25015   4.044   6.296  10.952 -0.7307 -0.3929 -0.4248
  186MOL0     C25016   4.153   6.271  11.070 -0.0183  0.3439 -0.7004
  186MOL0     C25017   4.287   6.226  11.008  0.6220 -0.3989  0.4625
  186MOL0     C25018   4.406   6.207  11.096  0.6680  0.3987  0.1710
  186MOL0     C25019   4.396   6.098  11.204  0.0669 -0.3947  0.4009
  186MOL0    Cl25020   4.373   5.934  11.134 -0.7770  0.4076 -0.2401
  186MOL0     C25021   3.547   6.274  10.683 -0.7353 -0.2226  0.0179
  186MOL0     C25022   3.544   6.187  10.570 -0.3790  0.4525 -0.5665
  186MOL0     O25023   3.725   6.257  10.189  0.2379  0.6427  0.6442
  186MOL0     C25024   3.572   5.922  10.159 -0.1423 -0.5137 -0.4448
  186MOL0     C25025   3.546   5.820  10.060 -0.3878 -0.4555  1.2444
  186MOL0     N25026   3.720   5.459  10.258 -1.3002 -0.3375 -0.8809
  186MOL0     N25027   3.630   5.494  10.347  0.0647  0.3478 -0.4325
  186MOL0     C25028   3.138   5.316  11.417 -0.3323 -0.3926  0.5842
  186MOL0     C25029   3.022   5.254  11.471 -0.0172 -0.6216 -0.7559
  186MOL0     C25030   2.538   5.277  11.590  0.0403  1.4508 -0.0255
  186MOL0     C25031   2.424   5.226  11.523 -1.1503  1.2025 -0.0512
  186MOL0     C25032   2.316   5.169  11.595  0.3466 -0.2788 -0.2694
  186MOL0     C25033   2.328   5.170  11.734  0.6285 -0.0726 -0.0081
  186MOL0     O25034   2.236   5.119  11.821  0.0815 -0.6793 -0.1479
  186MOL0     C25035   2.152   5.026  11.772  0.2804  0.2568  0.7642
  186MOL0     C25036   2.092   4.965  11.902  0.6747  0.4526 -0.4307
  186MOL0     C25037   1.968   4.891  11.861 -0.2211 -0.0850  0.1287
  186MOL0     C25038   1.909   4.809  11.977 -0.3759  0.6816  0.3701
  186MOL0     C25039   1.869   4.898  12.087 -0.5811 -0.7696 -0.8847
  186MOL0     C25040   1.828   4.960  12.181  1.1013  0.1571  0.6557
  186MOL0     C25041   2.435   5.221  11.804 -0.6512  0.1080 -0.4818
  186MOL0     C25042   2.540   5.277  11.735 -0.1378  0.9098  0.5493
  186MOL0     H25043   2.829   5.536  11.457  1.2879  0.8720  1.2759
  186MOL0     H25044   3.018   5.624  11.366 -0.0837  0.1514 -0.4313
  186MOL0     H25045   3.409   5.397  11.275  0.9939  2.1155  1.9219
  186MOL0     H25046   3.271   5.360  11.159  1.6030  1.7886 -3.2958
  186MOL0     H25047   3.287   5.572  11.040  2.0633 -2.5634 -3.3495
  186MOL0     H25048   3.425   5.614  11.140  1.9248 -1.4000  2.2150
  186MOL0     H25049   3.532   5.404  11.066 -1.2427  2.5854  2.7195
  186MOL0     H25050   3.399   5.387  10.951 -0.1887  0.5281 -0.7949
  186MOL0     H25051   3.433   5.620  10.868  0.4829 -0.6147 -2.6056
  186MOL0     H25052   3.598   5.612  10.954  2.0072 -1.8898 -2.2701
  186MOL0     H25053   3.686   5.471  10.836  0.5392 -1.5242 -0.5445
  186MOL0     H25054   3.522   5.406  10.765  1.6927 -1.8191  0.4584
  186MOL0     H25055   3.697   5.649  10.718  1.7974 -1.2720  1.5904
  186MOL0     H25056   3.689   5.501  10.614  0.2637  1.4924 -0.3947
  186MOL0     H25057   3.451   5.554  10.561  0.3909  1.2700 -0.1838
  186MOL0     H25058   3.477   5.713  10.658 -1.4182  1.0077 -1.1275
  186MOL0     H25059   3.609   5.786  10.506 -0.9376  0.8010 -0.1779
  186MOL0     H25060   3.481   5.741  10.411 -0.3717  1.4560  1.6749
  186MOL0     H25061   3.763   5.783  10.279  2.7171 -0.7274  0.9871
  186MOL0     H25062   3.890   5.672  10.065  2.4711 -0.3627  1.2691
  186MOL0     H25063   3.971   5.521  10.125 -1.7606 -2.3730  0.4786
  186MOL0     H25064   3.825   5.378  10.014  2.9191 -0.3092 -2.2432
  186MOL0     H25065   3.898   5.477   9.899 -3.4359 -3.2255 -2.8317
  186MOL0     H25066   3.608   5.525   9.993 -0.0218 -1.8789 -0.0097
  186MOL0     H25067   3.662   5.448   9.849  2.3737 -2.8305  2.9787
  186MOL0     H25068   3.721   5.633   9.729  2.7598 -0.6828  0.2031
  186MOL0     H25069   3.784   5.717   9.871  0.1592 -1.4491  1.9457
  186MOL0     H25070   3.692   5.960   9.786 -0.5756  2.7736 -0.3265
  186MOL0     H25071   3.772   6.163   9.823 -1.2313 -0.3068  0.1471
  186MOL0     H25072   3.684   6.270   9.923  0.7683  0.9563 -0.5744
  186MOL0     H25073   3.846   6.210   9.960  0.9989 -1.6249 -3.4671
  186MOL0     H25074   3.785   6.353  10.400  3.7098 -1.3169  3.0902
  186MOL0     H25075   3.763   6.508  10.567  3.0460 -1.7645  0.8181
  186MOL0     H25076   3.684   6.503  10.989  1.7433  0.5852  0.0808
  186MOL0     H25077   3.667   6.333  10.951  0.0869 -0.2630 -0.3244
  186MOL0     H25078   3.863   6.353  10.783 -1.0194 -1.0930 -0.2463
  186MOL0     H25079   3.878   6.513  10.834  1.2065  0.2791  1.9380
  186MOL0     H25080   3.862   6.315  11.064 -1.7462  1.8992  0.2952
  186MOL0     H25081   3.951   6.463  11.063  0.1152 -0.0525 -0.0738
  186MOL0     H25082   4.018   6.206  10.896 -2.2029  0.8484 -1.8474
  186MOL0     H25083   4.093   6.351  10.871  1.2321  0.2131  1.0984
  186MOL0     H25084   4.108   6.198  11.138 -1.4261  2.3382  0.6580
  186MOL0     H25085   4.165   6.358  11.135 -2.7574 -0.9626  1.8227
  186MOL0     H25086   4.271   6.136  10.948  0.5524  1.6712 -2.8818
  186MOL0     H25087   4.310   6.297  10.927  0.2589 -0.3863  0.3686
  186MOL0     H25088   4.429   6.307  11.133  0.0302  0.6102  0.0188
  186MOL0     H25089   4.493   6.178  11.036 -1.3853 -3.5000 -1.2615
  186MOL0     H25090   4.305   6.122  11.260 -0.3893  2.6602 -1.4695
  186MOL0     H25091   4.474   6.101  11.281 -3.3605 -2.2491  4.4255
  186MOL0     H25092   3.499   6.247  10.776 -4.1488  3.8806 -0.2501
  186MOL0     H25093   3.495   6.090  10.572  1.7127 -0.6569 -0.5672
  186MOL0     H25094   3.546   5.909  10.264  0.5148 -0.0129 -0.2075
  186MOL0     H25095   3.512   5.721  10.090  0.7477 -1.0956  0.5062
  186MOL0     H25096   3.223   5.252  11.396 -1.2786 -0.9196 -2.0221
  186MOL0     H25097   3.033   5.154  11.513  1.3485 -1.1839 -2.3605
  186MOL0     H25098   2.426   5.209  11.416  3.3771 -4.4298  0.4500
  186MOL0     H25099   2.238   5.126  11.532  1.2162  0.1828 -1.7164
  186MOL0     H25100   2.069   5.077  11.721  1.2102  1.3621  0.3110
  186MOL0     H25101   2.203   4.957  11.704 -1.4276 -0.8361  0.5381
  186MOL0     H25102   2.087   5.041  11.980  1.1031 -0.4863  0.5326
  186MOL0     H25103   2.155   4.882  11.935 -1.0281 -0.7224  0.0028
  186MOL0     H25104   1.999   4.824  11.780  1.8903  0.6871  0.2486
  186MOL0     H25105   1.895   4.965  11.826 -0.2411 -0.2230 -0.1253
  186MOL0     H25106   1.995   4.748  12.003 -0.2343  0.7843  0.1441
  186MOL0     H25107   1.830   4.742  11.943 -1.6500  1.4591  1.6934
  186MOL0     H25108   1.785   5.017  12.261  1.3670  2.2221 -0.6003
  186MOL0     H25109   2.430   5.228  11.912  1.0513 -5.0489  0.1820
  186MOL0     H25110   2.631   5.315  11.781  2.5584 -1.2408 -2.4970
  187MOL0     O25111   9.876   4.309   6.446 -0.1574 -0.9773 -0.1999
  187MOL0     C25112   9.919   4.257   6.545  0.3714  0.5414 -0.6524
  187MOL0     O25113   9.891   4.301   6.672 -0.0049  0.1032 -0.0528
  187MOL0     C25114   9.784   4.378   6.706  0.5915  0.2220 -0.7745
  187MOL0     C25115   9.689   4.438   6.622 -0.3222 -0.1604 -0.1163
  187MOL0     C25116   9.596   4.524   6.683 -0.6230  0.8698  0.3489
  187MOL0     C25117   9.588   4.545   6.814  0.8803 -0.8170  0.4667
  187MOL0     O25118   9.503   4.641   6.854 -0.0824 -0.0389 -0.2420
  187MOL0     C25119   9.561   4.758   6.899  0.1877  1.1151 -0.3639
  187MOL0     C25120   9.435   4.848   6.905  0.4752  0.2600 -0.6909
  187MOL0     C25121   9.476   4.985   6.942  0.0963 -1.0625 -0.0305
  187MOL0     C25122   9.503   4.998   7.091 -1.0240 -0.1690 -0.4994
  187MOL0     C25123   9.551   5.143   7.137  0.6630 -0.0452 -0.3667
  187MOL0     C25124   9.531   5.162   7.292  0.6876  0.1084  0.0903
  187MOL0     C25125   9.582   5.281   7.368 -0.1441  0.5643 -0.3913
  187MOL0     C25126   9.552   5.277   7.516  0.5271  0.1422  0.5103
  187MOL0     N25127   9.410   5.315   7.541 -0.2579 -0.4741  0.4238
  187MOL0     C25128   9.359   5.441   7.544 -0.3531  0.2180 -0.8073
  187MOL0     C25129   9.231   5.430   7.599  0.2185  0.6802  0.7659
  187MOL0     C25130   9.132   5.545   7.614  0.5623 -0.1354  0.5888
  187MOL0     C25131   9.097   5.592   7.468 -0.1698  0.1425 -0.0834
  187MOL0     C25132   9.023   5.495   7.379 -0.0453  0.1106 -0.1655
  187MOL0     C25133   8.902   5.425   7.446 -0.3139  0.5602  0.3033
  187MOL0     O25134   8.859   5.328   7.351  0.3072  0.6643  0.6538
  187MOL0     C25135   8.730   5.270   7.375 -0.2069  0.2327 -0.2640
  187MOL0     C25136   8.638   5.307   7.473  0.2861 -0.0017 -0.1007
  187MOL0     C25137   8.525   5.229   7.491 -0.0093  0.1051  0.3393
  187MOL0     C25138   8.432   5.285   7.602 -1.2744  0.3433  0.2145
  187MOL0     C25139   8.492   5.124   7.407  1.4097  0.7229  1.2866
  187MOL0     C25140   8.366   5.043   7.414 -0.0479  0.1344  0.3511
  187MOL0     O25141   8.369   4.921   7.361  0.2793  0.0800 -0.3577
  187MOL0     C25142   8.278   4.838   7.423  1.0739 -0.8406 -0.1621
  187MOL0     C25143   8.227   4.742   7.340 -0.9253  0.5240 -0.6931
  187MOL0     C25144   8.135   4.654   7.388  0.0807  0.0886  0.3466
  187MOL0     C25145   8.093   4.649   7.520 -0.0593 -0.7136 -0.6325
  187MOL0     O25146   8.012   4.551   7.558  0.2889  0.3044 -0.9311
  187MOL0     C25147   7.876   4.590   7.582  0.1582  0.6568  0.4927
  187MOL0     C25148   7.783   4.562   7.460 -0.0759 -0.8774 -0.4082
  187MOL0     C25149   7.777   4.419   7.413  0.4909 -0.6881 -0.5513
  187MOL0     C25150   7.631   4.372   7.420 -0.0037  0.5010 -0.7742
  187MOL0     C25151   7.621   4.266   7.314 -0.8818  0.2607 -1.2535
  187MOL0     C25152   7.478   4.214   7.314  0.2758  0.0316  0.2623
  187MOL0     C25153   7.470   4.123   7.191  0.2803  0.8677 -0.0696
  187MOL0     C25154   7.411   4.203   7.073  0.4670  0.0996  0.2572
  187MOL0    Cl25155   7.348   4.078   6.959  0.0263  0.3401 -0.1014
  187MOL0     C25156   8.144   4.752   7.607  0.2954  0.6392 -0.6099
  187MOL0     C25157   8.244   4.833   7.562 -0.1377  0.2152 -1.2690
  187MOL0     O25158   8.261   5.098   7.451  0.4325  0.6452  0.4420
  187MOL0     C25159   8.590   5.097   7.311  0.0979  0.8406 -0.0484
  187MOL0     C25160   8.698   5.169   7.287 -0.2264  0.6655 -0.3690
  187MOL0     N25161   9.209   5.300   7.640  0.0058  0.7986  0.5206
  187MOL0     N25162   9.316   5.230   7.605 -0.7798  0.4798  0.1035
  187MOL0     C25163   9.679   4.492   6.905  0.4678  0.6876 -0.0654
  187MOL0     C25164   9.771   4.397   6.848 -0.3774  0.0723  0.3383
  187MOL0     C25165   9.983   4.121   6.544 -0.9033  0.0243  0.3012
  187MOL0     C25166  10.043   4.075   6.663  0.2150  0.2384  0.1514
  187MOL0     C25167  10.104   3.945   6.663  0.6875  0.0905 -0.8296
  187MOL0     C25168  10.103   3.869   6.545 -0.0482  0.3436 -0.7507
  187MOL0     O25169  10.166   3.755   6.520 -0.0553  0.3724 -0.0675
  187MOL0     C25170  10.187   3.666   6.631  0.2964  0.0311 -0.6087
  187MOL0     C25171  10.207   3.523   6.586 -0.2229 -0.0462 -0.0826
  187MOL0     C25172  10.095   3.476   6.481 -0.4291 -0.6834  0.0058
  187MOL0     C25173  10.128   3.331   6.431 -0.0689 -0.6519  0.8898
  187MOL0     C25174  10.021   3.306   6.330  0.6557  0.8158  1.1692
  187MOL0     C25175   9.932   3.290   6.247  0.2311 -0.3575  0.0888
  187MOL0     C25176  10.035   3.917   6.427 -1.1087 -0.0757  0.5029
  187MOL0     C25177   9.973   4.045   6.427 -0.6185  0.1872 -0.1661
  187MOL0     H25178   9.692   4.423   6.515  0.3938 -3.5060  0.2628
  187MOL0     H25179   9.529   4.574   6.613  0.8027 -1.3542 -2.8755
  187MOL0     H25180   9.609   4.743   6.996 -0.2193 -0.5593 -0.4099
  187MOL0     H25181   9.641   4.802   6.838  0.6194 -1.6581 -1.9238
  187MOL0     H25182   9.371   4.844   6.816 -0.0171 -1.8546 -0.3085
  187MOL0     H25183   9.370   4.817   6.987  4.3063 -0.5151  2.3467
  187MOL0     H25184   9.567   5.024   6.895 -1.5389  2.9915 -0.2983
  187MOL0     H25185   9.393   5.052   6.917  0.2236 -1.7100 -2.4946
  187MOL0     H25186   9.420   4.964   7.154  0.4657  0.6930  2.0915
  187MOL0     H25187   9.588   4.933   7.114  2.1370  3.8201  0.2555
  187MOL0     H25188   9.657   5.146   7.112  0.8877 -3.1403 -0.2490
  187MOL0     H25189   9.498   5.222   7.084  0.0631 -1.7952 -2.5232
  187MOL0     H25190   9.426   5.141   7.314  1.0229  0.1404  1.7978
  187MOL0     H25191   9.579   5.076   7.339 -2.4672 -1.5116  0.6420
  187MOL0     H25192   9.691   5.275   7.357 -0.1476 -1.1527  0.1571
  187MOL0     H25193   9.548   5.372   7.319 -0.3261  1.1388  0.7784
  187MOL0     H25194   9.627   5.344   7.559 -0.4563  0.8107  1.2186
  187MOL0     H25195   9.576   5.177   7.555  1.2492 -0.2032 -0.7591
  187MOL0     H25196   9.410   5.532   7.512 -2.0415  1.4982  0.0110
  187MOL0     H25197   9.042   5.517   7.671  0.2536 -0.1158  0.1220
  187MOL0     H25198   9.179   5.619   7.678  0.7802 -2.4050  3.2597
  187MOL0     H25199   9.189   5.621   7.416  0.7153  0.9346  1.8646
  187MOL0     H25200   9.040   5.685   7.464  1.5230  1.2430  0.1871
  187MOL0     H25201   9.084   5.420   7.329  3.0317  1.5316  1.1877
  187MOL0     H25202   8.983   5.552   7.295 -0.7833 -1.5571 -0.9960
  187MOL0     H25203   8.834   5.506   7.475 -3.0210 -0.8460 -1.6893
  187MOL0     H25204   8.919   5.362   7.534  0.6565 -0.8826 -0.8737
  187MOL0     H25205   8.650   5.400   7.528 -0.0092 -0.2285  0.3577
  187MOL0     H25206   8.376   5.209   7.657  0.8552 -0.8369  0.8673
  187MOL0     H25207   8.491   5.343   7.674  1.6109 -2.2730  0.1801
  187MOL0     H25208   8.366   5.354   7.548 -3.3798 -3.0399 -1.8926
  187MOL0     H25209   8.252   4.716   7.238  0.3936  1.6663 -0.6987
  187MOL0     H25210   8.106   4.571   7.325  0.3145 -2.0437  2.8678
  187MOL0     H25211   7.836   4.524   7.659  1.1076 -0.1764  0.3002
  187MOL0     H25212   7.861   4.689   7.625 -1.4837 -0.7257  3.3901
  187MOL0     H25213   7.687   4.585   7.507 -0.4774 -2.9946 -0.0954
  187MOL0     H25214   7.799   4.636   7.381 -0.6149  0.4739  0.7030
  187MOL0     H25215   7.840   4.355   7.475  0.5826 -2.0083 -1.9296
  187MOL0     H25216   7.799   4.417   7.305 -0.0301  0.2435 -0.6901
  187MOL0     H25217   7.583   4.337   7.512  0.4913 -2.8031 -1.6420
  187MOL0     H25218   7.569   4.458   7.394 -0.4396  0.3925 -0.1328
  187MOL0     H25219   7.670   4.175   7.351 -0.1357  1.3368  0.4884
  187MOL0     H25220   7.646   4.297   7.212 -3.6811 -1.6287 -2.6617
  187MOL0     H25221   7.460   4.159   7.407  2.8142 -1.5595 -0.1186
  187MOL0     H25222   7.405   4.296   7.319 -2.2848 -2.1653  3.0528
  187MOL0     H25223   7.412   4.037   7.227  2.6809 -0.2050  1.5370
  187MOL0     H25224   7.567   4.082   7.158  1.2029  1.0257  2.2595
  187MOL0     H25225   7.484   4.274   7.032  0.6116  0.2588  0.7721
  187MOL0     H25226   7.319   4.259   7.094 -1.0028 -2.1716  0.2613
  187MOL0     H25227   8.099   4.746   7.706 -1.3311 -2.6198 -1.3850
  187MOL0     H25228   8.277   4.898   7.643  0.4489 -2.3044  0.6765
  187MOL0     H25229   8.558   5.020   7.243  1.6992  1.0230 -1.0687
  187MOL0     H25230   8.774   5.137   7.216  1.1615 -1.6873  1.9781
  187MOL0     H25231   9.661   4.521   7.008 -1.7179  0.9611 -0.4816
  187MOL0     H25232   9.837   4.338   6.909 -1.8878 -0.7363  1.2514
  187MOL0     H25233  10.054   4.148   6.743 -2.9648  1.7357 -0.6327
  187MOL0     H25234  10.161   3.915   6.751  0.1733  1.1713 -0.0993
  187MOL0     H25235  10.269   3.696   6.696  1.0345  0.3402 -1.6562
  187MOL0     H25236  10.100   3.662   6.698  0.2888 -0.7153 -0.6532
  187MOL0     H25237  10.199   3.454   6.671  0.2536 -1.5529 -1.2069
  187MOL0     H25238  10.302   3.504   6.535  0.6951  2.5904  0.5207
  187MOL0     H25239  10.090   3.553   6.404  0.2337 -0.5601  0.0829
  187MOL0     H25240  10.003   3.479   6.541 -0.7443  4.0923 -0.3045
  187MOL0     H25241  10.126   3.260   6.514  0.5306 -1.1491  0.4902
  187MOL0     H25242  10.224   3.328   6.379 -0.7141 -2.8883 -0.2863
  187MOL0     H25243   9.854   3.283   6.175  1.0407 -3.5659 -0.6416
  187MOL0     H25244  10.035   3.843   6.348  2.7644 -0.9149  1.0803
  187MOL0     H25245   9.918   4.079   6.340 -0.1164  2.4774  0.3606
  188MOL0     O25246   0.981   8.997   7.251 -0.4871 -0.2891 -0.4961
  188MOL0     C25247   0.912   8.897   7.272  0.9284 -0.0168 -0.0259
  188MOL0     O25248   0.799   8.864   7.198 -0.3137 -0.1458 -0.1153
  188MOL0     C25249   0.783   8.924   7.078  0.6759 -0.2917  0.0629
  188MOL0     C25250   0.879   8.954   6.979  0.1828  0.0513 -0.7281
  188MOL0     C25251   0.851   9.006   6.855  0.0482 -1.4933  0.4841
  188MOL0     C25252   0.727   9.040   6.810  0.4538  0.1290  0.0645
  188MOL0     O25253   0.702   9.086   6.685 -1.0317  0.7896 -0.6820
  188MOL0     C25254   0.583   9.041   6.622  0.1150 -0.1582 -0.3358
  188MOL0     C25255   0.483   9.160   6.640 -0.9954 -0.9726 -0.5749
  188MOL0     C25256   0.340   9.095   6.659 -0.6181 -0.0694  0.4229
  188MOL0     C25257   0.223   9.187   6.613  0.6984  0.0673  0.6173
  188MOL0     C25258   0.085   9.108   6.652 -0.2401 -0.5283  0.3139
  188MOL0     C25259  -0.030   9.198   6.650 -0.2033  0.7551  0.8983
  188MOL0     C25260  -0.057   9.289   6.521 -0.5475 -0.1110 -0.7841
  188MOL0     C25261  -0.111   9.208   6.403 -0.0619  0.1045 -0.0079
  188MOL0     N25262  -0.245   9.159   6.429 -0.3368  1.0635 -0.2983
  188MOL0     C25263  -0.332   9.202   6.528 -0.9931 -0.2517  0.0818
  188MOL0     C25264  -0.448   9.143   6.496  0.4630  0.0492  0.5879
  188MOL0     C25265  -0.562   9.140   6.599 -0.2443 -0.0827 -0.2570
  188MOL0     C25266  -0.564   9.027   6.704 -0.1715 -0.2736  0.2332
  188MOL0     C25267  -0.441   9.013   6.789  0.1657 -0.6642 -0.4566
  188MOL0     C25268  -0.447   8.871   6.858  0.5075 -0.7290  0.3166
  188MOL0     O25269  -0.404   8.768   6.767 -0.2870  0.0471 -0.4099
  188MOL0     C25270  -0.264   8.751   6.757  0.1108 -0.3799 -0.0137
  188MOL0     C25271  -0.208   8.635   6.702  0.3051  0.0673  0.8624
  188MOL0     C25272  -0.083   8.586   6.714  0.7803  0.2438  0.4265
  188MOL0     C25273  -0.056   8.449   6.660 -0.2262  0.2915  0.5433
  188MOL0     C25274   0.015   8.672   6.772 -0.0231 -0.1585 -0.3089
  188MOL0     C25275   0.154   8.628   6.820 -0.3123 -0.4999 -0.2140
  188MOL0     O25276   0.252   8.730   6.829 -0.9125  0.6548 -0.1448
  188MOL0     C25277   0.375   8.700   6.882 -0.4337  0.0513 -0.0951
  188MOL0     C25278   0.494   8.705   6.814  0.2137  1.1830 -0.1721
  188MOL0     C25279   0.614   8.657   6.876 -0.0556 -0.0765  1.5975
  188MOL0     C25280   0.608   8.609   7.014  0.2569  0.8331 -0.0057
  188MOL0     O25281   0.711   8.552   7.088  0.4413  0.3560 -0.3168
  188MOL0     C25282   0.837   8.534   7.012  0.8309 -0.1920 -1.4424
  188MOL0     C25283   0.943   8.542   7.122 -0.0616  0.5692 -0.1460
  188MOL0     C25284   1.089   8.543   7.080 -0.3208 -0.1280  0.1195
  188MOL0     C25285   1.129   8.657   6.988 -0.1561  0.6801 -0.0715
  188MOL0     C25286   1.275   8.693   6.991 -0.9381 -1.0418  0.5222
  188MOL0     C25287   1.329   8.750   7.129 -0.8258  0.1346  0.3159
  188MOL0     C25288   1.427   8.869   7.103 -0.5809  0.1352  0.4045
  188MOL0     C25289   1.540   8.843   7.006  0.5745 -0.0171  0.5972
  188MOL0    Cl25290   1.610   8.994   6.958  0.4813  0.2375 -0.0570
  188MOL0     C25291   0.490   8.633   7.084  0.0884  0.7012 -0.8449
  188MOL0     C25292   0.373   8.663   7.014  1.5510 -0.5270 -0.5527
  188MOL0     O25293   0.175   8.512   6.856 -0.1155  0.3015 -0.1390
  188MOL0     C25294  -0.032   8.805   6.806 -0.0373  0.2037 -0.1611
  188MOL0     C25295  -0.163   8.848   6.800  0.1718  0.6040 -0.6393
  188MOL0     N25296  -0.434   9.058   6.386 -0.2801  0.0851  0.2612
  188MOL0     N25297  -0.314   9.078   6.348 -0.3359 -0.0099  0.5452
  188MOL0     C25298   0.627   8.997   6.903  0.9530 -0.5545 -0.0290
  188MOL0     C25299   0.654   8.950   7.038  0.1965  0.2238  0.1097
  188MOL0     C25300   0.970   8.811   7.386  0.6049  0.3280 -0.3659
  188MOL0     C25301   0.885   8.712   7.428  0.8658 -0.8355  0.6165
  188MOL0     C25302   0.929   8.607   7.498 -0.6407 -0.1463 -0.9295
  188MOL0     C25303   1.058   8.613   7.546 -0.3206 -0.2019 -0.3174
  188MOL0     O25304   1.101   8.500   7.613  0.0107  0.6332 -0.0598
  188MOL0     C25305   1.245   8.483   7.641 -0.0024 -0.6775  0.1060
  188MOL0     C25306   1.272   8.528   7.785 -1.2876 -0.0401 -0.0984
  188MOL0     C25307   1.217   8.454   7.898 -0.1057 -0.3481 -0.0328
  188MOL0     C25308   1.296   8.432   8.025  0.2352 -0.1948 -0.6840
  188MOL0     C25309   1.211   8.365   8.128 -0.1501 -0.1168  0.2104
  188MOL0     C25310   1.168   8.294   8.215 -0.0237  0.4542  0.0222
  188MOL0     C25311   1.132   8.734   7.527 -0.5218  0.3051 -0.3662
  188MOL0     C25312   1.095   8.828   7.435 -0.9274  1.6500 -0.4934
  188MOL0     H25313   0.972   8.933   7.032 -1.1191 -1.3570  1.1536
  188MOL0     H25314   0.934   9.026   6.788 -2.3956  0.5591 -2.2159
  188MOL0     H25315   0.609   9.012   6.520 -0.8572  0.7070 -0.8459
  188MOL0     H25316   0.539   8.954   6.672 -1.4273  1.3906  1.1420
  188MOL0     H25317   0.510   9.213   6.731 -2.7757 -3.0018  1.2834
  188MOL0     H25318   0.488   9.223   6.551  2.0510  0.5828  0.5843
  188MOL0     H25319   0.340   9.005   6.597 -2.3321 -0.6204  1.1813
  188MOL0     H25320   0.321   9.053   6.758  1.8004  1.0692  1.4583
  188MOL0     H25321   0.231   9.282   6.667 -0.1775  0.3178  0.3111
  188MOL0     H25322   0.225   9.197   6.504 -1.7919 -3.2099  0.1426
  188MOL0     H25323   0.052   9.027   6.586 -2.4202  1.4957 -1.2238
  188MOL0     H25324   0.105   9.078   6.755 -0.2528  1.9066  1.0709
  188MOL0     H25325  -0.123   9.152   6.683 -1.5353  4.2622  2.5627
  188MOL0     H25326  -0.024   9.262   6.738 -2.1717 -0.3132  1.8828
  188MOL0     H25327  -0.124   9.370   6.550  2.9414  3.0498 -0.7335
  188MOL0     H25328   0.037   9.336   6.491 -1.4004 -0.3083 -4.1893
  188MOL0     H25329  -0.046   9.121   6.386 -0.2697 -0.2308  0.8108
  188MOL0     H25330  -0.127   9.276   6.319 -0.7522  0.5076  0.4366
  188MOL0     H25331  -0.309   9.264   6.613 -2.4522  2.8882 -1.6495
  188MOL0     H25332  -0.584   9.238   6.642 -0.1433 -0.3442  0.4077
  188MOL0     H25333  -0.653   9.116   6.544  0.3877 -1.6737 -0.6749
  188MOL0     H25334  -0.565   8.928   6.658 -1.4810  0.6609 -1.9091
  188MOL0     H25335  -0.641   9.044   6.781  0.8269 -0.9525  1.4187
  188MOL0     H25336  -0.430   9.091   6.864  1.2563  0.8378 -2.1084
  188MOL0     H25337  -0.347   9.026   6.734  2.2413  0.6778  3.1274
  188MOL0     H25338  -0.553   8.855   6.880 -1.2796  1.9825 -4.5957
  188MOL0     H25339  -0.392   8.857   6.951  1.2426  0.5091  0.0941
  188MOL0     H25340  -0.290   8.588   6.649  0.4789  0.1988  0.4721
  188MOL0     H25341  -0.120   8.413   6.578  0.9408  1.0856 -0.7637
  188MOL0     H25342   0.045   8.449   6.616  0.1676  1.3066  1.4161
  188MOL0     H25343  -0.044   8.383   6.746  0.0490 -1.5334 -0.8049
  188MOL0     H25344   0.503   8.747   6.714  0.2197  1.9790  0.1502
  188MOL0     H25345   0.708   8.652   6.822 -0.5162  0.1072  0.7730
  188MOL0     H25346   0.852   8.439   6.960  0.2605  0.2971 -2.5534
  188MOL0     H25347   0.853   8.615   6.940 -0.3542  0.0999 -1.3840
  188MOL0     H25348   0.937   8.635   7.181  1.8033 -0.8498  2.5175
  188MOL0     H25349   0.927   8.464   7.198 -2.2214  1.9312  0.9049
  188MOL0     H25350   1.118   8.448   7.032 -1.9999 -0.7531  0.2887
  188MOL0     H25351   1.153   8.540   7.169  0.1597 -0.9227 -0.2383
  188MOL0     H25352   1.082   8.641   6.890 -2.8577  3.6021  0.5985
  188MOL0     H25353   1.077   8.743   7.032 -1.9895 -0.4541  0.1270
  188MOL0     H25354   1.288   8.764   6.909 -1.3353 -2.7347 -1.0689
  188MOL0     H25355   1.332   8.602   6.972  0.6137  0.1379 -0.7845
  188MOL0     H25356   1.248   8.798   7.183 -0.2091  2.2752 -0.5579
  188MOL0     H25357   1.382   8.672   7.186 -1.7341 -1.2709 -0.6828
  188MOL0     H25358   1.479   8.897   7.195  0.5152  3.8224 -1.1582
  188MOL0     H25359   1.371   8.958   7.071  4.0249  3.7474  1.2344
  188MOL0     H25360   1.495   8.791   6.921 -0.8447  2.1652 -0.0695
  188MOL0     H25361   1.608   8.767   7.046  0.6922 -0.5307 -0.5246
  188MOL0     H25362   0.490   8.604   7.188  1.1173 -3.7060 -1.8757
  188MOL0     H25363   0.274   8.675   7.057  1.1263 -1.6974 -1.1705
  188MOL0     H25364   0.042   8.872   6.850  0.7951 -1.0688  0.4279
  188MOL0     H25365  -0.184   8.946   6.843  1.3795  1.2616 -1.4921
  188MOL0     H25366   0.523   9.013   6.878  1.3470  0.6650 -1.0063
  188MOL0     H25367   0.571   8.913   7.098  0.4314  0.8225  0.8179
  188MOL0     H25368   0.783   8.731   7.396  0.7565  4.7920  3.2053
  188MOL0     H25369   0.866   8.520   7.514  3.3546 -3.8701 -3.2954
  188MOL0     H25370   1.279   8.379   7.639  3.0045  0.2175 -1.6238
  188MOL0     H25371   1.309   8.541   7.574  0.9296 -0.0787  1.4727
  188MOL0     H25372   1.229   8.628   7.799 -1.4199 -0.0565 -0.3896
  188MOL0     H25373   1.381   8.541   7.784 -1.1868 -0.8343 -1.0539
  188MOL0     H25374   1.192   8.353   7.866 -1.2116 -0.4139  0.9855
  188MOL0     H25375   1.130   8.519   7.913  2.1172  3.7771 -2.8615
  188MOL0     H25376   1.327   8.529   8.067 -1.6635  1.3826 -2.6717
  188MOL0     H25377   1.382   8.366   8.013 -0.8553 -3.0983  4.4177
  188MOL0     H25378   1.119   8.230   8.286  1.5848  0.3557  1.0780
  188MOL0     H25379   1.228   8.753   7.574  0.3169 -2.9851 -0.5022
  188MOL0     H25380   1.147   8.920   7.411  1.9833 -0.2574 -2.0023
  189MOL0     O25381   8.389   1.145  10.336  0.0517  0.4616  0.7446
  189MOL0     C25382   8.266   1.142  10.320 -0.0976  0.0157  0.8659
  189MOL0     O25383   8.195   1.039  10.260  0.6927 -0.1779 -0.5972
  189MOL0     C25384   8.240   0.919  10.216 -0.0417 -0.2265  0.0699
  189MOL0     C25385   8.365   0.854  10.243  0.5523 -0.3062  0.1095
  189MOL0     C25386   8.409   0.740  10.182  0.3610 -0.3443 -0.1966
  189MOL0     C25387   8.328   0.682  10.080  0.2258  0.0208  0.0181
  189MOL0     O25388   8.385   0.572  10.020  0.0671 -0.1988  0.3250
  189MOL0     C25389   8.315   0.519   9.905 -1.5284 -0.5553 -1.0459
  189MOL0     C25390   8.218   0.407   9.941 -0.3758  0.2174 -0.1151
  189MOL0     C25391   8.211   0.297   9.841 -0.2592 -0.3093 -0.0041
  189MOL0     C25392   8.123   0.177   9.896  0.0807 -0.0931 -0.2575
  189MOL0     C25393   8.194   0.041   9.910 -0.1459  0.8236  0.5636
  189MOL0     C25394   8.295   0.031  10.021  0.1281  0.6689  0.8827
  189MOL0     C25395   8.371  -0.102  10.007  0.3196 -0.0523  0.7260
  189MOL0     C25396   8.519  -0.069   9.968 -0.2513  0.7197 -0.2749
  189MOL0     N25397   8.589  -0.185   9.912 -0.2828 -0.4388  0.0309
  189MOL0     C25398   8.544  -0.314   9.887 -0.4230  0.0236 -0.1664
  189MOL0     C25399   8.653  -0.375   9.827 -0.5586  0.8645  0.2971
  189MOL0     C25400   8.670  -0.518   9.786 -0.6723  0.8599 -0.0021
  189MOL0     C25401   8.688  -0.613   9.911 -1.1169 -0.5409 -0.8539
  189MOL0     C25402   8.726  -0.765   9.875  0.4740  0.5093 -0.0400
  189MOL0     C25403   8.741  -0.848  10.000 -0.3529 -0.6025  0.9663
  189MOL0     O25404   8.661  -0.816  10.111 -0.2447  0.0777 -0.6830
  189MOL0     C25405   8.723  -0.841  10.233  0.3221  0.5735 -1.5187
  189MOL0     C25406   8.693  -0.963  10.301 -1.2040  0.1915 -0.6959
  189MOL0     C25407   8.756  -0.986  10.427  0.4537 -0.3588  0.2201
  189MOL0     C25408   8.717  -1.106  10.506 -0.7536 -0.0218  0.1359
  189MOL0     C25409   8.844  -0.882  10.477  0.0043  0.0205  0.0559
  189MOL0     C25410   8.930  -0.888  10.592  0.3535 -0.2402 -0.0218
  189MOL0     O25411   9.049  -0.824  10.573 -0.5874 -0.4488  0.3749
  189MOL0     C25412   9.134  -0.829  10.676 -0.0812 -0.2136 -0.0736
  189MOL0     C25413   9.159  -0.714  10.758  0.4542  0.0742  0.4982
  189MOL0     C25414   9.257  -0.728  10.856  0.4638  0.2205  0.7751
  189MOL0     C25415   9.344  -0.839  10.870 -0.1859 -0.5377  1.1772
  189MOL0     O25416   9.437  -0.859  10.967  0.3924 -0.7571  0.0492
  189MOL0     C25417   9.480  -0.750  11.050  0.1217  1.5167 -0.1986
  189MOL0     C25418   9.549  -0.644  10.966  0.3879  0.1397 -0.3939
  189MOL0     C25419   9.652  -0.554  11.036  0.0811  0.0442  1.0440
  189MOL0     C25420   9.752  -0.489  10.939 -0.2645 -0.4813  1.8233
  189MOL0     C25421   9.851  -0.389  10.997  1.4670  0.3512  0.3431
  189MOL0     C25422   9.770  -0.266  11.052 -0.0316 -0.1692 -0.4105
  189MOL0     C25423   9.870  -0.164  11.124 -0.1077  0.0044 -0.3947
  189MOL0     C25424   9.971  -0.087  11.049  0.2394 -0.3898 -0.3802
  189MOL0    Cl25425  10.055   0.037  11.141  0.0031 -0.3002  0.1058
  189MOL0     C25426   9.311  -0.949  10.787  0.6152 -0.8564 -0.0605
  189MOL0     C25427   9.210  -0.948  10.685 -0.6964 -0.1627  0.3365
  189MOL0     O25428   8.906  -0.960  10.684 -0.5534 -0.0510  0.4711
  189MOL0     C25429   8.863  -0.770  10.401 -0.3940 -1.1678  0.8517
  189MOL0     C25430   8.816  -0.748  10.278 -0.5209  0.4546  1.2375
  189MOL0     N25431   8.746  -0.271   9.802 -0.1893 -0.6267 -0.0763
  189MOL0     N25432   8.709  -0.156   9.853 -0.4461  0.9985  0.0927
  189MOL0     C25433   8.202   0.747  10.060 -0.2022  1.0538  0.2206
  189MOL0     C25434   8.155   0.856  10.124 -0.1513  0.1252  0.0610
  189MOL0     C25435   8.190   1.266  10.349  0.2496  0.6439 -0.2647
  189MOL0     C25436   8.059   1.265  10.323 -0.3059  0.1854 -0.2883
  189MOL0     C25437   7.984   1.379  10.357  0.5305  0.0333 -0.4607
  189MOL0     C25438   8.046   1.496  10.397  0.1220 -0.6427  0.0150
  189MOL0     O25439   7.983   1.617  10.424 -0.6025  0.6196 -0.3128
  189MOL0     C25440   7.843   1.631  10.398  0.3717  0.0541 -0.2477
  189MOL0     C25441   7.816   1.648  10.248  0.0639  1.0914  0.8700
  189MOL0     C25442   7.667   1.697  10.205 -0.5252 -0.1900 -0.2795
  189MOL0     C25443   7.620   1.820  10.280  0.4054 -0.3310 -0.2007
  189MOL0     C25444   7.710   1.933  10.260 -0.2619 -0.2747  0.7716
  189MOL0     C25445   7.785   2.035  10.246  0.4116  0.3500  0.2062
  189MOL0     C25446   8.184   1.499  10.416  0.9837  0.3177  0.1170
  189MOL0     C25447   8.258   1.379  10.391 -0.1749 -0.3878 -0.5218
  189MOL0     H25448   8.437   0.901  10.309 -0.9507  2.7117 -0.2351
  189MOL0     H25449   8.508   0.702  10.205 -0.3990 -1.1926  1.9195
  189MOL0     H25450   8.259   0.596   9.852 -7.4679 -2.5689  1.4625
  189MOL0     H25451   8.392   0.482   9.837 -0.6726  1.1909 -1.0843
  189MOL0     H25452   8.238   0.364  10.039 -3.8631 -0.3808  0.4447
  189MOL0     H25453   8.113   0.436   9.949 -0.8265 -1.6895  1.7017
  189MOL0     H25454   8.175   0.343   9.748 -2.4334  0.1531  0.9953
  189MOL0     H25455   8.310   0.254   9.825 -0.7789 -1.5162 -0.0295
  189MOL0     H25456   8.058   0.197   9.981 -1.5470 -2.2129 -0.9149
  189MOL0     H25457   8.059   0.164   9.808  0.3166  0.7661 -0.5652
  189MOL0     H25458   8.120  -0.038   9.927  1.9097 -1.0965  1.0981
  189MOL0     H25459   8.237   0.019   9.812 -0.2972 -0.8194  0.8314
  189MOL0     H25460   8.359   0.120  10.013 -0.9150  1.2553 -3.8418
  189MOL0     H25461   8.241   0.033  10.116 -2.1847 -1.7090 -0.2891
  189MOL0     H25462   8.366  -0.155  10.102 -2.7751  1.0754  1.3160
  189MOL0     H25463   8.324  -0.159   9.926  2.1763  2.3881 -2.3494
  189MOL0     H25464   8.580  -0.037  10.053  1.7132  0.8092 -1.6538
  189MOL0     H25465   8.523   0.013   9.896 -0.6795 -3.2221 -5.3423
  189MOL0     H25466   8.455  -0.367   9.919  0.8052 -0.0832  3.5364
  189MOL0     H25467   8.581  -0.560   9.738 -0.7789  0.5010  0.4971
  189MOL0     H25468   8.763  -0.532   9.731 -0.5593  3.6918 -0.6873
  189MOL0     H25469   8.598  -0.608   9.973 -0.4946  1.7859 -0.0369
  189MOL0     H25470   8.768  -0.576   9.975 -0.0550 -2.3499 -1.0699
  189MOL0     H25471   8.817  -0.772   9.814 -0.7012  0.5668 -1.8705
  189MOL0     H25472   8.645  -0.812   9.819  2.3096 -1.6138 -1.1034
  189MOL0     H25473   8.844  -0.851  10.036 -0.2969 -1.9102  0.7346
  189MOL0     H25474   8.713  -0.951   9.975 -1.6724 -0.0820  0.1912
  189MOL0     H25475   8.632  -1.042  10.258 -2.3192  1.6069 -1.7853
  189MOL0     H25476   8.714  -1.089  10.614  1.0231 -0.8605  0.3604
  189MOL0     H25477   8.627  -1.155  10.468 -0.8343 -0.0541  0.3700
  189MOL0     H25478   8.802  -1.176  10.507 -1.1417 -0.4875  1.6091
  189MOL0     H25479   9.116  -0.620  10.726 -1.4688 -1.6623 -2.5817
  189MOL0     H25480   9.263  -0.645  10.926  1.4778 -0.7626  1.8924
  189MOL0     H25481   9.399  -0.708  11.110  1.5251  0.7082  2.4217
  189MOL0     H25482   9.548  -0.792  11.125  1.6028  1.4305 -1.5314
  189MOL0     H25483   9.597  -0.695  10.882 -0.7910  1.3681 -1.8776
  189MOL0     H25484   9.477  -0.575  10.921  2.1672  2.3919  0.0470
  189MOL0     H25485   9.722  -0.608  11.102  2.7217  1.6093 -0.3031
  189MOL0     H25486   9.598  -0.479  11.094 -3.0912  0.9450 -2.7098
  189MOL0     H25487   9.805  -0.569  10.885  3.9504  2.3544  1.3299
  189MOL0     H25488   9.698  -0.441  10.857  1.4362 -0.8500  0.4121
  189MOL0     H25489   9.925  -0.353  10.925  1.4084 -2.3317 -1.1834
  189MOL0     H25490   9.905  -0.443  11.075  1.9676 -1.4777 -1.1954
  189MOL0     H25491   9.705  -0.211  10.985 -0.9018  0.0383  0.5710
  189MOL0     H25492   9.716  -0.303  11.140  1.1382 -0.0426  0.3879
  189MOL0     H25493   9.924  -0.227  11.196 -0.5992  2.3576  2.2068
  189MOL0     H25494   9.811  -0.102  11.192 -0.3548 -3.8575  3.3234
  189MOL0     H25495   9.917  -0.044  10.964 -2.1885 -0.2435  1.1640
  189MOL0     H25496  10.053  -0.150  11.012  0.2785 -0.5777  0.0288
  189MOL0     H25497   9.368  -1.039  10.805 -0.7137 -1.9684 -1.2440
  189MOL0     H25498   9.198  -1.031  10.616 -1.3976  0.6750 -0.5803
  189MOL0     H25499   8.940  -0.701  10.434 -0.5028 -1.4724  1.7641
  189MOL0     H25500   8.832  -0.656  10.222  0.6616 -0.4811 -0.0495
  189MOL0     H25501   8.143   0.708   9.977 -1.1472  3.4970 -0.3303
  189MOL0     H25502   8.065   0.896  10.077 -0.6956 -0.4571  0.5902
  189MOL0     H25503   8.001   1.187  10.275 -0.0016  1.3470 -2.6959
  189MOL0     H25504   7.876   1.384  10.344  0.5604 -1.7430 -1.6941
  189MOL0     H25505   7.780   1.556  10.446  0.8485 -0.8235 -0.9766
  189MOL0     H25506   7.823   1.727  10.446 -1.0657  0.4972 -1.6531
  189MOL0     H25507   7.824   1.551  10.198  0.0317  1.6771 -0.3057
  189MOL0     H25508   7.896   1.702  10.196  0.0042  0.9519  0.6302
  189MOL0     H25509   7.591   1.618  10.207 -0.6990 -0.2175 -3.2285
  189MOL0     H25510   7.680   1.730  10.101  1.8735  1.0294  0.3488
  189MOL0     H25511   7.625   1.805  10.388 -0.0500 -2.0035 -0.3836
  189MOL0     H25512   7.517   1.835  10.248  0.6925  3.0347  0.1009
  189MOL0     H25513   7.853   2.117  10.231  3.0189 -2.0887 -2.6913
  189MOL0     H25514   8.246   1.586  10.438 -0.4345  1.0793  1.2746
  189MOL0     H25515   8.365   1.383  10.408  0.1544 -1.8021 -2.0410
  190MOL0     O25516   4.013   0.681   7.237 -0.0317  0.3147  0.4709
  190MOL0     C25517   4.121   0.697   7.297 -0.2769 -0.3553 -0.2233
  190MOL0     O25518   4.177   0.818   7.323  0.0040  0.0840 -0.2962
  190MOL0     C25519   4.104   0.933   7.293  0.5358  0.6345 -0.5474
  190MOL0     C25520   4.176   1.045   7.268  0.0049 -1.2883 -0.1964
  190MOL0     C25521   4.119   1.172   7.238 -0.3296 -0.2367 -0.3472
  190MOL0     C25522   3.981   1.189   7.242 -0.2561 -0.5182 -0.2054
  190MOL0     O25523   3.910   1.301   7.242  0.0274 -1.1692 -1.2733
  190MOL0     C25524   3.973   1.432   7.215  0.4137 -0.4239 -0.1607
  190MOL0     C25525   4.060   1.485   7.339 -0.3318  0.3783  0.6189
  190MOL0     C25526   3.975   1.480   7.476 -0.2565  0.3659  0.3832
  190MOL0     C25527   3.866   1.582   7.474  0.9135  0.1002 -1.0691
  190MOL0     C25528   3.788   1.569   7.608 -0.3303 -0.1218 -0.5181
  190MOL0     C25529   3.688   1.463   7.603 -0.3917  0.2216 -0.1287
  190MOL0     C25530   3.667   1.401   7.749  0.7895  0.2345  0.2785
  190MOL0     C25531   3.561   1.297   7.735  0.3012  0.1836  0.7079
  190MOL0     N25532   3.422   1.355   7.736  0.0763  0.1990 -0.0974
  190MOL0     C25533   3.307   1.299   7.669 -0.0106 -0.0066 -0.5917
  190MOL0     C25534   3.198   1.353   7.739  0.0607  0.8089 -1.3341
  190MOL0     C25535   3.052   1.367   7.706 -0.4989 -0.8246  0.4607
  190MOL0     C25536   2.999   1.249   7.624  1.6401 -0.3485 -0.1468
  190MOL0     C25537   2.851   1.286   7.599 -0.9877  0.1467  0.6228
  190MOL0     C25538   2.766   1.171   7.540  1.4128  0.1982 -0.3461
  190MOL0     O25539   2.781   1.043   7.608 -0.2531  0.7995 -0.0146
  190MOL0     C25540   2.723   0.929   7.552 -0.2068  0.2003  0.4519
  190MOL0     C25541   2.754   0.814   7.623 -0.7769 -0.5095  0.1509
  190MOL0     C25542   2.700   0.687   7.591 -0.9365  1.1434  0.3925
  190MOL0     C25543   2.731   0.576   7.683 -0.7278  0.2632 -0.8392
  190MOL0     C25544   2.620   0.676   7.469 -0.7631  0.5749  0.3154
  190MOL0     C25545   2.563   0.544   7.419 -0.0088  0.5678 -0.0854
  190MOL0     O25546   2.448   0.567   7.346 -0.3535  0.0320 -0.8586
  190MOL0     C25547   2.381   0.468   7.286  0.5369 -0.3796 -0.7618
  190MOL0     C25548   2.271   0.411   7.350  0.0145 -0.3582 -0.3215
  190MOL0     C25549   2.188   0.326   7.271 -0.6608  0.5994  0.3396
  190MOL0     C25550   2.215   0.294   7.142  0.0119 -0.1506  0.4079
  190MOL0     O25551   2.160   0.188   7.076  0.7517  0.3284  0.5763
  190MOL0     C25552   2.131   0.072   7.147  1.1568 -0.8924  0.0036
  190MOL0     C25553   2.156  -0.051   7.056 -0.0066  0.5689 -0.6954
  190MOL0     C25554   2.305  -0.086   7.066  0.0944  0.5277  0.9219
  190MOL0     C25555   2.346  -0.210   6.986 -0.7333  0.7995  1.1417
  190MOL0     C25556   2.334  -0.193   6.829 -0.1529  0.2254 -0.4896
  190MOL0     C25557   2.410  -0.315   6.750 -0.0098  0.2712 -0.1312
  190MOL0     C25558   2.366  -0.451   6.794 -0.6554  0.9690 -0.1096
  190MOL0     C25559   2.384  -0.549   6.680 -0.6818 -0.9016 -0.6754
  190MOL0    Cl25560   2.565  -0.577   6.645  0.1487 -0.3349  0.4446
  190MOL0     C25561   2.319   0.356   7.078 -0.0150  0.5597 -0.3958
  190MOL0     C25562   2.398   0.442   7.147 -0.5279 -0.3143 -0.3689
  190MOL0     O25563   2.624   0.433   7.432 -0.2214 -0.6810 -0.6832
  190MOL0     C25564   2.598   0.784   7.394 -1.3228 -0.4988 -0.2498
  190MOL0     C25565   2.638   0.913   7.441  1.0734 -0.7800  0.2763
  190MOL0     N25566   3.252   1.436   7.835  0.3275  0.1241  0.5745
  190MOL0     N25567   3.381   1.430   7.843  0.1040 -0.3193  1.1772
  190MOL0     C25568   3.905   1.073   7.281 -0.3690 -0.7965  0.2447
  190MOL0     C25569   3.960   0.949   7.306  0.7419 -0.7128  0.1513
  190MOL0     C25570   4.206   0.582   7.309 -0.0818  0.6782 -0.2332
  190MOL0     C25571   4.146   0.453   7.322 -0.2475  0.1957  0.4502
  190MOL0     C25572   4.227   0.342   7.328 -1.3381 -0.3259 -0.9248
  190MOL0     C25573   4.375   0.350   7.311  1.1236  0.2331 -0.0204
  190MOL0     O25574   4.467   0.244   7.305  0.3029  0.4273  0.0868
  190MOL0     C25575   4.405   0.127   7.335 -0.1357  0.9881 -0.2721
  190MOL0     C25576   4.503   0.014   7.368  1.0070  0.9238  0.4388
  190MOL0     C25577   4.431  -0.126   7.400  0.1030 -0.6324 -0.2603
  190MOL0     C25578   4.513  -0.206   7.504  0.1187  0.2707  0.0126
  190MOL0     C25579   4.444  -0.335   7.529  0.2672  0.0880 -0.3310
  190MOL0     C25580   4.394  -0.440   7.573 -0.3002  0.8084  0.0768
  190MOL0     C25581   4.424   0.482   7.294  0.4172  0.1588 -0.1722
  190MOL0     C25582   4.345   0.604   7.301  0.4955  0.2422  0.0856
  190MOL0     H25583   4.283   1.047   7.250  0.7226 -2.1679  3.2207
  190MOL0     H25584   4.187   1.255   7.224  1.0434 -1.4197 -0.9788
  190MOL0     H25585   4.039   1.424   7.128  1.2724  1.0028  0.3338
  190MOL0     H25586   3.890   1.498   7.188 -0.0280 -1.9330 -2.9362
  190MOL0     H25587   4.140   1.412   7.353  0.6524  1.2069 -0.4519
  190MOL0     H25588   4.108   1.582   7.323  0.0710  0.1567  0.4553
  190MOL0     H25589   3.950   1.374   7.480  1.1550 -0.1032 -1.5575
  190MOL0     H25590   4.043   1.497   7.560  0.5081  0.8083 -0.3123
  190MOL0     H25591   3.893   1.687   7.464 -2.4303  1.0652 -1.1381
  190MOL0     H25592   3.804   1.558   7.387 -1.5174 -2.5762  1.1894
  190MOL0     H25593   3.856   1.550   7.691 -0.0392  2.6596 -0.0338
  190MOL0     H25594   3.745   1.666   7.636  1.0564 -0.0395  1.5466
  190MOL0     H25595   3.596   1.493   7.554  1.2522  2.3069 -2.1450
  190MOL0     H25596   3.725   1.384   7.537 -0.3077  0.7769 -0.7568
  190MOL0     H25597   3.752   1.348   7.792 -0.0667  0.1864  1.9717
  190MOL0     H25598   3.637   1.486   7.811 -1.7843  0.8011 -1.5537
  190MOL0     H25599   3.587   1.216   7.803  1.6112 -0.1206 -0.1106
  190MOL0     H25600   3.555   1.262   7.631 -1.0131 -0.9371  1.1194
  190MOL0     H25601   3.289   1.244   7.577  0.3110 -0.9838 -0.0838
  190MOL0     H25602   2.995   1.374   7.798 -1.7615 -0.8459 -0.3015
  190MOL0     H25603   3.029   1.459   7.650  0.3930 -0.5629  0.4951
  190MOL0     H25604   3.009   1.161   7.688  2.4389 -0.9653 -1.0893
  190MOL0     H25605   3.055   1.225   7.533 -1.2644 -0.5175 -2.0407
  190MOL0     H25606   2.853   1.366   7.524 -1.3572 -1.2070 -0.8945
  190MOL0     H25607   2.795   1.311   7.690 -3.1269 -2.0005  0.0208
  190MOL0     H25608   2.795   1.154   7.435  0.7784 -0.7538 -0.3844
  190MOL0     H25609   2.662   1.203   7.523  1.2543  2.6114  3.9761
  190MOL0     H25610   2.823   0.829   7.706 -3.5212  0.8308  2.3512
  190MOL0     H25611   2.814   0.602   7.749 -2.0150 -1.2266  1.4956
  190MOL0     H25612   2.640   0.561   7.743 -0.7503  2.5983 -0.1873
  190MOL0     H25613   2.758   0.486   7.626 -1.7801 -0.4287 -0.2874
  190MOL0     H25614   2.253   0.432   7.455  1.9248  1.0470 -0.2126
  190MOL0     H25615   2.094   0.290   7.312 -1.0210 -0.6480 -1.4479
  190MOL0     H25616   2.182   0.056   7.242  1.5720 -2.3194 -0.4361
  190MOL0     H25617   2.026   0.077   7.176  1.5848 -1.6822  1.8264
  190MOL0     H25618   2.088  -0.130   7.085  0.5930  0.6258  0.9583
  190MOL0     H25619   2.122  -0.022   6.956  0.3152 -0.6242 -1.1650
  190MOL0     H25620   2.335  -0.095   7.170 -0.7431  1.2549  1.2474
  190MOL0     H25621   2.350  -0.001   7.015 -2.5355  1.1099 -0.6635
  190MOL0     H25622   2.452  -0.227   7.003 -0.2027 -0.3215 -2.4440
  190MOL0     H25623   2.300  -0.300   7.027  0.5266 -1.0012 -1.1558
  190MOL0     H25624   2.365  -0.096   6.790  1.7544 -0.7222 -1.4438
  190MOL0     H25625   2.226  -0.203   6.819 -0.4443 -1.9726  2.9937
  190MOL0     H25626   2.396  -0.294   6.643  2.6839 -0.1362 -0.6290
  190MOL0     H25627   2.516  -0.304   6.773  0.4637  1.9478 -2.6901
  190MOL0     H25628   2.261  -0.444   6.822 -0.2879  1.4895  1.2569
  190MOL0     H25629   2.420  -0.475   6.886  0.9366  2.8067 -0.4772
  190MOL0     H25630   2.335  -0.515   6.589 -2.9088 -2.7592 -0.2468
  190MOL0     H25631   2.332  -0.640   6.710 -1.6087  0.3852  2.0288
  190MOL0     H25632   2.324   0.348   6.970  4.9770  1.6342 -0.5138
  190MOL0     H25633   2.478   0.503   7.104  0.2541 -0.4322  0.8632
  190MOL0     H25634   2.538   0.793   7.304  1.7460  2.3798 -2.2458
  190MOL0     H25635   2.601   0.998   7.383  0.2506 -2.5204 -1.9255
  190MOL0     H25636   3.797   1.079   7.271 -0.3291 -2.2150 -1.5317
  190MOL0     H25637   3.896   0.866   7.333 -0.7524 -0.4332 -2.2335
  190MOL0     H25638   4.039   0.456   7.336 -0.2205 -0.0296  0.7136
  190MOL0     H25639   4.175   0.253   7.359 -0.3186 -0.6024  0.0399
  190MOL0     H25640   4.354   0.130   7.432  0.3448 -3.0470  0.3047
  190MOL0     H25641   4.344   0.095   7.250  3.3092 -2.7144 -1.7376
  190MOL0     H25642   4.569   0.045   7.449  2.3652 -4.8350  2.0350
  190MOL0     H25643   4.578   0.005   7.288  0.0103  0.3781 -0.4722
  190MOL0     H25644   4.424  -0.173   7.302 -0.9071 -1.1072  0.0171
  190MOL0     H25645   4.327  -0.109   7.429  0.1960  0.1023 -0.3387
  190MOL0     H25646   4.514  -0.171   7.607  1.3090 -3.4852  1.4458
  190MOL0     H25647   4.615  -0.222   7.467 -0.7312  0.2510 -2.4995
  190MOL0     H25648   4.335  -0.523   7.607  0.3267  1.4818  3.1182
  190MOL0     H25649   4.529   0.480   7.266 -0.3966 -2.0814 -3.7472
  190MOL0     H25650   4.406   0.693   7.304  0.8036  0.0201  0.4430
  191MOL0     O25651   5.803  10.479   7.235  0.0401  0.1544  0.1836
  191MOL0     C25652   5.833  10.586   7.185 -0.0613 -0.2619  0.3331
  191MOL0     O25653   5.909  10.607   7.074 -0.9214 -0.2558 -0.3738
  191MOL0     C25654   5.950  10.509   6.985  1.1051  0.2942 -1.0535
  191MOL0     C25655   6.030  10.542   6.880  0.5244  0.5326 -0.5789
  191MOL0     C25656   6.056  10.455   6.774 -0.9608 -0.3630  0.5503
  191MOL0     C25657   6.001  10.327   6.763 -0.6838 -0.7280  0.2655
  191MOL0     O25658   6.032  10.235   6.669  0.2823  0.3411 -0.3394
  191MOL0     C25659   6.140  10.276   6.575 -0.1905 -0.1348 -0.6197
  191MOL0     C25660   6.093  10.348   6.441  0.3614  0.2094 -0.1068
  191MOL0     C25661   6.167  10.290   6.318 -0.0496  0.0220  0.5620
  191MOL0     C25662   6.060  10.255   6.212  1.1790  0.2746  0.2564
  191MOL0     C25663   6.110  10.177   6.085  0.2224 -0.0948 -0.5608
  191MOL0     C25664   5.989  10.127   6.000 -0.3487 -0.7637  0.1211
  191MOL0     C25665   5.995   9.976   5.960 -0.3807 -0.3819  0.8257
  191MOL0     C25666   6.094   9.960   5.848 -0.0631  0.6372  0.3809
  191MOL0     N25667   6.234   9.988   5.870  0.6716  0.0916  0.1929
  191MOL0     C25668   6.313   9.911   5.946 -0.2819  0.0420  0.6618
  191MOL0     C25669   6.436   9.971   5.944  0.3907 -0.5927 -0.2998
  191MOL0     C25670   6.570   9.916   6.007  0.3994 -0.2633 -0.3202
  191MOL0     C25671   6.604   9.975   6.146 -0.2392 -0.2291 -0.0154
  191MOL0     C25672   6.742   9.922   6.195  0.3073  0.4627 -0.4660
  191MOL0     C25673   6.742   9.784   6.256 -0.5618 -0.5387 -0.1045
  191MOL0     O25674   6.627   9.757   6.331 -0.5435  0.5293 -1.0764
  191MOL0     C25675   6.618   9.776   6.469  0.2500 -0.3590  0.0858
  191MOL0     C25676   6.520   9.702   6.534 -0.1078 -0.1583  0.1809
  191MOL0     C25677   6.513   9.700   6.674 -0.0740 -0.1507 -0.3662
  191MOL0     C25678   6.408   9.617   6.733 -0.2833  0.6356  0.3974
  191MOL0     C25679   6.607   9.775   6.751 -0.3511 -0.1784  0.0290
  191MOL0     C25680   6.594   9.787   6.900  0.2871 -0.2200 -0.6999
  191MOL0     O25681   6.704   9.735   6.966 -0.0513 -0.7389  0.1191
  191MOL0     C25682   6.715   9.796   7.087 -1.3806  0.2667 -0.7460
  191MOL0     C25683   6.695   9.734   7.210 -0.9266  0.7066 -0.0586
  191MOL0     C25684   6.710   9.806   7.331 -0.6920  0.4465 -0.1919
  191MOL0     C25685   6.753   9.943   7.331  0.4635 -0.0216 -0.1508
  191MOL0     O25686   6.749  10.016   7.456  0.7619  0.1992  1.2366
  191MOL0     C25687   6.827  10.132   7.458 -1.0361  0.1164 -0.0421
  191MOL0     C25688   6.863  10.168   7.606 -0.8419  0.6669 -0.5408
  191MOL0     C25689   6.977  10.072   7.656 -0.4735 -1.2259 -0.4657
  191MOL0     C25690   7.059  10.138   7.769 -0.2416 -0.0476  0.2258
  191MOL0     C25691   7.186  10.061   7.807 -0.9622 -0.5760 -0.7912
  191MOL0     C25692   7.222  10.085   7.954  0.2834 -0.3640 -0.7361
  191MOL0     C25693   7.349  10.021   8.005 -0.0682 -0.0795  0.9093
  191MOL0     C25694   7.473  10.108   7.998  0.6324  0.1026  0.8245
  191MOL0    Cl25695   7.625  10.013   8.025  0.0703 -0.2044 -0.2711
  191MOL0     C25696   6.777  10.000   7.206  0.5129 -0.2349 -0.0953
  191MOL0     C25697   6.752   9.930   7.086  0.6844  0.6506 -0.4520
  191MOL0     O25698   6.493   9.842   6.950 -0.3772 -0.2832  0.6056
  191MOL0     C25699   6.701   9.854   6.682 -0.0768  0.1376 -0.3888
  191MOL0     C25700   6.708   9.849   6.544  0.2721  0.5528  0.2093
  191MOL0     N25701   6.422  10.089   5.872  0.2234  0.0050 -0.0865
  191MOL0     N25702   6.302  10.095   5.822  0.5839 -0.8507 -0.4033
  191MOL0     C25703   5.915  10.284   6.869 -0.8320 -0.0464  0.4112
  191MOL0     C25704   5.901  10.373   6.981 -0.3386 -0.1207  0.3079
  191MOL0     C25705   5.789  10.710   7.248  0.1034  0.5601  0.3133
  191MOL0     C25706   5.818  10.837   7.193  0.4862 -0.9367 -0.3321
  191MOL0     C25707   5.762  10.953   7.250  0.0605 -0.4540 -0.5524
  191MOL0     C25708   5.687  10.945   7.369  0.2104 -0.9954  0.1292
  191MOL0     O25709   5.632  11.050   7.440 -0.4104 -0.1238 -0.6267
  191MOL0     C25710   5.589  11.173   7.369  0.1781 -0.7829 -0.2376
  191MOL0     C25711   5.458  11.147   7.290 -1.0086 -0.2775  0.4763
  191MOL0     C25712   5.347  11.101   7.387  0.0845  0.9399  0.4174
  191MOL0     C25713   5.212  11.082   7.306 -1.0139  0.0978  1.3640
  191MOL0     C25714   5.107  11.044   7.387  0.2624  1.0589 -0.1245
  191MOL0     C25715   5.004  11.006   7.447 -0.6417 -0.6835  0.2609
  191MOL0     C25716   5.664  10.819   7.422 -0.1591  0.2991  0.7441
  191MOL0     C25717   5.721  10.701   7.366 -0.3389  0.8418 -0.5287
  191MOL0     H25718   6.065  10.645   6.885  2.2658  0.0114  4.3516
  191MOL0     H25719   6.111  10.505   6.695 -0.8620  0.0211  0.8600
  191MOL0     H25720   6.217  10.337   6.623 -0.4326 -1.3527  1.4499
  191MOL0     H25721   6.190  10.181   6.555 -2.5185 -1.3734 -0.9197
  191MOL0     H25722   5.984  10.353   6.444  0.4248  1.6050  2.6813
  191MOL0     H25723   6.113  10.453   6.465 -0.5554  0.9610 -2.3387
  191MOL0     H25724   6.237  10.361   6.272  0.7115 -1.3948 -0.5470
  191MOL0     H25725   6.232  10.207   6.347  0.1370 -1.7287 -4.1015
  191MOL0     H25726   5.987  10.194   6.267  1.2434 -0.4246 -0.4094
  191MOL0     H25727   5.995  10.341   6.192 -1.3357 -0.7989  2.9662
  191MOL0     H25728   6.169  10.240   6.019  1.1084 -0.3084  0.0093
  191MOL0     H25729   6.178  10.095   6.110  0.9760  1.1449  1.7525
  191MOL0     H25730   5.892  10.146   6.047 -1.2243 -2.4775 -0.8889
  191MOL0     H25731   5.989  10.189   5.910 -1.1715 -0.3343  0.4096
  191MOL0     H25732   6.028   9.918   6.046  0.2830  0.9584  1.4993
  191MOL0     H25733   5.900   9.940   5.918 -0.2581 -0.3412  0.5095
  191MOL0     H25734   6.057  10.018   5.763  3.9409 -1.3614 -3.1240
  191MOL0     H25735   6.097   9.855   5.819  2.2035  0.7655 -0.0349
  191MOL0     H25736   6.291   9.820   6.000  0.1766  0.3819  1.4364
  191MOL0     H25737   6.572   9.808   6.025  2.2282 -0.0766  0.7804
  191MOL0     H25738   6.650   9.940   5.938 -0.6029 -1.3233 -1.9149
  191MOL0     H25739   6.528   9.934   6.214 -2.1103  1.2801 -1.0952
  191MOL0     H25740   6.598  10.084   6.148 -0.4716 -0.2354  1.8315
  191MOL0     H25741   6.773   9.976   6.285 -1.2379 -4.0432  3.1630
  191MOL0     H25742   6.815   9.923   6.112  0.3879 -0.6364 -0.4271
  191MOL0     H25743   6.833   9.764   6.312  0.4167  1.0340 -1.0617
  191MOL0     H25744   6.761   9.718   6.171 -1.4422 -1.5814  0.4685
  191MOL0     H25745   6.438   9.664   6.473  0.5829  1.8141 -2.1193
  191MOL0     H25746   6.371   9.562   6.646 -0.3040 -0.5715  1.1363
  191MOL0     H25747   6.456   9.551   6.806  0.7903 -0.6762 -1.4110
  191MOL0     H25748   6.333   9.685   6.775  0.5863 -0.6085  4.4268
  191MOL0     H25749   6.687   9.630   7.238  0.8505  1.3737  3.6192
  191MOL0     H25750   6.698   9.750   7.423  0.3158  0.9095  0.2418
  191MOL0     H25751   6.925  10.120   7.412  1.2585 -0.2965  4.4782
  191MOL0     H25752   6.768  10.209   7.406  1.0043  1.6132 -0.2791
  191MOL0     H25753   6.896  10.273   7.610 -2.3710  1.1310  1.8452
  191MOL0     H25754   6.781  10.162   7.678  1.1561  0.4660  1.8504
  191MOL0     H25755   7.042  10.056   7.570 -1.6764  3.8620 -2.7294
  191MOL0     H25756   6.928   9.980   7.690  0.9940 -1.7287  0.3772
  191MOL0     H25757   7.091  10.239   7.745  0.2025 -0.3974 -0.6981
  191MOL0     H25758   6.996  10.145   7.858 -3.3963  0.5994 -1.9153
  191MOL0     H25759   7.273  10.093   7.748  0.1754 -3.7769 -1.0457
  191MOL0     H25760   7.179   9.953   7.793 -2.3257 -0.3156 -2.5043
  191MOL0     H25761   7.214  10.192   7.973  0.5070 -0.7293  1.7669
  191MOL0     H25762   7.147  10.044   8.022 -0.3588  3.3195  0.9976
  191MOL0     H25763   7.376   9.922   7.965  1.1118  0.7896 -0.5412
  191MOL0     H25764   7.329   9.997   8.110 -0.4488  1.2044  1.1421
  191MOL0     H25765   7.466  10.190   8.070 -2.6351 -2.2512  3.5201
  191MOL0     H25766   7.474  10.152   7.898  0.4981  0.6010  1.0399
  191MOL0     H25767   6.802  10.105   7.191  0.9092  0.0963  2.3891
  191MOL0     H25768   6.761   9.979   6.990  0.0115  0.9362 -0.3732
  191MOL0     H25769   6.766   9.922   6.736 -1.5319  1.1946  0.0856
  191MOL0     H25770   6.786   9.903   6.492 -0.1148  0.5628 -0.3650
  191MOL0     H25771   5.876  10.184   6.884 -3.1712  0.3547 -2.1840
  191MOL0     H25772   5.839  10.329   7.059  0.8137  0.0094  1.3322
  191MOL0     H25773   5.893  10.846   7.116  1.3039  0.9209  0.6072
  191MOL0     H25774   5.782  11.048   7.201  0.2475 -0.7862 -1.1223
  191MOL0     H25775   5.575  11.248   7.447  0.3871  0.0446 -0.9833
  191MOL0     H25776   5.671  11.215   7.309 -0.2734  1.1075  0.4284
  191MOL0     H25777   5.478  11.076   7.209  1.0879 -0.4456  1.0843
  191MOL0     H25778   5.435  11.244   7.247  3.2291  0.7663  0.0586
  191MOL0     H25779   5.327  11.173   7.467  0.0926  0.3293  0.9746
  191MOL0     H25780   5.380  11.009   7.436  1.9253  0.7706 -1.0189
  191MOL0     H25781   5.212  11.006   7.227 -3.8753  3.0277 -1.8301
  191MOL0     H25782   5.187  11.175   7.255 -1.6305 -0.2613  0.9864
  191MOL0     H25783   4.928  10.977   7.517 -0.9208  2.8345  1.6295
  191MOL0     H25784   5.607  10.808   7.514  1.7145  1.2790  2.1193
  191MOL0     H25785   5.698  10.611   7.423  0.8830 -0.7335 -2.3610
  192MOL0     O25786   0.168   3.476   7.023  0.1634  0.6105  0.5713
  192MOL0     C25787   0.139   3.592   7.040 -0.4895  0.5519 -0.1204
  192MOL0     O25788   0.184   3.708   6.966  0.7696  0.1880 -0.0533
  192MOL0     C25789   0.226   3.695   6.840  0.7048 -0.0990  0.3966
  192MOL0     C25790   0.145   3.637   6.738  0.1686  0.2723  0.4133
  192MOL0     C25791   0.191   3.629   6.603 -0.8490 -0.0723  0.9893
  192MOL0     C25792   0.319   3.684   6.571  0.0260  1.1545  0.4582
  192MOL0     O25793   0.361   3.660   6.437  0.1940 -0.1273 -0.8483
  192MOL0     C25794   0.494   3.642   6.409 -1.0754  1.0581 -0.0627
  192MOL0     C25795   0.497   3.568   6.266  0.1116 -0.6204  0.8591
  192MOL0     C25796   0.639   3.577   6.217  0.2949 -0.7275  0.7651
  192MOL0     C25797   0.736   3.483   6.284  0.6009 -0.5119  0.4174
  192MOL0     C25798   0.865   3.448   6.213  0.0961 -0.6462 -0.0746
  192MOL0     C25799   0.858   3.389   6.074  0.8999 -0.4553  0.5336
  192MOL0     C25800   0.796   3.252   6.070 -0.3666  1.1032  0.1294
  192MOL0     C25801   0.808   3.182   5.943  0.4182  0.0304  0.9264
  192MOL0     N25802   0.786   3.038   5.948  0.7069  0.1662  0.7544
  192MOL0     C25803   0.671   2.972   5.999  0.0233  0.6521  0.4380
  192MOL0     C25804   0.648   2.856   5.933  0.1863  0.8389  0.0414
  192MOL0     C25805   0.546   2.750   5.961 -0.6786 -0.6903  0.2530
  192MOL0     C25806   0.587   2.619   6.020  0.7346 -0.4167 -0.2687
  192MOL0     C25807   0.668   2.632   6.154  0.1148  0.3551  0.5633
  192MOL0     C25808   0.717   2.505   6.213  0.8376 -0.3686 -0.2427
  192MOL0     O25809   0.604   2.431   6.269  0.3775 -0.3106 -1.2297
  192MOL0     C25810   0.639   2.332   6.365  0.3489 -0.4569  1.0537
  192MOL0     C25811   0.536   2.259   6.425 -0.0344 -0.1962 -0.2435
  192MOL0     C25812   0.561   2.147   6.502  0.2469  0.3305 -0.6893
  192MOL0     C25813   0.438   2.088   6.567 -0.5049  0.6532 -0.8825
  192MOL0     C25814   0.692   2.102   6.524  0.1388 -0.3361  0.5086
  192MOL0     C25815   0.737   1.995   6.608 -0.1974 -0.1563  0.0202
  192MOL0     O25816   0.843   1.927   6.555 -0.1037  0.2529 -0.6840
  192MOL0     C25817   0.886   1.816   6.627 -0.0336 -0.2566  0.1619
  192MOL0     C25818   0.928   1.825   6.761 -0.3114 -0.4845  0.3135
  192MOL0     C25819   0.980   1.712   6.828  0.4790  0.1500 -0.0757
  192MOL0     C25820   0.983   1.588   6.764  0.1105  0.2052  0.1739
  192MOL0     O25821   1.038   1.482   6.830 -0.3042 -0.2027 -0.3097
  192MOL0     C25822   0.984   1.355   6.817  0.8280  0.2609 -0.5473
  192MOL0     C25823   0.849   1.364   6.899 -0.4524  0.1044 -0.9584
  192MOL0     C25824   0.815   1.219   6.954 -1.1451 -1.1153  0.1746
  192MOL0     C25825   0.738   1.133   6.857  0.2911 -0.6862 -0.1158
  192MOL0     C25826   0.797   1.082   6.721  0.7567 -0.2775  0.0227
  192MOL0     C25827   0.921   0.986   6.741 -0.3646 -1.3012  1.1027
  192MOL0     C25828   0.958   0.936   6.608  0.1141 -0.2377  0.1479
  192MOL0     C25829   1.109   0.897   6.603 -0.7375 -0.5840 -0.4783
  192MOL0    Cl25830   1.218   1.043   6.614  0.1843 -0.5347 -0.6782
  192MOL0     C25831   0.957   1.586   6.624  0.1841  0.4974  0.2499
  192MOL0     C25832   0.899   1.691   6.559  0.5137  0.1519 -1.4769
  192MOL0     O25833   0.668   1.966   6.706  0.5603  0.2801 -0.3378
  192MOL0     C25834   0.793   2.173   6.459 -0.2790 -0.4686  0.2008
  192MOL0     C25835   0.764   2.284   6.380  0.4068  0.0474 -0.0938
  192MOL0     N25836   0.751   2.860   5.842 -0.2637  0.7021  0.5117
  192MOL0     N25837   0.825   2.960   5.847 -0.4369 -0.3056  0.5681
  192MOL0     C25838   0.409   3.727   6.676  0.2050  0.6181  0.6139
  192MOL0     C25839   0.355   3.736   6.806  0.6868  0.5111  0.2310
  192MOL0     C25840   0.042   3.604   7.141  0.8942 -0.1858 -1.0087
  192MOL0     C25841  -0.028   3.728   7.148 -0.8934  0.2309  0.1705
  192MOL0     C25842  -0.132   3.747   7.238 -0.2785 -0.5070 -0.5589
  192MOL0     C25843  -0.172   3.643   7.323 -0.4376 -0.5923 -0.0334
  192MOL0     O25844  -0.279   3.656   7.412  0.3643  0.5260  0.1212
  192MOL0     C25845  -0.350   3.782   7.423 -0.0579 -0.8413  0.0832
  192MOL0     C25846  -0.443   3.768   7.551  0.3124 -1.1656 -0.6179
  192MOL0     C25847  -0.494   3.912   7.595  1.4080  0.2181  0.0233
  192MOL0     C25848  -0.630   3.923   7.691 -0.5135  0.3828  0.2762
  192MOL0     C25849  -0.610   3.866   7.821 -0.1313 -0.3993 -0.1832
  192MOL0     C25850  -0.583   3.824   7.931 -0.3216  0.0057  0.3139
  192MOL0     C25851  -0.096   3.527   7.323  0.7386  1.0614  1.4264
  192MOL0     C25852   0.012   3.511   7.238  0.3893  0.5990  0.1628
  192MOL0     H25853   0.044   3.606   6.760 -0.4857  3.0645  1.8815
  192MOL0     H25854   0.121   3.577   6.538  0.4276 -1.0735  0.3612
  192MOL0     H25855   0.541   3.741   6.407  0.0368  0.5403 -1.7974
  192MOL0     H25856   0.546   3.577   6.480 -0.5021  0.7744 -0.7328
  192MOL0     H25857   0.470   3.462   6.275 -0.2397 -0.8820 -2.0428
  192MOL0     H25858   0.422   3.606   6.196 -2.3774 -3.2649  1.8932
  192MOL0     H25859   0.622   3.558   6.111 -2.2217  0.1271  0.9339
  192MOL0     H25860   0.684   3.676   6.233  0.9317 -1.2420  2.3066
  192MOL0     H25861   0.763   3.540   6.373  0.5635 -0.9218  0.6905
  192MOL0     H25862   0.686   3.391   6.314 -1.7918 -0.4252 -2.7559
  192MOL0     H25863   0.922   3.541   6.204  0.7373 -1.1954 -2.4507
  192MOL0     H25864   0.927   3.376   6.267  1.1940 -0.5750 -1.1911
  192MOL0     H25865   0.813   3.461   6.005  2.1279  0.9282  1.1103
  192MOL0     H25866   0.961   3.380   6.038 -0.2362 -5.2574 -2.4389
  192MOL0     H25867   0.833   3.183   6.147 -3.1649 -0.1819  0.4319
  192MOL0     H25868   0.689   3.252   6.090 -0.8927  0.7093 -2.2967
  192MOL0     H25869   0.903   3.212   5.898 -0.8742 -0.8913 -2.7851
  192MOL0     H25870   0.734   3.231   5.878 -0.4757  0.2665  2.0854
  192MOL0     H25871   0.603   2.998   6.079  0.3746 -4.7908  3.0142
  192MOL0     H25872   0.470   2.801   6.020 -1.3301  0.3387 -1.3806
  192MOL0     H25873   0.502   2.728   5.863  1.5157 -0.9726 -0.7380
  192MOL0     H25874   0.637   2.562   5.942 -1.0438 -0.9201 -1.0901
  192MOL0     H25875   0.490   2.569   6.035  0.8414 -0.6246 -0.2698
  192MOL0     H25876   0.607   2.684   6.229 -2.4770 -1.7627  0.0956
  192MOL0     H25877   0.761   2.684   6.129  0.6806 -1.2195 -0.7899
  192MOL0     H25878   0.786   2.544   6.288  1.1811  1.8509 -1.6443
  192MOL0     H25879   0.758   2.447   6.129 -2.7730 -2.2128 -0.9412
  192MOL0     H25880   0.434   2.293   6.412 -0.1266 -0.8198 -1.3080
  192MOL0     H25881   0.358   2.107   6.496 -0.4252 -0.1143 -1.1935
  192MOL0     H25882   0.442   1.978   6.571 -1.4752  0.6258 -0.4503
  192MOL0     H25883   0.423   2.133   6.666 -2.1604 -0.7255 -0.4476
  192MOL0     H25884   0.935   1.920   6.811 -2.3109 -0.2124  0.1549
  192MOL0     H25885   1.008   1.719   6.933  0.3295  3.1339 -0.1524
  192MOL0     H25886   0.968   1.323   6.714 -0.0016 -2.2773  0.2978
  192MOL0     H25887   1.061   1.292   6.862 -0.7775  0.9904  3.6485
  192MOL0     H25888   0.858   1.433   6.983 -0.8459  0.0211 -0.8437
  192MOL0     H25889   0.768   1.396   6.833 -0.2856  0.4548 -0.9939
  192MOL0     H25890   0.751   1.230   7.041  1.5301 -1.6842  2.3361
  192MOL0     H25891   0.909   1.173   6.987 -0.3809  1.1437  1.3260
  192MOL0     H25892   0.699   1.043   6.904 -0.6282 -0.5890 -0.6693
  192MOL0     H25893   0.648   1.191   6.834 -0.0786 -1.1073  0.2597
  192MOL0     H25894   0.829   1.167   6.661 -1.8212  0.0351 -1.0163
  192MOL0     H25895   0.720   1.040   6.657  0.4407 -0.0569  0.2528
  192MOL0     H25896   0.997   1.054   6.781  0.2084 -1.0747 -0.3066
  192MOL0     H25897   0.909   0.903   6.811 -0.2801  0.1213  2.8653
  192MOL0     H25898   0.925   0.996   6.523 -0.3839  0.0638  0.5520
  192MOL0     H25899   0.901   0.844   6.592 -1.4653  0.3973  1.8234
  192MOL0     H25900   1.122   0.842   6.509  0.1319 -5.4291  2.1738
  192MOL0     H25901   1.128   0.822   6.680 -0.9095  1.7719  2.0137
  192MOL0     H25902   0.959   1.487   6.579 -2.3148  1.2108 -1.6687
  192MOL0     H25903   0.881   1.668   6.455  1.0526 -0.4628 -1.4346
  192MOL0     H25904   0.893   2.130   6.464  0.1773 -0.0802 -2.9497
  192MOL0     H25905   0.846   2.337   6.332  0.0095  0.2052 -0.6019
  192MOL0     H25906   0.515   3.737   6.656  0.5920 -2.2434  0.7400
  192MOL0     H25907   0.413   3.791   6.879  1.7078 -0.8479  0.4841
  192MOL0     H25908  -0.009   3.798   7.068 -1.8873 -1.6868 -1.8708
  192MOL0     H25909  -0.181   3.843   7.231 -2.2313 -1.2740  1.4126
  192MOL0     H25910  -0.278   3.863   7.435 -2.9728  1.7173  2.0475
  192MOL0     H25911  -0.409   3.808   7.335 -3.3902 -0.3636  2.2441
  192MOL0     H25912  -0.383   3.723   7.631  0.6942 -0.0052 -0.2410
  192MOL0     H25913  -0.538   3.714   7.538 -2.7869  2.7152  3.0509
  192MOL0     H25914  -0.518   3.971   7.506  2.9144  0.2535 -0.3923
  192MOL0     H25915  -0.407   3.965   7.637  3.1812 -0.4295 -2.5783
  192MOL0     H25916  -0.719   3.887   7.639 -0.0496 -4.0718  2.1838
  192MOL0     H25917  -0.660   4.027   7.707  0.1921  0.8456 -1.2164
  192MOL0     H25918  -0.552   3.791   8.028  1.1312 -0.8389 -0.4079
  192MOL0     H25919  -0.109   3.442   7.390  0.2073  0.0029  0.0256
  192MOL0     H25920   0.064   3.416   7.241 -0.9522 -0.1603  0.4779
  193MOL0     O25921   0.832   2.282   9.319  0.0789  0.3780  0.2385
  193MOL0     C25922   0.843   2.409   9.304 -0.4441 -0.0669  0.1907
  193MOL0     O25923   0.918   2.490   9.394 -0.9478  0.2460 -0.2515
  193MOL0     C25924   0.997   2.428   9.490 -0.5360 -0.8405  0.0931
  193MOL0     C25925   1.132   2.455   9.491 -0.6691 -1.5580  0.2154
  193MOL0     C25926   1.219   2.409   9.588 -0.1248  0.0435 -0.4669
  193MOL0     C25927   1.171   2.349   9.707  0.7141 -0.8179  0.3055
  193MOL0     O25928   1.257   2.346   9.811 -0.3643  0.0195  0.3138
  193MOL0     C25929   1.193   2.340   9.937  0.0521 -0.3412  0.2960
  193MOL0     C25930   1.298   2.388  10.041  0.8101  0.0352  0.9541
  193MOL0     C25931   1.312   2.542  10.059 -0.5999  1.3452  0.1482
  193MOL0     C25932   1.423   2.588  10.155  0.1021 -0.6501 -0.3446
  193MOL0     C25933   1.420   2.740  10.164  0.3643  0.0007 -0.5099
  193MOL0     C25934   1.443   2.820  10.034 -0.4834 -0.5591  0.3080
  193MOL0     C25935   1.460   2.971  10.057 -0.2419  0.3112 -0.9773
  193MOL0     C25936   1.607   3.024  10.083 -0.0184  0.0778 -0.5982
  193MOL0     N25937   1.692   2.993   9.972  0.2010  0.3707  0.5199
  193MOL0     C25938   1.695   3.049   9.848  0.4125 -0.9972  0.2350
  193MOL0     C25939   1.804   3.013   9.781 -0.3600 -0.1757  0.2987
  193MOL0     C25940   1.860   3.069   9.652 -0.7904 -0.3536  0.4389
  193MOL0     C25941   1.922   3.208   9.665  0.0052  0.7341  0.0248
  193MOL0     C25942   2.032   3.217   9.775 -0.3411  0.2151  0.0570
  193MOL0     C25943   2.130   3.329   9.762  0.4933  1.5696  0.5666
  193MOL0     O25944   2.078   3.454   9.813  0.1253 -0.0480  0.2590
  193MOL0     C25945   1.992   3.528   9.746  0.8784 -0.9696  0.4305
  193MOL0     C25946   1.910   3.609   9.828 -0.7224 -0.3873  0.0897
  193MOL0     C25947   1.816   3.693   9.760 -0.7015 -0.4139 -0.3612
  193MOL0     C25948   1.730   3.784   9.847  0.5745 -0.0070  0.0545
  193MOL0     C25949   1.821   3.706   9.613 -0.0147  0.1382 -0.4426
  193MOL0     C25950   1.732   3.798   9.532  1.6608  0.6946  0.4921
  193MOL0     O25951   1.784   3.817   9.415 -0.1860  0.0585  1.2826
  193MOL0     C25952   1.710   3.871   9.319  0.1258 -0.8203 -0.0936
  193MOL0     C25953   1.595   3.818   9.273  0.0228 -0.4116  0.3522
  193MOL0     C25954   1.522   3.882   9.165  0.2236 -0.2802  0.5583
  193MOL0     C25955   1.571   4.004   9.120 -0.1010  0.9638  0.7493
  193MOL0     O25956   1.528   4.075   9.012 -0.1625  0.0678  0.3838
  193MOL0     C25957   1.404   4.132   9.027 -0.7791 -0.3367  0.4466
  193MOL0     C25958   1.313   4.080   8.920  0.3924 -0.0561 -0.9080
  193MOL0     C25959   1.295   3.930   8.913 -0.0826  0.0030 -0.4986
  193MOL0     C25960   1.218   3.896   8.784 -0.2122 -1.4962  0.1724
  193MOL0     C25961   1.227   3.750   8.739 -0.6936 -0.9780 -1.2843
  193MOL0     C25962   1.153   3.732   8.607 -0.0814 -0.2672  0.1997
  193MOL0     C25963   1.162   3.587   8.549  0.5922  0.2724  0.4034
  193MOL0     C25964   1.071   3.579   8.422 -0.5011 -0.4513  0.1430
  193MOL0    Cl25965   1.024   3.415   8.361  0.5684  0.5798  0.1528
  193MOL0     C25966   1.686   4.054   9.167 -0.1397  1.3066 -1.0361
  193MOL0     C25967   1.756   3.984   9.270 -0.4389  0.0604  0.1110
  193MOL0     O25968   1.623   3.846   9.565  0.2071  0.0802  0.1887
  193MOL0     C25969   1.904   3.617   9.540 -0.5432 -0.0723  1.1851
  193MOL0     C25970   1.981   3.528   9.610 -0.7680 -0.4630 -0.4897
  193MOL0     N25971   1.871   2.926   9.871  0.5486  0.0081  0.0604
  193MOL0     N25972   1.798   2.914   9.980  0.7715 -0.3217  1.2466
  193MOL0     C25973   1.030   2.315   9.707 -0.1490 -0.7407 -0.4286
  193MOL0     C25974   0.946   2.351   9.599 -0.5892  0.5090 -0.3585
  193MOL0     C25975   0.804   2.473   9.179  0.0293 -0.6965 -0.2188
  193MOL0     C25976   0.814   2.610   9.155  0.3337  0.5578 -0.1667
  193MOL0     C25977   0.776   2.663   9.029  0.6752  1.1638  0.2500
  193MOL0     C25978   0.711   2.577   8.930  0.5269  0.4255 -0.0351
  193MOL0     O25979   0.661   2.626   8.813 -0.3073  0.6774 -0.3851
  193MOL0     C25980   0.628   2.767   8.786 -0.4583 -0.7973  0.9580
  193MOL0     C25981   0.502   2.820   8.850 -0.7271 -0.1850  0.5556
  193MOL0     C25982   0.487   2.978   8.803 -0.3141  0.6896 -0.1824
  193MOL0     C25983   0.342   3.026   8.834 -0.2312  0.4776 -0.7537
  193MOL0     C25984   0.242   2.958   8.750  0.0967 -0.4122  0.5014
  193MOL0     C25985   0.157   2.914   8.673  0.3046 -0.4096 -0.9291
  193MOL0     C25986   0.714   2.442   8.951 -0.3938 -0.8979 -0.0467
  193MOL0     C25987   0.770   2.391   9.071  0.7846  0.9202 -0.7090
  193MOL0     H25988   1.164   2.516   9.408  0.8291  0.0399  1.8893
  193MOL0     H25989   1.322   2.437   9.571  1.7173 -4.6122  1.3362
  193MOL0     H25990   1.108   2.408   9.944  1.6697  1.7851  0.1987
  193MOL0     H25991   1.168   2.235   9.958 -0.7243 -0.0519  0.8840
  193MOL0     H25992   1.268   2.344  10.136  1.2659  1.6734  1.8820
  193MOL0     H25993   1.386   2.341   9.997  0.9222  1.6129 -0.6177
  193MOL0     H25994   1.324   2.593   9.963 -0.0622  0.9464 -0.0018
  193MOL0     H25995   1.218   2.564  10.110 -0.1990 -0.1002  1.6172
  193MOL0     H25996   1.416   2.546  10.255  0.4133 -1.4627 -0.6524
  193MOL0     H25997   1.522   2.559  10.118  1.8326 -0.2165  3.5221
  193MOL0     H25998   1.323   2.775  10.201  0.2825 -0.9323  0.2022
  193MOL0     H25999   1.497   2.779  10.231 -0.6659  1.5421 -0.1654
  193MOL0     H26000   1.533   2.772   9.993 -0.2722  1.3038 -1.5993
  193MOL0     H26001   1.373   2.800   9.953  1.5812  0.8726 -1.9947
  193MOL0     H26002   1.427   3.030   9.971 -4.0268 -1.1602 -0.7084
  193MOL0     H26003   1.387   3.002  10.132  1.1501  0.5031  0.3503
  193MOL0     H26004   1.636   2.975  10.176 -0.2776  2.3898  0.7912
  193MOL0     H26005   1.603   3.128  10.117 -0.8636 -0.4359  1.0070
  193MOL0     H26006   1.621   3.122   9.816  1.9683  0.7315  0.4171
  193MOL0     H26007   1.938   3.005   9.609  0.3567  2.0919 -1.3667
  193MOL0     H26008   1.781   3.067   9.576  0.7077 -0.8377 -1.1770
  193MOL0     H26009   1.848   3.286   9.686  1.6329  1.8980  1.6894
  193MOL0     H26010   1.974   3.225   9.570  4.5040 -0.8649  1.9532
  193MOL0     H26011   2.083   3.121   9.773 -2.1396 -0.8287  1.5247
  193MOL0     H26012   1.990   3.226   9.876 -1.8990  2.9177 -0.7207
  193MOL0     H26013   2.166   3.332   9.659 -1.1452 -0.6763 -0.1765
  193MOL0     H26014   2.218   3.309   9.823  0.6622 -1.2736 -0.4516
  193MOL0     H26015   1.919   3.613   9.936 -1.3359 -1.9262  0.2166
  193MOL0     H26016   1.766   3.887   9.842  0.0037  0.1586 -0.9821
  193MOL0     H26017   1.625   3.780   9.817  0.8899 -1.6126 -0.9819
  193MOL0     H26018   1.731   3.751   9.951 -2.3753 -0.8796 -0.0968
  193MOL0     H26019   1.532   3.741   9.316 -1.3227 -0.4292 -1.4863
  193MOL0     H26020   1.435   3.836   9.120  1.7215  0.0142 -2.9639
  193MOL0     H26021   1.368   4.104   9.127  2.0950 -1.0841  1.3763
  193MOL0     H26022   1.406   4.242   9.024  0.6609 -0.3717 -1.0245
  193MOL0     H26023   1.218   4.127   8.943  1.7638  2.4764 -0.0715
  193MOL0     H26024   1.342   4.117   8.821 -1.9928  1.2382 -1.1793
  193MOL0     H26025   1.237   3.895   8.998 -0.1865 -1.5936 -1.1972
  193MOL0     H26026   1.395   3.888   8.900 -1.2394 -3.1863  0.0462
  193MOL0     H26027   1.113   3.919   8.799 -0.6636 -2.6332 -1.0558
  193MOL0     H26028   1.264   3.958   8.707  2.0494 -2.3790  0.7204
  193MOL0     H26029   1.171   3.701   8.819  2.0049 -2.1626 -0.0023
  193MOL0     H26030   1.327   3.708   8.743 -0.6998 -0.9479 -0.7982
  193MOL0     H26031   1.051   3.768   8.620  0.8594  2.6010  0.3704
  193MOL0     H26032   1.191   3.800   8.529 -0.2278  1.5331  1.6316
  193MOL0     H26033   1.138   3.514   8.627  1.3325  0.5213  0.8706
  193MOL0     H26034   1.266   3.577   8.516  0.3491  1.8652 -1.0029
  193MOL0     H26035   1.133   3.625   8.345  0.6735 -0.8294  0.8356
  193MOL0     H26036   0.978   3.637   8.432 -0.4080 -0.4574  1.2524
  193MOL0     H26037   1.727   4.138   9.112 -0.4610  1.6720 -0.7245
  193MOL0     H26038   1.851   4.021   9.306 -0.8600 -0.0693  1.3928
  193MOL0     H26039   1.928   3.614   9.434 -0.3002  1.2012  1.1938
  193MOL0     H26040   2.038   3.455   9.553 -1.3221 -1.4958  0.2556
  193MOL0     H26041   0.978   2.266   9.789 -0.7314 -2.4975 -1.7770
  193MOL0     H26042   0.839   2.338   9.617 -0.3874 -1.0128 -0.1143
  193MOL0     H26043   0.852   2.671   9.236  0.9156  2.9330 -2.0981
  193MOL0     H26044   0.772   2.771   9.040  0.2814  0.9390  2.6299
  193MOL0     H26045   0.709   2.841   8.789 -0.6206 -0.5968  0.4474
  193MOL0     H26046   0.618   2.752   8.678  7.7773 -1.3447 -0.3958
  193MOL0     H26047   0.485   2.819   8.958 -2.3502 -1.8441  0.3295
  193MOL0     H26048   0.423   2.760   8.803  0.1494 -2.1111  1.4529
  193MOL0     H26049   0.511   3.003   8.700  1.3782 -1.0442 -0.2686
  193MOL0     H26050   0.554   3.037   8.866 -0.4067 -1.1115  1.7328
  193MOL0     H26051   0.328   3.133   8.816  0.2676  1.0815  1.9244
  193MOL0     H26052   0.315   3.007   8.938 -1.0314  1.4852 -0.7615
  193MOL0     H26053   0.086   2.877   8.602 -0.9464 -1.0544  0.5769
  193MOL0     H26054   0.697   2.381   8.863  2.1620 -1.8200 -0.0019
  193MOL0     H26055   0.771   2.282   9.069  1.9299  0.9192 -2.3600
  194MOL0     O26056   0.243   1.929   9.651 -0.1186  0.2807 -0.1853
  194MOL0     C26057   0.234   2.026   9.724  0.2648 -0.3392  0.4315
  194MOL0     O26058   0.340   2.088   9.783  0.0214  0.2747  0.3567
  194MOL0     C26059   0.461   2.044   9.738  0.0967 -0.5268  0.1792
  194MOL0     C26060   0.519   1.931   9.796 -0.2661  0.2105 -0.0162
  194MOL0     C26061   0.653   1.893   9.766  0.3342 -0.0999 -0.5678
  194MOL0     C26062   0.721   1.967   9.668 -0.3065 -0.0699  0.4777
  194MOL0     O26063   0.857   1.935   9.640  0.3275  0.0221  0.4160
  194MOL0     C26064   0.924   1.972   9.520 -0.0611 -0.0475 -0.0651
  194MOL0     C26065   0.909   1.862   9.415 -0.6724 -0.4612 -0.0409
  194MOL0     C26066   0.953   1.723   9.474 -0.2550  0.3200  0.6992
  194MOL0     C26067   0.928   1.612   9.368 -0.2642  0.3614  0.4559
  194MOL0     C26068   1.058   1.555   9.296 -0.3935 -0.1378 -0.3743
  194MOL0     C26069   1.102   1.650   9.182 -0.3087  0.0472 -0.6408
  194MOL0     C26070   1.189   1.572   9.084 -0.3693 -0.9669 -0.2551
  194MOL0     C26071   1.337   1.550   9.133  0.7417  0.1426 -0.8272
  194MOL0     N26072   1.341   1.464   9.254 -0.1187  0.3212 -0.5529
  194MOL0     C26073   1.328   1.322   9.247 -0.1729 -0.2865 -0.3291
  194MOL0     C26074   1.363   1.273   9.374  0.5432  0.1212  0.5060
  194MOL0     C26075   1.372   1.140   9.439 -0.6718  0.8201  0.2322
  194MOL0     C26076   1.335   1.025   9.356 -0.4821  0.2574  1.0872
  194MOL0     C26077   1.182   1.010   9.340  0.1628  0.0686 -0.8710
  194MOL0     C26078   1.157   0.923   9.216 -0.5602 -0.6574 -0.3582
  194MOL0     O26079   1.190   0.985   9.086  0.2068  0.7354  0.4107
  194MOL0     C26080   1.118   1.096   9.038 -0.0120  0.8270 -0.1786
  194MOL0     C26081   1.191   1.175   8.945  1.1855 -0.3356 -0.2104
  194MOL0     C26082   1.131   1.292   8.885  0.6557  0.6045  0.1890
  194MOL0     C26083   1.234   1.371   8.803 -0.4592  0.0473 -0.7925
  194MOL0     C26084   0.999   1.329   8.912  0.2189 -0.3711 -0.4461
  194MOL0     C26085   0.932   1.452   8.862  0.4648  0.8699 -0.1117
  194MOL0     O26086   1.002   1.548   8.793 -0.8715  0.4415  0.7765
  194MOL0     C26087   0.947   1.631   8.698 -0.3374  0.1730 -0.6106
  194MOL0     C26088   1.031   1.736   8.645 -0.1903  0.2152 -0.4948
  194MOL0     C26089   0.986   1.817   8.537  0.2820  0.8185 -1.0415
  194MOL0     C26090   0.864   1.802   8.483 -1.0051  0.0543 -0.3008
  194MOL0     O26091   0.834   1.900   8.388 -0.2100  0.3748  0.2068
  194MOL0     C26092   0.705   1.908   8.322  0.2624  0.2068 -0.3490
  194MOL0     C26093   0.612   1.988   8.403  0.2270 -1.0270 -0.0387
  194MOL0     C26094   0.497   2.050   8.318  0.1647  0.4700 -0.7084
  194MOL0     C26095   0.420   2.155   8.400  1.2275 -1.0520 -0.2203
  194MOL0     C26096   0.273   2.162   8.361  0.7502  0.3934  0.3071
  194MOL0     C26097   0.193   2.033   8.407  0.2979 -0.9020  0.5943
  194MOL0     C26098   0.048   2.088   8.439 -0.7308  1.5691  0.1439
  194MOL0     C26099  -0.055   1.986   8.482  0.6867  0.9644 -0.3293
  194MOL0    Cl26100  -0.027   1.890   8.632  0.1509 -0.1257  0.0072
  194MOL0     C26101   0.791   1.688   8.526 -0.0622 -0.6660  0.2065
  194MOL0     C26102   0.829   1.611   8.628 -0.3042  0.4233  0.1810
  194MOL0     O26103   0.812   1.456   8.888  0.4257  0.0903 -0.3469
  194MOL0     C26104   0.932   1.245   9.010  0.3828 -0.8104 -0.2168
  194MOL0     C26105   0.985   1.129   9.077  0.0170  0.1374  0.3875
  194MOL0     N26106   1.379   1.384   9.450  1.1098  0.8036  0.2279
  194MOL0     N26107   1.380   1.490   9.382 -0.3704  0.9050 -0.2243
  194MOL0     C26108   0.652   2.062   9.586  0.1529 -0.5288 -0.2619
  194MOL0     C26109   0.526   2.112   9.632 -0.1910 -0.4756 -0.1279
  194MOL0     C26110   0.100   2.069   9.759  0.2030 -0.1044 -0.7503
  194MOL0     C26111   0.072   2.166   9.863 -0.7909  0.6441 -0.6473
  194MOL0     C26112  -0.067   2.194   9.897  0.8484 -0.0308 -0.3757
  194MOL0     C26113  -0.179   2.147   9.831 -0.3304 -0.2418  0.2291
  194MOL0     O26114  -0.306   2.183   9.864  0.2055  0.8848  0.8868
  194MOL0     C26115  -0.390   2.265   9.770  0.2554  0.4266  0.0613
  194MOL0     C26116  -0.522   2.196   9.747 -0.3840 -0.2183 -1.0127
  194MOL0     C26117  -0.599   2.189   9.876  0.4751  0.3082  0.0604
  194MOL0     C26118  -0.734   2.128   9.869 -0.0455  0.7647  0.0541
  194MOL0     C26119  -0.724   1.983   9.868  0.3238 -0.9518  0.1728
  194MOL0     C26120  -0.705   1.864   9.875  0.0346 -0.4265  0.5876
  194MOL0     C26121  -0.156   2.058   9.723 -0.1448 -0.2388 -1.0694
  194MOL0     C26122  -0.019   2.015   9.697  0.0789 -0.5913  0.6859
  194MOL0     H26123   0.471   1.875   9.875  2.2554 -1.7959  0.2191
  194MOL0     H26124   0.690   1.810   9.826 -2.5265  0.8560  2.9187
  194MOL0     H26125   0.904   2.070   9.476  0.8363 -0.4749 -1.5129
  194MOL0     H26126   1.033   1.972   9.535 -0.0308  0.2128 -0.2695
  194MOL0     H26127   0.804   1.855   9.384 -0.3316  0.1443 -1.4080
  194MOL0     H26128   0.971   1.877   9.326  0.2404  0.9793  0.7825
  194MOL0     H26129   1.058   1.716   9.502 -0.0572 -1.4255 -0.3183
  194MOL0     H26130   0.898   1.688   9.562 -2.0528 -3.1199 -1.5745
  194MOL0     H26131   0.879   1.525   9.411  0.9590 -1.7123 -2.0885
  194MOL0     H26132   0.855   1.635   9.290  0.6876 -2.5854 -1.4758
  194MOL0     H26133   1.142   1.549   9.365 -1.0365 -3.5842  0.2771
  194MOL0     H26134   1.047   1.451   9.265 -1.0924  0.2683 -1.5634
  194MOL0     H26135   1.014   1.691   9.131  0.2891  2.3900  0.0587
  194MOL0     H26136   1.157   1.736   9.223 -0.3034 -1.1740  2.1348
  194MOL0     H26137   1.146   1.472   9.074 -0.9177 -0.7234 -0.3982
  194MOL0     H26138   1.182   1.626   8.989 -2.0291 -0.1774  0.2699
  194MOL0     H26139   1.390   1.640   9.166  0.3580 -0.2722  1.0481
  194MOL0     H26140   1.396   1.507   9.052  2.5346  0.0041  0.4987
  194MOL0     H26141   1.310   1.270   9.153  0.6528 -0.4855 -0.3862
  194MOL0     H26142   1.474   1.130   9.479 -1.0719  1.6925  1.5214
  194MOL0     H26143   1.307   1.145   9.526  0.6063  0.0776  1.2676
  194MOL0     H26144   1.387   0.937   9.396  2.0318  1.0115 -0.3138
  194MOL0     H26145   1.364   1.046   9.253 -2.6593 -1.8040 -0.0548
  194MOL0     H26146   1.134   1.108   9.332 -1.0947 -0.2717  1.4991
  194MOL0     H26147   1.143   0.968   9.434 -1.9578  0.1117 -1.6817
  194MOL0     H26148   1.049   0.902   9.215 -0.6483 -0.2572 -1.9712
  194MOL0     H26149   1.205   0.825   9.213  0.0896 -0.3345 -0.6710
  194MOL0     H26150   1.294   1.144   8.932  0.7642 -1.1271 -1.9920
  194MOL0     H26151   1.189   1.421   8.717 -2.4405  1.6158  1.0230
  194MOL0     H26152   1.283   1.444   8.869  1.2510  0.1928 -2.1502
  194MOL0     H26153   1.310   1.303   8.766 -1.0564 -1.1301  0.0814
  194MOL0     H26154   1.128   1.763   8.685  1.9316  0.2061 -4.9459
  194MOL0     H26155   1.060   1.890   8.505  3.6711 -2.3193 -1.1198
  194MOL0     H26156   0.724   1.942   8.220 -0.0346 -0.3353 -0.5883
  194MOL0     H26157   0.670   1.807   8.299  1.1676 -0.4121  0.8542
  194MOL0     H26158   0.574   1.940   8.494  1.5196 -1.2761  0.3982
  194MOL0     H26159   0.678   2.070   8.433  1.1216 -1.6889 -0.1362
  194MOL0     H26160   0.442   1.963   8.280 -0.9451  0.0386  1.7106
  194MOL0     H26161   0.543   2.099   8.231  3.0167  1.0152  0.9592
  194MOL0     H26162   0.437   2.126   8.504  2.8040 -0.2763 -0.2317
  194MOL0     H26163   0.475   2.249   8.387  0.7140 -0.1596  3.2519
  194MOL0     H26164   0.256   2.182   8.255  2.8981  0.7204 -0.0086
  194MOL0     H26165   0.239   2.247   8.421  1.4787  1.0450 -0.1856
  194MOL0     H26166   0.196   1.976   8.314  1.7666 -0.2668  0.2346
  194MOL0     H26167   0.231   1.986   8.498 -1.7401 -0.7152  1.5924
  194MOL0     H26168   0.026   2.138   8.345  3.3754 -1.4517 -2.8225
  194MOL0     H26169   0.062   2.152   8.526  1.8126  2.7827 -1.0465
  194MOL0     H26170  -0.077   1.915   8.403  0.8449 -0.0785  0.5353
  194MOL0     H26171  -0.150   2.037   8.499  0.2636 -0.3713  1.7470
  194MOL0     H26172   0.700   1.662   8.473 -0.1760  1.1419 -0.5810
  194MOL0     H26173   0.759   1.533   8.656  2.8401 -2.2774  1.1185
  194MOL0     H26174   0.828   1.266   9.032  0.2927 -2.6133  1.3549
  194MOL0     H26175   0.917   1.074   9.141  0.5106  0.7146  1.4369
  194MOL0     H26176   0.703   2.123   9.512  2.1440 -3.8665 -1.8631
  194MOL0     H26177   0.483   2.201   9.588  1.6839 -0.9019 -3.0908
  194MOL0     H26178   0.141   2.213   9.933  0.8411 -1.4847 -0.7087
  194MOL0     H26179  -0.080   2.274   9.969 -1.7192 -1.6018  1.0396
  194MOL0     H26180  -0.396   2.364   9.815  0.1425 -0.5512  2.3449
  194MOL0     H26181  -0.345   2.277   9.671  1.3603  1.9013  0.6978
  194MOL0     H26182  -0.510   2.093   9.712  0.0950 -0.3951 -0.3400
  194MOL0     H26183  -0.577   2.254   9.672 -2.2503  1.1824  1.3229
  194MOL0     H26184  -0.627   2.291   9.904 -1.6489 -0.4838  1.0485
  194MOL0     H26185  -0.528   2.153   9.951  0.5386  1.7111  0.7134
  194MOL0     H26186  -0.785   2.176   9.785  0.4748  0.3972 -0.4759
  194MOL0     H26187  -0.791   2.139   9.962  1.0845  1.0652  0.7268
  194MOL0     H26188  -0.693   1.758   9.877  0.1321 -0.4186  0.4205
  194MOL0     H26189  -0.235   2.012   9.664 -0.6104  1.1237 -1.5468
  194MOL0     H26190  -0.016   1.933   9.626 -0.8801 -0.5238  0.5408
  195MOL0     O26191  11.093   9.549   4.964  0.3219  0.2130 -0.1051
  195MOL0     C26192  11.043   9.661   4.984  0.5453  0.3417  0.2926
  195MOL0     O26193  11.073   9.755   5.071  0.6342 -0.1363 -0.3491
  195MOL0     C26194  11.178   9.738   5.153  0.3807 -0.8996  0.1352
  195MOL0     C26195  11.169   9.674   5.273  0.3318  0.2300 -0.2144
  195MOL0     C26196  11.285   9.670   5.360  0.1165 -0.2496 -0.1305
  195MOL0     C26197  11.403   9.735   5.331  0.6237 -0.1683  0.2086
  195MOL0     O26198  11.514   9.743   5.410 -0.8213  0.3787  0.7424
  195MOL0     C26199  11.581   9.621   5.462  0.2880 -0.2138 -0.8184
  195MOL0     C26200  11.543   9.591   5.606 -0.2195  1.3075  0.2526
  195MOL0     C26201  11.608   9.682   5.713 -0.8686 -0.3490  0.0388
  195MOL0     C26202  11.560   9.672   5.859 -0.2483 -0.2526 -0.4060
  195MOL0     C26203  11.653   9.743   5.961  0.5433 -0.0060 -0.1914
  195MOL0     C26204  11.617   9.741   6.108  0.0304  0.5596 -0.1620
  195MOL0     C26205  11.740   9.778   6.192  1.2273  0.1052  0.7427
  195MOL0     C26206  11.770   9.928   6.167 -0.3026  1.2352 -0.7782
  195MOL0     N26207  11.861   9.944   6.052 -0.1033  0.1903  0.6881
  195MOL0     C26208  11.827  10.031   5.950 -0.7867 -1.3604 -0.4101
  195MOL0     C26209  11.920  10.008   5.864  0.0078  0.2872  0.6474
  195MOL0     C26210  11.931  10.076   5.729 -0.2723 -0.1104 -0.3306
  195MOL0     C26211  11.847  10.001   5.616  0.8068  0.5013  0.6348
  195MOL0     C26212  11.897   9.865   5.573  0.4890  0.1997  0.2724
  195MOL0     C26213  12.031   9.858   5.501 -0.1066  1.0968  0.0465
  195MOL0     O26214  12.060   9.716   5.495  0.1464 -0.1480  0.4474
  195MOL0     C26215  12.006   9.642   5.390  0.1545 -0.1007  0.5353
  195MOL0     C26216  11.922   9.681   5.282 -0.2195 -0.8680 -0.8300
  195MOL0     C26217  11.866   9.590   5.181  0.2208 -0.7030 -1.0236
  195MOL0     C26218  11.769   9.650   5.076  0.3253  0.2338 -0.2609
  195MOL0     C26219  11.889   9.457   5.195  0.2659  0.4625 -0.6190
  195MOL0     C26220  11.826   9.349   5.105 -1.1225  0.2115 -0.3805
  195MOL0     O26221  11.904   9.223   5.102 -0.3339 -1.4818  0.1496
  195MOL0     C26222  11.869   9.129   5.015  0.0272  0.3883 -0.7455
  195MOL0     C26223  11.849   9.142   4.876 -0.2187 -0.2855 -0.3523
  195MOL0     C26224  11.844   9.033   4.789 -0.5635 -0.5070 -0.1223
  195MOL0     C26225  11.850   8.899   4.844  0.7124 -0.1058 -1.2916
  195MOL0     O26226  11.846   8.791   4.758 -0.7991  0.0328 -0.0931
  195MOL0     C26227  11.941   8.784   4.652 -0.4388  0.3098 -0.3257
  195MOL0     C26228  11.936   8.642   4.585  0.2543  0.5476 -0.2816
  195MOL0     C26229  11.793   8.608   4.545  0.5614  0.0109  0.5999
  195MOL0     C26230  11.788   8.531   4.416 -0.7967 -0.3778 -0.4583
  195MOL0     C26231  11.643   8.533   4.374 -0.8533  0.2251  1.2674
  195MOL0     C26232  11.629   8.455   4.244  0.7850  0.6767  0.3804
  195MOL0     C26233  11.745   8.449   4.145 -0.3979 -0.0769 -0.0319
  195MOL0     C26234  11.706   8.368   4.027  0.2900 -0.0358 -0.3217
  195MOL0    Cl26235  11.855   8.333   3.930  0.0194 -0.0022  0.0357
  195MOL0     C26236  11.838   8.872   4.981  0.2448 -1.0333  0.1569
  195MOL0     C26237  11.863   8.988   5.063 -0.3089  0.0062 -0.8121
  195MOL0     O26238  11.712   9.369   5.060 -0.0462 -0.6266 -0.1051
  195MOL0     C26239  11.981   9.417   5.297  1.0078  0.4646 -0.2771
  195MOL0     C26240  12.040   9.507   5.390  1.1271 -0.3032 -0.4193
  195MOL0     N26241  12.022   9.927   5.916 -0.0335 -0.1421  0.3670
  195MOL0     N26242  11.995   9.902   6.041  0.8552  0.5068 -0.3402
  195MOL0     C26243  11.402   9.810   5.214  0.6694 -0.3448 -0.5201
  195MOL0     C26244  11.293   9.810   5.128  0.9951 -0.6991  0.2731
  195MOL0     C26245  10.943   9.705   4.888  0.6544 -0.8940 -0.2237
  195MOL0     C26246  10.891   9.838   4.886  0.4100  0.4801  0.2841
  195MOL0     C26247  10.824   9.889   4.775 -0.1629  0.0251 -0.2244
  195MOL0     C26248  10.804   9.810   4.663  0.1094 -0.7585 -0.0135
  195MOL0     O26249  10.733   9.844   4.548  0.1175  0.3725  0.3051
  195MOL0     C26250  10.641   9.949   4.535  0.7101  1.0471  0.7401
  195MOL0     C26251  10.529   9.923   4.635 -0.1499  0.6734  0.1258
  195MOL0     C26252  10.457   9.790   4.601 -0.1470 -0.5378 -0.0752
  195MOL0     C26253  10.331   9.776   4.682  0.6213  0.4502 -0.9679
  195MOL0     C26254  10.259   9.650   4.654 -0.2960  1.3724 -0.9261
  195MOL0     C26255  10.212   9.537   4.635  0.1594 -0.4638 -0.1028
  195MOL0     C26256  10.860   9.683   4.663 -0.4216  0.6196  0.2533
  195MOL0     C26257  10.923   9.623   4.777 -0.4121  0.0810  0.3669
  195MOL0     H26258  11.082   9.613   5.296  5.0832 -6.8272  2.3382
  195MOL0     H26259  11.289   9.625   5.459 -0.5847  3.8041  1.9561
  195MOL0     H26260  11.573   9.538   5.391  3.1494 -1.2243 -0.0958
  195MOL0     H26261  11.690   9.631   5.464  0.5217 -2.1264  1.9472
  195MOL0     H26262  11.436   9.576   5.626 -0.4616 -1.2692 -2.2594
  195MOL0     H26263  11.592   9.495   5.623  2.5776  2.1386 -2.2369
  195MOL0     H26264  11.713   9.652   5.719 -0.8077 -0.7321 -2.1494
  195MOL0     H26265  11.598   9.783   5.671  1.4307 -0.3699 -0.7108
  195MOL0     H26266  11.461   9.718   5.865  1.8472  4.7774  0.1800
  195MOL0     H26267  11.543   9.567   5.886 -3.1779  0.1044 -0.5036
  195MOL0     H26268  11.745   9.688   5.941 -0.3025 -1.5270 -0.0963
  195MOL0     H26269  11.657   9.845   5.922 -4.7456  1.2937  1.6914
  195MOL0     H26270  11.526   9.796   6.133 -1.6763 -2.0175 -0.3097
  195MOL0     H26271  11.584   9.640   6.134 -2.2362  1.5213  0.9067
  195MOL0     H26272  11.708   9.756   6.294 -0.9559 -0.9406 -0.0995
  195MOL0     H26273  11.828   9.714   6.181 -0.0876 -1.6132 -0.6408
  195MOL0     H26274  11.810   9.969   6.260 -2.9325  0.3038  0.8604
  195MOL0     H26275  11.677   9.981   6.145 -1.0416  0.7721  1.0957
  195MOL0     H26276  11.741  10.096   5.937 -0.2135 -0.5994 -0.4474
  195MOL0     H26277  11.908  10.183   5.732  0.2071  0.0080 -0.6542
  195MOL0     H26278  12.036  10.061   5.700 -0.3243 -0.2382 -0.4544
  195MOL0     H26279  11.850  10.063   5.526 -1.8971 -0.7662 -0.4699
  195MOL0     H26280  11.743   9.993   5.649  0.7689 -0.7398  0.2509
  195MOL0     H26281  11.819   9.831   5.504  1.2755 -0.4833 -0.3115
  195MOL0     H26282  11.882   9.796   5.657  0.0607 -0.6196 -0.4552
  195MOL0     H26283  12.100   9.906   5.571 -2.4424  1.3300  2.3524
  195MOL0     H26284  12.037   9.907   5.404 -1.4850 -0.0399 -0.6423
  195MOL0     H26285  11.904   9.788   5.284  2.3318 -0.3019 -2.5220
  195MOL0     H26286  11.799   9.625   4.973 -1.3466  1.8970 -1.2293
  195MOL0     H26287  11.669   9.611   5.096  0.3023 -0.1030 -1.0137
  195MOL0     H26288  11.767   9.759   5.084  1.0679  0.1369  1.4914
  195MOL0     H26289  11.844   9.246   4.843  0.2446  0.3350  1.4237
  195MOL0     H26290  11.824   9.044   4.682  1.3083 -2.5540 -0.7705
  195MOL0     H26291  11.930   8.865   4.580 -2.2329  1.7815  1.5261
  195MOL0     H26292  12.042   8.795   4.694 -1.0120  2.4261  0.5693
  195MOL0     H26293  12.011   8.648   4.506  2.0325  0.1153  1.2852
  195MOL0     H26294  11.975   8.566   4.654 -1.8806  1.0661  1.6257
  195MOL0     H26295  11.749   8.706   4.525  0.4698 -0.4063 -1.3950
  195MOL0     H26296  11.740   8.554   4.624  0.0890  2.0362  1.7258
  195MOL0     H26297  11.855   8.578   4.343 -1.1262 -0.4212 -0.7855
  195MOL0     H26298  11.836   8.435   4.434 -2.3472 -1.2636 -0.8934
  195MOL0     H26299  11.628   8.640   4.359  0.7073  0.1700 -1.3853
  195MOL0     H26300  11.573   8.502   4.453  0.7957  0.8601  3.0432
  195MOL0     H26301  11.593   8.353   4.260 -2.6265  1.8731  1.1915
  195MOL0     H26302  11.539   8.496   4.199 -0.4993 -2.8017 -0.5172
  195MOL0     H26303  11.823   8.385   4.187  0.6995  1.9005  1.0610
  195MOL0     H26304  11.785   8.548   4.124  0.2947 -0.5655 -1.1245
  195MOL0     H26305  11.644   8.433   3.964 -0.9245  0.7672  1.6100
  195MOL0     H26306  11.645   8.280   4.053  1.2921 -1.3325 -2.1180
  195MOL0     H26307  11.819   8.770   5.011 -0.9026 -0.9593 -0.2804
  195MOL0     H26308  11.872   8.977   5.170 -0.4136 -3.2883 -1.0348
  195MOL0     H26309  11.994   9.309   5.302 -0.5824  0.2931  2.1595
  195MOL0     H26310  12.112   9.478   5.466 -0.0726  0.0600  0.9071
  195MOL0     H26311  11.482   9.881   5.196  0.1230  1.1812  2.4462
  195MOL0     H26312  11.297   9.878   5.043  1.7279  0.8053  1.4671
  195MOL0     H26313  10.931   9.902   4.965  0.4289  0.6617  0.1277
  195MOL0     H26314  10.813   9.996   4.791  1.0486  0.0427  0.5658
  195MOL0     H26315  10.682  10.049   4.553  1.2394  0.9136  0.3050
  195MOL0     H26316  10.601   9.967   4.435  1.2982 -0.9305  0.0966
  195MOL0     H26317  10.452  10.000   4.634 -1.6661 -0.7331  1.5139
  195MOL0     H26318  10.570   9.936   4.736 -0.4943  3.4444 -0.0327
  195MOL0     H26319  10.525   9.708   4.628  1.2856  1.1022  1.6011
  195MOL0     H26320  10.432   9.777   4.496 -1.8124  0.6416  0.1486
  195MOL0     H26321  10.257   9.856   4.671 -2.1207 -1.1869  3.0462
  195MOL0     H26322  10.352   9.778   4.790 -0.6973  3.5664 -0.6866
  195MOL0     H26323  10.172   9.440   4.612 -2.2599  0.8856 -2.0029
  195MOL0     H26324  10.840   9.611   4.584  0.6227 -3.1248  3.0762
  195MOL0     H26325  10.957   9.521   4.766  0.0040  0.3986 -1.9456
  196MOL0     O26326  10.387   2.811   0.981  0.1725 -0.1059 -0.9587
  196MOL0     C26327  10.438   2.704   0.949 -0.8215 -0.5080  0.2875
  196MOL0     O26328  10.415   2.580   1.011 -0.2459 -0.4423 -0.2682
  196MOL0     C26329  10.353   2.577   1.133 -0.6149 -0.5826  0.4988
  196MOL0     C26330  10.222   2.615   1.164  0.1972  0.6160 -0.0152
  196MOL0     C26331  10.166   2.592   1.284 -0.0683 -0.5916  0.0755
  196MOL0     C26332  10.235   2.515   1.377  0.1842  0.1253  0.2873
  196MOL0     O26333  10.187   2.479   1.499  0.7596 -1.0652  0.2773
  196MOL0     C26334  10.052   2.506   1.537 -0.4606  0.5363  0.5864
  196MOL0     C26335  10.018   2.452   1.674  0.4866 -0.4677 -1.1589
  196MOL0     C26336   9.884   2.491   1.717 -0.2601  0.8701 -0.0323
  196MOL0     C26337   9.837   2.425   1.844 -0.4742 -0.7507  0.0780
  196MOL0     C26338   9.697   2.480   1.892 -1.0308  0.7343  0.6926
  196MOL0     C26339   9.659   2.431   2.038 -0.3863 -0.0918 -0.1319
  196MOL0     C26340   9.741   2.496   2.150  0.3683 -0.4463  0.5462
  196MOL0     C26341   9.755   2.388   2.251  0.8261  0.6186 -0.1757
  196MOL0     N26342   9.622   2.350   2.305 -0.4538  0.2543 -0.6043
  196MOL0     C26343   9.556   2.431   2.389  0.3594 -0.3049 -0.5903
  196MOL0     C26344   9.447   2.361   2.425  0.3186  0.3046  0.1685
  196MOL0     C26345   9.349   2.422   2.523  0.0281  0.2206  0.0957
  196MOL0     C26346   9.326   2.327   2.644  0.0073 -0.7316  0.2797
  196MOL0     C26347   9.213   2.361   2.740 -0.1306 -0.4152  0.6703
  196MOL0     C26348   9.234   2.505   2.791  0.2061  0.1097  0.8349
  196MOL0     O26349   9.134   2.540   2.888 -0.2952 -0.0509 -0.1573
  196MOL0     C26350   9.160   2.612   3.005  0.5298 -0.1150 -0.9087
  196MOL0     C26351   9.281   2.676   3.027  0.6872 -0.2284  0.1312
  196MOL0     C26352   9.329   2.731   3.151  0.3758 -0.4053  0.0674
  196MOL0     C26353   9.452   2.812   3.143  0.3847  0.3652 -0.5917
  196MOL0     C26354   9.231   2.731   3.257 -0.7967 -0.0618  0.2186
  196MOL0     C26355   9.270   2.787   3.394 -0.0371 -0.0667  0.8197
  196MOL0     O26356   9.166   2.814   3.472 -0.2475  0.2947 -0.8134
  196MOL0     C26357   9.159   2.824   3.612 -0.8863  1.2218  0.3629
  196MOL0     C26358   9.036   2.864   3.655  1.2230 -0.3114  0.2610
  196MOL0     C26359   9.013   2.879   3.791 -1.0807 -0.6162 -0.2914
  196MOL0     C26360   9.123   2.867   3.883 -0.2523 -0.2714  0.9143
  196MOL0     O26361   9.112   2.895   4.015  0.5686 -0.1197  0.3150
  196MOL0     C26362   8.987   2.847   4.071 -0.5856 -0.3918  0.0470
  196MOL0     C26363   8.991   2.859   4.225  1.0614  0.2588  1.0463
  196MOL0     C26364   9.125   2.787   4.277  0.5944  0.0128  0.1384
  196MOL0     C26365   9.135   2.833   4.421  0.1937  0.0902 -0.3775
  196MOL0     C26366   9.252   2.782   4.500  1.0174  0.0383  0.0851
  196MOL0     C26367   9.274   2.873   4.628  0.1854  0.2199 -0.3249
  196MOL0     C26368   9.164   2.881   4.727 -0.0978 -0.0098  0.1983
  196MOL0     C26369   9.188   2.993   4.827  0.0132 -1.0796 -0.1165
  196MOL0    Cl26370   9.031   3.039   4.909  0.1678 -0.4828  0.0724
  196MOL0     C26371   9.244   2.837   3.835 -0.2043  0.2558 -0.3065
  196MOL0     C26372   9.268   2.813   3.701 -0.1131 -0.3221  0.3849
  196MOL0     O26373   9.388   2.818   3.417  0.0327  0.8450  0.3797
  196MOL0     C26374   9.109   2.666   3.241  0.3402  0.1960  0.7140
  196MOL0     C26375   9.079   2.600   3.120 -0.6213 -0.2393  0.0085
  196MOL0     N26376   9.458   2.240   2.370 -0.2091 -0.3488 -0.9701
  196MOL0     N26377   9.573   2.226   2.305 -0.1605  0.3111 -0.1435
  196MOL0     C26378  10.361   2.465   1.348 -0.5429 -0.3344 -0.4564
  196MOL0     C26379  10.423   2.496   1.221 -0.3695  0.0743 -0.1671
  196MOL0     C26380  10.530   2.694   0.827  0.2965 -0.3206 -0.1040
  196MOL0     C26381  10.551   2.791   0.738 -0.4970  0.0242 -1.2966
  196MOL0     C26382  10.645   2.778   0.634 -0.2218  0.1770 -0.1453
  196MOL0     C26383  10.720   2.665   0.619  0.2505  0.2307  0.5485
  196MOL0     O26384  10.824   2.660   0.533  0.1139 -0.2336  0.0554
  196MOL0     C26385  10.937   2.721   0.595 -0.2388 -0.7417 -0.2857
  196MOL0     C26386  11.041   2.628   0.666 -0.3392 -0.6890  0.5819
  196MOL0     C26387  11.114   2.552   0.562  0.2600  1.0729 -0.5413
  196MOL0     C26388  11.240   2.481   0.620  0.3590 -0.1978 -0.4192
  196MOL0     C26389  11.250   2.355   0.545  0.2746  0.2159  0.1897
  196MOL0     C26390  11.247   2.246   0.491 -0.0209 -0.8060 -0.3084
  196MOL0     C26391  10.697   2.565   0.709  0.1392 -0.0976 -0.1582
  196MOL0     C26392  10.608   2.579   0.810  0.2052 -0.4222  0.4115
  196MOL0     H26393  10.162   2.666   1.089  1.1780  1.8941  0.0274
  196MOL0     H26394  10.063   2.619   1.306 -0.3924 -2.1226  0.5601
  196MOL0     H26395  10.034   2.614   1.532 -0.3621  0.5105 -0.7397
  196MOL0     H26396   9.986   2.451   1.469 -0.8009  0.9458  0.5821
  196MOL0     H26397  10.012   2.344   1.660 -1.9242 -0.6458  0.5031
  196MOL0     H26398  10.086   2.481   1.754 -2.6310  1.0145  1.1491
  196MOL0     H26399   9.883   2.599   1.737 -0.1000  0.6653  1.1362
  196MOL0     H26400   9.807   2.467   1.642 -0.7204  2.3742 -0.0755
  196MOL0     H26401   9.836   2.315   1.839 -1.1939 -0.9667  2.9268
  196MOL0     H26402   9.921   2.427   1.914 -0.6281 -3.1583  0.4446
  196MOL0     H26403   9.695   2.588   1.903  1.7641  0.7702  1.6008
  196MOL0     H26404   9.619   2.448   1.822  0.0321  1.2623 -0.7552
  196MOL0     H26405   9.552   2.452   2.044 -0.9395 -2.4796 -0.6281
  196MOL0     H26406   9.660   2.322   2.045 -0.6487  0.0125  2.3400
  196MOL0     H26407   9.840   2.539   2.135  0.9111 -1.1127  1.9978
  196MOL0     H26408   9.671   2.576   2.176  0.7756  0.3504 -0.7292
  196MOL0     H26409   9.813   2.431   2.333  1.3321 -0.5937  0.1268
  196MOL0     H26410   9.808   2.296   2.223  2.7804  1.6237  0.0729
  196MOL0     H26411   9.562   2.534   2.423 -1.3156 -1.6993  5.1776
  196MOL0     H26412   9.390   2.512   2.571 -2.6134  3.5568 -3.2283
  196MOL0     H26413   9.261   2.450   2.464  0.4738  0.7624 -0.3294
  196MOL0     H26414   9.420   2.334   2.699 -0.0224 -0.3889  0.2916
  196MOL0     H26415   9.311   2.225   2.607  1.9410 -1.0725  0.3203
  196MOL0     H26416   9.212   2.288   2.822 -1.8562 -4.5498 -2.6366
  196MOL0     H26417   9.113   2.366   2.697  0.7020  1.4035 -1.2377
  196MOL0     H26418   9.234   2.578   2.710  4.3466  0.7054  1.1539
  196MOL0     H26419   9.333   2.518   2.835  0.1181  2.7241  0.4395
  196MOL0     H26420   9.354   2.693   2.949 -0.3565  3.6042 -0.1718
  196MOL0     H26421   9.460   2.887   3.223  0.7604  0.4123 -0.6724
  196MOL0     H26422   9.541   2.752   3.166  0.8019  1.2814  0.2823
  196MOL0     H26423   9.459   2.872   3.052 -0.2771 -1.7174 -2.0822
  196MOL0     H26424   8.965   2.909   3.586  0.9959 -0.6366  0.2750
  196MOL0     H26425   8.918   2.900   3.839 -1.9879 -1.2585 -1.7384
  196MOL0     H26426   8.900   2.905   4.038  1.3839  0.9503 -3.3533
  196MOL0     H26427   8.958   2.744   4.047  1.3964 -1.2621  1.1516
  196MOL0     H26428   8.983   2.965   4.248 -3.4986  0.1085  1.0615
  196MOL0     H26429   8.895   2.817   4.257  0.1794  1.3899 -0.0094
  196MOL0     H26430   9.219   2.826   4.239  2.0525 -0.9747  2.5025
  196MOL0     H26431   9.132   2.678   4.268  1.9742  0.0598  0.4225
  196MOL0     H26432   9.146   2.942   4.415  4.1809 -0.2525 -3.2340
  196MOL0     H26433   9.047   2.803   4.478  1.3448 -2.3354  0.2487
  196MOL0     H26434   9.348   2.793   4.448  0.4920  0.9028 -0.7270
  196MOL0     H26435   9.228   2.681   4.536 -0.4246 -0.7189 -2.7468
  196MOL0     H26436   9.370   2.854   4.675 -0.4276 -1.7269  0.2562
  196MOL0     H26437   9.272   2.970   4.578 -0.1024  0.5223  0.2709
  196MOL0     H26438   9.168   2.784   4.777  2.8947 -0.8822 -1.4971
  196MOL0     H26439   9.063   2.892   4.686 -0.2156  1.2550  0.7842
  196MOL0     H26440   9.216   3.082   4.770  1.5168 -2.1167 -1.0729
  196MOL0     H26441   9.271   2.982   4.897  2.2268  2.0344 -1.9949
  196MOL0     H26442   9.312   2.819   3.918 -1.3583  1.1305  0.8713
  196MOL0     H26443   9.363   2.784   3.656 -0.7272 -2.5029  0.3975
  196MOL0     H26444   9.046   2.662   3.329  0.3618 -0.8588  0.6917
  196MOL0     H26445   8.993   2.535   3.111  0.0546 -1.0675 -0.6230
  196MOL0     H26446  10.419   2.399   1.412  1.4727  3.5361  2.0506
  196MOL0     H26447  10.516   2.459   1.179 -0.4188  0.2988 -0.4749
  196MOL0     H26448  10.492   2.882   0.748 -1.4391 -0.7649  1.2771
  196MOL0     H26449  10.664   2.850   0.554 -1.2123 -2.2688 -2.7627
  196MOL0     H26450  10.989   2.785   0.523  0.0481 -0.2300  0.3549
  196MOL0     H26451  10.900   2.781   0.679 -0.7922 -4.5654  2.4784
  196MOL0     H26452  10.995   2.560   0.738  1.2621 -0.3405  1.9845
  196MOL0     H26453  11.111   2.690   0.722  0.6176  0.5453 -1.8439
  196MOL0     H26454  11.150   2.629   0.493  2.4204  0.4425 -0.1881
  196MOL0     H26455  11.049   2.481   0.511 -0.4471 -0.5128  2.3803
  196MOL0     H26456  11.232   2.469   0.728  2.5171  3.3318  0.2693
  196MOL0     H26457  11.332   2.536   0.599  1.0681 -1.2582 -0.1942
  196MOL0     H26458  11.230   2.155   0.437 -0.1283 -0.4362 -0.9173
  196MOL0     H26459  10.742   2.467   0.699  1.3284  0.5109 -0.9545
  196MOL0     H26460  10.600   2.499   0.883 -0.5695  0.1002  0.9178
  197MOL0     O26461   5.841   8.924   5.100  0.1282  0.1455 -0.2296
  197MOL0     C26462   5.770   8.925   4.995  0.1750 -0.0756 -0.5682
  197MOL0     O26463   5.693   9.030   4.956 -0.1012 -0.5316 -0.7101
  197MOL0     C26464   5.694   9.154   5.015 -0.1348 -0.6103 -0.1760
  197MOL0     C26465   5.577   9.239   5.015 -0.9679  0.4053  0.6515
  197MOL0     C26466   5.573   9.372   5.071  0.2368  0.8104 -0.7052
  197MOL0     C26467   5.697   9.428   5.114 -0.0396 -0.4469 -0.3615
  197MOL0     O26468   5.710   9.562   5.150 -0.2086 -0.1583 -0.2580
  197MOL0     C26469   5.661   9.648   5.040 -0.0130 -0.2639  0.2639
  197MOL0     C26470   5.776   9.717   4.977 -0.4175 -0.3415 -0.1156
  197MOL0     C26471   5.856   9.809   5.081 -0.9809  0.7794  0.0556
  197MOL0     C26472   5.936   9.920   5.016  0.5636  0.9153  0.2637
  197MOL0     C26473   6.041   9.874   4.910 -0.0998 -0.1635 -0.9157
  197MOL0     C26474   6.160   9.774   4.954  0.8912 -0.2219 -0.4633
  197MOL0     C26475   6.232   9.813   5.084  0.5763  1.3093  0.3347
  197MOL0     C26476   6.329   9.698   5.123  0.5161 -0.6129 -0.0448
  197MOL0     N26477   6.249   9.576   5.170 -0.4295 -0.0124 -0.4163
  197MOL0     C26478   6.271   9.451   5.114 -0.3941  0.0586 -0.5109
  197MOL0     C26479   6.222   9.359   5.201  0.7940 -0.3723 -0.1497
  197MOL0     C26480   6.195   9.221   5.162 -1.5094  0.4810  0.3539
  197MOL0     C26481   6.319   9.130   5.178  0.1674  0.3435 -0.6106
  197MOL0     C26482   6.302   8.985   5.124 -0.4313  1.1002 -0.5194
  197MOL0     C26483   6.327   8.954   4.967  0.1410 -0.0941 -0.0323
  197MOL0     O26484   6.466   8.966   4.944  0.4151 -0.5702 -0.0947
  197MOL0     C26485   6.518   8.931   4.822  0.2517  0.0512  0.0748
  197MOL0     C26486   6.649   8.964   4.784 -0.2570 -0.2371  0.6262
  197MOL0     C26487   6.696   8.916   4.662 -0.4313  0.1930 -0.0163
  197MOL0     C26488   6.849   8.927   4.627  0.6327 -0.2443 -1.2486
  197MOL0     C26489   6.619   8.846   4.567 -1.2134 -0.2806 -0.8972
  197MOL0     C26490   6.669   8.823   4.431 -1.2374  1.0078  0.1850
  197MOL0     O26491   6.605   8.713   4.375 -0.3373  0.1150  0.5968
  197MOL0     C26492   6.655   8.642   4.269 -0.6041 -1.0964 -0.4683
  197MOL0     C26493   6.793   8.649   4.234  0.7257  0.2321  0.0501
  197MOL0     C26494   6.832   8.580   4.121 -0.8228 -0.6820  0.7773
  197MOL0     C26495   6.740   8.515   4.037 -0.5200 -0.2065 -0.1829
  197MOL0     O26496   6.793   8.456   3.924  1.3428  0.2341  0.4615
  197MOL0     C26497   6.722   8.487   3.803 -0.0313 -0.9704  0.1245
  197MOL0     C26498   6.658   8.354   3.761  0.3530  0.2057 -0.5781
  197MOL0     C26499   6.567   8.378   3.644 -0.2134  0.1078 -0.3804
  197MOL0     C26500   6.642   8.404   3.509 -0.1035 -1.3880  0.1833
  197MOL0     C26501   6.544   8.419   3.389  0.3891 -0.5086  0.4378
  197MOL0     C26502   6.624   8.408   3.265 -1.3513 -0.6925 -0.2340
  197MOL0     C26503   6.704   8.539   3.238 -0.1047 -0.4511  0.9061
  197MOL0     C26504   6.791   8.524   3.114 -0.8632  0.6147  0.8717
  197MOL0    Cl26505   6.920   8.408   3.150  0.2336 -0.1597 -0.1978
  197MOL0     C26506   6.599   8.507   4.072  0.0610  0.3029 -0.4540
  197MOL0     C26507   6.562   8.580   4.183 -0.7106 -0.1184  0.1754
  197MOL0     O26508   6.751   8.896   4.375 -0.7254  0.4236  0.6149
  197MOL0     C26509   6.485   8.815   4.605  0.0907  0.1249 -0.4314
  197MOL0     C26510   6.443   8.861   4.730  0.6387 -0.3390 -0.6181
  197MOL0     N26511   6.172   9.430   5.308  0.6998 -0.1138 -0.3930
  197MOL0     N26512   6.190   9.555   5.288  0.4896 -0.5682 -0.3101
  197MOL0     C26513   5.812   9.347   5.118  0.7578 -0.4970  0.7243
  197MOL0     C26514   5.814   9.214   5.066  0.4433  0.5744 -0.4342
  197MOL0     C26515   5.766   8.814   4.892  0.1733  0.1083  1.2882
  197MOL0     C26516   5.685   8.818   4.772 -0.0505  0.0238 -0.0503
  197MOL0     C26517   5.686   8.710   4.675  0.9138 -0.3434 -0.7643
  197MOL0     C26518   5.757   8.592   4.694  0.2477 -0.1564 -0.2918
  197MOL0     O26519   5.747   8.489   4.610 -0.3933  0.6090 -0.1926
  197MOL0     C26520   5.796   8.520   4.478  0.1929  1.3434  0.3922
  197MOL0     C26521   5.830   8.386   4.418  0.2340  0.1742 -0.2250
  197MOL0     C26522   5.884   8.403   4.278 -0.5451 -1.0621 -0.0517
  197MOL0     C26523   5.760   8.403   4.170 -1.1475 -0.4308 -0.0131
  197MOL0     C26524   5.804   8.420   4.030 -0.5873 -0.4745 -0.2778
  197MOL0     C26525   5.828   8.421   3.908  0.5044 -0.2159 -1.1862
  197MOL0     C26526   5.840   8.596   4.815  0.4352  0.5443  0.5729
  197MOL0     C26527   5.844   8.699   4.906  0.1795 -1.0322  0.1786
  197MOL0     H26528   5.481   9.197   4.986 -0.6103 -0.7869  1.1054
  197MOL0     H26529   5.490   9.438   5.095  0.1587  0.3455  0.3341
  197MOL0     H26530   5.616   9.587   4.961  1.5666  0.2352 -1.0859
  197MOL0     H26531   5.589   9.722   5.074 -1.6524 -0.3186 -2.7131
  197MOL0     H26532   5.847   9.659   4.917 -1.0617 -0.3789 -0.8610
  197MOL0     H26533   5.724   9.784   4.907 -2.2176 -0.4086  1.1144
  197MOL0     H26534   5.788   9.859   5.151  1.3400 -0.6434  3.5791
  197MOL0     H26535   5.911   9.741   5.147  0.0554  4.6250  3.5310
  197MOL0     H26536   5.864   9.977   4.957  0.3974 -1.8470 -2.4347
  197MOL0     H26537   5.985   9.980   5.093  0.2400 -3.0102  3.9202
  197MOL0     H26538   5.995   9.813   4.831 -0.5996 -1.4871  0.3556
  197MOL0     H26539   6.083   9.968   4.873  0.2287  0.4955  1.0498
  197MOL0     H26540   6.113   9.677   4.969 -3.0276  1.3375 -1.3036
  197MOL0     H26541   6.236   9.775   4.876  1.4303 -0.2475  0.0564
  197MOL0     H26542   6.284   9.909   5.077 -0.8845  2.0917 -0.2349
  197MOL0     H26543   6.163   9.833   5.167 -0.2865  1.5297 -0.4204
  197MOL0     H26544   6.387   9.724   5.212 -0.4821  0.8733  0.1973
  197MOL0     H26545   6.399   9.686   5.040  0.6230  1.8013 -0.3788
  197MOL0     H26546   6.306   9.442   5.012 -4.5685  0.4129 -2.1365
  197MOL0     H26547   6.121   9.179   5.231 -2.4337  2.1062  0.3979
  197MOL0     H26548   6.166   9.202   5.059 -1.9809 -0.8815  0.7243
  197MOL0     H26549   6.352   9.132   5.282  1.3577 -1.5368 -0.9062
  197MOL0     H26550   6.402   9.178   5.125  1.1110  0.7196  1.1269
  197MOL0     H26551   6.202   8.951   5.154  0.6438 -0.8669  1.0995
  197MOL0     H26552   6.360   8.917   5.187 -2.1744  2.1187  2.4329
  197MOL0     H26553   6.266   9.019   4.903 -0.2771 -2.1761 -1.8964
  197MOL0     H26554   6.298   8.850   4.949  3.4446 -1.2484  0.6570
  197MOL0     H26555   6.716   9.018   4.851 -1.2121  0.6727  0.8852
  197MOL0     H26556   6.909   8.973   4.706  2.3865 -0.2329 -2.5264
  197MOL0     H26557   6.884   8.826   4.602 -1.7085 -2.0340  1.9279
  197MOL0     H26558   6.863   8.999   4.546  0.6275  0.2836 -0.7806
  197MOL0     H26559   6.871   8.702   4.288 -1.9797  2.0514  2.4712
  197MOL0     H26560   6.936   8.588   4.090 -1.0309  1.9747  0.5464
  197MOL0     H26561   6.633   8.550   3.813  0.8698  0.2917  0.4780
  197MOL0     H26562   6.790   8.533   3.730  0.2312 -0.0216  0.9456
  197MOL0     H26563   6.725   8.274   3.727  0.6130  1.3230 -2.9194
  197MOL0     H26564   6.601   8.323   3.849  0.2600  2.3408  0.1530
  197MOL0     H26565   6.507   8.468   3.658  0.3865  0.3069  1.1241
  197MOL0     H26566   6.501   8.292   3.638  0.2821 -0.2997 -0.0985
  197MOL0     H26567   6.712   8.487   3.521 -0.8400 -0.2407 -2.7071
  197MOL0     H26568   6.717   8.323   3.507  1.8033  0.3102 -0.9961
  197MOL0     H26569   6.490   8.514   3.398 -0.6093 -1.2403  3.3859
  197MOL0     H26570   6.469   8.340   3.395 -2.5256  2.1267  1.8756
  197MOL0     H26571   6.685   8.319   3.280  0.2925  0.4492  0.0454
  197MOL0     H26572   6.564   8.376   3.178  0.0246  0.6246 -1.7369
  197MOL0     H26573   6.787   8.578   3.296  2.2898  3.4291 -4.3720
  197MOL0     H26574   6.635   8.622   3.220  0.7358  0.0802  0.0260
  197MOL0     H26575   6.832   8.624   3.097  1.7156 -0.3491  0.9115
  197MOL0     H26576   6.729   8.495   3.029 -0.7277 -0.1796  1.0302
  197MOL0     H26577   6.528   8.448   4.014 -1.0662  1.8309 -0.6963
  197MOL0     H26578   6.462   8.595   4.222  0.0289 -1.8311  3.0817
  197MOL0     H26579   6.416   8.752   4.550 -3.0371  0.2085  2.9870
  197MOL0     H26580   6.339   8.840   4.756  0.1560  1.3639 -1.0621
  197MOL0     H26581   5.898   9.398   5.159  1.9918 -2.7033  1.0699
  197MOL0     H26582   5.906   9.159   5.052 -1.4783 -2.6537 -1.3788
  197MOL0     H26583   5.618   8.901   4.756 -1.6737 -0.4598  3.3575
  197MOL0     H26584   5.630   8.711   4.582  0.2028 -2.8259 -0.4301
  197MOL0     H26585   5.717   8.567   4.419 -1.0118 -1.5093 -0.4507
  197MOL0     H26586   5.878   8.592   4.484 -0.6889  2.3044  4.8521
  197MOL0     H26587   5.745   8.319   4.413 -0.5719  1.0599  0.9836
  197MOL0     H26588   5.901   8.338   4.486 -1.0225 -3.6055 -1.3686
  197MOL0     H26589   5.945   8.320   4.241 -2.0014 -1.3585 -1.9998
  197MOL0     H26590   5.947   8.492   4.269 -2.4422  0.4202  0.5761
  197MOL0     H26591   5.695   8.485   4.202 -1.1149 -0.5761  0.4457
  197MOL0     H26592   5.710   8.307   4.181 -1.0926 -0.5132 -0.4940
  197MOL0     H26593   5.837   8.430   3.802 -1.0080  1.1990 -1.2287
  197MOL0     H26594   5.906   8.512   4.832 -0.5085 -0.6670 -1.3651
  197MOL0     H26595   5.909   8.684   4.992 -0.1056  3.9493  1.5671
  198MOL0     O26596   8.412   2.367  10.118 -0.1838  0.3917 -0.1792
  198MOL0     C26597   8.533   2.378  10.119  0.2838 -0.4879  0.6253
  198MOL0     O26598   8.603   2.498  10.146 -0.5327  0.3283  0.5329
  198MOL0     C26599   8.537   2.620  10.114 -0.5216  0.1596  0.1958
  198MOL0     C26600   8.431   2.636  10.023 -0.2761 -1.1256  0.5748
  198MOL0     C26601   8.365   2.748  10.009  0.3381 -0.4220 -0.1468
  198MOL0     C26602   8.393   2.865  10.087  0.3895  0.1274  0.5678
  198MOL0     O26603   8.346   2.988  10.072  0.1133 -0.0464  0.7513
  198MOL0     C26604   8.260   3.003   9.956  0.2935 -0.5063  0.3607
  198MOL0     C26605   8.205   3.145   9.940  0.1728 -0.6221  0.2628
  198MOL0     C26606   8.327   3.246   9.962 -0.5624 -0.0806 -0.0356
  198MOL0     C26607   8.283   3.389   9.993 -0.5430 -0.8726 -0.6855
  198MOL0     C26608   8.264   3.475   9.866 -0.4074 -0.1595 -0.4427
  198MOL0     C26609   8.232   3.618   9.901 -0.5311  0.1963 -0.3133
  198MOL0     C26610   8.355   3.701   9.941 -0.1795 -0.4026 -0.4444
  198MOL0     C26611   8.305   3.836   9.991 -0.6603 -0.9210  0.1552
  198MOL0     N26612   8.279   3.932   9.878 -0.5846  0.4610 -0.5946
  198MOL0     C26613   8.383   3.995   9.816 -0.3948 -0.3801  0.8479
  198MOL0     C26614   8.326   4.048   9.703  0.5341  0.2855  0.1805
  198MOL0     C26615   8.390   4.114   9.583 -0.4612 -0.4195  0.1723
  198MOL0     C26616   8.469   4.248   9.611 -0.1444  0.5230  0.0473
  198MOL0     C26617   8.403   4.352   9.697  0.0805  0.2020  0.4642
  198MOL0     C26618   8.293   4.423   9.619 -1.0110  0.3431  1.1408
  198MOL0     O26619   8.342   4.458   9.490 -0.8299  0.6221 -0.3122
  198MOL0     C26620   8.304   4.568   9.423  0.1710 -0.4331 -0.1016
  198MOL0     C26621   8.383   4.625   9.323 -0.9069 -0.5562 -1.1154
  198MOL0     C26622   8.341   4.740   9.254  0.1995  0.1792  0.2295
  198MOL0     C26623   8.442   4.790   9.158  0.1886  0.3296 -0.1106
  198MOL0     C26624   8.219   4.796   9.286  0.1145  0.3558 -0.4172
  198MOL0     C26625   8.163   4.920   9.228 -0.3852  1.0048  0.3681
  198MOL0     O26626   8.163   4.936   9.092 -0.0171 -0.0682  0.1788
  198MOL0     C26627   8.080   5.040   9.039 -0.4993  0.6824 -0.5323
  198MOL0     C26628   8.125   5.146   8.967  0.3790  0.2703  0.0697
  198MOL0     C26629   8.038   5.237   8.901  0.2295  0.3395  0.2727
  198MOL0     C26630   7.899   5.222   8.917 -0.8431  0.9760 -0.0703
  198MOL0     O26631   7.804   5.306   8.873  0.3531  0.1463  0.4530
  198MOL0     C26632   7.844   5.431   8.804 -0.0476 -0.7650  0.2354
  198MOL0     C26633   7.732   5.539   8.799  0.1571  0.0639 -0.9335
  198MOL0     C26634   7.599   5.487   8.746  0.1989  1.2895 -0.0592
  198MOL0     C26635   7.490   5.592   8.737 -1.0408  0.4727  0.4074
  198MOL0     C26636   7.353   5.525   8.680 -0.9834 -0.3639 -0.3245
  198MOL0     C26637   7.240   5.635   8.664  0.4739  0.4964  0.3159
  198MOL0     C26638   7.146   5.592   8.547  0.8740 -0.8307  0.4258
  198MOL0     C26639   7.006   5.668   8.540 -0.7341  0.0518 -0.0405
  198MOL0    Cl26640   6.904   5.656   8.685  0.2301  0.0271  0.0573
  198MOL0     C26641   7.858   5.115   8.998  0.3630 -0.2779 -0.6555
  198MOL0     C26642   7.948   5.027   9.051  0.6664  0.2225 -0.6307
  198MOL0     O26643   8.114   5.000   9.304  0.3925 -0.4039 -0.8986
  198MOL0     C26644   8.150   4.744   9.392  0.5595  0.0286 -0.5302
  198MOL0     C26645   8.185   4.632   9.460  0.0174 -0.7993  0.1084
  198MOL0     N26646   8.189   4.021   9.717  0.2232 -0.2381 -1.0887
  198MOL0     N26647   8.170   3.936   9.806 -0.0823  0.3897  1.1072
  198MOL0     C26648   8.494   2.857  10.185 -0.1551  0.1400  0.6902
  198MOL0     C26649   8.562   2.737  10.196 -0.3358  0.4150  0.2460
  198MOL0     C26650   8.600   2.258  10.081  0.8551  0.3722  0.2636
  198MOL0     C26651   8.736   2.255  10.088  0.6427 -0.5240 -0.8503
  198MOL0     C26652   8.809   2.141  10.058 -1.0176  0.1084 -0.0241
  198MOL0     C26653   8.752   2.027  10.015 -0.3215  0.1547  0.2607
  198MOL0     O26654   8.840   1.922   9.968  0.4889 -0.5155 -0.8109
  198MOL0     C26655   8.783   1.804   9.907  0.2325 -0.1613 -0.3622
  198MOL0     C26656   8.890   1.699   9.900  1.2053  0.3694  0.7653
  198MOL0     C26657   8.993   1.756   9.804 -0.7625  0.7161  0.0441
  198MOL0     C26658   9.117   1.667   9.812 -0.2031  0.0521 -0.2937
  198MOL0     C26659   9.183   1.665   9.938 -0.1966 -1.1448 -1.0431
  198MOL0     C26660   9.234   1.643  10.041  0.0655  0.8121 -0.0869
  198MOL0     C26661   8.613   2.025   9.998  0.6970  0.1982 -0.2320
  198MOL0     C26662   8.542   2.136  10.044 -0.6219  0.4467  0.8234
  198MOL0     H26663   8.390   2.549   9.973  0.0647 -0.5946 -0.6402
  198MOL0     H26664   8.282   2.749   9.939  0.0040 -0.4199  0.2469
  198MOL0     H26665   8.321   2.999   9.865  0.7599  1.3893  0.5421
  198MOL0     H26666   8.179   2.930   9.953  1.0342 -1.3102 -0.6686
  198MOL0     H26667   8.170   3.156   9.837  1.6029 -0.6750 -0.2505
  198MOL0     H26668   8.120   3.161  10.006  1.2506  0.0032  1.5459
  198MOL0     H26669   8.384   3.199  10.042 -2.6565 -0.4021  1.3387
  198MOL0     H26670   8.392   3.252   9.874  0.7411 -3.4912  0.5323
  198MOL0     H26671   8.188   3.382  10.046  0.6320  0.3176  1.7599
  198MOL0     H26672   8.344   3.444  10.066 -4.0970  1.3730  0.8573
  198MOL0     H26673   8.362   3.478   9.817 -0.2473  1.4650 -0.0466
  198MOL0     H26674   8.184   3.432   9.805 -0.1578  1.5917 -2.0898
  198MOL0     H26675   8.196   3.661   9.807  1.6150  0.8354 -0.8987
  198MOL0     H26676   8.153   3.629   9.976 -0.5067  3.2014 -0.6187
  198MOL0     H26677   8.407   3.663  10.029 -2.6785 -0.5974  1.0666
  198MOL0     H26678   8.420   3.713   9.854  0.6610  2.7532  0.4864
  198MOL0     H26679   8.372   3.874  10.069 -3.8434  0.1210  2.6157
  198MOL0     H26680   8.222   3.820  10.061  0.2889 -2.4140  0.9903
  198MOL0     H26681   8.485   4.001   9.852  0.3828 -0.3022 -1.2557
  198MOL0     H26682   8.445   4.045   9.519  1.6808 -0.5093  1.9690
  198MOL0     H26683   8.314   4.138   9.508 -0.0348 -0.8181 -0.3936
  198MOL0     H26684   8.500   4.283   9.512  0.8067 -1.6641 -0.4822
  198MOL0     H26685   8.561   4.225   9.664 -0.4494  0.3039  0.4849
  198MOL0     H26686   8.468   4.433   9.729 -2.5615  2.1429  1.3195
  198MOL0     H26687   8.349   4.324   9.789  1.2015 -1.1015  0.7661
  198MOL0     H26688   8.257   4.511   9.673  0.7031  0.3068  2.4242
  198MOL0     H26689   8.211   4.352   9.603  1.1931 -2.1956  0.4023
  198MOL0     H26690   8.479   4.577   9.312  1.2193  3.0578  0.0496
  198MOL0     H26691   8.478   4.707   9.096 -3.3946 -1.5375  0.0323
  198MOL0     H26692   8.402   4.864   9.089  0.5943  2.7311  2.0583
  198MOL0     H26693   8.522   4.833   9.218  1.5438 -1.6377 -0.4000
  198MOL0     H26694   8.232   5.163   8.975  0.5301 -1.0055  0.9924
  198MOL0     H26695   8.078   5.331   8.866  0.0588 -0.7985 -3.3613
  198MOL0     H26696   7.941   5.481   8.818 -1.6778  2.3521  1.4546
  198MOL0     H26697   7.846   5.411   8.696  0.3631  1.7158 -0.2745
  198MOL0     H26698   7.713   5.564   8.904 -2.1646  0.2029 -1.3362
  198MOL0     H26699   7.765   5.628   8.744 -2.3351  0.9383 -1.1128
  198MOL0     H26700   7.571   5.398   8.803  3.0330 -1.0125 -1.9454
  198MOL0     H26701   7.607   5.452   8.643 -0.0228  2.2914 -0.4317
  198MOL0     H26702   7.460   5.638   8.831 -1.8609 -2.7241  1.8529
  198MOL0     H26703   7.525   5.664   8.663  0.9147 -1.2206 -0.4173
  198MOL0     H26704   7.312   5.465   8.762  0.7834 -0.8167  0.2926
  198MOL0     H26705   7.363   5.467   8.588 -1.1112 -2.4732  0.9062
  198MOL0     H26706   7.186   5.652   8.758  1.6491 -2.8907  1.7632
  198MOL0     H26707   7.280   5.730   8.630  1.4996 -0.6071 -1.7338
  198MOL0     H26708   7.116   5.488   8.563 -3.3066 -0.2707 -2.2388
  198MOL0     H26709   7.186   5.594   8.446  0.2261  0.0896  0.1674
  198MOL0     H26710   6.944   5.609   8.472 -2.5470  0.7734  0.9176
  198MOL0     H26711   7.016   5.768   8.498  0.8941 -0.7910 -1.7893
  198MOL0     H26712   7.750   5.107   9.009  0.2758 -0.5181 -1.6030
  198MOL0     H26713   7.910   4.938   9.099  3.2054 -1.1329 -0.9565
  198MOL0     H26714   8.066   4.796   9.437 -1.8880 -1.7032 -2.7833
  198MOL0     H26715   8.122   4.604   9.544  0.6280  0.7237  1.1073
  198MOL0     H26716   8.517   2.940  10.251 -1.1368  2.2989 -1.5084
  198MOL0     H26717   8.632   2.739  10.279  0.3190  0.4790 -0.2985
  198MOL0     H26718   8.782   2.344  10.130 -1.0465 -0.8318  1.8657
  198MOL0     H26719   8.915   2.161  10.055 -1.0683  0.3793 -3.0371
  198MOL0     H26720   8.701   1.769   9.972  0.3739 -1.0225 -0.6272
  198MOL0     H26721   8.732   1.821   9.812 -0.3476  2.1204  0.2910
  198MOL0     H26722   8.864   1.602   9.857  1.5387  0.6166  0.0039
  198MOL0     H26723   8.917   1.668  10.002 -0.8784 -1.9025  0.7241
  198MOL0     H26724   9.033   1.853   9.836  1.0845 -0.3309  1.0541
  198MOL0     H26725   8.944   1.761   9.707 -1.6911  1.3647  0.5183
  198MOL0     H26726   9.187   1.704   9.737 -1.5678  4.0766  0.1475
  198MOL0     H26727   9.090   1.563   9.792 -3.3025  0.3081  1.7444
  198MOL0     H26728   9.270   1.613  10.138 -1.9948  2.9729  1.4485
  198MOL0     H26729   8.556   1.943   9.957 -0.4507  0.9466 -0.1864
  198MOL0     H26730   8.434   2.135  10.032 -0.7581 -0.2398  1.9435
  199MOL0     O26731  10.344   2.404   6.587 -0.4995  0.7808 -0.0996
  199MOL0     C26732  10.244   2.464   6.599  0.4507 -0.6856 -0.5222
  199MOL0     O26733  10.159   2.511   6.498  0.2883 -0.3450 -0.4912
  199MOL0     C26734  10.200   2.494   6.370 -1.2031 -0.5860  0.3479
  199MOL0     C26735  10.308   2.578   6.333 -0.1177  0.0709 -0.0980
  199MOL0     C26736  10.361   2.568   6.207  0.4310 -0.3055  0.0840
  199MOL0     C26737  10.301   2.478   6.117  0.0645  0.2936 -0.1174
  199MOL0     O26738  10.352   2.474   5.983 -0.0182 -0.0837  1.2806
  199MOL0     C26739  10.429   2.584   5.928  0.2006  0.1526  0.1876
  199MOL0     C26740  10.400   2.595   5.776 -0.2779  0.0534 -0.1936
  199MOL0     C26741  10.277   2.678   5.744  0.2024  0.6039 -0.1648
  199MOL0     C26742  10.306   2.745   5.610  0.2768 -0.4912 -0.1361
  199MOL0     C26743  10.170   2.786   5.530 -0.1174  0.7245 -0.3118
  199MOL0     C26744  10.197   2.781   5.380 -0.3871  0.3118 -0.4065
  199MOL0     C26745  10.246   2.917   5.335 -0.2102  0.3318  0.4813
  199MOL0     C26746  10.404   2.949   5.324  1.3650  0.8104  0.0373
  199MOL0     N26747  10.427   3.081   5.272  0.2240 -0.5429  0.5204
  199MOL0     C26748  10.385   3.195   5.334  0.1146  0.0711 -0.6433
  199MOL0     C26749  10.438   3.299   5.266 -0.5878  0.0397 -1.4273
  199MOL0     C26750  10.439   3.451   5.308 -0.0669 -0.0076 -0.5078
  199MOL0     C26751  10.501   3.541   5.198  0.3133  0.2728 -0.0299
  199MOL0     C26752  10.568   3.663   5.266 -0.9827  0.0618 -1.0595
  199MOL0     C26753  10.628   3.765   5.172 -0.7515 -0.5109 -0.2954
  199MOL0     O26754  10.626   3.907   5.205 -1.3347  0.7011 -0.0636
  199MOL0     C26755  10.507   3.978   5.176 -0.5032 -0.1434  0.7143
  199MOL0     C26756  10.388   3.915   5.146  0.4628  0.8118 -0.1034
  199MOL0     C26757  10.277   3.992   5.121  0.2685 -0.1570 -0.3408
  199MOL0     C26758  10.142   3.907   5.101  0.1540 -0.9608  0.0336
  199MOL0     C26759  10.276   4.137   5.134  0.4243 -0.8418  0.2160
  199MOL0     C26760  10.158   4.224   5.114  0.1180  0.0072  0.3973
  199MOL0     O26761  10.152   4.344   5.183 -0.1685  0.1257 -0.1226
  199MOL0     C26762  10.035   4.410   5.170  0.8263 -0.4555  0.2965
  199MOL0     C26763  10.029   4.513   5.075  0.0490  0.7318 -0.1794
  199MOL0     C26764   9.903   4.570   5.060  0.3851 -0.3807  0.3724
  199MOL0     C26765   9.792   4.545   5.152  0.0731 -0.8460  0.2394
  199MOL0     O26766   9.675   4.623   5.143  0.5843 -0.5386  0.5459
  199MOL0     C26767   9.581   4.621   5.255 -0.1847 -0.4845 -0.2057
  199MOL0     C26768   9.647   4.682   5.382  0.5422  0.1581  0.4657
  199MOL0     C26769   9.591   4.821   5.420 -0.3209  0.0850  0.0354
  199MOL0     C26770   9.638   4.923   5.318  0.2206  0.4131 -0.8028
  199MOL0     C26771   9.580   5.064   5.328  0.3843  0.5373 -0.5439
  199MOL0     C26772   9.432   5.066   5.304 -0.3059 -0.6757  0.3043
  199MOL0     C26773   9.379   5.208   5.281  0.1754 -0.7825  0.0394
  199MOL0     C26774   9.413   5.264   5.140 -0.4828 -0.2703 -0.0465
  199MOL0    Cl26775   9.426   5.446   5.138  0.2074  0.2337  0.0482
  199MOL0     C26776   9.797   4.436   5.229  1.3330  0.1889  0.0423
  199MOL0     C26777   9.919   4.379   5.254  0.3977  0.8683 -0.3860
  199MOL0     O26778  10.080   4.196   5.022  0.1245 -0.6179  0.8020
  199MOL0     C26779  10.390   4.199   5.170 -0.7483  0.3949  1.1269
  199MOL0     C26780  10.504   4.117   5.190  0.2268 -0.2310 -0.6545
  199MOL0     N26781  10.503   3.245   5.159  0.5856  0.5838 -0.0359
  199MOL0     N26782  10.482   3.119   5.153 -0.1923 -0.2354  0.4890
  199MOL0     C26783  10.188   2.405   6.153 -0.1913  0.6542 -0.4979
  199MOL0     C26784  10.129   2.424   6.276 -0.4845 -0.2527 -0.0468
  199MOL0     C26785  10.205   2.494   6.736 -0.7007 -0.1623  0.3752
  199MOL0     C26786  10.098   2.586   6.761 -0.6199 -0.4478 -0.2071
  199MOL0     C26787  10.077   2.634   6.892 -0.1967 -0.1363 -0.3904
  199MOL0     C26788  10.158   2.591   7.006 -0.5698  0.0445  0.9238
  199MOL0     O26789  10.153   2.635   7.134  0.1664 -0.5027 -0.2032
  199MOL0     C26790  10.039   2.689   7.183  0.4243  0.2284 -0.5421
  199MOL0     C26791  10.071   2.746   7.322  0.0766  0.1809  0.0567
  199MOL0     C26792   9.953   2.803   7.402  0.8728  0.4976  0.1018
  199MOL0     C26793   9.990   2.808   7.550 -0.3624 -0.9991 -0.7222
  199MOL0     C26794  10.069   2.929   7.584  0.1750 -0.9127  0.0520
  199MOL0     C26795  10.137   3.026   7.599 -0.1319 -0.9535  0.6320
  199MOL0     C26796  10.255   2.498   6.977 -0.6261 -0.1148 -0.7123
  199MOL0     C26797  10.274   2.447   6.843 -0.4687 -0.7455  0.8108
  199MOL0     H26798  10.359   2.642   6.404 -2.6907  1.4619  0.6363
  199MOL0     H26799  10.442   2.634   6.177 -0.5374  1.3832  1.0195
  199MOL0     H26800  10.400   2.673   5.984 -0.0106 -0.6021  1.3084
  199MOL0     H26801  10.538   2.571   5.937  0.6801  2.8081 -0.7048
  199MOL0     H26802  10.487   2.623   5.716 -2.1855 -1.3446 -3.9589
  199MOL0     H26803  10.373   2.496   5.740  0.8789 -0.3391 -0.0328
  199MOL0     H26804  10.191   2.612   5.751 -1.3098  2.6465  2.1134
  199MOL0     H26805  10.277   2.758   5.819  1.1279 -1.4199  2.0986
  199MOL0     H26806  10.371   2.832   5.617 -1.2312  0.6120  0.7865
  199MOL0     H26807  10.360   2.672   5.548 -0.2043 -0.8145 -0.1868
  199MOL0     H26808  10.107   2.700   5.555  0.4836  1.2809  3.8750
  199MOL0     H26809  10.116   2.874   5.566  0.7389  2.0513 -2.1236
  199MOL0     H26810  10.261   2.695   5.358  0.1198  0.3034  0.9797
  199MOL0     H26811  10.106   2.760   5.323  0.1564  1.0839 -1.6050
  199MOL0     H26812  10.212   2.921   5.231 -1.6451  0.1617  0.9216
  199MOL0     H26813  10.202   3.000   5.393  0.4113  2.0404 -1.3747
  199MOL0     H26814  10.461   2.874   5.267  1.3491 -1.3768  2.6895
  199MOL0     H26815  10.440   2.942   5.427 -1.3187  4.6726  1.4554
  199MOL0     H26816  10.314   3.191   5.416 -1.8000  0.4016 -2.2022
  199MOL0     H26817  10.332   3.474   5.312 -0.1060 -0.3513  0.9660
  199MOL0     H26818  10.478   3.460   5.410 -4.8946 -2.1811  1.8970
  199MOL0     H26819  10.424   3.580   5.131 -0.7137 -1.8237 -0.1243
  199MOL0     H26820  10.585   3.493   5.147  0.9281  0.6323  0.6262
  199MOL0     H26821  10.635   3.642   5.350 -1.9190  0.9533 -0.0509
  199MOL0     H26822  10.482   3.713   5.312 -0.8559 -2.0269  1.7308
  199MOL0     H26823  10.587   3.751   5.072  0.0956 -3.7109 -0.2866
  199MOL0     H26824  10.734   3.740   5.161 -0.0897  2.3219 -1.2915
  199MOL0     H26825  10.376   3.809   5.129  2.9375  0.6106 -1.0457
  199MOL0     H26826  10.087   3.930   5.009 -0.4565 -4.8675 -0.7880
  199MOL0     H26827  10.170   3.801   5.091  0.1815 -0.7507 -3.6453
  199MOL0     H26828  10.077   3.909   5.189  0.0748  1.0957 -0.0403
  199MOL0     H26829  10.110   4.542   5.009  0.5291  1.1507  0.5790
  199MOL0     H26830   9.894   4.649   4.985 -1.8106  1.0860  2.0666
  199MOL0     H26831   9.495   4.682   5.228  1.6614  1.6961 -1.5199
  199MOL0     H26832   9.539   4.522   5.276  1.8601 -1.4167 -0.2863
  199MOL0     H26833   9.608   4.615   5.458 -1.6809 -1.0946 -1.6211
  199MOL0     H26834   9.756   4.682   5.375  0.5689  1.4477  0.5495
  199MOL0     H26835   9.629   4.848   5.519  4.7621 -0.9880 -1.3594
  199MOL0     H26836   9.482   4.811   5.430 -0.2798 -0.3466  0.0426
  199MOL0     H26837   9.747   4.914   5.326  0.0793 -3.4248 -1.0249
  199MOL0     H26838   9.608   4.886   5.219  0.4950 -1.0652 -0.3654
  199MOL0     H26839   9.647   5.117   5.259  3.7916 -0.7332  1.5434
  199MOL0     H26840   9.609   5.109   5.423 -0.9410  2.3404 -0.9291
  199MOL0     H26841   9.418   5.003   5.216  0.0509 -1.3680  0.7337
  199MOL0     H26842   9.394   5.012   5.391  2.0799 -0.2598  1.6945
  199MOL0     H26843   9.410   5.269   5.367 -2.6281 -1.6918  1.8177
  199MOL0     H26844   9.270   5.211   5.277  0.1431 -2.6343 -2.3454
  199MOL0     H26845   9.339   5.238   5.064  0.7340 -2.0097 -0.6842
  199MOL0     H26846   9.512   5.235   5.105  0.7994  0.6781  2.4723
  199MOL0     H26847   9.710   4.392   5.277  1.3700  0.8652  0.7519
  199MOL0     H26848   9.927   4.298   5.326 -2.3411  1.0175  0.2191
  199MOL0     H26849  10.405   4.306   5.177 -1.3241  0.7572 -1.8730
  199MOL0     H26850  10.591   4.172   5.226  0.5308 -3.1427  3.7624
  199MOL0     H26851  10.153   2.334   6.079  0.5526  0.1393 -0.3667
  199MOL0     H26852  10.034   2.376   6.300  0.0530 -3.0421 -2.8132
  199MOL0     H26853  10.040   2.638   6.686  0.3088  0.8771 -0.0399
  199MOL0     H26854   9.999   2.708   6.904  0.8209  0.8900  0.1254
  199MOL0     H26855   9.989   2.768   7.125  0.9524  1.6797  0.8938
  199MOL0     H26856   9.960   2.613   7.185  0.0914  0.5795  0.3304
  199MOL0     H26857  10.149   2.822   7.333 -2.8627  3.2813  1.6373
  199MOL0     H26858  10.112   2.666   7.383  0.6879  1.4810  1.4081
  199MOL0     H26859   9.870   2.738   7.375  0.4796  0.1842  1.9497
  199MOL0     H26860   9.929   2.907   7.381  0.7647  0.4825  0.1528
  199MOL0     H26861  10.044   2.717   7.580  1.1252 -0.5598 -1.9300
  199MOL0     H26862   9.896   2.814   7.606 -0.7305 -1.2343 -1.3105
  199MOL0     H26863  10.204   3.110   7.603 -1.6888  0.4648 -1.3186
  199MOL0     H26864  10.323   2.472   7.058  0.5222  2.7750 -0.6026
  199MOL0     H26865  10.363   2.387   6.828  0.8494  0.5059  3.0574
  200MOL0     O26866   3.535   6.233   8.904  0.1405  0.1961  0.5511
  200MOL0     C26867   3.522   6.110   8.901  0.7213 -0.0676  0.4370
  200MOL0     O26868   3.615   6.011   8.904 -0.4055 -0.4171  0.1108
  200MOL0     C26869   3.746   6.037   8.903  0.3432  0.8269 -0.7127
  200MOL0     C26870   3.821   6.151   8.940  0.6151  0.1199 -0.4132
  200MOL0     C26871   3.960   6.141   8.925  0.8769 -0.5204 -0.2531
  200MOL0     C26872   4.027   6.027   8.881  0.2901 -0.5473  0.5173
  200MOL0     O26873   4.162   6.034   8.873 -0.0842  0.1353  0.8670
  200MOL0     C26874   4.245   5.973   8.766 -0.0493  0.1354 -0.2147
  200MOL0     C26875   4.233   6.039   8.626  0.6009  0.5465  0.1320
  200MOL0     C26876   4.113   5.979   8.551  0.3609 -1.0913 -0.2524
  200MOL0     C26877   3.998   6.076   8.541 -0.2150  0.7479 -0.3538
  200MOL0     C26878   3.900   6.011   8.447  0.1522  1.2101 -0.3509
  200MOL0     C26879   3.779   6.106   8.439  0.3310  0.0203 -0.1042
  200MOL0     C26880   3.641   6.045   8.386 -0.0977  0.1281  0.3675
  200MOL0     C26881   3.577   5.968   8.498  0.0246 -0.6343 -0.1220
  200MOL0     N26882   3.444   5.942   8.447 -0.3488 -1.4138 -0.3198
  200MOL0     C26883   3.329   5.964   8.516 -0.2458  0.2972 -0.4003
  200MOL0     C26884   3.226   5.939   8.436 -0.2286  0.5286  0.4691
  200MOL0     C26885   3.087   5.949   8.481  0.3618  0.1338 -0.4099
  200MOL0     C26886   3.048   6.096   8.515 -0.0613 -0.3649  0.0151
  200MOL0     C26887   2.905   6.119   8.539 -0.2886  0.1167  0.3268
  200MOL0     C26888   2.876   6.209   8.662 -0.3130  0.2114  0.9218
  200MOL0     O26889   2.743   6.264   8.641  0.0431  0.2760  1.1273
  200MOL0     C26890   2.731   6.387   8.583  0.1970  0.6965  0.1090
  200MOL0     C26891   2.824   6.449   8.498  0.2327  0.2981 -0.3870
  200MOL0     C26892   2.799   6.576   8.435 -0.0307  0.4015  0.2817
  200MOL0     C26893   2.903   6.620   8.349  0.0046 -0.0614 -0.7452
  200MOL0     C26894   2.670   6.633   8.455 -0.1385 -0.0715  0.1535
  200MOL0     C26895   2.618   6.765   8.393 -0.4159  0.4012  0.6328
  200MOL0     O26896   2.552   6.849   8.475  0.0408 -1.2315 -0.9480
  200MOL0     C26897   2.517   6.963   8.428  0.1703 -0.3231 -0.5329
  200MOL0     C26898   2.608   7.074   8.398 -0.0867  0.7797 -0.8691
  200MOL0     C26899   2.560   7.190   8.340 -0.2168 -1.5711  0.2839
  200MOL0     C26900   2.437   7.196   8.288  0.3185 -0.0163  0.3353
  200MOL0     O26901   2.389   7.296   8.212  0.2048 -0.0829  0.6179
  200MOL0     C26902   2.481   7.335   8.111 -0.0442  0.0491  0.7150
  200MOL0     C26903   2.396   7.410   8.003  0.7817 -0.5355  0.1778
  200MOL0     C26904   2.491   7.458   7.899 -0.5757 -0.3794  0.4217
  200MOL0     C26905   2.400   7.517   7.787 -1.1835 -0.9476 -0.2620
  200MOL0     C26906   2.484   7.587   7.678 -0.0188 -0.3829 -0.0887
  200MOL0     C26907   2.395   7.655   7.573  0.5576  0.1433  0.6859
  200MOL0     C26908   2.472   7.750   7.467  0.7882 -0.8769  0.0080
  200MOL0     C26909   2.397   7.746   7.340  0.5063 -0.1350 -0.0090
  200MOL0    Cl26910   2.213   7.763   7.352 -0.0088  0.2926  0.2921
  200MOL0     C26911   2.355   7.090   8.303  0.2284 -0.5942 -0.0272
  200MOL0     C26912   2.388   6.979   8.384  0.1181 -0.6107 -0.0456
  200MOL0     O26913   2.628   6.769   8.268  0.2241  0.3685 -0.0816
  200MOL0     C26914   2.580   6.576   8.544 -0.1399  0.0402  0.3466
  200MOL0     C26915   2.611   6.452   8.609 -0.3342  1.7914 -0.1291
  200MOL0     N26916   3.267   5.869   8.329  0.3464  0.0934 -0.1175
  200MOL0     N26917   3.398   5.880   8.332 -0.3173 -0.4756 -0.2570
  200MOL0     C26918   3.958   5.915   8.854 -0.9916  0.1086  0.3499
  200MOL0     C26919   3.821   5.921   8.868 -0.1844 -0.0036 -0.3309
  200MOL0     C26920   3.382   6.056   8.901 -0.3863 -0.0416  0.2771
  200MOL0     C26921   3.346   5.924   8.880  0.6977 -0.7639  0.6237
  200MOL0     C26922   3.210   5.878   8.874  0.4718 -0.4322 -0.7017
  200MOL0     C26923   3.100   5.974   8.891  0.0879  0.1520  0.1945
  200MOL0     O26924   2.969   5.947   8.883  0.3026  1.3089 -0.1459
  200MOL0     C26925   2.929   5.817   8.839 -0.2229  0.3439 -0.2683
  200MOL0     C26926   2.792   5.821   8.786  0.7967  0.0491 -0.3495
  200MOL0     C26927   2.737   5.694   8.720 -0.8895 -0.4697  0.1322
  200MOL0     C26928   2.714   5.581   8.816  0.2748 -0.1126  0.3465
  200MOL0     C26929   2.638   5.615   8.934  0.2002 -0.1155 -0.0549
  200MOL0     C26930   2.581   5.628   9.043 -0.3723 -0.0486 -0.3623
  200MOL0     C26931   3.144   6.106   8.924 -0.6313  0.6122 -0.5106
  200MOL0     C26932   3.280   6.141   8.932  0.8142  0.0210  0.3833
  200MOL0     H26933   3.776   6.236   8.991 -1.0741 -0.5694 -0.6969
  200MOL0     H26934   4.025   6.220   8.959  1.1229 -0.7221 -0.2533
  200MOL0     H26935   4.343   6.003   8.804 -0.7311  1.8003  0.3426
  200MOL0     H26936   4.232   5.866   8.749  1.1718  0.2769 -2.3000
  200MOL0     H26937   4.226   6.148   8.640  1.0170  0.3189  2.5860
  200MOL0     H26938   4.326   6.027   8.570 -0.3173  1.1638 -1.6285
  200MOL0     H26939   4.137   5.938   8.453 -0.0397 -2.2383  0.1103
  200MOL0     H26940   4.078   5.892   8.609  0.5867  0.0878  1.7311
  200MOL0     H26941   3.953   6.086   8.640  1.4590 -2.3527  0.8824
  200MOL0     H26942   4.016   6.176   8.502 -0.8090  0.7618 -0.5907
  200MOL0     H26943   3.930   5.981   8.346  0.7162  0.7579 -0.0548
  200MOL0     H26944   3.874   5.916   8.495  0.9434  0.7235 -0.8589
  200MOL0     H26945   3.761   6.146   8.539  4.2207 -1.0043  1.2052
  200MOL0     H26946   3.801   6.193   8.378  0.0581 -0.4696 -0.9187
  200MOL0     H26947   3.568   6.119   8.352  0.4943  0.3910 -0.3584
  200MOL0     H26948   3.654   5.984   8.296 -6.1677  0.0913 -0.9467
  200MOL0     H26949   3.573   6.031   8.587 -1.3192 -1.1765  0.2224
  200MOL0     H26950   3.632   5.876   8.522 -1.0858 -0.9838  1.1934
  200MOL0     H26951   3.328   6.002   8.617 -0.7119 -1.1258  0.1639
  200MOL0     H26952   3.015   5.912   8.408 -0.5471  0.9674  0.0283
  200MOL0     H26953   3.070   5.882   8.566  1.7123 -1.7999 -1.6161
  200MOL0     H26954   3.080   6.155   8.429  1.0944 -0.4178  0.3930
  200MOL0     H26955   3.096   6.118   8.611 -2.9520  2.0739  1.0687
  200MOL0     H26956   2.869   6.017   8.557  1.4930 -0.8262 -1.1105
  200MOL0     H26957   2.848   6.147   8.450 -0.0782 -2.9042 -0.8753
  200MOL0     H26958   2.951   6.288   8.672 -0.7946  1.0356 -1.2804
  200MOL0     H26959   2.879   6.141   8.747  0.7409 -3.9384 -2.0719
  200MOL0     H26960   2.916   6.395   8.478 -1.4411 -3.4807  1.1976
  200MOL0     H26961   2.866   6.615   8.246  0.5477  2.8192 -1.1669
  200MOL0     H26962   2.923   6.727   8.362 -1.1022  0.1333 -0.5741
  200MOL0     H26963   2.991   6.556   8.362  1.6456  2.1132 -0.5213
  200MOL0     H26964   2.708   7.064   8.439  0.3067  7.0350  0.6635
  200MOL0     H26965   2.623   7.278   8.351  1.3472 -2.6549  0.4471
  200MOL0     H26966   2.557   7.406   8.146 -0.4797  0.8891 -0.0134
  200MOL0     H26967   2.519   7.239   8.075  0.3042  0.8618 -1.1945
  200MOL0     H26968   2.328   7.334   7.963 -1.9379 -0.3303  3.8928
  200MOL0     H26969   2.349   7.494   8.054  1.2994 -0.8155  1.1268
  200MOL0     H26970   2.546   7.379   7.848 -4.6591 -1.1151 -3.5102
  200MOL0     H26971   2.551   7.541   7.937  0.2540 -1.1057  0.7258
  200MOL0     H26972   2.333   7.440   7.748 -3.0437 -0.4245  1.7105
  200MOL0     H26973   2.346   7.594   7.842  1.1780 -0.0119  0.8825
  200MOL0     H26974   2.559   7.515   7.644 -0.1587 -0.6214  0.1100
  200MOL0     H26975   2.543   7.668   7.723  2.3573 -2.7927  1.4061
  200MOL0     H26976   2.347   7.576   7.515  5.4442 -0.9065 -2.6039
  200MOL0     H26977   2.315   7.702   7.631 -0.3682 -2.4210  1.6327
  200MOL0     H26978   2.576   7.716   7.459  0.9782 -0.6242  1.2466
  200MOL0     H26979   2.477   7.849   7.513  0.2821 -1.9195  2.4486
  200MOL0     H26980   2.412   7.642   7.309  0.5707 -0.1255 -0.0093
  200MOL0     H26981   2.438   7.807   7.259  0.1161 -0.4152 -0.4234
  200MOL0     H26982   2.258   7.088   8.254  0.5052  0.1179 -0.6132
  200MOL0     H26983   2.316   6.900   8.403  1.0038 -1.0361  1.7631
  200MOL0     H26984   2.481   6.619   8.555  0.2639  1.2052 -0.3992
  200MOL0     H26985   2.531   6.404   8.665  0.1793  0.5836 -0.3900
  200MOL0     H26986   4.009   5.822   8.833 -2.0240 -0.7002  1.3014
  200MOL0     H26987   3.773   5.826   8.848  3.1174 -1.7915 -0.5417
  200MOL0     H26988   3.424   5.851   8.863 -2.5424 -4.1555 -1.0201
  200MOL0     H26989   3.184   5.777   8.845  1.5445 -0.6243 -1.0618
  200MOL0     H26990   2.997   5.806   8.753  1.1861 -1.4873  0.9838
  200MOL0     H26991   2.947   5.734   8.909 -1.7406  1.2869  1.2932
  200MOL0     H26992   2.789   5.905   8.716 -0.3121  0.7496  0.5130
  200MOL0     H26993   2.727   5.844   8.870 -3.1293 -0.1827 -3.0544
  200MOL0     H26994   2.814   5.672   8.646 -1.3582 -2.3544  0.1357
  200MOL0     H26995   2.645   5.701   8.662 -1.0054 -4.0739 -0.3867
  200MOL0     H26996   2.811   5.543   8.849  0.4128 -0.7275 -0.6930
  200MOL0     H26997   2.663   5.504   8.758 -0.5899  1.1346 -0.5932
  200MOL0     H26998   2.536   5.625   9.140  2.3434 -2.7394  0.9597
  200MOL0     H26999   3.078   6.190   8.942  0.0935  1.0220  0.2844
  200MOL0     H27000   3.298   6.247   8.947  0.0312  0.1811  0.2121
  201MOL0     O27001   4.773  11.274   2.275  0.1957  0.4410 -0.1154
  201MOL0     C27002   4.759  11.390   2.331 -0.9302  1.2864 -0.2175
  201MOL0     O27003   4.636  11.444   2.356 -0.0704 -0.2705 -0.7212
  201MOL0     C27004   4.517  11.385   2.322 -0.3687  0.0764 -0.2707
  201MOL0     C27005   4.481  11.244   2.327  0.8132 -0.3487 -0.0207
  201MOL0     C27006   4.345  11.212   2.309  0.2110 -0.6236  0.4548
  201MOL0     C27007   4.246  11.308   2.265  0.0571 -0.0668  0.3385
  201MOL0     O27008   4.120  11.260   2.244 -0.2728  0.1880  0.2878
  201MOL0     C27009   4.025  11.302   2.349 -0.3460 -0.3171  1.2691
  201MOL0     C27010   3.885  11.309   2.288  0.2230 -0.1919  0.9124
  201MOL0     C27011   3.845  11.191   2.196  0.2530  0.0671 -0.7307
  201MOL0     C27012   3.704  11.205   2.134  0.2370 -0.1121  0.1252
  201MOL0     C27013   3.661  11.081   2.047  0.7121 -0.6758 -0.4332
  201MOL0     C27014   3.740  11.059   1.912 -0.7637  0.3805 -0.0388
  201MOL0     C27015   3.671  10.954   1.823  0.4786 -1.2210  0.3526
  201MOL0     C27016   3.535  11.021   1.768 -0.4144 -0.1070 -0.4435
  201MOL0     N27017   3.502  10.976   1.630  0.0291  0.5072  0.4189
  201MOL0     C27018   3.413  10.873   1.604  0.9801 -0.1373  0.8699
  201MOL0     C27019   3.397  10.876   1.468 -0.4977  0.7529 -0.0071
  201MOL0     C27020   3.315  10.775   1.399 -0.0398  0.3661 -0.2280
  201MOL0     C27021   3.377  10.644   1.360 -0.6121  0.8737  0.2354
  201MOL0     C27022   3.487  10.657   1.255 -0.3652  0.3153 -0.2363
  201MOL0     C27023   3.576  10.531   1.255 -0.0963 -0.0907 -0.9079
  201MOL0     O27024   3.675  10.553   1.156  0.0010 -0.5589  0.2099
  201MOL0     C27025   3.639  10.566   1.021  1.1110  0.2500 -0.1404
  201MOL0     C27026   3.518  10.530   0.952  0.2646  0.1558  0.0137
  201MOL0     C27027   3.499  10.543   0.810 -0.0175 -0.2070 -0.2202
  201MOL0     C27028   3.364  10.520   0.748  0.4785 -0.4713 -0.4342
  201MOL0     C27029   3.611  10.594   0.736 -0.5773 -0.1341  0.3805
  201MOL0     C27030   3.614  10.611   0.589 -0.9709  0.1571  0.4543
  201MOL0     O27031   3.567  10.721   0.544 -0.4131 -1.0320 -0.1548
  201MOL0     C27032   3.589  10.753   0.410  0.2340 -0.5757 -0.9099
  201MOL0     C27033   3.717  10.745   0.353 -0.1368  0.5373  0.2951
  201MOL0     C27034   3.744  10.803   0.238  0.6953  0.3167  0.1970
  201MOL0     C27035   3.659  10.883   0.168 -0.0970  0.4091  0.1778
  201MOL0     O27036   3.713  10.941   0.050  0.3478  0.2870 -0.4833
  201MOL0     C27037   3.645  11.047  -0.013  0.1796  0.3360  0.0909
  201MOL0     C27038   3.654  11.016  -0.169 -1.0292  0.3260  0.9199
  201MOL0     C27039   3.790  11.017  -0.236  0.2639 -0.6431  0.5925
  201MOL0     C27040   3.770  10.992  -0.388 -0.2697  0.4639 -0.4526
  201MOL0     C27041   3.900  10.936  -0.448 -0.2684 -0.3030  0.0957
  201MOL0     C27042   3.878  10.895  -0.596  0.8248 -0.9217  0.2780
  201MOL0     C27043   3.809  10.759  -0.603  0.6714 -0.1302 -0.2699
  201MOL0     C27044   3.909  10.648  -0.576 -0.1551  0.1919  1.0833
  201MOL0    Cl27045   3.823  10.494  -0.580  0.5310 -0.1437 -0.0748
  201MOL0     C27046   3.526  10.899   0.217 -0.1972 -0.2165 -0.1681
  201MOL0     C27047   3.497  10.825   0.337 -0.2953 -0.8642 -0.4568
  201MOL0     O27048   3.660  10.521   0.523 -0.6287  0.8413  0.0931
  201MOL0     C27049   3.728  10.632   0.801 -0.2919  0.3181 -0.1270
  201MOL0     C27050   3.737  10.618   0.942  1.0838 -0.1874 -1.5227
  201MOL0     N27051   3.474  10.965   1.413 -0.3647 -0.2973  1.1031
  201MOL0     N27052   3.548  11.020   1.512 -0.7672  0.4174  0.3494
  201MOL0     C27053   4.280  11.445   2.277  0.3525 -0.2576  0.4231
  201MOL0     C27054   4.412  11.483   2.300  0.0953 -0.2907 -0.1572
  201MOL0     C27055   4.880  11.463   2.355 -0.5832 -0.2568  0.1357
  201MOL0     C27056   5.011  11.411   2.334 -0.5602 -0.0491  1.0757
  201MOL0     C27057   5.126  11.479   2.395 -0.4257 -0.4881  0.4304
  201MOL0     C27058   5.109  11.596   2.468 -0.3885 -0.1885 -0.1829
  201MOL0     O27059   5.219  11.643   2.529 -0.3226 -0.2014  0.3246
  201MOL0     C27060   5.234  11.748   2.627  0.9155  0.1367  0.1668
  201MOL0     C27061   5.243  11.878   2.558 -0.0337 -0.4206 -0.6868
  201MOL0     C27062   5.375  11.911   2.490 -0.1888 -0.1590 -0.3078
  201MOL0     C27063   5.368  12.058   2.446 -0.3329  0.3419 -0.3592
  201MOL0     C27064   5.431  12.150   2.540 -0.0455 -0.1705 -0.2143
  201MOL0     C27065   5.461  12.235   2.622  0.2283  0.5347  0.2008
  201MOL0     C27066   4.980  11.647   2.488  0.1232  0.0350 -0.0948
  201MOL0     C27067   4.872  11.581   2.432  0.5928 -0.0595  0.1161
  201MOL0     H27068   4.557  11.169   2.348  2.0338  0.0552 -2.5159
  201MOL0     H27069   4.319  11.111   2.339  0.4552 -0.8884 -0.2045
  201MOL0     H27070   4.010  11.223   2.423 -1.9390 -1.2059  0.0819
  201MOL0     H27071   4.063  11.389   2.403  0.4730  2.3005 -3.0293
  201MOL0     H27072   3.831  11.305   2.383  1.4005  0.0464  1.6252
  201MOL0     H27073   3.870  11.405   2.238 -1.4537  0.0333  1.7766
  201MOL0     H27074   3.921  11.181   2.118  1.3612  2.0638  0.0151
  201MOL0     H27075   3.860  11.105   2.262  1.9154  0.1631 -0.9494
  201MOL0     H27076   3.638  11.219   2.220  1.9795  0.6559  1.4128
  201MOL0     H27077   3.687  11.298   2.079 -0.9261 -0.0164  0.6156
  201MOL0     H27078   3.676  10.988   2.101  1.0799 -0.7098 -0.5927
  201MOL0     H27079   3.556  11.088   2.015  1.1103  0.0038 -1.6666
  201MOL0     H27080   3.760  11.154   1.862  0.2106  0.0066 -0.3875
  201MOL0     H27081   3.842  11.034   1.944 -0.2293  1.9104 -0.4517
  201MOL0     H27082   3.725  10.913   1.737 -0.3823 -1.6261 -0.0127
  201MOL0     H27083   3.635  10.873   1.886  1.5989  0.8749  3.9381
  201MOL0     H27084   3.552  11.128   1.755  2.6145 -0.3377  0.7881
  201MOL0     H27085   3.458  11.003   1.844  1.1725  1.1382  1.5777
  201MOL0     H27086   3.357  10.806   1.668 -0.5665  1.3517  1.1510
  201MOL0     H27087   3.222  10.758   1.455  1.9342  1.2455  3.6662
  201MOL0     H27088   3.300  10.831   1.306  2.0802  1.8962  0.2822
  201MOL0     H27089   3.292  10.584   1.325 -0.6204  1.1368 -0.2121
  201MOL0     H27090   3.404  10.581   1.445 -2.2313 -0.4508 -0.1593
  201MOL0     H27091   3.555  10.733   1.293  1.3550 -1.7343  1.0227
  201MOL0     H27092   3.443  10.690   1.160  1.4030  1.4470 -0.6945
  201MOL0     H27093   3.515  10.441   1.246 -0.4978  0.2186 -1.3219
  201MOL0     H27094   3.617  10.527   1.356  0.7694 -0.5734 -1.2604
  201MOL0     H27095   3.435  10.493   1.012 -1.1865  3.1866  0.0392
  201MOL0     H27096   3.319  10.617   0.723 -0.9779 -1.0026  0.0584
  201MOL0     H27097   3.364  10.458   0.658 -2.1156  0.5232 -1.2009
  201MOL0     H27098   3.306  10.467   0.823 -0.0712 -0.0903 -0.5808
  201MOL0     H27099   3.795  10.694   0.408  0.5239  3.7144  2.5336
  201MOL0     H27100   3.844  10.792   0.197 -0.5391  1.4256 -3.5824
  201MOL0     H27101   3.538  11.062   0.004 -0.4810 -1.1349 -2.2833
  201MOL0     H27102   3.693  11.143   0.011 -3.9194  2.5742  0.4028
  201MOL0     H27103   3.608  10.918  -0.183  1.2717 -0.3816 -3.1163
  201MOL0     H27104   3.604  11.094  -0.227 -0.0662  0.7620  0.6592
  201MOL0     H27105   3.854  10.941  -0.192 -0.2240 -3.0968 -2.5464
  201MOL0     H27106   3.839  11.114  -0.224  2.5528 -1.3227 -2.1057
  201MOL0     H27107   3.692  10.915  -0.397 -1.7327  1.4760  2.2910
  201MOL0     H27108   3.737  11.079  -0.444  0.1696  2.3122  2.0151
  201MOL0     H27109   3.933  10.847  -0.393  0.1932 -0.4679 -0.4383
  201MOL0     H27110   3.986  11.004  -0.444 -0.8984  0.5575 -0.6484
  201MOL0     H27111   3.812  10.968  -0.643 -0.8954 -2.4861  0.1509
  201MOL0     H27112   3.971  10.905  -0.653  0.5387  1.5687  0.1455
  201MOL0     H27113   3.774  10.754  -0.707 -3.0088 -1.4042  0.8606
  201MOL0     H27114   3.718  10.754  -0.542  0.7284  2.5615  0.1325
  201MOL0     H27115   3.964  10.670  -0.484  0.6275  4.2704 -0.1646
  201MOL0     H27116   3.982  10.636  -0.656  1.0691  2.4557  1.7762
  201MOL0     H27117   3.448  10.955   0.166 -1.0035 -1.1247  0.0334
  201MOL0     H27118   3.397  10.854   0.365  0.3580  2.3602 -1.0781
  201MOL0     H27119   3.804  10.672   0.735 -1.8232  0.0280 -2.1950
  201MOL0     H27120   3.827  10.644   0.998  0.7283  2.6840 -2.1037
  201MOL0     H27121   4.205  11.521   2.256 -1.8789 -3.0421 -2.7339
  201MOL0     H27122   4.455  11.583   2.310 -0.1989 -0.2101  0.3192
  201MOL0     H27123   5.020  11.322   2.273 -2.0926  1.9543 -2.4387
  201MOL0     H27124   5.228  11.441   2.393 -0.8269 -1.5507 -1.0745
  201MOL0     H27125   5.159  11.736   2.706  0.5027 -2.0808 -0.5037
  201MOL0     H27126   5.323  11.735   2.688  0.1174 -1.5052  1.0404
  201MOL0     H27127   5.225  11.947   2.641  0.2442  1.1644 -1.9018
  201MOL0     H27128   5.162  11.889   2.486 -0.9171  0.7824  0.4450
  201MOL0     H27129   5.392  11.845   2.404  1.9652 -1.6260  1.1341
  201MOL0     H27130   5.465  11.895   2.550  0.2945  0.7202 -0.7844
  201MOL0     H27131   5.266  12.090   2.421 -1.2956  0.9598  3.6961
  201MOL0     H27132   5.424  12.068   2.352 -0.8044 -5.0020 -1.4893
  201MOL0     H27133   5.493  12.294   2.704 -3.3543  0.7144  1.6689
  201MOL0     H27134   4.964  11.734   2.551 -0.8797  1.1430 -1.8001
  201MOL0     H27135   4.773  11.614   2.463  0.2342 -1.6554  0.7160
  202MOL0     O27136   1.756   5.114   7.400  0.8209 -0.5346 -0.5295
  202MOL0     C27137   1.843   5.100   7.481  0.0894 -0.5810  0.4271
  202MOL0     O27138   1.972   5.082   7.454  0.0997 -0.1511  0.6189
  202MOL0     C27139   2.011   5.079   7.319 -0.5248 -1.3794 -0.3950
  202MOL0     C27140   1.972   5.160   7.218 -0.0200 -0.1223 -0.1774
  202MOL0     C27141   2.027   5.153   7.085 -0.0487 -0.6007  0.0595
  202MOL0     C27142   2.117   5.042   7.049  0.0391  0.2626 -0.7678
  202MOL0     O27143   2.181   5.017   6.932  0.4451  0.5321  0.3770
  202MOL0     C27144   2.225   5.132   6.853  0.0687 -0.9932 -0.6412
  202MOL0     C27145   2.127   5.142   6.735 -0.1674 -0.4915 -0.2517
  202MOL0     C27146   2.175   5.060   6.619  0.0238  0.0391  0.1739
  202MOL0     C27147   2.089   5.090   6.498 -0.2329 -0.0901 -0.3255
  202MOL0     C27148   2.113   4.982   6.399 -0.3484  0.1542 -0.1665
  202MOL0     C27149   2.041   4.988   6.266  0.3134  0.9007  0.0172
  202MOL0     C27150   2.074   4.852   6.187  1.0998 -0.5808 -0.2550
  202MOL0     C27151   2.011   4.863   6.049  0.4880 -0.2927  0.3104
  202MOL0     N27152   2.065   4.976   5.979  0.2309 -0.2556  0.0286
  202MOL0     C27153   2.001   5.097   5.946  0.0196  0.6269  0.1573
  202MOL0     C27154   2.103   5.173   5.890 -0.4750 -0.1043 -0.1745
  202MOL0     C27155   2.109   5.319   5.857  0.4523 -0.4343 -0.1608
  202MOL0     C27156   1.971   5.386   5.886  0.4673 -0.5291 -0.2345
  202MOL0     C27157   1.962   5.531   5.835  0.3288 -0.5884  0.2329
  202MOL0     C27158   2.070   5.636   5.878  1.4526  1.0597 -0.5271
  202MOL0     O27159   2.073   5.628   6.025  0.2059 -0.0663 -0.2904
  202MOL0     C27160   2.152   5.725   6.067 -0.3981 -0.1388  0.0859
  202MOL0     C27161   2.287   5.714   6.097  0.4552 -0.2020 -0.3150
  202MOL0     C27162   2.361   5.809   6.162  0.4035 -0.5647 -0.0615
  202MOL0     C27163   2.516   5.798   6.166 -0.0435  0.1989 -0.1946
  202MOL0     C27164   2.290   5.926   6.208  0.8953  0.4991  0.2655
  202MOL0     C27165   2.359   6.045   6.287 -0.0221  0.7569 -0.1434
  202MOL0     O27166   2.275   6.155   6.314 -1.0230  0.2288 -0.1716
  202MOL0     C27167   2.330   6.264   6.375 -0.0968 -0.2376 -0.0941
  202MOL0     C27168   2.271   6.331   6.484 -0.1922  0.5535 -0.2148
  202MOL0     C27169   2.338   6.445   6.539  0.3078 -0.8271 -0.3434
  202MOL0     C27170   2.467   6.483   6.496  0.2150  0.1222 -0.2341
  202MOL0     O27171   2.525   6.574   6.579  0.4453  0.3604  0.2793
  202MOL0     C27172   2.659   6.612   6.544 -0.8204  0.0202  0.0721
  202MOL0     C27173   2.725   6.692   6.668 -0.1912  0.0727  0.7610
  202MOL0     C27174   2.879   6.708   6.638 -0.3628 -0.7544 -0.7126
  202MOL0     C27175   2.941   6.772   6.770 -0.1539  0.9278 -0.3584
  202MOL0     C27176   2.961   6.915   6.764 -0.9272  1.1211  0.3768
  202MOL0     C27177   3.055   6.983   6.868  0.8176 -0.1906 -0.3301
  202MOL0     C27178   2.990   6.960   7.006 -0.3003 -0.4126  0.4396
  202MOL0     C27179   3.086   6.903   7.104 -0.3909  0.2542  0.1165
  202MOL0    Cl27180   3.180   6.760   7.057 -0.1337  0.3408  0.1647
  202MOL0     C27181   2.515   6.419   6.381 -0.7553  0.2640 -0.4407
  202MOL0     C27182   2.447   6.311   6.329 -1.1756 -0.4521 -0.4656
  202MOL0     O27183   2.477   6.030   6.319 -0.2386  0.7298 -0.1335
  202MOL0     C27184   2.151   5.938   6.184  0.5114 -0.7291  0.2777
  202MOL0     C27185   2.089   5.841   6.107 -0.1673 -0.9181  0.8391
  202MOL0     N27186   2.226   5.109   5.895 -0.2796  0.2265 -0.2131
  202MOL0     N27187   2.195   4.989   5.940  0.4520 -0.1309  0.7640
  202MOL0     C27188   2.140   4.951   7.154  0.5165 -0.3077 -0.1516
  202MOL0     C27189   2.098   4.976   7.284  0.8327  0.4781  0.8397
  202MOL0     C27190   1.803   5.104   7.627  0.1207 -1.2341  0.3085
  202MOL0     C27191   1.901   5.072   7.720  0.4578  0.0065 -0.0446
  202MOL0     C27192   1.876   5.066   7.855  0.2502 -0.4101 -0.3570
  202MOL0     C27193   1.743   5.085   7.899 -0.9675  0.9440 -0.8109
  202MOL0     O27194   1.714   5.062   8.036  0.1628  0.0064  0.3045
  202MOL0     C27195   1.577   5.057   8.080 -0.4232 -0.8736  0.5824
  202MOL0     C27196   1.551   5.050   8.233 -0.0048 -0.1092  0.5854
  202MOL0     C27197   1.411   5.064   8.284 -0.8163  0.1562 -0.3421
  202MOL0     C27198   1.404   5.035   8.432 -0.2482 -0.2876 -0.0094
  202MOL0     C27199   1.418   4.892   8.466  0.5409  0.2059  0.3639
  202MOL0     C27200   1.432   4.772   8.478 -0.4508  0.0025 -0.1659
  202MOL0     C27201   1.647   5.120   7.805 -0.5687 -0.0262 -0.5502
  202MOL0     C27202   1.673   5.124   7.671 -0.1813  0.1038  0.2719
  202MOL0     H27203   1.903   5.237   7.250  0.1364 -0.6103  1.4240
  202MOL0     H27204   1.991   5.221   7.009 -0.6532 -2.2532 -1.2056
  202MOL0     H27205   2.227   5.224   6.913 -1.4124 -2.4481  1.8064
  202MOL0     H27206   2.327   5.111   6.820  0.4950 -2.1896  1.2644
  202MOL0     H27207   2.024   5.117   6.762 -0.2853  1.1300  0.9057
  202MOL0     H27208   2.116   5.246   6.702 -2.1794 -0.2785  0.8945
  202MOL0     H27209   2.282   5.067   6.598 -0.1589 -1.8094 -1.7541
  202MOL0     H27210   2.159   4.955   6.645 -0.6920  0.6618  2.4554
  202MOL0     H27211   1.983   5.078   6.521 -0.6733  1.9520 -1.1015
  202MOL0     H27212   2.099   5.190   6.454 -0.0756 -0.0042 -0.1000
  202MOL0     H27213   2.221   4.979   6.381 -0.6208 -2.8197 -2.0920
  202MOL0     H27214   2.092   4.885   6.444  2.4990 -0.5495 -0.1982
  202MOL0     H27215   1.935   5.008   6.284 -0.5765 -0.7348 -2.7965
  202MOL0     H27216   2.096   5.065   6.211  4.4910 -0.9917  1.1101
  202MOL0     H27217   2.183   4.863   6.182  1.0815 -0.8384 -1.5571
  202MOL0     H27218   2.047   4.761   6.242  0.1091  1.3771  2.7594
  202MOL0     H27219   1.903   4.880   6.043  0.8355  1.8237 -1.0240
  202MOL0     H27220   2.038   4.774   5.990  2.4578 -1.1829  2.4026
  202MOL0     H27221   1.897   5.116   5.973 -0.0026 -2.5831  3.0626
  202MOL0     H27222   2.181   5.376   5.917  0.6459  0.4677 -1.2212
  202MOL0     H27223   2.140   5.323   5.752 -0.9318  1.6703 -0.5528
  202MOL0     H27224   1.948   5.383   5.993 -0.8881 -1.8812 -0.5317
  202MOL0     H27225   1.891   5.332   5.834 -3.7439  2.6737  2.2025
  202MOL0     H27226   1.870   5.587   5.854  0.8896  1.3195 -2.2004
  202MOL0     H27227   1.966   5.519   5.726  0.7748 -0.8442  0.2733
  202MOL0     H27228   2.043   5.737   5.846 -1.5392  0.3816 -0.4186
  202MOL0     H27229   2.164   5.596   5.839  1.0333  2.1733 -2.8492
  202MOL0     H27230   2.320   5.619   6.057 -1.5491 -0.1972 -2.1604
  202MOL0     H27231   2.541   5.699   6.127 -1.2648 -0.5987  0.9694
  202MOL0     H27232   2.565   5.864   6.093  2.0149 -1.9564 -0.8887
  202MOL0     H27233   2.572   5.810   6.259  2.1154 -0.5026 -1.3301
  202MOL0     H27234   2.174   6.293   6.514  0.5549 -1.3771 -0.1309
  202MOL0     H27235   2.294   6.505   6.619  0.8498 -0.8480 -0.0233
  202MOL0     H27236   2.722   6.523   6.543 -0.9373 -0.0565 -0.5490
  202MOL0     H27237   2.668   6.666   6.449 -0.9637  2.9875  1.6333
  202MOL0     H27238   2.685   6.794   6.668  0.1670  0.3146 -2.7266
  202MOL0     H27239   2.693   6.640   6.759 -0.6973 -2.5268 -0.7892
  202MOL0     H27240   2.897   6.776   6.554 -0.6689 -0.9327 -0.9252
  202MOL0     H27241   2.930   6.613   6.621  0.6020 -0.1778 -1.1285
  202MOL0     H27242   2.874   6.761   6.856  0.8386 -1.0766  0.2245
  202MOL0     H27243   3.037   6.724   6.792 -0.4845  0.5086  0.1899
  202MOL0     H27244   2.860   6.956   6.760 -1.3128  0.4032 -5.3729
  202MOL0     H27245   3.009   6.933   6.668 -1.4158 -0.0268 -0.0987
  202MOL0     H27246   3.157   6.944   6.872  1.5666  1.7791  1.0286
  202MOL0     H27247   3.079   7.090   6.860  2.6813 -0.4461  1.2524
  202MOL0     H27248   2.902   6.895   7.006 -0.2828 -0.4808  1.9020
  202MOL0     H27249   2.951   7.051   7.053 -2.5085 -1.0567 -0.0425
  202MOL0     H27250   3.049   6.876   7.204  2.5842 -4.3830  0.2243
  202MOL0     H27251   3.164   6.979   7.116  0.1426  0.1722 -2.4305
  202MOL0     H27252   2.612   6.438   6.335  2.2521  0.3574  5.1595
  202MOL0     H27253   2.509   6.270   6.250  1.2162  1.7594  0.0981
  202MOL0     H27254   2.102   6.034   6.200  1.1256  0.0821 -2.2720
  202MOL0     H27255   1.983   5.848   6.085 -0.6162  0.6781  3.0555
  202MOL0     H27256   2.205   4.864   7.144 -0.5150 -0.9747 -1.2579
  202MOL0     H27257   2.115   4.897   7.356 -0.5866  0.0092  0.6770
  202MOL0     H27258   2.005   5.054   7.696 -0.2598 -4.6168 -0.6277
  202MOL0     H27259   1.953   5.052   7.931  0.2024  2.5121  0.3490
  202MOL0     H27260   1.528   5.151   8.053  2.6261  0.8334  0.5120
  202MOL0     H27261   1.528   4.969   8.037  0.2949  0.8135 -4.4086
  202MOL0     H27262   1.611   5.128   8.282 -0.3053  0.2686  0.3607
  202MOL0     H27263   1.596   4.954   8.261  2.8292  0.5202 -1.3257
  202MOL0     H27264   1.343   5.015   8.214  0.0983 -0.3576 -0.8907
  202MOL0     H27265   1.386   5.171   8.280  1.1355  0.6495 -0.6835
  202MOL0     H27266   1.309   5.084   8.454 -1.0151 -1.4229 -0.6796
  202MOL0     H27267   1.486   5.090   8.479  1.1847 -2.1284 -0.2485
  202MOL0     H27268   1.445   4.665   8.479 -0.3987  0.0056  0.7222
  202MOL0     H27269   1.547   5.138   7.844  0.6638  1.0974  2.4331
  202MOL0     H27270   1.600   5.144   7.593 -1.0252  0.6076  1.1556
  203MOL0     O27271   7.716   9.240  10.180 -0.2620  0.8940 -0.1986
  203MOL0     C27272   7.833   9.202  10.177  0.4440  1.0683  0.4846
  203MOL0     O27273   7.881   9.097  10.101 -0.5085  0.0936 -0.4362
  203MOL0     C27274   7.799   9.057   9.998 -0.7659  0.3487  0.1118
  203MOL0     C27275   7.761   8.931  10.013 -0.6967 -0.5045  0.2190
  203MOL0     C27276   7.667   8.892   9.927 -0.3009  0.2988  0.0017
  203MOL0     C27277   7.608   8.968   9.822 -1.1074 -0.0553  0.2230
  203MOL0     O27278   7.534   8.901   9.725  0.3673 -0.1205 -0.4848
  203MOL0     C27279   7.464   8.986   9.634 -0.3493  0.0617 -0.4450
  203MOL0     C27280   7.353   8.913   9.557  0.2711 -0.9741  0.3461
  203MOL0     C27281   7.240   8.852   9.637  0.6987 -0.7114 -0.4687
  203MOL0     C27282   7.144   8.754   9.565 -0.3616  0.1370  0.2840
  203MOL0     C27283   7.201   8.620   9.506  0.0294  0.8576 -0.7589
  203MOL0     C27284   7.098   8.537   9.424 -0.5457 -0.0695 -0.2342
  203MOL0     C27285   7.015   8.451   9.525  0.1480  0.1537  0.5477
  203MOL0     C27286   7.080   8.317   9.572  0.2731 -0.0478 -1.0835
  203MOL0     N27287   6.995   8.264   9.680 -1.3483  0.1476  0.7134
  203MOL0     C27288   6.985   8.293   9.820 -0.4461  0.2988  0.4989
  203MOL0     C27289   6.892   8.206   9.862  0.1627  0.6057 -0.4699
  203MOL0     C27290   6.838   8.179   9.998  0.5290  0.3773 -0.3475
  203MOL0     C27291   6.804   8.313  10.054  0.4912 -0.6355 -0.1542
  203MOL0     C27292   6.686   8.305  10.149  0.3255  0.5851  0.6059
  203MOL0     C27293   6.665   8.439  10.212 -0.6845  0.1446  0.2874
  203MOL0     O27294   6.777   8.478  10.286 -0.4038 -0.5292 -0.8238
  203MOL0     C27295   6.793   8.615  10.305  0.4133 -0.6709  0.3634
  203MOL0     C27296   6.922   8.660  10.341  0.9504 -0.2995 -0.1117
  203MOL0     C27297   6.951   8.798  10.364 -0.4498  0.8293  1.1738
  203MOL0     C27298   7.101   8.845  10.400  0.8054 -0.0768  0.3538
  203MOL0     C27299   6.844   8.892  10.348  0.0086  0.6781  0.9848
  203MOL0     C27300   6.864   9.042  10.369  0.0901 -0.1832 -0.0927
  203MOL0     O27301   6.971   9.091  10.296 -0.4066 -0.5171 -0.3544
  203MOL0     C27302   6.993   9.221  10.316 -0.1868 -0.2331 -0.4349
  203MOL0     C27303   7.063   9.273  10.424  0.2851 -0.6002 -1.2200
  203MOL0     C27304   7.088   9.401  10.432 -0.5254 -0.8424  0.3258
  203MOL0     C27305   7.033   9.494  10.342 -0.3117 -0.2678  0.8136
  203MOL0     O27306   7.045   9.632  10.343  0.6066  0.7882 -0.4422
  203MOL0     C27307   7.090   9.695  10.462 -0.4997 -0.2011  0.0946
  203MOL0     C27308   7.076   9.843  10.437 -0.0499 -0.2721  1.1391
  203MOL0     C27309   7.133   9.926  10.551  0.0234  0.1983  0.2379
  203MOL0     C27310   7.145  10.076  10.526  0.3833  0.2044  0.1188
  203MOL0     C27311   7.022  10.166  10.547 -0.4584 -0.0817  0.0534
  203MOL0     C27312   7.023  10.315  10.496  0.8770  0.9241 -0.6617
  203MOL0     C27313   7.041  10.323  10.334 -0.4579  0.8532 -0.6758
  203MOL0     C27314   7.082  10.454  10.302 -0.4520 -0.2319  0.4649
  203MOL0    Cl27315   7.135  10.452  10.131  0.0790  0.2803 -0.0981
  203MOL0     C27316   6.965   9.454  10.229  0.4412  0.4619 -0.3812
  203MOL0     C27317   6.943   9.311  10.215  0.0665 -1.0104  0.4414
  203MOL0     O27318   6.801   9.096  10.462 -0.8918 -0.0155  0.0333
  203MOL0     C27319   6.712   8.853  10.312 -0.4569  1.0282 -0.4428
  203MOL0     C27320   6.690   8.714  10.296  0.0073 -0.4249  0.2636
  203MOL0     N27321   6.842   8.140   9.755 -0.2943  1.7000 -0.3632
  203MOL0     N27322   6.900   8.177   9.646  0.1807  1.0562  0.5190
  203MOL0     C27323   7.668   9.092   9.808  0.6030  0.2362 -0.4998
  203MOL0     C27324   7.760   9.142   9.896 -0.3067  0.0071  1.0435
  203MOL0     C27325   7.923   9.285  10.258  1.1925 -0.0654  0.5298
  203MOL0     C27326   7.880   9.404  10.320  0.7350  0.4721  0.5799
  203MOL0     C27327   7.976   9.492  10.372 -0.3579 -0.4661 -0.2862
  203MOL0     C27328   8.109   9.478  10.373 -0.5743 -0.0374 -0.3092
  203MOL0     O27329   8.190   9.576  10.436  0.5250  0.1653 -0.2536
  203MOL0     C27330   8.331   9.563  10.427 -0.0820  0.7933 -0.6256
  203MOL0     C27331   8.389   9.533  10.568 -0.4202  0.0449 -0.1498
  203MOL0     C27332   8.533   9.562  10.572  0.5744 -0.2603  0.4049
  203MOL0     C27333   8.579   9.572  10.713 -0.3419 -0.4202 -0.1082
  203MOL0     C27334   8.723   9.584  10.709  0.1508 -0.3385  0.3971
  203MOL0     C27335   8.840   9.625  10.710 -0.2472 -0.2939  0.3318
  203MOL0     C27336   8.149   9.359  10.312 -0.1239  0.0051  1.0509
  203MOL0     C27337   8.064   9.267  10.245  0.1026 -0.2936 -0.0176
  203MOL0     H27338   7.806   8.869  10.090 -0.1974 -1.0809 -0.5142
  203MOL0     H27339   7.613   8.800   9.946 -0.9318  1.0479  2.1355
  203MOL0     H27340   7.417   9.062   9.697  2.4779  1.5182  0.0613
  203MOL0     H27341   7.528   9.051   9.574 -1.5562  0.8206 -0.9354
  203MOL0     H27342   7.313   8.988   9.489  1.0529  0.8490  1.8280
  203MOL0     H27343   7.390   8.825   9.504  4.2572 -0.0071  1.2355
  203MOL0     H27344   7.282   8.792   9.719 -4.0598 -2.3702  1.1438
  203MOL0     H27345   7.183   8.939   9.671 -0.2570 -1.4438 -0.1277
  203MOL0     H27346   7.069   8.728   9.640 -1.5906  1.1861 -0.5430
  203MOL0     H27347   7.104   8.803   9.475  1.0069 -2.3002 -1.7872
  203MOL0     H27348   7.273   8.651   9.430 -0.5526  2.3189 -0.7540
  203MOL0     H27349   7.240   8.570   9.595 -3.2031  2.2173  1.6477
  203MOL0     H27350   7.041   8.617   9.376  0.4245  1.3961  0.9708
  203MOL0     H27351   7.150   8.464   9.362  2.0315  0.8910  0.6755
  203MOL0     H27352   6.992   8.520   9.607 -0.4853  2.3495 -1.3938
  203MOL0     H27353   6.918   8.434   9.477 -0.3811 -0.1133  1.6678
  203MOL0     H27354   7.175   8.336   9.623 -2.0159 -0.1618  3.6855
  203MOL0     H27355   7.105   8.243   9.495 -1.1306 -1.3038 -0.3958
  203MOL0     H27356   7.042   8.347   9.895 -1.9138  0.3870  1.5930
  203MOL0     H27357   6.751   8.116   9.975  1.0016  0.4891 -2.6722
  203MOL0     H27358   6.901   8.119  10.064 -1.1798  0.9132  1.9175
  203MOL0     H27359   6.772   8.380   9.974  1.8952 -0.9562 -1.0152
  203MOL0     H27360   6.889   8.346  10.114  0.6304 -2.3615  0.6772
  203MOL0     H27361   6.706   8.228  10.225  0.5909 -1.9719 -1.9001
  203MOL0     H27362   6.604   8.282  10.081  2.0085  2.0686 -2.1270
  203MOL0     H27363   6.579   8.428  10.280  1.2022 -0.3750  2.7449
  203MOL0     H27364   6.646   8.517  10.138  0.8549  0.8307  0.5949
  203MOL0     H27365   7.002   8.590  10.358  2.2813  0.6608 -2.0408
  203MOL0     H27366   7.166   8.769  10.445  1.6862 -0.8020 -1.9737
  203MOL0     H27367   7.143   8.868  10.301  0.4570 -0.3557  0.1415
  203MOL0     H27368   7.098   8.933  10.465  0.8587 -0.5092  0.9507
  203MOL0     H27369   7.097   9.214  10.508 -1.9134 -0.9676 -0.5066
  203MOL0     H27370   7.149   9.426  10.518  2.7384 -0.4034 -1.9351
  203MOL0     H27371   7.032   9.670  10.552 -1.7063  1.6549 -0.1001
  203MOL0     H27372   7.196   9.676  10.479 -0.3596  0.3964 -0.0703
  203MOL0     H27373   7.134   9.858  10.345 -1.4720 -0.3929  0.1794
  203MOL0     H27374   6.973   9.874  10.414 -0.8754 -1.6550  2.7751
  203MOL0     H27375   7.228   9.875  10.569 -0.1888 -0.1078  0.5233
  203MOL0     H27376   7.069   9.905  10.637  1.5813  0.6813  1.5729
  203MOL0     H27377   7.234  10.117  10.575  1.4010 -1.9531  0.2426
  203MOL0     H27378   7.161  10.073  10.417  1.6162  0.2068  0.2850
  203MOL0     H27379   6.992  10.170  10.652  1.5586  0.8782  0.6592
  203MOL0     H27380   6.937  10.119  10.498 -0.9253 -0.8535  1.5290
  203MOL0     H27381   6.928  10.363  10.521 -0.4721 -1.7953 -0.2010
  203MOL0     H27382   7.099  10.368  10.554  0.8018 -0.3860  0.6831
  203MOL0     H27383   6.956  10.293  10.272  0.2808  0.3000 -1.4287
  203MOL0     H27384   7.123  10.257  10.307  0.3633  0.6385  2.0451
  203MOL0     H27385   7.160  10.498  10.365 -0.3754 -1.6044  1.3724
  203MOL0     H27386   6.991  10.516  10.302  0.1940  0.7890 -1.5452
  203MOL0     H27387   6.946   9.529  10.153  0.7354 -0.8035 -1.7433
  203MOL0     H27388   6.907   9.288  10.116  0.1626  1.3471 -0.2177
  203MOL0     H27389   6.640   8.934  10.307  0.6603  2.0022 -1.6635
  203MOL0     H27390   6.584   8.692  10.289 -0.7414  2.2793  1.6187
  203MOL0     H27391   7.620   9.161   9.740  0.1678  0.9252  0.4844
  203MOL0     H27392   7.804   9.241   9.897  1.9144 -0.9323  2.0837
  203MOL0     H27393   7.773   9.425  10.315  0.0004 -2.9030 -1.3260
  203MOL0     H27394   7.929   9.584  10.406  0.4012 -1.0197  2.5557
  203MOL0     H27395   8.364   9.485  10.358  1.0957  2.8037 -2.4806
  203MOL0     H27396   8.366   9.664  10.405  0.2965  1.2645  1.8360
  203MOL0     H27397   8.368   9.429  10.595 -0.4056  0.2450  0.6427
  203MOL0     H27398   8.332   9.598  10.634 -0.6466  2.9908 -2.9897
  203MOL0     H27399   8.555   9.657  10.522 -1.5239 -0.8833 -1.8796
  203MOL0     H27400   8.588   9.485  10.517  3.3506  0.4292  2.0035
  203MOL0     H27401   8.543   9.497  10.784 -0.5370  1.1391  1.5382
  203MOL0     H27402   8.526   9.660  10.753 -1.8440 -0.9477 -0.8558
  203MOL0     H27403   8.939   9.666  10.711 -1.9133  4.3187  1.0649
  203MOL0     H27404   8.255   9.338  10.305  0.0045  1.0431 -1.4157
  203MOL0     H27405   8.105   9.180  10.194 -0.8604 -1.6513  1.4089
  204MOL0     O27406   0.575   9.930  10.792 -0.2710 -0.0239  0.1505
  204MOL0     C27407   0.535  10.050  10.767 -0.0859 -1.0004 -0.5630
  204MOL0     O27408   0.410  10.084  10.737 -0.0377 -1.1439 -0.7136
  204MOL0     C27409   0.319   9.987  10.701  0.1693 -0.7855  0.1463
  204MOL0     C27410   0.271   9.975  10.572 -0.7591  0.0493  0.0537
  204MOL0     C27411   0.176   9.878  10.533 -1.4889 -0.3421 -0.2779
  204MOL0     C27412   0.145   9.771  10.614  1.1072  0.2740  0.1573
  204MOL0     O27413   0.061   9.664  10.581  0.1474  1.0502 -0.6451
  204MOL0     C27414  -0.024   9.665  10.464 -0.2014 -0.2878  0.2036
  204MOL0     C27415  -0.132   9.553  10.466  0.7157 -0.4225  0.5782
  204MOL0     C27416  -0.070   9.414  10.450  0.0170  0.2833 -1.2648
  204MOL0     C27417  -0.171   9.316  10.393 -0.4809  0.1062 -0.7388
  204MOL0     C27418  -0.161   9.176  10.454 -0.0468 -0.5799  0.1159
  204MOL0     C27419  -0.203   9.163  10.599  0.5750  0.1814  0.6352
  204MOL0     C27420  -0.224   9.020  10.624  0.4704 -0.0096 -0.6677
  204MOL0     C27421  -0.351   8.981  10.703 -0.0052  0.6854 -0.1339
  204MOL0     N27422  -0.488   8.994  10.641 -1.1388 -0.1396 -0.0119
  204MOL0     C27423  -0.543   9.112  10.588 -0.0008 -0.4207  0.8426
  204MOL0     C27424  -0.660   9.077  10.526 -0.8332  0.1654 -0.8840
  204MOL0     C27425  -0.757   9.166  10.442  0.1627 -0.9338 -0.0444
  204MOL0     C27426  -0.688   9.273  10.351  0.1019  1.8964 -0.2602
  204MOL0     C27427  -0.597   9.205  10.241  0.7878  0.3332  0.3415
  204MOL0     C27428  -0.532   9.297  10.136  0.2125 -0.0064  0.1423
  204MOL0     O27429  -0.431   9.369  10.208  0.9822 -0.1199  0.2660
  204MOL0     C27430  -0.401   9.494  10.144 -0.4653  0.4540  0.1523
  204MOL0     C27431  -0.495   9.599  10.138  0.9622 -0.2754 -0.0670
  204MOL0     C27432  -0.475   9.716  10.067 -0.1061  0.4568 -1.0738
  204MOL0     C27433  -0.569   9.830  10.097 -0.2198  0.0598  0.3692
  204MOL0     C27434  -0.357   9.725   9.985 -0.3582  0.7928  0.7057
  204MOL0     C27435  -0.313   9.848   9.897  0.5841 -0.5044  0.3564
  204MOL0     O27436  -0.188   9.837   9.844 -0.3471 -0.0244 -0.3063
  204MOL0     C27437  -0.134   9.931   9.756 -0.5110  0.2958 -0.4922
  204MOL0     C27438   0.004   9.905   9.736  0.2154  1.3689 -0.1889
  204MOL0     C27439   0.072   9.966   9.633  0.7421  0.2472  0.5589
  204MOL0     C27440   0.007  10.063   9.559  0.2758 -0.4546 -0.0686
  204MOL0     O27441   0.105  10.113   9.470  0.7739  0.1455 -0.5088
  204MOL0     C27442   0.053  10.216   9.388 -0.0571 -0.2609  0.1681
  204MOL0     C27443   0.154  10.287   9.298  0.4532  1.2745 -1.2720
  204MOL0     C27444   0.222  10.208   9.195  0.0943 -0.6725 -0.1004
  204MOL0     C27445   0.314  10.310   9.116 -0.4648  0.1334 -0.0861
  204MOL0     C27446   0.232  10.363   8.999 -0.6787  0.1580  0.8967
  204MOL0     C27447   0.306  10.457   8.898  0.2745  1.0171 -0.3402
  204MOL0     C27448   0.209  10.495   8.787 -0.7390 -0.1220  0.8266
  204MOL0     C27449   0.283  10.597   8.715 -0.3624 -0.5012  0.7440
  204MOL0    Cl27450   0.274  10.755   8.796 -0.4794  0.0381 -0.1367
  204MOL0     C27451  -0.131  10.100   9.584  0.2206  0.7734  0.0381
  204MOL0     C27452  -0.200  10.018   9.672  0.1097 -0.2457 -0.7474
  204MOL0     O27453  -0.392   9.942   9.878  0.2037 -0.1331  0.0648
  204MOL0     C27454  -0.278   9.612   9.978 -0.5716  0.3725 -0.5507
  204MOL0     C27455  -0.289   9.505  10.070 -0.3074  1.3629 -0.2940
  204MOL0     N27456  -0.677   8.944  10.564  0.0815  0.3583  0.4417
  204MOL0     N27457  -0.577   8.900  10.626  0.0354  0.5366 -0.1777
  204MOL0     C27458   0.202   9.772  10.744 -0.1492 -0.0459  1.2857
  204MOL0     C27459   0.278   9.882  10.784  0.1580 -0.2135  0.3937
  204MOL0     C27460   0.635  10.153  10.764 -0.2784 -0.1198  0.6580
  204MOL0     C27461   0.743  10.151  10.850  0.1772 -0.2338  0.5118
  204MOL0     C27462   0.829  10.266  10.847  0.2974  1.1473 -0.6509
  204MOL0     C27463   0.817  10.367  10.750  0.0893  0.1055 -0.1201
  204MOL0     O27464   0.914  10.463  10.748 -0.4253  0.6235  0.0853
  204MOL0     C27465   0.936  10.549  10.634  0.5949  0.3060 -0.0341
  204MOL0     C27466   1.061  10.630  10.634  0.5504 -0.7251  0.4587
  204MOL0     C27467   1.039  10.757  10.720 -0.6851 -0.9023  0.8899
  204MOL0     C27468   1.165  10.838  10.740 -0.2122 -0.1151 -0.7026
  204MOL0     C27469   1.133  10.955  10.828 -0.0189  0.0620  0.5651
  204MOL0     C27470   1.110  11.036  10.915  0.0638 -0.1484  0.0870
  204MOL0     C27471   0.712  10.359  10.662 -0.7528  0.4607  0.7834
  204MOL0     C27472   0.622  10.258  10.665 -0.4568 -0.1357  0.3228
  204MOL0     H27473   0.319  10.042  10.501 -0.8126  0.2500  0.2062
  204MOL0     H27474   0.137   9.880  10.432  0.3986  1.0116 -1.0509
  204MOL0     H27475  -0.080   9.759  10.466  0.9067  0.3683  1.3208
  204MOL0     H27476   0.035   9.652  10.373 -0.9744 -0.8677 -0.2286
  204MOL0     H27477  -0.187   9.549  10.561 -0.6289  0.9622 -0.0982
  204MOL0     H27478  -0.197   9.581  10.383  0.2137  1.2677  1.4850
  204MOL0     H27479   0.022   9.420  10.392 -1.1481  4.1058 -3.0693
  204MOL0     H27480  -0.044   9.385  10.552 -3.2733 -1.1038 -0.6798
  204MOL0     H27481  -0.273   9.344  10.420  1.3764  3.2241  4.4054
  204MOL0     H27482  -0.152   9.310  10.285 -2.0829 -1.8059 -0.9846
  204MOL0     H27483  -0.206   9.100  10.389 -0.2695  0.0023 -0.4207
  204MOL0     H27484  -0.054   9.149  10.456  0.3647  1.0445  1.8208
  204MOL0     H27485  -0.123   9.198  10.664  0.3161  0.9437  0.5546
  204MOL0     H27486  -0.294   9.222  10.617 -1.1569 -2.6668  1.8904
  204MOL0     H27487  -0.224   8.959  10.533 -2.2693 -0.3778 -0.4965
  204MOL0     H27488  -0.135   8.992  10.681  0.8075 -1.4716 -1.8514
  204MOL0     H27489  -0.361   9.025  10.803 -2.5855 -2.0256  0.9492
  204MOL0     H27490  -0.338   8.873  10.714  3.5390  0.5980 -3.1137
  204MOL0     H27491  -0.483   9.201  10.578 -0.3038 -0.1669  1.2815
  204MOL0     H27492  -0.822   9.098  10.386 -0.6039  0.6637 -1.1490
  204MOL0     H27493  -0.811   9.225  10.516  0.0690 -0.7487 -0.2630
  204MOL0     H27494  -0.628   9.345  10.407 -0.3055  0.5533  2.0439
  204MOL0     H27495  -0.758   9.337  10.297  1.0611  1.2994 -2.3442
  204MOL0     H27496  -0.663   9.136  10.187  0.9108  0.7766 -0.3850
  204MOL0     H27497  -0.522   9.145  10.295  1.0379  0.1207 -0.2241
  204MOL0     H27498  -0.618   9.352  10.097  0.1902  0.3391  0.6749
  204MOL0     H27499  -0.498   9.240  10.048 -0.6160  1.0219 -0.8785
  204MOL0     H27500  -0.584   9.582  10.198  0.3432  1.0039 -0.6000
  204MOL0     H27501  -0.599   9.825  10.202  0.8609  0.9255  0.7304
  204MOL0     H27502  -0.528   9.932  10.091 -1.0550  0.4066  0.4021
  204MOL0     H27503  -0.650   9.813  10.025  0.2737 -2.4973  0.3341
  204MOL0     H27504   0.045   9.824   9.795  0.9735  1.7831 -0.1378
  204MOL0     H27505   0.166   9.919   9.606  0.3902 -2.8244  3.9433
  204MOL0     H27506  -0.025  10.172   9.324  1.1108 -1.8837 -0.2184
  204MOL0     H27507   0.008  10.290   9.455 -0.9552 -2.4827  2.1595
  204MOL0     H27508   0.106  10.371   9.245 -2.5042  0.2722 -0.3363
  204MOL0     H27509   0.237  10.326   9.358  1.0409 -3.8678  1.8138
  204MOL0     H27510   0.145  10.175   9.124 -0.5779  0.0455  0.2687
  204MOL0     H27511   0.269  10.120   9.239  1.5554 -1.0620 -2.2478
  204MOL0     H27512   0.336  10.395   9.181  1.0492  0.9516 -1.5623
  204MOL0     H27513   0.401  10.261   9.071 -0.1447 -0.3680  1.0360
  204MOL0     H27514   0.146  10.422   9.033 -0.5029 -0.2058  2.0213
  204MOL0     H27515   0.196  10.271   8.952  2.0366 -0.3340 -0.4015
  204MOL0     H27516   0.338  10.544   8.957  3.1464  0.8585 -1.5062
  204MOL0     H27517   0.390  10.411   8.846 -1.1191  0.0388 -1.8473
  204MOL0     H27518   0.116  10.551   8.804 -0.4785 -0.1919  2.6280
  204MOL0     H27519   0.186  10.417   8.713 -2.2374  2.5830 -1.8163
  204MOL0     H27520   0.238  10.619   8.618  0.0241  1.3485  0.9444
  204MOL0     H27521   0.387  10.569   8.696 -0.3629  1.1966 -2.3384
  204MOL0     H27522  -0.189  10.160   9.514 -3.1136  0.6200  2.4384
  204MOL0     H27523  -0.306  10.032   9.692 -0.0132 -2.6078  0.6183
  204MOL0     H27524  -0.204   9.617   9.899 -0.4265 -0.9638 -0.5252
  204MOL0     H27525  -0.226   9.417  10.059 -0.0061  1.5551 -0.1274
  204MOL0     H27526   0.168   9.692  10.809 -0.2794  1.8638  3.7082
  204MOL0     H27527   0.301   9.870  10.889 -0.6163  1.3709  0.7683
  204MOL0     H27528   0.764  10.075  10.924  0.5047 -1.6766 -1.0162
  204MOL0     H27529   0.908  10.262  10.920 -1.0007  0.6953  0.7846
  204MOL0     H27530   0.932  10.485  10.545 -0.3472  3.6768 -2.6106
  204MOL0     H27531   0.849  10.615  10.635 -0.4521 -1.0288  1.8089
  204MOL0     H27532   1.092  10.665  10.535 -0.4258 -0.5529  0.1955
  204MOL0     H27533   1.142  10.578  10.684 -1.8500 -1.6202  3.7162
  204MOL0     H27534   1.005  10.728  10.820 -1.0302 -1.9194  0.4911
  204MOL0     H27535   0.963  10.811  10.663  0.0868 -3.1558 -2.5882
  204MOL0     H27536   1.205  10.870  10.644  0.5120  0.9592 -0.0744
  204MOL0     H27537   1.232  10.764  10.786 -3.5346 -2.8781  0.0998
  204MOL0     H27538   1.118  11.114  10.989 -1.7137  2.1251 -1.9643
  204MOL0     H27539   0.697  10.436  10.587  2.2904  0.1175 -0.3389
  204MOL0     H27540   0.547  10.272  10.588 -0.7013 -0.8801  0.4152
  205MOL0     O27541   9.858   5.015   7.432  0.1426 -0.6546  0.1240
  205MOL0     C27542   9.970   5.025   7.478 -0.1623 -0.6409 -0.0193
  205MOL0     O27543  10.007   5.096   7.596  0.1402 -1.1060  0.5193
  205MOL0     C27544   9.926   5.178   7.665  0.4637 -0.7491 -0.0938
  205MOL0     C27545   9.814   5.128   7.738 -0.0731  0.4631  0.5175
  205MOL0     C27546   9.730   5.220   7.803  0.3015 -0.0659  0.2739
  205MOL0     C27547   9.735   5.356   7.795  0.6004  0.3645  0.1947
  205MOL0     O27548   9.665   5.455   7.863 -0.1935 -0.7232  0.2772
  205MOL0     C27549   9.573   5.414   7.977 -0.7248  0.1980  0.1701
  205MOL0     C27550   9.547   5.517   8.088  0.2294 -0.5354  0.3935
  205MOL0     C27551   9.500   5.648   8.028  0.2256 -0.1598  0.0922
  205MOL0     C27552   9.364   5.648   7.958 -0.1005  0.1177 -0.3346
  205MOL0     C27553   9.336   5.783   7.887  0.4168  0.0250 -0.6392
  205MOL0     C27554   9.402   5.819   7.753 -0.2041 -1.3136 -0.4700
  205MOL0     C27555   9.331   5.944   7.688  0.6436 -0.1917  0.4184
  205MOL0     C27556   9.420   6.010   7.580  0.4438  0.1746 -0.4547
  205MOL0     N27557   9.486   5.917   7.485 -0.1056  0.2149 -0.5054
  205MOL0     C27558   9.600   5.853   7.518 -0.0777 -0.0764 -0.1115
  205MOL0     C27559   9.619   5.760   7.416  0.2830  0.2790  0.1131
  205MOL0     C27560   9.738   5.671   7.415 -0.0683 -0.1178 -0.6188
  205MOL0     C27561   9.867   5.747   7.391 -0.2882 -0.2301  0.1177
  205MOL0     C27562   9.872   5.847   7.274  0.2245  0.8602  0.5760
  205MOL0     C27563  10.005   5.869   7.210  0.0792 -0.8906  0.1774
  205MOL0     O27564  10.005   5.973   7.105  0.1777 -0.4378  0.4313
  205MOL0     C27565   9.939   5.951   6.990 -0.3091  0.0663 -0.0215
  205MOL0     C27566   9.918   6.064   6.904 -0.2724 -1.4812 -0.0360
  205MOL0     C27567   9.849   6.047   6.783 -0.4448 -1.1024  0.0563
  205MOL0     C27568   9.805   6.182   6.715  0.7327  0.4501  0.5000
  205MOL0     C27569   9.816   5.916   6.737 -0.3726 -0.0017 -0.4992
  205MOL0     C27570   9.750   5.896   6.605 -0.8319  0.4182 -0.3608
  205MOL0     O27571   9.776   5.778   6.550  0.0525 -0.6303  1.0345
  205MOL0     C27572   9.751   5.773   6.415 -0.4620 -0.5384  0.2156
  205MOL0     C27573   9.631   5.725   6.367  0.6463 -0.1035 -0.0960
  205MOL0     C27574   9.613   5.689   6.226 -0.4934 -0.0070  0.6736
  205MOL0     C27575   9.716   5.713   6.133  0.0985 -0.3099 -0.3051
  205MOL0     O27576   9.710   5.692   5.998 -0.1544 -0.7632 -0.1141
  205MOL0     C27577   9.582   5.734   5.938 -0.3651 -0.4393 -0.0217
  205MOL0     C27578   9.583   5.700   5.782 -0.7411 -0.3489 -1.3367
  205MOL0     C27579   9.601   5.544   5.751 -0.4043 -0.7157  0.2159
  205MOL0     C27580   9.480   5.455   5.782  0.3183 -0.0536 -0.2157
  205MOL0     C27581   9.487   5.311   5.728  0.7582  0.6055  0.3934
  205MOL0     C27582   9.428   5.208   5.819  0.1159  0.2044  0.2591
  205MOL0     C27583   9.422   5.068   5.764 -0.9197 -0.0470  0.5623
  205MOL0     C27584   9.367   4.975   5.876 -0.8212 -0.3557  0.5339
  205MOL0    Cl27585   9.508   4.943   5.990 -0.4754  0.1063 -0.0371
  205MOL0     C27586   9.839   5.765   6.185 -0.2012 -0.5675  1.0049
  205MOL0     C27587   9.854   5.791   6.323  0.4443  0.0937  0.3915
  205MOL0     O27588   9.692   5.988   6.548 -0.7914 -0.6944  0.4966
  205MOL0     C27589   9.853   5.805   6.812  0.1713  0.0095  0.3574
  205MOL0     C27590   9.914   5.826   6.937 -0.4284  0.6291  0.2299
  205MOL0     N27591   9.522   5.775   7.325  0.3082 -0.0149 -1.1565
  205MOL0     N27592   9.447   5.877   7.356 -0.1374 -0.6032  0.2941
  205MOL0     C27593   9.838   5.405   7.716 -0.8110 -0.1447 -0.1677
  205MOL0     C27594   9.935   5.324   7.648  1.0281  0.4094  0.2018
  205MOL0     C27595  10.075   4.964   7.402  0.6735 -0.0190 -0.2099
  205MOL0     C27596  10.050   4.928   7.266  0.4950  0.9505 -0.1573
  205MOL0     C27597  10.147   4.862   7.187 -0.4440 -0.0249 -0.3852
  205MOL0     C27598  10.272   4.839   7.239 -0.0241  0.7964 -0.7839
  205MOL0     O27599  10.368   4.776   7.160  0.2334 -0.3160  0.7490
  205MOL0     C27600  10.501   4.756   7.204  0.2846  0.0893  0.2833
  205MOL0     C27601  10.585   4.695   7.102 -0.9212  0.1035 -0.3129
  205MOL0     C27602  10.730   4.682   7.141 -0.9802  0.1625 -0.1366
  205MOL0     C27603  10.821   4.626   7.021 -0.0878  0.5616  0.4611
  205MOL0     C27604  10.957   4.604   7.062  0.3896 -1.1053  0.3559
  205MOL0     C27605  11.061   4.564   7.108  0.0650  0.3884  0.1119
  205MOL0     C27606  10.286   4.862   7.371 -0.1831 -0.2769 -0.4645
  205MOL0     C27607  10.196   4.923   7.457 -0.1340  0.1528 -0.1168
  205MOL0     H27608   9.799   5.021   7.726 -1.4356  0.4328  2.1243
  205MOL0     H27609   9.648   5.184   7.865 -2.2886  2.3237 -1.4917
  205MOL0     H27610   9.478   5.378   7.937 -2.5736  2.6222  2.1144
  205MOL0     H27611   9.624   5.326   8.018 -1.8890 -0.8823 -0.6318
  205MOL0     H27612   9.469   5.492   8.160 -1.6582  2.8767 -0.2221
  205MOL0     H27613   9.640   5.542   8.140  0.6305 -1.2954  0.0506
  205MOL0     H27614   9.507   5.726   8.104 -0.4383 -1.2889  1.3428
  205MOL0     H27615   9.574   5.667   7.950  2.2243 -0.0726  1.9378
  205MOL0     H27616   9.348   5.563   7.890  0.3428 -1.3595  1.3396
  205MOL0     H27617   9.286   5.639   8.034 -0.3529  2.1824 -0.2882
  205MOL0     H27618   9.229   5.787   7.865 -0.0913  0.5660  1.6423
  205MOL0     H27619   9.355   5.857   7.966 -1.9357 -2.4841  2.5628
  205MOL0     H27620   9.508   5.839   7.768 -0.2211 -0.5143 -1.3291
  205MOL0     H27621   9.394   5.735   7.684  2.2722 -1.0486 -1.1839
  205MOL0     H27622   9.238   5.908   7.642  0.0190  1.2115  0.5359
  205MOL0     H27623   9.306   6.017   7.766  2.1720  0.3288  0.4547
  205MOL0     H27624   9.502   6.067   7.624  2.4812 -2.2096 -0.9039
  205MOL0     H27625   9.351   6.069   7.519 -0.9763 -3.1541 -2.3602
  205MOL0     H27626   9.664   5.861   7.605 -3.1181 -1.6046  2.4650
  205MOL0     H27627   9.743   5.624   7.513 -0.2645  4.1305  1.6789
  205MOL0     H27628   9.724   5.589   7.345  3.3002 -0.4412 -1.0738
  205MOL0     H27629   9.953   5.680   7.395  1.2906  1.7722  1.6265
  205MOL0     H27630   9.874   5.800   7.486  2.4116 -1.9152  0.9789
  205MOL0     H27631   9.835   5.943   7.312  0.9244  1.4555 -0.1959
  205MOL0     H27632   9.805   5.811   7.195 -2.2129  0.1770  2.8142
  205MOL0     H27633  10.037   5.776   7.161 -1.7347  0.6209 -4.4889
  205MOL0     H27634  10.069   5.895   7.294 -1.0323 -0.6314  0.9758
  205MOL0     H27635   9.934   6.168   6.933 -1.1072 -1.0164 -1.1857
  205MOL0     H27636   9.807   6.181   6.606 -2.6825  1.7277  0.3152
  205MOL0     H27637   9.699   6.193   6.737  0.7438  1.1016  0.2216
  205MOL0     H27638   9.854   6.276   6.742 -0.7451  0.7736  2.2205
  205MOL0     H27639   9.553   5.718   6.442 -0.1080  0.1872 -0.8360
  205MOL0     H27640   9.514   5.662   6.190 -0.4475  1.5854 -0.8238
  205MOL0     H27641   9.497   5.693   5.994 -2.1436  0.2005 -2.1395
  205MOL0     H27642   9.581   5.843   5.946  0.4253 -0.0713 -3.3674
  205MOL0     H27643   9.489   5.734   5.737  0.7106  0.7234 -3.7740
  205MOL0     H27644   9.668   5.751   5.737 -0.1860 -1.6479 -1.7884
  205MOL0     H27645   9.697   5.498   5.776  1.6685  1.7470 -2.5583
  205MOL0     H27646   9.612   5.538   5.643 -0.1023  1.8017  0.0513
  205MOL0     H27647   9.472   5.446   5.890 -1.4820 -2.1739 -0.4628
  205MOL0     H27648   9.387   5.506   5.753  0.4256  0.1904 -0.1390
  205MOL0     H27649   9.592   5.284   5.716  1.4036  2.6996  1.0094
  205MOL0     H27650   9.431   5.308   5.634 -2.0345 -4.1844  1.8486
  205MOL0     H27651   9.479   5.206   5.915  2.6962  0.9154 -1.0251
  205MOL0     H27652   9.322   5.236   5.830 -0.8097 -2.9805  0.5480
  205MOL0     H27653   9.517   5.025   5.731  0.5756  4.3339 -1.4969
  205MOL0     H27654   9.351   5.069   5.680 -1.8439 -1.7207  1.2502
  205MOL0     H27655   9.332   4.880   5.834 -4.3882  0.2800  1.7472
  205MOL0     H27656   9.290   5.028   5.932 -1.8859 -0.5928 -0.6650
  205MOL0     H27657   9.913   5.774   6.105  0.5797 -1.6893  1.5661
  205MOL0     H27658   9.956   5.819   6.350  0.9345 -0.1097 -1.1798
  205MOL0     H27659   9.829   5.707   6.770 -0.1652  1.7058 -3.9100
  205MOL0     H27660   9.944   5.734   6.986 -0.1512  0.2426 -0.6427
  205MOL0     H27661   9.833   5.513   7.706  0.7394  0.3549  3.1547
  205MOL0     H27662  10.012   5.374   7.592  1.0787  3.1205  2.4511
  205MOL0     H27663   9.954   4.940   7.218  1.2998  1.2594 -1.7800
  205MOL0     H27664  10.145   4.826   7.085 -1.4016  0.5756 -0.5897
  205MOL0     H27665  10.526   4.855   7.243 -1.9011  0.9299 -0.2919
  205MOL0     H27666  10.502   4.688   7.289 -1.7925 -0.5997 -0.1905
  205MOL0     H27667  10.588   4.769   7.021  1.9634 -0.9918 -1.3474
  205MOL0     H27668  10.555   4.598   7.062  2.7137 -0.6938 -1.5393
  205MOL0     H27669  10.741   4.618   7.229  5.2528  0.6836 -0.1418
  205MOL0     H27670  10.773   4.780   7.161 -2.1283  0.8796 -1.0241
  205MOL0     H27671  10.835   4.689   6.932  2.2573 -0.4392  0.0515
  205MOL0     H27672  10.780   4.533   6.982  0.0563  0.5509  0.3324
  205MOL0     H27673  11.148   4.533   7.162  0.0127  0.5007  0.2590
  205MOL0     H27674  10.382   4.842   7.419 -0.1753  2.3332  0.7748
  205MOL0     H27675  10.229   4.937   7.560 -0.6836 -3.7692  0.7510
  206MOL0     O27676   7.814   7.054   8.554 -0.4441 -0.3023  0.4210
  206MOL0     C27677   7.913   7.119   8.596  0.3900  0.0201  0.3323
  206MOL0     O27678   7.909   7.246   8.652 -0.5241 -0.5607  0.8280
  206MOL0     C27679   7.798   7.325   8.640  1.1215  0.5991  0.2525
  206MOL0     C27680   7.665   7.287   8.645 -0.6686 -0.0324 -0.7124
  206MOL0     C27681   7.563   7.380   8.647  0.0434 -0.4273  0.2463
  206MOL0     C27682   7.589   7.517   8.637  0.5297 -0.0962  0.7530
  206MOL0     O27683   7.494   7.620   8.644 -0.2848  0.7232  0.2921
  206MOL0     C27684   7.366   7.594   8.691 -0.2537  1.3199  0.3140
  206MOL0     C27685   7.290   7.729   8.683 -0.2332 -0.1099 -0.3026
  206MOL0     C27686   7.134   7.705   8.692 -0.3549  0.5524 -0.7867
  206MOL0     C27687   7.068   7.840   8.689 -1.2916  0.4015  0.5902
  206MOL0     C27688   6.929   7.837   8.751  0.0878 -0.0537  0.1437
  206MOL0     C27689   6.835   7.745   8.677  0.4858  0.2995  0.7897
  206MOL0     C27690   6.687   7.780   8.697 -0.6586  0.6515  0.4167
  206MOL0     C27691   6.602   7.657   8.648  0.1158  0.0922 -0.3437
  206MOL0     N27692   6.606   7.636   8.505  0.2203 -0.0751 -0.1676
  206MOL0     C27693   6.577   7.731   8.403 -0.3399  0.1639 -0.0764
  206MOL0     C27694   6.600   7.669   8.292  0.1737 -0.7149 -0.8639
  206MOL0     C27695   6.588   7.739   8.156  0.2305  0.0347 -0.2044
  206MOL0     C27696   6.443   7.742   8.106  0.2194  0.0525  0.3817
  206MOL0     C27697   6.398   7.602   8.067 -0.2843  1.0408 -0.0559
  206MOL0     C27698   6.268   7.583   8.002  0.5288  0.9326 -0.3363
  206MOL0     O27699   6.159   7.578   8.098  0.0295  0.2754  0.8102
  206MOL0     C27700   6.029   7.576   8.054 -0.0006 -1.0560 -0.0685
  206MOL0     C27701   5.991   7.625   7.927 -0.6306  0.2763 -0.2774
  206MOL0     C27702   5.856   7.630   7.895  0.5721 -0.3242  0.5544
  206MOL0     C27703   5.820   7.670   7.749 -0.3697  0.5459 -0.6779
  206MOL0     C27704   5.759   7.586   7.989 -0.2296  0.7948 -0.2296
  206MOL0     C27705   5.611   7.589   7.967 -1.2595 -0.7415 -0.2163
  206MOL0     O27706   5.532   7.521   8.052  0.3697 -0.4717 -0.8221
  206MOL0     C27707   5.400   7.549   8.053  0.7911  0.2289  0.0999
  206MOL0     C27708   5.316   7.513   7.948  0.6016  1.3651  0.2153
  206MOL0     C27709   5.175   7.528   7.960 -0.1957 -0.4644 -0.0260
  206MOL0     C27710   5.117   7.572   8.090 -0.4047  0.4560 -0.1640
  206MOL0     O27711   4.984   7.609   8.115  0.0251 -0.0716  0.1608
  206MOL0     C27712   4.886   7.554   8.025  0.5666  0.0668  0.2355
  206MOL0     C27713   4.747   7.615   8.046  0.5797 -0.6349  0.0115
  206MOL0     C27714   4.699   7.574   8.188  0.4221 -0.0823  0.2718
  206MOL0     C27715   4.555   7.622   8.224  0.3997  0.2557 -0.0294
  206MOL0     C27716   4.522   7.769   8.215 -0.5552 -0.1692  0.3742
  206MOL0     C27717   4.373   7.794   8.230  0.8873 -0.6938 -0.2972
  206MOL0     C27718   4.298   7.746   8.102  0.6676 -1.2351 -0.7711
  206MOL0     C27719   4.337   7.820   7.978  0.1804  0.3210  0.0483
  206MOL0    Cl27720   4.380   7.991   8.015  0.2354  0.0677 -0.0542
  206MOL0     C27721   5.208   7.605   8.186  0.4112  0.2287 -0.3953
  206MOL0     C27722   5.346   7.594   8.176  0.1603 -0.3706  0.0634
  206MOL0     O27723   5.575   7.647   7.866 -0.0749  0.0915 -0.6892
  206MOL0     C27724   5.804   7.530   8.117 -0.3875  0.7239  0.0217
  206MOL0     C27725   5.938   7.531   8.153 -0.2861  0.4093  0.5257
  206MOL0     N27726   6.635   7.534   8.318  0.7324  0.9184  0.6704
  206MOL0     N27727   6.632   7.522   8.445  0.5071  0.4309  0.2432
  206MOL0     C27728   7.718   7.561   8.622 -0.7745  0.2800  0.1103
  206MOL0     C27729   7.815   7.458   8.618 -0.7374 -0.4507  0.0930
  206MOL0     C27730   8.052   7.062   8.586  0.8682 -0.4420 -0.8969
  206MOL0     C27731   8.067   6.930   8.550 -0.3293  0.2101 -0.0401
  206MOL0     C27732   8.198   6.887   8.550 -0.0341  0.1852 -0.7680
  206MOL0     C27733   8.313   6.964   8.583  0.0721 -0.2028 -0.6035
  206MOL0     O27734   8.432   6.898   8.588  0.1279 -0.1698  0.2868
  206MOL0     C27735   8.553   6.969   8.605 -0.4950  0.5086 -0.0320
  206MOL0     C27736   8.596   6.982   8.754  0.4453  0.1419 -0.7134
  206MOL0     C27737   8.637   6.850   8.825  1.1058  0.0065  0.3593
  206MOL0     C27738   8.605   6.877   8.972 -0.7515  0.4688  0.1926
  206MOL0     C27739   8.461   6.856   8.999 -0.1809  0.4265  0.5117
  206MOL0     C27740   8.353   6.809   9.018 -0.5313  0.7266  0.4870
  206MOL0     C27741   8.298   7.093   8.616  0.2625 -1.2378 -0.3059
  206MOL0     C27742   8.166   7.146   8.610 -0.0721 -0.1898  0.4310
  206MOL0     H27743   7.636   7.185   8.670 -3.4178  0.5493 -1.2767
  206MOL0     H27744   7.468   7.327   8.655  0.9158 -2.4064 -1.6368
  206MOL0     H27745   7.314   7.527   8.622  1.0844  1.2443 -0.6654
  206MOL0     H27746   7.365   7.551   8.792  0.8973  0.0371 -0.1848
  206MOL0     H27747   7.324   7.794   8.763 -0.0128  0.0258 -0.5065
  206MOL0     H27748   7.316   7.776   8.588 -0.0752 -0.2186 -0.3134
  206MOL0     H27749   7.086   7.648   8.613 -1.7424  1.3939 -0.5866
  206MOL0     H27750   7.105   7.661   8.788  2.9795  0.9083  0.4991
  206MOL0     H27751   7.109   7.919   8.753 -2.7817  2.1966 -0.5623
  206MOL0     H27752   7.067   7.880   8.587 -2.1303 -2.4529 -0.6069
  206MOL0     H27753   6.933   7.796   8.852  1.2229  1.2079  0.6392
  206MOL0     H27754   6.893   7.941   8.750 -2.8039 -0.9595 -0.9621
  206MOL0     H27755   6.863   7.748   8.571  1.3228 -0.4555  0.9791
  206MOL0     H27756   6.851   7.643   8.712 -0.9251 -0.5657 -0.9026
  206MOL0     H27757   6.660   7.817   8.796  0.2003  1.6717  0.2781
  206MOL0     H27758   6.675   7.864   8.628  3.3926 -1.0424 -2.7777
  206MOL0     H27759   6.498   7.672   8.675  0.1416 -1.7030  0.9878
  206MOL0     H27760   6.633   7.566   8.701 -2.6757 -1.0817 -0.5597
  206MOL0     H27761   6.552   7.836   8.412 -0.6409  0.0446  0.5490
  206MOL0     H27762   6.608   7.847   8.164 -0.7703  0.1307  1.8374
  206MOL0     H27763   6.657   7.696   8.084  1.7952 -0.4149  1.4882
  206MOL0     H27764   6.436   7.804   8.016 -4.3903 -0.9058 -0.1767
  206MOL0     H27765   6.383   7.787   8.186  1.1716  0.2807  0.9823
  206MOL0     H27766   6.392   7.525   8.144 -4.4594  1.4018  0.2102
  206MOL0     H27767   6.475   7.566   7.998  1.5498  0.2502  2.2982
  206MOL0     H27768   6.275   7.488   7.948 -0.1622  1.3878 -1.2588
  206MOL0     H27769   6.253   7.661   7.926  0.8410 -1.1960 -2.7170
  206MOL0     H27770   6.067   7.654   7.855  0.2834 -1.1094  0.0977
  206MOL0     H27771   5.767   7.766   7.756  1.8947  1.7790  4.4248
  206MOL0     H27772   5.903   7.682   7.680 -1.5536  5.4210 -1.6400
  206MOL0     H27773   5.752   7.594   7.708  1.3552  0.0163 -2.7317
  206MOL0     H27774   5.351   7.480   7.851  1.3375  0.2497  0.8428
  206MOL0     H27775   5.112   7.504   7.875  0.6258 -2.3132 -0.1568
  206MOL0     H27776   4.919   7.586   7.926 -1.9576 -0.6161 -0.9163
  206MOL0     H27777   4.874   7.445   8.024  0.3677 -0.0093  3.0155
  206MOL0     H27778   4.759   7.720   8.020  1.6415 -1.1122 -1.5352
  206MOL0     H27779   4.678   7.572   7.972 -0.4058  1.7689 -0.5533
  206MOL0     H27780   4.775   7.608   8.259  1.5485  0.7493 -1.2641
  206MOL0     H27781   4.699   7.465   8.190 -0.5557 -0.0857  0.7029
  206MOL0     H27782   4.483   7.563   8.166  1.2271 -4.2825  2.9923
  206MOL0     H27783   4.524   7.583   8.321 -2.0358  1.5390 -0.2152
  206MOL0     H27784   4.561   7.822   8.127 -0.0320  0.6107  1.0578
  206MOL0     H27785   4.573   7.816   8.300 -3.2371  1.7476  1.0826
  206MOL0     H27786   4.334   7.733   8.312 -2.9030 -0.4860 -1.7364
  206MOL0     H27787   4.354   7.898   8.258 -0.3264 -0.4965 -1.7560
  206MOL0     H27788   4.192   7.766   8.118 -0.1564 -3.7036 -2.5728
  206MOL0     H27789   4.306   7.637   8.091 -0.2746 -1.8418  2.9787
  206MOL0     H27790   4.257   7.828   7.903 -0.1275  2.0705  0.5017
  206MOL0     H27791   4.426   7.769   7.941 -0.3436  2.3240 -4.7096
  206MOL0     H27792   5.176   7.653   8.278  1.5230  1.1210 -0.4544
  206MOL0     H27793   5.404   7.610   8.266 -2.4267 -1.9810  2.2005
  206MOL0     H27794   5.742   7.486   8.195 -0.5826  1.2415  0.1620
  206MOL0     H27795   5.986   7.495   8.243  0.5892 -0.1578 -0.1537
  206MOL0     H27796   7.733   7.668   8.610  1.5717 -0.1641 -1.7717
  206MOL0     H27797   7.919   7.484   8.599 -1.5990  1.4259 -2.6940
  206MOL0     H27798   7.977   6.873   8.530  0.2866 -1.9567  2.6883
  206MOL0     H27799   8.225   6.784   8.526  1.7649  0.8625 -1.9174
  206MOL0     H27800   8.628   6.919   8.543 -0.2241  0.7227  0.1233
  206MOL0     H27801   8.552   7.067   8.556 -2.0687  0.8532  0.6314
  206MOL0     H27802   8.510   7.027   8.805 -1.8259 -4.3949 -0.0256
  206MOL0     H27803   8.692   7.034   8.757  0.3134  0.3411  0.8400
  206MOL0     H27804   8.743   6.834   8.803  1.5618  1.5008  1.2609
  206MOL0     H27805   8.598   6.756   8.786  1.5332 -0.2303  0.4946
  206MOL0     H27806   8.620   6.981   9.003 -1.4601  1.0732 -1.3935
  206MOL0     H27807   8.658   6.811   9.040 -2.0822  0.6273  1.4325
  206MOL0     H27808   8.265   6.748   9.024 -0.0245 -0.0047  0.6557
  206MOL0     H27809   8.380   7.162   8.633 -0.7514 -0.6616  3.1695
  206MOL0     H27810   8.145   7.250   8.631 -2.8783 -0.0094 -2.4735
  207MOL0     O27811   3.046   4.188   0.744  0.6201  0.5048  0.4282
  207MOL0     C27812   2.998   4.095   0.814  0.0743 -0.5860  0.1236
  207MOL0     O27813   2.999   3.955   0.794  0.8728  0.0078 -0.1324
  207MOL0     C27814   3.065   3.898   0.687 -0.2140 -0.0214 -0.8196
  207MOL0     C27815   3.127   3.773   0.715 -0.0344  0.2789 -0.3543
  207MOL0     C27816   3.191   3.706   0.618 -0.5166  0.0733  0.7057
  207MOL0     C27817   3.199   3.755   0.486 -0.2900  0.0503  0.0398
  207MOL0     O27818   3.258   3.686   0.386 -0.5074 -0.1388 -0.0386
  207MOL0     C27819   3.354   3.589   0.424 -0.0443  0.1203  0.7222
  207MOL0     C27820   3.434   3.541   0.295 -0.7326 -0.8308  0.3534
  207MOL0     C27821   3.348   3.447   0.210  0.4010 -0.0700  0.1288
  207MOL0     C27822   3.409   3.438   0.075  0.2728  0.4143 -0.2305
  207MOL0     C27823   3.341   3.359  -0.036  0.2547  0.0085  0.8043
  207MOL0     C27824   3.410   3.383  -0.174 -1.2098 -0.9640 -0.2341
  207MOL0     C27825   3.408   3.263  -0.267  0.3527 -0.6474 -0.6957
  207MOL0     C27826   3.523   3.267  -0.366  0.4420  0.1512  0.6046
  207MOL0     N27827   3.512   3.181  -0.482  0.7786  0.5485 -0.3141
  207MOL0     C27828   3.506   3.043  -0.478 -0.7609  0.6057  0.4089
  207MOL0     C27829   3.472   3.007  -0.606 -0.6161  0.5022  1.0143
  207MOL0     C27830   3.495   2.874  -0.674  0.6591 -0.4280  0.2842
  207MOL0     C27831   3.645   2.863  -0.730 -0.0865  0.7132  0.2287
  207MOL0     C27832   3.687   2.716  -0.749 -0.5439  0.3128  0.6962
  207MOL0     C27833   3.634   2.661  -0.882 -0.9995 -0.5075  0.1575
  207MOL0     O27834   3.691   2.535  -0.892  0.9582  0.0823  0.0917
  207MOL0     C27835   3.748   2.497  -1.012 -1.4878 -0.1177  0.7134
  207MOL0     C27836   3.691   2.518  -1.131 -0.4360  0.7971 -0.4121
  207MOL0     C27837   3.756   2.479  -1.245 -0.2742  0.8823  0.1341
  207MOL0     C27838   3.686   2.520  -1.375 -0.1156  0.3533 -0.3656
  207MOL0     C27839   3.888   2.414  -1.246  0.6769  0.3038  0.2054
  207MOL0     C27840   3.964   2.363  -1.366  0.6720  0.4406  0.0923
  207MOL0     O27841   4.074   2.291  -1.335 -0.5084  0.3789 -0.3728
  207MOL0     C27842   4.149   2.208  -1.416  0.7682  0.4681  0.3933
  207MOL0     C27843   4.152   2.209  -1.555 -0.8648 -0.6853  0.3477
  207MOL0     C27844   4.232   2.117  -1.626  0.4004 -0.3442 -0.1021
  207MOL0     C27845   4.311   2.016  -1.556 -0.3768 -0.0242 -0.2302
  207MOL0     O27846   4.388   1.921  -1.622 -0.5373 -0.6861  0.0049
  207MOL0     C27847   4.311   1.862  -1.733  0.7619 -0.3185  0.0793
  207MOL0     C27848   4.394   1.743  -1.782  0.2695 -0.4519  0.2665
  207MOL0     C27849   4.419   1.639  -1.660 -0.2942  0.3114  1.2557
  207MOL0     C27850   4.513   1.519  -1.699  0.2949 -0.0693  0.1053
  207MOL0     C27851   4.497   1.399  -1.612  0.6557  0.0512  0.6406
  207MOL0     C27852   4.575   1.280  -1.669 -0.1526  0.2978 -0.3031
  207MOL0     C27853   4.483   1.189  -1.756 -0.4073  0.0855  0.6728
  207MOL0     C27854   4.556   1.070  -1.819  0.3335  0.3912 -0.4231
  207MOL0    Cl27855   4.673   1.129  -1.938  0.7510 -0.0836  0.0623
  207MOL0     C27856   4.315   2.027  -1.411 -0.5809  0.7427  0.1244
  207MOL0     C27857   4.243   2.125  -1.352 -0.0606 -1.0800 -0.4360
  207MOL0     O27858   3.921   2.394  -1.475  0.2344 -0.2164 -0.7728
  207MOL0     C27859   3.934   2.383  -1.123 -0.7675 -0.2260  0.4221
  207MOL0     C27860   3.873   2.425  -1.009 -0.3319 -0.2089  0.2620
  207MOL0     N27861   3.450   3.125  -0.677 -0.3862 -0.4128 -0.1271
  207MOL0     N27862   3.481   3.225  -0.597 -0.0521  0.0140  0.8648
  207MOL0     C27863   3.132   3.875   0.459  0.5464  0.4919  0.1039
  207MOL0     C27864   3.073   3.948   0.560  0.6677  0.2408  0.4146
  207MOL0     C27865   2.918   4.154   0.932  0.4225  0.2808 -1.1292
  207MOL0     C27866   2.858   4.285   0.936 -0.3834 -0.0533  0.1153
  207MOL0     C27867   2.770   4.315   1.041 -0.5193 -0.9278  0.8673
  207MOL0     C27868   2.757   4.232   1.146 -0.0206 -1.6971 -0.3831
  207MOL0     O27869   2.704   4.263   1.269  0.7231 -0.0707  0.5055
  207MOL0     C27870   2.564   4.288   1.259  0.3822  0.3323 -0.3205
  207MOL0     C27871   2.511   4.336   1.395 -0.0307 -0.4577 -0.1137
  207MOL0     C27872   2.555   4.245   1.509  0.1092  0.1792  0.2955
  207MOL0     C27873   2.468   4.265   1.634  0.1607  0.0096 -0.0421
  207MOL0     C27874   2.420   4.398   1.670 -0.2116  0.4394 -0.2520
  207MOL0     C27875   2.378   4.497   1.722  0.6124 -0.9966  0.1832
  207MOL0     C27876   2.824   4.114   1.151  0.1596 -0.1230 -0.4672
  207MOL0     C27877   2.896   4.068   1.047  0.1447 -1.0505  1.0424
  207MOL0     H27878   3.128   3.731   0.815  1.0380 -0.1842 -0.5552
  207MOL0     H27879   3.229   3.609   0.647  0.5043  0.5269  0.9409
  207MOL0     H27880   3.420   3.634   0.498  1.0641 -1.3738  0.6773
  207MOL0     H27881   3.303   3.507   0.474  0.0661  0.1196  0.8359
  207MOL0     H27882   3.481   3.625   0.243  1.0617 -1.7706  0.4013
  207MOL0     H27883   3.519   3.478   0.320  2.7957  1.9751 -3.2354
  207MOL0     H27884   3.324   3.362   0.275  0.0577  1.7300  2.4566
  207MOL0     H27885   3.254   3.497   0.184 -0.8220 -0.1941  3.7642
  207MOL0     H27886   3.411   3.543   0.044 -2.5166  0.2597 -1.1938
  207MOL0     H27887   3.508   3.393   0.087 -1.1103 -2.4331  1.5160
  207MOL0     H27888   3.359   3.256  -0.005  0.6397 -1.4500 -3.6323
  207MOL0     H27889   3.237   3.387  -0.021  0.0807 -0.4648  0.4756
  207MOL0     H27890   3.377   3.479  -0.215  1.9131  0.7789  0.9866
  207MOL0     H27891   3.517   3.403  -0.158 -1.8434  3.8758 -0.6252
  207MOL0     H27892   3.417   3.171  -0.208 -0.4928 -0.0462  0.4202
  207MOL0     H27893   3.305   3.257  -0.303  0.3213  1.1032 -0.9986
  207MOL0     H27894   3.618   3.250  -0.315  1.3183  2.8978  0.0423
  207MOL0     H27895   3.533   3.366  -0.411  0.0304 -0.6171 -1.2823
  207MOL0     H27896   3.535   2.971  -0.402  1.0914 -3.1073 -3.4235
  207MOL0     H27897   3.477   2.793  -0.603 -0.6429  1.4063  2.1539
  207MOL0     H27898   3.429   2.853  -0.759  1.3753 -1.9557  0.0821
  207MOL0     H27899   3.716   2.917  -0.666 -0.4780 -0.1600  1.4291
  207MOL0     H27900   3.642   2.909  -0.829 -4.1822 -0.6720 -0.4557
  207MOL0     H27901   3.657   2.655  -0.663 -2.0040  2.4446  1.7961
  207MOL0     H27902   3.796   2.715  -0.748 -0.5245  1.3100  1.0779
  207MOL0     H27903   3.673   2.722  -0.963  3.1780 -0.4829  1.9391
  207MOL0     H27904   3.525   2.655  -0.876 -0.8854 -2.3873  1.1927
  207MOL0     H27905   3.591   2.562  -1.132 -0.2658  1.2715  1.1741
  207MOL0     H27906   3.746   2.596  -1.425  0.6712 -1.0032 -1.5801
  207MOL0     H27907   3.680   2.432  -1.441 -2.0054 -2.6678  3.4167
  207MOL0     H27908   3.584   2.559  -1.366 -0.6093 -0.6304 -1.4230
  207MOL0     H27909   4.077   2.264  -1.611 -0.7795 -3.1853 -2.4640
  207MOL0     H27910   4.244   2.122  -1.733  0.9120 -1.3691 -0.1047
  207MOL0     H27911   4.211   1.831  -1.702  0.2146  1.8855  0.7317
  207MOL0     H27912   4.306   1.935  -1.814  0.7896 -0.0413  0.3240
  207MOL0     H27913   4.346   1.686  -1.862 -1.1656  0.3761  0.5003
  207MOL0     H27914   4.486   1.789  -1.821 -0.9284  2.5112  0.6895
  207MOL0     H27915   4.319   1.611  -1.626 -0.0158  0.9151  2.6125
  207MOL0     H27916   4.476   1.682  -1.578 -0.0837  0.8277  0.8413
  207MOL0     H27917   4.499   1.492  -1.804  0.3421  1.5902 -0.3489
  207MOL0     H27918   4.619   1.543  -1.691  1.0097 -1.7899 -2.8856
  207MOL0     H27919   4.393   1.365  -1.616  0.3608  0.9836 -0.4627
  207MOL0     H27920   4.521   1.413  -1.506  1.2711 -1.2008  0.6764
  207MOL0     H27921   4.654   1.310  -1.739  0.1449 -1.4093 -0.7666
  207MOL0     H27922   4.627   1.235  -1.583  2.2951  0.2972 -1.6726
  207MOL0     H27923   4.444   1.240  -1.844 -0.3206 -0.7553  0.1313
  207MOL0     H27924   4.404   1.148  -1.692 -1.1400  1.2598  0.5385
  207MOL0     H27925   4.493   1.003  -1.879 -0.0499 -0.4773  0.8887
  207MOL0     H27926   4.581   0.998  -1.740 -0.9212  0.4727  0.0732
  207MOL0     H27927   4.386   1.961  -1.363 -1.7211  0.5748  1.6272
  207MOL0     H27928   4.247   2.131  -1.244 -0.9273  2.5860 -0.4740
  207MOL0     H27929   4.023   2.324  -1.106 -0.0141  0.7644 -0.0425
  207MOL0     H27930   3.914   2.406  -0.910 -0.2051 -1.4912 -0.0200
  207MOL0     H27931   3.110   3.910   0.358 -3.2332 -0.9996  0.2475
  207MOL0     H27932   3.013   4.033   0.528  2.3051  1.8674  1.4266
  207MOL0     H27933   2.855   4.358   0.855 -2.7770 -3.0707 -2.8027
  207MOL0     H27934   2.734   4.417   1.048 -0.3350 -0.9700  3.1763
  207MOL0     H27935   2.546   4.369   1.187 -2.4195  0.0549 -0.0399
  207MOL0     H27936   2.512   4.195   1.233  0.8074  0.3042 -1.1145
  207MOL0     H27937   2.402   4.329   1.387  0.1611 -3.7589 -1.6879
  207MOL0     H27938   2.550   4.436   1.411  0.8845 -0.4341 -2.1177
  207MOL0     H27939   2.662   4.257   1.529  0.1739 -0.3302  0.2567
  207MOL0     H27940   2.551   4.143   1.469  0.0793  1.2226 -2.5828
  207MOL0     H27941   2.536   4.238   1.715  2.1865 -1.0986 -2.0186
  207MOL0     H27942   2.376   4.205   1.631  0.4275 -0.3807 -0.6674
  207MOL0     H27943   2.324   4.582   1.759 -3.9760 -2.9510 -1.1734
  207MOL0     H27944   2.821   4.058   1.244  3.7968  2.5886  1.5347
  207MOL0     H27945   2.947   3.972   1.052 -0.2680 -1.3547 -0.1783
  208MOL0     O27946   3.872   4.555   0.551 -0.2834  0.1366 -0.4298
  208MOL0     C27947   3.765   4.560   0.496  0.5935 -0.4945  0.2434
  208MOL0     O27948   3.642   4.553   0.559  1.6831 -0.6111 -0.2476
  208MOL0     C27949   3.621   4.589   0.691 -0.6652 -0.1896 -0.1531
  208MOL0     C27950   3.543   4.506   0.768  0.5751 -0.2846 -0.5399
  208MOL0     C27951   3.536   4.535   0.907  0.8372 -0.2710  0.3700
  208MOL0     C27952   3.615   4.641   0.961  0.2797 -0.4692 -0.1518
  208MOL0     O27953   3.613   4.650   1.096  0.4157  0.6852 -0.8700
  208MOL0     C27954   3.681   4.761   1.151 -0.5846  0.6271  1.1127
  208MOL0     C27955   3.688   4.752   1.302  0.1072 -0.0262 -0.1400
  208MOL0     C27956   3.797   4.842   1.373  0.4580 -0.0917 -0.3653
  208MOL0     C27957   3.836   4.972   1.307  0.6929  0.2174 -0.4215
  208MOL0     C27958   3.957   4.972   1.215  0.3762 -0.6726 -0.0982
  208MOL0     C27959   3.928   5.060   1.088  0.5274  0.7333  0.6851
  208MOL0     C27960   4.060   5.100   1.001  0.9302  0.8506 -0.0064
  208MOL0     C27961   4.040   5.173   0.869 -0.0265 -0.5589  0.0395
  208MOL0     N27962   3.979   5.086   0.770  0.2604 -0.5905  1.2062
  208MOL0     C27963   4.050   5.035   0.664  0.1959 -0.2216  0.2837
  208MOL0     C27964   3.961   4.974   0.590  0.3900  0.2787 -0.5875
  208MOL0     C27965   3.973   4.890   0.468  0.0308 -0.0266 -0.0672
  208MOL0     C27966   4.049   4.945   0.348  0.5916  0.7945 -0.4298
  208MOL0     C27967   4.049   4.852   0.226 -0.0391  0.0651  1.2714
  208MOL0     C27968   4.110   4.938   0.106  0.1800 -0.1801  0.1638
  208MOL0     O27969   4.177   4.853   0.012  0.0845 -1.1862 -0.5019
  208MOL0     C27970   4.222   4.905  -0.107 -0.0534  0.2984 -0.1185
  208MOL0     C27971   4.270   4.814  -0.201 -0.0185 -0.4267  0.1382
  208MOL0     C27972   4.322   4.855  -0.324  0.1882  0.0758 -0.1182
  208MOL0     C27973   4.364   4.735  -0.416  0.2289  0.9023  0.3530
  208MOL0     C27974   4.330   4.998  -0.356  0.1661 -0.2939 -0.5017
  208MOL0     C27975   4.393   5.051  -0.478  0.7460  0.6208 -0.2725
  208MOL0     O27976   4.367   5.186  -0.496 -0.4532 -0.1981  0.1377
  208MOL0     C27977   4.435   5.256  -0.599 -1.3897  0.4565  0.6011
  208MOL0     C27978   4.573   5.278  -0.591 -0.6470  0.1586  0.4138
  208MOL0     C27979   4.639   5.359  -0.691 -1.0394  0.4044  0.2108
  208MOL0     C27980   4.575   5.403  -0.809 -0.9319  0.7960  0.1279
  208MOL0     O27981   4.653   5.457  -0.908  0.3817  1.0832  0.4233
  208MOL0     C27982   4.595   5.520  -1.030 -0.0295 -0.0810 -0.6483
  208MOL0     C27983   4.683   5.534  -1.151  0.6949  0.1361 -0.4462
  208MOL0     C27984   4.739   5.393  -1.202  0.3195 -0.3294 -0.3720
  208MOL0     C27985   4.880   5.390  -1.236 -0.7416 -0.1461  0.2754
  208MOL0     C27986   4.942   5.450  -1.373  0.5735  1.6711 -0.1382
  208MOL0     C27987   4.941   5.603  -1.385  0.3698 -0.6403  0.2009
  208MOL0     C27988   4.963   5.651  -1.528  1.2580 -0.7227 -0.2875
  208MOL0     C27989   4.971   5.803  -1.539 -0.3052  1.1359 -0.1946
  208MOL0    Cl27990   4.805   5.875  -1.570 -0.0580  0.2194 -0.1047
  208MOL0     C27991   4.439   5.389  -0.799  0.3331 -0.8255 -0.3363
  208MOL0     C27992   4.373   5.327  -0.697  0.6300  0.2638 -0.3341
  208MOL0     O27993   4.461   4.978  -0.544  0.4568 -0.2626 -0.4292
  208MOL0     C27994   4.286   5.096  -0.255 -0.3622  0.0205  0.6569
  208MOL0     C27995   4.224   5.042  -0.139 -0.2637  0.2524 -0.5982
  208MOL0     N27996   3.835   4.988   0.650 -0.3337  0.1216  0.4622
  208MOL0     N27997   3.850   5.055   0.757 -0.0352  1.0601  0.9419
  208MOL0     C27998   3.677   4.734   0.873 -0.8221 -0.4797 -0.6867
  208MOL0     C27999   3.677   4.703   0.741  0.3741  1.1735  0.5893
  208MOL0     C28000   3.767   4.530   0.353 -0.1779 -0.0859 -0.4682
  208MOL0     C28001   3.888   4.535   0.280  0.4246 -0.7049 -0.4434
  208MOL0     C28002   3.891   4.500   0.139 -0.1455 -0.2289  0.0991
  208MOL0     C28003   3.778   4.482   0.071  0.5387 -0.8273  0.6218
  208MOL0     O28004   3.779   4.463  -0.065  0.1719 -0.1719 -0.3338
  208MOL0     C28005   3.902   4.475  -0.136 -0.5532  0.8802 -0.4063
  208MOL0     C28006   3.871   4.476  -0.286  0.5647  0.3467  0.8407
  208MOL0     C28007   3.799   4.607  -0.342 -0.6222  0.4316  0.5684
  208MOL0     C28008   3.676   4.653  -0.252  0.4024  0.5699  0.3657
  208MOL0     C28009   3.625   4.783  -0.297 -0.4574  0.4170 -0.3890
  208MOL0     C28010   3.580   4.893  -0.329 -0.0135 -0.0454 -0.2164
  208MOL0     C28011   3.657   4.483   0.145 -0.0298  0.3428  0.1636
  208MOL0     C28012   3.643   4.505   0.284 -0.5817  0.3087 -0.5732
  208MOL0     H28013   3.488   4.428   0.717  0.1632  0.8355 -1.8714
  208MOL0     H28014   3.480   4.474   0.978 -0.2300  3.2190  2.7714
  208MOL0     H28015   3.787   4.759   1.123 -1.2533  1.0064 -1.7736
  208MOL0     H28016   3.644   4.862   1.131  2.9751  2.1751  1.5479
  208MOL0     H28017   3.592   4.788   1.342  0.7149  1.5382 -0.0440
  208MOL0     H28018   3.699   4.647   1.331 -3.9036 -0.8693 -1.0126
  208MOL0     H28019   3.753   4.859   1.472 -1.6596  1.8987 -1.5301
  208MOL0     H28020   3.889   4.784   1.382  0.2978 -0.8793 -2.9602
  208MOL0     H28021   3.753   5.021   1.255 -0.5727 -0.4596  0.9329
  208MOL0     H28022   3.846   5.040   1.392 -1.8410  1.2117 -0.8350
  208MOL0     H28023   4.045   5.014   1.264  0.4756 -0.6201 -0.3226
  208MOL0     H28024   3.982   4.870   1.183  3.1186  0.4258 -1.7901
  208MOL0     H28025   3.858   5.002   1.026  3.1691 -0.0111 -1.8047
  208MOL0     H28026   3.882   5.152   1.125  1.9870  0.6529  2.8518
  208MOL0     H28027   4.119   5.170   1.062  1.6881 -1.1523  1.6633
  208MOL0     H28028   4.126   5.015   0.982 -0.7046 -0.0325 -2.0396
  208MOL0     H28029   4.125   5.228   0.829 -1.5763  4.2487  2.4920
  208MOL0     H28030   3.978   5.257   0.901 -0.3099 -1.0177  0.7338
  208MOL0     H28031   4.156   5.049   0.646 -0.4843 -0.2583 -5.3344
  208MOL0     H28032   4.022   4.799   0.504  0.4505  1.4584  3.6198
  208MOL0     H28033   3.870   4.870   0.436 -0.9664  4.0678 -0.0521
  208MOL0     H28034   4.154   4.969   0.370  0.9174 -1.1092  0.2921
  208MOL0     H28035   3.994   5.037   0.328 -0.2925  1.0852  2.8138
  208MOL0     H28036   3.962   4.804   0.182  1.1005 -0.2542 -0.7570
  208MOL0     H28037   4.111   4.769   0.260 -1.7785 -2.1043 -0.5788
  208MOL0     H28038   4.176   5.019   0.137 -1.2933  1.2309 -0.2375
  208MOL0     H28039   4.028   4.977   0.045  0.8209 -1.4235 -1.5836
  208MOL0     H28040   4.277   4.705  -0.195 -0.7516 -0.4938 -0.0640
  208MOL0     H28041   4.420   4.762  -0.506 -0.6731 -1.2276 -0.9232
  208MOL0     H28042   4.406   4.643  -0.373  0.9419  0.4942 -1.1488
  208MOL0     H28043   4.277   4.697  -0.471  1.5740  0.4714 -1.6119
  208MOL0     H28044   4.630   5.230  -0.512 -0.2159 -1.3114 -0.7352
  208MOL0     H28045   4.742   5.390  -0.681 -1.3995  2.3131 -1.4571
  208MOL0     H28046   4.511   5.457  -1.062  0.4286 -0.5294 -0.9703
  208MOL0     H28047   4.552   5.618  -1.005  3.6778  1.3798  0.6225
  208MOL0     H28048   4.622   5.575  -1.232 -0.4725 -2.0627 -0.7745
  208MOL0     H28049   4.767   5.602  -1.135  0.8762  0.5635 -2.8019
  208MOL0     H28050   4.680   5.353  -1.285  0.0031  0.1423 -0.3755
  208MOL0     H28051   4.732   5.309  -1.131  1.1769 -1.7769 -1.9166
  208MOL0     H28052   4.929   5.449  -1.158 -3.2255  3.3147 -0.5561
  208MOL0     H28053   4.917   5.287  -1.232 -0.0513 -0.0678 -2.2128
  208MOL0     H28054   4.872   5.421  -1.452 -2.3976  1.7803  2.2309
  208MOL0     H28055   5.042   5.411  -1.391  0.4508  2.6101 -3.4920
  208MOL0     H28056   4.847   5.648  -1.354  0.4658  2.2260 -3.0426
  208MOL0     H28057   5.011   5.648  -1.314 -2.2226 -0.0707  2.5736
  208MOL0     H28058   4.875   5.619  -1.585 -0.5370  0.5517  1.6095
  208MOL0     H28059   5.050   5.602  -1.571  3.2845 -0.6695  3.3343
  208MOL0     H28060   5.032   5.833  -1.625 -0.3179 -2.6502 -1.6987
  208MOL0     H28061   5.025   5.837  -1.449  1.1362  2.4182 -1.4775
  208MOL0     H28062   4.380   5.418  -0.885  2.1649 -2.2770 -2.2003
  208MOL0     H28063   4.264   5.326  -0.704  0.7070  0.7809 -1.8552
  208MOL0     H28064   4.277   5.202  -0.278 -0.9417  0.2810  2.0134
  208MOL0     H28065   4.163   5.108  -0.077  0.7432 -1.0133  1.8752
  208MOL0     H28066   3.734   4.819   0.908  1.2352 -1.0479 -2.4734
  208MOL0     H28067   3.733   4.757   0.665  1.4399 -2.5448 -1.5323
  208MOL0     H28068   3.983   4.556   0.328  0.3114  0.7996 -0.8481
  208MOL0     H28069   3.983   4.520   0.085  1.2214 -1.5892  1.8116
  208MOL0     H28070   3.958   4.566  -0.112 -0.5487  0.1775  2.6337
  208MOL0     H28071   3.961   4.388  -0.106  1.9606  2.8286  0.6372
  208MOL0     H28072   3.813   4.388  -0.317  1.3979  0.1156 -0.1255
  208MOL0     H28073   3.968   4.462  -0.335 -0.7586 -2.6022 -1.2988
  208MOL0     H28074   3.770   4.581  -0.445  2.1616 -0.2135 -0.1421
  208MOL0     H28075   3.877   4.683  -0.351  1.3688 -1.3853  1.6608
  208MOL0     H28076   3.713   4.667  -0.151  1.4362  1.3994 -0.1116
  208MOL0     H28077   3.604   4.570  -0.256  3.1882 -2.0117 -0.6901
  208MOL0     H28078   3.541   4.988  -0.362 -1.7561  0.1278  2.1297
  208MOL0     H28079   3.564   4.480   0.089 -0.2361 -3.0649  0.4997
  208MOL0     H28080   3.555   4.484   0.343  1.3179 -2.0603  1.6361
  209MOL0     O28081   1.233   3.367   2.592 -0.3529  0.2371 -0.0541
  209MOL0     C28082   1.345   3.384   2.555 -0.2459 -0.9005  0.3548
  209MOL0     O28083   1.454   3.443   2.617 -0.5079 -0.3742 -0.7473
  209MOL0     C28084   1.459   3.465   2.755  1.3408 -0.3351 -0.5498
  209MOL0     C28085   1.344   3.501   2.833  0.1990  0.1662 -0.4328
  209MOL0     C28086   1.361   3.527   2.973  0.5583  0.1797  0.2255
  209MOL0     C28087   1.490   3.561   3.021 -0.3416 -0.5514  0.0446
  209MOL0     O28088   1.498   3.599   3.152 -0.1123 -0.3806 -0.0175
  209MOL0     C28089   1.605   3.549   3.232  0.3466  0.2400  0.3842
  209MOL0     C28090   1.581   3.607   3.375 -0.2986 -0.2624 -0.8158
  209MOL0     C28091   1.696   3.576   3.458  0.4203  0.1510 -0.5625
  209MOL0     C28092   1.662   3.628   3.600  0.5263 -0.6263  0.2088
  209MOL0     C28093   1.773   3.603   3.688  0.2588 -0.9238 -0.1259
  209MOL0     C28094   1.748   3.651   3.836  0.0931  0.2388 -0.5527
  209MOL0     C28095   1.871   3.641   3.920 -0.2913  0.9074  0.5076
  209MOL0     C28096   1.859   3.716   4.052  0.3555  0.5211  0.4568
  209MOL0     N28097   1.903   3.859   4.051  0.2994  0.1921 -0.0711
  209MOL0     C28098   1.982   3.914   4.155 -0.8949 -0.0254  0.3941
  209MOL0     C28099   1.969   4.045   4.137 -0.7149 -0.4297 -0.4682
  209MOL0     C28100   2.042   4.135   4.222 -0.4130  0.1642 -1.1007
  209MOL0     C28101   1.995   4.129   4.362 -0.6084  0.5476 -0.3164
  209MOL0     C28102   2.002   4.262   4.440 -0.1149  0.2558  0.2451
  209MOL0     C28103   2.154   4.300   4.451 -0.0860 -0.1232 -0.7073
  209MOL0     O28104   2.163   4.422   4.524  0.1551 -0.2703  0.2662
  209MOL0     C28105   2.219   4.422   4.647 -1.1450 -0.3238 -0.5090
  209MOL0     C28106   2.319   4.517   4.673  1.2199  1.9795 -0.1386
  209MOL0     C28107   2.373   4.524   4.800 -1.0019 -0.0111  0.1460
  209MOL0     C28108   2.497   4.604   4.803 -0.1180 -0.8157  0.9117
  209MOL0     C28109   2.334   4.435   4.898  0.3995  0.0538 -0.0153
  209MOL0     C28110   2.379   4.434   5.042 -0.4321 -0.2514 -0.0682
  209MOL0     O28111   2.440   4.541   5.089  0.0213  0.3325 -0.3015
  209MOL0     C28112   2.471   4.537   5.227  0.6401  0.0417 -0.1138
  209MOL0     C28113   2.395   4.478   5.336 -0.2557  0.5134 -0.0492
  209MOL0     C28114   2.449   4.458   5.462 -0.7114  0.0925  0.3212
  209MOL0     C28115   2.580   4.511   5.490 -0.1851  0.4454  0.4077
  209MOL0     O28116   2.615   4.512   5.620  0.4337  0.1036  0.0587
  209MOL0     C28117   2.747   4.507   5.667  0.1178 -0.3192  0.2168
  209MOL0     C28118   2.816   4.374   5.609 -0.5003  0.1708  0.2416
  209MOL0     C28119   2.960   4.358   5.659  0.5768  0.1692 -0.2636
  209MOL0     C28120   3.042   4.487   5.653  0.4882 -0.1037  0.0966
  209MOL0     C28121   3.186   4.444   5.664 -1.5815 -0.2934  0.7150
  209MOL0     C28122   3.290   4.549   5.690 -0.0106 -0.5562  0.2170
  209MOL0     C28123   3.434   4.507   5.731 -0.8765 -0.6300 -0.1234
  209MOL0     C28124   3.421   4.444   5.870  0.3726 -0.1263 -0.0463
  209MOL0    Cl28125   3.563   4.378   5.942  0.3167  0.4311 -0.6627
  209MOL0     C28126   2.651   4.565   5.385 -0.2917  0.4709  0.6312
  209MOL0     C28127   2.603   4.573   5.256  0.5615 -0.1055  0.0426
  209MOL0     O28128   2.360   4.329   5.105  0.0404  0.1693 -0.4289
  209MOL0     C28129   2.231   4.341   4.870  0.1982  0.0153 -0.8660
  209MOL0     C28130   2.175   4.333   4.741 -0.2167  0.3426  0.3394
  209MOL0     N28131   1.890   4.080   4.035  0.1424 -0.2389  0.1263
  209MOL0     N28132   1.839   3.964   3.989 -0.5509 -0.0969  0.3584
  209MOL0     C28133   1.601   3.539   2.940 -0.2030 -0.1713  0.6032
  209MOL0     C28134   1.588   3.485   2.804 -0.2944  0.1729 -0.2104
  209MOL0     C28135   1.377   3.335   2.416  0.9054  0.1996 -0.3707
  209MOL0     C28136   1.281   3.265   2.347  0.5776 -1.2616 -0.1416
  209MOL0     C28137   1.316   3.216   2.219 -0.2177 -0.5610 -0.2089
  209MOL0     C28138   1.430   3.256   2.156 -0.0603  0.7671  0.2990
  209MOL0     O28139   1.446   3.229   2.025  0.6955  0.2388  0.5498
  209MOL0     C28140   1.564   3.166   1.984  0.1526  0.5255  0.6800
  209MOL0     C28141   1.567   3.018   2.046  0.3194 -0.4966  1.0146
  209MOL0     C28142   1.711   2.957   2.011  0.3186 -0.5281 -0.3926
  209MOL0     C28143   1.749   2.950   1.859  0.4458  0.1178 -0.7287
  209MOL0     C28144   1.876   2.872   1.852  0.0543  0.6165  1.1734
  209MOL0     C28145   1.986   2.813   1.845  0.1177 -0.4213  0.2431
  209MOL0     C28146   1.524   3.331   2.224  0.1731  0.8802  0.0428
  209MOL0     C28147   1.505   3.368   2.354  0.5911 -0.4107 -0.5128
  209MOL0     H28148   1.243   3.490   2.795 -0.2478 -0.8319  0.9675
  209MOL0     H28149   1.275   3.542   3.036  1.2347 -0.0456  1.2235
  209MOL0     H28150   1.603   3.440   3.226  1.7353  0.1380  1.4204
  209MOL0     H28151   1.697   3.591   3.188 -0.0455  1.1708  0.4350
  209MOL0     H28152   1.576   3.715   3.355  2.4499  0.2406  0.8216
  209MOL0     H28153   1.487   3.570   3.417 -0.0177  0.9084  0.9769
  209MOL0     H28154   1.721   3.470   3.466  1.2151  0.4704  2.1018
  209MOL0     H28155   1.785   3.631   3.428  0.9457  0.0779  0.7934
  209MOL0     H28156   1.635   3.733   3.586  0.4641 -1.0578 -5.0134
  209MOL0     H28157   1.569   3.584   3.638 -1.4426  0.2636 -3.1449
  209MOL0     H28158   1.796   3.496   3.687  3.3929 -0.3895  1.1305
  209MOL0     H28159   1.866   3.650   3.654  1.1235 -3.9727 -2.3963
  209MOL0     H28160   1.712   3.755   3.832 -0.8691  0.0661  1.8261
  209MOL0     H28161   1.663   3.602   3.884 -0.8596  0.6840 -1.7342
  209MOL0     H28162   1.886   3.535   3.941 -0.4391  0.9946  1.0479
  209MOL0     H28163   1.956   3.683   3.865  1.7076 -1.2964  1.7839
  209MOL0     H28164   1.930   3.656   4.110  0.4593 -2.6981 -2.6019
  209MOL0     H28165   1.757   3.692   4.084  0.0827 -1.6434 -1.7111
  209MOL0     H28166   2.039   3.861   4.231 -0.3323  1.4531  1.0376
  209MOL0     H28167   2.150   4.143   4.203 -0.3972  0.5373 -0.8641
  209MOL0     H28168   2.011   4.238   4.200 -0.4320  0.0383 -1.6813
  209MOL0     H28169   2.045   4.051   4.420  0.8085  0.3117 -1.7853
  209MOL0     H28170   1.890   4.099   4.350  0.2257 -1.6238 -3.5417
  209MOL0     H28171   1.955   4.264   4.539  0.8195  2.1753  0.7075
  209MOL0     H28172   1.950   4.332   4.374  0.8657 -0.4898 -1.3777
  209MOL0     H28173   2.200   4.333   4.358  0.0886  1.8503  0.0333
  209MOL0     H28174   2.211   4.227   4.509  0.9408  2.5450  1.8889
  209MOL0     H28175   2.359   4.572   4.589 -0.1571  2.4547 -0.5126
  209MOL0     H28176   2.479   4.711   4.818  0.4097 -0.8877  2.2075
  209MOL0     H28177   2.553   4.561   4.886 -1.7422 -1.4434  1.7162
  209MOL0     H28178   2.552   4.590   4.709 -0.8966 -1.4856  0.5463
  209MOL0     H28179   2.297   4.433   5.322  1.0010 -3.2435  1.8575
  209MOL0     H28180   2.374   4.421   5.530 -1.3118  1.8672  0.6590
  209MOL0     H28181   2.787   4.607   5.647 -3.5523  1.6655  1.8274
  209MOL0     H28182   2.741   4.492   5.776 -0.1237  1.1335  0.4233
  209MOL0     H28183   2.757   4.288   5.644  2.3511 -1.3591  1.6328
  209MOL0     H28184   2.828   4.382   5.501  4.5591 -0.0833  0.5835
  209MOL0     H28185   3.017   4.282   5.606  1.8946  1.2902 -0.5184
  209MOL0     H28186   2.947   4.331   5.764 -3.0069 -1.3697 -0.9455
  209MOL0     H28187   3.031   4.552   5.565  2.1178  3.2043  2.1116
  209MOL0     H28188   3.018   4.554   5.736  2.5474 -0.2423  0.8524
  209MOL0     H28189   3.212   4.391   5.571  2.1220 -2.3842  2.6852
  209MOL0     H28190   3.173   4.378   5.751 -6.4361 -0.3163  0.2761
  209MOL0     H28191   3.308   4.605   5.598 -2.9809 -1.2716 -0.9033
  209MOL0     H28192   3.252   4.618   5.766 -1.8886 -0.2003 -0.9952
  209MOL0     H28193   3.497   4.596   5.739  0.6804 -1.7577  0.7053
  209MOL0     H28194   3.478   4.443   5.655 -0.3271  0.9020 -1.1369
  209MOL0     H28195   3.353   4.358   5.869 -3.9252  2.9565  0.6448
  209MOL0     H28196   3.376   4.517   5.937 -2.5068 -0.1868 -1.7633
  209MOL0     H28197   2.749   4.600   5.416 -0.9175  1.4552  1.5855
  209MOL0     H28198   2.662   4.620   5.177  2.2593 -2.6559 -0.3424
  209MOL0     H28199   2.191   4.277   4.948  2.3032  2.2127  2.2814
  209MOL0     H28200   2.095   4.265   4.714 -2.8246  2.9069  1.0620
  209MOL0     H28201   1.698   3.571   2.978  0.2376 -3.1431  2.3118
  209MOL0     H28202   1.666   3.441   2.744 -1.2400 -0.7102 -0.8235
  209MOL0     H28203   1.189   3.226   2.391  0.0871  1.7878  1.8602
  209MOL0     H28204   1.244   3.152   2.169  0.2038 -0.1651 -1.3483
  209MOL0     H28205   1.562   3.177   1.876 -0.7465  5.4034  0.9331
  209MOL0     H28206   1.661   3.212   2.006  0.8434 -0.2309 -0.6396
  209MOL0     H28207   1.494   2.952   1.998  0.9268 -1.2877  1.1803
  209MOL0     H28208   1.555   3.013   2.154 -2.1558 -3.7276  0.7503
  209MOL0     H28209   1.708   2.856   2.053 -0.9283 -1.2626 -2.1291
  209MOL0     H28210   1.779   3.021   2.069 -2.5956  2.0429  0.4948
  209MOL0     H28211   1.771   3.047   1.812  2.8221 -0.8485 -1.7790
  209MOL0     H28212   1.675   2.895   1.800  1.5337 -1.8725 -0.3151
  209MOL0     H28213   2.080   2.763   1.835  0.5752  0.5126 -0.2691
  209MOL0     H28214   1.609   3.378   2.176  0.7678 -0.3779 -0.1645
  209MOL0     H28215   1.585   3.425   2.399 -1.7023  1.5035  1.3961
  210MOL0     O28216  11.414   0.804   3.792 -0.2303  0.1416 -0.0711
  210MOL0     C28217  11.479   0.754   3.701  0.7304  0.1780  0.0647
  210MOL0     O28218  11.599   0.813   3.652 -0.0683 -0.6605  0.1251
  210MOL0     C28219  11.652   0.916   3.725 -0.0771 -0.8329 -0.1865
  210MOL0     C28220  11.738   0.886   3.829  0.7186  0.1616 -0.0985
  210MOL0     C28221  11.784   0.989   3.912 -0.4934 -0.3194 -0.6320
  210MOL0     C28222  11.754   1.122   3.892  0.0889 -0.1753 -0.5977
  210MOL0     O28223  11.832   1.225   3.958 -0.2686 -0.0002 -0.4525
  210MOL0     C28224  11.770   1.355   3.973  0.4348  0.2782 -0.2866
  210MOL0     C28225  11.670   1.356   4.097 -0.3676  0.1351  0.3086
  210MOL0     C28226  11.769   1.370   4.223  0.7964  0.3495  0.0730
  210MOL0     C28227  11.685   1.341   4.346  1.2682  0.4714 -0.6449
  210MOL0     C28228  11.592   1.460   4.382 -0.2344  0.0850  0.7004
  210MOL0     C28229  11.495   1.435   4.497 -0.4141  0.5206 -0.2317
  210MOL0     C28230  11.430   1.565   4.511  1.1741  0.2180 -0.0784
  210MOL0     C28231  11.378   1.574   4.661  0.3749  0.3575  0.1515
  210MOL0     N28232  11.248   1.510   4.680 -0.2872 -0.5358  0.0003
  210MOL0     C28233  11.226   1.377   4.711 -0.0166  0.0995 -0.1974
  210MOL0     C28234  11.094   1.369   4.719  0.0677 -0.2243 -0.7390
  210MOL0     C28235  11.001   1.252   4.746 -0.8381 -0.0002 -0.1724
  210MOL0     C28236  11.012   1.144   4.630 -0.8137 -0.9716 -0.0586
  210MOL0     C28237  10.947   1.199   4.504 -0.6088  0.3723 -0.0030
  210MOL0     C28238  11.022   1.161   4.380 -0.2393 -0.1790  0.3898
  210MOL0     O28239  11.144   1.231   4.375 -0.7708 -0.2245 -0.1734
  210MOL0     C28240  11.183   1.273   4.256 -0.1545 -0.1028  0.3481
  210MOL0     C28241  11.224   1.181   4.159 -0.1264 -0.3644  0.9043
  210MOL0     C28242  11.244   1.219   4.020 -0.3570 -0.0154 -0.0200
  210MOL0     C28243  11.294   1.118   3.922 -0.8996  0.2686  1.0338
  210MOL0     C28244  11.232   1.362   3.986  0.1016  0.8079  0.2764
  210MOL0     C28245  11.260   1.419   3.852  0.2082 -0.2213  0.1693
  210MOL0     O28246  11.298   1.556   3.848 -0.0289 -0.6113  0.0939
  210MOL0     C28247  11.301   1.624   3.730  0.1220  0.3813  0.8658
  210MOL0     C28248  11.220   1.599   3.616 -0.3946 -0.3352  0.2550
  210MOL0     C28249  11.235   1.684   3.503  1.1518 -1.1856  0.1133
  210MOL0     C28250  11.321   1.793   3.500  0.2472  0.1340  0.9611
  210MOL0     O28251  11.334   1.872   3.389  0.1689  0.5590  0.4705
  210MOL0     C28252  11.354   2.011   3.405 -0.0257  1.1512  0.2108
  210MOL0     C28253  11.310   2.074   3.276 -0.6679  0.2550  0.3525
  210MOL0     C28254  11.340   2.225   3.272  0.3695 -0.1275 -0.1418
  210MOL0     C28255  11.331   2.285   3.137  0.1139 -0.4295  1.0907
  210MOL0     C28256  11.469   2.280   3.070  0.3645  0.2399  0.1725
  210MOL0     C28257  11.452   2.341   2.925 -0.1612  0.3715  0.1094
  210MOL0     C28258  11.418   2.234   2.829 -0.4149 -0.9430 -0.3801
  210MOL0     C28259  11.423   2.271   2.675 -0.4416  0.3770 -0.7113
  210MOL0    Cl28260  11.344   2.137   2.577  0.2673 -0.1308 -0.3746
  210MOL0     C28261  11.403   1.807   3.603 -0.4685  0.0838 -0.1259
  210MOL0     C28262  11.386   1.736   3.718 -0.9372  0.2855 -0.5375
  210MOL0     O28263  11.241   1.339   3.755 -0.4787 -0.6012  0.0347
  210MOL0     C28264  11.213   1.452   4.100  0.4357 -0.8533  0.4981
  210MOL0     C28265  11.187   1.412   4.232 -0.5417  0.3992 -0.5027
  210MOL0     N28266  11.034   1.486   4.682  0.6532 -0.8466  0.1668
  210MOL0     N28267  11.130   1.571   4.670 -0.5661 -0.6581 -0.0342
  210MOL0     C28268  11.662   1.147   3.784 -0.0861 -0.6781  0.5447
  210MOL0     C28269  11.614   1.047   3.699  0.5112  0.0065 -0.5405
  210MOL0     C28270  11.417   0.634   3.634  0.3391  0.7976 -0.0810
  210MOL0     C28271  11.318   0.551   3.688  0.3133 -0.3712  0.2048
  210MOL0     C28272  11.261   0.440   3.609  0.2630 -0.1207 -0.1414
  210MOL0     C28273  11.330   0.385   3.498 -1.3862 -0.7305 -0.1846
  210MOL0     O28274  11.285   0.269   3.435  0.2778  1.2818 -0.1892
  210MOL0     C28275  11.384   0.169   3.410 -0.2568 -0.8732 -0.1846
  210MOL0     C28276  11.416   0.159   3.257  0.4295 -0.7570 -0.5457
  210MOL0     C28277  11.288   0.143   3.175 -0.1070  0.1525  0.5630
  210MOL0     C28278  11.326   0.134   3.024  0.2640 -0.6221 -0.3207
  210MOL0     C28279  11.219   0.129   2.931  0.5872 -0.3055 -0.4040
  210MOL0     C28280  11.123   0.137   2.862 -0.1651  0.2717 -0.6437
  210MOL0     C28281  11.448   0.461   3.463  0.2019  0.9164 -1.0200
  210MOL0     C28282  11.477   0.586   3.516  0.2027  0.4897  0.3870
  210MOL0     H28283  11.751   0.779   3.844 -2.2409 -0.3085 -0.2571
  210MOL0     H28284  11.851   0.961   3.993 -0.2370  2.9308  0.4195
  210MOL0     H28285  11.855   1.424   3.988  1.4386 -0.7637 -1.0576
  210MOL0     H28286  11.720   1.396   3.885 -0.3111  1.1148  0.5094
  210MOL0     H28287  11.600   1.440   4.101 -0.1131  0.7325 -3.8148
  210MOL0     H28288  11.601   1.271   4.096 -0.0914 -0.0906 -0.4512
  210MOL0     H28289  11.844   1.291   4.213  0.8642  0.4357 -0.1153
  210MOL0     H28290  11.806   1.472   4.241  3.1254 -0.8154  2.5540
  210MOL0     H28291  11.626   1.250   4.331 -0.1098  1.0553  0.9358
  210MOL0     H28292  11.755   1.315   4.427  1.5427 -2.2896 -1.6646
  210MOL0     H28293  11.661   1.541   4.406  0.5084 -0.3289  0.0352
  210MOL0     H28294  11.522   1.486   4.302 -2.3686 -2.4068  1.6166
  210MOL0     H28295  11.424   1.353   4.478  1.1195 -0.5622 -1.6635
  210MOL0     H28296  11.555   1.408   4.584 -3.4248 -1.9789  1.2705
  210MOL0     H28297  11.493   1.654   4.512 -0.5866  1.5241 -0.8790
  210MOL0     H28298  11.344   1.585   4.446  1.1050  0.3129  0.0397
  210MOL0     H28299  11.352   1.679   4.680 -1.2844 -0.4366  2.7685
  210MOL0     H28300  11.455   1.544   4.733 -0.4891  2.3542  2.0318
  210MOL0     H28301  11.303   1.310   4.748  1.7778  2.8509  1.4365
  210MOL0     H28302  11.048   1.210   4.835 -1.0282 -0.4145 -0.2682
  210MOL0     H28303  10.898   1.290   4.750  0.0067  2.4158  0.3305
  210MOL0     H28304  10.977   1.047   4.668  0.3311 -0.8168  1.4788
  210MOL0     H28305  11.120   1.132   4.619 -0.4133 -0.4245  2.6012
  210MOL0     H28306  10.933   1.308   4.501  0.3632  0.6888  3.2874
  210MOL0     H28307  10.850   1.151   4.488  0.2167 -0.9936 -1.2091
  210MOL0     H28308  10.953   1.192   4.300  0.4104  1.3120  0.3679
  210MOL0     H28309  11.034   1.052   4.381 -0.4354 -0.2589  3.8444
  210MOL0     H28310  11.242   1.078   4.187 -3.8816 -2.1173 -2.1720
  210MOL0     H28311  11.393   1.148   3.885 -0.1317 -3.3271 -0.3162
  210MOL0     H28312  11.322   1.022   3.967  1.6576  1.0649  1.3058
  210MOL0     H28313  11.229   1.118   3.834 -4.1916  2.2889  3.2724
  210MOL0     H28314  11.149   1.517   3.615 -0.5566 -0.2201  1.1645
  210MOL0     H28315  11.189   1.652   3.410  2.3828 -1.3660 -0.4606
  210MOL0     H28316  11.298   2.049   3.491 -0.8862 -1.1652  0.7350
  210MOL0     H28317  11.462   2.027   3.416  0.6505 -1.0432 -2.1748
  210MOL0     H28318  11.367   2.033   3.192  2.2693  3.0776  0.7780
  210MOL0     H28319  11.204   2.070   3.251 -0.3891  3.4599 -2.0964
  210MOL0     H28320  11.441   2.236   3.312 -0.3711  0.7133  1.5912
  210MOL0     H28321  11.273   2.278   3.341  0.7786  2.3124 -1.4861
  210MOL0     H28322  11.266   2.222   3.076  0.5804 -1.0530  1.2290
  210MOL0     H28323  11.296   2.388   3.128 -0.4486 -0.8254 -3.8731
  210MOL0     H28324  11.507   2.178   3.081 -0.2958  0.0425  0.6728
  210MOL0     H28325  11.531   2.351   3.126 -0.4963 -0.1657  1.6699
  210MOL0     H28326  11.388   2.430   2.922 -2.9236 -1.4027  2.0009
  210MOL0     H28327  11.549   2.376   2.888  0.3352  0.7206  1.6650
  210MOL0     H28328  11.314   2.204   2.844 -1.9860  2.6723 -2.5839
  210MOL0     H28329  11.491   2.159   2.859 -0.8687 -0.1867  2.9579
  210MOL0     H28330  11.520   2.305   2.636  0.4344 -1.6522 -0.4117
  210MOL0     H28331  11.353   2.354   2.663 -2.6325 -1.2414  0.2363
  210MOL0     H28332  11.488   1.875   3.598  1.1601 -1.6232  2.1491
  210MOL0     H28333  11.461   1.749   3.795 -3.1741 -1.5508  2.1548
  210MOL0     H28334  11.190   1.556   4.082 -2.3364 -1.5630 -0.6237
  210MOL0     H28335  11.160   1.481   4.311  3.5146  0.7520  0.8274
  210MOL0     H28336  11.642   1.248   3.751 -0.2010 -0.5682  0.9506
  210MOL0     H28337  11.537   1.075   3.628  0.2959 -2.1711 -1.2451
  210MOL0     H28338  11.281   0.556   3.790 -0.2117  0.8355 -0.0195
  210MOL0     H28339  11.177   0.388   3.652  0.8500 -1.1564 -0.2100
  210MOL0     H28340  11.474   0.169   3.472 -0.7331 -1.1919  0.5183
  210MOL0     H28341  11.341   0.071   3.432 -1.1650 -1.6389 -4.4332
  210MOL0     H28342  11.487   0.077   3.247 -0.0704 -1.0945 -1.3856
  210MOL0     H28343  11.462   0.249   3.216 -1.0650  0.5020  0.4200
  210MOL0     H28344  11.230   0.233   3.194  1.9737  1.8368 -0.5353
  210MOL0     H28345  11.232   0.051   3.194  1.7529 -0.9389  1.0259
  210MOL0     H28346  11.402   0.061   2.993  0.5599  0.6382 -2.8490
  210MOL0     H28347  11.372   0.230   2.999 -1.1683  1.2466  3.3886
  210MOL0     H28348  11.038   0.152   2.799 -0.9773 -0.1536  0.3181
  210MOL0     H28349  11.509   0.421   3.384 -0.5850  2.6417 -2.5824
  210MOL0     H28350  11.566   0.635   3.479 -1.0599  2.1481 -0.6155
  211MOL0     O28351   3.092   4.467   1.345 -0.8596  0.1378  0.5394
  211MOL0     C28352   3.021   4.529   1.258 -0.0245 -0.0604 -1.0367
  211MOL0     O28353   2.930   4.628   1.297  0.5752 -0.3408 -0.4565
  211MOL0     C28354   2.908   4.642   1.429  0.6547 -0.0726  0.5491
  211MOL0     C28355   2.935   4.760   1.500 -0.1370  1.1311 -0.0289
  211MOL0     C28356   2.914   4.758   1.642 -0.3862 -0.3620  0.1705
  211MOL0     C28357   2.851   4.655   1.710 -0.2379  0.4236 -0.2170
  211MOL0     O28358   2.828   4.682   1.846 -0.2137  0.1795 -0.0507
  211MOL0     C28359   2.759   4.590   1.932 -0.5414 -0.5634  0.1081
  211MOL0     C28360   2.608   4.622   1.964 -0.1459  0.0211 -0.8969
  211MOL0     C28361   2.581   4.764   2.029 -0.2908  0.0707  0.8671
  211MOL0     C28362   2.451   4.770   2.110  0.1613  0.2423 -0.5781
  211MOL0     C28363   2.380   4.901   2.132  0.1909  0.3679  0.7807
  211MOL0     C28364   2.246   4.894   2.219  0.0982  0.4230  0.8254
  211MOL0     C28365   2.194   5.032   2.273 -0.1154  1.0760  0.2708
  211MOL0     C28366   2.047   5.045   2.310  0.3105  0.3473 -0.0195
  211MOL0     N28367   2.012   4.966   2.431 -0.6062 -0.5669  0.8145
  211MOL0     C28368   1.886   4.913   2.442  0.3325  1.1112 -0.3684
  211MOL0     C28369   1.881   4.879   2.572  0.0927 -0.2892 -0.3011
  211MOL0     C28370   1.764   4.842   2.644  0.2770  0.0179 -0.6477
  211MOL0     C28371   1.655   4.945   2.669  0.1180  0.4469  0.2419
  211MOL0     C28372   1.700   5.076   2.747 -0.0144  0.4766  0.0077
  211MOL0     C28373   1.597   5.146   2.831 -0.0251  0.0947 -0.3754
  211MOL0     O28374   1.561   5.055   2.931  0.3480  0.2583 -0.4294
  211MOL0     C28375   1.456   5.100   3.020  0.7075 -0.9602  0.4236
  211MOL0     C28376   1.464   5.056   3.148 -0.4528  0.4252  0.3521
  211MOL0     C28377   1.383   5.091   3.253  0.5808  0.6648 -0.9502
  211MOL0     C28378   1.403   5.026   3.383 -0.1172  0.2028 -0.3550
  211MOL0     C28379   1.281   5.190   3.219 -0.2618  0.2384 -1.3231
  211MOL0     C28380   1.183   5.242   3.322  0.5706 -0.1525  0.3586
  211MOL0     O28381   1.089   5.321   3.268 -0.4715 -0.4759 -0.4691
  211MOL0     C28382   0.975   5.360   3.343 -0.8076  0.4593 -0.8290
  211MOL0     C28383   0.849   5.356   3.285 -0.0551  0.6879  0.1981
  211MOL0     C28384   0.728   5.388   3.359 -0.3954 -0.4065 -0.1523
  211MOL0     C28385   0.746   5.447   3.483 -0.6117 -0.0834 -0.0876
  211MOL0     O28386   0.634   5.469   3.563 -0.1828  0.7275 -0.1989
  211MOL0     C28387   0.627   5.400   3.681 -0.0105  0.1690  0.3950
  211MOL0     C28388   0.619   5.251   3.655  0.0474 -0.3376  0.0731
  211MOL0     C28389   0.534   5.179   3.754 -0.2215 -0.7088 -0.5749
  211MOL0     C28390   0.565   5.024   3.753  0.8997 -0.0142  0.7485
  211MOL0     C28391   0.525   4.957   3.889  0.6900  0.1011  0.2128
  211MOL0     C28392   0.562   4.809   3.888 -0.0818 -0.6039 -0.0589
  211MOL0     C28393   0.559   4.762   4.029 -0.3463  0.3655 -1.4977
  211MOL0     C28394   0.551   4.611   4.037  0.1743  0.1856  0.6575
  211MOL0    Cl28395   0.703   4.516   3.983 -0.0221 -0.2872 -0.3077
  211MOL0     C28396   0.877   5.477   3.524 -1.0253 -0.2755 -0.2849
  211MOL0     C28397   0.991   5.443   3.455 -0.7659  0.5496  0.4848
  211MOL0     O28398   1.181   5.200   3.439 -0.0975  0.1733 -0.5422
  211MOL0     C28399   1.271   5.242   3.084 -0.1661 -0.6105 -0.0204
  211MOL0     C28400   1.357   5.197   2.987 -0.7986 -1.0062  0.3015
  211MOL0     N28401   1.995   4.926   2.632  0.6530  0.0712 -0.4480
  211MOL0     N28402   2.070   4.979   2.551 -0.8613  0.8025 -0.3584
  211MOL0     C28403   2.798   4.551   1.634 -0.6529  0.0016 -0.1126
  211MOL0     C28404   2.831   4.544   1.501  0.5337  0.0951  0.4403
  211MOL0     C28405   3.059   4.523   1.116 -0.8034  0.1432  0.9647
  211MOL0     C28406   2.994   4.599   1.018  0.1610 -0.0563  0.8324
  211MOL0     C28407   3.031   4.604   0.883  0.1323 -0.0222 -0.2108
  211MOL0     C28408   3.126   4.518   0.839 -0.3795 -0.6356 -0.0552
  211MOL0     O28409   3.158   4.502   0.708  0.0837 -0.4425 -0.1839
  211MOL0     C28410   3.083   4.549   0.602  0.3245 -0.1094 -0.5279
  211MOL0     C28411   3.137   4.485   0.474  0.0222  0.1329 -0.4812
  211MOL0     C28412   3.125   4.331   0.474  0.5821  0.3555  0.2329
  211MOL0     C28413   3.099   4.263   0.339  0.3456  0.1214  0.0699
  211MOL0     C28414   3.169   4.326   0.224  0.5763  0.3639 -0.0462
  211MOL0     C28415   3.237   4.371   0.143  0.0297  0.1822  0.0752
  211MOL0     C28416   3.208   4.448   0.931 -0.1428  0.2353  1.1827
  211MOL0     C28417   3.170   4.451   1.066  0.4794  0.3272  0.2818
  211MOL0     H28418   2.992   4.834   1.445 -1.1983  2.8490  1.0741
  211MOL0     H28419   2.952   4.845   1.694 -2.6605 -0.1605  1.6247
  211MOL0     H28420   2.755   4.489   1.892  0.4777 -0.0172 -1.4592
  211MOL0     H28421   2.816   4.583   2.025 -1.6280 -1.2789  0.7349
  211MOL0     H28422   2.549   4.618   1.873 -1.9832 -1.9858  0.2767
  211MOL0     H28423   2.564   4.554   2.038 -1.0171  1.9826  0.4495
  211MOL0     H28424   2.669   4.807   2.078 -0.0044  0.9981 -0.4055
  211MOL0     H28425   2.559   4.824   1.940 -1.4368 -0.5810  0.6944
  211MOL0     H28426   2.383   4.706   2.054  0.7004 -2.7954  1.9538
  211MOL0     H28427   2.465   4.719   2.206  3.4711  3.1433  0.6961
  211MOL0     H28428   2.456   4.962   2.182  2.1167 -1.4966  0.2669
  211MOL0     H28429   2.371   4.947   2.033  1.3800 -2.0565 -0.5352
  211MOL0     H28430   2.163   4.835   2.178 -0.0145  2.0054 -1.4283
  211MOL0     H28431   2.277   4.842   2.310  0.1917  0.5299  0.8545
  211MOL0     H28432   2.263   5.056   2.354  1.3817  0.3735 -0.7550
  211MOL0     H28433   2.218   5.101   2.192  0.1866  0.5860 -0.0608
  211MOL0     H28434   1.999   5.004   2.221 -2.3872  1.4454  0.8459
  211MOL0     H28435   2.007   5.146   2.316 -3.7287 -1.1485  1.1959
  211MOL0     H28436   1.797   4.906   2.379 -0.4304 -0.9582  0.8158
  211MOL0     H28437   1.725   4.768   2.574  1.0902  2.2045 -3.6331
  211MOL0     H28438   1.784   4.781   2.732 -2.8032 -1.4505 -0.8447
  211MOL0     H28439   1.574   4.904   2.729 -0.6967  2.9467  0.9470
  211MOL0     H28440   1.608   4.972   2.574  1.4706  1.5373 -0.1548
  211MOL0     H28441   1.737   5.148   2.674  3.1562  0.5296  1.5332
  211MOL0     H28442   1.781   5.051   2.816  0.5029 -1.7083 -1.2895
  211MOL0     H28443   1.512   5.189   2.778 -0.5104 -0.1389  0.1945
  211MOL0     H28444   1.641   5.228   2.889  2.8824 -0.0117 -2.2565
  211MOL0     H28445   1.541   4.980   3.156 -1.9364 -1.2850 -0.8861
  211MOL0     H28446   1.427   5.102   3.458  3.0560  1.0661 -2.0626
  211MOL0     H28447   1.318   4.961   3.410  0.4219  0.4225  2.1177
  211MOL0     H28448   1.487   4.956   3.384  0.8165  1.2273  2.5309
  211MOL0     H28449   0.832   5.319   3.184  0.9470  2.3697 -0.6392
  211MOL0     H28450   0.639   5.364   3.301  0.6388 -0.6913 -1.6895
  211MOL0     H28451   0.718   5.421   3.737 -0.3159 -2.7838  2.2102
  211MOL0     H28452   0.547   5.433   3.748  1.5049  1.1926  1.7826
  211MOL0     H28453   0.580   5.241   3.553 -0.1069 -1.2420  0.2176
  211MOL0     H28454   0.723   5.219   3.665 -0.0442 -0.6173  0.1243
  211MOL0     H28455   0.430   5.211   3.755  0.7473  2.9574  2.1126
  211MOL0     H28456   0.563   5.216   3.853 -2.3112 -0.0783 -0.1675
  211MOL0     H28457   0.519   4.971   3.670  2.2318  0.0423 -0.0674
  211MOL0     H28458   0.670   4.999   3.735  0.4589 -1.3064 -0.1248
  211MOL0     H28459   0.421   4.974   3.920  0.7046  2.9978 -1.0200
  211MOL0     H28460   0.585   4.996   3.972 -1.2514 -0.2213  1.8628
  211MOL0     H28461   0.495   4.748   3.828 -0.4545  1.7405 -2.1934
  211MOL0     H28462   0.665   4.787   3.858 -0.3128 -4.4040  1.3578
  211MOL0     H28463   0.470   4.800   4.079  0.6072 -0.5252  1.0509
  211MOL0     H28464   0.645   4.795   4.088  0.3942  0.1650 -2.4339
  211MOL0     H28465   0.460   4.579   3.985  0.1809 -1.0869  1.3909
  211MOL0     H28466   0.539   4.584   4.142 -0.1989  0.6803  0.7502
  211MOL0     H28467   0.885   5.534   3.616 -0.2850 -0.4225 -0.2518
  211MOL0     H28468   1.088   5.480   3.485 -0.1324 -2.0011  1.8248
  211MOL0     H28469   1.187   5.306   3.062  0.9675 -0.0462 -3.1660
  211MOL0     H28470   1.333   5.227   2.886 -3.3402 -0.3259  1.0362
  211MOL0     H28471   2.730   4.483   1.684 -0.6249 -0.0038 -0.0818
  211MOL0     H28472   2.789   4.472   1.431 -3.2587  2.0924  0.3681
  211MOL0     H28473   2.897   4.643   1.039 -0.4521 -0.6878 -0.4750
  211MOL0     H28474   2.963   4.662   0.822 -2.0621 -0.3113  1.8357
  211MOL0     H28475   2.979   4.516   0.608  0.8613 -2.2862 -1.8698
  211MOL0     H28476   3.084   4.657   0.587  0.1030  0.3181  2.1206
  211MOL0     H28477   3.240   4.521   0.463 -0.7498  2.7704  0.2378
  211MOL0     H28478   3.084   4.528   0.389 -1.8586 -0.3192  0.4028
  211MOL0     H28479   3.035   4.305   0.531  0.4720  2.9969  1.4288
  211MOL0     H28480   3.205   4.277   0.527  2.1180 -0.6066 -2.8499
  211MOL0     H28481   2.993   4.261   0.312  1.0254 -0.4809 -2.8747
  211MOL0     H28482   3.118   4.155   0.347  0.0586  0.1915  3.9122
  211MOL0     H28483   3.287   4.413   0.058 -2.1277  0.3482 -1.2055
  211MOL0     H28484   3.289   4.392   0.887 -1.6749 -0.9305 -0.2744
  211MOL0     H28485   3.216   4.379   1.133 -0.2842  0.0036  0.4767
  212MOL0     O28486   2.587   5.669   1.583 -0.3100 -0.2080 -0.4016
  212MOL0     C28487   2.697   5.729   1.596  1.1279  0.3254  0.2464
  212MOL0     O28488   2.760   5.745   1.711 -0.7256  0.5971  0.2789
  212MOL0     C28489   2.695   5.737   1.841 -0.8164  0.2709 -0.2480
  212MOL0     C28490   2.779   5.755   1.949 -0.6896 -0.2926 -0.8952
  212MOL0     C28491   2.728   5.746   2.084  0.9811  0.1852 -0.1800
  212MOL0     C28492   2.590   5.715   2.103 -0.8596 -0.5009  0.0109
  212MOL0     O28493   2.547   5.700   2.235 -0.2532 -0.1395 -0.3639
  212MOL0     C28494   2.404   5.683   2.260 -0.3513  0.4243  0.2127
  212MOL0     C28495   2.391   5.719   2.407 -0.0264 -0.5948 -0.8019
  212MOL0     C28496   2.430   5.862   2.438 -0.1964  0.2162  0.1453
  212MOL0     C28497   2.428   5.889   2.591  1.0680 -0.5358 -0.0159
  212MOL0     C28498   2.457   6.041   2.623  0.4799  0.2417 -0.3440
  212MOL0     C28499   2.428   6.093   2.766  0.8517  0.0653 -0.2671
  212MOL0     C28500   2.459   6.245   2.774 -0.4491  0.0418 -0.0936
  212MOL0     C28501   2.447   6.294   2.921  0.2814 -0.7326  0.3799
  212MOL0     N28502   2.326   6.244   2.985 -0.0041  0.4791 -0.5055
  212MOL0     C28503   2.203   6.272   2.946  0.7701  0.9869 -0.2664
  212MOL0     C28504   2.117   6.192   3.011  0.0332 -0.7505  0.2834
  212MOL0     C28505   1.970   6.180   2.990 -0.9743 -0.5096  0.2141
  212MOL0     C28506   1.923   6.073   2.894  0.1816 -0.7709 -0.8507
  212MOL0     C28507   1.950   6.105   2.740 -0.2633  0.5397  0.2106
  212MOL0     C28508   1.852   6.206   2.672  0.0539 -0.2448 -0.1246
  212MOL0     O28509   1.864   6.340   2.715 -0.9111  0.8008 -0.3428
  212MOL0     C28510   1.778   6.429   2.652 -0.7164  0.3191 -0.9385
  212MOL0     C28511   1.796   6.559   2.676  0.4025  0.5652  0.6789
  212MOL0     C28512   1.727   6.661   2.617  0.0018  0.3418  0.8447
  212MOL0     C28513   1.774   6.803   2.643 -0.4281  0.4343  0.2992
  212MOL0     C28514   1.637   6.634   2.507  1.0052 -0.0045 -0.2984
  212MOL0     C28515   1.565   6.734   2.427  0.2325 -0.2708 -0.3366
  212MOL0     O28516   1.559   6.857   2.478  0.0795 -0.0813  0.1658
  212MOL0     C28517   1.487   6.950   2.407 -0.3912 -0.3012 -0.0775
  212MOL0     C28518   1.528   7.000   2.284  0.3718  0.1009 -0.6633
  212MOL0     C28519   1.437   7.088   2.212 -0.0529  0.8292  0.4396
  212MOL0     C28520   1.312   7.127   2.260 -0.0134  0.3791 -0.2493
  212MOL0     O28521   1.232   7.189   2.178  0.8155 -0.7744  0.2319
  212MOL0     C28522   1.100   7.228   2.223  0.9968  0.3942 -0.3465
  212MOL0     C28523   1.055   7.359   2.150  0.1641 -0.0096 -0.3125
  212MOL0     C28524   1.074   7.346   2.008  0.4414  0.1393  0.0570
  212MOL0     C28525   1.076   7.487   1.950  0.4289 -0.4091 -0.3639
  212MOL0     C28526   1.035   7.490   1.809 -0.4840  0.4632  0.3762
  212MOL0     C28527   1.033   7.635   1.749  0.7986 -0.0999 -0.3252
  212MOL0     C28528   1.016   7.623   1.594 -0.3715  0.2446 -0.3873
  212MOL0     C28529   0.951   7.738   1.520 -0.2068 -1.3186  0.3040
  212MOL0    Cl28530   0.772   7.716   1.546 -0.0820  0.0115  0.1540
  212MOL0     C28531   1.277   7.089   2.388 -0.8317  0.2609 -0.3637
  212MOL0     C28532   1.360   6.995   2.462 -0.2860 -0.8652  0.8289
  212MOL0     O28533   1.513   6.700   2.321 -0.0163 -0.6576 -1.4392
  212MOL0     C28534   1.616   6.499   2.489  0.1325 -0.1329 -0.4441
  212MOL0     C28535   1.688   6.395   2.555  0.0028 -1.0087 -0.9898
  212MOL0     N28536   2.194   6.112   3.099 -0.1223  0.2918 -0.9784
  212MOL0     N28537   2.320   6.153   3.082 -0.3321  0.2981 -0.7605
  212MOL0     C28538   2.512   5.700   1.997  0.0075 -0.1378  0.4325
  212MOL0     C28539   2.556   5.714   1.868  0.1477  0.8465  1.5879
  212MOL0     C28540   2.768   5.765   1.465 -0.7213 -0.3520 -0.7228
  212MOL0     C28541   2.726   5.712   1.343 -1.4336 -0.6910  0.1993
  212MOL0     C28542   2.791   5.732   1.220 -0.4870  0.0872 -0.4091
  212MOL0     C28543   2.911   5.803   1.216  0.0421  0.3941 -0.3628
  212MOL0     O28544   2.979   5.847   1.107  0.0902  0.0007 -0.1032
  212MOL0     C28545   2.958   5.777   0.979 -0.7239  0.1561 -0.6619
  212MOL0     C28546   3.056   5.829   0.872 -0.4858  1.2725 -0.2541
  212MOL0     C28547   3.070   5.731   0.758  0.0679 -0.0672  0.8625
  212MOL0     C28548   3.192   5.781   0.672  0.1147 -0.3203  0.1981
  212MOL0     C28549   3.146   5.901   0.601  0.7387  1.9050  0.2627
  212MOL0     C28550   3.084   5.987   0.531 -0.6250  0.8787 -1.1961
  212MOL0     C28551   2.960   5.851   1.337 -0.5234 -1.1868 -0.1648
  212MOL0     C28552   2.890   5.839   1.454  0.0481  0.0386  0.0418
  212MOL0     H28553   2.879   5.792   1.930 -1.8639  3.4595 -0.6264
  212MOL0     H28554   2.793   5.765   2.170  0.3064  0.6068  0.2437
  212MOL0     H28555   2.347   5.759   2.206  2.0763  0.3578 -2.7205
  212MOL0     H28556   2.375   5.581   2.234  2.4982 -0.5103  0.3236
  212MOL0     H28557   2.289   5.700   2.441  0.0408 -0.4845 -0.5392
  212MOL0     H28558   2.456   5.661   2.473  0.6857  1.2561  0.2101
  212MOL0     H28559   2.529   5.885   2.398 -0.3398  1.0809  0.2692
  212MOL0     H28560   2.360   5.928   2.387 -0.7017  1.9098  2.8176
  212MOL0     H28561   2.329   5.861   2.630 -0.4968  3.6918 -0.3554
  212MOL0     H28562   2.507   5.836   2.645  2.4051  1.8203  0.4657
  212MOL0     H28563   2.563   6.065   2.609  0.2150  1.2302 -0.8218
  212MOL0     H28564   2.415   6.118   2.557  1.8580  3.0176  1.7729
  212MOL0     H28565   2.327   6.074   2.804  1.0141  1.4035  0.9474
  212MOL0     H28566   2.492   6.037   2.835 -3.4275 -4.5293  0.5280
  212MOL0     H28567   2.560   6.268   2.738 -1.3528  2.2215 -1.4733
  212MOL0     H28568   2.392   6.307   2.714  2.0723  0.4573 -2.7534
  212MOL0     H28569   2.443   6.404   2.923  3.5379 -0.5055  0.4229
  212MOL0     H28570   2.536   6.263   2.976  0.0659 -0.3750  0.9397
  212MOL0     H28571   2.174   6.336   2.863 -1.5073 -0.5932 -0.7858
  212MOL0     H28572   1.908   6.167   3.079 -0.5213 -0.5332  0.5269
  212MOL0     H28573   1.927   6.271   2.947  0.9994  1.6095  2.3441
  212MOL0     H28574   1.820   6.052   2.926  0.3562  1.5314  1.5657
  212MOL0     H28575   1.985   5.988   2.922  2.1068  1.0368  0.6236
  212MOL0     H28576   1.941   6.011   2.685 -0.5331  0.5338  0.2620
  212MOL0     H28577   2.054   6.137   2.729 -0.1638  0.3259  0.5278
  212MOL0     H28578   1.749   6.169   2.679  1.0148 -2.8148  1.5998
  212MOL0     H28579   1.884   6.194   2.568 -2.2945 -0.4115 -0.8823
  212MOL0     H28580   1.874   6.577   2.751  0.5812  1.6033  0.2544
  212MOL0     H28581   1.857   6.820   2.713  0.9150  2.4021 -1.6217
  212MOL0     H28582   1.803   6.864   2.557 -0.7006  1.8576  1.1915
  212MOL0     H28583   1.685   6.852   2.684  1.0992  0.9423  3.3556
  212MOL0     H28584   1.630   6.976   2.257  0.0768 -0.3913 -1.3667
  212MOL0     H28585   1.461   7.113   2.109 -2.8864  1.5647 -0.1415
  212MOL0     H28586   1.034   7.144   2.201  0.0695  0.3464  2.2506
  212MOL0     H28587   1.102   7.246   2.331  1.1336 -0.7859 -0.1369
  212MOL0     H28588   0.953   7.397   2.161  0.0029 -0.1400 -1.2507
  212MOL0     H28589   1.116   7.437   2.195  1.0972 -0.8008 -0.1670
  212MOL0     H28590   0.989   7.291   1.969 -0.4989  1.7750 -0.2948
  212MOL0     H28591   1.166   7.295   1.978  1.1911  1.1428  0.5888
  212MOL0     H28592   0.999   7.539   2.007 -0.7140 -1.7390 -0.6211
  212MOL0     H28593   1.174   7.531   1.974  1.2553 -2.1587 -0.3475
  212MOL0     H28594   0.938   7.440   1.799 -0.6794  0.4851  1.9675
  212MOL0     H28595   1.110   7.435   1.750 -0.0822  1.2994  0.0800
  212MOL0     H28596   0.947   7.690   1.790 -2.5833 -3.2733 -2.4403
  212MOL0     H28597   1.129   7.683   1.767  0.4539 -0.3333  2.6825
  212MOL0     H28598   0.953   7.538   1.567  0.2127  0.6442 -3.4237
  212MOL0     H28599   1.107   7.615   1.535 -0.2086  2.6547 -0.5602
  212MOL0     H28600   0.973   7.734   1.413  0.7947 -3.0197  0.5240
  212MOL0     H28601   0.982   7.836   1.556 -0.4233 -1.2273  0.2407
  212MOL0     H28602   1.187   7.108   2.445  0.6120  4.9059  0.7797
  212MOL0     H28603   1.334   6.978   2.566 -2.6349  0.1129  0.4661
  212MOL0     H28604   1.559   6.465   2.403  2.2762  0.3938 -2.1556
  212MOL0     H28605   1.675   6.290   2.529 -0.0066 -1.2415 -0.0507
  212MOL0     H28606   2.407   5.672   2.006  0.0039 -0.2337  0.1025
  212MOL0     H28607   2.481   5.714   1.790  0.4308  2.4923  1.2888
  212MOL0     H28608   2.649   5.634   1.339 -0.4495 -1.6319 -1.5788
  212MOL0     H28609   2.747   5.671   1.142  0.4208 -0.8734 -0.2024
  212MOL0     H28610   2.978   5.670   0.992  1.4336  0.7116  1.3877
  212MOL0     H28611   2.858   5.787   0.937 -1.0271 -0.4412 -0.1067
  212MOL0     H28612   3.148   5.850   0.928 -0.3286  2.3479 -0.8811
  212MOL0     H28613   3.034   5.931   0.838 -0.9030  0.5732 -2.1610
  212MOL0     H28614   2.986   5.746   0.690 -0.4574  0.2616  1.5738
  212MOL0     H28615   3.073   5.625   0.788 -0.7357 -0.8571 -1.6219
  212MOL0     H28616   3.205   5.701   0.598 -2.0319 -0.6097  0.0729
  212MOL0     H28617   3.283   5.800   0.730  1.0572 -1.6064 -0.8092
  212MOL0     H28618   3.023   6.059   0.481 -3.6058  0.0930  1.0386
  212MOL0     H28619   3.057   5.900   1.337  1.3677 -4.4217  2.3918
  212MOL0     H28620   2.930   5.886   1.544 -0.6514  3.3199 -1.2441
  213MOL0     O28621  11.449   4.220   5.799 -0.9397 -0.3577 -0.5651
  213MOL0     C28622  11.399   4.108   5.821 -0.0049 -0.1905  0.0948
  213MOL0     O28623  11.433   4.022   5.917 -0.6495 -0.3963  0.0887
  213MOL0     C28624  11.537   4.054   6.001  0.7290  0.0810 -0.1612
  213MOL0     C28625  11.527   4.026   6.138  0.5846  0.5004  1.1369
  213MOL0     C28626  11.641   4.046   6.217  0.4032  0.6235  0.3509
  213MOL0     C28627  11.758   4.095   6.172 -0.2753 -0.0903  0.7102
  213MOL0     O28628  11.870   4.118   6.235  0.3268 -0.6157  0.1721
  213MOL0     C28629  11.883   4.095   6.377 -1.0207  0.2742 -0.1746
  213MOL0     C28630  12.030   4.130   6.423  0.4321 -0.5878 -0.1264
  213MOL0     C28631  12.118   4.027   6.367  1.1364 -1.4292 -0.4853
  213MOL0     C28632  12.179   4.091   6.234 -0.4184 -0.1970  0.2343
  213MOL0     C28633  12.257   3.982   6.163  0.5568  0.3355 -0.0296
  213MOL0     C28634  12.322   4.049   6.047 -0.3456  0.3192 -0.6159
  213MOL0     C28635  12.401   3.945   5.966 -0.4156  0.2651  0.1496
  213MOL0     C28636  12.471   3.992   5.839 -0.5315 -0.7920 -0.1329
  213MOL0     N28637  12.611   4.033   5.873  0.2949 -0.7264  0.0796
  213MOL0     C28638  12.646   4.146   5.935  0.4709 -0.3463  0.6863
  213MOL0     C28639  12.784   4.147   5.928 -0.3554 -0.4666  1.0482
  213MOL0     C28640  12.890   4.245   5.968 -0.6348  0.0559 -0.2127
  213MOL0     C28641  12.872   4.371   5.881  0.2548 -0.2631 -0.4378
  213MOL0     C28642  12.981   4.487   5.907  0.1706 -0.8451  0.1533
  213MOL0     C28643  12.956   4.544   6.045  0.1774 -0.6233 -0.8853
  213MOL0     O28644  13.065   4.637   6.069  0.4334  0.1293 -0.4961
  213MOL0     C28645  13.014   4.755   6.095  0.1851 -0.3127  0.5666
  213MOL0     C28646  13.009   4.804   6.227  0.1582  0.2778  0.1709
  213MOL0     C28647  12.963   4.926   6.256  1.0965 -0.0091  0.5394
  213MOL0     C28648  12.977   4.962   6.404  0.2042  0.3841  0.3115
  213MOL0     C28649  12.907   5.006   6.157 -0.2589  0.3439  0.0645
  213MOL0     C28650  12.854   5.148   6.175  0.4721 -0.2787 -0.0543
  213MOL0     O28651  12.826   5.217   6.072  0.5274 -0.2583 -0.6545
  213MOL0     C28652  12.763   5.338   6.084  0.2416  0.7068 -0.0615
  213MOL0     C28653  12.833   5.448   6.130  1.6519  0.3001 -0.6381
  213MOL0     C28654  12.759   5.559   6.176  0.0844 -0.8168  0.9320
  213MOL0     C28655  12.626   5.581   6.139  0.5535  0.6509 -1.0778
  213MOL0     O28656  12.559   5.701   6.176 -0.1311 -0.0349 -0.3363
  213MOL0     C28657  12.439   5.723   6.104  0.2022 -0.0352  0.7151
  213MOL0     C28658  12.358   5.826   6.163  0.2629  0.5025  0.6459
  213MOL0     C28659  12.268   5.908   6.059 -0.1650  0.0955 -0.3518
  213MOL0     C28660  12.210   6.035   6.130 -0.1657  0.4030  0.6326
  213MOL0     C28661  12.104   6.080   6.023  0.0606  1.2595 -0.4162
  213MOL0     C28662  12.028   6.202   6.062  0.6463  0.4655  0.7929
  213MOL0     C28663  11.925   6.253   5.958 -0.2394  0.0846  0.3366
  213MOL0     C28664  11.877   6.388   6.004 -0.0991  0.3092 -0.5309
  213MOL0    Cl28665  12.006   6.506   6.009 -0.4995 -0.0093 -0.2810
  213MOL0     C28666  12.562   5.462   6.088  0.9213 -0.1709 -0.0176
  213MOL0     C28667  12.627   5.340   6.070 -0.7689 -0.5625  1.2246
  213MOL0     O28668  12.841   5.190   6.291 -0.2931  0.3541 -0.0190
  213MOL0     C28669  12.905   4.953   6.026 -0.1356  0.3817 -0.6881
  213MOL0     C28670  12.963   4.827   5.987 -0.9834 -0.1363 -0.2765
  213MOL0     N28671  12.812   4.037   5.850  0.1115  0.9421 -0.1160
  213MOL0     N28672  12.717   3.974   5.818  0.5456 -0.1849 -0.4067
  213MOL0     C28673  11.772   4.111   6.032  0.0206  0.3074 -0.1041
  213MOL0     C28674  11.668   4.077   5.945 -0.1889  0.0791 -0.4324
  213MOL0     C28675  11.280   4.076   5.738  0.0785 -0.7039  0.2514
  213MOL0     C28676  11.223   4.170   5.649  0.2557  0.4548  0.4757
  213MOL0     C28677  11.100   4.144   5.591  0.3685  0.4071  0.1373
  213MOL0     C28678  11.019   4.036   5.630  0.6650 -0.4690  0.2356
  213MOL0     O28679  10.884   4.042   5.590  0.0576  0.9635 -0.0966
  213MOL0     C28680  10.792   3.988   5.685 -0.7019  0.2374  0.4781
  213MOL0     C28681  10.653   4.053   5.673  0.1240 -0.4623  0.0921
  213MOL0     C28682  10.582   3.974   5.571 -0.2990 -0.1827  0.3819
  213MOL0     C28683  10.447   4.026   5.533  0.0479  0.0601  1.1174
  213MOL0     C28684  10.346   4.043   5.641  0.6538 -0.9229 -0.4264
  213MOL0     C28685  10.245   4.050   5.711  0.6397  0.4253  0.1769
  213MOL0     C28686  11.072   3.940   5.717 -0.6864  0.2814 -0.9858
  213MOL0     C28687  11.199   3.960   5.771 -0.0344  0.0268 -0.8921
  213MOL0     H28688  11.438   3.992   6.189  0.4772 -3.5981 -1.3544
  213MOL0     H28689  11.635   4.038   6.326 -1.4067 -0.1934  0.2305
  213MOL0     H28690  11.825   4.156   6.447  2.3674 -1.9509  5.1679
  213MOL0     H28691  11.865   3.991   6.404  0.8042 -0.7714 -2.5864
  213MOL0     H28692  12.054   4.233   6.395  0.2987 -1.4015 -3.6989
  213MOL0     H28693  12.039   4.118   6.531 -1.4605  0.0701  0.1457
  213MOL0     H28694  12.202   4.008   6.435  2.8169 -0.4623 -2.2192
  213MOL0     H28695  12.062   3.934   6.352 -0.0604 -0.5617 -1.6362
  213MOL0     H28696  12.100   4.123   6.166 -1.7638  2.8432  2.9092
  213MOL0     H28697  12.237   4.179   6.266 -1.9157  1.5397 -1.5692
  213MOL0     H28698  12.321   3.928   6.234  0.1943  0.9307  0.7750
  213MOL0     H28699  12.186   3.909   6.124  1.1745  0.0795 -0.6773
  213MOL0     H28700  12.253   4.092   5.974  0.5667 -2.1108 -3.0645
  213MOL0     H28701  12.398   4.120   6.078  1.1713 -0.5823 -2.1315
  213MOL0     H28702  12.483   3.900   6.023  0.5347  0.4415 -1.0460
  213MOL0     H28703  12.336   3.863   5.937  0.3145  0.3674 -1.9932
  213MOL0     H28704  12.414   4.073   5.793  1.4945  0.5093 -0.4995
  213MOL0     H28705  12.483   3.911   5.767  2.3466 -1.0409  0.4980
  213MOL0     H28706  12.577   4.217   5.980 -1.5466 -2.2299  0.7029
  213MOL0     H28707  12.866   4.263   6.073 -1.6387 -2.4753  0.0726
  213MOL0     H28708  12.989   4.199   5.971 -1.5966 -2.1048  3.0876
  213MOL0     H28709  12.779   4.424   5.902 -0.6839 -2.1881  0.5349
  213MOL0     H28710  12.874   4.339   5.777 -0.1915 -1.5537 -0.0640
  213MOL0     H28711  12.969   4.562   5.828  1.6147  0.3779  1.0290
  213MOL0     H28712  13.084   4.452   5.898  0.2976 -0.2374 -0.9223
  213MOL0     H28713  12.978   4.467   6.120 -0.6467  0.6243  0.6913
  213MOL0     H28714  12.858   4.588   6.060  1.1270  1.3768 -0.1821
  213MOL0     H28715  13.053   4.744   6.306  0.9859  2.1518  1.2037
  213MOL0     H28716  13.044   5.047   6.416  0.5731  0.0076  0.9560
  213MOL0     H28717  12.885   4.987   6.457 -0.9385  0.3286 -1.5414
  213MOL0     H28718  13.025   4.878   6.455  1.5724  0.3526 -0.9425
  213MOL0     H28719  12.940   5.442   6.151  2.2683  1.9399 -2.8820
  213MOL0     H28720  12.812   5.633   6.236  0.0344 -1.3897  1.6914
  213MOL0     H28721  12.461   5.765   6.005 -1.6468  1.5765  0.9362
  213MOL0     H28722  12.374   5.637   6.090 -0.7375  0.7244  0.2549
  213MOL0     H28723  12.285   5.772   6.225 -1.4348 -0.3215 -1.9301
  213MOL0     H28724  12.428   5.888   6.220  0.3953 -0.4196  1.5189
  213MOL0     H28725  12.195   5.836   6.023 -1.5644  1.9175 -1.3367
  213MOL0     H28726  12.332   5.944   5.978 -2.3689  3.4294 -0.8144
  213MOL0     H28727  12.155   6.017   6.223 -0.3786 -1.3574  0.2021
  213MOL0     H28728  12.291   6.106   6.150 -1.1658  2.3107 -1.6849
  213MOL0     H28729  12.031   6.000   6.009  0.6090  1.2055 -4.1299
  213MOL0     H28730  12.149   6.103   5.925 -1.8103  1.9015 -1.1783
  213MOL0     H28731  11.980   6.196   6.160  2.3112  0.9019  1.6590
  213MOL0     H28732  12.102   6.282   6.063 -1.3911  2.4385  1.3582
  213MOL0     H28733  11.848   6.177   5.938 -1.8314  0.7957  3.1598
  213MOL0     H28734  11.974   6.257   5.861 -0.9483  0.3813 -0.0158
  213MOL0     H28735  11.841   6.390   6.107 -1.0152 -0.6023 -0.8270
  213MOL0     H28736  11.801   6.435   5.940  0.0648  2.3272  0.6506
  213MOL0     H28737  12.455   5.464   6.067  0.3621  2.7484  2.3722
  213MOL0     H28738  12.577   5.250   6.034  1.9170 -1.1563 -1.4951
  213MOL0     H28739  12.854   5.001   5.944 -3.6281  0.7865  1.5010
  213MOL0     H28740  12.956   4.799   5.883 -0.1636  1.4821 -0.8065
  213MOL0     H28741  11.871   4.129   5.992  0.8165 -3.1670 -0.0172
  213MOL0     H28742  11.682   4.082   5.838  1.2780  0.9707 -0.2197
  213MOL0     H28743  11.270   4.263   5.619  0.0917  0.1160 -0.8907
  213MOL0     H28744  11.063   4.212   5.515 -1.3068  1.0623  1.4788
  213MOL0     H28745  10.775   3.880   5.678 -1.8093  0.4085  0.2409
  213MOL0     H28746  10.832   4.002   5.786  1.4874 -0.3356 -0.2524
  213MOL0     H28747  10.647   4.161   5.657 -1.4779  1.4463  8.5774
  213MOL0     H28748  10.611   4.048   5.774 -2.0958 -3.4818 -0.8498
  213MOL0     H28749  10.571   3.870   5.604  1.8728  0.2873  3.0027
  213MOL0     H28750  10.638   3.963   5.478  1.0496 -1.9051  1.3378
  213MOL0     H28751  10.406   3.949   5.467 -4.2675 -1.6009  5.1656
  213MOL0     H28752  10.463   4.118   5.477 -0.6556 -0.2341  0.4142
  213MOL0     H28753  10.163   4.059   5.780 -0.3237 -3.1874 -0.2623
  213MOL0     H28754  11.006   3.869   5.767  0.6178 -1.7721 -2.0161
  213MOL0     H28755  11.232   3.883   5.840 -1.7360  0.2428  0.2246
  214MOL0     O28756   4.771   2.785   4.935  0.3587  0.0406 -0.4793
  214MOL0     C28757   4.876   2.734   4.960  0.7154 -0.0950 -0.9926
  214MOL0     O28758   4.925   2.731   5.078 -0.0203  0.1780 -0.2974
  214MOL0     C28759   4.878   2.799   5.196 -0.3743  0.8229  1.2412
  214MOL0     C28760   4.743   2.818   5.219  0.4422  0.4778  0.1399
  214MOL0     C28761   4.702   2.883   5.338 -0.0860  0.1627  0.2567
  214MOL0     C28762   4.793   2.939   5.420  0.1669  0.6626  0.4638
  214MOL0     O28763   4.739   3.008   5.523  0.0847  0.3053 -0.6801
  214MOL0     C28764   4.776   3.140   5.545 -1.2796  0.1778 -0.3565
  214MOL0     C28765   4.678   3.256   5.599 -0.1053  0.0857 -0.3312
  214MOL0     C28766   4.554   3.276   5.523  0.3972 -1.0554 -0.1750
  214MOL0     C28767   4.444   3.210   5.615 -0.3695  0.0632  0.2111
  214MOL0     C28768   4.308   3.238   5.558 -0.2721 -0.9708 -0.9697
  214MOL0     C28769   4.203   3.135   5.617 -1.0912 -0.4039 -0.0726
  214MOL0     C28770   4.147   3.218   5.741  0.9469  0.3115  0.7933
  214MOL0     C28771   4.048   3.141   5.823 -0.3909 -0.1080  1.3621
  214MOL0     N28772   3.934   3.132   5.734  0.6439 -0.3720  0.0199
  214MOL0     C28773   3.831   3.224   5.713 -0.5786 -0.2908  0.5082
  214MOL0     C28774   3.760   3.166   5.608 -0.8307 -0.4266 -0.0984
  214MOL0     C28775   3.627   3.224   5.561 -0.7954  0.0537 -0.8826
  214MOL0     C28776   3.605   3.214   5.411 -0.3895 -0.4065 -0.1611
  214MOL0     C28777   3.721   3.271   5.328 -0.3039  0.8643  0.5846
  214MOL0     C28778   3.693   3.259   5.182 -0.8489 -0.2736 -0.8381
  214MOL0     O28779   3.756   3.139   5.141 -0.2726 -0.1980 -0.4044
  214MOL0     C28780   3.765   3.116   5.005  1.1862  0.0222  0.1879
  214MOL0     C28781   3.692   3.181   4.901  0.3451 -0.6454  0.8910
  214MOL0     C28782   3.712   3.165   4.767 -0.0535  0.7682  0.7566
  214MOL0     C28783   3.643   3.253   4.665  1.1589  0.4663  0.1084
  214MOL0     C28784   3.810   3.055   4.739  0.1351  0.6055 -0.2412
  214MOL0     C28785   3.825   2.998   4.600 -0.1425 -0.5822  0.1173
  214MOL0     O28786   3.899   2.888   4.583  0.8906  0.1498  0.0934
  214MOL0     C28787   3.960   2.869   4.469  0.5745  0.3214  0.1945
  214MOL0     C28788   4.086   2.930   4.454  0.9530 -1.4254  0.6156
  214MOL0     C28789   4.154   2.927   4.337  0.4675 -0.4037 -0.3943
  214MOL0     C28790   4.106   2.847   4.238  0.7398 -0.5456 -0.4724
  214MOL0     O28791   4.189   2.811   4.131 -0.4763  0.1055 -0.2835
  214MOL0     C28792   4.334   2.826   4.146  0.2517  0.3469 -0.1248
  214MOL0     C28793   4.399   2.780   4.020 -0.0222 -0.0501  0.2720
  214MOL0     C28794   4.369   2.884   3.912  0.5777 -0.1201 -1.0259
  214MOL0     C28795   4.457   2.886   3.785  0.8284 -0.4780 -0.1159
  214MOL0     C28796   4.407   3.001   3.693 -0.3430 -0.0188  0.3675
  214MOL0     C28797   4.502   3.008   3.580 -0.1863 -0.5228  0.7022
  214MOL0     C28798   4.483   2.902   3.468  0.6206 -1.2520 -0.4846
  214MOL0     C28799   4.577   2.925   3.349 -0.7072 -0.7395  0.0415
  214MOL0    Cl28800   4.506   2.876   3.199  0.7657 -0.1370 -0.2328
  214MOL0     C28801   3.980   2.793   4.237  0.0755  0.2923 -0.6097
  214MOL0     C28802   3.903   2.802   4.357 -0.1819 -0.1267 -0.0167
  214MOL0     O28803   3.755   3.045   4.516  0.0236  0.0869  0.2431
  214MOL0     C28804   3.878   2.992   4.845  0.0618 -0.9596 -0.8876
  214MOL0     C28805   3.852   3.025   4.973 -0.3303  0.9624 -1.0708
  214MOL0     N28806   3.813   3.045   5.575  0.0249  0.1018  0.3269
  214MOL0     N28807   3.911   3.023   5.657  0.7820  0.8276  0.1218
  214MOL0     C28808   4.929   2.923   5.396 -0.1129 -0.7669  0.0462
  214MOL0     C28809   4.975   2.851   5.285  0.3425  0.3537 -0.9458
  214MOL0     C28810   4.921   2.641   4.850  0.2478  1.0428 -0.8990
  214MOL0     C28811   5.025   2.548   4.876  1.1006 -0.0589  0.7344
  214MOL0     C28812   5.063   2.458   4.773 -0.0277 -0.7355  0.0646
  214MOL0     C28813   5.000   2.462   4.643  0.7259  0.5904  0.4707
  214MOL0     O28814   5.008   2.376   4.539 -0.7279 -0.4295  0.2819
  214MOL0     C28815   5.059   2.249   4.576 -0.1365 -0.3689 -0.2618
  214MOL0     C28816   5.011   2.145   4.463 -0.9465 -0.3815 -1.0625
  214MOL0     C28817   5.096   2.015   4.469 -0.0487 -0.5367  0.8339
  214MOL0     C28818   5.069   1.925   4.595 -0.6469 -0.1328  0.9795
  214MOL0     C28819   5.167   1.822   4.624 -0.8094 -0.2314 -0.1011
  214MOL0     C28820   5.260   1.747   4.656  0.5834  0.2520 -0.4818
  214MOL0     C28821   4.897   2.555   4.616  0.0264  0.3097  0.0861
  214MOL0     C28822   4.864   2.645   4.717  0.4276 -0.3996  0.3677
  214MOL0     H28823   4.658   2.784   5.161 -0.6988  1.5595  1.1185
  214MOL0     H28824   4.596   2.887   5.363  0.1400 -1.5881  1.6937
  214MOL0     H28825   4.870   3.130   5.601 -1.5309 -0.4403 -0.0348
  214MOL0     H28826   4.801   3.183   5.447  0.5078 -1.3618 -0.6298
  214MOL0     H28827   4.672   3.217   5.701 -0.4940 -2.7143 -1.3350
  214MOL0     H28828   4.742   3.345   5.599  0.5412 -0.3253 -2.0203
  214MOL0     H28829   4.526   3.382   5.517  2.0875 -0.6039 -0.8118
  214MOL0     H28830   4.569   3.241   5.420  1.9734  0.0817 -0.3791
  214MOL0     H28831   4.461   3.103   5.628 -1.5722 -0.0915  0.5814
  214MOL0     H28832   4.448   3.255   5.715 -0.0209 -0.1699  0.3056
  214MOL0     H28833   4.280   3.344   5.568  0.6113 -0.8960  1.5506
  214MOL0     H28834   4.306   3.216   5.451 -3.6795  2.6591 -1.8746
  214MOL0     H28835   4.128   3.113   5.541 -0.7237 -1.0549 -0.2562
  214MOL0     H28836   4.251   3.038   5.635 -0.8332 -0.7426 -2.2988
  214MOL0     H28837   4.231   3.255   5.801  0.9804 -0.3434  1.1518
  214MOL0     H28838   4.093   3.300   5.694 -0.7698 -0.8008  0.7595
  214MOL0     H28839   4.015   3.195   5.913 -0.0312  0.4518  1.1615
  214MOL0     H28840   4.077   3.040   5.854 -2.9503 -1.2052  0.4763
  214MOL0     H28841   3.817   3.323   5.756 -5.5875 -0.9304  0.9938
  214MOL0     H28842   3.541   3.183   5.613 -0.8541  0.7791 -0.3963
  214MOL0     H28843   3.628   3.332   5.581  0.2741 -0.4110  2.0891
  214MOL0     H28844   3.512   3.262   5.379 -0.6565 -1.3237 -0.7948
  214MOL0     H28845   3.586   3.109   5.389 -2.4886  0.1662 -1.3672
  214MOL0     H28846   3.824   3.237   5.346 -0.1637 -0.3329 -2.1125
  214MOL0     H28847   3.730   3.374   5.364  2.4381  0.3691  1.5967
  214MOL0     H28848   3.746   3.344   5.138  1.9262 -1.2196  0.4230
  214MOL0     H28849   3.589   3.265   5.150 -0.1480 -0.3923 -3.4218
  214MOL0     H28850   3.625   3.260   4.932  0.7466 -1.1661  3.2266
  214MOL0     H28851   3.714   3.316   4.613  2.6047  0.1945  1.6744
  214MOL0     H28852   3.576   3.209   4.590  0.7138  4.1086 -1.8541
  214MOL0     H28853   3.574   3.316   4.721 -1.0391 -1.9783  0.3889
  214MOL0     H28854   4.114   2.978   4.548  1.1330 -0.4003  0.0451
  214MOL0     H28855   4.252   2.974   4.336  0.0803  0.4220 -0.6348
  214MOL0     H28856   4.353   2.932   4.159 -0.4902  0.4896 -0.1826
  214MOL0     H28857   4.372   2.773   4.234 -2.7854 -5.5958 -1.8243
  214MOL0     H28858   4.508   2.775   4.027  0.0716 -2.9975 -1.4250
  214MOL0     H28859   4.367   2.682   3.982  3.4760 -1.4470  0.5915
  214MOL0     H28860   4.377   2.981   3.960 -1.3425 -0.2489 -0.3390
  214MOL0     H28861   4.265   2.870   3.881  0.1119  3.0540 -1.2123
  214MOL0     H28862   4.564   2.904   3.799  1.5761 -2.5842 -2.4259
  214MOL0     H28863   4.461   2.789   3.736  3.0382  1.2289 -3.6969
  214MOL0     H28864   4.427   3.089   3.755 -0.4840  0.8843 -0.8313
  214MOL0     H28865   4.302   2.982   3.670 -0.5993 -1.4622  2.4053
  214MOL0     H28866   4.496   3.102   3.525  2.6345  0.4295  1.8824
  214MOL0     H28867   4.606   2.998   3.611  0.2772  1.0400 -0.2611
  214MOL0     H28868   4.384   2.921   3.425  0.8811  0.5203 -0.3891
  214MOL0     H28869   4.489   2.802   3.509  1.5867 -0.4386  1.4509
  214MOL0     H28870   4.666   2.870   3.378 -1.7074 -1.7186  1.3610
  214MOL0     H28871   4.611   3.029   3.343  0.0226 -0.7195  3.1617
  214MOL0     H28872   3.942   2.734   4.154 -2.6830  0.5256  0.3765
  214MOL0     H28873   3.802   2.764   4.366  0.1741 -1.2861 -0.6930
  214MOL0     H28874   3.945   2.913   4.813  0.6884 -0.6433 -0.3752
  214MOL0     H28875   3.900   2.976   5.057 -2.2019  0.3202 -0.3210
  214MOL0     H28876   5.008   2.953   5.464  0.9267  4.2230 -2.8339
  214MOL0     H28877   5.083   2.851   5.273  0.1132  0.1716 -3.7361
  214MOL0     H28878   5.062   2.546   4.978 -1.1599  0.3417  1.6164
  214MOL0     H28879   5.147   2.389   4.776 -0.1214 -0.8434  0.1927
  214MOL0     H28880   5.168   2.252   4.570 -0.0771 -2.0840 -0.4912
  214MOL0     H28881   5.038   2.228   4.681  2.2255  0.0939  0.3523
  214MOL0     H28882   5.028   2.196   4.368 -0.4112  0.8139 -0.3448
  214MOL0     H28883   4.905   2.118   4.468 -0.4953 -3.6289 -4.4868
  214MOL0     H28884   5.201   2.040   4.451 -1.0464  1.7374 -3.2030
  214MOL0     H28885   5.076   1.944   4.388  2.7728 -0.6027  0.0870
  214MOL0     H28886   4.972   1.878   4.574 -1.4714  1.7548  0.3988
  214MOL0     H28887   5.064   1.986   4.686  2.1913 -0.7184  1.6081
  214MOL0     H28888   5.333   1.678   4.693  1.7630  0.9762 -1.3951
  214MOL0     H28889   4.851   2.552   4.518 -1.1025 -1.9522  0.6143
  214MOL0     H28890   4.786   2.717   4.693  1.1147  0.1358 -0.3192
  215MOL0     O28891   7.118   1.849  10.331  0.1536  0.2055 -0.9624
  215MOL0     C28892   7.122   1.882  10.446  0.2072 -0.4367  0.0319
  215MOL0     O28893   7.207   1.988  10.491 -0.3304  0.2188  0.0544
  215MOL0     C28894   7.263   2.077  10.393  0.4281 -0.0446 -0.3995
  215MOL0     C28895   7.397   2.099  10.409 -0.4025 -0.0604  0.2406
  215MOL0     C28896   7.466   2.187  10.330 -0.3028 -0.4909 -0.0986
  215MOL0     C28897   7.399   2.260  10.225 -0.4109  0.3418 -0.7544
  215MOL0     O28898   7.477   2.340  10.144  1.1008  0.4436 -0.2924
  215MOL0     C28899   7.559   2.438  10.203  0.2757 -0.6946 -0.2996
  215MOL0     C28900   7.669   2.466  10.093 -1.2142  0.0522 -0.2303
  215MOL0     C28901   7.751   2.585  10.144  0.2139  0.8102  0.2554
  215MOL0     C28902   7.851   2.630  10.033  0.4355 -0.4188  0.0757
  215MOL0     C28903   7.883   2.781  10.058  0.0659  0.0574  0.1566
  215MOL0     C28904   7.926   2.806  10.204 -1.1010  0.2740  0.1098
  215MOL0     C28905   7.982   2.948  10.216  0.0421 -0.0911 -1.4472
  215MOL0     C28906   7.979   3.006  10.354  0.5593  0.2908  0.7149
  215MOL0     N28907   8.035   3.137  10.348 -0.5578  0.0221 -0.1969
  215MOL0     C28908   8.166   3.151  10.371 -0.6709 -1.0406  1.0399
  215MOL0     C28909   8.194   3.283  10.370 -0.0036 -0.5677 -0.2274
  215MOL0     C28910   8.322   3.356  10.400  0.1675  0.5242 -0.0054
  215MOL0     C28911   8.435   3.302  10.316 -0.6787 -0.4578  0.4268
  215MOL0     C28912   8.544   3.404  10.288 -0.7301 -0.0494 -0.0192
  215MOL0     C28913   8.664   3.347  10.198 -0.1910  0.8905  0.3241
  215MOL0     O28914   8.623   3.366  10.058  0.1744  1.3189 -0.3413
  215MOL0     C28915   8.663   3.487   9.996  0.4175  0.5047  0.0682
  215MOL0     C28916   8.691   3.603  10.069 -0.2834  0.7932  1.1009
  215MOL0     C28917   8.711   3.728  10.010 -0.0857 -0.6005 -1.0668
  215MOL0     C28918   8.743   3.846  10.106 -0.6056 -0.4336 -0.3612
  215MOL0     C28919   8.703   3.738   9.870 -0.0378 -0.0626  0.1193
  215MOL0     C28920   8.729   3.852   9.785 -0.1404 -0.1532 -0.2777
  215MOL0     O28921   8.729   3.840   9.643  0.1476  1.3308 -0.0770
  215MOL0     C28922   8.757   3.934   9.542 -0.1852 -0.9242 -0.2562
  215MOL0     C28923   8.732   3.899   9.414 -0.7583  0.0033 -0.1785
  215MOL0     C28924   8.742   3.992   9.316 -0.4943  0.0953 -0.6703
  215MOL0     C28925   8.782   4.122   9.338 -0.6200 -0.1124 -0.2572
  215MOL0     O28926   8.789   4.224   9.243  0.9564  0.2732  0.0254
  215MOL0     C28927   8.783   4.200   9.101 -0.6609  0.5147  0.0355
  215MOL0     C28928   8.641   4.255   9.052 -0.5127 -0.5417 -0.3228
  215MOL0     C28929   8.514   4.227   9.138  0.2481 -0.1896 -0.0469
  215MOL0     C28930   8.374   4.255   9.070  0.0052 -0.3955 -0.3713
  215MOL0     C28931   8.341   4.397   9.041  0.1677 -0.5380  0.7852
  215MOL0     C28932   8.204   4.418   8.980 -0.5576 -0.1910  0.9641
  215MOL0     C28933   8.147   4.558   9.018  1.0549 -0.8139  0.4235
  215MOL0     C28934   8.016   4.592   8.943  0.1685 -0.6738  0.4091
  215MOL0    Cl28935   8.008   4.585   8.762 -0.0162  0.1779  0.1521
  215MOL0     C28936   8.812   4.159   9.471  0.0348 -0.8741  0.3625
  215MOL0     C28937   8.807   4.061   9.574  0.0852  0.0612 -0.0741
  215MOL0     O28938   8.766   3.960   9.840 -0.5873 -0.1876 -0.2466
  215MOL0     C28939   8.654   3.620   9.802 -0.8009  0.2979  0.2225
  215MOL0     C28940   8.643   3.491   9.865 -0.0164  0.1040 -0.0909
  215MOL0     N28941   8.074   3.343  10.324 -0.4738  0.2305  0.1843
  215MOL0     N28942   7.973   3.256  10.314 -0.0623  0.0956 -0.4858
  215MOL0     C28943   7.256   2.234  10.214 -0.3702  0.4367 -1.1084
  215MOL0     C28944   7.190   2.147  10.300  0.1784  0.1539  0.3680
  215MOL0     C28945   7.035   1.806  10.538 -0.2210 -0.8254  0.1745
  215MOL0     C28946   7.039   1.847  10.673  0.3667 -0.0715  0.3280
  215MOL0     C28947   6.971   1.770  10.768  0.1055  0.0860  0.9718
  215MOL0     C28948   6.891   1.667  10.725  0.6058 -0.5457 -0.4410
  215MOL0     O28949   6.820   1.603  10.828  0.3831  0.0605  0.7102
  215MOL0     C28950   6.763   1.466  10.807  0.6644 -0.5028  0.1469
  215MOL0     C28951   6.702   1.411  10.942  0.3612 -0.0267 -0.1308
  215MOL0     C28952   6.682   1.253  10.940  0.3454 -0.0002  1.3360
  215MOL0     C28953   6.521   1.228  10.951 -0.9901  0.7791  1.0534
  215MOL0     C28954   6.508   1.088  10.993 -0.1710  0.2530 -0.8703
  215MOL0     C28955   6.501   0.967  11.020 -0.1078  0.4647  0.2022
  215MOL0     C28956   6.887   1.630  10.594  0.2684  0.5629  0.0328
  215MOL0     C28957   6.959   1.697  10.505  0.0771 -0.0995 -0.2108
  215MOL0     H28958   7.445   2.034  10.482  1.9903  1.6296  0.2883
  215MOL0     H28959   7.574   2.203  10.326 -0.3237 -0.5904 -1.8304
  215MOL0     H28960   7.512   2.534  10.227  0.7581  0.1760 -2.5904
  215MOL0     H28961   7.603   2.400  10.296 -1.8807  1.1182  1.5892
  215MOL0     H28962   7.738   2.383  10.077 -1.6060  0.0409 -2.2091
  215MOL0     H28963   7.629   2.490   9.994  0.2917  2.3254 -0.3716
  215MOL0     H28964   7.693   2.673  10.174  0.9594  0.9741  1.2661
  215MOL0     H28965   7.807   2.558  10.234 -2.2669  1.3412  2.0699
  215MOL0     H28966   7.941   2.571  10.050  0.0103 -1.4113 -1.0596
  215MOL0     H28967   7.822   2.614   9.929 -0.0256  0.0414  0.1266
  215MOL0     H28968   7.974   2.803  10.001  0.6577 -1.4219  0.4661
  215MOL0     H28969   7.805   2.850  10.027  1.2722  2.1793  1.5610
  215MOL0     H28970   7.845   2.787  10.274 -0.9249 -2.5643 -0.3228
  215MOL0     H28971   8.006   2.734  10.225 -0.4042  0.4370 -1.7196
  215MOL0     H28972   8.086   2.941  10.183  0.1495  1.1358 -1.4043
  215MOL0     H28973   7.928   3.026  10.161  0.9197  2.3434  0.9288
  215MOL0     H28974   8.033   2.954  10.434 -2.0133 -2.4726  0.8488
  215MOL0     H28975   7.873   3.005  10.384 -0.1013 -3.6977 -1.1765
  215MOL0     H28976   8.244   3.081  10.399 -0.2658 -0.3293  1.7210
  215MOL0     H28977   8.310   3.461  10.372 -2.6359 -0.0548 -1.2947
  215MOL0     H28978   8.343   3.344  10.507 -0.8839 -0.9388  0.0662
  215MOL0     H28979   8.395   3.257  10.225 -0.2847 -1.4655  0.7403
  215MOL0     H28980   8.499   3.228  10.366  1.5702 -0.8272 -2.6976
  215MOL0     H28981   8.584   3.431  10.387  1.6553  0.8201 -1.1406
  215MOL0     H28982   8.516   3.504  10.254  0.6738  0.3307 -0.1097
  215MOL0     H28983   8.676   3.239  10.213  2.3624  1.3106  2.0741
  215MOL0     H28984   8.758   3.400  10.218 -0.4344  1.7176 -0.6789
  215MOL0     H28985   8.692   3.599  10.177 -0.2005  0.3703  1.0862
  215MOL0     H28986   8.729   3.823  10.212 -1.4832  2.5285  0.2653
  215MOL0     H28987   8.839   3.894  10.081 -0.3546  0.4273  1.9857
  215MOL0     H28988   8.665   3.917  10.078  0.1924  0.3978 -0.5399
  215MOL0     H28989   8.699   3.797   9.392 -1.5241  0.6019 -1.9667
  215MOL0     H28990   8.713   3.971   9.214 -2.1027 -0.4308 -0.1472
  215MOL0     H28991   8.861   4.258   9.052 -2.2493 -0.3546 -3.8433
  215MOL0     H28992   8.789   4.098   9.063  0.3311  0.7009 -0.3288
  215MOL0     H28993   8.645   4.363   9.036 -3.7003 -0.4837 -1.4297
  215MOL0     H28994   8.625   4.206   8.955 -1.7586 -3.2776  1.1318
  215MOL0     H28995   8.512   4.305   9.215 -2.0485  0.6228 -0.8610
  215MOL0     H28996   8.524   4.135   9.196  0.5876  0.6838  1.3473
  215MOL0     H28997   8.372   4.192   8.981  1.6308  0.4071 -1.0266
  215MOL0     H28998   8.296   4.222   9.139  0.2855  0.1945  0.2332
  215MOL0     H28999   8.421   4.443   8.982 -0.5178 -0.9875 -0.5282
  215MOL0     H29000   8.335   4.455   9.134  1.4467  1.7377 -0.4370
  215MOL0     H29001   8.211   4.410   8.871 -0.0748  0.0261  0.9787
  215MOL0     H29002   8.132   4.343   9.015  1.3428 -3.1439 -1.1018
  215MOL0     H29003   8.220   4.638   9.000  1.7693 -1.7989 -1.3730
  215MOL0     H29004   8.129   4.573   9.125  1.2449  1.4719  0.1735
  215MOL0     H29005   7.987   4.693   8.974  1.1662  0.0100 -0.7755
  215MOL0     H29006   7.937   4.526   8.978 -1.9566  0.4776 -1.9478
  215MOL0     H29007   8.857   4.258   9.478 -3.6381  0.9474  0.3053
  215MOL0     H29008   8.841   4.092   9.672 -1.7799  1.3141  0.2300
  215MOL0     H29009   8.653   3.610   9.694  0.7843 -1.1670  0.2962
  215MOL0     H29010   8.615   3.401   9.811 -1.9916  3.1612 -4.8302
  215MOL0     H29011   7.193   2.281  10.139 -2.6513 -0.6167  0.0531
  215MOL0     H29012   7.083   2.130  10.295  0.5808 -3.0601  0.2889
  215MOL0     H29013   7.097   1.927  10.717 -1.5309  1.4598  0.1758
  215MOL0     H29014   6.972   1.792  10.874  1.7252  2.4498  0.5582
  215MOL0     H29015   6.681   1.475  10.735  1.0253  1.2291 -0.0883
  215MOL0     H29016   6.836   1.391  10.776  0.7049 -1.3825  2.2014
  215MOL0     H29017   6.608   1.459  10.970 -0.0966 -0.8846 -0.1695
  215MOL0     H29018   6.776   1.438  11.018 -1.3579  1.7059  1.0176
  215MOL0     H29019   6.716   1.201  11.031  0.5257 -1.2246  0.5950
  215MOL0     H29020   6.726   1.212  10.849 -1.0396  1.3063  0.0461
  215MOL0     H29021   6.468   1.241  10.856  3.4539  1.1796 -1.6377
  215MOL0     H29022   6.487   1.302  11.024 -0.2272 -0.4135  2.6810
  215MOL0     H29023   6.478   0.864  11.034  3.0858 -0.2764  0.9208
  215MOL0     H29024   6.821   1.550  10.563 -1.4572  1.6113  0.8609
  215MOL0     H29025   6.944   1.658  10.405 -0.4905 -1.2797  0.3148
  216MOL0     O29026   4.380   4.670   4.049  0.7023 -0.0954 -0.3008
  216MOL0     C29027   4.404   4.780   3.999  0.2734 -0.2451 -0.3340
  216MOL0     O29028   4.518   4.849   4.002 -0.3636 -0.0457  0.3533
  216MOL0     C29029   4.626   4.803   4.070 -0.1307 -0.0196  0.0034
  216MOL0     C29030   4.620   4.734   4.188  1.4124  0.0748 -0.2731
  216MOL0     C29031   4.734   4.710   4.264 -0.3036 -0.0923 -0.4869
  216MOL0     C29032   4.860   4.751   4.219  0.3988  0.1533  0.0218
  216MOL0     O29033   4.975   4.721   4.287  0.6647  0.4240  0.7798
  216MOL0     C29034   5.090   4.812   4.281  0.4740 -1.2010 -0.8400
  216MOL0     C29035   5.173   4.806   4.404  0.0212 -0.5015 -0.3252
  216MOL0     C29036   5.179   4.669   4.465 -0.9095 -0.2930 -0.8741
  216MOL0     C29037   5.283   4.668   4.585  0.6659 -0.2538  0.6473
  216MOL0     C29038   5.276   4.544   4.670  0.6342  0.0708  1.0053
  216MOL0     C29039   5.277   4.412   4.587 -0.4561 -0.5105  0.6140
  216MOL0     C29040   5.256   4.288   4.668 -0.4154  0.6631  0.1080
  216MOL0     C29041   5.251   4.157   4.589 -0.1845 -0.3766  0.1217
  216MOL0     N29042   5.190   4.051   4.673  0.5256  0.2279  0.1022
  216MOL0     C29043   5.222   4.033   4.802  0.8707  0.2942 -0.0588
  216MOL0     C29044   5.159   3.907   4.823 -1.1834  0.2986 -1.4537
  216MOL0     C29045   5.163   3.842   4.956 -0.3722  0.0773  0.1067
  216MOL0     C29046   5.306   3.803   5.009 -0.2559  1.8241 -0.4392
  216MOL0     C29047   5.334   3.650   4.996 -0.0276 -0.7469  0.1795
  216MOL0     C29048   5.467   3.616   5.046 -0.5843  0.3279 -0.3063
  216MOL0     O29049   5.482   3.641   5.190 -0.0919  0.5694 -0.6871
  216MOL0     C29050   5.433   3.555   5.288 -0.4095  0.2385 -0.2500
  216MOL0     C29051   5.367   3.439   5.266 -0.6144  0.9529  0.1527
  216MOL0     C29052   5.308   3.374   5.376  0.5147 -1.1741  0.8299
  216MOL0     C29053   5.210   3.263   5.342  0.0122  0.0032  0.9209
  216MOL0     C29054   5.328   3.416   5.514  0.5871  0.6160 -0.3981
  216MOL0     C29055   5.262   3.353   5.630 -0.2652  1.6354 -0.5141
  216MOL0     O29056   5.223   3.438   5.723  0.4519  0.2813  0.0177
  216MOL0     C29057   5.134   3.388   5.822 -0.5714 -0.7350 -0.9790
  216MOL0     C29058   5.000   3.414   5.799  0.0030  0.0270  0.4188
  216MOL0     C29059   4.907   3.403   5.908  0.0661 -0.0993  0.2066
  216MOL0     C29060   4.947   3.379   6.037 -0.4110 -0.3960  0.3806
  216MOL0     O29061   4.850   3.376   6.130 -0.0889 -0.5787 -0.3326
  216MOL0     C29062   4.891   3.378   6.271 -0.0687 -0.8572  0.6962
  216MOL0     C29063   4.760   3.359   6.348 -0.6089 -0.5630 -0.5172
  216MOL0     C29064   4.751   3.220   6.400  0.1872 -0.9290 -0.1736
  216MOL0     C29065   4.618   3.202   6.482  0.3436  0.3837 -0.1302
  216MOL0     C29066   4.621   3.064   6.546 -0.1136 -0.9070 -0.4719
  216MOL0     C29067   4.625   2.957   6.439  0.0606  0.0901  0.3530
  216MOL0     C29068   4.606   2.821   6.506  0.6639  0.6299 -0.0109
  216MOL0     C29069   4.558   2.722   6.405  0.0217  0.4359  0.0955
  216MOL0    Cl29070   4.524   2.563   6.493 -0.0997 -0.0021 -0.1143
  216MOL0     C29071   5.085   3.346   6.058  0.4769  0.3442  0.7500
  216MOL0     C29072   5.176   3.350   5.952  0.0492 -0.6301  0.4318
  216MOL0     O29073   5.240   3.236   5.630  0.5163 -0.2227  0.6008
  216MOL0     C29074   5.407   3.524   5.533  0.5410 -0.3109 -0.3577
  216MOL0     C29075   5.452   3.601   5.420 -0.0212  0.3164  0.4186
  216MOL0     N29076   5.093   3.859   4.713 -0.4577 -0.5484  0.3995
  216MOL0     N29077   5.117   3.944   4.618  0.2287 -0.1059  0.0252
  216MOL0     C29078   4.868   4.802   4.086  0.0894  0.4857 -0.7450
  216MOL0     C29079   4.754   4.835   4.014 -0.0571 -1.0406 -0.9783
  216MOL0     C29080   4.290   4.834   3.920  0.1252 -0.7229 -0.1750
  216MOL0     C29081   4.191   4.751   3.868 -0.5771 -0.5914 -0.8633
  216MOL0     C29082   4.076   4.807   3.805  0.2857 -0.6180 -0.2641
  216MOL0     C29083   4.072   4.949   3.769  0.0722  1.2918  1.0398
  216MOL0     O29084   3.972   5.015   3.709 -0.3344 -0.1943 -0.7402
  216MOL0     C29085   3.877   4.945   3.627 -0.7756  0.0451  0.2528
  216MOL0     C29086   3.743   5.003   3.633  0.4106 -0.1359 -0.1626
  216MOL0     C29087   3.738   5.143   3.567  0.0098  0.2341 -0.6132
  216MOL0     C29088   3.707   5.249   3.680  0.8208  0.5962 -0.6559
  216MOL0     C29089   3.689   5.381   3.613 -0.4821 -0.4624 -0.3912
  216MOL0     C29090   3.688   5.499   3.560  1.4129 -0.0030  0.2830
  216MOL0     C29091   4.176   5.029   3.801 -0.4520  0.1515  0.7959
  216MOL0     C29092   4.281   4.967   3.873 -0.8126 -0.1266  0.0063
  216MOL0     H29093   4.520   4.711   4.223  0.8576  3.3875  0.6939
  216MOL0     H29094   4.733   4.677   4.368  2.1282  2.7095  0.5636
  216MOL0     H29095   5.158   4.796   4.196  2.4327  0.3492  0.3516
  216MOL0     H29096   5.048   4.913   4.292  0.5972 -1.3474  1.3901
  216MOL0     H29097   5.274   4.845   4.389 -0.4834  0.7971 -0.4080
  216MOL0     H29098   5.126   4.875   4.474 -1.2061 -0.7803 -0.8572
  216MOL0     H29099   5.086   4.629   4.507  0.0633 -0.7410  0.9622
  216MOL0     H29100   5.211   4.602   4.385  0.5357  0.4416 -0.9572
  216MOL0     H29101   5.384   4.678   4.545  0.5701 -0.4697  0.3447
  216MOL0     H29102   5.251   4.748   4.652  2.8519 -2.1766  4.3302
  216MOL0     H29103   5.363   4.544   4.736 -0.1227 -3.6147  2.2600
  216MOL0     H29104   5.187   4.548   4.734 -0.1696  1.3957 -0.1399
  216MOL0     H29105   5.190   4.408   4.521  1.6549 -0.7249 -2.3622
  216MOL0     H29106   5.369   4.404   4.528 -1.0010  0.0540 -0.3410
  216MOL0     H29107   5.332   4.270   4.745 -1.9440  1.0000  1.7667
  216MOL0     H29108   5.158   4.298   4.716 -0.9295 -0.7264 -0.5771
  216MOL0     H29109   5.348   4.132   4.545  1.1369  3.7849  0.1750
  216MOL0     H29110   5.193   4.166   4.496 -0.3994 -2.4776  0.0066
  216MOL0     H29111   5.294   4.086   4.865 -0.9166  0.6501  1.7939
  216MOL0     H29112   5.140   3.926   5.021  1.8834  0.8271  0.0229
  216MOL0     H29113   5.084   3.768   4.971  0.0543 -0.0152  2.1409
  216MOL0     H29114   5.314   3.812   5.118  0.6318 -0.0066 -0.3153
  216MOL0     H29115   5.385   3.854   4.954  0.6423  0.8518 -0.0983
  216MOL0     H29116   5.341   3.618   4.891  1.2064 -2.0562  0.6400
  216MOL0     H29117   5.246   3.600   5.036 -1.3478 -0.5672 -2.3042
  216MOL0     H29118   5.544   3.669   4.990  0.3792 -2.1210 -1.4267
  216MOL0     H29119   5.490   3.510   5.030 -0.1503 -0.3583  3.7386
  216MOL0     H29120   5.350   3.405   5.165  1.4847 -3.4944  1.0509
  216MOL0     H29121   5.116   3.265   5.398 -2.1606  2.4319 -2.4832
  216MOL0     H29122   5.177   3.264   5.238 -1.3861 -1.5526  1.3002
  216MOL0     H29123   5.258   3.168   5.371  2.3679  1.2402  1.3479
  216MOL0     H29124   4.977   3.448   5.699  2.9225 -0.1273 -0.3945
  216MOL0     H29125   4.803   3.424   5.887 -0.5308  0.1198  3.0921
  216MOL0     H29126   4.964   3.301   6.294  1.4817  0.5593  0.6751
  216MOL0     H29127   4.938   3.474   6.294 -0.5032 -1.5077  4.9912
  216MOL0     H29128   4.769   3.428   6.433  2.8232  0.4922 -1.5593
  216MOL0     H29129   4.673   3.388   6.288 -1.8115 -1.5348  0.6993
  216MOL0     H29130   4.846   3.199   6.449  0.9395  0.2513 -1.1012
  216MOL0     H29131   4.746   3.161   6.309 -1.6248  0.7593 -1.2415
  216MOL0     H29132   4.609   3.283   6.555 -1.9996 -0.6858  0.8714
  216MOL0     H29133   4.526   3.202   6.423 -0.7747  0.5120  1.5457
  216MOL0     H29134   4.526   3.061   6.599 -1.6194  0.9769 -2.8772
  216MOL0     H29135   4.708   3.048   6.611  0.2219  0.3955 -0.5699
  216MOL0     H29136   4.546   2.978   6.367  0.4227 -0.0943 -0.0998
  216MOL0     H29137   4.721   2.947   6.387 -0.4343 -1.5586 -0.3144
  216MOL0     H29138   4.526   2.821   6.582  1.1813 -3.6428  0.7615
  216MOL0     H29139   4.695   2.799   6.566 -0.2997  3.6005  2.7699
  216MOL0     H29140   4.627   2.698   6.323 -0.9849 -3.4856  0.2043
  216MOL0     H29141   4.469   2.758   6.352  0.5984 -1.9838 -2.7653
  216MOL0     H29142   5.117   3.312   6.156  1.5854  1.9484  0.9677
  216MOL0     H29143   5.283   3.340   5.967  0.5694  2.2461 -0.8053
  216MOL0     H29144   5.435   3.552   5.634 -0.0567 -2.5928  0.4864
  216MOL0     H29145   5.515   3.687   5.443 -1.6835  1.4377  1.0108
  216MOL0     H29146   4.966   4.806   4.040  0.7739 -0.0402  0.5969
  216MOL0     H29147   4.769   4.864   3.910  0.2219 -4.8761 -2.1758
  216MOL0     H29148   4.189   4.643   3.880 -0.0058 -0.4123  1.1718
  216MOL0     H29149   3.980   4.760   3.784  0.3360 -0.7036 -0.3027
  216MOL0     H29150   3.910   4.961   3.524  0.9780  1.2948  0.9732
  216MOL0     H29151   3.874   4.839   3.654  2.2381 -0.3316 -0.5890
  216MOL0     H29152   3.712   5.003   3.738  4.4206  1.9998  1.2181
  216MOL0     H29153   3.678   4.928   3.586  0.2821  0.2289 -0.5834
  216MOL0     H29154   3.666   5.152   3.485 -1.5454  3.4437  0.9300
  216MOL0     H29155   3.831   5.170   3.515  0.5696 -2.3252 -1.0851
  216MOL0     H29156   3.790   5.252   3.751  1.6645  0.0130 -1.5983
  216MOL0     H29157   3.615   5.215   3.729  0.9559  0.1600 -0.7048
  216MOL0     H29158   3.678   5.594   3.512  2.3679 -0.5248 -1.0286
  216MOL0     H29159   4.178   5.134   3.773  0.2548 -0.3959 -1.3505
  216MOL0     H29160   4.352   5.040   3.911 -2.0727  0.3358  1.6192
  217MOL0     O29161   5.083   2.990   3.473  0.0328  0.4185  0.7544
  217MOL0     C29162   5.160   2.892   3.486  0.8940 -0.5798  0.5890
  217MOL0     O29163   5.259   2.850   3.397  0.4649  0.5777  0.6522
  217MOL0     C29164   5.262   2.914   3.275  0.9886  0.6202  0.1939
  217MOL0     C29165   5.169   2.889   3.163 -0.7420 -0.0909  0.6013
  217MOL0     C29166   5.187   2.953   3.040 -0.6654 -0.6818 -0.1180
  217MOL0     C29167   5.293   3.055   3.027 -1.0418  0.0351 -0.3888
  217MOL0     O29168   5.301   3.151   2.926 -0.2540  0.0838 -1.2050
  217MOL0     C29169   5.278   3.108   2.792  0.4582  0.3341  0.2789
  217MOL0     C29170   5.145   3.163   2.744  0.5048  0.0299  0.7356
  217MOL0     C29171   5.146   3.317   2.755 -0.4815 -0.0001  1.0189
  217MOL0     C29172   5.018   3.376   2.690 -0.2470 -0.7188 -0.0042
  217MOL0     C29173   5.016   3.530   2.709 -0.2655  0.6439 -0.4026
  217MOL0     C29174   4.895   3.603   2.658  0.3000  0.0829  0.1587
  217MOL0     C29175   4.910   3.624   2.507  0.3233  0.6833 -0.1285
  217MOL0     C29176   4.789   3.679   2.429  0.3146  0.2337 -0.2242
  217MOL0     N29177   4.664   3.593   2.442  0.0707 -0.1640  0.6799
  217MOL0     C29178   4.545   3.658   2.459 -0.5640  0.2994 -0.4707
  217MOL0     C29179   4.452   3.561   2.472 -0.3832 -0.3042 -0.2182
  217MOL0     C29180   4.307   3.594   2.500 -0.1817 -0.2776  0.7505
  217MOL0     C29181   4.278   3.582   2.644  0.0349 -0.5461  0.3726
  217MOL0     C29182   4.126   3.592   2.680 -0.2376  0.2007 -0.1280
  217MOL0     C29183   4.106   3.578   2.830  0.6005  0.6181 -0.6917
  217MOL0     O29184   4.120   3.442   2.865 -0.7515 -0.4080  0.5005
  217MOL0     C29185   4.112   3.397   2.989 -0.0499  0.0790 -0.9220
  217MOL0     C29186   4.164   3.268   3.015 -0.3315 -1.2630 -0.8779
  217MOL0     C29187   4.171   3.212   3.150  0.2136  1.1477  0.2939
  217MOL0     C29188   4.230   3.077   3.156 -0.3099 -0.4528  0.5518
  217MOL0     C29189   4.103   3.294   3.251 -0.1780  1.0265 -0.5004
  217MOL0     C29190   4.097   3.246   3.396 -0.1992 -1.2478  1.1589
  217MOL0     O29191   4.042   3.331   3.491  0.6584  0.4115  0.3531
  217MOL0     C29192   4.048   3.274   3.616 -0.5112 -0.8963 -0.3498
  217MOL0     C29193   3.936   3.226   3.677 -0.1509 -0.6090 -0.6553
  217MOL0     C29194   3.942   3.173   3.811  0.5789  0.3018 -0.6526
  217MOL0     C29195   4.059   3.183   3.880 -0.1956 -0.6315 -0.0447
  217MOL0     O29196   4.071   3.132   4.005  0.2963  0.0463 -0.3613
  217MOL0     C29197   4.090   3.216   4.118  0.4790 -0.3709 -1.2881
  217MOL0     C29198   3.966   3.274   4.188 -0.9810  0.3681  0.1283
  217MOL0     C29199   3.882   3.360   4.086 -0.2213  0.8205 -0.3026
  217MOL0     C29200   3.779   3.438   4.173 -0.1403 -0.1544 -0.3921
  217MOL0     C29201   3.686   3.351   4.251  1.0045  0.7079 -1.0569
  217MOL0     C29202   3.548   3.411   4.282  0.0616  0.5194 -0.0858
  217MOL0     C29203   3.547   3.494   4.410 -0.7498 -0.8596 -0.5726
  217MOL0     C29204   3.402   3.541   4.430 -0.3189  0.4899 -0.2753
  217MOL0    Cl29205   3.346   3.665   4.308  0.1420  0.3491 -0.0473
  217MOL0     C29206   4.175   3.231   3.827  0.3504  0.2114  0.3758
  217MOL0     C29207   4.162   3.278   3.698 -0.6471  0.2535  0.1294
  217MOL0     O29208   4.146   3.140   3.414 -0.0817 -0.2397  0.6707
  217MOL0     C29209   4.048   3.413   3.223  0.8291  0.2290 -0.1547
  217MOL0     C29210   4.055   3.469   3.097 -0.0801 -0.2178  0.3442
  217MOL0     N29211   4.521   3.443   2.449 -0.0027  0.3245 -0.1243
  217MOL0     N29212   4.650   3.462   2.434  0.0568  0.0179  0.3285
  217MOL0     C29213   5.382   3.080   3.141  0.2221  0.5946  0.4904
  217MOL0     C29214   5.360   3.011   3.258 -0.1687  0.9733 -0.2818
  217MOL0     C29215   5.157   2.812   3.603  0.9366 -0.4263  0.2735
  217MOL0     C29216   5.059   2.851   3.700  0.1533 -0.5316  0.7040
  217MOL0     C29217   5.050   2.790   3.827 -0.2349 -0.8245 -1.1323
  217MOL0     C29218   5.147   2.686   3.859 -0.5903  1.0809 -0.6939
  217MOL0     O29219   5.160   2.606   3.973 -0.4943  0.4453 -0.2479
  217MOL0     C29220   5.060   2.624   4.075  0.8890  0.3521  0.5366
  217MOL0     C29221   5.001   2.488   4.092 -0.0046  0.8292 -0.0761
  217MOL0     C29222   4.883   2.505   4.195  0.4835  1.7596  0.2761
  217MOL0     C29223   4.759   2.580   4.145 -0.2749  0.4335  0.3859
  217MOL0     C29224   4.709   2.536   4.016 -0.0420 -1.2273 -0.2799
  217MOL0     C29225   4.667   2.487   3.914  0.4608  0.8019 -1.2307
  217MOL0     C29226   5.238   2.646   3.763 -0.0621  0.3711  0.5857
  217MOL0     C29227   5.249   2.710   3.631  0.4250  0.3668 -0.7310
  217MOL0     H29228   5.087   2.818   3.174  0.3886 -1.2471  1.9469
  217MOL0     H29229   5.121   2.913   2.963 -0.8365 -3.6008  1.3882
  217MOL0     H29230   5.344   3.154   2.718 -3.1920  1.2593 -2.6608
  217MOL0     H29231   5.273   2.999   2.785  0.6785  0.3651 -0.4122
  217MOL0     H29232   5.117   3.124   2.646 -1.1721 -0.5288  1.4004
  217MOL0     H29233   5.073   3.121   2.815  3.3388 -3.6530  1.7622
  217MOL0     H29234   5.161   3.360   2.855 -0.1012  3.3496 -0.3297
  217MOL0     H29235   5.232   3.341   2.691 -1.2648 -3.8447 -1.8663
  217MOL0     H29236   5.027   3.368   2.581 -3.4600  1.2873 -0.5410
  217MOL0     H29237   4.925   3.338   2.731 -0.6973  1.0781  0.7526
  217MOL0     H29238   5.022   3.552   2.816  1.8059  1.1913 -0.5741
  217MOL0     H29239   5.111   3.566   2.667  0.2678 -1.8457 -1.4637
  217MOL0     H29240   4.803   3.550   2.688 -0.2557  1.5460  1.1377
  217MOL0     H29241   4.892   3.701   2.706  2.1565  0.1175  0.2790
  217MOL0     H29242   4.988   3.697   2.483 -1.2210  3.5750  2.7883
  217MOL0     H29243   4.930   3.522   2.473  0.2149  0.5834  0.1037
  217MOL0     H29244   4.816   3.680   2.323 -0.3057 -1.5132 -0.4397
  217MOL0     H29245   4.766   3.775   2.475 -0.8220 -0.5269  0.8644
  217MOL0     H29246   4.528   3.764   2.472  0.5016  0.0975  4.3676
  217MOL0     H29247   4.287   3.695   2.462 -2.1086 -0.6265  0.7299
  217MOL0     H29248   4.238   3.537   2.438 -1.3879  1.2018  0.6545
  217MOL0     H29249   4.326   3.661   2.703 -2.6205  2.5181 -1.2940
  217MOL0     H29250   4.312   3.485   2.681 -1.3223 -1.6430 -1.1347
  217MOL0     H29251   4.067   3.521   2.621 -0.0631 -0.6882  0.7345
  217MOL0     H29252   4.093   3.689   2.643 -0.0795  0.3844  0.2014
  217MOL0     H29253   4.003   3.603   2.854  0.5799 -0.6451  0.6620
  217MOL0     H29254   4.167   3.644   2.892  2.7794  0.2864 -2.3547
  217MOL0     H29255   4.211   3.212   2.935 -1.0581 -1.7737 -0.9521
  217MOL0     H29256   4.271   3.044   3.061  2.5084  0.2086  1.4431
  217MOL0     H29257   4.316   3.104   3.218 -1.0477  3.7753  0.0766
  217MOL0     H29258   4.185   2.997   3.216  0.2941 -1.0523  0.2198
  217MOL0     H29259   3.850   3.218   3.611 -0.2171  0.7585 -0.7732
  217MOL0     H29260   3.845   3.144   3.851  1.5066  0.6145  2.0747
  217MOL0     H29261   4.160   3.176   4.191  2.3021  2.4185 -1.3297
  217MOL0     H29262   4.142   3.303   4.075 -1.1943  0.5245 -1.5965
  217MOL0     H29263   3.903   3.195   4.229  1.1783 -0.3598  2.3232
  217MOL0     H29264   4.011   3.324   4.274  2.3170 -1.1892 -0.5186
  217MOL0     H29265   3.822   3.294   4.023  2.1768 -1.5410 -0.2619
  217MOL0     H29266   3.938   3.431   4.024 -0.8919  1.7355  0.1147
  217MOL0     H29267   3.839   3.495   4.244 -0.2517  2.1845 -2.0393
  217MOL0     H29268   3.722   3.511   4.114 -0.5556  0.8631  1.2078
  217MOL0     H29269   3.721   3.309   4.345 -3.0170  2.9204  1.7021
  217MOL0     H29270   3.660   3.262   4.192 -0.4675 -0.2495  0.9453
  217MOL0     H29271   3.504   3.455   4.192 -0.8655 -0.9332 -0.3727
  217MOL0     H29272   3.486   3.325   4.307  0.7052  0.5461  1.7525
  217MOL0     H29273   3.620   3.575   4.400 -1.1783 -0.5658 -1.4927
  217MOL0     H29274   3.572   3.428   4.493  0.5926 -1.0858 -1.1385
  217MOL0     H29275   3.376   3.571   4.532  3.5313 -1.6331  1.5606
  217MOL0     H29276   3.342   3.451   4.419 -1.6194  1.4634 -1.5569
  217MOL0     H29277   4.264   3.244   3.888 -1.9022  0.8730  3.7896
  217MOL0     H29278   4.253   3.330   3.669 -0.2170  0.7363  2.1733
  217MOL0     H29279   3.999   3.475   3.298 -1.7105  0.7527 -2.1042
  217MOL0     H29280   4.020   3.570   3.077  1.6459  0.8222  2.1974
  217MOL0     H29281   5.455   3.160   3.137  2.4565 -1.3756 -2.5049
  217MOL0     H29282   5.419   3.036   3.346  3.1162 -2.5678 -1.1838
  217MOL0     H29283   4.985   2.925   3.670  0.2187 -1.1349 -1.0482
  217MOL0     H29284   4.972   2.830   3.891 -1.0363 -0.7362 -2.1443
  217MOL0     H29285   5.113   2.649   4.167  3.4285 -2.8466  0.1449
  217MOL0     H29286   4.982   2.698   4.053  2.6111  2.1855  0.3454
  217MOL0     H29287   5.074   2.416   4.130  0.8192  2.2370  1.1154
  217MOL0     H29288   4.963   2.450   3.997 -1.7437 -3.1021  1.9451
  217MOL0     H29289   4.914   2.544   4.292 -1.8657 -0.9430  2.2775
  217MOL0     H29290   4.854   2.405   4.230  0.6830  2.0365  1.2625
  217MOL0     H29291   4.786   2.685   4.158 -0.6692  0.5583  0.2168
  217MOL0     H29292   4.685   2.554   4.222 -0.4153  2.0233  0.8436
  217MOL0     H29293   4.624   2.453   3.822 -2.7879  0.6249  0.1997
  217MOL0     H29294   5.308   2.564   3.776 -2.5664 -1.6769  2.1715
  217MOL0     H29295   5.317   2.683   3.552 -0.7514 -2.4027 -0.8904
  218MOL0     O29296   0.792   3.554   7.454  0.2394  0.0808  0.1384
  218MOL0     C29297   0.773   3.515   7.338 -0.0458  0.0497 -0.4378
  218MOL0     O29298   0.690   3.559   7.240 -0.1643  0.5814 -0.9902
  218MOL0     C29299   0.610   3.679   7.269 -0.3760 -0.0992 -0.0894
  218MOL0     C29300   0.649   3.790   7.344  1.0499 -0.4047  0.1842
  218MOL0     C29301   0.564   3.902   7.356  0.4358 -0.1587 -0.8302
  218MOL0     C29302   0.444   3.911   7.281 -1.4642 -0.1084  0.3064
  218MOL0     O29303   0.362   4.021   7.294 -0.1672 -0.1254 -0.3714
  218MOL0     C29304   0.223   3.988   7.302 -0.2669 -0.6813 -0.7268
  218MOL0     C29305   0.150   4.110   7.364  0.7476  0.4505  0.1118
  218MOL0     C29306  -0.003   4.093   7.364  0.1033 -0.0942  0.5466
  218MOL0     C29307  -0.094   4.213   7.373 -0.3087 -0.2436  0.5420
  218MOL0     C29308  -0.234   4.177   7.402  0.2013  0.4056  0.8691
  218MOL0     C29309  -0.330   4.301   7.410 -0.0510 -0.2567 -0.1724
  218MOL0     C29310  -0.477   4.269   7.438  0.3180  0.3298 -0.7362
  218MOL0     C29311  -0.547   4.212   7.323  0.0896  0.0267  0.4198
  218MOL0     N29312  -0.694   4.228   7.338  0.6653  0.4209 -1.0631
  218MOL0     C29313  -0.782   4.133   7.396  0.1617  0.9061  0.5692
  218MOL0     C29314  -0.900   4.195   7.411  0.6617 -0.5666 -0.7554
  218MOL0     C29315  -1.033   4.132   7.444 -0.9189  0.0822 -0.7885
  218MOL0     C29316  -1.085   4.181   7.587  0.6828 -0.4314 -0.7877
  218MOL0     C29317  -1.022   4.102   7.705 -1.0466 -0.4866 -0.0308
  218MOL0     C29318  -1.095   4.085   7.836  0.1680 -0.2891 -0.3487
  218MOL0     O29319  -1.007   4.031   7.931  0.3576  0.2913  0.0730
  218MOL0     C29320  -1.059   3.944   8.029 -0.8079  0.0272  0.7173
  218MOL0     C29321  -1.189   3.949   8.069  0.4547 -0.4388  0.0388
  218MOL0     C29322  -1.251   3.834   8.131  0.8305 -0.0438  1.2131
  218MOL0     C29323  -1.405   3.831   8.137 -0.8220  0.1807  0.0394
  218MOL0     C29324  -1.168   3.724   8.176 -0.0155 -0.3694 -1.1652
  218MOL0     C29325  -1.220   3.604   8.240 -0.7933  0.3186 -1.3933
  218MOL0     O29326  -1.125   3.510   8.271  0.7508 -0.6812  1.0714
  218MOL0     C29327  -1.158   3.419   8.363 -0.0947 -0.1892 -0.3665
  218MOL0     C29328  -1.203   3.465   8.493 -0.2818 -0.1341 -0.1664
  218MOL0     C29329  -1.221   3.378   8.604  0.9185 -0.1365 -0.2303
  218MOL0     C29330  -1.187   3.240   8.587 -0.8053 -0.1445 -0.3877
  218MOL0     O29331  -1.190   3.151   8.688 -0.3342  0.3721 -1.1480
  218MOL0     C29332  -1.215   3.003   8.673  0.3758 -0.4238  0.1155
  218MOL0     C29333  -1.356   2.954   8.627  0.2751 -0.0889 -0.2553
  218MOL0     C29334  -1.471   2.984   8.731  0.4206 -1.0785  0.5235
  218MOL0     C29335  -1.585   2.884   8.707 -0.0007  0.6658  0.2824
  218MOL0     C29336  -1.707   2.911   8.796  0.4187  0.8343  0.2104
  218MOL0     C29337  -1.694   2.879   8.945  0.4177  1.0271  0.7134
  218MOL0     C29338  -1.823   2.883   9.023 -0.8815 -0.7681  0.2117
  218MOL0     C29339  -1.788   2.909   9.170  0.2420 -1.0426  0.8217
  218MOL0    Cl29340  -1.747   2.765   9.254 -0.2947 -0.3526 -0.2615
  218MOL0     C29341  -1.138   3.195   8.456  0.4203 -0.3398 -0.1876
  218MOL0     C29342  -1.122   3.289   8.355 -0.7127 -0.8682 -0.4621
  218MOL0     O29343  -1.342   3.592   8.261 -0.1533 -0.3717  0.5983
  218MOL0     C29344  -1.028   3.733   8.143  0.4847 -0.1553  0.9859
  218MOL0     C29345  -0.975   3.845   8.076 -0.6194 -0.9235  0.4922
  218MOL0     N29346  -0.873   4.325   7.373  0.0650  0.0702 -0.2446
  218MOL0     N29347  -0.757   4.347   7.331  0.1414 -1.1554  0.0951
  218MOL0     C29348   0.419   3.807   7.197 -0.2174 -0.7583  0.0303
  218MOL0     C29349   0.504   3.694   7.185 -0.1546 -0.6438  0.3907
  218MOL0     C29350   0.852   3.391   7.311  0.2629  0.1491  0.1719
  218MOL0     C29351   0.909   3.298   7.409 -0.3363 -1.5066 -0.4054
  218MOL0     C29352   0.961   3.181   7.372 -0.5608 -0.4396 -0.1246
  218MOL0     C29353   0.953   3.131   7.242 -0.2083 -0.6317  0.4712
  218MOL0     O29354   1.002   3.004   7.213  0.4604 -0.2497 -0.1184
  218MOL0     C29355   0.965   2.948   7.088 -0.1390 -0.2271  0.3660
  218MOL0     C29356   0.815   2.908   7.084  0.1840 -0.1586 -0.6946
  218MOL0     C29357   0.790   2.811   7.197  0.0984  0.4072 -1.0508
  218MOL0     C29358   0.634   2.775   7.206 -0.3295  0.6219 -0.0130
  218MOL0     C29359   0.610   2.637   7.267 -0.3980 -0.4562  0.6036
  218MOL0     C29360   0.594   2.534   7.330 -0.2279 -0.3474  0.0374
  218MOL0     C29361   0.905   3.218   7.139 -0.1356  0.3459  0.1555
  218MOL0     C29362   0.855   3.346   7.174 -0.0925 -0.1683  0.4842
  218MOL0     H29363   0.725   3.778   7.420  0.6859 -2.3237  0.2879
  218MOL0     H29364   0.584   3.981   7.428  0.0770 -1.6813  1.0482
  218MOL0     H29365   0.174   3.962   7.208  0.4195 -1.5965 -0.8432
  218MOL0     H29366   0.207   3.905   7.371  3.6710 -1.4268 -0.4697
  218MOL0     H29367   0.179   4.135   7.467  0.3657  1.9896 -0.1335
  218MOL0     H29368   0.176   4.199   7.306 -0.2798  2.0650  1.9991
  218MOL0     H29369  -0.032   4.035   7.276 -2.5081  1.1497  0.4738
  218MOL0     H29370  -0.034   4.023   7.443 -0.6907 -0.5739 -0.1753
  218MOL0     H29371  -0.059   4.287   7.446  1.4006 -1.5297  1.0824
  218MOL0     H29372  -0.075   4.264   7.278  1.7594  1.7747  1.9411
  218MOL0     H29373  -0.268   4.101   7.331 -3.4958  1.3240  1.4498
  218MOL0     H29374  -0.238   4.136   7.503 -0.8589  2.8020  1.8848
  218MOL0     H29375  -0.294   4.359   7.496 -0.0690 -1.7061  0.8486
  218MOL0     H29376  -0.318   4.362   7.320  1.1514 -1.7040 -1.0382
  218MOL0     H29377  -0.474   4.204   7.526 -0.8336 -0.2834 -1.1176
  218MOL0     H29378  -0.516   4.370   7.453  0.7317  0.5046 -0.8274
  218MOL0     H29379  -0.524   4.105   7.315  1.5564  0.4572 -2.8767
  218MOL0     H29380  -0.512   4.249   7.226  0.9705 -0.2451  0.6163
  218MOL0     H29381  -0.769   4.025   7.401 -1.6445  0.6681  0.7708
  218MOL0     H29382  -1.102   4.177   7.371 -2.1322 -0.5495 -0.0574
  218MOL0     H29383  -1.048   4.026   7.425 -2.8742  0.2031 -0.0950
  218MOL0     H29384  -1.194   4.168   7.593  0.2635  2.3580 -0.8600
  218MOL0     H29385  -1.078   4.290   7.600 -0.8615 -0.5707  2.0119
  218MOL0     H29386  -0.927   4.151   7.726 -1.2972  0.3304 -0.7229
  218MOL0     H29387  -1.005   4.000   7.671  2.1489 -0.4793  1.2358
  218MOL0     H29388  -1.182   4.020   7.827  1.1991 -1.8143  0.2311
  218MOL0     H29389  -1.135   4.177   7.879 -0.0602 -0.2154 -0.7164
  218MOL0     H29390  -1.258   4.030   8.049  0.7925 -0.2272 -0.3002
  218MOL0     H29391  -1.438   3.814   8.240 -0.2514 -0.3084  0.1472
  218MOL0     H29392  -1.443   3.926   8.097  0.7492  0.6983 -0.2756
  218MOL0     H29393  -1.450   3.745   8.086 -0.4713 -2.2327  3.4399
  218MOL0     H29394  -1.234   3.569   8.495  0.0884 -0.0275  0.0820
  218MOL0     H29395  -1.245   3.421   8.702  4.4540 -1.1034  1.1862
  218MOL0     H29396  -1.152   2.965   8.592 -2.4849 -0.0042 -2.5052
  218MOL0     H29397  -1.183   2.958   8.767  5.1123  1.6790 -0.2091
  218MOL0     H29398  -1.379   2.990   8.527  1.0252 -1.0466 -0.7886
  218MOL0     H29399  -1.358   2.845   8.622 -2.1002 -0.0703 -0.9570
  218MOL0     H29400  -1.512   3.084   8.713  2.8423 -0.4446 -2.3110
  218MOL0     H29401  -1.424   2.973   8.829 -0.3074  0.2567  1.0588
  218MOL0     H29402  -1.624   2.901   8.606  1.4359 -1.1397 -0.6327
  218MOL0     H29403  -1.561   2.778   8.715  0.2930  0.5768 -1.3961
  218MOL0     H29404  -1.782   2.846   8.751  0.5151  0.5123  0.5076
  218MOL0     H29405  -1.727   3.017   8.782  0.0640  0.6835 -0.4619
  218MOL0     H29406  -1.661   2.775   8.940 -2.2854  0.1377 -3.3938
  218MOL0     H29407  -1.609   2.929   8.993  1.3368  1.5300 -1.3130
  218MOL0     H29408  -1.879   2.790   9.016  0.5414 -1.6014 -0.6401
  218MOL0     H29409  -1.887   2.960   8.979  1.1046 -0.7847 -3.0190
  218MOL0     H29410  -1.870   2.960   9.221  0.7114 -0.8189  1.3685
  218MOL0     H29411  -1.708   2.983   9.176  0.1816 -0.9097  0.1142
  218MOL0     H29412  -1.116   3.094   8.422 -1.3648 -0.2385 -1.7968
  218MOL0     H29413  -1.080   3.246   8.264 -2.5524 -1.3453 -1.1442
  218MOL0     H29414  -0.957   3.656   8.172  0.0412 -0.4669  1.2572
  218MOL0     H29415  -0.874   3.840   8.038 -0.0041 -0.2416  1.9679
  218MOL0     H29416   0.333   3.829   7.136 -0.5369  1.7808  1.2736
  218MOL0     H29417   0.472   3.624   7.109 -0.1733  0.5538 -0.7448
  218MOL0     H29418   0.896   3.314   7.516 -2.3177 -1.7610 -0.5663
  218MOL0     H29419   1.010   3.126   7.452  0.4713  1.8823  0.9031
  218MOL0     H29420   0.985   3.007   6.998  0.7667 -1.7562 -0.4717
  218MOL0     H29421   1.049   2.881   7.069  1.2132  2.2320 -3.4076
  218MOL0     H29422   0.801   2.863   6.986 -2.2879 -0.5058 -0.2695
  218MOL0     H29423   0.747   2.993   7.100 -0.1399 -0.4322 -0.5893
  218MOL0     H29424   0.805   2.868   7.289 -0.5921 -0.2981 -0.4960
  218MOL0     H29425   0.844   2.716   7.195 -4.4051 -2.4571 -2.3066
  218MOL0     H29426   0.591   2.768   7.106 -2.6231 -0.6105  0.9787
  218MOL0     H29427   0.591   2.845   7.278  3.5341  1.7343  1.4694
  218MOL0     H29428   0.587   2.445   7.388  2.5604 -0.0275  1.0278
  218MOL0     H29429   0.900   3.176   7.038 -0.5625 -1.6471  0.9554
  218MOL0     H29430   0.819   3.413   7.097  2.3302 -1.1925 -1.7233
  219MOL0     O29431   5.355   9.986   0.295  0.1961 -0.6265 -0.7876
  219MOL0     C29432   5.333  10.060   0.203  0.4632 -0.5540  0.3321
  219MOL0     O29433   5.359  10.196   0.194 -0.0113  0.0817 -0.2019
  219MOL0     C29434   5.426  10.256   0.303 -0.5981  0.2658  0.1587
  219MOL0     C29435   5.403  10.224   0.438  0.6305 -0.9184  0.5947
  219MOL0     C29436   5.473  10.285   0.539 -0.1189  0.4385  0.7799
  219MOL0     C29437   5.565  10.380   0.511 -0.0113  0.4162 -0.3279
  219MOL0     O29438   5.615  10.446   0.626  0.1378  0.2297  0.8421
  219MOL0     C29439   5.723  10.548   0.617  0.5785  0.8290  0.1216
  219MOL0     C29440   5.816  10.529   0.737 -0.1457 -0.9122  0.6643
  219MOL0     C29441   5.937  10.628   0.726  0.9723 -0.4677  0.1257
  219MOL0     C29442   6.032  10.610   0.851 -0.3823  0.5335 -0.4336
  219MOL0     C29443   6.160  10.691   0.824 -0.7869  0.0060  0.0205
  219MOL0     C29444   6.267  10.694   0.933  0.3937  0.0259 -0.7934
  219MOL0     C29445   6.328  10.835   0.942  0.0842  0.4483 -0.0162
  219MOL0     C29446   6.417  10.860   1.073 -0.2110 -0.8364 -0.3264
  219MOL0     N29447   6.532  10.777   1.085  0.7393 -0.0884 -0.4683
  219MOL0     C29448   6.543  10.648   1.117 -0.5456  0.5999  0.1993
  219MOL0     C29449   6.670  10.619   1.082  0.2342  0.3387  0.0584
  219MOL0     C29450   6.721  10.478   1.070 -0.3929 -0.3709  0.0161
  219MOL0     C29451   6.717  10.422   0.931  0.4566  0.2230 -0.6516
  219MOL0     C29452   6.711  10.271   0.937  0.8291  0.5626 -0.7997
  219MOL0     C29453   6.768  10.204   0.812  0.5270 -0.2153 -1.0558
  219MOL0     O29454   6.910  10.189   0.805  0.0198 -0.7553  0.0392
  219MOL0     C29455   6.958  10.153   0.686  0.2624 -0.0215  0.8557
  219MOL0     C29456   7.095  10.166   0.680  0.4031  0.2024 -0.0207
  219MOL0     C29457   7.164  10.116   0.567  0.4746  0.3399  0.0467
  219MOL0     C29458   7.314  10.137   0.572 -0.2342  0.9848  0.5361
  219MOL0     C29459   7.096  10.043   0.464  0.1425  0.3168  0.5747
  219MOL0     C29460   7.152   9.993   0.330  0.1300 -0.7203  0.7729
  219MOL0     O29461   7.093   9.888   0.281  0.6285 -0.2414  0.5151
  219MOL0     C29462   7.144   9.798   0.190  1.5574 -0.2033 -0.0189
  219MOL0     C29463   7.232   9.833   0.086  0.1360 -0.5947  0.4008
  219MOL0     C29464   7.274   9.739  -0.019 -0.3913 -0.2606  0.4460
  219MOL0     C29465   7.220   9.610  -0.012  0.0379  0.3465  0.7233
  219MOL0     O29466   7.255   9.519  -0.122 -0.4471  0.8302 -0.3832
  219MOL0     C29467   7.174   9.396  -0.129 -0.0347 -0.7972 -0.3637
  219MOL0     C29468   7.228   9.326  -0.256  0.1948  0.0688 -0.2492
  219MOL0     C29469   7.129   9.224  -0.323 -0.4514  0.0289  0.1689
  219MOL0     C29470   7.095   9.110  -0.226 -0.1759 -0.6018 -0.8792
  219MOL0     C29471   7.208   9.015  -0.210 -0.1019 -0.9834  1.1077
  219MOL0     C29472   7.172   8.915  -0.108 -0.0613  0.1236 -0.3666
  219MOL0     C29473   7.293   8.826  -0.092 -0.1665 -0.0856  0.2082
  219MOL0     C29474   7.302   8.712  -0.202  0.8666  0.0834  0.5775
  219MOL0    Cl29475   7.159   8.608  -0.201 -0.0905  0.1997  0.0783
  219MOL0     C29476   7.130   9.576   0.084 -0.5676 -0.7445 -0.0137
  219MOL0     C29477   7.097   9.664   0.186 -0.5033  0.1894  1.0505
  219MOL0     O29478   7.254  10.043   0.279 -0.1751 -0.2652 -0.8372
  219MOL0     C29479   6.957  10.042   0.469 -0.1788 -0.4854 -0.2571
  219MOL0     C29480   6.884  10.110   0.574 -0.5861 -0.3348 -0.2782
  219MOL0     N29481   6.742  10.733   1.060  0.6362  0.8702 -0.9522
  219MOL0     N29482   6.656  10.829   1.062  0.5142 -0.5158 -0.0252
  219MOL0     C29483   5.583  10.411   0.379 -0.5100  0.4132 -0.1238
  219MOL0     C29484   5.530  10.341   0.273 -0.1230 -0.1088  0.7827
  219MOL0     C29485   5.265  10.014   0.078  0.0203  0.4992  0.9980
  219MOL0     C29486   5.228   9.874   0.058  0.3327 -0.6529 -0.4636
  219MOL0     C29487   5.168   9.834  -0.061  0.7179  0.5990 -0.0527
  219MOL0     C29488   5.148   9.916  -0.170 -0.2875 -1.1342  0.4584
  219MOL0     O29489   5.106   9.871  -0.290 -0.4518 -0.0997 -0.1000
  219MOL0     C29490   4.985   9.793  -0.300 -0.7041  0.2729 -1.1127
  219MOL0     C29491   4.984   9.729  -0.437 -0.4831  0.2832 -0.4273
  219MOL0     C29492   4.859   9.654  -0.458  0.0320 -0.7979 -0.0890
  219MOL0     C29493   4.830   9.626  -0.613  0.1340 -0.0755  0.2478
  219MOL0     C29494   4.826   9.746  -0.697  0.3183  0.1438 -0.0067
  219MOL0     C29495   4.833   9.845  -0.769 -0.3501 -0.1109 -0.1487
  219MOL0     C29496   5.177  10.052  -0.144 -1.0090 -0.0835 -0.4415
  219MOL0     C29497   5.243  10.095  -0.030 -0.0405 -1.4428  0.1931
  219MOL0     H29498   5.323  10.154   0.461  1.2633 -1.6339  0.6399
  219MOL0     H29499   5.453  10.265   0.644  1.5209  1.1240  1.2644
  219MOL0     H29500   5.776  10.542   0.522  1.0868  1.8868  0.3232
  219MOL0     H29501   5.675  10.646   0.623  0.3616  0.6728  1.2094
  219MOL0     H29502   5.755  10.570   0.817  0.7173 -0.3666  1.0636
  219MOL0     H29503   5.849  10.426   0.752 -0.7721 -1.0468  1.1508
  219MOL0     H29504   6.009  10.611   0.646  2.9024  0.9084  1.4841
  219MOL0     H29505   5.898  10.729   0.712 -3.4763 -2.0189 -0.5204
  219MOL0     H29506   5.987  10.658   0.938  3.0935  2.1818  0.6397
  219MOL0     H29507   6.060  10.506   0.874 -2.1957 -0.1713 -1.2368
  219MOL0     H29508   6.211  10.647   0.738 -1.6776 -1.7569  0.3675
  219MOL0     H29509   6.123  10.791   0.799 -0.6190 -0.3568 -1.8165
  219MOL0     H29510   6.210  10.662   1.020 -2.3874  1.5651 -1.9212
  219MOL0     H29511   6.346  10.618   0.922  0.2142 -0.6342  1.8880
  219MOL0     H29512   6.391  10.862   0.856  0.2216 -0.2956 -0.1546
  219MOL0     H29513   6.249  10.910   0.947 -1.3305 -0.9957  0.0421
  219MOL0     H29514   6.351  10.841   1.158  0.8928 -1.3401  0.4396
  219MOL0     H29515   6.442  10.966   1.085  0.1739 -0.8899 -0.6384
  219MOL0     H29516   6.467  10.572   1.132 -0.9407  1.1625  1.1875
  219MOL0     H29517   6.822  10.479   1.111 -1.0018  1.5635  1.6132
  219MOL0     H29518   6.648  10.420   1.127 -2.2220 -1.5622 -3.2638
  219MOL0     H29519   6.800  10.461   0.871 -1.7631  0.6838 -3.6327
  219MOL0     H29520   6.619  10.445   0.888 -1.5997  0.4810  3.6540
  219MOL0     H29521   6.605  10.246   0.942  1.2898 -1.5349  0.0118
  219MOL0     H29522   6.754  10.212   1.020 -0.3320 -2.5834 -2.2547
  219MOL0     H29523   6.728  10.267   0.733 -0.1980  2.5276  1.3198
  219MOL0     H29524   6.733  10.100   0.806 -2.0284  0.3842  1.2343
  219MOL0     H29525   7.154  10.203   0.764 -0.4589  0.0429  0.6683
  219MOL0     H29526   7.354  10.171   0.668  1.7345 -3.0983  1.3856
  219MOL0     H29527   7.367  10.045   0.545  2.9675  2.5747  0.8928
  219MOL0     H29528   7.318  10.218   0.499  2.2864 -0.3275 -0.9208
  219MOL0     H29529   7.267   9.935   0.078  0.0179 -0.6553 -1.5274
  219MOL0     H29530   7.340   9.780  -0.095 -1.2175  0.7103  0.2246
  219MOL0     H29531   7.186   9.338  -0.038 -1.0331  0.1978  0.4387
  219MOL0     H29532   7.068   9.424  -0.142 -0.5981 -3.0903 -1.1332
  219MOL0     H29533   7.258   9.406  -0.323  0.0187 -0.1461 -0.5860
  219MOL0     H29534   7.326   9.289  -0.223  1.2493  3.6818  1.1844
  219MOL0     H29535   7.183   9.171  -0.402 -0.6012  0.4193 -0.1980
  219MOL0     H29536   7.039   9.273  -0.361  1.8196  1.0182 -4.7698
  219MOL0     H29537   7.060   9.143  -0.127 -1.5091 -0.8914 -1.2257
  219MOL0     H29538   7.006   9.054  -0.257 -1.0801  0.6955 -0.7062
  219MOL0     H29539   7.293   9.075  -0.177  0.0757 -0.8321  0.4022
  219MOL0     H29540   7.235   8.981  -0.311  1.3383  0.4763  0.9628
  219MOL0     H29541   7.155   8.961  -0.010  0.0823 -1.7466  0.5874
  219MOL0     H29542   7.082   8.859  -0.134 -0.6859 -0.0016  1.8360
  219MOL0     H29543   7.284   8.763  -0.003  0.0495 -0.1465  0.1889
  219MOL0     H29544   7.388   8.878  -0.077 -0.4264 -0.0072  1.6421
  219MOL0     H29545   7.383   8.643  -0.174  5.3798  3.3810 -2.7935
  219MOL0     H29546   7.323   8.750  -0.302  1.1471  0.7247  0.8694
  219MOL0     H29547   7.088   9.477   0.099 -0.3633 -0.7174  0.7863
  219MOL0     H29548   7.027   9.632   0.262 -0.8741 -0.1134  0.5875
  219MOL0     H29549   6.901  10.007   0.383  0.9985 -0.6168 -0.9851
  219MOL0     H29550   6.776  10.111   0.567 -0.5090 -0.5556 -1.8186
  219MOL0     H29551   5.646  10.495   0.353 -1.2655  1.3005  0.8142
  219MOL0     H29552   5.541  10.370   0.169  0.3180 -1.2422  0.4993
  219MOL0     H29553   5.240   9.811   0.146 -2.7171  0.8703  1.2146
  219MOL0     H29554   5.122   9.736  -0.064  1.3486  0.2453  1.0943
  219MOL0     H29555   4.970   9.721  -0.219 -0.0355  0.9399 -0.3834
  219MOL0     H29556   4.911   9.873  -0.290  0.5285  1.3214 -0.0990
  219MOL0     H29557   5.071   9.667  -0.460 -2.3841 -1.9670 -2.0626
  219MOL0     H29558   4.989   9.821  -0.496  1.6568  0.5324  0.0620
  219MOL0     H29559   4.780   9.721  -0.425  1.8619  1.0037  0.8539
  219MOL0     H29560   4.857   9.559  -0.404 -0.2774 -0.4050  0.5948
  219MOL0     H29561   4.734   9.573  -0.615  1.4801 -2.8037  1.6001
  219MOL0     H29562   4.915   9.563  -0.643  0.3853 -0.0857  0.9514
  219MOL0     H29563   4.819   9.923  -0.842  1.8433  0.5208  0.0407
  219MOL0     H29564   5.167  10.113  -0.233  2.7213  0.8941 -0.3791
  219MOL0     H29565   5.275  10.198  -0.033  0.2772 -1.5427  0.0063
  220MOL0     O29566   3.757   5.029   7.731 -0.0135 -0.7265  1.2229
  220MOL0     C29567   3.749   4.919   7.679 -0.0853  0.3942  1.0910
  220MOL0     O29568   3.849   4.845   7.623  0.1132  0.1158  0.8138
  220MOL0     C29569   3.981   4.882   7.616  0.2732  0.5891  0.7332
  220MOL0     C29570   4.062   4.772   7.572 -0.4204  0.4328  0.0018
  220MOL0     C29571   4.191   4.793   7.517  0.0131 -0.1663 -0.6455
  220MOL0     C29572   4.243   4.921   7.523  0.4165  0.4535 -0.3203
  220MOL0     O29573   4.365   4.954   7.474  0.0551 -0.1155  0.0654
  220MOL0     C29574   4.475   4.874   7.505 -0.5768 -0.0097 -0.3220
  220MOL0     C29575   4.576   4.942   7.605 -0.2668 -0.1090 -0.3456
  220MOL0     C29576   4.597   5.094   7.609  0.6366 -0.9314 -0.2691
  220MOL0     C29577   4.499   5.185   7.680 -0.4364 -0.5877 -0.9099
  220MOL0     C29578   4.558   5.319   7.709  0.2060  0.2563  0.4863
  220MOL0     C29579   4.668   5.312   7.831  0.7627 -0.7605  0.0676
  220MOL0     C29580   4.731   5.452   7.860  0.2431  0.4678 -0.4122
  220MOL0     C29581   4.830   5.429   7.977  1.0127 -0.4462 -1.0109
  220MOL0     N29582   4.878   5.560   8.028 -0.2490 -0.6871  0.6795
  220MOL0     C29583   4.913   5.661   7.942 -0.5018  0.5646 -0.1601
  220MOL0     C29584   4.987   5.742   8.018 -0.2487  0.6505 -0.1299
  220MOL0     C29585   5.062   5.878   7.976  0.2547 -0.3749 -0.1956
  220MOL0     C29586   5.158   5.851   7.861  0.6641 -0.7265 -0.8087
  220MOL0     C29587   5.230   5.983   7.823 -0.1336 -0.4959 -0.8772
  220MOL0     C29588   5.336   5.953   7.724 -0.2907 -0.2376 -0.0682
  220MOL0     O29589   5.381   6.078   7.673 -0.3401 -0.1317  0.3566
  220MOL0     C29590   5.436   6.062   7.541  0.6537 -1.4006 -0.2245
  220MOL0     C29591   5.551   6.002   7.525 -0.5368 -0.4722  0.6617
  220MOL0     C29592   5.615   5.986   7.399 -1.1009 -0.8089  0.0916
  220MOL0     C29593   5.726   5.889   7.402 -0.1499  0.1311 -0.5543
  220MOL0     C29594   5.553   6.041   7.290  0.5776 -0.5952 -0.1303
  220MOL0     C29595   5.603   6.037   7.152 -0.6237 -0.9098 -0.3264
  220MOL0     O29596   5.531   6.101   7.049  0.5048  0.1656 -0.6823
  220MOL0     C29597   5.564   6.079   6.921 -0.1448 -0.0075  0.0721
  220MOL0     C29598   5.475   6.020   6.835  0.4765 -0.3613  0.7359
  220MOL0     C29599   5.508   5.996   6.698  0.4612  0.1784  0.3664
  220MOL0     C29600   5.627   6.044   6.648  0.1093  1.4265  0.2550
  220MOL0     O29601   5.651   6.019   6.512 -0.1502  0.0751 -0.3624
  220MOL0     C29602   5.662   6.137   6.433 -0.3099  0.1237 -0.0151
  220MOL0     C29603   5.727   6.105   6.299  0.3689 -0.4170 -0.2580
  220MOL0     C29604   5.609   6.113   6.196  0.1629  0.3209 -0.5684
  220MOL0     C29605   5.659   6.121   6.045  0.2537 -0.7966 -0.4058
  220MOL0     C29606   5.554   6.164   5.946 -0.6440 -0.4022 -0.2060
  220MOL0     C29607   5.615   6.211   5.804 -0.8248  0.6083  0.1145
  220MOL0     C29608   5.686   6.103   5.723  0.0613 -0.0907  0.2835
  220MOL0     C29609   5.828   6.077   5.750  0.5144 -0.3942  0.2424
  220MOL0    Cl29610   5.927   6.222   5.714 -0.7880 -0.0127 -0.1054
  220MOL0     C29611   5.715   6.098   6.740  0.7774  0.4000  0.0554
  220MOL0     C29612   5.685   6.111   6.874 -0.0715 -0.0097 -0.0827
  220MOL0     O29613   5.713   5.990   7.129 -0.1668  1.2533  0.6349
  220MOL0     C29614   5.427   6.104   7.306  0.1355  0.6143 -0.3419
  220MOL0     C29615   5.372   6.118   7.434  0.2312  0.9026 -0.3626
  220MOL0     N29616   4.995   5.684   8.145  0.6613 -0.6489 -0.6374
  220MOL0     N29617   4.923   5.583   8.157  0.3526  0.2099  0.8304
  220MOL0     C29618   4.168   5.030   7.579 -0.5769 -0.1616 -0.0205
  220MOL0     C29619   4.037   5.014   7.616  0.1703 -0.5136  0.8853
  220MOL0     C29620   3.612   4.860   7.678 -0.3291  0.6221  0.3432
  220MOL0     C29621   3.580   4.771   7.577 -0.2754 -0.2375  0.4851
  220MOL0     C29622   3.450   4.722   7.566 -0.5067  0.9606  0.4590
  220MOL0     C29623   3.357   4.745   7.670 -0.3775  0.4581  0.2802
  220MOL0     O29624   3.242   4.676   7.660 -0.2276  0.2437 -0.4519
  220MOL0     C29625   3.149   4.686   7.769  0.0208 -0.3442  0.3337
  220MOL0     C29626   3.054   4.803   7.750  0.1530  0.2911  0.0562
  220MOL0     C29627   2.974   4.823   7.885 -0.0547  1.0049 -0.2987
  220MOL0     C29628   2.886   4.947   7.871 -0.7619 -0.1645 -1.2047
  220MOL0     C29629   2.809   4.972   7.995  0.1337  1.1863  0.5102
  220MOL0     C29630   2.739   4.986   8.095 -1.0343 -0.2676  0.0317
  220MOL0     C29631   3.387   4.843   7.767  0.0684  0.3199 -1.0024
  220MOL0     C29632   3.517   4.893   7.765  0.5760  0.6655 -0.1818
  220MOL0     H29633   4.017   4.673   7.568 -1.1089  0.7318  0.1523
  220MOL0     H29634   4.251   4.713   7.475  0.5555  0.2656 -0.6991
  220MOL0     H29635   4.451   4.777   7.551  2.3737  0.1603  1.8738
  220MOL0     H29636   4.531   4.860   7.411  3.7367  2.4999  1.5700
  220MOL0     H29637   4.569   4.900   7.705  0.3779 -0.8646 -0.6039
  220MOL0     H29638   4.675   4.906   7.575 -0.4663  1.5315 -3.4123
  220MOL0     H29639   4.686   5.104   7.671  0.1105  0.3257  0.3115
  220MOL0     H29640   4.614   5.126   7.506  0.0438 -3.0327 -1.0856
  220MOL0     H29641   4.409   5.201   7.620 -1.7190 -1.1020  0.8019
  220MOL0     H29642   4.472   5.146   7.778 -1.2291 -1.5733 -1.4971
  220MOL0     H29643   4.605   5.364   7.621  1.6391 -1.9290  0.0498
  220MOL0     H29644   4.487   5.396   7.741  0.8585  1.0584  0.0366
  220MOL0     H29645   4.609   5.286   7.920 -1.6937  1.6397 -0.7356
  220MOL0     H29646   4.746   5.236   7.825  0.8118 -0.7043 -0.0064
  220MOL0     H29647   4.785   5.487   7.772 -1.9378  1.3615 -1.4835
  220MOL0     H29648   4.653   5.519   7.899  0.9236 -0.5672  3.0647
  220MOL0     H29649   4.916   5.364   7.955 -0.0486 -2.3561  0.1611
  220MOL0     H29650   4.765   5.383   8.052  0.4802 -1.2873 -1.9485
  220MOL0     H29651   4.893   5.669   7.836  0.1991  3.3811 -0.1803
  220MOL0     H29652   4.998   5.958   7.939  1.7015  0.0885 -1.8488
  220MOL0     H29653   5.122   5.917   8.059  1.5202  0.4185 -1.4297
  220MOL0     H29654   5.094   5.816   7.779 -0.5490  0.1483 -0.2730
  220MOL0     H29655   5.230   5.775   7.891 -1.2839 -2.9726 -1.4808
  220MOL0     H29656   5.268   6.037   7.910 -4.6521  0.8833  0.5292
  220MOL0     H29657   5.157   6.047   7.772 -2.4012 -1.7722  0.6034
  220MOL0     H29658   5.288   5.904   7.638  4.0591 -0.2970 -2.8034
  220MOL0     H29659   5.420   5.894   7.762  0.8029  2.8872  2.9005
  220MOL0     H29660   5.582   5.959   7.619 -2.3314 -3.0132  0.2032
  220MOL0     H29661   5.744   5.842   7.499  1.9548 -3.2090 -2.3806
  220MOL0     H29662   5.704   5.812   7.327  1.1124 -0.9616  0.1490
  220MOL0     H29663   5.816   5.944   7.372  1.5413 -0.6521  2.6347
  220MOL0     H29664   5.373   5.998   6.867 -0.4377  1.3141 -0.8867
  220MOL0     H29665   5.432   5.945   6.640  0.4632 -1.8038  1.9702
  220MOL0     H29666   5.567   6.192   6.430 -0.2181  0.3219  0.6377
  220MOL0     H29667   5.731   6.204   6.484  0.9841 -0.9831 -0.2493
  220MOL0     H29668   5.801   6.176   6.261 -0.4562  0.7453  0.2296
  220MOL0     H29669   5.769   6.006   6.317 -1.4097 -1.1251  0.1762
  220MOL0     H29670   5.545   6.199   6.221 -0.9350 -0.1782 -1.5386
  220MOL0     H29671   5.538   6.031   6.207 -0.0671  0.5316 -0.4620
  220MOL0     H29672   5.732   6.203   6.035  0.0422 -0.6908 -1.2233
  220MOL0     H29673   5.714   6.032   6.015  0.9141 -0.2931 -0.7392
  220MOL0     H29674   5.487   6.237   5.993 -0.7321 -1.8297  2.0304
  220MOL0     H29675   5.483   6.083   5.930 -0.3931 -0.6725  0.0260
  220MOL0     H29676   5.537   6.259   5.744 -0.9588 -2.3555 -2.3536
  220MOL0     H29677   5.685   6.290   5.831 -0.6554  0.2679  0.7078
  220MOL0     H29678   5.675   6.133   5.618 -3.2289 -2.5945 -0.2215
  220MOL0     H29679   5.634   6.010   5.746  0.7652  0.0155  2.5713
  220MOL0     H29680   5.870   5.987   5.705 -0.2916 -1.3798  1.4093
  220MOL0     H29681   5.834   6.058   5.857  0.0738 -1.3496  0.1057
  220MOL0     H29682   5.807   6.140   6.701 -0.9700  3.0302 -1.6456
  220MOL0     H29683   5.762   6.148   6.941 -0.4394  0.6759 -0.0361
  220MOL0     H29684   5.365   6.129   7.220 -2.5232  2.1288  1.8674
  220MOL0     H29685   5.275   6.165   7.446  0.0212  0.6331 -0.9285
  220MOL0     H29686   4.210   5.130   7.571  0.3464 -0.3983  1.4451
  220MOL0     H29687   3.980   5.106   7.629  0.1027 -0.7283  2.2915
  220MOL0     H29688   3.652   4.730   7.506 -0.9724 -0.7266  0.0445
  220MOL0     H29689   3.436   4.655   7.481  0.9768  1.3582 -0.1284
  220MOL0     H29690   3.079   4.602   7.760 -1.0379  0.6929 -1.7922
  220MOL0     H29691   3.198   4.684   7.867  0.5227  0.0907  0.0916
  220MOL0     H29692   2.999   4.790   7.656  2.1419 -0.8840 -1.0174
  220MOL0     H29693   3.114   4.891   7.725 -0.8077  0.7965 -0.5444
  220MOL0     H29694   3.045   4.836   7.967 -1.6160 -0.7629  1.4476
  220MOL0     H29695   2.915   4.731   7.896  0.5325  0.4267 -1.7110
  220MOL0     H29696   2.808   4.936   7.794  0.8113 -0.7028 -2.7995
  220MOL0     H29697   2.953   5.030   7.847  1.7629 -2.0872 -1.1768
  220MOL0     H29698   2.678   4.984   8.183 -0.0388 -4.5862  0.8603
  220MOL0     H29699   3.327   4.879   7.849  0.5814 -0.7340 -0.1352
  220MOL0     H29700   3.538   4.967   7.843 -0.2554 -0.1232  0.8200
  221MOL0     O29701   4.785  10.030   1.438 -0.1385  0.3245 -0.1262
  221MOL0     C29702   4.704  10.114   1.461  0.3508  0.5893 -0.8126
  221MOL0     O29703   4.660  10.154   1.593 -0.4142  0.2805  0.5958
  221MOL0     C29704   4.624  10.058   1.689  0.0608 -0.0871 -0.3940
  221MOL0     C29705   4.687   9.934   1.706  0.9272 -0.7270  1.3204
  221MOL0     C29706   4.647   9.850   1.810  0.3391 -0.1106 -0.0049
  221MOL0     C29707   4.556   9.895   1.904  1.6106 -0.2925 -0.4622
  221MOL0     O29708   4.506   9.802   1.992 -0.2518  0.0618  1.1759
  221MOL0     C29709   4.424   9.842   2.109  0.0427 -0.2605  0.7791
  221MOL0     C29710   4.284   9.874   2.068  0.9388  0.2324 -0.7960
  221MOL0     C29711   4.215   9.745   2.004  0.5798 -0.9855  0.2965
  221MOL0     C29712   4.058   9.754   1.999 -0.3383 -0.5328 -0.5498
  221MOL0     C29713   4.019   9.881   1.920  0.4086  0.6361 -0.7239
  221MOL0     C29714   4.023   9.864   1.768 -0.3693  0.0865 -0.1441
  221MOL0     C29715   4.036   9.996   1.692 -0.0746  0.6152 -0.6636
  221MOL0     C29716   4.174  10.077   1.695  0.2134  0.3489 -0.3558
  221MOL0     N29717   4.164  10.215   1.637 -0.3971  0.0031  0.1130
  221MOL0     C29718   4.077  10.254   1.537  1.3883 -0.2909  0.0553
  221MOL0     C29719   4.094  10.388   1.526 -0.0679 -0.3963 -0.0293
  221MOL0     C29720   4.023  10.481   1.434  0.5757  0.1092 -0.0974
  221MOL0     C29721   3.933  10.581   1.516 -0.7571 -0.1367  0.0309
  221MOL0     C29722   3.942  10.725   1.452  0.0014  0.1016  0.1655
  221MOL0     C29723   3.888  10.816   1.547  0.3573 -0.4094  0.1559
  221MOL0     O29724   3.978  10.831   1.664 -0.2216 -0.3844 -0.1268
  221MOL0     C29725   4.088  10.916   1.657 -0.9101 -0.8168 -0.5334
  221MOL0     C29726   4.146  10.936   1.789 -0.5587  0.1944  0.4714
  221MOL0     C29727   4.265  11.015   1.804  0.4733  0.4400 -0.3699
  221MOL0     C29728   4.294  11.040   1.950  0.4533  0.5610 -0.2028
  221MOL0     C29729   4.331  11.067   1.688 -0.2863 -0.9205 -0.6339
  221MOL0     C29730   4.432  11.176   1.701 -1.0368  0.7584 -0.2792
  221MOL0     O29731   4.511  11.182   1.808 -0.2311 -0.7124  0.2355
  221MOL0     C29732   4.614  11.266   1.822  1.0470 -0.5812  0.8292
  221MOL0     C29733   4.719  11.255   1.730  0.1042  0.3797  0.0355
  221MOL0     C29734   4.840  11.318   1.756 -0.1588 -0.3270 -0.0313
  221MOL0     C29735   4.870  11.380   1.876  0.3077  0.6735 -0.0238
  221MOL0     O29736   4.991  11.420   1.927  0.2558  0.0855 -0.5418
  221MOL0     C29737   5.104  11.385   1.860 -0.6321 -0.8966  0.1799
  221MOL0     C29738   5.235  11.444   1.925  0.1261 -0.1872 -0.0611
  221MOL0     C29739   5.339  11.472   1.813  0.3249  0.7202 -0.4652
  221MOL0     C29740   5.297  11.605   1.753  0.2498  0.0192 -0.5879
  221MOL0     C29741   5.418  11.668   1.685 -0.5948 -0.0048 -1.0142
  221MOL0     C29742   5.383  11.818   1.653 -0.3783 -0.4265 -0.2626
  221MOL0     C29743   5.505  11.916   1.650  0.6652  0.3148 -0.1561
  221MOL0     C29744   5.473  12.041   1.566 -0.4709  0.3111 -0.3983
  221MOL0    Cl29745   5.612  12.153   1.587 -0.2529  0.0699  0.0039
  221MOL0     C29746   4.764  11.390   1.969  0.3735 -0.0932 -0.2435
  221MOL0     C29747   4.640  11.341   1.933 -0.3784  0.5230 -0.4795
  221MOL0     O29748   4.448  11.242   1.600 -1.0017 -0.2268  0.2796
  221MOL0     C29749   4.271  11.033   1.563  0.2739  0.7553  0.0889
  221MOL0     C29750   4.154  10.967   1.550 -0.1526  0.4511 -0.9066
  221MOL0     N29751   4.200  10.428   1.611  0.4404 -0.3467  0.2151
  221MOL0     N29752   4.233  10.324   1.685  0.1665  1.2433  1.0741
  221MOL0     C29753   4.509  10.031   1.899  0.0264  0.7164  0.1002
  221MOL0     C29754   4.531  10.103   1.781 -0.2029  0.0994 -0.4066
  221MOL0     C29755   4.652  10.198   1.353 -0.4960 -0.6057  0.3728
  221MOL0     C29756   4.684  10.177   1.221 -0.7304  0.3331 -0.0989
  221MOL0     C29757   4.621  10.247   1.119  0.2320  0.1042  0.4511
  221MOL0     C29758   4.525  10.350   1.143  0.1343 -0.1277 -0.7469
  221MOL0     O29759   4.458  10.418   1.047  0.4095 -0.8658 -0.7105
  221MOL0     C29760   4.420  10.351   0.934 -0.8738  0.8100  0.5041
  221MOL0     C29761   4.328  10.426   0.843  0.3649 -0.5883 -0.1823
  221MOL0     C29762   4.202  10.499   0.915 -0.6057  1.3864 -0.3101
  221MOL0     C29763   4.138  10.611   0.840  0.0100 -0.8535  0.6666
  221MOL0     C29764   4.077  10.557   0.718 -0.3535  0.2105 -0.3066
  221MOL0     C29765   4.028  10.510   0.619  0.3626 -0.2763  0.1511
  221MOL0     C29766   4.505  10.384   1.277 -0.2812 -0.6949 -0.7268
  221MOL0     C29767   4.564  10.308   1.384  0.6840 -0.6781  0.6030
  221MOL0     H29768   4.761   9.890   1.640 -0.5460  0.4497 -1.2722
  221MOL0     H29769   4.686   9.749   1.812  1.3619  0.1206 -2.9994
  221MOL0     H29770   4.424   9.751   2.169  0.3054  0.6001  2.1278
  221MOL0     H29771   4.475   9.922   2.164 -1.0628  2.5063 -1.8990
  221MOL0     H29772   4.235   9.903   2.162 -0.5374  0.5886 -1.6447
  221MOL0     H29773   4.262   9.965   2.012 -1.2053  0.7866  0.8167
  221MOL0     H29774   4.263   9.748   1.906  0.0306  0.7486  0.0306
  221MOL0     H29775   4.250   9.650   2.046  1.8546 -1.5016 -1.8046
  221MOL0     H29776   4.009   9.665   1.959  0.0597 -0.8349 -0.3742
  221MOL0     H29777   4.017   9.768   2.100 -0.3542 -1.0327 -0.4859
  221MOL0     H29778   3.912   9.891   1.942  0.5181 -0.8858  0.7482
  221MOL0     H29779   4.072   9.968   1.959 -0.2812  1.2417 -1.1148
  221MOL0     H29780   4.114   9.810   1.741 -0.5336 -0.1337 -0.2523
  221MOL0     H29781   3.934   9.806   1.744  0.6805 -1.8339  0.3628
  221MOL0     H29782   4.009   9.976   1.588 -4.1211  1.1314  0.1096
  221MOL0     H29783   3.958  10.062   1.731 -0.3219 -0.1768  0.2142
  221MOL0     H29784   4.237  10.017   1.628  2.2175  1.5653  0.3579
  221MOL0     H29785   4.220  10.086   1.794 -2.1210  1.1582  0.7314
  221MOL0     H29786   4.017  10.182   1.482  2.6890 -0.0419 -1.8125
  221MOL0     H29787   4.099  10.539   1.381  2.1183 -2.3870 -0.7538
  221MOL0     H29788   3.958  10.429   1.364  0.7359  0.0482 -0.2009
  221MOL0     H29789   3.973  10.591   1.617 -0.1912  1.3511 -0.3173
  221MOL0     H29790   3.830  10.544   1.518  0.2164 -3.2279 -1.2873
  221MOL0     H29791   3.865  10.716   1.374 -0.9401 -1.4210  1.2340
  221MOL0     H29792   4.046  10.745   1.424 -0.0513 -0.7864 -0.7193
  221MOL0     H29793   3.793  10.777   1.585  0.4300 -0.7519 -0.0184
  221MOL0     H29794   3.858  10.908   1.495  1.1740 -0.8122 -1.0644
  221MOL0     H29795   4.091  10.902   1.876 -1.9571 -0.2542 -0.5421
  221MOL0     H29796   4.275  11.147   1.965 -0.0931  0.6359 -1.3602
  221MOL0     H29797   4.238  10.978   2.020  2.3445 -2.0093 -0.8217
  221MOL0     H29798   4.398  11.014   1.975  0.7368  2.1555  0.4211
  221MOL0     H29799   4.722  11.200   1.637  2.7035  4.0290 -2.2800
  221MOL0     H29800   4.920  11.304   1.684 -0.9402 -0.1494 -0.9609
  221MOL0     H29801   5.122  11.277   1.862  3.0266 -0.3948  1.3509
  221MOL0     H29802   5.099  11.431   1.761  1.5198  2.5894  1.4941
  221MOL0     H29803   5.222  11.525   1.997 -2.6301  0.4704 -1.1577
  221MOL0     H29804   5.280  11.366   1.989  2.7253  1.7009  0.5863
  221MOL0     H29805   5.336  11.393   1.738 -1.4968 -1.5199  1.7776
  221MOL0     H29806   5.438  11.474   1.858 -0.3048  0.5673  0.9708
  221MOL0     H29807   5.216  11.594   1.681 -0.5766 -2.5093  0.6338
  221MOL0     H29808   5.253  11.671   1.829  0.2902 -1.0233  0.3610
  221MOL0     H29809   5.451  11.614   1.596 -0.9749 -0.8580 -0.6498
  221MOL0     H29810   5.503  11.655   1.752 -3.0587  0.7768  2.5840
  221MOL0     H29811   5.345  11.827   1.551  0.1260  3.8571 -0.2594
  221MOL0     H29812   5.314  11.863   1.726  0.2755  0.1806 -0.0055
  221MOL0     H29813   5.592  11.872   1.601  1.9288  2.1363  0.3620
  221MOL0     H29814   5.541  11.940   1.750 -0.8480 -0.0111  0.4898
  221MOL0     H29815   5.379  12.084   1.603 -1.5370 -1.3772 -1.0046
  221MOL0     H29816   5.452  12.012   1.463 -1.8929  0.3943 -0.1634
  221MOL0     H29817   4.778  11.443   2.062  1.0855 -1.8413  0.6902
  221MOL0     H29818   4.561  11.353   2.007 -2.7592  0.0643 -2.7731
  221MOL0     H29819   4.315  11.068   1.470  0.2281 -1.2235 -0.7195
  221MOL0     H29820   4.113  10.955   1.450 -1.7783 -2.3551 -0.0374
  221MOL0     H29821   4.459  10.077   1.983 -0.6723  2.4195 -1.1971
  221MOL0     H29822   4.475  10.193   1.757 -2.4392 -1.4909 -1.4812
  221MOL0     H29823   4.756  10.099   1.195  2.2241  2.6445  0.6091
  221MOL0     H29824   4.640  10.235   1.013 -4.4381  1.7450 -0.8233
  221MOL0     H29825   4.513  10.328   0.881 -1.8528  0.0299 -0.9708
  221MOL0     H29826   4.366  10.257   0.951  0.9252 -0.0613  1.7486
  221MOL0     H29827   4.289  10.360   0.765 -2.6823  0.3722  0.4127
  221MOL0     H29828   4.378  10.508   0.791  0.1090 -0.3122  0.0076
  221MOL0     H29829   4.214  10.529   1.019 -1.6062 -3.4908  1.4874
  221MOL0     H29830   4.135  10.417   0.942  1.3795  0.8285  3.6140
  221MOL0     H29831   4.225  10.673   0.813  0.7194 -2.6467 -1.4617
  221MOL0     H29832   4.067  10.659   0.908  0.4128 -0.5132  0.8536
  221MOL0     H29833   3.981  10.456   0.539  4.0743 -0.7326 -1.9278
  221MOL0     H29834   4.431  10.459   1.305 -0.0537 -0.8709  0.4231
  221MOL0     H29835   4.541  10.333   1.487  0.0223  0.6045  0.1683
  222MOL0     O29836   2.387   4.182   0.124  1.1967  0.1823 -0.3998
  222MOL0     C29837   2.491   4.171   0.060  0.0673 -0.4871 -0.4282
  222MOL0     O29838   2.537   4.064  -0.009 -0.3526  0.4269 -0.3306
  222MOL0     C29839   2.506   3.932   0.025  0.0069  0.5907 -0.4803
  222MOL0     C29840   2.469   3.885   0.151 -0.7305  0.4104  0.1183
  222MOL0     C29841   2.476   3.742   0.172 -0.3214  0.8280 -0.3377
  222MOL0     C29842   2.485   3.649   0.060  0.3105  0.3645  0.8782
  222MOL0     O29843   2.481   3.517   0.063 -0.1562  1.0081  0.1265
  222MOL0     C29844   2.411   3.455   0.179 -0.4281 -0.8126 -0.3864
  222MOL0     C29845   2.393   3.304   0.172 -0.2840  0.3113  0.2770
  222MOL0     C29846   2.543   3.256   0.172 -0.6650 -0.7201  1.2950
  222MOL0     C29847   2.620   3.275   0.304 -0.1962 -0.9710 -0.3501
  222MOL0     C29848   2.737   3.178   0.315  0.2653  0.1330 -0.0890
  222MOL0     C29849   2.851   3.209   0.232 -0.7996 -1.2026  0.3525
  222MOL0     C29850   2.960   3.108   0.277 -0.4445  0.2193  0.1692
  222MOL0     C29851   3.070   3.114   0.177 -0.3339 -0.3422  0.4931
  222MOL0     N29852   3.025   3.061   0.041 -1.0018 -0.2401 -0.5878
  222MOL0     C29853   3.026   3.126  -0.076  0.3387  0.0761  0.4564
  222MOL0     C29854   2.971   3.038  -0.163 -0.2826 -0.2743  0.2252
  222MOL0     C29855   2.963   3.040  -0.317 -0.5373  1.0359 -0.4011
  222MOL0     C29856   3.097   3.015  -0.393 -0.1561 -0.2069  0.4798
  222MOL0     C29857   3.069   2.994  -0.543 -0.1073  0.2587 -1.0495
  222MOL0     C29858   3.103   2.854  -0.605 -0.1253 -0.0800 -0.6068
  222MOL0     O29859   3.057   2.837  -0.740  0.2051  0.1300  0.1225
  222MOL0     C29860   3.098   2.725  -0.812  0.1025 -0.8850  0.6064
  222MOL0     C29861   3.196   2.635  -0.773  0.2466  0.9986 -1.0258
  222MOL0     C29862   3.254   2.542  -0.860 -0.1316 -0.5457  0.5794
  222MOL0     C29863   3.367   2.449  -0.809 -0.0750 -0.5123  0.0123
  222MOL0     C29864   3.190   2.535  -0.985  0.2817 -0.2243 -0.3123
  222MOL0     C29865   3.227   2.429  -1.077  0.5848 -0.1019 -0.3640
  222MOL0     O29866   3.355   2.426  -1.123 -0.2060 -0.6233 -0.4394
  222MOL0     C29867   3.390   2.309  -1.184 -0.6705  0.2933  0.5362
  222MOL0     C29868   3.341   2.286  -1.315  0.1458  0.1197 -0.1617
  222MOL0     C29869   3.373   2.171  -1.388 -0.0347 -0.1966 -0.7812
  222MOL0     C29870   3.441   2.068  -1.325 -0.8576 -0.6049  0.0676
  222MOL0     O29871   3.438   1.935  -1.368 -0.3189 -0.1362 -0.3228
  222MOL0     C29872   3.352   1.913  -1.481  0.3854 -0.2356  0.9248
  222MOL0     C29873   3.317   1.765  -1.495  0.0186 -0.4173  0.5461
  222MOL0     C29874   3.192   1.736  -1.582 -0.5331  0.1516  0.5081
  222MOL0     C29875   3.155   1.609  -1.655  0.1137 -0.6039 -0.5412
  222MOL0     C29876   3.244   1.584  -1.778  0.5900  0.7867  0.0155
  222MOL0     C29877   3.216   1.685  -1.887 -0.9408 -0.2325 -0.1831
  222MOL0     C29878   3.315   1.647  -2.007  0.4845  0.8718 -1.2098
  222MOL0     C29879   3.459   1.677  -1.967  0.9059 -0.4396  0.0716
  222MOL0    Cl29880   3.469   1.840  -1.900  0.3521 -0.1651  0.1390
  222MOL0     C29881   3.490   2.091  -1.197 -0.9103  0.2564 -0.9875
  222MOL0     C29882   3.472   2.211  -1.136  0.2849  0.3628 -0.0262
  222MOL0     O29883   3.136   2.346  -1.098 -0.6809 -0.1447 -0.1671
  222MOL0     C29884   3.081   2.623  -1.023  0.0376 -0.1332 -0.0171
  222MOL0     C29885   3.039   2.723  -0.939  0.8510  0.1919  0.0091
  222MOL0     N29886   2.952   2.916  -0.095  0.2884 -0.3687  1.4103
  222MOL0     N29887   2.989   2.929   0.024 -0.1188  0.6169 -0.3606
  222MOL0     C29888   2.515   3.695  -0.067 -0.4484 -0.8153  0.1681
  222MOL0     C29889   2.529   3.841  -0.073 -0.2432 -0.2754  0.2056
  222MOL0     C29890   2.552   4.303   0.030 -0.4229  0.3689 -0.6819
  222MOL0     C29891   2.650   4.314  -0.075  0.3437 -0.1312  0.8857
  222MOL0     C29892   2.722   4.430  -0.104 -0.9502 -0.6137 -0.1818
  222MOL0     C29893   2.674   4.551  -0.045 -0.6921  0.0966 -0.0232
  222MOL0     O29894   2.726   4.662  -0.101 -0.7762 -0.5987  0.1942
  222MOL0     C29895   2.692   4.786  -0.045  0.8872 -0.3575  0.5163
  222MOL0     C29896   2.561   4.849  -0.096  0.4622  0.1447 -0.8785
  222MOL0     C29897   2.545   4.841  -0.250  0.7176  0.6138  0.2154
  222MOL0     C29898   2.404   4.895  -0.286  0.3909  0.4812  0.8644
  222MOL0     C29899   2.298   4.794  -0.270  0.3990 -0.3736  0.0582
  222MOL0     C29900   2.210   4.706  -0.272 -0.5828  0.5656 -0.0523
  222MOL0     C29901   2.558   4.548   0.038 -0.4411  0.3662  0.3117
  222MOL0     C29902   2.512   4.421   0.083  0.4461  0.3866 -0.7145
  222MOL0     H29903   2.457   3.954   0.234 -1.2145  1.8112 -1.0846
  222MOL0     H29904   2.479   3.702   0.273  0.6177  1.6938 -0.0016
  222MOL0     H29905   2.458   3.480   0.274  0.7779 -1.2464 -0.8355
  222MOL0     H29906   2.311   3.497   0.190  0.6967  1.9354  0.3036
  222MOL0     H29907   2.332   3.266   0.255  0.3995 -1.9163 -0.1602
  222MOL0     H29908   2.345   3.272   0.079 -0.7457  1.3830  0.1278
  222MOL0     H29909   2.535   3.148   0.156  0.7938 -0.8255  1.0896
  222MOL0     H29910   2.596   3.308   0.092 -0.9234  0.0996  1.6483
  222MOL0     H29911   2.638   3.383   0.310 -1.4381 -0.8332  1.9333
  222MOL0     H29912   2.554   3.273   0.391 -0.1715  1.9248 -0.1411
  222MOL0     H29913   2.774   3.200   0.416 -1.3551  2.1345  0.1414
  222MOL0     H29914   2.698   3.075   0.315 -0.1469  0.2812  0.3724
  222MOL0     H29915   2.828   3.212   0.125  1.7265  4.6902 -0.4441
  222MOL0     H29916   2.893   3.309   0.241  0.4634 -1.6984  0.1791
  222MOL0     H29917   3.005   3.138   0.372 -0.0280  2.0445 -0.5633
  222MOL0     H29918   2.921   3.005   0.282 -0.8832  0.4303  1.3581
  222MOL0     H29919   3.149   3.045   0.206  0.4488 -1.3314 -3.3846
  222MOL0     H29920   3.119   3.211   0.160 -1.0875  0.4258  2.3754
  222MOL0     H29921   3.056   3.228  -0.101  1.3536 -0.1589  0.6684
  222MOL0     H29922   2.887   2.967  -0.346  2.3907 -1.4241 -2.4897
  222MOL0     H29923   2.910   3.134  -0.332 -1.8643  1.1262  3.6731
  222MOL0     H29924   3.150   2.928  -0.356  0.7105 -0.5468 -1.4266
  222MOL0     H29925   3.160   3.105  -0.393  1.1962 -1.1117  1.9070
  222MOL0     H29926   3.123   3.071  -0.599 -2.1938  2.6703  0.0302
  222MOL0     H29927   2.963   3.015  -0.558 -0.5971  0.0014  1.5107
  222MOL0     H29928   3.055   2.781  -0.540 -2.4915  0.0257 -2.1054
  222MOL0     H29929   3.212   2.841  -0.607 -0.1217 -0.2418  0.3270
  222MOL0     H29930   3.244   2.657  -0.678 -0.1567 -1.8777 -0.0515
  222MOL0     H29931   3.329   2.347  -0.798  3.1143 -1.9693 -1.1507
  222MOL0     H29932   3.456   2.445  -0.872  0.8065  1.7780  1.0146
  222MOL0     H29933   3.408   2.476  -0.712  1.3469  1.2301 -1.0110
  222MOL0     H29934   3.285   2.364  -1.365 -2.0066  1.5676  4.0139
  222MOL0     H29935   3.326   2.156  -1.485 -0.7457 -0.9441 -0.3293
  222MOL0     H29936   3.254   1.955  -1.456 -0.7206 -1.1553 -1.5331
  222MOL0     H29937   3.394   1.952  -1.574 -2.3860  1.0043  0.0921
  222MOL0     H29938   3.400   1.712  -1.543 -0.3569  1.0974 -1.9493
  222MOL0     H29939   3.287   1.735  -1.394  3.2400  0.9519  2.0754
  222MOL0     H29940   3.198   1.819  -1.653 -0.7484 -0.0634  0.2355
  222MOL0     H29941   3.098   1.748  -1.528 -0.4069 -1.1230  1.0416
  222MOL0     H29942   3.164   1.518  -1.595 -0.9084 -0.2923  0.1211
  222MOL0     H29943   3.052   1.612  -1.690 -0.9264 -4.3798  1.6306
  222MOL0     H29944   3.214   1.488  -1.820 -1.4545  0.7873  1.3356
  222MOL0     H29945   3.347   1.574  -1.744  1.0999  0.3404 -1.5731
  222MOL0     H29946   3.115   1.704  -1.925 -0.9196  0.6717  0.1698
  222MOL0     H29947   3.241   1.784  -1.848 -1.1402 -0.1956 -0.1461
  222MOL0     H29948   3.282   1.703  -2.095 -1.4726 -1.5088 -2.1103
  222MOL0     H29949   3.302   1.542  -2.034  3.5026  0.4533 -1.4581
  222MOL0     H29950   3.538   1.679  -2.042  2.2691 -3.4507  1.2924
  222MOL0     H29951   3.492   1.601  -1.896 -0.2264 -1.5327 -0.5181
  222MOL0     H29952   3.545   2.021  -1.135  0.4541  2.3090  0.2531
  222MOL0     H29953   3.502   2.222  -1.032 -0.7247 -4.4795  1.0006
  222MOL0     H29954   3.032   2.595  -1.116  1.5893 -1.4969 -0.4796
  222MOL0     H29955   2.966   2.792  -0.979  0.6580  0.1163  0.2270
  222MOL0     H29956   2.537   3.631  -0.152 -1.7475 -0.7599 -0.2255
  222MOL0     H29957   2.563   3.901  -0.157 -0.4342  0.6464  0.7777
  222MOL0     H29958   2.690   4.231  -0.133  1.7302  2.2759 -1.8822
  222MOL0     H29959   2.796   4.421  -0.183 -2.2315 -2.7914 -1.2517
  222MOL0     H29960   2.687   4.790   0.064  2.1745 -0.5333  0.6047
  222MOL0     H29961   2.763   4.864  -0.074 -2.6553  1.9360 -3.0457
  222MOL0     H29962   2.568   4.955  -0.069  1.3568  0.3988 -2.0173
  222MOL0     H29963   2.477   4.806  -0.041  2.8425 -1.4551  1.7749
  222MOL0     H29964   2.550   4.737  -0.283 -1.2650  0.1725  1.1623
  222MOL0     H29965   2.620   4.895  -0.308  0.5420  0.0406 -0.5710
  222MOL0     H29966   2.401   4.922  -0.392 -0.7486  2.8283  1.4219
  222MOL0     H29967   2.383   4.987  -0.231  0.4121  0.7207  0.4811
  222MOL0     H29968   2.142   4.624  -0.259  3.0822 -2.7461 -0.1226
  222MOL0     H29969   2.512   4.638   0.078  0.1528 -0.6385  3.4807
  222MOL0     H29970   2.422   4.433   0.142  0.0376  2.7012 -1.7231
  223MOL0     O29971   7.809   5.834   1.965  0.1375  0.2590  0.2043
  223MOL0     C29972   7.798   5.712   1.983  0.5085 -0.0099 -0.1666
  223MOL0     O29973   7.871   5.607   1.935 -0.6127  1.1383 -0.5661
  223MOL0     C29974   7.951   5.642   1.829 -0.1766  0.3590 -0.1765
  223MOL0     C29975   8.080   5.706   1.849  0.4380 -0.5663 -0.5177
  223MOL0     C29976   8.154   5.730   1.732  1.2514 -0.5494  0.0284
  223MOL0     C29977   8.109   5.690   1.611 -0.8938 -0.8921  0.0036
  223MOL0     O29978   8.182   5.714   1.496  0.1091  0.3139 -0.3063
  223MOL0     C29979   8.289   5.814   1.501  0.1734 -0.4895  0.2347
  223MOL0     C29980   8.368   5.818   1.367 -0.5169 -0.0211  0.2530
  223MOL0     C29981   8.432   5.685   1.333 -0.2139  0.5711 -0.1379
  223MOL0     C29982   8.484   5.680   1.182 -0.1340  0.9104  0.4910
  223MOL0     C29983   8.566   5.544   1.160 -0.3661  0.0380 -0.6190
  223MOL0     C29984   8.477   5.413   1.151 -0.2517 -1.2036  0.0311
  223MOL0     C29985   8.561   5.284   1.172 -0.5255 -0.5335  0.3692
  223MOL0     C29986   8.675   5.273   1.068 -0.9503  0.5989  1.4898
  223MOL0     N29987   8.795   5.336   1.092 -0.2927  0.8755  0.6027
  223MOL0     C29988   8.851   5.396   0.986 -0.6542 -0.4035 -0.0528
  223MOL0     C29989   8.986   5.392   1.013 -0.2927 -1.2473  0.7841
  223MOL0     C29990   9.093   5.447   0.927 -0.1684  0.0871  0.5604
  223MOL0     C29991   9.114   5.599   0.918 -0.3232 -0.9203  0.4871
  223MOL0     C29992   9.199   5.638   1.042  0.4599 -0.9789  0.1864
  223MOL0     C29993   9.221   5.792   1.064 -0.4955 -0.5186  0.2966
  223MOL0     O29994   9.103   5.861   1.104  0.8533  0.1067 -0.0261
  223MOL0     C29995   9.046   5.816   1.224  0.7002 -0.6026  0.2804
  223MOL0     C29996   9.127   5.782   1.332  0.3621  0.8262  0.9007
  223MOL0     C29997   9.066   5.739   1.451 -0.1373  0.1541 -0.6192
  223MOL0     C29998   9.154   5.695   1.570  0.6397 -0.0877 -0.6172
  223MOL0     C29999   8.931   5.732   1.460  0.4148 -0.3187 -0.5165
  223MOL0     C30000   8.850   5.678   1.574 -0.4699 -0.2279  0.6713
  223MOL0     O30001   8.733   5.744   1.617 -0.2809  0.2567  0.0088
  223MOL0     C30002   8.661   5.687   1.715 -0.5443  0.7240 -0.6133
  223MOL0     C30003   8.606   5.557   1.706  0.2593 -0.2270  0.1870
  223MOL0     C30004   8.528   5.501   1.803 -0.0308  1.0288 -0.4374
  223MOL0     C30005   8.500   5.574   1.920  0.3964  0.4404 -0.4509
  223MOL0     O30006   8.415   5.534   2.017  0.1507  0.1835 -0.3499
  223MOL0     C30007   8.359   5.402   2.013  0.3254  0.3912 -0.5505
  223MOL0     C30008   8.266   5.381   2.138  0.0104  0.6569 -0.2261
  223MOL0     C30009   8.128   5.443   2.117 -0.6844 -0.0551  0.3332
  223MOL0     C30010   8.027   5.398   2.234 -1.2030  0.4446  0.1527
  223MOL0     C30011   8.049   5.471   2.366  0.8610  1.0100  0.5481
  223MOL0     C30012   7.956   5.597   2.357 -0.2907 -0.5268 -0.2620
  223MOL0     C30013   7.944   5.678   2.497 -0.1035  0.2467  0.2934
  223MOL0     C30014   7.819   5.767   2.513  0.4093  0.5988 -1.0126
  223MOL0    Cl30015   7.872   5.897   2.633  0.6763  0.1020  0.0588
  223MOL0     C30016   8.575   5.693   1.945 -0.3164 -1.1851 -0.2411
  223MOL0     C30017   8.648   5.755   1.835 -0.1174 -0.3520 -0.3836
  223MOL0     O30018   8.885   5.571   1.626 -1.0158 -0.2131 -0.0458
  223MOL0     C30019   8.852   5.781   1.353 -0.4839  0.0043 -0.4336
  223MOL0     C30020   8.902   5.828   1.234 -0.3551  0.6106  0.1554
  223MOL0     N30021   8.992   5.344   1.146  0.0538 -0.5648  0.4090
  223MOL0     N30022   8.879   5.294   1.184 -0.0204 -0.4427 -0.5408
  223MOL0     C30023   7.984   5.639   1.587 -0.3053 -0.4281  0.1865
  223MOL0     C30024   7.906   5.614   1.697  1.1533  0.8305 -1.3526
  223MOL0     C30025   7.699   5.669   2.082 -0.4898 -0.1983 -0.4581
  223MOL0     C30026   7.698   5.531   2.115  0.7628  0.2704  0.6666
  223MOL0     C30027   7.639   5.491   2.233  0.1798  0.0880 -0.1964
  223MOL0     C30028   7.582   5.578   2.316 -0.1809  0.6671 -0.5453
  223MOL0     O30029   7.526   5.521   2.424  0.4419  0.0870 -0.8023
  223MOL0     C30030   7.398   5.452   2.402  0.3198 -0.4074  0.1068
  223MOL0     C30031   7.283   5.523   2.475  0.0108  0.2125  0.4295
  223MOL0     C30032   7.306   5.539   2.627 -0.0423  0.4927 -0.5148
  223MOL0     C30033   7.364   5.423   2.711  0.5253 -0.6376  0.5780
  223MOL0     C30034   7.483   5.469   2.792  0.0446 -0.7775  0.3081
  223MOL0     C30035   7.585   5.510   2.844 -0.1446 -0.5130 -0.4205
  223MOL0     C30036   7.571   5.716   2.288 -0.0167 -0.3896 -0.5182
  223MOL0     C30037   7.630   5.761   2.170  0.0751 -0.2980  0.5755
  223MOL0     H30038   8.108   5.729   1.951  1.8759 -0.2829 -0.9476
  223MOL0     H30039   8.244   5.788   1.747  2.0797 -2.0424  1.1040
  223MOL0     H30040   8.257   5.915   1.529  2.5619  0.1231  1.0042
  223MOL0     H30041   8.361   5.788   1.580 -2.4099 -0.7224  2.6844
  223MOL0     H30042   8.308   5.838   1.278 -1.7588 -1.9819  0.5883
  223MOL0     H30043   8.438   5.901   1.370 -0.6627  0.1304 -0.4872
  223MOL0     H30044   8.515   5.671   1.402  0.0231 -0.1048 -0.5553
  223MOL0     H30045   8.355   5.608   1.346 -2.2549  2.0340 -2.6105
  223MOL0     H30046   8.392   5.673   1.123 -0.5995 -2.9905  1.3912
  223MOL0     H30047   8.547   5.766   1.157  0.9418  0.1018  0.3310
  223MOL0     H30048   8.622   5.555   1.067 -0.1269  0.3358 -0.4438
  223MOL0     H30049   8.651   5.532   1.227 -1.2044  0.2652  0.5147
  223MOL0     H30050   8.396   5.406   1.224 -2.1156 -4.1066 -2.0718
  223MOL0     H30051   8.433   5.414   1.051  0.6953 -0.0025 -0.3984
  223MOL0     H30052   8.605   5.290   1.272  0.3552 -1.9867  0.0856
  223MOL0     H30053   8.500   5.194   1.157  1.1658 -1.2503 -3.2248
  223MOL0     H30054   8.646   5.312   0.971  3.8071  1.0270  0.0097
  223MOL0     H30055   8.689   5.165   1.059  0.5513  0.8214  0.9830
  223MOL0     H30056   8.804   5.439   0.897 -2.5368 -0.3927  0.8922
  223MOL0     H30057   9.190   5.405   0.955 -1.2323 -2.5003  0.6641
  223MOL0     H30058   9.071   5.411   0.825  2.8089 -0.7815  0.1429
  223MOL0     H30059   9.016   5.648   0.915 -0.3805 -1.0530 -2.2610
  223MOL0     H30060   9.165   5.616   0.823  0.7185  1.1663  1.3510
  223MOL0     H30061   9.296   5.588   1.034 -0.8987 -4.1194  1.5389
  223MOL0     H30062   9.170   5.584   1.133  0.7839 -1.5474 -0.0428
  223MOL0     H30063   9.249   5.836   0.968 -0.5756 -0.0683  0.4772
  223MOL0     H30064   9.299   5.812   1.139  2.4797 -2.0798 -2.1628
  223MOL0     H30065   9.228   5.820   1.334  0.4762  0.5485  0.3852
  223MOL0     H30066   9.100   5.713   1.664  0.4606 -1.4421 -0.4427
  223MOL0     H30067   9.180   5.589   1.558  2.0855  0.1054  0.4786
  223MOL0     H30068   9.242   5.760   1.568  0.7791 -0.2949 -1.1360
  223MOL0     H30069   8.630   5.499   1.617  1.3825 -2.4587  1.8576
  223MOL0     H30070   8.484   5.403   1.788  1.8939 -1.0672  5.0848
  223MOL0     H30071   8.291   5.394   1.928 -0.7835 -1.3335  0.4529
  223MOL0     H30072   8.435   5.323   2.005 -0.2017  0.0000 -2.1159
  223MOL0     H30073   8.235   5.278   2.156 -0.4942  0.9983  0.9654
  223MOL0     H30074   8.321   5.417   2.225 -2.7883  1.7183  1.2292
  223MOL0     H30075   8.086   5.417   2.020  1.1641 -2.2953  0.0458
  223MOL0     H30076   8.135   5.552   2.112  3.3346 -0.2357 -1.0513
  223MOL0     H30077   7.923   5.407   2.204 -1.8017  1.7261  2.4330
  223MOL0     H30078   8.042   5.290   2.242 -1.3296  0.3546 -0.7279
  223MOL0     H30079   8.156   5.494   2.362  0.9972  0.5299  1.3789
  223MOL0     H30080   8.011   5.408   2.447 -2.9749 -1.6248 -2.8698
  223MOL0     H30081   7.986   5.665   2.277 -1.8692 -1.4492 -1.6902
  223MOL0     H30082   7.852   5.572   2.334 -0.7051 -0.7036  1.6003
  223MOL0     H30083   8.034   5.741   2.497  1.3490 -1.7231 -0.0584
  223MOL0     H30084   7.958   5.612   2.583  2.0615  1.1565  0.7099
  223MOL0     H30085   7.735   5.719   2.565  2.2373  1.8154  3.5277
  223MOL0     H30086   7.776   5.799   2.418  0.2481  2.9737 -0.2063
  223MOL0     H30087   8.559   5.747   2.038  0.0858  1.3110 -1.5301
  223MOL0     H30088   8.678   5.860   1.836 -1.7384  0.1974 -2.2439
  223MOL0     H30089   8.744   5.785   1.366 -0.6638 -1.7359 -1.1609
  223MOL0     H30090   8.840   5.843   1.147 -2.1810 -2.7301  0.7016
  223MOL0     H30091   7.941   5.607   1.492 -0.5640  1.1916 -0.2716
  223MOL0     H30092   7.806   5.571   1.691  1.7631 -1.2740  1.5599
  223MOL0     H30093   7.733   5.455   2.046  1.0047 -1.9218  3.0418
  223MOL0     H30094   7.630   5.384   2.247 -2.6000  0.2590 -0.2013
  223MOL0     H30095   7.375   5.434   2.296  1.7430 -2.2669  0.0644
  223MOL0     H30096   7.417   5.351   2.442  2.1661  0.8299  2.6659
  223MOL0     H30097   7.199   5.456   2.456  1.3714 -1.0263 -1.6997
  223MOL0     H30098   7.267   5.620   2.426  1.6442  0.5874  0.5778
  223MOL0     H30099   7.211   5.562   2.675  0.3797  0.6845  0.2521
  223MOL0     H30100   7.370   5.628   2.623  1.3206 -0.3550  1.0343
  223MOL0     H30101   7.397   5.341   2.647  1.9076 -0.7709  1.4164
  223MOL0     H30102   7.279   5.383   2.766  0.3816 -0.5410  0.4258
  223MOL0     H30103   7.651   5.552   2.918 -0.5859 -0.2849 -0.1540
  223MOL0     H30104   7.514   5.787   2.347  0.9065  1.5166 -1.8380
  223MOL0     H30105   7.644   5.865   2.142  2.3095 -1.0512 -1.3577
  224MOL0     O30106   3.412  11.470   4.819  0.9005  0.3753 -0.6560
  224MOL0     C30107   3.362  11.409   4.729 -0.1833 -0.5053 -0.1101
  224MOL0     O30108   3.342  11.456   4.606  0.8561  0.0575  0.9757
  224MOL0     C30109   3.390  11.579   4.575 -0.3184  0.1278 -0.1072
  224MOL0     C30110   3.515  11.574   4.507 -0.8160  0.8344 -0.9134
  224MOL0     C30111   3.574  11.693   4.461  0.3716  0.3165  0.9769
  224MOL0     C30112   3.513  11.817   4.492  0.7443 -0.1363 -0.0945
  224MOL0     O30113   3.574  11.925   4.452 -0.2567  0.2858  0.2936
  224MOL0     C30114   3.600  12.017   4.556  0.5265  0.6841  0.1947
  224MOL0     C30115   3.638  12.147   4.483 -0.3054  0.0104  0.4181
  224MOL0     C30116   3.676  12.259   4.590 -0.1387 -0.5447 -0.2413
  224MOL0     C30117   3.679  12.395   4.525  0.0850  0.0463  0.4841
  224MOL0     C30118   3.745  12.491   4.613 -0.3329 -0.8100  0.5899
  224MOL0     C30119   3.759  12.628   4.530 -0.1479  0.2938 -0.2698
  224MOL0     C30120   3.824  12.736   4.632  0.4182  0.3957 -0.0548
  224MOL0     C30121   3.852  12.852   4.540  0.4588 -0.4419  0.1991
  224MOL0     N30122   3.758  12.960   4.565 -0.0951  0.2240  0.1037
  224MOL0     C30123   3.626  12.938   4.556 -0.7554  0.2401  1.1821
  224MOL0     C30124   3.559  13.046   4.607 -0.1132 -0.0011  0.0789
  224MOL0     C30125   3.408  13.071   4.622  0.1411  0.1814  0.9056
  224MOL0     C30126   3.370  13.106   4.768  0.3018  0.5356 -0.0560
  224MOL0     C30127   3.417  13.023   4.889 -0.3556  0.7088 -0.3294
  224MOL0     C30128   3.373  12.879   4.883  0.1563 -0.2483 -0.3165
  224MOL0     O30129   3.456  12.799   4.791 -0.0517  0.4899 -0.7419
  224MOL0     C30130   3.394  12.675   4.753 -0.0017  0.1282 -0.0017
  224MOL0     C30131   3.394  12.565   4.834  0.6692 -0.0363  0.2508
  224MOL0     C30132   3.351  12.444   4.784 -0.3940  0.4430 -0.1687
  224MOL0     C30133   3.344  12.336   4.888 -0.1368 -0.6779 -0.8996
  224MOL0     C30134   3.313  12.428   4.650  0.0592  0.4853 -0.0155
  224MOL0     C30135   3.256  12.295   4.599 -0.4104 -0.4606  0.9319
  224MOL0     O30136   3.176  12.317   4.491  0.0386 -0.2552  0.1842
  224MOL0     C30137   3.146  12.201   4.420  0.6778 -0.0503 -0.2344
  224MOL0     C30138   3.237  12.106   4.374  1.0333 -0.7270 -0.1433
  224MOL0     C30139   3.192  11.989   4.307  0.0845 -0.0141 -0.0802
  224MOL0     C30140   3.061  11.958   4.292  0.5798  0.5629  0.8853
  224MOL0     O30141   3.004  11.848   4.234 -0.7216  0.6867 -0.0965
  224MOL0     C30142   3.099  11.742   4.180  0.3399  0.3644  0.1091
  224MOL0     C30143   3.149  11.643   4.289 -0.9779  0.1554  0.0403
  224MOL0     C30144   3.201  11.522   4.208 -0.5143  1.0028 -0.0813
  224MOL0     C30145   3.250  11.407   4.287  0.6848 -0.0944  0.1036
  224MOL0     C30146   3.294  11.292   4.193  0.0237  0.1790 -1.3942
  224MOL0     C30147   3.435  11.323   4.151  0.4555 -0.4508  0.8340
  224MOL0     C30148   3.504  11.189   4.123 -0.6550 -0.3056  0.7578
  224MOL0     C30149   3.666  11.197   4.105  0.7398 -0.7224 -0.0550
  224MOL0    Cl30150   3.709  11.028   4.086 -0.1412  0.0716 -0.0035
  224MOL0     C30151   2.966  12.052   4.338  0.5198 -0.3266 -0.0659
  224MOL0     C30152   3.009  12.171   4.395  0.0922 -0.1712 -0.3931
  224MOL0     O30153   3.298  12.190   4.643 -0.2121  0.1532 -0.3010
  224MOL0     C30154   3.315  12.545   4.564 -0.8411  0.3857 -0.2412
  224MOL0     C30155   3.358  12.670   4.612  0.0983 -0.2748 -0.5663
  224MOL0     N30156   3.659  13.120   4.660 -1.0530 -0.3006 -0.3520
  224MOL0     N30157   3.776  13.069   4.644  0.5089 -0.5024 -0.1702
  224MOL0     C30158   3.384  11.819   4.558 -0.8595  0.0597  0.3119
  224MOL0     C30159   3.324  11.703   4.595 -0.9112  0.4291 -0.6147
  224MOL0     C30160   3.307  11.273   4.757  0.6328 -0.0690  0.4088
  224MOL0     C30161   3.212  11.207   4.681  0.7795  0.8234  0.0645
  224MOL0     C30162   3.163  11.090   4.719 -0.0645  0.2087  0.3116
  224MOL0     C30163   3.215  11.022   4.829  0.5349  0.5848  0.3184
  224MOL0     O30164   3.142  10.914   4.864 -1.7305 -1.1462  0.0395
  224MOL0     C30165   3.187  10.832   4.971 -0.1262 -0.0209  1.0124
  224MOL0     C30166   3.117  10.701   4.954 -0.1461 -0.6958 -0.2037
  224MOL0     C30167   3.157  10.610   5.079 -0.1125 -0.6687 -0.2050
  224MOL0     C30168   3.117  10.469   5.060 -0.1907  0.6556 -0.1768
  224MOL0     C30169   3.203  10.382   5.150 -0.2197  0.4062  0.2600
  224MOL0     C30170   3.277  10.294   5.194 -0.0454  1.0842 -0.4852
  224MOL0     C30171   3.312  11.076   4.902  0.4844 -0.8316 -0.6015
  224MOL0     C30172   3.355  11.205   4.876  0.9065  0.3969  0.5791
  224MOL0     H30173   3.562  11.479   4.483  1.1557  1.5549 -0.0133
  224MOL0     H30174   3.662  11.701   4.398 -0.8435  4.7074 -0.5741
  224MOL0     H30175   3.508  12.037   4.611  2.1288  1.9286  2.5821
  224MOL0     H30176   3.690  11.987   4.611  0.2142 -0.4607  0.1146
  224MOL0     H30177   3.727  12.127   4.423 -0.1313 -1.1809  1.0411
  224MOL0     H30178   3.559  12.192   4.423  1.9722  4.3946  0.2888
  224MOL0     H30179   3.595  12.268   4.663 -0.6195  3.2410 -1.0164
  224MOL0     H30180   3.772  12.238   4.638 -0.8141 -0.5577  1.1473
  224MOL0     H30181   3.739  12.383   4.435  0.6351 -3.5150  1.1611
  224MOL0     H30182   3.578  12.427   4.498 -0.7272  0.2265  3.3535
  224MOL0     H30183   3.698  12.499   4.712 -3.6770  2.8146 -1.0270
  224MOL0     H30184   3.850  12.464   4.627 -0.0948  0.9216  2.6915
  224MOL0     H30185   3.808  12.613   4.434 -0.0407  4.9719 -1.1736
  224MOL0     H30186   3.662  12.662   4.491  0.9667  0.5890 -3.0034
  224MOL0     H30187   3.747  12.757   4.708 -1.3237 -0.8975 -1.3717
  224MOL0     H30188   3.920  12.701   4.671  0.2033 -0.1679 -0.0234
  224MOL0     H30189   3.873  12.831   4.435  2.0100  1.1067  0.1615
  224MOL0     H30190   3.946  12.899   4.570 -1.4910  3.0513  1.5171
  224MOL0     H30191   3.571  12.852   4.519 -1.3006  0.3431  1.7215
  224MOL0     H30192   3.386  13.156   4.557  2.2662  1.3975  1.6767
  224MOL0     H30193   3.351  12.988   4.581 -0.4354  0.9048  0.2016
  224MOL0     H30194   3.260  13.101   4.771  0.2613  1.7381  0.9573
  224MOL0     H30195   3.398  13.209   4.788  3.5064 -0.5878  1.9190
  224MOL0     H30196   3.369  13.075   4.972  2.6236  0.4965  1.6665
  224MOL0     H30197   3.524  13.034   4.908 -1.0466  1.6011  4.1410
  224MOL0     H30198   3.266  12.864   4.865 -0.0869 -1.5569  1.8561
  224MOL0     H30199   3.382  12.839   4.984  1.1844  0.4069 -0.1408
  224MOL0     H30200   3.429  12.578   4.936 -1.6861 -2.1613  1.4444
  224MOL0     H30201   3.429  12.267   4.891 -0.7038 -1.3676 -0.0774
  224MOL0     H30202   3.335  12.380   4.988  0.8729  1.1016 -1.5547
  224MOL0     H30203   3.257  12.271   4.872 -1.1031 -0.2499  1.8697
  224MOL0     H30204   3.343  12.113   4.395  0.3532 -0.6397  4.0155
  224MOL0     H30205   3.276  11.930   4.271  0.8138  0.5533  0.6327
  224MOL0     H30206   3.030  11.688   4.115 -4.6648  1.6352  3.7512
  224MOL0     H30207   3.176  11.783   4.114  0.8802  1.5750  1.4230
  224MOL0     H30208   3.217  11.706   4.347 -1.3259 -0.9151  1.6749
  224MOL0     H30209   3.066  11.607   4.349 -1.9543  2.4417  0.1632
  224MOL0     H30210   3.284  11.562   4.149 -1.4374  2.0359 -0.7343
  224MOL0     H30211   3.127  11.483   4.137  1.1201 -0.2180 -1.1965
  224MOL0     H30212   3.332  11.430   4.357 -1.9863  0.3946  3.3024
  224MOL0     H30213   3.169  11.377   4.354  1.1827  0.9220  1.1973
  224MOL0     H30214   3.232  11.283   4.103  0.1067 -3.7079 -1.2475
  224MOL0     H30215   3.276  11.199   4.248 -0.9476  0.8324 -0.5806
  224MOL0     H30216   3.435  11.375   4.055  4.5963 -1.6842 -0.0553
  224MOL0     H30217   3.503  11.366   4.225  1.8374 -0.7762 -0.2132
  224MOL0     H30218   3.460  11.138   4.037 -2.0480  2.1007 -0.0818
  224MOL0     H30219   3.493  11.128   4.212  2.2701 -1.3892  0.4634
  224MOL0     H30220   3.722  11.233   4.193  0.7919  0.5376 -0.5833
  224MOL0     H30221   3.711  11.245   4.017 -0.9802  0.5508 -0.2876
  224MOL0     H30222   2.862  12.024   4.325  0.4631 -0.1770  0.0599
  224MOL0     H30223   2.930  12.239   4.424 -1.3292 -0.5166 -3.1044
  224MOL0     H30224   3.283  12.539   4.461 -0.7343  0.8114 -0.3014
  224MOL0     H30225   3.362  12.758   4.550  1.1774  0.3647  0.3625
  224MOL0     H30226   3.326  11.910   4.561  0.3171  0.8325  0.3461
  224MOL0     H30227   3.232  11.706   4.653 -0.0615 -0.3700  0.8307
  224MOL0     H30228   3.181  11.258   4.591  3.0361  0.5773 -0.9016
  224MOL0     H30229   3.080  11.046   4.665  0.6832 -0.2802 -0.4761
  224MOL0     H30230   3.295  10.817   4.978  0.5563  2.0972 -2.5077
  224MOL0     H30231   3.162  10.885   5.063 -1.4525  2.4535 -0.6717
  224MOL0     H30232   3.153  10.672   4.854  0.9976  1.9438 -0.6324
  224MOL0     H30233   3.008  10.712   4.951  0.0069  1.1180  0.0432
  224MOL0     H30234   3.100  10.646   5.165  0.4764  1.9734 -0.8196
  224MOL0     H30235   3.263  10.627   5.100 -0.5998  3.2840 -0.2014
  224MOL0     H30236   3.129  10.429   4.959 -1.2856 -2.2791  0.7513
  224MOL0     H30237   3.010  10.458   5.082  0.2702  1.0121  2.6453
  224MOL0     H30238   3.332  10.208   5.228 -2.3222  0.9507  3.4349
  224MOL0     H30239   3.365  11.027   4.984  0.1731 -1.1436 -0.5859
  224MOL0     H30240   3.440  11.249   4.928  2.4320 -1.4971 -0.2075
  225MOL0     O30241  10.620   6.056   3.178 -0.5772 -0.6748  0.2908
  225MOL0     C30242  10.500   6.039   3.163 -0.9206 -0.1136 -0.2356
  225MOL0     O30243  10.413   6.124   3.099  0.2590 -0.4020  0.1257
  225MOL0     C30244  10.442   6.225   3.005 -0.4389 -0.2947 -0.0219
  225MOL0     C30245  10.542   6.219   2.909 -0.4928 -0.0730  0.5209
  225MOL0     C30246  10.554   6.319   2.811 -0.3089 -0.9235 -0.5634
  225MOL0     C30247  10.471   6.424   2.803 -0.2647 -0.4309 -0.4683
  225MOL0     O30248  10.502   6.524   2.708  0.1867 -0.0232 -0.3303
  225MOL0     C30249  10.391   6.587   2.640  0.4173  0.2333  0.2743
  225MOL0     C30250  10.452   6.694   2.543 -0.1244  0.0622  0.3417
  225MOL0     C30251  10.526   6.796   2.619  0.1337 -0.6359 -0.3084
  225MOL0     C30252  10.559   6.921   2.534  1.1249 -0.0600  0.0935
  225MOL0     C30253  10.639   7.017   2.617  0.2289 -0.2396  0.6379
  225MOL0     C30254  10.658   7.151   2.549 -0.7202  0.2593 -0.0868
  225MOL0     C30255  10.764   7.233   2.622  0.3296  0.5355  0.0362
  225MOL0     C30256  10.816   7.347   2.531 -0.5924  0.2419 -0.1347
  225MOL0     N30257  10.923   7.434   2.584  0.0246 -0.2870  0.2727
  225MOL0     C30258  11.041   7.400   2.648  0.6216  1.3762  0.6717
  225MOL0     C30259  11.076   7.510   2.714 -0.5155  0.9843  0.0663
  225MOL0     C30260  11.190   7.529   2.802  0.6949  0.2826 -0.0874
  225MOL0     C30261  11.308   7.599   2.729  0.6951 -0.3313  0.9013
  225MOL0     C30262  11.413   7.655   2.829 -0.2789 -0.2487  0.7212
  225MOL0     C30263  11.446   7.547   2.940  0.6298  0.5433  0.4988
  225MOL0     O30264  11.499   7.424   2.878 -0.0348 -0.2054  0.4623
  225MOL0     C30265  11.615   7.358   2.917 -0.5583  0.5956  1.0392
  225MOL0     C30266  11.674   7.270   2.830 -0.0517  0.6016 -0.6250
  225MOL0     C30267  11.793   7.205   2.865 -0.6025 -0.4252  0.0085
  225MOL0     C30268  11.863   7.126   2.759  0.1876  0.8408  0.5353
  225MOL0     C30269  11.856   7.223   2.993  0.0273  0.5404 -0.1283
  225MOL0     C30270  11.981   7.172   3.051 -0.1184 -0.0119  0.9646
  225MOL0     O30271  12.077   7.140   2.965 -0.0362  0.2369 -0.3288
  225MOL0     C30272  12.189   7.073   3.003  0.1904 -1.4169  1.3785
  225MOL0     C30273  12.184   6.973   3.098 -0.8929  1.1958 -0.2996
  225MOL0     C30274  12.300   6.899   3.127  0.3533 -0.1857  0.2254
  225MOL0     C30275  12.423   6.928   3.069 -0.7479  0.8488  0.3195
  225MOL0     O30276  12.524   6.843   3.107 -0.1059 -0.3809 -0.9836
  225MOL0     C30277  12.638   6.819   3.021  0.0315  0.0401 -0.0804
  225MOL0     C30278  12.728   6.727   3.099 -0.0774 -0.0770 -0.3862
  225MOL0     C30279  12.879   6.708   3.056  0.8054 -0.8064  0.0475
  225MOL0     C30280  12.956   6.807   3.143 -0.3780 -0.3359 -0.2865
  225MOL0     C30281  13.106   6.819   3.095  0.1925  0.2559 -0.0252
  225MOL0     C30282  13.180   6.686   3.087 -0.2985 -0.0590 -0.4604
  225MOL0     C30283  13.326   6.693   3.038 -0.2670 -0.3817  0.0549
  225MOL0     C30284  13.411   6.564   3.042  0.9915 -0.2290  0.4142
  225MOL0    Cl30285  13.564   6.590   2.974  0.0673  0.1412  0.2151
  225MOL0     C30286  12.419   7.023   2.963 -0.8051 -0.0989 -0.8003
  225MOL0     C30287  12.312   7.101   2.940  0.0725  0.0098  1.1766
  225MOL0     O30288  11.991   7.161   3.173  0.0245  0.3563  0.9067
  225MOL0     C30289  11.792   7.311   3.080  0.5085 -0.1172  1.3891
  225MOL0     C30290  11.681   7.381   3.040 -0.2778 -0.0913  1.0002
  225MOL0     N30291  10.989   7.608   2.694  0.0461  0.2078  0.3300
  225MOL0     N30292  10.902   7.564   2.614  0.0507  0.3842  0.3549
  225MOL0     C30293  10.364   6.425   2.897 -0.6732 -0.3095 -0.3787
  225MOL0     C30294  10.349   6.326   2.991  0.8423 -0.2153  0.0620
  225MOL0     C30295  10.440   5.933   3.242 -0.1614 -0.3642 -0.3074
  225MOL0     C30296  10.308   5.893   3.224  0.3608  0.6423  0.4596
  225MOL0     C30297  10.249   5.793   3.295  0.8960  1.0915  1.0710
  225MOL0     C30298  10.326   5.722   3.385 -0.4133  0.1011 -0.0082
  225MOL0     O30299  10.275   5.624   3.462  0.0918  0.2964  0.4388
  225MOL0     C30300  10.134   5.581   3.449 -0.0567 -0.5241 -0.0596
  225MOL0     C30301  10.105   5.484   3.559 -0.9987  0.6649 -0.0290
  225MOL0     C30302  10.231   5.399   3.611  0.3901 -0.6942  0.8303
  225MOL0     C30303  10.195   5.279   3.697  0.3885  0.1320  0.0599
  225MOL0     C30304  10.131   5.332   3.813  1.0583 -0.0715  0.1703
  225MOL0     C30305  10.065   5.361   3.916  0.1635  0.3563  0.7165
  225MOL0     C30306  10.457   5.761   3.417  0.9344  0.3635 -0.6815
  225MOL0     C30307  10.503   5.867   3.347  0.9091 -0.9226 -0.3183
  225MOL0     H30308  10.612   6.137   2.915  0.3872  0.7452  1.9704
  225MOL0     H30309  10.643   6.299   2.753 -1.0232 -1.1886 -1.5893
  225MOL0     H30310  10.345   6.499   2.594  1.6048  0.1164 -0.7172
  225MOL0     H30311  10.331   6.645   2.711  0.5380  1.1697 -0.3805
  225MOL0     H30312  10.528   6.643   2.484  0.8169  0.1690  1.4349
  225MOL0     H30313  10.379   6.739   2.475  0.4057  0.4253  0.0141
  225MOL0     H30314  10.476   6.824   2.713  0.1109  1.7335 -0.9638
  225MOL0     H30315  10.627   6.761   2.643  0.7563  0.7452 -0.8495
  225MOL0     H30316  10.611   6.896   2.442 -0.8202  0.7521 -1.2873
  225MOL0     H30317  10.460   6.965   2.517  0.5156 -0.9180  1.2005
  225MOL0     H30318  10.587   7.033   2.712  2.5940  1.3796  1.7417
  225MOL0     H30319  10.737   6.982   2.650  1.1192  2.9460  1.7906
  225MOL0     H30320  10.680   7.129   2.444 -0.0732 -0.5183  0.1963
  225MOL0     H30321  10.561   7.201   2.550 -1.7203 -1.4978 -1.7060
  225MOL0     H30322  10.710   7.289   2.699  2.0032 -1.2421  2.6676
  225MOL0     H30323  10.849   7.177   2.663  1.5198  0.6570 -2.0629
  225MOL0     H30324  10.732   7.408   2.497 -2.0027 -1.2220  0.5577
  225MOL0     H30325  10.871   7.296   2.451  2.2900  2.2016  0.4638
  225MOL0     H30326  11.088   7.302   2.643 -0.6492  0.8055 -2.3932
  225MOL0     H30327  11.161   7.590   2.889 -0.1734  2.7391 -1.9958
  225MOL0     H30328  11.226   7.436   2.846  1.7454 -0.5596 -2.5452
  225MOL0     H30329  11.275   7.679   2.662  2.2160 -0.8017 -0.5024
  225MOL0     H30330  11.354   7.516   2.673  0.6101  1.0579 -1.3651
  225MOL0     H30331  11.384   7.751   2.874 -0.3176  2.0027 -3.5941
  225MOL0     H30332  11.502   7.670   2.768  0.5979  0.0269  2.0209
  225MOL0     H30333  11.352   7.532   2.995  0.1883  1.4764  0.0230
  225MOL0     H30334  11.522   7.590   3.005 -0.1650  2.3312  0.2922
  225MOL0     H30335  11.633   7.253   2.731 -0.9296 -2.6507  0.1766
  225MOL0     H30336  11.944   7.178   2.707  0.0794  2.3071  1.7790
  225MOL0     H30337  11.892   7.032   2.807  1.1446  1.0634  0.3985
  225MOL0     H30338  11.790   7.079   2.692  3.1425 -2.1373 -0.9041
  225MOL0     H30339  12.087   6.942   3.135 -1.2020  1.8000 -0.5753
  225MOL0     H30340  12.299   6.819   3.199  0.2342  1.3914  2.0587
  225MOL0     H30341  12.616   6.781   2.920  3.2983 -0.4164 -0.7128
  225MOL0     H30342  12.698   6.908   2.999 -0.0214 -0.1977 -1.2619
  225MOL0     H30343  12.738   6.759   3.203  0.0324  1.2815 -0.7833
  225MOL0     H30344  12.678   6.631   3.094 -0.1450  0.0032 -1.5977
  225MOL0     H30345  12.881   6.737   2.950  0.7054  1.4363  0.6129
  225MOL0     H30346  12.912   6.605   3.072  0.8565 -1.0502 -1.5032
  225MOL0     H30347  12.913   6.908   3.138  0.1524  0.2267  3.7098
  225MOL0     H30348  12.966   6.784   3.249  0.4471 -1.1767 -0.5308
  225MOL0     H30349  13.162   6.899   3.144  0.4510  0.9150 -1.3473
  225MOL0     H30350  13.100   6.851   2.990  2.2521  0.4044 -0.1463
  225MOL0     H30351  13.183   6.643   3.187 -0.1061  0.1670 -0.3699
  225MOL0     H30352  13.128   6.620   3.016  2.1643 -2.1587 -0.4513
  225MOL0     H30353  13.369   6.777   3.094 -0.1480  2.3801 -3.7603
  225MOL0     H30354  13.325   6.725   2.933 -3.1299  0.5276  0.2714
  225MOL0     H30355  13.361   6.492   2.976 -0.4239  1.5840 -0.5812
  225MOL0     H30356  13.415   6.520   3.142  0.0237 -2.2064 -0.3532
  225MOL0     H30357  12.506   7.032   2.899 -0.0864  0.9444  0.2809
  225MOL0     H30358  12.327   7.173   2.860  3.8766  1.2609  2.7901
  225MOL0     H30359  11.831   7.333   3.179  2.1873  2.1165  0.3215
  225MOL0     H30360  11.650   7.447   3.121  3.0347  1.9908  0.7470
  225MOL0     H30361  10.291   6.505   2.903 -0.6327 -0.2637 -0.4967
  225MOL0     H30362  10.261   6.322   3.056  0.5209 -1.4019 -0.4155
  225MOL0     H30363  10.249   5.941   3.147  1.9852  1.1276 -0.5287
  225MOL0     H30364  10.148   5.760   3.275  1.6753 -1.4521  1.0294
  225MOL0     H30365  10.069   5.669   3.446  0.4448 -0.0793 -4.9175
  225MOL0     H30366  10.140   5.529   3.354  1.7851  0.2088 -0.3897
  225MOL0     H30367  10.030   5.420   3.511 -0.1976 -1.2885  1.2029
  225MOL0     H30368  10.059   5.532   3.646  1.0885  1.2335  0.8016
  225MOL0     H30369  10.295   5.466   3.670  0.4562  0.0997 -0.1030
  225MOL0     H30370  10.290   5.368   3.524 -1.1091  0.6301 -0.7458
  225MOL0     H30371  10.287   5.228   3.727  0.0398  0.9599  2.8500
  225MOL0     H30372  10.132   5.204   3.651 -0.3378 -0.6335  2.1958
  225MOL0     H30373  10.017   5.402   4.003  0.4653  2.0941  0.0999
  225MOL0     H30374  10.516   5.712   3.494 -1.4172  1.8617  2.3213
  225MOL0     H30375  10.608   5.890   3.355  0.4615  0.6643  4.7165
  226MOL0     O30376   9.468   0.600  10.941 -0.4482 -0.3545  0.4495
  226MOL0     C30377   9.584   0.581  10.911 -0.1164 -1.0795  0.3228
  226MOL0     O30378   9.645   0.462  10.918  0.3048  0.1404 -0.7039
  226MOL0     C30379   9.588   0.356  10.990  0.0609  0.4461 -0.1051
  226MOL0     C30380   9.559   0.355  11.127 -0.5534  0.5275 -0.5662
  226MOL0     C30381   9.532   0.231  11.195  0.1875 -0.0503 -1.4383
  226MOL0     C30382   9.512   0.114  11.123 -0.0413  0.6335 -0.1165
  226MOL0     O30383   9.454   0.009  11.193  0.6073 -0.3091  0.0444
  226MOL0     C30384   9.437  -0.125  11.136 -0.8264  0.2186 -0.2891
  226MOL0     C30385   9.438  -0.242  11.234  0.4107  1.0917  0.1012
  226MOL0     C30386   9.321  -0.236  11.341 -0.1387 -0.3257  0.0521
  226MOL0     C30387   9.337  -0.353  11.436 -0.4890 -0.4022  0.0709
  226MOL0     C30388   9.222  -0.363  11.536 -1.1755  0.1434 -0.7212
  226MOL0     C30389   9.250  -0.432  11.664  1.2283  0.2682 -0.3419
  226MOL0     C30390   9.317  -0.567  11.644  1.0168  0.1848  0.0646
  226MOL0     C30391   9.244  -0.664  11.544  1.0028 -1.2358  0.3676
  226MOL0     N30392   9.105  -0.691  11.576 -0.3276 -0.4517 -0.4851
  226MOL0     C30393   9.070  -0.786  11.666  0.7961  0.3810  0.5647
  226MOL0     C30394   8.939  -0.758  11.687 -1.0193  0.4053  0.3721
  226MOL0     C30395   8.862  -0.827  11.794 -0.4853 -0.0880  0.7497
  226MOL0     C30396   8.803  -0.953  11.744  0.2644 -0.4117  0.4649
  226MOL0     C30397   8.711  -0.925  11.617  1.2054  0.4329 -0.3462
  226MOL0     C30398   8.618  -1.051  11.604  0.3006 -0.6834  0.2305
  226MOL0     O30399   8.696  -1.173  11.563 -0.4716  0.4670 -0.2142
  226MOL0     C30400   8.642  -1.272  11.484  0.2161  0.7090 -0.0825
  226MOL0     C30401   8.540  -1.259  11.396  0.8045  0.0310 -0.7144
  226MOL0     C30402   8.490  -1.369  11.321 -0.1291 -0.7120 -0.0108
  226MOL0     C30403   8.376  -1.344  11.225  1.1443  0.6190 -0.5989
  226MOL0     C30404   8.545  -1.497  11.342 -0.0790 -0.8761 -0.4172
  226MOL0     C30405   8.497  -1.615  11.260 -0.7749  0.3591 -0.0211
  226MOL0     O30406   8.597  -1.706  11.228 -0.4362 -0.4132 -0.3440
  226MOL0     C30407   8.568  -1.829  11.174 -0.0738 -0.1199 -0.9454
  226MOL0     C30408   8.445  -1.897  11.181 -0.1921 -0.5547 -0.1853
  226MOL0     C30409   8.447  -2.034  11.142  0.2989  0.9547  0.8140
  226MOL0     C30410   8.556  -2.090  11.081 -0.0817  0.7303 -0.2610
  226MOL0     O30411   8.545  -2.220  11.039  0.0859  0.1939  0.2688
  226MOL0     C30412   8.598  -2.253  10.906  0.2689 -0.6766 -1.2593
  226MOL0     C30413   8.623  -2.401  10.915 -0.2355 -0.5144 -0.1824
  226MOL0     C30414   8.718  -2.462  11.011  0.2974 -0.0261 -0.0270
  226MOL0     C30415   8.859  -2.482  10.979  0.3664 -1.2941 -0.1611
  226MOL0     C30416   8.898  -2.637  11.000  1.2594  0.0480  0.8584
  226MOL0     C30417   8.902  -2.682  11.152 -0.1193  0.3020  0.0967
  226MOL0     C30418   8.987  -2.805  11.165 -0.9571 -0.5714 -0.8859
  226MOL0     C30419   8.921  -2.899  11.269 -0.8101 -0.4550 -0.1297
  226MOL0    Cl30420   8.747  -2.952  11.233  0.0574 -0.1025  0.1107
  226MOL0     C30421   8.677  -2.026  11.079  0.0562 -0.4050  0.1382
  226MOL0     C30422   8.684  -1.896  11.122  0.2629 -1.0235 -0.1267
  226MOL0     O30423   8.378  -1.634  11.246 -0.1900 -0.3894  0.5475
  226MOL0     C30424   8.660  -1.507  11.418 -0.9179 -0.3662 -0.0901
  226MOL0     C30425   8.709  -1.395  11.480 -0.1717 -0.3534 -0.3795
  226MOL0     N30426   8.889  -0.670  11.584 -0.8875 -0.5273 -0.8671
  226MOL0     N30427   8.993  -0.625  11.520  0.4732  0.1098  0.1254
  226MOL0     C30428   9.541   0.116  10.981  0.2421 -0.8474  0.1453
  226MOL0     C30429   9.576   0.238  10.921  1.4988 -0.5127 -0.6753
  226MOL0     C30430   9.665   0.696  10.870  0.7747 -0.3025 -0.2044
  226MOL0     C30431   9.802   0.685  10.822  1.1023 -0.4658  0.1505
  226MOL0     C30432   9.876   0.801  10.795  0.0885 -0.0292 -0.8589
  226MOL0     C30433   9.818   0.920  10.801  0.4503  0.5995  0.0460
  226MOL0     O30434   9.885   1.038  10.760 -0.6448  0.5690 -0.2833
  226MOL0     C30435  10.011   1.072  10.801 -1.2017  0.0649 -1.6881
  226MOL0     C30436  10.008   1.083  10.963 -0.6882  1.0656 -0.1340
  226MOL0     C30437   9.963   1.227  11.001 -0.5625  0.4126  0.2169
  226MOL0     C30438   9.979   1.257  11.151 -0.2593 -0.2611  0.7313
  226MOL0     C30439   9.900   1.179  11.243  0.3897  0.0268  0.1982
  226MOL0     C30440   9.827   1.113  11.309  0.2698  0.5499  0.5582
  226MOL0     C30441   9.691   0.942  10.844  0.3878  0.4253 -1.1249
  226MOL0     C30442   9.615   0.822  10.882 -0.0594 -0.0862  0.2363
  226MOL0     H30443   9.560   0.443  11.189  1.9475  1.0108 -1.2058
  226MOL0     H30444   9.505   0.237  11.300  0.6407  0.5795 -1.3559
  226MOL0     H30445   9.342  -0.126  11.081  0.0629  0.1870 -1.8949
  226MOL0     H30446   9.516  -0.161  11.069 -0.3163 -1.8457  1.3316
  226MOL0     H30447   9.444  -0.337  11.180 -0.4603  1.9861 -1.6266
  226MOL0     H30448   9.532  -0.233  11.290  0.0931  5.5278  0.2076
  226MOL0     H30449   9.316  -0.137  11.387  2.2080 -1.1968  2.4715
  226MOL0     H30450   9.228  -0.252  11.287  0.6414  1.2636 -1.8869
  226MOL0     H30451   9.358  -0.448  11.387  3.6786 -1.1780  2.8328
  226MOL0     H30452   9.425  -0.329  11.497  0.3288  3.7751 -2.3716
  226MOL0     H30453   9.198  -0.260  11.560 -0.3190 -0.0296  1.0094
  226MOL0     H30454   9.141  -0.413  11.482 -0.1020 -3.0274  0.3637
  226MOL0     H30455   9.305  -0.360  11.726  1.8133 -1.5424  1.3280
  226MOL0     H30456   9.157  -0.452  11.717  1.6792  2.4244  1.4103
  226MOL0     H30457   9.415  -0.552  11.599 -0.3618  2.2107 -2.5736
  226MOL0     H30458   9.338  -0.610  11.742  1.4263 -0.3590 -0.2561
  226MOL0     H30459   9.311  -0.748  11.525  2.7568 -0.9629  4.3756
  226MOL0     H30460   9.224  -0.618  11.446  0.8205  1.4717  1.5829
  226MOL0     H30461   9.134  -0.862  11.711  1.8821  1.5824  1.1399
  226MOL0     H30462   8.935  -0.845  11.873  1.0968 -0.2409 -0.6867
  226MOL0     H30463   8.785  -0.758  11.830  0.2738  0.4417  1.3850
  226MOL0     H30464   8.740  -0.997  11.822  1.4187 -1.0793  1.0518
  226MOL0     H30465   8.874  -1.029  11.709  0.3063 -0.6450  1.0463
  226MOL0     H30466   8.770  -0.909  11.526  0.8898 -0.0458 -0.6436
  226MOL0     H30467   8.639  -0.845  11.636  0.2887 -0.5034  0.2226
  226MOL0     H30468   8.535  -1.037  11.535  1.4766  0.4574 -1.0201
  226MOL0     H30469   8.574  -1.066  11.703  1.6812 -1.4000  0.7737
  226MOL0     H30470   8.488  -1.165  11.379  2.6072  1.0843 -0.6207
  226MOL0     H30471   8.281  -1.376  11.268  2.5115  1.6686  3.5778
  226MOL0     H30472   8.370  -1.236  11.212 -2.3799  0.9018  2.1385
  226MOL0     H30473   8.388  -1.395  11.128  1.6971  1.4817 -0.9943
  226MOL0     H30474   8.350  -1.866  11.222  0.3414 -0.6202  1.1816
  226MOL0     H30475   8.356  -2.093  11.145  0.0713  1.2126 -0.4662
  226MOL0     H30476   8.524  -2.237  10.827 -0.5656 -1.8552 -0.7515
  226MOL0     H30477   8.693  -2.204  10.881 -0.1118 -0.4474 -2.3170
  226MOL0     H30478   8.530  -2.457  10.931 -0.6012 -0.6808 -2.5447
  226MOL0     H30479   8.643  -2.431  10.812  2.8709  2.0918 -0.4964
  226MOL0     H30480   8.677  -2.560  11.035 -1.7392  0.7668 -0.0877
  226MOL0     H30481   8.702  -2.398  11.099 -0.7182 -0.5870  0.2161
  226MOL0     H30482   8.880  -2.451  10.876  3.0994  0.9872  0.9500
  226MOL0     H30483   8.918  -2.411  11.038 -1.7014  0.2232  0.2313
  226MOL0     H30484   8.997  -2.653  10.956  2.0821  6.0779 -0.3528
  226MOL0     H30485   8.818  -2.679  10.938  1.5955 -0.0989  0.5215
  226MOL0     H30486   8.930  -2.600  11.219 -1.8931  1.0889 -0.0859
  226MOL0     H30487   8.795  -2.701  11.167 -0.0859 -0.5623 -0.6807
  226MOL0     H30488   9.088  -2.780  11.200 -0.0223 -3.2709 -1.4086
  226MOL0     H30489   8.995  -2.847  11.064  3.3032  1.6556 -1.7199
  226MOL0     H30490   8.929  -2.841  11.362  1.3487  0.6167 -0.9046
  226MOL0     H30491   8.992  -2.981  11.287 -0.3777  0.1852  1.2567
  226MOL0     H30492   8.764  -2.078  11.041  1.4882 -0.4773  3.2482
  226MOL0     H30493   8.786  -1.861  11.129  1.0672 -3.0941 -0.6682
  226MOL0     H30494   8.727  -1.592  11.426 -3.4142 -2.6458 -1.8592
  226MOL0     H30495   8.799  -1.391  11.540 -0.0346  1.6564 -0.6370
  226MOL0     H30496   9.519   0.031  10.917  0.7692 -0.2832 -0.8040
  226MOL0     H30497   9.570   0.244  10.813 -1.5660  1.8093 -0.4810
  226MOL0     H30498   9.842   0.584  10.819 -0.1849 -0.9989  0.3167
  226MOL0     H30499   9.978   0.785  10.764  0.1290 -0.4331 -0.5257
  226MOL0     H30500  10.088   0.998  10.774 -1.3013 -1.1199  0.8653
  226MOL0     H30501  10.038   1.165  10.751 -1.2007  2.0926  1.7363
  226MOL0     H30502  10.106   1.061  11.005 -0.0083  0.2154 -2.0307
  226MOL0     H30503   9.942   1.014  11.016  0.2537  0.3598  0.1417
  226MOL0     H30504   9.855   1.239  10.986 -1.0830 -2.3852  1.1131
  226MOL0     H30505  10.030   1.303  10.960 -0.8144  0.2961 -0.4184
  226MOL0     H30506   9.955   1.362  11.170 -1.5611 -0.3192 -0.4036
  226MOL0     H30507  10.083   1.239  11.180 -0.1814 -2.4178 -0.6262
  226MOL0     H30508   9.766   1.047  11.368 -0.1879 -0.6841 -1.1877
  226MOL0     H30509   9.666   1.046  10.864  0.6918  0.1745  0.7103
  226MOL0     H30510   9.511   0.832  10.913 -0.5293  0.4649 -1.4463
  227MOL0     O30511   5.388   5.467   9.646 -0.2875 -0.3807  0.2922
  227MOL0     C30512   5.324   5.539   9.725 -1.1602 -0.1890 -0.1443
  227MOL0     O30513   5.232   5.629   9.693  0.0803  0.2020  0.3948
  227MOL0     C30514   5.170   5.636   9.572 -0.7004  0.9337  0.0401
  227MOL0     C30515   5.230   5.603   9.445 -0.2019 -1.0401  0.4400
  227MOL0     C30516   5.152   5.607   9.330  1.0410  0.9401  0.0966
  227MOL0     C30517   5.016   5.637   9.335 -0.6405 -0.4828  0.1606
  227MOL0     O30518   4.926   5.642   9.233  0.1584  0.2253 -0.7098
  227MOL0     C30519   4.836   5.758   9.239 -0.3511  0.2737 -0.8377
  227MOL0     C30520   4.801   5.800   9.097  0.8936  0.9858  0.7657
  227MOL0     C30521   4.922   5.850   9.010  0.1457 -0.1225 -0.6760
  227MOL0     C30522   4.892   5.825   8.857 -0.6427 -0.6100  0.1564
  227MOL0     C30523   4.792   5.938   8.793 -0.9227  0.2930 -0.5540
  227MOL0     C30524   4.749   5.908   8.656 -0.1640  0.2533 -0.0265
  227MOL0     C30525   4.674   6.017   8.581 -0.0940  0.3395  0.4821
  227MOL0     C30526   4.646   5.972   8.438  0.3156  0.4905  0.3917
  227MOL0     N30527   4.596   5.835   8.419  0.5368 -0.3461 -0.6299
  227MOL0     C30528   4.655   5.729   8.359  0.6355  0.2848 -0.0506
  227MOL0     C30529   4.561   5.644   8.324 -0.1424 -1.0288 -0.6168
  227MOL0     C30530   4.591   5.514   8.258 -0.0007 -0.3298  0.0914
  227MOL0     C30531   4.475   5.414   8.272 -0.4020  0.7643  0.6690
  227MOL0     C30532   4.522   5.272   8.243 -0.0511 -0.0418  0.8377
  227MOL0     C30533   4.405   5.172   8.246 -0.1777 -0.1877 -0.3721
  227MOL0     O30534   4.440   5.033   8.248 -0.3312 -0.2149  0.1694
  227MOL0     C30535   4.528   4.998   8.348 -0.2582  0.2759 -0.7772
  227MOL0     C30536   4.521   5.048   8.481 -0.0681  0.7727 -0.6349
  227MOL0     C30537   4.587   4.974   8.584  0.1196 -0.1406  0.3547
  227MOL0     C30538   4.537   5.020   8.727  0.6501 -0.4617 -0.4572
  227MOL0     C30539   4.677   4.877   8.546 -0.4847 -0.3489 -0.0572
  227MOL0     C30540   4.742   4.796   8.648 -0.0651 -0.7448  0.5662
  227MOL0     O30541   4.873   4.757   8.623  0.3013  0.4862  0.0128
  227MOL0     C30542   4.932   4.679   8.708 -0.3111 -1.1603  0.3505
  227MOL0     C30543   4.869   4.562   8.761  0.4061 -0.2977  0.1065
  227MOL0     C30544   4.943   4.479   8.852  1.0662 -1.0991 -0.8359
  227MOL0     C30545   5.076   4.506   8.874 -0.6750  0.7379 -0.3142
  227MOL0     O30546   5.153   4.434   8.963 -0.3719 -0.0863 -0.4329
  227MOL0     C30547   5.292   4.431   8.954  0.0298  0.3969 -0.1486
  227MOL0     C30548   5.345   4.327   9.055 -0.1941 -0.4942  0.7894
  227MOL0     C30549   5.313   4.179   8.999  0.7478 -0.4441 -1.3593
  227MOL0     C30550   5.432   4.137   8.909  0.8505 -0.7269 -0.3744
  227MOL0     C30551   5.418   3.998   8.858  1.1700  0.8855 -0.1079
  227MOL0     C30552   5.357   3.884   8.941 -0.5465 -0.2317 -1.1157
  227MOL0     C30553   5.342   3.763   8.860 -0.7340 -0.6356 -0.4369
  227MOL0     C30554   5.472   3.688   8.859 -0.2330 -1.1595  0.4945
  227MOL0    Cl30555   5.468   3.543   8.745 -0.6207  0.0078 -0.4963
  227MOL0     C30556   5.135   4.615   8.815  0.5486  0.5850 -0.4737
  227MOL0     C30557   5.069   4.709   8.742  0.5907 -0.7947  0.5084
  227MOL0     O30558   4.687   4.783   8.758  0.2183 -0.1652 -0.3881
  227MOL0     C30559   4.698   4.842   8.411  0.8097  0.0520  0.2063
  227MOL0     C30560   4.628   4.906   8.310 -0.3952  0.6244 -0.3590
  227MOL0     N30561   4.446   5.700   8.366 -0.6932  0.5271 -0.3226
  227MOL0     N30562   4.456   5.817   8.417 -0.7250 -0.5230 -0.1197
  227MOL0     C30563   4.957   5.666   9.462 -0.4403  0.3595 -0.2304
  227MOL0     C30564   5.036   5.657   9.571  0.2791 -0.2440  0.7995
  227MOL0     C30565   5.369   5.526   9.864  0.1265 -0.4873  0.6715
  227MOL0     C30566   5.334   5.619   9.962  0.3771 -0.6295  0.7537
  227MOL0     C30567   5.382   5.592  10.092  1.5960 -0.4368 -0.8281
  227MOL0     C30568   5.464   5.486  10.117 -0.1547  0.6666 -0.2534
  227MOL0     O30569   5.519   5.467  10.235 -0.1090 -0.1289 -0.2655
  227MOL0     C30570   5.640   5.394  10.246 -0.2412 -0.8163  0.1464
  227MOL0     C30571   5.673   5.406  10.395  0.3931  0.0997  0.1684
  227MOL0     C30572   5.780   5.320  10.448 -0.7723  0.7941  0.0524
  227MOL0     C30573   5.801   5.323  10.595 -0.8073 -0.0167 -0.4425
  227MOL0     C30574   5.901   5.220  10.627 -0.0970 -0.3921 -0.4581
  227MOL0     C30575   5.993   5.137  10.629 -0.5221  0.0133  0.0439
  227MOL0     C30576   5.488   5.393  10.015  0.4454  0.6194 -0.2642
  227MOL0     C30577   5.432   5.412   9.896  0.1654 -0.2365  0.8708
  227MOL0     H30578   5.336   5.583   9.431 -0.4221 -1.2125 -1.2484
  227MOL0     H30579   5.195   5.578   9.235  0.1038  0.8933 -0.3240
  227MOL0     H30580   4.745   5.727   9.292  1.1399 -1.7495  0.6778
  227MOL0     H30581   4.890   5.843   9.281  0.1823 -0.3740 -0.1870
  227MOL0     H30582   4.757   5.712   9.050  2.2566 -0.7257  2.4973
  227MOL0     H30583   4.719   5.871   9.110 -1.7339 -1.2841 -1.9694
  227MOL0     H30584   4.940   5.955   9.035 -0.4596 -0.0927 -0.3374
  227MOL0     H30585   5.008   5.789   9.039  1.6804  1.9872 -0.5200
  227MOL0     H30586   4.984   5.820   8.799 -1.9542  1.4348 -2.3515
  227MOL0     H30587   4.841   5.729   8.848 -0.1771 -0.7597 -1.0399
  227MOL0     H30588   4.705   5.969   8.852  1.8527  2.5986  2.7576
  227MOL0     H30589   4.856   6.027   8.781  0.1341 -0.3623  0.1129
  227MOL0     H30590   4.849   5.890   8.614 -0.0031  0.1522  0.3892
  227MOL0     H30591   4.689   5.817   8.651  1.0743 -0.5404 -1.1661
  227MOL0     H30592   4.579   6.036   8.632 -0.5334 -2.3773  0.8336
  227MOL0     H30593   4.722   6.114   8.577 -3.2173  1.9921 -1.9845
  227MOL0     H30594   4.743   5.983   8.388  0.8655  2.3614  1.7391
  227MOL0     H30595   4.587   6.047   8.385  1.2109 -2.1046 -4.8751
  227MOL0     H30596   4.762   5.725   8.344  0.3797  0.3320 -2.1696
  227MOL0     H30597   4.604   5.536   8.151 -0.6304  0.9338  0.2581
  227MOL0     H30598   4.684   5.468   8.294 -0.0360  0.6361  1.4843
  227MOL0     H30599   4.395   5.451   8.207 -0.0359  0.2388 -0.0957
  227MOL0     H30600   4.440   5.405   8.375  1.3102 -2.0088  1.1369
  227MOL0     H30601   4.608   5.235   8.300  2.3248 -0.3706 -2.5741
  227MOL0     H30602   4.550   5.297   8.140 -2.1765  0.6548  0.3923
  227MOL0     H30603   4.346   5.198   8.158 -0.0277 -1.7677 -0.9649
  227MOL0     H30604   4.342   5.199   8.332 -2.2538 -2.1486 -1.1726
  227MOL0     H30605   4.453   5.127   8.510  0.9236  1.7057 -0.8086
  227MOL0     H30606   4.446   5.077   8.744  0.0503 -1.5350  0.0036
  227MOL0     H30607   4.513   4.930   8.785 -1.3006  1.0302  1.2112
  227MOL0     H30608   4.614   5.085   8.770 -0.0874  1.2134 -1.5771
  227MOL0     H30609   4.763   4.544   8.742  0.7390 -0.7321 -1.5393
  227MOL0     H30610   4.901   4.385   8.886  1.6770 -1.6227 -1.4956
  227MOL0     H30611   5.321   4.406   8.852  0.8406 -0.5623  0.3011
  227MOL0     H30612   5.332   4.528   8.986 -1.9429  2.2054 -2.8174
  227MOL0     H30613   5.454   4.331   9.061 -0.1602  2.6324 -0.0733
  227MOL0     H30614   5.294   4.338   9.151 -1.0887 -1.8613  0.5002
  227MOL0     H30615   5.224   4.171   8.936 -0.3560  0.3486  0.0402
  227MOL0     H30616   5.292   4.118   9.087 -1.8525  0.1202 -1.5085
  227MOL0     H30617   5.429   4.212   8.830 -2.8030  0.0366  0.3192
  227MOL0     H30618   5.523   4.143   8.969  0.3719 -0.6654  0.3505
  227MOL0     H30619   5.517   3.970   8.819  2.1509  0.1441  2.6641
  227MOL0     H30620   5.361   4.004   8.765  3.5409 -0.4003 -1.7735
  227MOL0     H30621   5.411   3.867   9.034 -1.2112 -1.1895 -0.8836
  227MOL0     H30622   5.255   3.916   8.965  1.3826  4.3356  2.3889
  227MOL0     H30623   5.309   3.774   8.757 -0.0885  2.6975 -0.3813
  227MOL0     H30624   5.269   3.702   8.914  1.2490 -1.2005  1.8014
  227MOL0     H30625   5.497   3.656   8.961  2.8035  4.0482  1.7334
  227MOL0     H30626   5.559   3.745   8.828 -0.1079 -0.0236  2.7174
  227MOL0     H30627   5.236   4.644   8.843 -0.1149  0.0874  2.8509
  227MOL0     H30628   5.122   4.785   8.685 -0.2617  2.4303  3.6087
  227MOL0     H30629   4.766   4.759   8.395  2.0319  0.5762  2.2761
  227MOL0     H30630   4.649   4.885   8.206 -0.5087 -1.1985 -0.0607
  227MOL0     H30631   4.850   5.679   9.479 -0.5165 -2.4491  2.0575
  227MOL0     H30632   4.985   5.661   9.667 -1.8082  1.5636 -0.2823
  227MOL0     H30633   5.269   5.704   9.946  0.8037 -0.5434 -0.5933
  227MOL0     H30634   5.353   5.661  10.171 -2.2412 -1.1579 -1.3773
  227MOL0     H30635   5.639   5.288  10.216 -0.6677 -1.8752  3.4403
  227MOL0     H30636   5.725   5.439  10.195  2.4978 -2.2224  3.1339
  227MOL0     H30637   5.587   5.368  10.452  1.3338  0.5327  1.9645
  227MOL0     H30638   5.687   5.509  10.429  1.5795 -0.7458  2.4935
  227MOL0     H30639   5.872   5.357  10.402  0.2814 -1.7319 -0.0068
  227MOL0     H30640   5.766   5.218  10.413  0.6452  0.6146 -0.0567
  227MOL0     H30641   5.714   5.284  10.648 -1.2490  1.3791 -0.0758
  227MOL0     H30642   5.808   5.422  10.642  1.8269 -0.7722  0.9592
  227MOL0     H30643   6.049   5.046  10.636  0.7923  0.7186 -1.0008
  227MOL0     H30644   5.550   5.307  10.039 -0.1322  0.5953  1.2646
  227MOL0     H30645   5.461   5.337   9.823 -0.0424 -1.5564  2.0879
  228MOL0     O30646   8.534   2.412   5.170 -0.5361 -0.0776 -0.5835
  228MOL0     C30647   8.457   2.324   5.213  0.4582  0.3968  0.3397
  228MOL0     O30648   8.323   2.339   5.240  0.7556  0.6140 -0.6784
  228MOL0     C30649   8.250   2.441   5.185 -0.7640  0.1348 -0.4397
  228MOL0     C30650   8.175   2.526   5.276 -0.0366 -0.1489 -0.1433
  228MOL0     C30651   8.096   2.639   5.216 -0.5890  0.3254  0.4439
  228MOL0     C30652   8.110   2.659   5.083 -0.2331  0.0646 -0.5366
  228MOL0     O30653   8.056   2.769   5.028  0.7385 -0.1877 -0.0695
  228MOL0     C30654   8.018   2.885   5.111  0.3218 -0.2892 -0.9001
  228MOL0     C30655   7.996   3.000   5.015 -0.4583  0.8183 -0.4035
  228MOL0     C30656   7.893   3.103   5.053 -1.1525 -0.1825  0.1754
  228MOL0     C30657   7.929   3.152   5.191 -0.3151 -0.7719  0.3527
  228MOL0     C30658   7.840   3.273   5.239 -0.0631 -0.4718  0.1512
  228MOL0     C30659   7.720   3.216   5.323  0.0394 -0.6076  0.2101
  228MOL0     C30660   7.644   3.323   5.387 -0.1961  0.5291 -1.2501
  228MOL0     C30661   7.528   3.272   5.468 -0.0507 -0.3520  0.0380
  228MOL0     N30662   7.562   3.204   5.593 -0.8908 -0.3791 -0.2115
  228MOL0     C30663   7.668   3.235   5.684 -0.1644  0.3111  0.5983
  228MOL0     C30664   7.678   3.122   5.758  0.2695  0.3709 -0.1198
  228MOL0     C30665   7.798   3.110   5.843  0.1598 -0.3779 -1.0924
  228MOL0     C30666   7.779   2.996   5.938 -0.7550  0.2033 -0.7882
  228MOL0     C30667   7.812   2.860   5.876  0.4540 -0.7774 -0.1487
  228MOL0     C30668   7.801   2.746   5.979 -0.0815  0.8027  0.1521
  228MOL0     O30669   7.923   2.724   6.056 -0.3120  0.0567  0.1579
  228MOL0     C30670   7.965   2.597   6.079 -0.3281 -0.1776  0.7130
  228MOL0     C30671   8.101   2.567   6.080 -0.7949 -0.5411  0.8988
  228MOL0     C30672   8.153   2.440   6.092 -0.9021  0.2801 -0.4659
  228MOL0     C30673   8.304   2.436   6.091 -1.2160 -0.3999 -0.3216
  228MOL0     C30674   8.058   2.333   6.109  0.6127  1.1114  0.6277
  228MOL0     C30675   8.103   2.191   6.106  0.9227  1.1942  0.0123
  228MOL0     O30676   8.196   2.156   6.022  0.0829 -0.5361  0.0671
  228MOL0     C30677   8.250   2.035   6.029 -0.1212 -0.3642 -0.1974
  228MOL0     C30678   8.392   2.037   6.022  0.5662  0.2550  0.2469
  228MOL0     C30679   8.466   1.921   6.023  0.0309  0.5269 -0.5005
  228MOL0     C30680   8.395   1.790   6.031 -0.4728 -0.1200 -0.3736
  228MOL0     O30681   8.460   1.674   6.027  0.2032 -0.0776 -0.0397
  228MOL0     C30682   8.555   1.659   6.134  0.5145 -1.3615 -0.0335
  228MOL0     C30683   8.681   1.604   6.073 -0.7864  0.5517 -0.0309
  228MOL0     C30684   8.780   1.573   6.184 -0.3863  0.2642 -0.9774
  228MOL0     C30685   8.909   1.503   6.142  0.4346  0.1593 -0.3606
  228MOL0     C30686   8.903   1.365   6.075 -0.0227  0.5550  0.2944
  228MOL0     C30687   8.846   1.257   6.170  0.0748  0.5370 -0.9896
  228MOL0     C30688   8.835   1.115   6.109  0.4761 -0.0005 -0.3690
  228MOL0     C30689   8.733   1.030   6.185 -0.5841  0.3595 -0.2586
  228MOL0    Cl30690   8.565   1.095   6.186 -0.4865 -0.6778  0.0739
  228MOL0     C30691   8.266   1.792   6.054  0.6481 -0.2825  0.1667
  228MOL0     C30692   8.192   1.910   6.044  0.1532  0.6053  0.0116
  228MOL0     O30693   8.038   2.115   6.181 -0.4385  0.0584 -0.0180
  228MOL0     C30694   7.915   2.357   6.110 -0.1306  0.3521 -0.5928
  228MOL0     C30695   7.878   2.493   6.107  0.6294  0.1462 -0.3580
  228MOL0     N30696   7.582   3.030   5.718  1.0483  0.6003 -0.2526
  228MOL0     N30697   7.516   3.080   5.623  0.7110  0.0386 -0.8090
  228MOL0     C30698   8.179   2.566   4.995 -0.5690 -0.1436 -0.1113
  228MOL0     C30699   8.247   2.457   5.044 -0.4779 -0.4577 -0.2870
  228MOL0     C30700   8.526   2.193   5.252  0.3781 -0.0774  0.8496
  228MOL0     C30701   8.485   2.113   5.355 -0.4511 -0.0256 -0.0597
  228MOL0     C30702   8.562   1.995   5.392 -0.5555  0.4718  0.4072
  228MOL0     C30703   8.694   1.982   5.341 -0.6583  0.3886  0.4712
  228MOL0     O30704   8.781   1.883   5.386 -0.2699 -0.0377 -0.2104
  228MOL0     C30705   8.732   1.747   5.381  0.4087  0.1994  0.3769
  228MOL0     C30706   8.645   1.705   5.262  0.4130 -0.7562 -0.7015
  228MOL0     C30707   8.643   1.547   5.253  0.2532  0.1630 -0.1736
  228MOL0     C30708   8.548   1.505   5.151  0.8519 -0.8610  0.0628
  228MOL0     C30709   8.529   1.363   5.141  0.3980  1.3468 -0.9727
  228MOL0     C30710   8.510   1.238   5.122  0.0443  0.6011 -0.0193
  228MOL0     C30711   8.733   2.050   5.234 -0.5377  0.2259  0.1223
  228MOL0     C30712   8.656   2.154   5.189  0.3661  0.9231  0.4619
  228MOL0     H30713   8.185   2.518   5.383 -0.7031  4.1181  0.4212
  228MOL0     H30714   8.040   2.714   5.270 -1.2773 -0.4495  0.8380
  228MOL0     H30715   7.926   2.865   5.166  1.6629  0.7153  1.9028
  228MOL0     H30716   8.087   2.893   5.196 -2.3582 -4.9055  2.1505
  228MOL0     H30717   8.097   3.041   5.005  0.1721  0.3561  2.9339
  228MOL0     H30718   7.974   2.966   4.913 -1.6206 -0.7847  0.3366
  228MOL0     H30719   7.904   3.180   4.977  0.8414 -1.0094 -0.4563
  228MOL0     H30720   7.791   3.064   5.061 -1.0755 -1.0074 -2.0307
  228MOL0     H30721   7.933   3.072   5.266  2.8911 -1.3180 -0.2489
  228MOL0     H30722   8.032   3.186   5.200 -0.9931  0.8221  3.3819
  228MOL0     H30723   7.904   3.321   5.313  0.7612  2.4047 -2.2318
  228MOL0     H30724   7.827   3.348   5.161  1.4915 -0.4802 -0.1521
  228MOL0     H30725   7.651   3.170   5.251 -0.3120  0.0988  0.0850
  228MOL0     H30726   7.751   3.153   5.406 -1.9382 -0.2361  1.2954
  228MOL0     H30727   7.705   3.381   5.457 -0.7596 -1.2433  0.8380
  228MOL0     H30728   7.603   3.384   5.306 -3.4326  1.4799  0.8853
  228MOL0     H30729   7.467   3.213   5.399  1.2334 -1.9539  0.2198
  228MOL0     H30730   7.467   3.357   5.501  2.1137  0.9584  0.8844
  228MOL0     H30731   7.743   3.312   5.672  0.3376 -0.5418 -2.6749
  228MOL0     H30732   7.894   3.097   5.792  1.6477 -0.9906  1.6887
  228MOL0     H30733   7.795   3.193   5.914  2.6153 -0.9468 -0.2210
  228MOL0     H30734   7.674   2.991   5.967 -0.8996  3.1632 -0.5236
  228MOL0     H30735   7.833   3.013   6.032 -2.2982 -0.6408  0.2838
  228MOL0     H30736   7.908   2.867   5.825 -0.5341  0.4494 -1.9679
  228MOL0     H30737   7.730   2.847   5.805  0.9557  3.6104 -1.8726
  228MOL0     H30738   7.772   2.663   5.915 -3.5611  0.8150  1.5237
  228MOL0     H30739   7.719   2.770   6.048 -0.2186  0.6253  0.0498
  228MOL0     H30740   8.169   2.652   6.075 -0.2064 -0.5808  5.0404
  228MOL0     H30741   8.332   2.537   6.123  0.8590 -0.4179 -1.8858
  228MOL0     H30742   8.339   2.362   6.163 -1.3257 -0.6035 -0.4757
  228MOL0     H30743   8.352   2.412   5.995 -1.3187  0.0624 -0.4967
  228MOL0     H30744   8.440   2.134   6.012  2.1595 -0.1267  3.2489
  228MOL0     H30745   8.574   1.918   6.012  0.2480 -0.2549  1.4544
  228MOL0     H30746   8.577   1.754   6.183 -3.8036  1.8940 -3.5137
  228MOL0     H30747   8.516   1.592   6.211  2.0177  1.1730  3.1621
  228MOL0     H30748   8.656   1.513   6.018 -0.2414 -0.2617  1.0404
  228MOL0     H30749   8.725   1.659   5.990 -3.4149  1.9589 -0.6122
  228MOL0     H30750   8.735   1.507   6.259  2.3787 -2.6718 -1.6749
  228MOL0     H30751   8.811   1.662   6.239 -0.5838  0.5945 -1.3983
  228MOL0     H30752   8.960   1.580   6.084  3.0821  0.9108  2.6803
  228MOL0     H30753   8.967   1.488   6.234  0.5631  2.4405 -0.0157
  228MOL0     H30754   9.006   1.336   6.049 -0.2754 -1.0252  0.9427
  228MOL0     H30755   8.839   1.372   5.986 -0.9236 -0.0831  0.8805
  228MOL0     H30756   8.909   1.246   6.259  3.6630 -0.9109 -3.4594
  228MOL0     H30757   8.748   1.294   6.200  0.4703  3.7916 -3.1551
  228MOL0     H30758   8.934   1.067   6.112 -0.1511 -1.2687  1.3875
  228MOL0     H30759   8.795   1.125   6.007  1.2195 -0.0751 -0.6788
  228MOL0     H30760   8.760   1.026   6.291  1.2939 -2.9316 -0.7494
  228MOL0     H30761   8.737   0.931   6.139  1.0851 -0.0961  0.7835
  228MOL0     H30762   8.229   1.691   6.068  1.5409 -0.7017 -0.3907
  228MOL0     H30763   8.083   1.909   6.049  0.0815 -3.5695  1.0510
  228MOL0     H30764   7.840   2.279   6.100  0.8010 -0.3214 -2.9736
  228MOL0     H30765   7.775   2.524   6.095  0.7747  0.6113 -0.4352
  228MOL0     H30766   8.196   2.587   4.890 -3.0090  1.6770 -0.2325
  228MOL0     H30767   8.301   2.383   4.985 -0.1352 -2.5901  2.4923
  228MOL0     H30768   8.396   2.136   5.413 -0.1499  3.3667 -0.7624
  228MOL0     H30769   8.527   1.926   5.468 -1.6281  0.5050 -0.0473
  228MOL0     H30770   8.817   1.678   5.386 -0.7610 -1.3843 -0.5203
  228MOL0     H30771   8.680   1.728   5.476 -0.0021 -0.0187  0.1119
  228MOL0     H30772   8.702   1.750   5.180 -1.0577  1.5346 -0.5505
  228MOL0     H30773   8.543   1.741   5.275  0.5665 -0.3494 -0.6237
  228MOL0     H30774   8.620   1.502   5.350  1.0358  0.2095  0.0417
  228MOL0     H30775   8.743   1.519   5.218  1.2629  1.2962  1.6551
  228MOL0     H30776   8.579   1.546   5.054 -0.0793 -2.0943 -0.7940
  228MOL0     H30777   8.453   1.556   5.173  1.1652 -1.1441  2.1972
  228MOL0     H30778   8.500   1.132   5.110  3.3083 -0.0090  1.5922
  228MOL0     H30779   8.828   2.024   5.188 -0.4784  0.3205  0.1917
  228MOL0     H30780   8.696   2.213   5.107  2.7268  1.8125  2.1182
  229MOL0     O30781   8.296   1.639   7.258 -0.3436 -0.5504 -0.3592
  229MOL0     C30782   8.228   1.689   7.168 -0.6484 -0.4325 -0.8718
  229MOL0     O30783   8.247   1.656   7.035  0.4074 -0.1064 -0.4542
  229MOL0     C30784   8.360   1.585   6.992 -0.1633 -0.6027 -0.1435
  229MOL0     C30785   8.486   1.618   7.044  0.5000 -0.3549  0.6929
  229MOL0     C30786   8.605   1.551   6.996  0.2216  0.1487 -0.0350
  229MOL0     C30787   8.593   1.437   6.908 -1.1280 -0.5866  0.1616
  229MOL0     O30788   8.707   1.367   6.870  0.1328  0.4127 -0.2697
  229MOL0     C30789   8.803   1.340   6.968 -0.4352  0.8728  0.3348
  229MOL0     C30790   8.942   1.323   6.900 -0.0814  0.0700  0.2960
  229MOL0     C30791   9.049   1.296   7.008  0.0678  0.0524 -1.0163
  229MOL0     C30792   9.178   1.241   6.942  0.2562 -0.3445  0.4990
  229MOL0     C30793   9.304   1.264   7.021  0.2586  0.0161 -0.3526
  229MOL0     C30794   9.430   1.205   6.960  0.5253 -0.0923  0.1244
  229MOL0     C30795   9.559   1.254   7.020 -0.4675  0.4263 -0.3073
  229MOL0     C30796   9.576   1.243   7.175  0.1101 -0.4486  0.3643
  229MOL0     N30797   9.553   1.111   7.238  0.1795 -0.2010 -0.7617
  229MOL0     C30798   9.454   1.075   7.324 -0.7912 -0.3124 -0.0063
  229MOL0     C30799   9.451   0.937   7.329 -0.0595 -0.2077 -0.1413
  229MOL0     C30800   9.367   0.837   7.403 -0.2248 -0.0345 -0.2375
  229MOL0     C30801   9.232   0.814   7.328 -0.2485 -0.1236  0.5435
  229MOL0     C30802   9.123   0.743   7.405  0.1719 -0.3848 -0.2608
  229MOL0     C30803   8.983   0.746   7.345 -0.6440 -0.1984  0.7142
  229MOL0     O30804   8.952   0.634   7.255  0.7986  0.5491  0.0689
  229MOL0     C30805   8.828   0.628   7.204  0.3312 -0.0304 -0.9051
  229MOL0     C30806   8.706   0.678   7.267  0.0950  0.8880  0.4287
  229MOL0     C30807   8.577   0.646   7.218 -0.4379  0.6988  0.1500
  229MOL0     C30808   8.467   0.696   7.315  0.1244 -0.3833 -0.1704
  229MOL0     C30809   8.563   0.568   7.101 -0.0579 -0.0971  0.9409
  229MOL0     C30810   8.430   0.516   7.040 -0.0714 -0.3403 -0.7438
  229MOL0     O30811   8.337   0.476   7.131  0.7163 -0.1792 -0.1834
  229MOL0     C30812   8.205   0.470   7.094 -0.1147 -0.2261 -1.7420
  229MOL0     C30813   8.159   0.396   6.992  0.1651 -0.4825  0.3006
  229MOL0     C30814   8.025   0.378   6.963  1.0429 -0.2054 -0.0256
  229MOL0     C30815   7.931   0.450   7.033  0.3057  1.1738 -0.3777
  229MOL0     O30816   7.799   0.458   6.993  0.4574  1.1326  0.6509
  229MOL0     C30817   7.687   0.539   7.042  0.3310  0.2808 -0.9739
  229MOL0     C30818   7.572   0.536   6.941  0.1020  0.1797  0.5542
  229MOL0     C30819   7.605   0.610   6.807 -0.6022 -0.0664  0.1593
  229MOL0     C30820   7.482   0.611   6.711  0.1671  0.0165 -0.3041
  229MOL0     C30821   7.459   0.485   6.644  0.3745  0.8604 -0.4406
  229MOL0     C30822   7.550   0.481   6.522  0.3234 -0.2913  0.7554
  229MOL0     C30823   7.525   0.351   6.435 -0.7274  0.1373 -0.5627
  229MOL0     C30824   7.660   0.311   6.362  0.2965  0.3012  0.3339
  229MOL0    Cl30825   7.646   0.158   6.281  0.1903 -0.1417 -0.2430
  229MOL0     C30826   7.974   0.521   7.151  0.1887  0.2133 -0.1317
  229MOL0     C30827   8.114   0.536   7.180  0.9207  0.2002 -1.0796
  229MOL0     O30828   8.414   0.517   6.919 -0.1230  0.3440 -0.1577
  229MOL0     C30829   8.676   0.549   7.023 -0.1719 -0.1223 -0.9729
  229MOL0     C30830   8.812   0.574   7.080 -0.2700 -0.0532 -0.1627
  229MOL0     N30831   9.549   0.895   7.247 -0.4219  0.2575 -0.4102
  229MOL0     N30832   9.622   1.002   7.198 -0.5631  0.3869 -0.0440
  229MOL0     C30833   8.469   1.407   6.860  0.8268 -0.1623  0.9602
  229MOL0     C30834   8.357   1.484   6.891 -0.3729 -0.1512  0.0479
  229MOL0     C30835   8.122   1.787   7.194 -0.8548  0.4609 -0.8247
  229MOL0     C30836   8.083   1.891   7.101 -0.2634 -0.1028 -0.2728
  229MOL0     C30837   7.985   1.983   7.134 -0.0667 -0.1669  0.2034
  229MOL0     C30838   7.907   1.995   7.255 -1.0226  0.5880  0.4248
  229MOL0     O30839   7.808   2.087   7.279  0.5925 -0.0959  0.4882
  229MOL0     C30840   7.743   2.154   7.167 -0.8852 -0.6842 -0.0259
  229MOL0     C30841   7.682   2.287   7.216 -0.2386  0.9425  0.2365
  229MOL0     C30842   7.787   2.374   7.274 -0.1346 -0.1616 -0.1308
  229MOL0     C30843   7.738   2.511   7.300 -0.7735 -0.2103 -0.7414
  229MOL0     C30844   7.624   2.512   7.398 -0.3236  0.1225  1.1054
  229MOL0     C30845   7.521   2.511   7.468 -0.3236  1.0116  0.0650
  229MOL0     C30846   7.953   1.888   7.344 -0.8509  0.5690 -0.3319
  229MOL0     C30847   8.054   1.789   7.314 -0.0730  0.0467 -0.2171
  229MOL0     H30848   8.505   1.711   7.097 -2.1345  0.9083 -0.3760
  229MOL0     H30849   8.698   1.590   7.035 -0.4720  4.0686 -1.8047
  229MOL0     H30850   8.808   1.422   7.039  3.2869  1.5579 -0.5242
  229MOL0     H30851   8.774   1.252   7.027  1.5093 -0.0735 -0.0580
  229MOL0     H30852   8.946   1.245   6.824 -1.0317  0.6805 -0.4131
  229MOL0     H30853   8.951   1.417   6.844 -0.6912 -1.3228 -2.2995
  229MOL0     H30854   9.058   1.377   7.081 -2.8391 -2.2413  2.1856
  229MOL0     H30855   9.019   1.210   7.068  0.0781  0.2204 -0.7688
  229MOL0     H30856   9.162   1.140   6.902  0.4004  0.1206 -0.8147
  229MOL0     H30857   9.190   1.294   6.846 -0.1704  0.9745  1.1528
  229MOL0     H30858   9.316   1.373   7.021 -0.3726  0.0963 -1.3441
  229MOL0     H30859   9.305   1.223   7.122 -0.2593  1.1523  0.1430
  229MOL0     H30860   9.423   1.096   6.971 -0.4891  0.0752  1.3182
  229MOL0     H30861   9.433   1.224   6.852 -0.1272 -3.8949 -0.7175
  229MOL0     H30862   9.629   1.183   6.974 -2.0461 -0.7457 -1.0160
  229MOL0     H30863   9.577   1.355   6.983  0.2859  0.4299  0.0538
  229MOL0     H30864   9.500   1.312   7.213 -0.3876 -0.4835 -0.5302
  229MOL0     H30865   9.675   1.279   7.206 -0.3016  1.3204 -0.2505
  229MOL0     H30866   9.380   1.142   7.368 -3.1478 -1.6720 -1.6826
  229MOL0     H30867   9.433   0.752   7.424 -0.4538  0.4942  3.1434
  229MOL0     H30868   9.332   0.883   7.496 -0.1103  0.5544 -0.4750
  229MOL0     H30869   9.251   0.778   7.226 -0.1364  1.0961  0.1116
  229MOL0     H30870   9.184   0.911   7.309 -1.9047 -0.9197  0.5259
  229MOL0     H30871   9.122   0.775   7.510  1.5082  0.3913 -0.4557
  229MOL0     H30872   9.140   0.635   7.417  0.0056 -0.3126  0.7553
  229MOL0     H30873   8.973   0.845   7.300  0.4471 -0.7186 -0.7269
  229MOL0     H30874   8.917   0.732   7.431 -0.4495 -2.9620  0.4903
  229MOL0     H30875   8.714   0.736   7.358  0.2244  0.0933  0.9301
  229MOL0     H30876   8.462   0.805   7.307  2.6074 -0.0835  1.2192
  229MOL0     H30877   8.375   0.637   7.305  0.4129 -1.4407  2.4531
  229MOL0     H30878   8.484   0.687   7.423 -0.0855  1.0168 -0.0064
  229MOL0     H30879   8.235   0.354   6.926 -1.5641 -0.1366 -2.0560
  229MOL0     H30880   8.003   0.331   6.868  0.8308 -0.8030  0.3099
  229MOL0     H30881   7.661   0.510   7.144 -0.0837 -0.3058 -1.2406
  229MOL0     H30882   7.730   0.638   7.056  0.1989  0.2395 -0.2690
  229MOL0     H30883   7.535   0.436   6.917  2.6875 -0.8510  0.5720
  229MOL0     H30884   7.489   0.593   6.984 -0.8175 -0.1876 -0.6619
  229MOL0     H30885   7.688   0.554   6.763 -0.0828  1.2223 -0.5657
  229MOL0     H30886   7.629   0.715   6.829  1.2703 -0.5716  0.6321
  229MOL0     H30887   7.396   0.634   6.775  3.1222 -0.9245  4.5729
  229MOL0     H30888   7.491   0.696   6.642 -1.4967  1.5434  1.2460
  229MOL0     H30889   7.358   0.485   6.600 -0.8468 -1.4970  2.0777
  229MOL0     H30890   7.472   0.394   6.703  0.0293  1.2339  0.2297
  229MOL0     H30891   7.549   0.577   6.470  1.1119  1.1120  3.1812
  229MOL0     H30892   7.654   0.463   6.549  0.3835 -0.0828  0.6646
  229MOL0     H30893   7.449   0.370   6.359 -0.5404  0.1991 -0.7372
  229MOL0     H30894   7.486   0.270   6.497 -4.9636  1.7357 -0.8398
  229MOL0     H30895   7.748   0.313   6.427 -1.0778  3.3947  2.3399
  229MOL0     H30896   7.689   0.388   6.290 -1.4867 -0.1028 -0.8792
  229MOL0     H30897   7.911   0.585   7.211  3.5249  3.0694  0.6450
  229MOL0     H30898   8.159   0.598   7.257 -0.3537 -0.1060 -0.0554
  229MOL0     H30899   8.664   0.489   6.933 -3.8032 -2.5463  0.9188
  229MOL0     H30900   8.899   0.545   7.022 -0.4042 -2.9145  0.9239
  229MOL0     H30901   8.453   1.316   6.802 -3.1292  0.7543  0.3071
  229MOL0     H30902   8.260   1.453   6.854 -1.0675  0.9406  0.8968
  229MOL0     H30903   8.139   1.903   7.009  1.3137 -0.7074  0.5535
  229MOL0     H30904   7.965   2.060   7.059  0.5308  0.0831  0.2965
  229MOL0     H30905   7.817   2.190   7.095 -3.1199  1.2303 -1.4892
  229MOL0     H30906   7.663   2.100   7.116 -0.2496  0.0012 -1.8070
  229MOL0     H30907   7.613   2.260   7.297 -0.5772 -0.4897 -0.4832
  229MOL0     H30908   7.633   2.347   7.140  3.5679 -0.0471 -3.3965
  229MOL0     H30909   7.856   2.391   7.192 -1.5993  2.5878 -0.9002
  229MOL0     H30910   7.846   2.331   7.355  0.7407  2.0296  0.4533
  229MOL0     H30911   7.710   2.572   7.214 -0.9288  0.3755 -0.2771
  229MOL0     H30912   7.815   2.566   7.354 -1.8013  1.1740 -0.6128
  229MOL0     H30913   7.431   2.517   7.525 -0.5111  1.9352 -0.3095
  229MOL0     H30914   7.910   1.891   7.444  2.1365  2.6918  1.0403
  229MOL0     H30915   8.093   1.729   7.396 -0.9395  0.6243  0.6401
  230MOL0     O30916   4.281   9.858   8.829  1.1505  0.1895 -0.5528
  230MOL0     C30917   4.349   9.936   8.764  0.4451  0.0620  1.3056
  230MOL0     O30918   4.316   9.984   8.644 -0.2657  0.1305 -0.0585
  230MOL0     C30919   4.194   9.972   8.575 -0.4568 -0.1049 -0.4417
  230MOL0     C30920   4.152   9.856   8.525 -0.2980  0.8542  0.7762
  230MOL0     C30921   4.020   9.837   8.475  0.1825 -0.1974 -0.5697
  230MOL0     C30922   3.932   9.940   8.475  0.7414  1.2536 -0.0361
  230MOL0     O30923   3.801   9.936   8.431 -0.2891  0.0159 -0.9576
  230MOL0     C30924   3.772   9.822   8.347 -0.1646 -0.3718  0.4526
  230MOL0     C30925   3.626   9.845   8.281 -1.2490  0.1742  0.1683
  230MOL0     C30926   3.596   9.746   8.168 -0.0469 -0.2365 -0.9132
  230MOL0     C30927   3.662   9.605   8.187  0.5755 -0.3810 -0.2020
  230MOL0     C30928   3.653   9.512   8.066 -0.4819  0.4411 -0.1638
  230MOL0     C30929   3.667   9.361   8.102 -0.3669  0.1810  0.5389
  230MOL0     C30930   3.660   9.276   7.971  0.1809  1.2235  0.6148
  230MOL0     C30931   3.536   9.190   7.934 -0.0664  0.6742 -0.4361
  230MOL0     N30932   3.538   9.120   7.801 -0.1565  0.1854  0.4071
  230MOL0     C30933   3.634   9.031   7.755  0.5111  0.6422  0.0569
  230MOL0     C30934   3.581   8.986   7.639 -0.4593  0.2638  0.3815
  230MOL0     C30935   3.640   8.880   7.540  0.0734 -0.5050  0.5771
  230MOL0     C30936   3.622   8.744   7.610  0.8856  0.7953  0.6628
  230MOL0     C30937   3.479   8.707   7.660  0.0908 -0.7414  0.3876
  230MOL0     C30938   3.470   8.549   7.659 -0.1911  0.6291 -0.0536
  230MOL0     O30939   3.567   8.490   7.752  0.5318  0.3118  0.3838
  230MOL0     C30940   3.589   8.349   7.746 -0.9061 -1.0878 -0.9110
  230MOL0     C30941   3.698   8.302   7.827  0.0157 -0.4459  0.2594
  230MOL0     C30942   3.759   8.181   7.801  0.1067 -0.2157  0.6381
  230MOL0     C30943   3.890   8.140   7.855  0.0404 -0.1122 -0.1550
  230MOL0     C30944   3.694   8.098   7.706 -0.3107  0.5106 -0.7449
  230MOL0     C30945   3.741   7.954   7.678  0.7454 -0.4502 -0.7514
  230MOL0     O30946   3.653   7.854   7.691  0.0333 -0.0641  0.8290
  230MOL0     C30947   3.702   7.731   7.718 -1.1361  0.2971 -0.2378
  230MOL0     C30948   3.604   7.630   7.697 -0.1655 -0.5919 -0.2455
  230MOL0     C30949   3.636   7.501   7.722  0.1268  0.3186  0.9676
  230MOL0     C30950   3.759   7.467   7.776  0.1530  0.2498  0.4482
  230MOL0     O30951   3.760   7.337   7.808 -1.4742 -0.3992  0.0982
  230MOL0     C30952   3.869   7.268   7.747 -0.5586 -0.1546 -0.1223
  230MOL0     C30953   3.972   7.242   7.855 -0.1082 -0.3082  0.4287
  230MOL0     C30954   4.053   7.121   7.817 -0.0517 -0.4870 -0.5366
  230MOL0     C30955   4.176   7.078   7.907 -0.1434  0.4414 -0.4833
  230MOL0     C30956   4.300   7.132   7.815 -0.1422 -0.0451 -0.4076
  230MOL0     C30957   4.431   7.153   7.894  0.2343 -0.6423  0.1427
  230MOL0     C30958   4.554   7.189   7.814 -0.3432  0.7954  0.3271
  230MOL0     C30959   4.640   7.293   7.881 -0.5872 -0.1220  0.4997
  230MOL0    Cl30960   4.798   7.303   7.792  0.3123  0.8428  0.4575
  230MOL0     C30961   3.853   7.564   7.799 -0.4054  0.3678  0.2646
  230MOL0     C30962   3.826   7.697   7.771 -0.4539 -0.5569 -0.7746
  230MOL0     O30963   3.862   7.948   7.643  0.5734 -0.2085  0.4060
  230MOL0     C30964   3.569   8.132   7.643  0.5191  0.0898 -0.0748
  230MOL0     C30965   3.531   8.263   7.651 -0.4015  0.1823  0.1165
  230MOL0     N30966   3.476   9.066   7.605 -0.1620  0.1103 -0.5896
  230MOL0     N30967   3.450   9.139   7.706 -0.1018 -0.1405  0.3514
  230MOL0     C30968   3.963  10.062   8.530  0.5741 -0.0086  0.1280
  230MOL0     C30969   4.101  10.084   8.575 -0.1711  0.1471 -0.3696
  230MOL0     C30970   4.463   9.998   8.822  0.4209  0.5746  0.2917
  230MOL0     C30971   4.559  10.066   8.742  0.1196  0.3804  0.1649
  230MOL0     C30972   4.677  10.120   8.799 -0.5424 -0.9172 -0.0305
  230MOL0     C30973   4.697  10.114   8.937 -0.6499  0.2139 -0.1641
  230MOL0     O30974   4.800  10.172   9.000 -0.0314 -0.3679  0.3312
  230MOL0     C30975   4.924  10.101   9.000 -0.7113 -0.1152 -0.0395
  230MOL0     C30976   4.976  10.086   9.143 -0.3636 -0.5785  0.3295
  230MOL0     C30977   4.988  10.223   9.215  0.8470  0.5378  0.2840
  230MOL0     C30978   5.037  10.200   9.362  0.2635  0.4465  0.6017
  230MOL0     C30979   5.011  10.322   9.427  0.4828 -0.8941 -0.9000
  230MOL0     C30980   4.992  10.428   9.485 -0.1545 -0.0741 -0.3210
  230MOL0     C30981   4.610  10.032   9.008  0.9032 -0.6367  0.2818
  230MOL0     C30982   4.497   9.966   8.951 -0.1198 -0.2206 -1.3465
  230MOL0     H30983   4.206   9.762   8.523 -0.6711  0.5753 -2.7257
  230MOL0     H30984   3.992   9.737   8.447  0.3815 -0.4805  0.2186
  230MOL0     H30985   3.847   9.819   8.267  0.3496 -2.5131  0.9432
  230MOL0     H30986   3.775   9.729   8.405  2.5233 -1.7003 -1.5893
  230MOL0     H30987   3.546   9.843   8.356  0.7553 -0.4369  2.3977
  230MOL0     H30988   3.633   9.944   8.234 -0.9450  0.4788  0.8307
  230MOL0     H30989   3.489   9.732   8.146  0.1563 -0.5500 -1.7330
  230MOL0     H30990   3.642   9.791   8.080 -0.7093  0.3433 -0.9707
  230MOL0     H30991   3.767   9.627   8.208  0.5067 -0.8645  0.6836
  230MOL0     H30992   3.621   9.563   8.279 -2.3203 -1.6330 -1.9100
  230MOL0     H30993   3.556   9.522   8.018 -0.2515 -1.3244 -1.0468
  230MOL0     H30994   3.722   9.545   7.988 -0.9823 -0.7755 -1.1438
  230MOL0     H30995   3.769   9.348   8.139  0.2016 -0.5474 -1.1805
  230MOL0     H30996   3.589   9.333   8.173 -0.2673 -1.3022  0.0998
  230MOL0     H30997   3.668   9.345   7.886 -1.9467 -0.4690 -1.0932
  230MOL0     H30998   3.751   9.215   7.967 -0.6668 -0.0412 -1.2088
  230MOL0     H30999   3.444   9.247   7.925  0.4514  1.1003 -4.4666
  230MOL0     H31000   3.512   9.117   8.012 -0.6463  0.2478 -1.0070
  230MOL0     H31001   3.734   9.006   7.791  0.5543 -0.2564 -0.6443
  230MOL0     H31002   3.588   8.879   7.444  0.5532 -0.6249  0.3192
  230MOL0     H31003   3.746   8.903   7.529 -0.5926  1.8051 -2.0763
  230MOL0     H31004   3.682   8.732   7.700 -0.3409 -3.2539  1.1263
  230MOL0     H31005   3.651   8.679   7.527 -0.7579  2.1703 -1.1059
  230MOL0     H31006   3.413   8.749   7.584  0.5890 -0.5078  0.0810
  230MOL0     H31007   3.450   8.755   7.755  0.3583  0.5720 -0.1675
  230MOL0     H31008   3.484   8.513   7.557 -0.7889 -2.2116  0.7703
  230MOL0     H31009   3.369   8.521   7.691 -0.6881  1.0643 -1.2043
  230MOL0     H31010   3.739   8.366   7.905 -0.6017  1.9331 -1.2479
  230MOL0     H31011   3.926   8.223   7.916 -1.2133 -0.4545  1.0977
  230MOL0     H31012   3.881   8.046   7.910 -0.1283 -1.5475 -2.4603
  230MOL0     H31013   3.959   8.112   7.774  1.5119  0.8941  0.7049
  230MOL0     H31014   3.509   7.654   7.652  0.5783  0.6681 -1.2205
  230MOL0     H31015   3.552   7.434   7.705  0.7505 -0.0445 -1.0052
  230MOL0     H31016   3.837   7.169   7.713  1.4698 -0.9042  0.0273
  230MOL0     H31017   3.912   7.314   7.658  0.3301 -4.0871 -1.9324
  230MOL0     H31018   4.036   7.330   7.857  0.5677 -0.6392 -2.4493
  230MOL0     H31019   3.925   7.244   7.954  1.1487 -1.4457  1.0957
  230MOL0     H31020   4.101   7.126   7.719  0.4307 -1.1813 -0.3405
  230MOL0     H31021   3.980   7.039   7.816  2.4888 -2.9021 -0.7755
  230MOL0     H31022   4.177   7.129   8.003  1.1035 -0.4592  0.0029
  230MOL0     H31023   4.182   6.972   7.932 -2.1483  0.9067  2.5566
  230MOL0     H31024   4.273   7.231   7.779 -2.5625  0.5879  2.7412
  230MOL0     H31025   4.311   7.063   7.730 -0.8004 -0.7214  0.0479
  230MOL0     H31026   4.408   7.243   7.952 -1.2974  0.2076 -1.6540
  230MOL0     H31027   4.451   7.068   7.959 -1.1875 -2.7358 -1.9937
  230MOL0     H31028   4.527   7.222   7.713 -2.8893  0.5124  0.8412
  230MOL0     H31029   4.613   7.097   7.808 -1.4743  0.1437 -3.2639
  230MOL0     H31030   4.670   7.259   7.981 -0.0884  0.6845  0.6363
  230MOL0     H31031   4.594   7.392   7.885  0.9855  0.8169 -2.1177
  230MOL0     H31032   3.945   7.536   7.847 -1.1379  2.5621  3.2106
  230MOL0     H31033   3.890   7.774   7.814 -0.8274  0.6427 -2.3213
  230MOL0     H31034   3.512   8.084   7.565 -1.3131  2.0404 -0.0320
  230MOL0     H31035   3.446   8.301   7.596 -0.3861 -2.8548 -2.2795
  230MOL0     H31036   3.884  10.136   8.526 -0.7097 -1.3215  0.3690
  230MOL0     H31037   4.131  10.184   8.603 -0.2525  0.2874 -0.7771
  230MOL0     H31038   4.531  10.092   8.641 -0.5263  2.2369  0.7747
  230MOL0     H31039   4.758  10.161   8.739 -0.2238 -2.4857 -0.7254
  230MOL0     H31040   4.910  10.003   8.954 -1.6016 -0.5796  1.1774
  230MOL0     H31041   4.983  10.162   8.931 -2.7603 -0.7972 -2.5322
  230MOL0     H31042   5.074  10.038   9.139 -0.7666 -1.3468 -0.9833
  230MOL0     H31043   4.917  10.015   9.202 -1.1718  0.1262  0.3862
  230MOL0     H31044   4.892  10.276   9.217 -0.2112 -1.3288  1.4407
  230MOL0     H31045   5.066  10.286   9.172  0.2086  0.6857 -0.6678
  230MOL0     H31046   5.141  10.167   9.372 -0.0951 -0.4226  1.7649
  230MOL0     H31047   4.978  10.123   9.414  0.8225  1.2360  2.5040
  230MOL0     H31048   4.990  10.521   9.538 -1.5414 -1.4538  2.1918
  230MOL0     H31049   4.610  10.027   9.116 -0.3028 -5.1539  0.2936
  230MOL0     H31050   4.428   9.917   9.018  0.3460 -0.3360 -0.9458
  231MOL0     O31051   0.941   9.619   7.690 -0.2600  0.3271 -1.2841
  231MOL0     C31052   0.859   9.640   7.600  1.2410 -0.3803 -0.3102
  231MOL0     O31053   0.884   9.633   7.475 -0.3640 -0.7467 -0.3932
  231MOL0     C31054   0.993   9.559   7.439  0.1285 -0.4539  0.2485
  231MOL0     C31055   1.113   9.623   7.392 -0.5032  0.8322 -0.1726
  231MOL0     C31056   1.215   9.537   7.343 -0.3879  0.3721  0.1156
  231MOL0     C31057   1.202   9.400   7.321 -0.2876 -0.0676  0.2305
  231MOL0     O31058   1.305   9.319   7.266  0.3133  0.1344 -0.3688
  231MOL0     C31059   1.436   9.373   7.243  1.2190 -0.3086 -0.9137
  231MOL0     C31060   1.541   9.273   7.182 -0.7981 -0.1222 -0.6274
  231MOL0     C31061   1.591   9.166   7.280 -0.3912 -0.2633  0.2120
  231MOL0     C31062   1.668   9.227   7.397 -1.1167  0.6884 -0.1731
  231MOL0     C31063   1.804   9.166   7.423  0.0783  0.3020 -0.2430
  231MOL0     C31064   1.804   9.013   7.447 -0.4843 -0.4382 -0.0097
  231MOL0     C31065   1.937   8.946   7.408  0.2301  0.4377 -0.9853
  231MOL0     C31066   2.068   8.993   7.485  0.5921  0.5368  0.7044
  231MOL0     N31067   2.043   9.008   7.624  0.3985  0.7078  0.2245
  231MOL0     C31068   2.037   8.908   7.721 -0.2936  0.5399  0.3907
  231MOL0     C31069   2.027   8.974   7.839  0.1050 -0.0593 -0.2767
  231MOL0     C31070   2.019   8.905   7.976 -0.7804 -0.9257 -0.3479
  231MOL0     C31071   2.126   8.808   8.020  0.1871 -0.2057 -0.2918
  231MOL0     C31072   2.118   8.684   7.937  0.2621  0.0984 -0.6838
  231MOL0     C31073   2.190   8.565   8.025 -0.4591  0.5012  0.4457
  231MOL0     O31074   2.210   8.455   7.942  0.0480 -0.0105  0.1591
  231MOL0     C31075   2.305   8.362   7.979 -1.1708 -0.5036 -1.1752
  231MOL0     C31076   2.362   8.286   7.885  0.0397  0.0004 -0.1761
  231MOL0     C31077   2.447   8.172   7.916  0.5452 -0.5836 -0.7712
  231MOL0     C31078   2.497   8.094   7.793 -0.3669  0.1651 -0.4830
  231MOL0     C31079   2.479   8.140   8.051  0.9398 -0.3915 -0.0924
  231MOL0     C31080   2.563   8.027   8.097 -0.7433 -0.7130 -0.1565
  231MOL0     O31081   2.612   7.935   8.009  0.3927 -0.5388 -0.3263
  231MOL0     C31082   2.670   7.813   8.057 -1.0810 -0.0762 -0.5516
  231MOL0     C31083   2.633   7.742   8.178  0.1531  0.3448 -0.6489
  231MOL0     C31084   2.701   7.624   8.201  0.4787  0.2878 -1.0055
  231MOL0     C31085   2.797   7.567   8.122 -0.2525  1.0725  0.0452
  231MOL0     O31086   2.854   7.447   8.165  0.2495  0.3180 -0.3586
  231MOL0     C31087   2.991   7.426   8.141 -0.4445 -0.2720 -0.0925
  231MOL0     C31088   3.054   7.315   8.222 -0.0990  0.1328  0.3175
  231MOL0     C31089   3.039   7.178   8.171 -0.7541  0.1571 -0.1994
  231MOL0     C31090   3.132   7.070   8.247  0.4467  0.2335  0.5450
  231MOL0     C31091   3.095   6.913   8.227 -0.3027  0.3419  1.0505
  231MOL0     C31092   3.112   6.860   8.080  0.0594  0.3103  0.2074
  231MOL0     C31093   3.030   6.727   8.064 -0.3145  0.3904  0.1052
  231MOL0     C31094   3.058   6.651   7.935 -0.8251 -0.3183 -0.3245
  231MOL0    Cl31095   3.083   6.758   7.797  0.1450  0.3683 -0.4862
  231MOL0     C31096   2.826   7.632   8.006  0.0458 -0.0125 -0.5289
  231MOL0     C31097   2.773   7.754   7.981  0.2666  0.5027 -0.6889
  231MOL0     O31098   2.595   8.038   8.214  0.7351  0.3544 -0.1218
  231MOL0     C31099   2.425   8.228   8.150  0.2201  0.0762 -0.0677
  231MOL0     C31100   2.336   8.324   8.109 -0.9354 -0.6717  0.6159
  231MOL0     N31101   2.019   9.108   7.818 -0.6639  0.9566 -0.3872
  231MOL0     N31102   2.020   9.124   7.691  0.3748 -0.5483 -0.2623
  231MOL0     C31103   1.075   9.347   7.355 -0.2135  0.2663  0.5619
  231MOL0     C31104   0.978   9.423   7.426  0.7657  0.3969  0.1388
  231MOL0     C31105   0.719   9.684   7.633  0.6497  1.4975  0.6597
  231MOL0     C31106   0.694   9.735   7.763 -0.3145  0.1870 -1.1122
  231MOL0     C31107   0.556   9.779   7.791 -0.3664  0.0352  0.9031
  231MOL0     C31108   0.450   9.771   7.690 -0.5972  0.2942  0.0461
  231MOL0     O31109   0.325   9.825   7.704  0.3295 -0.3034  0.6655
  231MOL0     C31110   0.308   9.906   7.828 -0.0840 -0.5221 -0.3133
  231MOL0     C31111   0.178   9.974   7.846 -0.9073 -0.3486 -0.4461
  231MOL0     C31112   0.167  10.083   7.737  0.4606  0.2502 -0.0523
  231MOL0     C31113   0.032  10.156   7.743  0.4149 -0.0824 -0.9534
  231MOL0     C31114  -0.069  10.100   7.643 -0.5425 -0.1870 -0.6771
  231MOL0     C31115  -0.136  10.047   7.554 -0.5488 -0.1848  0.1369
  231MOL0     C31116   0.484   9.726   7.572  0.1807 -0.3134  0.5374
  231MOL0     C31117   0.616   9.681   7.540  0.8482  0.7030  0.4244
  231MOL0     H31118   1.117   9.731   7.384 -1.1179  0.8004 -1.1545
  231MOL0     H31119   1.308   9.582   7.310  0.1105  1.4870  2.8167
  231MOL0     H31120   1.429   9.462   7.180  0.0716  1.6014  1.7092
  231MOL0     H31121   1.469   9.412   7.339  2.6395 -0.1846 -1.4408
  231MOL0     H31122   1.511   9.240   7.082 -1.1310 -3.3611  0.4102
  231MOL0     H31123   1.626   9.337   7.161  0.6520 -0.9002  2.2569
  231MOL0     H31124   1.508   9.109   7.322 -1.5944  0.8775 -0.5384
  231MOL0     H31125   1.639   9.096   7.212 -1.4179  1.3037 -2.2914
  231MOL0     H31126   1.681   9.336   7.389 -0.3941  0.8218  2.0697
  231MOL0     H31127   1.613   9.201   7.488 -1.4769  1.7556 -0.0671
  231MOL0     H31128   1.864   9.191   7.335  0.9858 -1.6878 -0.2415
  231MOL0     H31129   1.841   9.208   7.516 -2.0661 -0.4150  0.9998
  231MOL0     H31130   1.788   8.982   7.551 -1.4841  2.0938  0.6561
  231MOL0     H31131   1.728   8.971   7.381 -1.7156 -1.2147  1.8318
  231MOL0     H31132   1.928   8.837   7.411 -0.1694  0.4026 -2.5089
  231MOL0     H31133   1.953   8.966   7.301 -1.6827  0.6514 -1.2717
  231MOL0     H31134   2.092   9.093   7.447  1.4999  0.1828  0.2954
  231MOL0     H31135   2.147   8.920   7.465 -0.5143 -0.3762 -0.4395
  231MOL0     H31136   2.047   8.803   7.696  1.3002  1.0229 -1.1754
  231MOL0     H31137   2.025   8.985   8.050 -2.4520 -0.8923 -0.2081
  231MOL0     H31138   1.923   8.853   7.967 -0.4188 -1.2306 -3.5360
  231MOL0     H31139   2.115   8.775   8.124  1.7556 -0.8560 -0.3030
  231MOL0     H31140   2.222   8.860   8.020  0.3030 -0.3715  1.2103
  231MOL0     H31141   2.158   8.692   7.835  0.2424 -1.7622 -0.8894
  231MOL0     H31142   2.014   8.653   7.921  0.6350 -1.7670  0.2837
  231MOL0     H31143   2.132   8.550   8.117 -4.0002  0.2334 -1.6199
  231MOL0     H31144   2.289   8.594   8.061 -0.6704  1.2825  0.4302
  231MOL0     H31145   2.349   8.314   7.781  2.9628 -0.7548 -0.8533
  231MOL0     H31146   2.430   8.010   7.773 -0.8287  0.3395  0.2896
  231MOL0     H31147   2.495   8.165   7.710 -2.8445 -0.2252 -0.8241
  231MOL0     H31148   2.598   8.053   7.800 -1.1828 -1.9294 -0.2421
  231MOL0     H31149   2.556   7.772   8.249  0.9419 -3.0116  1.8371
  231MOL0     H31150   2.686   7.569   8.293  2.6982  2.9864  1.1381
  231MOL0     H31151   2.997   7.402   8.035 -3.8793 -1.5898 -0.1335
  231MOL0     H31152   3.044   7.519   8.163 -1.6859  1.0198 -2.1975
  231MOL0     H31153   3.160   7.338   8.215 -0.3518  0.9277 -3.9545
  231MOL0     H31154   3.024   7.319   8.327  2.6389  3.2827  1.1317
  231MOL0     H31155   3.062   7.156   8.066 -1.5048 -3.2191  0.2113
  231MOL0     H31156   2.935   7.152   8.194 -0.4287 -2.4400 -1.3324
  231MOL0     H31157   3.234   7.081   8.210  0.5285 -0.2416  0.6165
  231MOL0     H31158   3.132   7.081   8.356  3.6647  1.1940  0.5352
  231MOL0     H31159   2.994   6.901   8.268  0.2152  0.0856  2.2767
  231MOL0     H31160   3.163   6.851   8.286  0.4468  0.6443  0.5301
  231MOL0     H31161   3.071   6.937   8.014  1.0193  2.6976  2.2664
  231MOL0     H31162   3.220   6.845   8.076  0.4323  1.4440  3.1939
  231MOL0     H31163   2.924   6.752   8.055 -0.3393 -0.2130 -1.3965
  231MOL0     H31164   3.049   6.665   8.152  1.9272 -2.0191 -1.9186
  231MOL0     H31165   2.973   6.584   7.916 -1.0021 -0.9629  2.3658
  231MOL0     H31166   3.147   6.591   7.952 -0.6941  0.2117  0.9846
  231MOL0     H31167   2.903   7.586   7.944  0.8922 -1.2031  1.3106
  231MOL0     H31168   2.802   7.810   7.893  0.2587  2.9611  0.7881
  231MOL0     H31169   2.430   8.228   8.258 -1.2011  3.8920  0.1472
  231MOL0     H31170   2.300   8.381   8.194 -1.5434 -1.2011  0.7157
  231MOL0     H31171   1.039   9.246   7.337 -1.4427  1.0901 -2.0420
  231MOL0     H31172   0.882   9.382   7.456 -0.2256  1.1617 -1.8037
  231MOL0     H31173   0.766   9.747   7.843 -3.9065 -1.2002  2.6508
  231MOL0     H31174   0.537   9.806   7.894  0.4319 -2.7806  1.9007
  231MOL0     H31175   0.316   9.840   7.915 -1.1335 -2.5863 -1.6881
  231MOL0     H31176   0.377   9.991   7.836 -3.0106  1.9389  0.4680
  231MOL0     H31177   0.167  10.016   7.946  2.6827 -0.4628  0.1205
  231MOL0     H31178   0.102   9.897   7.832 -0.6334 -0.8057  0.4976
  231MOL0     H31179   0.194  10.054   7.635  0.0508  2.2200 -0.7668
  231MOL0     H31180   0.240  10.162   7.754 -0.5910  1.1624  0.3224
  231MOL0     H31181   0.050  10.262   7.719  0.0486  0.4308  0.8563
  231MOL0     H31182  -0.011  10.145   7.844  0.4251 -0.2710 -0.9696
  231MOL0     H31183  -0.195  10.002   7.476 -0.7265  0.6297 -0.2179
  231MOL0     H31184   0.435   9.727   7.475  1.8968 -2.2077 -0.4074
  231MOL0     H31185   0.631   9.638   7.442 -3.0609 -1.1108  0.4303
  232MOL0     O31186   1.563   1.575   4.035  0.6551  0.4066  0.5902
  232MOL0     C31187   1.672   1.542   4.097  0.1743  0.0639  0.2072
  232MOL0     O31188   1.689   1.422   4.149 -0.3025  0.3906 -0.0397
  232MOL0     C31189   1.621   1.307   4.116 -0.1677 -0.0509 -0.2608
  232MOL0     C31190   1.593   1.206   4.206  0.5052 -0.5763 -0.2813
  232MOL0     C31191   1.556   1.084   4.158 -0.3222  0.3557  0.3459
  232MOL0     C31192   1.552   1.048   4.020  0.6676 -1.0104 -0.0893
  232MOL0     O31193   1.504   0.923   3.999  0.3385  0.3281 -0.0811
  232MOL0     C31194   1.542   0.854   3.872  0.4384 -0.1366 -0.0464
  232MOL0     C31195   1.524   0.701   3.886 -0.9518 -0.0212 -0.4980
  232MOL0     C31196   1.630   0.648   3.991  0.0782  0.2179 -0.1074
  232MOL0     C31197   1.622   0.515   4.048  0.2325 -0.0602  0.3659
  232MOL0     C31198   1.719   0.488   4.162  0.1426  0.5524 -0.3308
  232MOL0     C31199   1.793   0.357   4.159  0.0621 -0.0220 -0.1033
  232MOL0     C31200   1.731   0.239   4.239 -0.6965 -0.2159  0.0186
  232MOL0     C31201   1.810   0.104   4.237 -0.3016  0.4599  0.5853
  232MOL0     N31202   1.938   0.107   4.310 -0.0626  0.0308 -0.3205
  232MOL0     C31203   1.940   0.090   4.448 -0.7785  0.1372 -0.0580
  232MOL0     C31204   2.073   0.045   4.472  0.5722  0.1260 -0.1107
  232MOL0     C31205   2.125  -0.024   4.600 -0.8293  0.0354  0.0895
  232MOL0     C31206   2.232   0.055   4.674  1.1097  0.0322 -0.1979
  232MOL0     C31207   2.345  -0.030   4.730  0.2057 -0.7896  0.1406
  232MOL0     C31208   2.405   0.045   4.857  0.0005  0.1136  0.0665
  232MOL0     O31209   2.456   0.171   4.812  0.9280  0.1014 -0.1906
  232MOL0     C31210   2.496   0.251   4.922  0.4298  0.0981  0.7077
  232MOL0     C31211   2.405   0.296   5.023 -0.3840  0.2338 -0.0998
  232MOL0     C31212   2.435   0.385   5.124  0.1342  0.9519  0.7161
  232MOL0     C31213   2.332   0.410   5.236  0.4552  0.0211  0.8144
  232MOL0     C31214   2.572   0.423   5.129 -1.3497 -0.3653  0.4820
  232MOL0     C31215   2.630   0.506   5.233  0.0665  0.1647  0.2762
  232MOL0     O31216   2.551   0.601   5.292  0.4012  0.1771  0.4819
  232MOL0     C31217   2.599   0.718   5.313  0.4075 -1.4795 -0.9568
  232MOL0     C31218   2.605   0.757   5.445  0.2229 -0.6391 -0.1587
  232MOL0     C31219   2.637   0.892   5.480 -0.7061 -0.0483  1.3103
  232MOL0     C31220   2.661   0.989   5.380 -0.1937  0.3538 -0.1878
  232MOL0     O31221   2.699   1.120   5.408  0.0233  0.2197  0.2303
  232MOL0     C31222   2.831   1.128   5.459  0.9397 -0.2346 -0.0291
  232MOL0     C31223   2.846   1.278   5.509  0.2942  0.6790  0.4577
  232MOL0     C31224   2.971   1.310   5.595 -0.1962  0.1150  0.6050
  232MOL0     C31225   2.952   1.423   5.688 -0.7326 -1.0728 -0.7240
  232MOL0     C31226   3.085   1.432   5.783  0.0674  0.1796  0.6537
  232MOL0     C31227   3.072   1.560   5.872  0.6945  0.6266 -0.0707
  232MOL0     C31228   3.174   1.574   5.975 -0.6499 -0.2921 -0.0471
  232MOL0     C31229   3.279   1.682   5.928 -0.7830  0.4669  0.7885
  232MOL0    Cl31230   3.366   1.621   5.787  0.1528 -0.2343  0.0881
  232MOL0     C31231   2.653   0.949   5.256 -1.1223 -0.3061 -0.5708
  232MOL0     C31232   2.626   0.815   5.222  0.4907  0.0793 -0.1972
  232MOL0     O31233   2.748   0.485   5.266 -0.4021  0.1524  0.8085
  232MOL0     C31234   2.654   0.377   5.031 -0.7994  0.2928 -1.2396
  232MOL0     C31235   2.627   0.285   4.929 -0.5524 -0.3166  0.0191
  232MOL0     N31236   2.143   0.044   4.352 -0.2893  0.6824 -0.0536
  232MOL0     N31237   2.065   0.073   4.251  0.0639  0.5645  0.5997
  232MOL0     C31238   1.570   1.156   3.927  0.0813 -0.6375  0.1644
  232MOL0     C31239   1.613   1.274   3.978  0.8389  0.2650  0.6794
  232MOL0     C31240   1.781   1.646   4.111 -0.5541  1.3050 -0.3993
  232MOL0     C31241   1.756   1.778   4.141 -0.3170 -0.5452  0.4835
  232MOL0     C31242   1.861   1.862   4.166  0.4319 -0.2366  0.1884
  232MOL0     C31243   1.991   1.826   4.169 -0.2369  0.3326  0.5379
  232MOL0     O31244   2.070   1.929   4.186 -0.4342 -0.5329  0.4979
  232MOL0     C31245   2.215   1.918   4.196 -0.7049 -0.0367 -0.9923
  232MOL0     C31246   2.258   2.057   4.151 -0.7273  0.6196 -1.0600
  232MOL0     C31247   2.404   2.065   4.189 -0.2831  0.8373  0.5769
  232MOL0     C31248   2.431   2.169   4.289 -0.6047 -0.6994  0.5386
  232MOL0     C31249   2.349   2.139   4.411  1.0938 -0.3423  0.2759
  232MOL0     C31250   2.291   2.122   4.513 -0.6727 -0.2009 -0.8148
  232MOL0     C31251   2.032   1.700   4.144 -0.6184  0.0220  0.4856
  232MOL0     C31252   1.923   1.607   4.124 -0.9654  0.1302 -0.4016
  232MOL0     H31253   1.597   1.216   4.314 -0.2515 -1.1924 -0.1899
  232MOL0     H31254   1.536   1.001   4.225 -2.3180  2.0100  1.9424
  232MOL0     H31255   1.476   0.897   3.797 -0.3631 -1.3355 -0.0544
  232MOL0     H31256   1.647   0.878   3.852  0.4904 -0.7186 -0.4872
  232MOL0     H31257   1.422   0.681   3.917 -2.0115  1.1147 -2.9663
  232MOL0     H31258   1.537   0.651   3.790 -0.1163 -3.2036  1.1271
  232MOL0     H31259   1.729   0.651   3.944 -0.9580  0.5261 -2.4021
  232MOL0     H31260   1.634   0.708   4.082 -0.6601 -0.6397  0.5083
  232MOL0     H31261   1.522   0.495   4.089  1.5698  0.2074  4.1428
  232MOL0     H31262   1.631   0.438   3.971 -0.0652 -0.5153  0.7767
  232MOL0     H31263   1.790   0.571   4.154  1.8162 -0.9741 -3.0937
  232MOL0     H31264   1.667   0.498   4.257 -4.6532 -2.6263 -2.2422
  232MOL0     H31265   1.797   0.319   4.056 -0.6498 -2.1914  0.6079
  232MOL0     H31266   1.895   0.374   4.196 -0.4999  1.7287  0.7348
  232MOL0     H31267   1.727   0.273   4.343 -2.4587  0.8947 -0.3767
  232MOL0     H31268   1.627   0.225   4.212 -1.4541  1.2088  1.9373
  232MOL0     H31269   1.842   0.071   4.137  3.3494 -0.2861  1.8599
  232MOL0     H31270   1.736   0.030   4.270 -2.4041  2.9866  1.8575
  232MOL0     H31271   1.861   0.109   4.519  0.5355  1.3997  1.1444
  232MOL0     H31272   2.039  -0.040   4.666  1.9209  0.4402  4.2025
  232MOL0     H31273   2.169  -0.121   4.575  2.0567  1.0371  0.8871
  232MOL0     H31274   2.181   0.096   4.762 -1.2341 -1.2453 -0.8958
  232MOL0     H31275   2.269   0.141   4.618 -1.0349  2.1523  1.4362
  232MOL0     H31276   2.418  -0.035   4.649  0.9996  1.0778  0.6790
  232MOL0     H31277   2.312  -0.127   4.767 -0.8022 -0.3226  0.4923
  232MOL0     H31278   2.483  -0.018   4.902  0.7687 -1.6444 -3.3298
  232MOL0     H31279   2.323   0.057   4.928 -3.9102 -1.1143 -3.7660
  232MOL0     H31280   2.303   0.261   5.014  0.6676 -3.7729  1.5917
  232MOL0     H31281   2.378   0.390   5.334 -0.4889  1.1589  1.5236
  232MOL0     H31282   2.321   0.519   5.237  1.4775  0.2096 -1.4446
  232MOL0     H31283   2.234   0.363   5.231  0.6441 -0.9600  3.9633
  232MOL0     H31284   2.583   0.696   5.532  0.5151  2.1638  2.0446
  232MOL0     H31285   2.662   0.916   5.583  1.8271 -0.7771  0.9359
  232MOL0     H31286   2.842   1.066   5.549 -0.8159 -0.7753 -0.1444
  232MOL0     H31287   2.907   1.092   5.389 -0.5596  1.0803 -2.4576
  232MOL0     H31288   2.842   1.342   5.421 -0.1236  1.8305  1.2964
  232MOL0     H31289   2.763   1.310   5.572  1.1373  0.7425  1.5630
  232MOL0     H31290   3.038   1.351   5.519 -1.6167  0.4833 -0.4888
  232MOL0     H31291   3.014   1.224   5.647  0.6774  2.1620  3.4791
  232MOL0     H31292   2.933   1.519   5.639  0.7631 -2.0151 -3.3924
  232MOL0     H31293   2.860   1.404   5.744 -2.6895 -0.6394 -3.5718
  232MOL0     H31294   3.175   1.431   5.721  0.0294 -0.1013  0.6050
  232MOL0     H31295   3.083   1.344   5.847 -0.8436 -1.0599 -1.0143
  232MOL0     H31296   3.064   1.650   5.811 -0.4278  2.0278  2.0187
  232MOL0     H31297   2.977   1.548   5.924  0.7177 -3.0297 -0.6013
  232MOL0     H31298   3.225   1.480   5.998  0.3392  0.3426  0.4356
  232MOL0     H31299   3.124   1.611   6.065  2.9533  0.4131  1.8471
  232MOL0     H31300   3.350   1.699   6.009 -0.0211  2.9879 -0.3191
  232MOL0     H31301   3.230   1.776   5.901  1.6260  1.5998  0.1766
  232MOL0     H31302   2.677   1.015   5.174  2.4441  0.9567  1.2736
  232MOL0     H31303   2.626   0.786   5.117  3.5422 -2.1992  0.2982
  232MOL0     H31304   2.758   0.404   5.046 -0.9198 -0.0616  0.4559
  232MOL0     H31305   2.691   0.275   4.842 -0.5319 -0.6186  0.0654
  232MOL0     H31306   1.555   1.128   3.823 -1.6940 -2.4244  0.8297
  232MOL0     H31307   1.631   1.355   3.907 -0.0207 -1.7923 -2.0720
  232MOL0     H31308   1.656   1.820   4.150 -0.4226 -1.1450  2.4428
  232MOL0     H31309   1.840   1.969   4.170  1.5968  0.2178 -3.0888
  232MOL0     H31310   2.243   1.895   4.299  0.2639  0.3027 -1.1676
  232MOL0     H31311   2.259   1.834   4.141 -0.4373 -1.9345  1.8966
  232MOL0     H31312   2.196   2.138   4.190  0.6013  1.3377 -0.3741
  232MOL0     H31313   2.262   2.061   4.042  1.3764  0.4197 -1.0237
  232MOL0     H31314   2.455   2.094   4.096  1.8052 -0.1964  1.3252
  232MOL0     H31315   2.454   1.975   4.226 -1.2411  0.1813  0.2877
  232MOL0     H31316   2.407   2.266   4.245 -0.7827 -0.4211  1.2386
  232MOL0     H31317   2.536   2.162   4.318 -0.2258 -2.8888 -1.0219
  232MOL0     H31318   2.225   2.118   4.597 -0.6429 -4.1025 -0.7877
  232MOL0     H31319   2.132   1.662   4.126 -1.6912 -2.1648 -1.2720
  232MOL0     H31320   1.950   1.504   4.104  0.8491  0.8495 -1.9592
  233MOL0     O31321   6.929   8.700   5.941  0.1480 -0.8843 -0.0843
  233MOL0     C31322   6.972   8.587   5.928 -0.0246  0.9755  0.6435
  233MOL0     O31323   6.981   8.487   6.024  0.8901 -0.1282  0.1359
  233MOL0     C31324   6.919   8.481   6.151 -0.6107 -0.6602  0.3366
  233MOL0     C31325   6.820   8.572   6.195 -0.7201  0.1824 -0.8429
  233MOL0     C31326   6.766   8.553   6.328 -0.3548 -0.1193  0.3168
  233MOL0     C31327   6.794   8.439   6.404 -0.1474  0.1623 -0.2878
  233MOL0     O31328   6.726   8.436   6.525 -0.7798  0.4411  0.6188
  233MOL0     C31329   6.757   8.358   6.640 -0.4668  0.8536 -0.5512
  233MOL0     C31330   6.785   8.448   6.762 -0.5146  0.1560  0.1647
  233MOL0     C31331   6.723   8.383   6.889 -0.6728 -0.4618  0.4450
  233MOL0     C31332   6.776   8.454   7.011  0.3012 -0.0793  1.0074
  233MOL0     C31333   6.762   8.382   7.143  0.4869  0.7339  0.9699
  233MOL0     C31334   6.619   8.393   7.205  0.1248  0.4488 -0.3117
  233MOL0     C31335   6.595   8.283   7.308 -0.6891 -0.4131 -0.1100
  233MOL0     C31336   6.577   8.152   7.229 -0.4062  0.6132 -0.7922
  233MOL0     N31337   6.553   8.042   7.319 -0.4797 -0.1157 -0.8886
  233MOL0     C31338   6.614   8.019   7.440 -0.1369  0.4322 -0.1463
  233MOL0     C31339   6.608   7.891   7.480  0.8371  0.7511 -0.2739
  233MOL0     C31340   6.670   7.814   7.596  0.3609  0.9251 -0.0749
  233MOL0     C31341   6.794   7.883   7.633 -0.1707  0.0210 -0.6074
  233MOL0     C31342   6.912   7.843   7.539  0.3385 -0.1847  0.1875
  233MOL0     C31343   7.043   7.880   7.606 -0.5632  0.5620 -0.3448
  233MOL0     O31344   7.163   7.855   7.528 -0.9500 -0.3368  0.9571
  233MOL0     C31345   7.209   7.941   7.433 -1.1012  0.1744  0.0847
  233MOL0     C31346   7.135   8.037   7.365 -0.5338  0.0110  0.3127
  233MOL0     C31347   7.193   8.130   7.273 -0.1970  0.2303 -0.3600
  233MOL0     C31348   7.105   8.234   7.211  0.2974 -0.9249  0.6537
  233MOL0     C31349   7.328   8.107   7.240 -0.0853  0.1466 -0.6632
  233MOL0     C31350   7.393   8.198   7.146 -1.1133 -0.3070 -0.0766
  233MOL0     O31351   7.326   8.252   7.047 -0.5975 -0.2109 -0.4253
  233MOL0     C31352   7.379   8.334   6.950  1.3489 -0.4867  0.1962
  233MOL0     C31353   7.506   8.313   6.884  0.0999 -0.5613 -0.2090
  233MOL0     C31354   7.542   8.390   6.777  0.7026 -1.0485  0.3360
  233MOL0     C31355   7.468   8.500   6.730 -1.6546  0.1217  0.4246
  233MOL0     O31356   7.488   8.590   6.636  1.0867  0.7358  0.0257
  233MOL0     C31357   7.506   8.530   6.509 -1.2074 -0.2957  0.5944
  233MOL0     C31358   7.607   8.617   6.426  0.3344 -0.0111 -0.5646
  233MOL0     C31359   7.740   8.628   6.498  0.1666 -0.9214  1.1019
  233MOL0     C31360   7.846   8.690   6.400  0.3649  0.3677 -0.5079
  233MOL0     C31361   7.983   8.719   6.469 -0.7441 -1.7090  0.8684
  233MOL0     C31362   8.056   8.581   6.471  0.0307  0.4070  0.1993
  233MOL0     C31363   8.131   8.543   6.347 -0.9447  0.5912 -0.6673
  233MOL0     C31364   8.255   8.630   6.309  0.5915 -1.5757 -0.4079
  233MOL0    Cl31365   8.321   8.595   6.153  0.3043  0.2109 -0.1431
  233MOL0     C31366   7.343   8.515   6.787 -0.0633 -0.0719 -0.2089
  233MOL0     C31367   7.296   8.438   6.897  0.5740  0.4209 -0.0058
  233MOL0     O31368   7.514   8.218   7.161 -0.2201 -1.0881 -0.2932
  233MOL0     C31369   7.403   8.003   7.295 -0.8114 -0.9168  0.5580
  233MOL0     C31370   7.345   7.921   7.391  0.6119 -1.2821 -0.1057
  233MOL0     N31371   6.518   7.834   7.381  0.3173  0.1379  0.2571
  233MOL0     N31372   6.498   7.920   7.284  0.3545 -0.8543 -0.2657
  233MOL0     C31373   6.887   8.344   6.361  0.3395  0.5359 -0.1704
  233MOL0     C31374   6.954   8.367   6.234  0.1691 -0.3359  0.3242
  233MOL0     C31375   7.024   8.553   5.789 -0.1478  0.3921  0.4334
  233MOL0     C31376   7.057   8.422   5.756 -1.1100 -0.0425  0.6329
  233MOL0     C31377   7.085   8.389   5.615  0.5538  1.0176  0.1457
  233MOL0     C31378   7.080   8.486   5.517 -0.1451  0.4681 -0.2235
  233MOL0     O31379   7.112   8.445   5.386 -0.1385 -0.2059 -0.3421
  233MOL0     C31380   7.146   8.547   5.291  0.1101  0.2259 -1.0136
  233MOL0     C31381   7.233   8.495   5.179  0.3670 -0.5710  0.5999
  233MOL0     C31382   7.322   8.603   5.117 -0.3637  0.3326  0.1987
  233MOL0     C31383   7.427   8.541   5.017 -0.0808  0.0915 -0.5025
  233MOL0     C31384   7.546   8.621   5.026  0.1809 -0.4828  0.0310
  233MOL0     C31385   7.642   8.690   5.040 -0.7540 -0.6548 -0.3397
  233MOL0     C31386   7.041   8.614   5.550 -0.0934 -0.0450  0.2420
  233MOL0     C31387   7.020   8.649   5.685 -0.1104  0.4938 -0.0106
  233MOL0     H31388   6.792   8.661   6.139 -2.2612  1.0171  1.1326
  233MOL0     H31389   6.687   8.613   6.372 -1.1698 -1.2968  0.4967
  233MOL0     H31390   6.675   8.289   6.660  0.4511  0.6647  3.3431
  233MOL0     H31391   6.846   8.300   6.612  0.8555  2.9910 -1.0730
  233MOL0     H31392   6.893   8.460   6.765  0.3626 -5.1939 -0.2060
  233MOL0     H31393   6.745   8.548   6.743  0.7822  0.1116 -3.6461
  233MOL0     H31394   6.615   8.395   6.873 -0.1494  1.2260 -2.4991
  233MOL0     H31395   6.754   8.279   6.896  1.2847  0.1481  1.8244
  233MOL0     H31396   6.884   8.462   7.000  0.3738  0.0666  1.7597
  233MOL0     H31397   6.725   8.550   7.012 -0.0591 -0.2679  1.1034
  233MOL0     H31398   6.792   8.279   7.124 -0.8306  0.5389 -0.2820
  233MOL0     H31399   6.833   8.431   7.210  0.5920  1.4679  0.3490
  233MOL0     H31400   6.609   8.481   7.270 -0.9237 -1.3947  2.2020
  233MOL0     H31401   6.544   8.394   7.126  1.3415 -1.3393 -1.5701
  233MOL0     H31402   6.685   8.272   7.369  0.2845 -0.1043 -1.4366
  233MOL0     H31403   6.505   8.309   7.365 -0.5041 -0.8527  0.3930
  233MOL0     H31404   6.660   8.136   7.160  2.0856 -0.8636  2.2866
  233MOL0     H31405   6.482   8.160   7.175 -0.9229 -0.3327 -0.0608
  233MOL0     H31406   6.675   8.090   7.496  2.1634 -3.4330  2.8877
  233MOL0     H31407   6.602   7.808   7.681  0.3645 -2.0709 -0.1878
  233MOL0     H31408   6.679   7.707   7.575 -0.7284  0.7681  0.1677
  233MOL0     H31409   6.809   7.859   7.739  0.0067  0.2984 -0.5700
  233MOL0     H31410   6.779   7.991   7.628 -0.3738 -0.0444 -1.6389
  233MOL0     H31411   6.904   7.893   7.442  2.6489  0.8046  0.4475
  233MOL0     H31412   6.915   7.738   7.512 -0.8597 -0.1596 -0.1122
  233MOL0     H31413   7.043   7.816   7.695  1.6419  1.5525  0.4397
  233MOL0     H31414   7.046   7.986   7.635 -2.4372 -0.2947  3.5777
  233MOL0     H31415   7.031   8.036   7.398  0.1091 -1.4822  2.5009
  233MOL0     H31416   7.015   8.253   7.270 -1.9495  1.2839 -3.0776
  233MOL0     H31417   7.155   8.328   7.183 -0.1860 -0.0328  2.6179
  233MOL0     H31418   7.078   8.193   7.113 -3.2850 -2.4399  2.1288
  233MOL0     H31419   7.563   8.227   6.917 -0.3359 -1.1521 -0.9592
  233MOL0     H31420   7.639   8.379   6.729 -0.3553 -1.8577 -1.7515
  233MOL0     H31421   7.551   8.431   6.514  1.9535  0.9487 -0.5912
  233MOL0     H31422   7.419   8.536   6.443  1.1283 -3.0262 -3.1047
  233MOL0     H31423   7.628   8.568   6.330  2.7919 -0.3299  0.0779
  233MOL0     H31424   7.565   8.716   6.403  0.4127  0.5780  1.6136
  233MOL0     H31425   7.784   8.537   6.539 -1.2217 -1.4877  1.4044
  233MOL0     H31426   7.727   8.699   6.581 -0.0543  1.3875 -0.7964
  233MOL0     H31427   7.868   8.639   6.306 -0.0556 -0.9947  0.0986
  233MOL0     H31428   7.809   8.785   6.363 -2.9717  0.0461  1.6019
  233MOL0     H31429   7.958   8.750   6.571 -0.7325  1.0379  0.1181
  233MOL0     H31430   8.035   8.800   6.417  0.1526 -1.4426  2.1332
  233MOL0     H31431   8.132   8.587   6.550  0.1134 -0.4004  0.1800
  233MOL0     H31432   7.992   8.508   6.519  1.0034  0.4058  1.5512
  233MOL0     H31433   8.064   8.531   6.262 -0.7527  1.8986 -1.0230
  233MOL0     H31434   8.170   8.443   6.368  2.6368  1.2355 -3.4285
  233MOL0     H31435   8.319   8.635   6.397  0.4634  0.0804 -0.3754
  233MOL0     H31436   8.222   8.732   6.291  0.6145 -1.3942  0.5627
  233MOL0     H31437   7.272   8.594   6.766 -1.1580  0.7483  5.0686
  233MOL0     H31438   7.196   8.465   6.929 -0.1371 -1.3621 -0.5920
  233MOL0     H31439   7.510   8.000   7.277 -0.5653  1.8391  1.0205
  233MOL0     H31440   7.403   7.855   7.455 -0.0236  0.6594  2.6865
  233MOL0     H31441   6.925   8.260   6.418  3.0016  0.5127 -1.7636
  233MOL0     H31442   7.029   8.296   6.202 -2.6533 -2.5946 -1.8761
  233MOL0     H31443   7.080   8.352   5.836 -0.9329  0.9502  1.4762
  233MOL0     H31444   7.127   8.292   5.592 -3.4470 -0.3185 -2.7018
  233MOL0     H31445   7.058   8.605   5.261  1.0753  2.1039 -0.3378
  233MOL0     H31446   7.215   8.605   5.353  0.3868 -1.2977  0.1718
  233MOL0     H31447   7.185   8.444   5.095  1.9966  2.9521 -2.8005
  233MOL0     H31448   7.300   8.421   5.225  0.5358 -2.3350 -2.2357
  233MOL0     H31449   7.377   8.650   5.198  0.2531 -4.2865  2.8183
  233MOL0     H31450   7.267   8.678   5.060 -0.0801  1.2524  1.1101
  233MOL0     H31451   7.392   8.548   4.914 -1.8361 -1.2011 -0.0399
  233MOL0     H31452   7.435   8.432   5.032  0.2048  0.0785 -0.7549
  233MOL0     H31453   7.726   8.753   5.061  0.0323 -1.0240 -2.2334
  233MOL0     H31454   7.053   8.697   5.482 -0.3138  2.2076  2.7987
  233MOL0     H31455   7.009   8.755   5.707  4.3361  0.7193  2.2017
  234MOL0     O31456   7.055   4.449  10.836 -0.5665  0.1120 -0.8073
  234MOL0     C31457   7.031   4.351  10.763  0.3445  0.4847  0.3859
  234MOL0     O31458   7.079   4.334  10.632 -0.1990  0.3406  0.0817
  234MOL0     C31459   7.150   4.443  10.594  0.0890 -1.1063  0.8784
  234MOL0     C31460   7.287   4.441  10.568  0.0342 -0.0863 -0.3598
  234MOL0     C31461   7.356   4.551  10.511  0.7161 -0.9063  0.6420
  234MOL0     C31462   7.287   4.667  10.478 -0.5170  0.1650 -0.0369
  234MOL0     O31463   7.341   4.787  10.433  0.9662  0.3641  0.1936
  234MOL0     C31464   7.454   4.821  10.512  0.0820 -0.3635 -0.5233
  234MOL0     C31465   7.395   4.916  10.616  0.1300  0.0303 -0.1388
  234MOL0     C31466   7.486   4.949  10.737  0.5096 -0.1001  1.1054
  234MOL0     C31467   7.415   5.059  10.819 -0.4458  0.1340  0.7432
  234MOL0     C31468   7.410   5.199  10.743 -0.1446 -0.4250 -0.4123
  234MOL0     C31469   7.538   5.262  10.705 -0.4533  0.1716 -0.3059
  234MOL0     C31470   7.527   5.391  10.619  0.0448 -0.6239  0.0712
  234MOL0     C31471   7.651   5.418  10.528  0.3888  1.0866 -0.3664
  234MOL0     N31472   7.772   5.399  10.602 -0.3859  0.1974 -0.0233
  234MOL0     C31473   7.849   5.506  10.662  0.1978 -0.3450  0.7331
  234MOL0     C31474   7.950   5.448  10.729  0.8491 -0.5900  0.1497
  234MOL0     C31475   8.044   5.523  10.824 -0.7023 -0.5455 -0.1802
  234MOL0     C31476   7.985   5.585  10.947 -0.3816  0.0924 -0.0862
  234MOL0     C31477   8.096   5.636  11.043 -0.0857 -0.5624  0.0564
  234MOL0     C31478   8.057   5.709  11.177  0.1390 -0.0706  0.0164
  234MOL0     O31479   7.963   5.807  11.150  0.0055 -0.5642  0.8222
  234MOL0     C31480   7.903   5.868  11.255 -0.4836 -0.6142 -0.5127
  234MOL0     C31481   7.815   5.974  11.235 -0.6873  0.2671 -0.1981
  234MOL0     C31482   7.750   6.056  11.332 -0.3812 -0.2828  0.2997
  234MOL0     C31483   7.668   6.172  11.289  0.5423 -0.3532 -0.4884
  234MOL0     C31484   7.765   6.025  11.468  0.1602  1.7195 -0.3784
  234MOL0     C31485   7.696   6.086  11.592  0.3454  0.0267  0.6536
  234MOL0     O31486   7.718   6.018  11.712 -0.0459 -0.7317  0.5022
  234MOL0     C31487   7.660   6.043  11.833  0.0749 -0.6917 -0.3892
  234MOL0     C31488   7.564   6.139  11.866 -0.4515  0.1507  0.2505
  234MOL0     C31489   7.523   6.146  11.992 -0.3312  0.4557 -0.5335
  234MOL0     C31490   7.573   6.074  12.095  0.3446  0.2560  0.2495
  234MOL0     O31491   7.515   6.106  12.216  0.0719 -0.3661 -0.6975
  234MOL0     C31492   7.580   6.065  12.333  0.3155  0.5545  0.1762
  234MOL0     C31493   7.523   6.136  12.452  0.7937  1.4762 -0.7725
  234MOL0     C31494   7.569   6.061  12.573 -0.1671  0.5001 -0.3028
  234MOL0     C31495   7.495   6.117  12.693  0.2565 -0.4207  0.4942
  234MOL0     C31496   7.571   6.233  12.746 -0.3292  0.5635  0.3362
  234MOL0     C31497   7.490   6.324  12.837  0.5493  0.7020 -1.0538
  234MOL0     C31498   7.506   6.280  12.980  0.2209 -0.5298 -0.8675
  234MOL0     C31499   7.411   6.368  13.059  0.2437  0.9061  0.0405
  234MOL0    Cl31500   7.470   6.533  13.063  0.2489 -0.2816  0.6250
  234MOL0     C31501   7.673   5.978  12.067  0.9458  0.4604  0.6302
  234MOL0     C31502   7.705   5.966  11.933  0.0901  0.3467 -0.4095
  234MOL0     O31503   7.627   6.192  11.584  0.0448 -0.0949 -0.2336
  234MOL0     C31504   7.855   5.914  11.494  0.5499 -0.7245 -0.7112
  234MOL0     C31505   7.917   5.838  11.395 -0.6425  1.3015  0.6060
  234MOL0     N31506   7.944   5.318  10.686  0.7100 -0.7161  0.2052
  234MOL0     N31507   7.833   5.283  10.631  0.2974  0.5208 -0.0216
  234MOL0     C31508   7.149   4.666  10.495 -0.5845 -0.2493 -0.4427
  234MOL0     C31509   7.084   4.556  10.554  0.4143 -0.2223 -0.8678
  234MOL0     C31510   6.938   4.259  10.836 -0.5070  0.8942  0.2280
  234MOL0     C31511   6.914   4.135  10.784  0.0278 -0.9727 -0.8067
  234MOL0     C31512   6.818   4.059  10.842  0.2784 -0.9125  0.3123
  234MOL0     C31513   6.749   4.101  10.959 -0.0817  0.7160 -0.0363
  234MOL0     O31514   6.644   4.034  11.017 -0.6069 -0.1842  0.2388
  234MOL0     C31515   6.574   3.944  10.934  0.2735  0.1205  0.4529
  234MOL0     C31516   6.433   3.940  10.995 -0.7927  0.3791  0.4040
  234MOL0     C31517   6.350   4.081  10.984 -1.0078 -0.2712 -0.8192
  234MOL0     C31518   6.386   4.186  11.092 -0.6259  0.1006 -0.8551
  234MOL0     C31519   6.303   4.306  11.065  0.5722 -0.5467  0.0450
  234MOL0     C31520   6.238   4.404  11.048 -0.0026  0.3674 -0.2653
  234MOL0     C31521   6.795   4.210  11.029  0.4861 -0.3708 -0.5003
  234MOL0     C31522   6.889   4.295  10.965 -0.2271  0.3493 -0.1274
  234MOL0     H31523   7.337   4.352  10.604 -0.5406 -0.8714 -1.4254
  234MOL0     H31524   7.464   4.550  10.496  0.8360  3.0609  0.2934
  234MOL0     H31525   7.506   4.747  10.574  1.1685 -1.4442 -2.6064
  234MOL0     H31526   7.531   4.867  10.448 -0.2005  0.9026  0.0325
  234MOL0     H31527   7.364   5.004  10.559 -0.6497  2.2352  3.3575
  234MOL0     H31528   7.298   4.886  10.657  0.0221  0.5692  0.0017
  234MOL0     H31529   7.494   4.861  10.801 -0.2636 -0.6988  0.4051
  234MOL0     H31530   7.589   4.970  10.705 -0.3655  1.0213 -1.2820
  234MOL0     H31531   7.313   5.028  10.845 -0.1035 -3.0617 -1.1563
  234MOL0     H31532   7.479   5.073  10.907  1.7945  1.0540 -0.9346
  234MOL0     H31533   7.347   5.191  10.654  0.6077 -0.0240 -0.9946
  234MOL0     H31534   7.360   5.278  10.799  0.9647  1.8086 -2.4156
  234MOL0     H31535   7.603   5.281  10.791 -2.0884  4.2451  0.2246
  234MOL0     H31536   7.591   5.194  10.637  1.6406  0.3659  1.0585
  234MOL0     H31537   7.438   5.377  10.556 -2.6747 -0.7299  3.6140
  234MOL0     H31538   7.508   5.470  10.691  1.0510 -1.2046  0.9963
  234MOL0     H31539   7.646   5.522  10.493 -0.3959  0.9311 -0.7393
  234MOL0     H31540   7.655   5.355  10.438  0.4765  0.8228 -0.1762
  234MOL0     H31541   7.830   5.613  10.660 -1.5909 -0.6431  0.2009
  234MOL0     H31542   8.132   5.462  10.845  0.9192  1.7493  0.0960
  234MOL0     H31543   8.093   5.599  10.762  0.5017 -2.6906 -2.0375
  234MOL0     H31544   7.944   5.498  11.000 -1.2725 -0.0429 -0.9661
  234MOL0     H31545   7.911   5.659  10.914  0.5965  0.2434 -2.0813
  234MOL0     H31546   8.150   5.713  10.988 -0.3382 -0.7746 -0.4981
  234MOL0     H31547   8.162   5.551  11.058 -0.4253 -0.5602  1.7696
  234MOL0     H31548   8.144   5.764  11.217  0.7352  0.7040 -2.1976
  234MOL0     H31549   8.026   5.638  11.254  0.4217 -0.0600  0.1447
  234MOL0     H31550   7.804   5.979  11.127  1.8821 -4.0335 -0.9134
  234MOL0     H31551   7.569   6.136  11.319 -0.3403  1.1867 -1.4465
  234MOL0     H31552   7.691   6.268  11.337 -0.4975 -0.2984 -0.0822
  234MOL0     H31553   7.666   6.181  11.180 -0.0922  2.4328 -0.3168
  234MOL0     H31554   7.513   6.191  11.786  1.9948 -0.0867 -1.5822
  234MOL0     H31555   7.438   6.210  12.012 -1.2066 -1.5265  2.8123
  234MOL0     H31556   7.557   5.959  12.323  4.0097 -0.3171 -0.7106
  234MOL0     H31557   7.688   6.081  12.333  1.1945 -3.2590 -3.8409
  234MOL0     H31558   7.548   6.243  12.459  1.9347  1.1763  0.1913
  234MOL0     H31559   7.415   6.123  12.448  1.1296 -3.0906  0.2002
  234MOL0     H31560   7.674   6.082  12.597  0.1962 -0.4790 -0.9756
  234MOL0     H31561   7.562   5.952  12.561  1.1105  0.6088 -2.6778
  234MOL0     H31562   7.396   6.145  12.657  0.5915  1.5629  1.0064
  234MOL0     H31563   7.491   6.043  12.774 -3.0408 -0.8969 -0.0029
  234MOL0     H31564   7.611   6.292  12.663 -2.1753  1.1850 -0.1615
  234MOL0     H31565   7.661   6.188  12.788 -1.4824 -3.1350 -0.6981
  234MOL0     H31566   7.525   6.428  12.837  0.9611  0.5738  0.3657
  234MOL0     H31567   7.385   6.328  12.806  0.0419  0.9913  0.5998
  234MOL0     H31568   7.609   6.268  13.014  0.5192  0.9592 -1.1647
  234MOL0     H31569   7.473   6.175  12.976 -0.7044 -0.2717 -0.2536
  234MOL0     H31570   7.395   6.338  13.163  0.8121  0.7353  0.0832
  234MOL0     H31571   7.313   6.369  13.012 -0.3918 -0.3689  1.2504
  234MOL0     H31572   7.729   5.917  12.138 -3.2430 -1.0602  2.9634
  234MOL0     H31573   7.789   5.899  11.918  0.4308 -0.8322  4.9594
  234MOL0     H31574   7.868   5.884  11.597 -0.7750  0.7707 -0.0765
  234MOL0     H31575   7.982   5.755  11.422  1.0193  2.8161  1.4272
  234MOL0     H31576   7.097   4.759  10.470  0.5765  0.0132 -2.0307
  234MOL0     H31577   6.978   4.552  10.580  0.8701 -0.0262  1.1756
  234MOL0     H31578   6.942   4.093  10.688  0.5284 -1.2174 -0.5580
  234MOL0     H31579   6.794   3.964  10.794 -0.2914 -1.4801  1.6492
  234MOL0     H31580   6.573   3.964  10.827  1.1905  0.4313  0.4921
  234MOL0     H31581   6.616   3.844  10.953  1.4086  0.4269 -0.3174
  234MOL0     H31582   6.433   3.921  11.102 -3.3468  3.7591  1.1741
  234MOL0     H31583   6.374   3.857  10.956 -2.2697 -0.0540  3.2858
  234MOL0     H31584   6.244   4.062  10.998 -0.5594 -1.7674  0.9172
  234MOL0     H31585   6.360   4.119  10.882 -1.2832  0.0570 -0.7226
  234MOL0     H31586   6.492   4.208  11.108 -0.4385  0.4186 -2.4033
  234MOL0     H31587   6.341   4.148  11.184 -1.3994  1.6724 -0.5469
  234MOL0     H31588   6.193   4.501  11.052 -1.3105 -0.1921 -0.6296
  234MOL0     H31589   6.742   4.224  11.122 -1.7856 -3.2347 -1.2127
  234MOL0     H31590   6.913   4.379  11.029  2.0289 -1.7931  2.1023
  235MOL0     O31591   8.291   0.940   5.659 -0.5327  0.1847  0.0427
  235MOL0     C31592   8.368   0.989   5.743  0.3264 -0.7768 -0.2174
  235MOL0     O31593   8.431   0.927   5.846  0.8241  0.0132 -0.4246
  235MOL0     C31594   8.379   0.797   5.872 -0.1009 -0.8867  0.8364
  235MOL0     C31595   8.299   0.772   5.980  1.1816 -0.0891 -0.8131
  235MOL0     C31596   8.257   0.633   6.008 -0.5426 -0.3140 -0.0652
  235MOL0     C31597   8.298   0.530   5.928  0.0301  0.2400 -0.4737
  235MOL0     O31598   8.280   0.406   5.975  0.2330  0.3513 -0.1856
  235MOL0     C31599   8.338   0.304   5.903 -0.0282 -0.3137 -0.4033
  235MOL0     C31600   8.317   0.179   5.991 -0.1435  0.2010 -0.5424
  235MOL0     C31601   8.398   0.058   5.959 -0.4041  0.4558 -0.3833
  235MOL0     C31602   8.338   0.001   5.833 -0.0416  0.3286 -0.1237
  235MOL0     C31603   8.345  -0.157   5.826  0.1384 -0.3246  1.1180
  235MOL0     C31604   8.484  -0.222   5.796 -0.2690  0.1244  0.1909
  235MOL0     C31605   8.483  -0.375   5.781  0.9158 -0.7101  0.6172
  235MOL0     C31606   8.627  -0.412   5.748  0.1090  0.2873  1.2969
  235MOL0     N31607   8.728  -0.361   5.846 -0.0184 -0.2647  0.5742
  235MOL0     C31608   8.737  -0.385   5.979  0.1027  0.4765  0.2412
  235MOL0     C31609   8.829  -0.301   6.034  0.6444 -0.0035  0.5716
  235MOL0     C31610   8.878  -0.313   6.175  1.0102  0.0426  0.4567
  235MOL0     C31611   8.952  -0.445   6.205  0.9939  0.4432  0.2205
  235MOL0     C31612   8.971  -0.482   6.358  0.7309 -0.1972  0.0249
  235MOL0     C31613   8.846  -0.555   6.402 -0.3057  0.1800  0.0385
  235MOL0     O31614   8.850  -0.549   6.543  0.4131 -0.2359  0.2690
  235MOL0     C31615   8.744  -0.591   6.614 -0.2663 -0.1186 -0.4478
  235MOL0     C31616   8.636  -0.673   6.568 -0.1922  0.3135  0.5565
  235MOL0     C31617   8.525  -0.706   6.648  0.4642 -0.7525 -0.1804
  235MOL0     C31618   8.404  -0.772   6.583 -0.3415 -0.2708 -0.1644
  235MOL0     C31619   8.541  -0.681   6.793  0.1857  0.6965 -0.3378
  235MOL0     C31620   8.441  -0.724   6.886 -0.1588 -0.0939 -0.0449
  235MOL0     O31621   8.418  -0.650   6.989 -0.4530 -0.1760 -0.8999
  235MOL0     C31622   8.319  -0.670   7.090 -0.1683  0.5669 -0.5976
  235MOL0     C31623   8.309  -0.568   7.194 -0.6630  0.2433 -0.8088
  235MOL0     C31624   8.204  -0.568   7.289  0.1262  0.0856  0.7428
  235MOL0     C31625   8.099  -0.661   7.286 -1.4021 -0.1748  0.4346
  235MOL0     O31626   7.989  -0.658   7.372 -0.3513  0.3932 -0.5197
  235MOL0     C31627   7.962  -0.548   7.461  0.2812  0.1233 -0.9286
  235MOL0     C31628   7.896  -0.436   7.383  0.0878  0.1681  0.3641
  235MOL0     C31629   7.752  -0.472   7.368 -0.0230 -0.7155 -0.5885
  235MOL0     C31630   7.695  -0.385   7.254  0.2505  0.8919 -0.5155
  235MOL0     C31631   7.544  -0.407   7.245  0.8635  0.3324 -0.6251
  235MOL0     C31632   7.469  -0.338   7.133  0.0243 -1.0108  0.7730
  235MOL0     C31633   7.323  -0.379   7.128  0.3145  0.8275  0.5173
  235MOL0     C31634   7.251  -0.301   7.029  0.5519 -0.3157 -0.2620
  235MOL0    Cl31635   7.255  -0.125   7.056 -0.3273 -0.0683  0.1814
  235MOL0     C31636   8.116  -0.764   7.196 -0.1500  0.4011  0.4301
  235MOL0     C31637   8.217  -0.771   7.097  0.1804  0.2006  0.4423
  235MOL0     O31638   8.385  -0.827   6.858  0.9104 -0.1860 -0.1505
  235MOL0     C31639   8.643  -0.599   6.835  0.0781  1.2389 -0.4033
  235MOL0     C31640   8.739  -0.559   6.747  0.2205  0.0628 -0.2348
  235MOL0     N31641   8.866  -0.218   5.928 -0.0928 -0.1776  0.3408
  235MOL0     N31642   8.818  -0.263   5.815 -0.3825 -0.1082  0.0057
  235MOL0     C31643   8.389   0.565   5.819  0.7701  0.2085 -0.5050
  235MOL0     C31644   8.426   0.695   5.789  0.6141 -0.1105 -0.5813
  235MOL0     C31645   8.415   1.129   5.716  0.2113 -0.9867 -0.2669
  235MOL0     C31646   8.388   1.190   5.593 -0.0656 -0.7205  0.2147
  235MOL0     C31647   8.434   1.318   5.566  0.5389 -0.2532 -0.3011
  235MOL0     C31648   8.497   1.396   5.662  0.8791  0.9003 -0.4153
  235MOL0     O31649   8.530   1.527   5.647 -0.3637  0.2495  0.5939
  235MOL0     C31650   8.439   1.618   5.701 -0.2206 -0.1828  0.3324
  235MOL0     C31651   8.354   1.690   5.595 -1.5738  0.1110 -0.2801
  235MOL0     C31652   8.291   1.815   5.660  0.1222  0.7606  0.6323
  235MOL0     C31653   8.215   1.903   5.559 -0.3734  0.1852  0.5851
  235MOL0     C31654   8.109   1.830   5.484  0.5092 -0.5958 -0.2524
  235MOL0     C31655   8.023   1.773   5.417 -0.7429  0.2845 -0.6376
  235MOL0     C31656   8.519   1.332   5.788  0.0831  0.2533 -0.0992
  235MOL0     C31657   8.492   1.195   5.817  1.1815  0.0351 -0.0344
  235MOL0     H31658   8.281   0.853   6.050  1.2760 -1.3196  0.6669
  235MOL0     H31659   8.200   0.602   6.096 -0.0180  3.9424  2.0599
  235MOL0     H31660   8.307   0.288   5.799 -0.7718  2.1461 -0.6159
  235MOL0     H31661   8.446   0.324   5.903  0.0626 -0.7190 -1.4467
  235MOL0     H31662   8.356   0.204   6.091 -0.6431  1.3415 -0.6119
  235MOL0     H31663   8.210   0.164   6.004  0.2511 -2.4269  0.1056
  235MOL0     H31664   8.506   0.075   5.954 -0.2031 -0.4162  0.5162
  235MOL0     H31665   8.390   0.001   6.052 -1.6764 -0.0576 -0.7814
  235MOL0     H31666   8.229   0.015   5.838  0.0045  0.7798 -0.3516
  235MOL0     H31667   8.378   0.045   5.742  1.0615  0.0882  0.2284
  235MOL0     H31668   8.293  -0.196   5.914  1.4983 -3.4786  0.6387
  235MOL0     H31669   8.280  -0.182   5.742 -0.4800  3.7012  0.1818
  235MOL0     H31670   8.527  -0.180   5.705  0.2730 -3.1888 -1.2000
  235MOL0     H31671   8.558  -0.186   5.869  0.3914  2.9491 -1.6885
  235MOL0     H31672   8.454  -0.429   5.872  1.0910 -1.8723  0.0072
  235MOL0     H31673   8.409  -0.408   5.708  0.6671 -0.0818  0.5809
  235MOL0     H31674   8.657  -0.387   5.646 -1.6545 -0.0986  0.6451
  235MOL0     H31675   8.626  -0.522   5.753  2.3106  0.1613  0.2075
  235MOL0     H31676   8.672  -0.459   6.025  0.0301  0.2307 -0.2516
  235MOL0     H31677   8.949  -0.230   6.181  1.0558  0.3808 -2.9573
  235MOL0     H31678   8.788  -0.295   6.234  1.2743  1.2349  0.5212
  235MOL0     H31679   9.054  -0.436   6.166  2.6130  0.4260  3.9813
  235MOL0     H31680   8.898  -0.527   6.157 -0.5468  0.0997  2.3946
  235MOL0     H31681   8.982  -0.385   6.407 -0.8383  0.4155 -0.7782
  235MOL0     H31682   9.058  -0.549   6.355 -0.5275 -1.8571 -0.2670
  235MOL0     H31683   8.867  -0.657   6.370  0.4914  0.3381  0.0380
  235MOL0     H31684   8.751  -0.524   6.357 -1.0970 -1.4948  0.4672
  235MOL0     H31685   8.653  -0.706   6.466 -0.4192 -0.8107  0.8696
  235MOL0     H31686   8.417  -0.783   6.475 -0.7009  3.0124 -0.6569
  235MOL0     H31687   8.400  -0.872   6.627 -2.9866 -0.0580  0.2754
  235MOL0     H31688   8.318  -0.711   6.612  1.2342  0.5321  3.3093
  235MOL0     H31689   8.373  -0.481   7.193 -1.6698  1.0275 -0.0566
  235MOL0     H31690   8.192  -0.485   7.358 -3.2770  1.3167 -1.0515
  235MOL0     H31691   7.901  -0.587   7.543  1.7702  1.2693  0.7753
  235MOL0     H31692   8.046  -0.506   7.517  0.6952  0.4974 -1.8088
  235MOL0     H31693   7.907  -0.339   7.433 -2.7389  0.7782 -0.0699
  235MOL0     H31694   7.961  -0.424   7.296 -0.0353  1.6394  0.4449
  235MOL0     H31695   7.692  -0.448   7.456 -3.4393 -0.3519 -2.8187
  235MOL0     H31696   7.731  -0.576   7.342  0.3240 -0.6744 -1.0480
  235MOL0     H31697   7.710  -0.278   7.271 -0.9317  0.8201  1.2114
  235MOL0     H31698   7.739  -0.415   7.158 -2.4037  1.4506 -2.0319
  235MOL0     H31699   7.499  -0.374   7.339  0.1925 -0.1183 -0.7731
  235MOL0     H31700   7.518  -0.513   7.231 -1.3420  0.5342  1.2053
  235MOL0     H31701   7.482  -0.232   7.157  1.5729 -0.1016 -3.3512
  235MOL0     H31702   7.532  -0.355   7.045 -0.3952  0.6691  0.1101
  235MOL0     H31703   7.279  -0.362   7.226  2.4829  2.4984  1.2947
  235MOL0     H31704   7.323  -0.481   7.089 -2.4070  0.9682  0.0121
  235MOL0     H31705   7.145  -0.329   7.028  0.7284 -1.2196 -3.7538
  235MOL0     H31706   7.297  -0.317   6.931  0.5109 -0.7966 -0.2033
  235MOL0     H31707   8.042  -0.842   7.206 -0.6792  0.9103  0.5395
  235MOL0     H31708   8.219  -0.869   7.049  0.3768 -0.7293  2.2534
  235MOL0     H31709   8.649  -0.585   6.942  0.4385  0.2632 -0.2814
  235MOL0     H31710   8.809  -0.483   6.780 -1.1027  2.3659 -2.3847
  235MOL0     H31711   8.421   0.491   5.747  1.7162  0.3741 -0.2600
  235MOL0     H31712   8.480   0.712   5.697 -0.0582  1.2587 -0.7484
  235MOL0     H31713   8.353   1.136   5.506 -0.8822  0.4007 -0.1879
  235MOL0     H31714   8.416   1.370   5.473  0.9913 -1.0206 -0.8198
  235MOL0     H31715   8.369   1.581   5.776  2.4170 -1.4438  2.3236
  235MOL0     H31716   8.493   1.701   5.749  1.8931 -0.7860 -0.8506
  235MOL0     H31717   8.275   1.619   5.568 -1.0433 -1.0695  1.1113
  235MOL0     H31718   8.414   1.735   5.515  0.0669 -1.2227  0.1558
  235MOL0     H31719   8.365   1.867   5.721  1.5877 -2.4358  1.7821
  235MOL0     H31720   8.208   1.783   5.725 -1.6860 -0.1085 -1.9306
  235MOL0     H31721   8.278   1.953   5.485 -0.3428 -0.6075  0.0635
  235MOL0     H31722   8.169   1.988   5.609 -0.1971  0.5460  0.1435
  235MOL0     H31723   7.963   1.706   5.359  0.3583 -2.0319  0.7459
  235MOL0     H31724   8.572   1.391   5.862 -0.6152  1.6660 -0.6921
  235MOL0     H31725   8.519   1.147   5.910  0.4944 -1.1109 -0.4047
  236MOL0     O31726   4.129   2.198   8.116 -0.1542  0.4000  0.2248
  236MOL0     C31727   4.096   2.182   8.235 -0.3429 -0.4198 -0.0159
  236MOL0     O31728   4.192   2.197   8.347 -0.3221  0.8692  0.3312
  236MOL0     C31729   4.327   2.216   8.316 -0.5247  0.7761  0.1524
  236MOL0     C31730   4.390   2.334   8.343  0.3802 -1.0923  0.3173
  236MOL0     C31731   4.524   2.351   8.322  0.1833 -0.6942 -0.7753
  236MOL0     C31732   4.615   2.249   8.301 -0.4720  0.3733 -0.3011
  236MOL0     O31733   4.747   2.273   8.269  0.6240  1.1271 -0.4144
  236MOL0     C31734   4.803   2.390   8.318 -0.0019 -0.1121 -0.4579
  236MOL0     C31735   4.956   2.365   8.292 -0.0342 -0.6509 -0.9413
  236MOL0     C31736   5.044   2.450   8.388  0.5243  0.2372  1.0554
  236MOL0     C31737   5.193   2.468   8.363  0.8397  0.4983  0.6465
  236MOL0     C31738   5.273   2.556   8.462 -0.0233 -0.0347  0.4908
  236MOL0     C31739   5.407   2.590   8.408  0.1237  1.1738  0.4362
  236MOL0     C31740   5.413   2.718   8.318  0.1557  0.6968 -0.6142
  236MOL0     C31741   5.551   2.729   8.247 -0.7009  0.0125  0.5650
  236MOL0     N31742   5.549   2.807   8.120  0.1846 -1.4528 -0.4744
  236MOL0     C31743   5.517   2.943   8.112 -0.5655 -0.1641 -0.1788
  236MOL0     C31744   5.529   2.973   7.983  0.6490 -0.8333 -0.4689
  236MOL0     C31745   5.505   3.112   7.937  0.2642  0.3836  0.4542
  236MOL0     C31746   5.636   3.177   7.889 -0.2638 -1.6031  0.6322
  236MOL0     C31747   5.631   3.312   7.804 -0.1575  0.4195  0.1206
  236MOL0     C31748   5.564   3.425   7.864  0.1087 -0.2606  0.1995
  236MOL0     O31749   5.608   3.554   7.814  0.1366  0.0656 -0.2545
  236MOL0     C31750   5.533   3.670   7.842  0.4977  1.0453  0.5655
  236MOL0     C31751   5.600   3.792   7.820 -0.7222 -0.2521 -0.1332
  236MOL0     C31752   5.533   3.916   7.827 -0.2268  0.6191  0.6756
  236MOL0     C31753   5.609   4.045   7.783 -0.0190  0.4925 -0.0185
  236MOL0     C31754   5.409   3.920   7.895  0.6318 -0.9196  0.1294
  236MOL0     C31755   5.329   4.037   7.940  0.6761 -0.5988  0.0255
  236MOL0     O31756   5.193   4.016   7.949 -0.9837 -0.9396  0.4125
  236MOL0     C31757   5.111   4.125   7.961 -0.4885  1.0297  0.4686
  236MOL0     C31758   5.082   4.167   8.090 -0.1374  0.3301  0.2263
  236MOL0     C31759   5.002   4.282   8.103 -0.1838  0.9427 -0.8067
  236MOL0     C31760   4.963   4.357   7.993 -0.4157  0.6616 -0.0570
  236MOL0     O31761   4.874   4.463   7.994  1.1930 -0.0229  0.7807
  236MOL0     C31762   4.882   4.564   8.102  1.7971 -0.1666  0.0858
  236MOL0     C31763   4.967   4.682   8.048 -0.7011  0.4093 -1.0204
  236MOL0     C31764   4.901   4.777   7.951 -0.3649  0.2457 -0.6462
  236MOL0     C31765   5.002   4.812   7.837  0.4840  0.1156  0.2368
  236MOL0     C31766   4.961   4.738   7.714 -0.2657 -0.7752  0.6233
  236MOL0     C31767   5.076   4.749   7.608  1.4998 -0.1561  0.0796
  236MOL0     C31768   5.059   4.640   7.498 -0.4330  0.2868 -0.3236
  236MOL0     C31769   5.176   4.654   7.398  0.5225  0.5442 -0.1779
  236MOL0    Cl31770   5.202   4.823   7.331  0.4740  0.1583 -0.0552
  236MOL0     C31771   4.979   4.301   7.863  0.1250  0.1008  0.4667
  236MOL0     C31772   5.062   4.196   7.856  0.3124  0.7239  0.5338
  236MOL0     O31773   5.388   4.145   7.946 -0.4375 -0.3890  0.6583
  236MOL0     C31774   5.349   3.792   7.917  0.0980  0.0113 -1.0408
  236MOL0     C31775   5.406   3.663   7.891  0.7155 -0.8228 -0.3118
  236MOL0     N31776   5.548   2.858   7.910  0.0979 -0.0929  0.0261
  236MOL0     N31777   5.574   2.764   7.992 -0.0336  0.5202  0.7128
  236MOL0     C31778   4.558   2.126   8.271 -0.6033  0.5011 -0.1908
  236MOL0     C31779   4.414   2.102   8.282  0.1438  0.0772  0.5330
  236MOL0     C31780   3.953   2.146   8.263  0.6483 -0.3456 -0.3918
  236MOL0     C31781   3.916   2.115   8.397 -0.7435  0.1022  0.1853
  236MOL0     C31782   3.785   2.085   8.423 -0.2063  0.6398  0.0785
  236MOL0     C31783   3.684   2.080   8.324  0.0555  1.7239 -0.9987
  236MOL0     O31784   3.549   2.074   8.348  1.5399  0.1505  0.1964
  236MOL0     C31785   3.515   2.052   8.484  0.2213  1.0469  0.3585
  236MOL0     C31786   3.514   1.895   8.489  0.1553 -1.2451  0.5303
  236MOL0     C31787   3.467   1.849   8.632  0.4578  0.3766 -0.6717
  236MOL0     C31788   3.475   1.697   8.658 -0.4892 -0.1367 -0.0197
  236MOL0     C31789   3.379   1.623   8.576  1.2819  0.2039  0.0085
  236MOL0     C31790   3.293   1.562   8.518  0.3070 -0.0695 -0.4463
  236MOL0     C31791   3.731   2.079   8.191  0.4829 -0.6910 -0.6124
  236MOL0     C31792   3.861   2.121   8.163 -0.0750  0.6719 -0.3911
  236MOL0     H31793   4.331   2.422   8.367 -2.0492 -2.7042  0.5925
  236MOL0     H31794   4.560   2.453   8.328 -1.6464 -0.1081  2.2860
  236MOL0     H31795   4.770   2.474   8.255 -4.5077 -2.4156 -1.6521
  236MOL0     H31796   4.774   2.407   8.422 -1.1929 -0.7724 -0.6627
  236MOL0     H31797   4.968   2.263   8.331 -3.7374 -0.4913  0.9961
  236MOL0     H31798   4.996   2.364   8.190  1.1652 -0.3083 -0.4960
  236MOL0     H31799   4.996   2.549   8.381 -2.0629 -1.0627 -1.6897
  236MOL0     H31800   5.037   2.404   8.487 -1.0250 -0.4701  0.6407
  236MOL0     H31801   5.231   2.366   8.362  2.5644  1.1068 -1.4191
  236MOL0     H31802   5.206   2.504   8.260  0.8919 -3.7542 -1.0172
  236MOL0     H31803   5.216   2.648   8.469 -1.1375 -0.7784  1.5343
  236MOL0     H31804   5.279   2.519   8.565 -0.1372  1.2929  0.9852
  236MOL0     H31805   5.461   2.604   8.502  2.4574  2.0039 -0.9583
  236MOL0     H31806   5.455   2.508   8.355 -1.7182  0.0355  0.4467
  236MOL0     H31807   5.352   2.704   8.229  0.9823  1.8879 -1.3942
  236MOL0     H31808   5.380   2.811   8.366  0.3816 -0.1573  1.2977
  236MOL0     H31809   5.609   2.640   8.219  1.3803  2.1389 -2.4104
  236MOL0     H31810   5.627   2.780   8.307  0.7163 -1.6613  0.3036
  236MOL0     H31811   5.478   3.006   8.192 -0.5519 -0.3200 -0.0482
  236MOL0     H31812   5.427   3.104   7.861  1.9561  2.2511 -1.6409
  236MOL0     H31813   5.468   3.179   8.015  1.5423 -0.6901  2.0553
  236MOL0     H31814   5.678   3.093   7.834 -6.0428 -2.0778 -4.0795
  236MOL0     H31815   5.704   3.195   7.973 -0.0120  0.8502 -0.0164
  236MOL0     H31816   5.573   3.289   7.714 -5.6874  3.2414  2.5024
  236MOL0     H31817   5.736   3.336   7.783 -0.8815  3.0667 -0.7907
  236MOL0     H31818   5.586   3.432   7.971  1.7655  0.6092 -0.1560
  236MOL0     H31819   5.457   3.407   7.849  0.1068  1.3727 -2.4766
  236MOL0     H31820   5.705   3.797   7.791 -0.6426  2.1966  0.3982
  236MOL0     H31821   5.548   4.116   7.726 -1.1326 -1.1227 -0.9009
  236MOL0     H31822   5.628   4.099   7.877 -3.2372  0.0812  0.9991
  236MOL0     H31823   5.696   4.023   7.721 -0.5734  0.0685 -0.6487
  236MOL0     H31824   5.140   4.127   8.172  1.0548 -0.2283 -0.8423
  236MOL0     H31825   4.990   4.320   8.204  0.0665 -3.4501  1.0945
  236MOL0     H31826   4.785   4.615   8.115  2.6822  1.5804  0.1731
  236MOL0     H31827   4.928   4.521   8.191  0.9107 -1.6341 -0.1325
  236MOL0     H31828   4.997   4.736   8.139 -1.3370  0.5377 -0.8882
  236MOL0     H31829   5.057   4.628   8.016 -0.4020  0.3990 -0.2065
  236MOL0     H31830   4.883   4.873   7.999  4.8242  1.9559 -1.4831
  236MOL0     H31831   4.803   4.742   7.917 -0.0775 -1.3774  0.0838
  236MOL0     H31832   4.979   4.915   7.807 -2.4816 -1.4581 -3.8067
  236MOL0     H31833   5.108   4.797   7.861  0.1561 -3.8404 -0.2070
  236MOL0     H31834   4.868   4.782   7.677  1.0566  1.9731  0.2797
  236MOL0     H31835   4.946   4.631   7.733 -1.3593 -0.2573  3.0772
  236MOL0     H31836   5.072   4.852   7.572 -1.5182  0.2496  1.2159
  236MOL0     H31837   5.174   4.740   7.654  3.0432  6.5355 -0.8991
  236MOL0     H31838   4.970   4.647   7.436  0.8342  2.2838 -2.0454
  236MOL0     H31839   5.058   4.538   7.537 -1.3781  0.7683  0.9889
  236MOL0     H31840   5.158   4.576   7.324  2.1511  1.1414 -1.2495
  236MOL0     H31841   5.266   4.620   7.450  0.9205  0.8405 -0.6738
  236MOL0     H31842   4.951   4.346   7.768  3.1915 -1.2333 -1.2296
  236MOL0     H31843   5.089   4.138   7.768 -0.7971 -0.9522  1.2524
  236MOL0     H31844   5.257   3.784   7.974  0.3463  0.3596 -0.5892
  236MOL0     H31845   5.351   3.580   7.932  0.7305 -0.8245 -0.2948
  236MOL0     H31846   4.625   2.040   8.267 -1.7387 -0.7046  2.9557
  236MOL0     H31847   4.372   2.004   8.264  0.1347 -0.1153  1.5344
  236MOL0     H31848   3.978   2.137   8.483  0.7900 -1.9373 -0.3291
  236MOL0     H31849   3.769   2.062   8.527 -2.1109  2.0811  0.1708
  236MOL0     H31850   3.576   2.111   8.552  1.1305  1.1205 -0.4873
  236MOL0     H31851   3.408   2.074   8.492 -0.9115 -2.3056 -2.8143
  236MOL0     H31852   3.614   1.858   8.464  0.1440 -2.1705  1.7877
  236MOL0     H31853   3.454   1.850   8.409  1.7044 -3.0937  0.3439
  236MOL0     H31854   3.362   1.872   8.653  0.2876  1.2610 -2.3048
  236MOL0     H31855   3.534   1.885   8.710  1.0354  0.5024 -1.2210
  236MOL0     H31856   3.447   1.658   8.756  1.9773  2.9420  2.1104
  236MOL0     H31857   3.573   1.653   8.640 -1.5410 -3.2503  1.1815
  236MOL0     H31858   3.210   1.511   8.472  0.2997 -0.4804  0.0071
  236MOL0     H31859   3.672   2.061   8.102 -0.3639 -0.8134 -0.0302
  236MOL0     H31860   3.894   2.121   8.060  0.2601 -0.4972 -0.3011
  237MOL0     O31861   1.259   4.585  10.464  0.1195  0.2303  0.4634
  237MOL0     C31862   1.244   4.706  10.461  0.0729  0.8803 -0.9504
  237MOL0     O31863   1.291   4.790  10.555 -0.5097 -0.2941  0.0978
  237MOL0     C31864   1.392   4.751  10.640  0.9828 -0.0586 -0.1277
  237MOL0     C31865   1.492   4.838  10.655  0.8786  0.3260  0.2137
  237MOL0     C31866   1.597   4.814  10.750 -0.4370 -0.2522  0.0581
  237MOL0     C31867   1.598   4.702  10.825  0.5675  0.3890 -0.3301
  237MOL0     O31868   1.703   4.673  10.918 -0.1682  0.3826  0.5021
  237MOL0     C31869   1.834   4.661  10.855 -0.7595  0.1828  0.3953
  237MOL0     C31870   1.927   4.595  10.956  0.3625 -0.2174 -0.7763
  237MOL0     C31871   1.883   4.444  10.978  0.4435 -0.6443  0.0051
  237MOL0     C31872   1.979   4.383  11.071  0.0851  0.5287  0.7075
  237MOL0     C31873   2.121   4.352  11.012 -0.1054 -0.0858 -0.0013
  237MOL0     C31874   2.211   4.295  11.134  0.7868  0.5628  0.8020
  237MOL0     C31875   2.187   4.145  11.163  0.8347 -0.2375  1.1281
  237MOL0     C31876   2.300   4.080  11.229  0.8706 -0.9443  0.0005
  237MOL0     N31877   2.270   3.936  11.241  0.1702  0.4309  0.2251
  237MOL0     C31878   2.186   3.866  11.328  0.2567  0.2329  0.1625
  237MOL0     C31879   2.207   3.730  11.297 -1.2571 -0.5491 -0.4969
  237MOL0     C31880   2.153   3.618  11.374  0.4641  0.0331 -0.4502
  237MOL0     C31881   2.212   3.482  11.326  0.7537 -0.4889  0.2434
  237MOL0     C31882   2.134   3.413  11.210 -0.1920  0.0435 -1.0062
  237MOL0     C31883   2.171   3.465  11.071  1.0229 -1.1733 -0.0010
  237MOL0     O31884   2.061   3.551  11.045 -0.2886 -0.3487  0.0275
  237MOL0     C31885   2.082   3.655  10.959 -0.4754 -0.7818 -1.3372
  237MOL0     C31886   2.138   3.647  10.824 -0.7145  0.3283  0.0375
  237MOL0     C31887   2.132   3.748  10.733 -0.0728 -0.0512 -0.0424
  237MOL0     C31888   2.190   3.711  10.594  0.0927  1.0074 -0.3065
  237MOL0     C31889   2.078   3.870  10.770 -0.0869 -0.1487  0.4466
  237MOL0     C31890   2.068   3.987  10.677 -0.4031  1.2963 -0.0228
  237MOL0     O31891   2.052   4.112  10.739 -0.0655 -0.0649  0.1228
  237MOL0     C31892   1.991   4.209  10.658 -0.0602 -1.1593  0.3051
  237MOL0     C31893   2.066   4.320  10.616  0.4224  0.2603  0.8278
  237MOL0     C31894   2.003   4.410  10.534 -0.9580 -0.8768  0.0169
  237MOL0     C31895   1.869   4.396  10.495  0.3187  0.0140 -0.2482
  237MOL0     O31896   1.823   4.490  10.404 -0.3062 -0.9527  1.0703
  237MOL0     C31897   1.726   4.568  10.483  1.0445  0.6673 -0.4051
  237MOL0     C31898   1.595   4.609  10.412 -0.3881 -0.7153  0.5289
  237MOL0     C31899   1.561   4.563  10.273  0.4182  0.0825 -0.3398
  237MOL0     C31900   1.614   4.656  10.168 -0.6543  1.2746  0.4352
  237MOL0     C31901   1.587   4.624  10.019 -0.4027  0.5110 -0.2083
  237MOL0     C31902   1.434   4.601   9.973  0.0855 -0.8302  0.1207
  237MOL0     C31903   1.328   4.707  10.005 -1.0473  0.2266  0.3254
  237MOL0     C31904   1.370   4.846   9.953 -0.1053  0.4408  1.3929
  237MOL0    Cl31905   1.405   4.821   9.773 -0.2092 -0.8023 -0.0504
  237MOL0     C31906   1.798   4.286  10.538 -0.5382  0.2613 -0.1931
  237MOL0     C31907   1.854   4.192  10.626 -1.0098  0.7192  0.2947
  237MOL0     O31908   2.066   3.963  10.558 -0.4378 -0.2529 -0.7471
  237MOL0     C31909   2.034   3.888  10.903  0.7283 -0.1124  0.0268
  237MOL0     C31910   2.023   3.784  10.993 -0.3130 -0.2177 -0.0975
  237MOL0     N31911   2.292   3.728  11.188 -0.0523  0.6129 -0.2371
  237MOL0     N31912   2.320   3.845  11.152  0.3309 -0.0713  0.0193
  237MOL0     C31913   1.486   4.616  10.817  0.0802  0.1575  0.0834
  237MOL0     C31914   1.384   4.645  10.721 -1.2123  1.0792 -0.1698
  237MOL0     C31915   1.149   4.769  10.359 -0.5177 -0.0178 -0.2853
  237MOL0     C31916   1.090   4.677  10.262 -0.0039  0.4261  0.4070
  237MOL0     C31917   1.011   4.734  10.160  1.0079  0.0835 -0.3927
  237MOL0     C31918   0.988   4.877  10.154 -0.1317 -0.1470 -0.3484
  237MOL0     O31919   0.921   4.935  10.047 -0.2776 -0.6078  0.2054
  237MOL0     C31920   0.866   4.863   9.931  0.1945  0.3476  0.2255
  237MOL0     C31921   0.986   4.846   9.839 -0.6788 -0.7416 -0.1986
  237MOL0     C31922   0.940   4.766   9.710  0.3366  0.4420  0.5320
  237MOL0     C31923   1.029   4.806   9.593 -0.5291  0.6739 -0.3601
  237MOL0     C31924   0.988   4.726   9.487 -0.0165 -0.3423 -0.0060
  237MOL0     C31925   0.949   4.640   9.416 -0.2128  0.5729 -1.5151
  237MOL0     C31926   1.042   4.962  10.248  0.2139  0.3526  0.1208
  237MOL0     C31927   1.120   4.902  10.353  1.0288 -1.1632 -0.6655
  237MOL0     H31928   1.513   4.921  10.588 -0.1042 -0.0803 -0.6180
  237MOL0     H31929   1.670   4.893  10.767  0.6115 -1.2433  0.2749
  237MOL0     H31930   1.828   4.604  10.762 -3.4731 -1.1388  1.2577
  237MOL0     H31931   1.863   4.765  10.840 -0.6815  0.2523  0.9964
  237MOL0     H31932   2.030   4.605  10.921  0.1527  0.0314 -1.3320
  237MOL0     H31933   1.918   4.638  11.056 -1.6445  0.0229 -1.0038
  237MOL0     H31934   1.781   4.447  11.019 -0.9273  3.3580 -3.0091
  237MOL0     H31935   1.887   4.392  10.883  3.7970  2.6083 -1.8919
  237MOL0     H31936   1.987   4.448  11.158 -0.7493 -0.9277  1.9166
  237MOL0     H31937   1.940   4.284  11.098 -0.5166  0.4409 -0.4095
  237MOL0     H31938   2.125   4.276  10.933  2.6651  0.5524 -0.5920
  237MOL0     H31939   2.164   4.438  10.960 -6.0362  2.0578 -2.2021
  237MOL0     H31940   2.316   4.299  11.102  0.7071 -0.5149  0.3520
  237MOL0     H31941   2.200   4.351  11.226 -0.4044  0.7177  0.5754
  237MOL0     H31942   2.095   4.121  11.217 -0.4520  2.6510  0.4108
  237MOL0     H31943   2.182   4.097  11.064  0.2637 -1.4999  1.7387
  237MOL0     H31944   2.314   4.105  11.335 -1.3981  1.6401 -0.2044
  237MOL0     H31945   2.392   4.082  11.171  0.1879  1.0035 -1.0904
  237MOL0     H31946   2.140   3.910  11.416 -1.4420 -0.2328 -0.4462
  237MOL0     H31947   2.172   3.633  11.481 -2.4034  1.2477 -0.0251
  237MOL0     H31948   2.047   3.629  11.348  0.2702  0.5004  0.4759
  237MOL0     H31949   2.210   3.424  11.418 -3.6427  0.3116  0.8469
  237MOL0     H31950   2.317   3.496  11.298  0.2019  0.1151 -1.6990
  237MOL0     H31951   2.026   3.401  11.224 -0.2596 -1.1694 -2.3659
  237MOL0     H31952   2.166   3.309  11.223 -1.9232 -0.4911 -0.7593
  237MOL0     H31953   2.167   3.395  10.987  0.6010 -0.3306 -0.7029
  237MOL0     H31954   2.262   3.526  11.065 -2.1378  4.1412 -0.0858
  237MOL0     H31955   2.180   3.549  10.804 -0.8376  0.0532  1.0754
  237MOL0     H31956   2.114   3.694  10.517  1.8737  0.3590 -2.0106
  237MOL0     H31957   2.267   3.779  10.556  1.3933 -0.5388 -0.5239
  237MOL0     H31958   2.248   3.619  10.584 -2.7333 -0.7731 -1.6713
  237MOL0     H31959   2.169   4.318  10.647 -0.1981  0.7846  3.0659
  237MOL0     H31960   2.058   4.499  10.505 -1.2162  0.2615  2.6847
  237MOL0     H31961   1.709   4.527  10.583  3.3317 -1.5544 -0.8289
  237MOL0     H31962   1.790   4.653  10.510  1.1126  0.2393  0.8450
  237MOL0     H31963   1.512   4.571  10.472 -2.2409  0.5302 -1.1067
  237MOL0     H31964   1.600   4.718  10.418  1.1360 -0.6381 -1.1112
  237MOL0     H31965   1.452   4.567  10.270  0.3019 -2.1551 -1.2392
  237MOL0     H31966   1.595   4.459  10.262  2.9611  0.6844  1.0183
  237MOL0     H31967   1.584   4.756  10.199  1.7757  1.7193  1.6154
  237MOL0     H31968   1.720   4.663  10.194 -1.1415  1.1018  2.6119
  237MOL0     H31969   1.631   4.526   9.996  5.6772  2.4789  1.0827
  237MOL0     H31970   1.642   4.690   9.952  0.8289  0.4485  0.6912
  237MOL0     H31971   1.429   4.587   9.865 -0.4059  0.4101 -0.0347
  237MOL0     H31972   1.397   4.502  10.000 -0.1796 -1.0918 -1.1611
  237MOL0     H31973   1.320   4.712  10.114  2.7179 -0.0336  0.7747
  237MOL0     H31974   1.227   4.687   9.969 -1.9656 -0.6369  3.1401
  237MOL0     H31975   1.463   4.892   9.989 -1.0099  3.6751 -0.0893
  237MOL0     H31976   1.290   4.917   9.973  2.1065  3.3903  0.5300
  237MOL0     H31977   1.695   4.278  10.505  0.1492 -0.9518 -2.1942
  237MOL0     H31978   1.796   4.110  10.667  2.9485 -1.7347  1.6241
  237MOL0     H31979   2.002   3.989  10.926  0.5694  0.0008 -0.6577
  237MOL0     H31980   1.980   3.780  11.093  1.2650  4.0212  0.9665
  237MOL0     H31981   1.471   4.522  10.869  0.7743  1.1457  2.2210
  237MOL0     H31982   1.298   4.579  10.708 -0.5042 -0.2365  1.4956
  237MOL0     H31983   1.098   4.569  10.252 -0.2475  0.5964 -2.8475
  237MOL0     H31984   0.974   4.671  10.080 -1.7149  1.1816 -0.1256
  237MOL0     H31985   0.827   4.762   9.946  2.2561 -0.4838  0.2870
  237MOL0     H31986   0.793   4.932   9.887 -0.1845  1.3496  2.3007
  237MOL0     H31987   1.074   4.813   9.894  0.0002  0.3811 -0.5686
  237MOL0     H31988   1.012   4.948   9.810 -0.0610 -0.9239 -0.2990
  237MOL0     H31989   0.838   4.797   9.684  0.4924 -0.1572 -0.8748
  237MOL0     H31990   0.934   4.657   9.722 -0.4631  0.5339  1.0504
  237MOL0     H31991   1.136   4.790   9.611 -0.9716 -1.5939  0.6569
  237MOL0     H31992   1.023   4.913   9.573 -0.3464  1.2391  2.3151
  237MOL0     H31993   0.930   4.548   9.364  4.0895 -1.6409  0.3297
  237MOL0     H31994   1.036   5.070  10.235 -2.0226  0.0955 -1.7773
  237MOL0     H31995   1.157   4.965  10.433  2.1754 -4.1409  1.3263
  238MOL0     O31996   7.266   7.586   5.187 -0.2579 -0.5636  0.4073
  238MOL0     C31997   7.340   7.641   5.272  0.1859  0.3445  0.6592
  238MOL0     O31998   7.325   7.751   5.343  0.2134 -0.8531 -0.5340
  238MOL0     C31999   7.227   7.840   5.312  0.3953 -0.1586 -0.8852
  238MOL0     C32000   7.206   7.894   5.189  0.3722  0.2915  0.4377
  238MOL0     C32001   7.131   8.020   5.183  0.3351  0.5246  0.2914
  238MOL0     C32002   7.077   8.091   5.288  0.2131  0.5570  0.0111
  238MOL0     O32003   7.009   8.208   5.273  1.0272 -0.4258 -1.5759
  238MOL0     C32004   6.874   8.202   5.337 -0.1912 -0.0678  0.6074
  238MOL0     C32005   6.760   8.160   5.236 -0.3253 -0.1047 -0.2568
  238MOL0     C32006   6.651   8.106   5.317 -0.9613  0.2065 -0.5079
  238MOL0     C32007   6.519   8.116   5.244 -0.5142 -0.1791 -0.9582
  238MOL0     C32008   6.407   8.040   5.310  0.1490 -0.6258 -1.6799
  238MOL0     C32009   6.297   7.975   5.216 -0.4021  0.8963 -0.3100
  238MOL0     C32010   6.243   8.086   5.124  0.7833 -0.4111 -0.4602
  238MOL0     C32011   6.154   8.016   5.014 -0.4532  0.4678  0.2365
  238MOL0     N32012   6.032   7.961   5.069  0.1001 -0.2320 -0.4763
  238MOL0     C32013   5.953   8.002   5.179 -0.0773  0.4400 -0.0314
  238MOL0     C32014   5.860   7.897   5.201 -0.5112  0.0507 -0.1371
  238MOL0     C32015   5.771   7.893   5.321 -0.4264  0.0895 -0.1878
  238MOL0     C32016   5.659   7.995   5.300 -0.2053  0.4277 -0.1102
  238MOL0     C32017   5.560   7.943   5.197  0.7121 -0.3686 -0.5431
  238MOL0     C32018   5.456   8.040   5.157  0.3729  0.0007 -0.2090
  238MOL0     O32019   5.368   7.990   5.048 -0.0708  0.0290 -0.4851
  238MOL0     C32020   5.239   8.028   5.030 -0.2844  0.8150 -0.4265
  238MOL0     C32021   5.157   8.088   5.130  0.1810 -0.6410  0.0694
  238MOL0     C32022   5.019   8.112   5.110  0.5209 -0.0838  0.0280
  238MOL0     C32023   4.945   8.176   5.224  0.2541 -0.8237 -0.0452
  238MOL0     C32024   4.962   8.084   4.990 -0.2652  0.2283 -0.2615
  238MOL0     C32025   4.826   8.127   4.947  0.4391 -0.4574 -0.0107
  238MOL0     O32026   4.779   8.080   4.825  1.5874  0.5290 -0.6276
  238MOL0     C32027   4.648   8.084   4.783 -0.1137 -0.2187 -0.1809
  238MOL0     C32028   4.532   8.120   4.857 -1.0483  1.0452 -1.0313
  238MOL0     C32029   4.409   8.111   4.790  0.8742 -0.8140  0.6483
  238MOL0     C32030   4.392   8.067   4.656 -0.1396 -0.2971 -0.0146
  238MOL0     O32031   4.272   8.086   4.590  0.1742  0.4143  0.1822
  238MOL0     C32032   4.153   8.054   4.667 -0.5808 -0.2947  0.4482
  238MOL0     C32033   4.039   8.041   4.567  0.1116 -0.1056  0.0806
  238MOL0     C32034   3.906   8.057   4.648  0.6041 -0.2302 -0.0440
  238MOL0     C32035   3.861   7.930   4.712 -0.4110  0.1437 -0.2030
  238MOL0     C32036   3.748   7.929   4.820  0.1185  0.0941  0.2352
  238MOL0     C32037   3.605   7.986   4.776  0.3705  0.4750  0.9477
  238MOL0     C32038   3.607   8.136   4.814  0.2378  0.2386 -0.5108
  238MOL0     C32039   3.514   8.210   4.711  0.2107 -0.5370  0.6057
  238MOL0    Cl32040   3.354   8.142   4.725 -0.3481  0.7559 -0.0604
  238MOL0     C32041   4.506   8.036   4.585  0.8023  0.9867 -0.3151
  238MOL0     C32042   4.628   8.043   4.649  0.5350  0.4441  0.3649
  238MOL0     O32043   4.767   8.211   5.012 -0.2414  0.1815 -0.7624
  238MOL0     C32044   5.037   8.009   4.902  0.7161  0.4982  0.2219
  238MOL0     C32045   5.173   7.981   4.915  0.2764 -0.1772  0.0669
  238MOL0     N32046   5.880   7.801   5.109 -1.2439 -0.2378 -0.0764
  238MOL0     N32047   5.980   7.837   5.036  0.1021  0.0401  0.5962
  238MOL0     C32048   7.096   8.024   5.416 -0.3275 -0.7389  1.3608
  238MOL0     C32049   7.174   7.912   5.421 -0.7515  0.5995  0.6912
  238MOL0     C32050   7.464   7.560   5.304 -0.2015 -0.2814  0.7806
  238MOL0     C32051   7.517   7.453   5.226 -0.2281  0.7177 -0.1957
  238MOL0     C32052   7.612   7.372   5.273  0.1948  0.2045  1.0835
  238MOL0     C32053   7.681   7.399   5.391 -0.5182  1.1059 -0.4814
  238MOL0     O32054   7.773   7.328   5.458  0.2565  0.6054 -0.3998
  238MOL0     C32055   7.794   7.189   5.438 -0.2125 -0.8135 -0.1878
  238MOL0     C32056   7.671   7.112   5.486 -0.1640  0.5122  0.4070
  238MOL0     C32057   7.656   7.128   5.639 -0.2119  0.8366  0.1842
  238MOL0     C32058   7.513   7.087   5.694  0.6626 -1.1357  0.4239
  238MOL0     C32059   7.500   6.946   5.712 -0.3179 -0.7560  0.2905
  238MOL0     C32060   7.491   6.831   5.723 -0.2771 -0.2525 -0.3586
  238MOL0     C32061   7.643   7.513   5.462 -0.0255  0.6656 -0.5867
  238MOL0     C32062   7.535   7.585   5.421 -0.7270 -0.0245 -0.9471
  238MOL0     H32063   7.258   7.856   5.102  1.9412  0.6787  1.1572
  238MOL0     H32064   7.138   8.069   5.086  0.6216 -0.4029 -0.1672
  238MOL0     H32065   6.881   8.137   5.424  1.7041 -1.9334 -0.8458
  238MOL0     H32066   6.852   8.305   5.368  0.9245  0.9248 -1.6481
  238MOL0     H32067   6.725   8.256   5.196  1.4496  0.0667 -1.5201
  238MOL0     H32068   6.791   8.079   5.170 -0.5863 -0.7745  0.4323
  238MOL0     H32069   6.661   7.998   5.333 -1.4084  0.3060  0.5417
  238MOL0     H32070   6.650   8.155   5.415 -0.0990 -1.5334  0.4151
  238MOL0     H32071   6.493   8.222   5.235 -2.5001 -0.5610 -0.1952
  238MOL0     H32072   6.523   8.085   5.140 -2.0359  1.6494 -1.6241
  238MOL0     H32073   6.456   7.952   5.351  2.3834  0.9928 -0.6844
  238MOL0     H32074   6.363   8.099   5.392  0.9638  0.8698 -2.2694
  238MOL0     H32075   6.340   7.903   5.146  0.6750  0.4147  0.8122
  238MOL0     H32076   6.228   7.923   5.284  1.3739 -0.5999  0.4610
  238MOL0     H32077   6.195   8.159   5.190  1.4416 -2.2725  2.2371
  238MOL0     H32078   6.319   8.138   5.065  0.1535  1.2977  0.1504
  238MOL0     H32079   6.212   7.940   4.960 -1.4746 -1.2931  1.4884
  238MOL0     H32080   6.125   8.089   4.938 -2.0598 -0.3486 -0.0000
  238MOL0     H32081   5.972   8.095   5.231 -2.1887  1.1138 -0.3445
  238MOL0     H32082   5.744   7.792   5.351 -0.0297 -1.1011 -3.4936
  238MOL0     H32083   5.821   7.930   5.411 -0.9389  1.2992 -0.3698
  238MOL0     H32084   5.693   8.098   5.286  3.2785 -0.5055  0.5189
  238MOL0     H32085   5.600   8.001   5.392 -2.2303 -1.1656 -1.2390
  238MOL0     H32086   5.505   7.857   5.236  0.2147 -0.2930 -1.0661
  238MOL0     H32087   5.617   7.916   5.107  2.1713  2.3525 -0.5195
  238MOL0     H32088   5.503   8.137   5.139  1.2124 -0.7020 -2.1462
  238MOL0     H32089   5.388   8.038   5.242 -1.9652 -0.3809 -1.9825
  238MOL0     H32090   5.191   8.113   5.230 -0.5734  0.7755  0.0057
  238MOL0     H32091   4.839   8.153   5.240 -0.6428  3.3986  1.5680
  238MOL0     H32092   4.982   8.129   5.316 -2.3583 -0.4946  1.2735
  238MOL0     H32093   4.963   8.284   5.233  2.4971 -1.2390  1.0790
  238MOL0     H32094   4.538   8.160   4.958  0.8036  0.5956 -0.9394
  238MOL0     H32095   4.321   8.141   4.845  1.6327  1.4861  0.7390
  238MOL0     H32096   4.159   7.961   4.725 -1.0772 -0.0798  0.8516
  238MOL0     H32097   4.130   8.136   4.736  0.0432 -1.5547  2.2383
  238MOL0     H32098   4.037   8.111   4.483 -2.1950 -0.3227 -0.1042
  238MOL0     H32099   4.042   7.937   4.533  0.8796 -0.3439  0.8363
  238MOL0     H32100   3.840   8.097   4.570  0.4561  2.3848  1.3445
  238MOL0     H32101   3.922   8.139   4.717 -0.7026  2.7828 -3.0230
  238MOL0     H32102   3.840   7.851   4.638 -0.9252  0.7859 -0.7556
  238MOL0     H32103   3.942   7.886   4.770 -2.1074 -0.8317  1.5396
  238MOL0     H32104   3.773   7.992   4.905 -0.3200  0.3648  0.1692
  238MOL0     H32105   3.729   7.826   4.851 -1.4065 -0.1618 -1.3199
  238MOL0     H32106   3.569   7.978   4.672  0.1221  0.1405  1.0551
  238MOL0     H32107   3.527   7.928   4.827 -1.0552 -1.9857 -3.4367
  238MOL0     H32108   3.707   8.180   4.805  0.6733 -0.3410  1.1693
  238MOL0     H32109   3.571   8.148   4.917  1.7883 -2.5988  0.4791
  238MOL0     H32110   3.539   8.190   4.607 -1.1132  1.6310 -0.2107
  238MOL0     H32111   3.510   8.319   4.726 -3.4546 -0.4010 -0.3574
  238MOL0     H32112   4.520   8.027   4.478  1.4851  0.7653 -0.2085
  238MOL0     H32113   4.713   8.028   4.583  0.4869 -1.4867  0.6777
  238MOL0     H32114   4.979   7.982   4.815  1.8559 -0.4217 -0.2882
  238MOL0     H32115   5.214   7.909   4.844  0.3985 -1.7489  1.6690
  238MOL0     H32116   7.066   8.076   5.505  1.5706  2.5940  0.2298
  238MOL0     H32117   7.185   7.872   5.521  0.3344  3.6000  1.9190
  238MOL0     H32118   7.475   7.432   5.128 -0.0346  1.5028 -0.4541
  238MOL0     H32119   7.637   7.279   5.221 -3.5342  0.1946 -1.0823
  238MOL0     H32120   7.824   7.167   5.335  0.1362  1.2993 -0.5881
  238MOL0     H32121   7.871   7.159   5.510 -1.6596 -2.5733  0.7120
  238MOL0     H32122   7.684   7.007   5.456 -2.1329 -0.6918  3.3403
  238MOL0     H32123   7.583   7.145   5.429  1.1126 -0.5547 -2.3763
  238MOL0     H32124   7.670   7.231   5.671  0.0122  1.0878 -0.6950
  238MOL0     H32125   7.723   7.058   5.691 -4.0523 -1.0538  3.1271
  238MOL0     H32126   7.433   7.125   5.630  0.6302 -2.1922 -0.1726
  238MOL0     H32127   7.500   7.138   5.790  0.9191  0.2684 -0.2591
  238MOL0     H32128   7.485   6.726   5.745  1.1068 -0.0422  1.2145
  238MOL0     H32129   7.684   7.530   5.561 -5.9364 -3.3558  3.1933
  238MOL0     H32130   7.498   7.661   5.489  1.5414  2.9185 -2.7772
  239MOL0     O32131   1.474   3.574   5.765 -0.0689 -0.6089 -0.2754
  239MOL0     C32132   1.574   3.537   5.832 -0.4567  0.7761  0.8245
  239MOL0     O32133   1.648   3.422   5.806  0.6023  0.2053 -0.3006
  239MOL0     C32134   1.648   3.365   5.682 -0.2001 -0.4880  0.5693
  239MOL0     C32135   1.629   3.433   5.561 -0.3613  0.1079  0.9125
  239MOL0     C32136   1.686   3.388   5.449 -0.2823  0.7967  0.7471
  239MOL0     C32137   1.742   3.255   5.436  0.7979 -0.0342  0.0393
  239MOL0     O32138   1.776   3.233   5.306 -0.3614  0.0546 -0.3563
  239MOL0     C32139   1.780   3.106   5.244 -0.0828  0.8053 -0.1709
  239MOL0     C32140   1.914   3.056   5.174 -0.0151 -0.5895 -0.0545
  239MOL0     C32141   1.895   2.931   5.093 -1.0656 -0.2826 -0.1214
  239MOL0     C32142   1.787   2.947   4.987  0.2056  0.8625 -0.3661
  239MOL0     C32143   1.815   2.850   4.867 -0.9013 -1.1784 -0.1624
  239MOL0     C32144   1.721   2.861   4.743 -0.1229 -0.0453 -0.4896
  239MOL0     C32145   1.778   2.969   4.650 -0.3360 -1.0054 -0.1950
  239MOL0     C32146   1.705   2.982   4.519 -0.4462 -0.5431 -1.0014
  239MOL0     N32147   1.769   2.906   4.408  0.1016  0.2664 -0.6009
  239MOL0     C32148   1.894   2.906   4.358 -0.2723  0.0564 -0.6949
  239MOL0     C32149   1.907   2.796   4.285  0.4766  0.3467  0.1060
  239MOL0     C32150   2.023   2.739   4.210 -0.1498 -0.5014 -0.7738
  239MOL0     C32151   2.136   2.689   4.311  0.6662 -0.4437 -0.8284
  239MOL0     C32152   2.093   2.591   4.420  0.1913  0.4073  0.5575
  239MOL0     C32153   2.209   2.560   4.517  0.3370  0.1647 -0.3240
  239MOL0     O32154   2.233   2.660   4.613  0.0196  0.7700  0.0205
  239MOL0     C32155   2.207   2.640   4.747 -0.2846 -0.9751  0.1427
  239MOL0     C32156   2.087   2.575   4.803  0.0761 -0.4088  1.3290
  239MOL0     C32157   2.062   2.571   4.936 -0.4885  0.1075  0.4935
  239MOL0     C32158   1.940   2.492   4.971 -0.3943 -0.1654 -0.5788
  239MOL0     C32159   2.156   2.622   5.031  0.0072  0.2609  0.2035
  239MOL0     C32160   2.145   2.593   5.182 -0.7823 -0.7876  0.8006
  239MOL0     O32161   2.232   2.660   5.260 -0.9906  0.0151  0.8373
  239MOL0     C32162   2.244   2.639   5.391 -0.0706 -0.0689 -0.2234
  239MOL0     C32163   2.372   2.614   5.434 -0.9592 -0.0931 -0.9020
  239MOL0     C32164   2.388   2.578   5.573 -0.6620  0.5199 -0.7623
  239MOL0     C32165   2.281   2.582   5.660 -0.6975 -0.2448  0.2598
  239MOL0     O32166   2.284   2.537   5.792 -0.6618 -0.2393 -0.2717
  239MOL0     C32167   2.346   2.624   5.895  0.4392  0.7338 -0.2358
  239MOL0     C32168   2.293   2.575   6.034  0.3531 -0.1637  0.2290
  239MOL0     C32169   2.154   2.634   6.070  0.5321  0.2135 -0.6997
  239MOL0     C32170   2.108   2.590   6.213 -0.1629  0.2967  0.7810
  239MOL0     C32171   1.994   2.692   6.247  0.6142  0.2942  0.0974
  239MOL0     C32172   2.019   2.826   6.313 -0.7614  0.3525  0.1711
  239MOL0     C32173   2.096   2.806   6.457  0.4797  0.3186  0.1077
  239MOL0     C32174   2.085   2.938   6.529 -0.1784 -1.1143 -0.8533
  239MOL0    Cl32175   1.910   2.949   6.573 -0.4854  0.0763  0.0758
  239MOL0     C32176   2.149   2.608   5.617 -0.3006 -0.7430 -0.6660
  239MOL0     C32177   2.136   2.637   5.481  0.6584  0.8827 -0.3515
  239MOL0     O32178   2.063   2.518   5.227  0.5705  0.0821  1.6213
  239MOL0     C32179   2.268   2.694   4.979  0.1890  0.7859 -0.5501
  239MOL0     C32180   2.290   2.697   4.842 -0.0248 -0.2177 -0.2587
  239MOL0     N32181   1.793   2.732   4.278  0.4235  0.5645 -0.3686
  239MOL0     N32182   1.710   2.792   4.360 -0.3898  0.4675  0.1649
  239MOL0     C32183   1.756   3.170   5.557  0.8424 -0.6380  0.8485
  239MOL0     C32184   1.711   3.235   5.677 -0.3575 -0.0590  0.1469
  239MOL0     C32185   1.611   3.613   5.942 -0.1041  0.4580 -0.0098
  239MOL0     C32186   1.694   3.557   6.045 -0.2396 -0.6133  0.2579
  239MOL0     C32187   1.736   3.645   6.156  0.5725  0.7158  0.0097
  239MOL0     C32188   1.688   3.777   6.153 -0.2483 -0.0602  1.1298
  239MOL0     O32189   1.725   3.853   6.255  0.4586 -0.2420  0.1074
  239MOL0     C32190   1.683   3.815   6.384 -0.1599 -1.1187 -0.6378
  239MOL0     C32191   1.804   3.797   6.473  0.5972  0.0486 -0.8825
  239MOL0     C32192   1.764   3.793   6.625  0.3895 -0.1003 -0.5691
  239MOL0     C32193   1.877   3.749   6.731 -0.5955  0.0103 -0.3211
  239MOL0     C32194   2.003   3.822   6.704  1.2958 -1.3227  0.6538
  239MOL0     C32195   2.098   3.901   6.691 -0.3348 -0.5506 -0.3573
  239MOL0     C32196   1.625   3.829   6.044 -0.2464  0.5336  0.3990
  239MOL0     C32197   1.579   3.749   5.943 -0.1285 -0.4668 -0.2840
  239MOL0     H32198   1.589   3.534   5.561  5.1146  2.6841 -0.8429
  239MOL0     H32199   1.672   3.443   5.356  1.4175 -2.3045 -1.5309
  239MOL0     H32200   1.742   3.022   5.304  1.9218 -2.5716 -3.2313
  239MOL0     H32201   1.700   3.120   5.171 -1.7612  1.5425  1.7015
  239MOL0     H32202   1.966   3.134   5.118  1.9777 -0.9151  1.2356
  239MOL0     H32203   1.989   3.048   5.253 -1.7654  1.9804  2.0789
  239MOL0     H32204   1.993   2.917   5.047 -0.6541  1.2582  0.2297
  239MOL0     H32205   1.873   2.853   5.167 -1.3012  1.8699  2.2259
  239MOL0     H32206   1.689   2.926   5.031 -0.3231 -0.8738 -2.2267
  239MOL0     H32207   1.782   3.048   4.944  0.9571  0.4055 -1.5854
  239MOL0     H32208   1.922   2.849   4.845 -0.6274 -2.7930  1.0319
  239MOL0     H32209   1.808   2.747   4.905  1.0747 -1.8242 -1.4162
  239MOL0     H32210   1.715   2.764   4.694 -2.0817  0.7825 -2.0111
  239MOL0     H32211   1.619   2.883   4.775 -0.3462 -1.1895 -0.3665
  239MOL0     H32212   1.779   3.067   4.698  3.2727 -1.6868  1.4999
  239MOL0     H32213   1.884   2.950   4.635  0.5072  2.0397  1.1650
  239MOL0     H32214   1.726   3.088   4.502  0.4812 -0.4868  0.4055
  239MOL0     H32215   1.597   2.975   4.538 -0.0600 -1.1913  1.1440
  239MOL0     H32216   1.975   2.977   4.372 -0.9149  0.4292  1.5414
  239MOL0     H32217   1.988   2.657   4.147 -1.2182  1.0301 -2.2696
  239MOL0     H32218   2.069   2.813   4.144  1.3756 -0.7936 -0.0841
  239MOL0     H32219   2.167   2.778   4.365 -2.8541 -1.1725  2.7745
  239MOL0     H32220   2.222   2.645   4.259  1.3036 -0.6966  0.4048
  239MOL0     H32221   2.059   2.496   4.379  2.4583 -0.4641  0.5337
  239MOL0     H32222   2.008   2.633   4.474 -1.8319 -3.2922  0.5688
  239MOL0     H32223   2.297   2.543   4.453  1.9886  2.2609  1.2579
  239MOL0     H32224   2.206   2.465   4.572  0.0168  2.0658  3.2103
  239MOL0     H32225   2.016   2.553   4.724  0.3454 -3.6285  1.8366
  239MOL0     H32226   1.955   2.393   5.015  2.6118  0.3061 -0.3365
  239MOL0     H32227   1.879   2.556   5.035  0.2513 -1.5329  1.5032
  239MOL0     H32228   1.881   2.487   4.879 -0.3956 -3.2769 -0.5072
  239MOL0     H32229   2.455   2.614   5.364 -0.3100 -0.5400 -0.1536
  239MOL0     H32230   2.478   2.540   5.620 -0.5208  1.8837  0.1096
  239MOL0     H32231   2.455   2.621   5.898  0.4147  0.6615  1.9787
  239MOL0     H32232   2.314   2.728   5.878  0.3153  0.7806  0.2777
  239MOL0     H32233   2.295   2.466   6.037  3.4285 -0.1890  3.2619
  239MOL0     H32234   2.366   2.600   6.112 -0.7463 -0.4029  1.3482
  239MOL0     H32235   2.078   2.588   6.005  0.0410 -2.0690  1.3153
  239MOL0     H32236   2.161   2.742   6.063  2.0094  0.2440  0.7992
  239MOL0     H32237   2.063   2.491   6.212  0.2935  0.0026  3.0249
  239MOL0     H32238   2.181   2.582   6.294 -0.6290 -0.6669  1.1223
  239MOL0     H32239   1.924   2.636   6.310  0.9581 -1.7641 -1.2499
  239MOL0     H32240   1.933   2.713   6.159 -0.4552  1.3099  1.0454
  239MOL0     H32241   2.087   2.885   6.251  0.0079  0.8846  1.4776
  239MOL0     H32242   1.920   2.872   6.314 -0.1612  1.6569  0.5088
  239MOL0     H32243   2.200   2.779   6.437 -0.0079 -2.1540  0.5802
  239MOL0     H32244   2.057   2.723   6.517  1.6376 -1.4081 -1.4277
  239MOL0     H32245   2.104   3.027   6.469 -0.4582  1.8713  3.0851
  239MOL0     H32246   2.141   2.942   6.623 -2.2112 -3.3966  0.6067
  239MOL0     H32247   2.060   2.599   5.677  0.5482 -0.3222  0.7038
  239MOL0     H32248   2.032   2.661   5.459 -0.7592  0.7538  4.8749
  239MOL0     H32249   2.345   2.732   5.044  0.4476  2.4964 -1.7933
  239MOL0     H32250   2.368   2.758   4.800  1.3822 -1.5819  0.2592
  239MOL0     H32251   1.818   3.082   5.542  1.2381 -0.4254  1.2075
  239MOL0     H32252   1.729   3.187   5.773  1.1624  0.0214 -0.0745
  239MOL0     H32253   1.743   3.461   6.037  1.4768  0.3176 -1.1285
  239MOL0     H32254   1.798   3.610   6.238 -1.2689 -0.0410  1.1671
  239MOL0     H32255   1.619   3.895   6.424 -2.0650 -2.5515 -0.6387
  239MOL0     H32256   1.618   3.727   6.384 -2.6402  0.3250  4.1032
  239MOL0     H32257   1.884   3.868   6.452  4.7468 -2.3061  4.3394
  239MOL0     H32258   1.853   3.703   6.444  1.4017  0.3066 -0.3924
  239MOL0     H32259   1.683   3.720   6.638 -1.2369  1.6122 -0.5808
  239MOL0     H32260   1.716   3.890   6.641 -0.4997 -0.6866  0.5147
  239MOL0     H32261   1.899   3.645   6.705  0.2028 -0.2794  1.3780
  239MOL0     H32262   1.840   3.747   6.834 -0.4747  2.0395 -0.2030
  239MOL0     H32263   2.179   3.971   6.683  1.2301 -2.2401  0.1796
  239MOL0     H32264   1.597   3.934   6.037 -2.7649 -0.1931 -3.6420
  239MOL0     H32265   1.541   3.808   5.860  2.7642  1.7985 -0.1670
  240MOL0     O32266   6.270   6.668   5.103  0.0742  0.0585  0.0705
  240MOL0     C32267   6.325   6.709   5.201  0.2889  0.1416 -0.7626
  240MOL0     O32268   6.442   6.649   5.250  0.4710 -0.0439 -0.8058
  240MOL0     C32269   6.488   6.540   5.185  0.0456 -0.3906  0.0589
  240MOL0     C32270   6.544   6.437   5.260 -0.8592 -0.5724 -0.4547
  240MOL0     C32271   6.601   6.319   5.206 -0.3828  0.0818  0.0912
  240MOL0     C32272   6.604   6.309   5.060  0.6962  0.5601  0.1486
  240MOL0     O32273   6.666   6.209   4.992 -0.3321  0.0072  0.4273
  240MOL0     C32274   6.802   6.238   4.953 -0.4221 -0.5147 -0.1420
  240MOL0     C32275   6.823   6.300   4.820  0.8571 -0.4132 -0.5355
  240MOL0     C32276   6.746   6.227   4.715 -0.0564 -0.0614  0.7285
  240MOL0     C32277   6.795   6.282   4.576 -0.3925 -0.1707 -0.2331
  240MOL0     C32278   6.728   6.215   4.458  0.1715  0.6001  0.8746
  240MOL0     C32279   6.770   6.259   4.317 -0.4113  0.1016  0.1951
  240MOL0     C32280   6.739   6.406   4.288 -0.1256 -0.0993  0.7457
  240MOL0     C32281   6.592   6.414   4.243 -0.4408 -0.5879 -0.8304
  240MOL0     N32282   6.549   6.553   4.224  0.0133 -0.5071 -0.5198
  240MOL0     C32283   6.608   6.666   4.270  0.0346  0.2912  0.2034
  240MOL0     C32284   6.512   6.759   4.236  1.1545  0.5358  0.4173
  240MOL0     C32285   6.511   6.906   4.265 -0.6243 -0.1063  0.0578
  240MOL0     C32286   6.435   6.946   4.387  0.9275 -0.0570 -0.2515
  240MOL0     C32287   6.286   6.968   4.352  0.4085  1.1362  0.0899
  240MOL0     C32288   6.248   7.121   4.324 -0.0515  0.2996  0.6232
  240MOL0     O32289   6.121   7.129   4.393 -0.4169 -0.2839 -0.6143
  240MOL0     C32290   6.101   7.168   4.524  0.1032 -0.1178  0.2233
  240MOL0     C32291   6.205   7.188   4.618 -0.8341 -0.1075 -0.3921
  240MOL0     C32292   6.182   7.212   4.753  0.5821  0.3293  0.1036
  240MOL0     C32293   6.307   7.228   4.838 -0.5395 -0.5367  0.3102
  240MOL0     C32294   6.043   7.238   4.795  1.0777  0.0547 -0.4293
  240MOL0     C32295   6.013   7.284   4.940 -0.4268  0.0304  1.6312
  240MOL0     O32296   5.882   7.336   4.960  0.6085 -0.4036 -1.2252
  240MOL0     C32297   5.836   7.362   5.085  1.5755  0.4584 -0.0764
  240MOL0     C32298   5.763   7.258   5.151  0.4014 -0.8933  0.0320
  240MOL0     C32299   5.690   7.287   5.273  0.7332 -0.1913  0.0466
  240MOL0     C32300   5.707   7.412   5.333 -0.4107 -0.1469 -0.3986
  240MOL0     O32301   5.653   7.433   5.452 -0.4355  0.5459 -0.5989
  240MOL0     C32302   5.649   7.563   5.517  0.8323  0.1347  0.2641
  240MOL0     C32303   5.566   7.543   5.643 -0.7364  0.3708  0.2358
  240MOL0     C32304   5.535   7.669   5.712  0.6060 -0.6712 -0.2129
  240MOL0     C32305   5.569   7.642   5.856 -0.0993  0.2169  0.0137
  240MOL0     C32306   5.567   7.758   5.950 -0.1074  0.5188 -0.4737
  240MOL0     C32307   5.424   7.805   5.976 -0.1087  0.0039 -0.3862
  240MOL0     C32308   5.423   7.908   6.097 -0.6878 -0.0760  0.3896
  240MOL0     C32309   5.303   8.002   6.079 -0.1086  0.1537 -0.3731
  240MOL0    Cl32310   5.318   8.114   5.941 -0.1228  0.1577  0.0415
  240MOL0     C32311   5.793   7.503   5.277 -0.6186 -1.2712  0.0612
  240MOL0     C32312   5.857   7.482   5.152 -0.4765  0.2750 -0.0998
  240MOL0     O32313   6.096   7.257   5.021 -0.5793  0.2326 -1.0796
  240MOL0     C32314   5.944   7.216   4.707  0.3951 -0.9891  0.8248
  240MOL0     C32315   5.971   7.182   4.577  0.2752 -1.1604 -0.2109
  240MOL0     N32316   6.398   6.701   4.176  0.3958  0.3051  0.6526
  240MOL0     N32317   6.420   6.573   4.175  0.2233 -0.5025 -0.3339
  240MOL0     C32318   6.554   6.418   4.985 -0.0656 -0.1547  0.4684
  240MOL0     C32319   6.504   6.538   5.040  1.2804  1.0440 -0.9320
  240MOL0     C32320   6.252   6.811   5.284 -0.1227  0.5232  0.1235
  240MOL0     C32321   6.125   6.861   5.247  0.0939 -0.4212 -0.0010
  240MOL0     C32322   6.059   6.954   5.330  0.1974 -0.4441  0.3014
  240MOL0     C32323   6.129   7.009   5.443  0.8128 -0.0799  0.4310
  240MOL0     O32324   6.070   7.106   5.528  0.4753 -0.9072  0.9209
  240MOL0     C32325   5.923   7.133   5.526  0.0020 -0.1123 -0.5756
  240MOL0     C32326   5.880   7.165   5.665  0.0477 -0.1793 -0.4930
  240MOL0     C32327   5.935   7.302   5.717 -0.1415  0.6710  0.0146
  240MOL0     C32328   6.086   7.306   5.745 -0.9156 -0.0964  0.3616
  240MOL0     C32329   6.141   7.202   5.838 -0.5453  0.6122  0.4252
  240MOL0     C32330   6.191   7.116   5.905  0.0523  0.1831 -1.1276
  240MOL0     C32331   6.254   6.958   5.482 -0.0401  0.5112  0.9957
  240MOL0     C32332   6.314   6.852   5.406  0.2982 -0.1498  0.0340
  240MOL0     H32333   6.547   6.466   5.365  0.6192  0.3528 -0.7262
  240MOL0     H32334   6.645   6.247   5.274  0.6646  1.4771  0.9441
  240MOL0     H32335   6.850   6.297   5.031  2.4447 -0.3923 -1.8606
  240MOL0     H32336   6.860   6.145   4.957 -1.9652 -1.5467 -0.7893
  240MOL0     H32337   6.781   6.401   4.821 -0.6669 -1.0134 -0.7575
  240MOL0     H32338   6.929   6.305   4.795  0.0795  0.5014 -4.2540
  240MOL0     H32339   6.776   6.121   4.720  0.2558  0.0263  0.7672
  240MOL0     H32340   6.638   6.223   4.728  0.0780  0.3261  2.0605
  240MOL0     H32341   6.786   6.391   4.578  3.9155  0.3377  0.0658
  240MOL0     H32342   6.902   6.263   4.580 -0.3440  0.3521  1.3568
  240MOL0     H32343   6.738   6.106   4.464 -2.1100  0.3865  2.0433
  240MOL0     H32344   6.622   6.239   4.465  0.4964  1.9548  1.3152
  240MOL0     H32345   6.877   6.243   4.299 -0.6106 -0.2589 -0.7298
  240MOL0     H32346   6.710   6.200   4.246 -0.6749  0.5696  0.0229
  240MOL0     H32347   6.757   6.471   4.374 -1.2819  1.0536  0.1491
  240MOL0     H32348   6.803   6.434   4.204  0.3252  3.2348  2.0440
  240MOL0     H32349   6.538   6.375   4.330  1.3464 -0.6413  0.2999
  240MOL0     H32350   6.564   6.356   4.155 -0.4923 -0.0872 -1.1508
  240MOL0     H32351   6.695   6.669   4.336 -1.0994  1.8222  1.7097
  240MOL0     H32352   6.618   6.929   4.273 -0.2665 -0.6470 -2.3538
  240MOL0     H32353   6.480   6.958   4.174  2.2474  0.3519 -0.7585
  240MOL0     H32354   6.478   7.037   4.432  2.8521 -0.9413 -0.1943
  240MOL0     H32355   6.450   6.868   4.461  3.4588  1.0860  0.5543
  240MOL0     H32356   6.230   6.924   4.436  1.1312  3.2765  1.7938
  240MOL0     H32357   6.266   6.907   4.264  0.5497 -0.8670  1.3764
  240MOL0     H32358   6.228   7.135   4.217 -2.8237 -0.8013  0.8980
  240MOL0     H32359   6.317   7.191   4.371 -0.9139  0.6025  1.4798
  240MOL0     H32360   6.310   7.171   4.595 -1.0050 -0.1175 -1.1639
  240MOL0     H32361   6.403   7.185   4.810  2.3910  4.3761  1.6051
  240MOL0     H32362   6.314   7.337   4.848 -0.5216 -0.2508 -2.3084
  240MOL0     H32363   6.305   7.178   4.936 -2.0271 -2.3237 -0.5671
  240MOL0     H32364   5.751   7.163   5.099 -1.3818 -1.5399  1.5043
  240MOL0     H32365   5.626   7.211   5.317 -1.3407  1.0823 -0.6358
  240MOL0     H32366   5.751   7.591   5.545  0.4659 -0.0127  1.8463
  240MOL0     H32367   5.601   7.633   5.449  1.7644  0.0479 -0.4947
  240MOL0     H32368   5.473   7.491   5.619 -0.9911  0.8354  0.2090
  240MOL0     H32369   5.627   7.475   5.704  1.3023 -1.3461 -3.3656
  240MOL0     H32370   5.426   7.674   5.710  0.3094 -4.3108  0.8622
  240MOL0     H32371   5.588   7.747   5.656  2.4391 -3.4792 -2.7149
  240MOL0     H32372   5.510   7.558   5.895 -2.5955 -0.6464 -4.8541
  240MOL0     H32373   5.676   7.622   5.845 -0.3164 -0.8360 -0.2964
  240MOL0     H32374   5.628   7.837   5.905  5.5540 -2.7956  0.5355
  240MOL0     H32375   5.619   7.724   6.040 -3.1099  0.5485  1.4084
  240MOL0     H32376   5.388   7.849   5.883  1.2143 -1.6932 -1.7887
  240MOL0     H32377   5.363   7.719   6.003  1.7654 -1.2880 -0.0644
  240MOL0     H32378   5.514   7.969   6.094 -0.4841 -0.3450  0.8104
  240MOL0     H32379   5.431   7.854   6.192 -0.6124 -0.7201  0.0203
  240MOL0     H32380   5.299   8.068   6.166 -3.2661  0.7788 -0.8569
  240MOL0     H32381   5.209   7.947   6.066  0.4679 -0.7203 -0.9382
  240MOL0     H32382   5.814   7.599   5.322  0.2041 -1.4828  0.1356
  240MOL0     H32383   5.926   7.556   5.112  1.6816 -1.2498  0.5989
  240MOL0     H32384   5.840   7.223   4.737  0.6758  1.9633  1.4573
  240MOL0     H32385   5.887   7.177   4.509  0.4842  2.0939 -0.8312
  240MOL0     H32386   6.557   6.409   4.877 -2.7263 -1.6022  0.4475
  240MOL0     H32387   6.453   6.610   4.977 -0.1721  0.5198 -0.3946
  240MOL0     H32388   6.065   6.829   5.162  1.5508 -0.1114 -1.1813
  240MOL0     H32389   5.973   6.997   5.280  1.1791  0.4908 -0.6326
  240MOL0     H32390   5.915   7.230   5.475  1.7803  1.1039  1.2612
  240MOL0     H32391   5.868   7.054   5.474 -2.0029  0.8578 -0.0258
  240MOL0     H32392   5.889   7.080   5.733 -0.0746 -0.9736 -1.4536
  240MOL0     H32393   5.772   7.178   5.659 -0.0934  0.0445  1.7534
  240MOL0     H32394   5.886   7.328   5.811 -2.0814 -2.3826 -0.0229
  240MOL0     H32395   5.906   7.379   5.646 -2.7982  0.9890  1.3426
  240MOL0     H32396   6.119   7.405   5.777  0.1055 -0.2319 -0.2255
  240MOL0     H32397   6.139   7.306   5.649 -2.8332  1.7909 -0.7888
  240MOL0     H32398   6.228   7.050   5.982 -4.3287  0.9678  2.0647
  240MOL0     H32399   6.299   6.980   5.579 -1.0651 -3.4976  2.5834
  240MOL0     H32400   6.406   6.804   5.439 -0.0112  0.4312  1.8299
  241MOL0     O32401   5.490   3.590   0.683 -0.1684 -0.7665 -0.0373
  241MOL0     C32402   5.564   3.619   0.594 -0.0837 -0.7003 -0.7948
  241MOL0     O32403   5.538   3.613   0.469  0.4542  0.6043  0.6381
  241MOL0     C32404   5.416   3.579   0.418  0.1971 -0.0708  0.9209
  241MOL0     C32405   5.364   3.450   0.404  0.3542  0.4995  0.1969
  241MOL0     C32406   5.230   3.433   0.354  0.6278 -0.0393 -0.4523
  241MOL0     C32407   5.150   3.541   0.307 -0.7051  0.2331  0.0583
  241MOL0     O32408   5.036   3.517   0.242 -0.1168 -0.1805  0.5179
  241MOL0     C32409   4.965   3.617   0.170  0.0654 -0.6044 -0.2298
  241MOL0     C32410   4.878   3.544   0.063  0.9135  0.1768  0.4590
  241MOL0     C32411   4.785   3.446   0.136 -0.2184 -0.6914  0.0330
  241MOL0     C32412   4.699   3.372   0.036  1.1055 -0.1113  0.6646
  241MOL0     C32413   4.597   3.297   0.116  0.2204 -0.4161  0.3974
  241MOL0     C32414   4.465   3.253   0.048 -0.2716 -0.5480  0.2877
  241MOL0     C32415   4.399   3.153   0.140  0.3288  0.2964 -0.2065
  241MOL0     C32416   4.442   3.002   0.150  0.1129  0.3849  0.5346
  241MOL0     N32417   4.401   2.933   0.021 -1.1582 -0.7214 -0.5592
  241MOL0     C32418   4.467   2.953  -0.099  0.0513  0.1445 -0.0926
  241MOL0     C32419   4.391   2.896  -0.186 -0.6673 -0.4584  0.0068
  241MOL0     C32420   4.424   2.874  -0.333  0.5157  0.2270 -0.1058
  241MOL0     C32421   4.532   2.761  -0.349 -0.3151  0.1986 -0.8615
  241MOL0     C32422   4.585   2.729  -0.484 -0.6329  0.0507 -0.4115
  241MOL0     C32423   4.638   2.852  -0.552 -0.0476 -0.7150 -0.3682
  241MOL0     O32424   4.730   2.925  -0.463 -0.2471  0.0744  0.0534
  241MOL0     C32425   4.738   3.063  -0.476 -0.8469  0.3332 -0.6141
  241MOL0     C32426   4.752   3.123  -0.603 -0.0783 -1.3006  0.4966
  241MOL0     C32427   4.715   3.262  -0.622 -1.0703  0.7078 -1.2624
  241MOL0     C32428   4.730   3.319  -0.756  0.5720  0.3615  0.2071
  241MOL0     C32429   4.689   3.344  -0.503 -0.0036  0.3442  0.2893
  241MOL0     C32430   4.676   3.496  -0.505  0.4664  0.6707 -0.0744
  241MOL0     O32431   4.596   3.564  -0.405  0.1291  0.3748 -0.1239
  241MOL0     C32432   4.623   3.695  -0.390  0.5600 -0.3327  0.4042
  241MOL0     C32433   4.633   3.793  -0.494  0.0767  0.0902 -0.8138
  241MOL0     C32434   4.671   3.933  -0.471 -0.2624  0.2801 -0.4271
  241MOL0     C32435   4.705   3.964  -0.338  0.6246  0.6019  0.4485
  241MOL0     O32436   4.751   4.086  -0.293 -0.0057  0.3016  0.8814
  241MOL0     C32437   4.716   4.196  -0.370  0.3011 -0.2420 -0.3959
  241MOL0     C32438   4.745   4.316  -0.278 -0.8115 -0.1512 -1.4449
  241MOL0     C32439   4.714   4.444  -0.346 -0.3792 -0.4938 -0.6078
  241MOL0     C32440   4.754   4.564  -0.249  0.1056  0.2834 -0.4883
  241MOL0     C32441   4.738   4.707  -0.314 -0.6487  0.0820  0.6943
  241MOL0     C32442   4.743   4.826  -0.211  0.3247  0.6783 -1.1013
  241MOL0     C32443   4.872   4.825  -0.124  0.5715 -0.4122 -0.5486
  241MOL0     C32444   4.897   4.957  -0.057 -0.4547  0.2401  0.8090
  241MOL0    Cl32445   5.037   4.937   0.060  0.4462 -0.0237 -0.0067
  241MOL0     C32446   4.692   3.869  -0.236  0.1713 -1.1091  0.7816
  241MOL0     C32447   4.654   3.735  -0.259  1.0995 -0.5766  0.3819
  241MOL0     O32448   4.749   3.549  -0.588 -0.2549  0.2382 -0.1553
  241MOL0     C32449   4.707   3.288  -0.374  0.8020 -0.1635 -1.0704
  241MOL0     C32450   4.723   3.150  -0.367 -0.1419  0.2151  0.0763
  241MOL0     N32451   4.285   2.837  -0.122 -0.8255 -0.2920 -0.1392
  241MOL0     N32452   4.296   2.855   0.000 -0.3305 -0.2199  0.7394
  241MOL0     C32453   5.207   3.669   0.316 -0.2105  0.6537 -0.0455
  241MOL0     C32454   5.336   3.685   0.363 -0.1701  0.0238 -0.3367
  241MOL0     C32455   5.680   3.703   0.631  0.1089 -0.4376 -1.3725
  241MOL0     C32456   5.756   3.767   0.536 -0.1831 -0.0750  0.9648
  241MOL0     C32457   5.875   3.825   0.577  0.1040  0.1942  0.6913
  241MOL0     C32458   5.918   3.832   0.707 -0.0931  0.6204 -0.0980
  241MOL0     O32459   6.036   3.890   0.754 -0.5716 -0.0631 -0.0675
  241MOL0     C32460   6.119   3.974   0.671  0.7289 -0.3870 -0.5755
  241MOL0     C32461   6.241   4.022   0.740 -0.3747 -0.8687  0.1847
  241MOL0     C32462   6.334   3.912   0.805 -0.1331 -1.3968  0.2127
  241MOL0     C32463   6.385   3.805   0.721  0.1866  0.6671  0.8844
  241MOL0     C32464   6.453   3.862   0.603  1.3986 -1.2665 -0.4086
  241MOL0     C32465   6.500   3.911   0.504 -0.0308  0.7960 -0.0705
  241MOL0     C32466   5.837   3.775   0.801  0.8161 -0.4769  0.1623
  241MOL0     C32467   5.713   3.718   0.771  0.3428 -0.0130 -0.4261
  241MOL0     H32468   5.419   3.363   0.438 -2.6870 -1.7762 -0.2532
  241MOL0     H32469   5.188   3.333   0.357  0.4491  0.0448 -0.0793
  241MOL0     H32470   4.892   3.667   0.235 -0.1001 -4.1541  2.6457
  241MOL0     H32471   5.033   3.681   0.114 -0.8182 -1.3386 -2.2378
  241MOL0     H32472   4.825   3.615  -0.001  1.4987 -0.5957 -0.9080
  241MOL0     H32473   4.953   3.504  -0.005  1.1378 -0.2193  0.9391
  241MOL0     H32474   4.819   3.376   0.212 -0.3337  1.1590  1.8642
  241MOL0     H32475   4.719   3.502   0.203  0.3345 -0.9255  0.7777
  241MOL0     H32476   4.650   3.451  -0.022  2.0830 -1.1805 -1.7503
  241MOL0     H32477   4.747   3.300  -0.030 -4.2017 -4.4205  0.8071
  241MOL0     H32478   4.650   3.220   0.172  0.1273 -0.7915 -0.0226
  241MOL0     H32479   4.556   3.359   0.196 -0.3234 -0.8529  0.4693
  241MOL0     H32480   4.407   3.342   0.023 -0.3209 -1.1395 -1.9689
  241MOL0     H32481   4.484   3.208  -0.051 -0.1467  0.9362 -0.3841
  241MOL0     H32482   4.383   3.176   0.246 -3.7000 -1.4625 -0.2596
  241MOL0     H32483   4.294   3.147   0.112 -0.0887  1.7024  0.9120
  241MOL0     H32484   4.398   2.954   0.238 -0.3765 -0.4311 -0.1501
  241MOL0     H32485   4.551   3.004   0.163  0.4560  4.2008 -1.5057
  241MOL0     H32486   4.561   3.004  -0.118  0.9124 -0.0925  2.9661
  241MOL0     H32487   4.335   2.851  -0.392  2.0423 -1.4590 -1.8694
  241MOL0     H32488   4.465   2.968  -0.368 -0.8020  0.7198 -0.3965
  241MOL0     H32489   4.484   2.670  -0.311  1.0375 -0.6925 -1.2301
  241MOL0     H32490   4.623   2.778  -0.290 -1.0222 -0.2622  0.4029
  241MOL0     H32491   4.501   2.690  -0.542  1.5201 -2.5655 -1.9797
  241MOL0     H32492   4.661   2.651  -0.481 -0.7998 -0.0937  0.0521
  241MOL0     H32493   4.557   2.916  -0.588 -0.0348 -0.8663 -0.6667
  241MOL0     H32494   4.681   2.822  -0.648 -0.0886 -2.6232  0.1602
  241MOL0     H32495   4.766   3.061  -0.692 -0.5275  3.2417 -3.1558
  241MOL0     H32496   4.826   3.366  -0.779  0.8493 -0.7752 -1.0732
  241MOL0     H32497   4.728   3.239  -0.831 -4.8138 -1.0184  1.4356
  241MOL0     H32498   4.648   3.389  -0.773  0.5572  0.0038 -1.3222
  241MOL0     H32499   4.630   3.754  -0.595  1.2786 -3.7390  0.4836
  241MOL0     H32500   4.684   3.993  -0.560  2.7981 -2.3098 -1.9719
  241MOL0     H32501   4.776   4.202  -0.462  3.2512  1.0216  1.4648
  241MOL0     H32502   4.611   4.191  -0.401 -0.4696  1.4277  1.7280
  241MOL0     H32503   4.678   4.292  -0.195 -0.8699  3.4469 -0.2898
  241MOL0     H32504   4.845   4.332  -0.238 -2.5645  5.2777  1.9357
  241MOL0     H32505   4.606   4.451  -0.364 -0.0700  0.8671 -2.2460
  241MOL0     H32506   4.760   4.454  -0.446 -2.4898 -3.3102 -2.0009
  241MOL0     H32507   4.681   4.566  -0.167  1.9404  0.3258  1.2186
  241MOL0     H32508   4.845   4.542  -0.193 -0.8190 -0.8112  0.6857
  241MOL0     H32509   4.641   4.716  -0.364 -1.1954  1.3145  1.9238
  241MOL0     H32510   4.819   4.729  -0.384  2.1735  0.5898  3.8514
  241MOL0     H32511   4.722   4.923  -0.257  0.2096  0.5022 -1.4293
  241MOL0     H32512   4.663   4.807  -0.139  1.6675 -0.1888  0.2184
  241MOL0     H32513   4.962   4.791  -0.176  0.1531 -2.8596  0.2006
  241MOL0     H32514   4.845   4.752  -0.047 -0.9734 -0.7835 -1.3958
  241MOL0     H32515   4.809   4.980   0.004  1.0200  1.3727  2.6025
  241MOL0     H32516   4.911   5.037  -0.130  0.3161 -0.6033  0.0151
  241MOL0     H32517   4.724   3.911  -0.141 -0.8887  2.2674 -0.2472
  241MOL0     H32518   4.670   3.654  -0.188 -2.2867 -2.6791 -1.0258
  241MOL0     H32519   4.700   3.347  -0.284  0.7091 -0.5136 -0.8482
  241MOL0     H32520   4.723   3.093  -0.275  2.9730 -1.0408 -0.5639
  241MOL0     H32521   5.146   3.756   0.296 -2.9769 -1.2474 -0.4692
  241MOL0     H32522   5.386   3.780   0.371 -4.0825  2.2549  0.2846
  241MOL0     H32523   5.751   3.757   0.428 -1.1555 -3.9611  1.2437
  241MOL0     H32524   5.936   3.871   0.499  0.4685 -1.7659 -0.2323
  241MOL0     H32525   6.166   3.917   0.590 -1.5057 -0.3332 -1.9883
  241MOL0     H32526   6.077   4.071   0.643  2.3955  0.7852  0.7605
  241MOL0     H32527   6.202   4.086   0.820 -0.1866 -1.9287  1.1431
  241MOL0     H32528   6.304   4.083   0.674 -1.1745  0.1438  0.3360
  241MOL0     H32529   6.282   3.865   0.889  0.8691 -2.8041  0.0905
  241MOL0     H32530   6.416   3.964   0.854  0.0340 -1.3488 -0.1206
  241MOL0     H32531   6.307   3.742   0.678 -1.4486  3.5665 -0.6053
  241MOL0     H32532   6.450   3.738   0.779 -1.7850  0.3200  2.8286
  241MOL0     H32533   6.561   3.944   0.423  1.6593  0.3100  0.9603
  241MOL0     H32534   5.859   3.771   0.908 -0.1961  2.3015  0.5434
  241MOL0     H32535   5.645   3.695   0.852  1.3135  2.9945  1.3897
  242MOL0     O32536   4.109   0.616   5.352 -0.2297  1.7149 -1.2574
  242MOL0     C32537   4.004   0.569   5.393 -0.7275  0.6388  0.1022
  242MOL0     O32538   3.989   0.511   5.511  0.0173 -0.0982 -0.3315
  242MOL0     C32539   4.095   0.491   5.593  0.2384  0.1112  0.0972
  242MOL0     C32540   4.158   0.367   5.581 -0.5708 -0.1676 -0.0922
  242MOL0     C32541   4.280   0.338   5.653 -0.2815 -0.3714  0.3389
  242MOL0     C32542   4.340   0.436   5.741  0.3070  0.0354  0.7887
  242MOL0     O32543   4.462   0.415   5.800  0.6311 -0.1390 -0.0409
  242MOL0     C32544   4.458   0.324   5.914  0.3412 -0.0888  0.4737
  242MOL0     C32545   4.586   0.318   5.988 -0.0579  0.2355  0.0163
  242MOL0     C32546   4.579   0.205   6.086  0.0168 -0.0540 -0.1473
  242MOL0     C32547   4.692   0.097   6.055 -0.1388 -1.3275 -0.0223
  242MOL0     C32548   4.700  -0.023   6.147 -0.0532 -0.2473  0.5639
  242MOL0     C32549   4.796  -0.128   6.109  0.0263  1.0811  0.0348
  242MOL0     C32550   4.940  -0.084   6.163 -0.2160  0.2932  0.4000
  242MOL0     C32551   5.045  -0.177   6.142 -0.5300  0.9668 -1.0754
  242MOL0     N32552   5.032  -0.304   6.225 -0.3486 -0.0912  0.1999
  242MOL0     C32553   4.959  -0.420   6.197 -0.3930 -0.9274 -0.0158
  242MOL0     C32554   4.976  -0.487   6.314  0.2462 -0.8232 -0.4164
  242MOL0     C32555   4.925  -0.629   6.347 -0.5025  0.0330 -0.4067
  242MOL0     C32556   4.846  -0.697   6.230 -1.0022  0.6616  0.1858
  242MOL0     C32557   4.764  -0.819   6.261  0.1069  1.1102  1.1461
  242MOL0     C32558   4.871  -0.926   6.297 -0.2260  0.3131  0.8203
  242MOL0     O32559   4.810  -1.048   6.329 -0.0090  0.1316 -0.4439
  242MOL0     C32560   4.755  -1.114   6.231 -0.5074 -0.4461  0.8978
  242MOL0     C32561   4.813  -1.124   6.102  0.5136  0.3259 -0.2687
  242MOL0     C32562   4.750  -1.193   6.001 -0.3043 -0.3394 -0.1166
  242MOL0     C32563   4.833  -1.218   5.881  0.5422  0.7206 -0.4085
  242MOL0     C32564   4.623  -1.248   6.020 -0.3850 -0.5847 -0.0883
  242MOL0     C32565   4.562  -1.321   5.915  0.2552 -0.3658 -0.1102
  242MOL0     O32566   4.489  -1.424   5.949 -0.0236  0.0429 -0.3665
  242MOL0     C32567   4.419  -1.486   5.844  0.3636 -0.6740 -0.5020
  242MOL0     C32568   4.313  -1.422   5.775  0.5216 -1.0434 -0.3701
  242MOL0     C32569   4.261  -1.466   5.654  0.4937  0.7956  0.4662
  242MOL0     C32570   4.314  -1.576   5.596 -0.4448 -0.3266  0.9342
  242MOL0     O32571   4.263  -1.624   5.476 -0.1807  0.0886  0.2768
  242MOL0     C32572   4.294  -1.757   5.442 -1.2746  0.2929  0.0098
  242MOL0     C32573   4.228  -1.794   5.313 -1.5459  0.5398  0.6849
  242MOL0     C32574   4.072  -1.793   5.337  0.5686 -0.1549  0.0008
  242MOL0     C32575   4.012  -1.836   5.205  0.3695 -1.1189 -0.8315
  242MOL0     C32576   3.860  -1.805   5.206 -0.0117  0.7256 -0.0194
  242MOL0     C32577   3.794  -1.835   5.068 -0.9423 -1.0016  0.9003
  242MOL0     C32578   3.747  -1.977   5.023  0.0427  0.6877  0.1707
  242MOL0     C32579   3.637  -2.041   5.105  0.8504 -0.6995  0.1773
  242MOL0    Cl32580   3.500  -1.923   5.125  0.0264  0.2396 -0.2184
  242MOL0     C32581   4.415  -1.650   5.664  0.3694  0.2029 -0.3181
  242MOL0     C32582   4.466  -1.603   5.787  0.0092  0.0439  0.1258
  242MOL0     O32583   4.569  -1.275   5.799 -0.0145 -0.2608 -0.3355
  242MOL0     C32584   4.568  -1.248   6.150  0.4885  0.5527  0.0221
  242MOL0     C32585   4.630  -1.179   6.253 -0.8201 -0.0568 -0.3110
  242MOL0     N32586   5.081  -0.426   6.393 -0.3584 -0.3196  0.7245
  242MOL0     N32587   5.105  -0.314   6.338  0.3535 -0.4015  0.1189
  242MOL0     C32588   4.265   0.558   5.751  0.4096  0.4298  0.1517
  242MOL0     C32589   4.152   0.588   5.684  1.3769 -0.1233  0.2478
  242MOL0     C32590   3.888   0.579   5.304  0.2091  0.1781 -0.8208
  242MOL0     C32591   3.898   0.624   5.171 -0.1901  0.1371  0.2747
  242MOL0     C32592   3.787   0.627   5.087  0.4800  1.1971 -0.1140
  242MOL0     C32593   3.664   0.585   5.126  0.2966  0.3331  1.4652
  242MOL0     O32594   3.556   0.596   5.033 -0.6435  0.4901  0.7725
  242MOL0     C32595   3.563   0.501   4.924 -0.1475 -0.1022 -0.5555
  242MOL0     C32596   3.442   0.414   4.895  0.3103 -0.1522 -0.3571
  242MOL0     C32597   3.436   0.298   5.000  0.3933  0.3071 -0.5721
  242MOL0     C32598   3.367   0.349   5.129 -0.0766 -0.2177 -0.2570
  242MOL0     C32599   3.380   0.259   5.244  1.0065  0.1645 -0.1067
  242MOL0     C32600   3.401   0.174   5.327  2.1208  0.3183 -1.1203
  242MOL0     C32601   3.654   0.543   5.260 -0.7359  0.1480 -0.1290
  242MOL0     C32602   3.759   0.547   5.341 -0.5374 -0.8175 -0.3165
  242MOL0     H32603   4.106   0.292   5.523 -0.2979  0.4326 -1.1255
  242MOL0     H32604   4.335   0.246   5.634  1.3704  0.8482 -1.1328
  242MOL0     H32605   4.386   0.358   5.989  0.8939  0.4398  0.7757
  242MOL0     H32606   4.420   0.228   5.879 -0.3263  0.2218  0.3293
  242MOL0     H32607   4.661   0.301   5.910 -0.3941  2.0594 -0.7668
  242MOL0     H32608   4.622   0.403   6.046  1.1761 -1.8028  2.4248
  242MOL0     H32609   4.594   0.247   6.186 -1.2678 -0.9177  0.4386
  242MOL0     H32610   4.479   0.161   6.085 -0.8142  1.5989  1.9372
  242MOL0     H32611   4.665   0.046   5.962  0.8208 -3.4006  0.7816
  242MOL0     H32612   4.785   0.155   6.052 -1.7325  1.3578 -2.3253
  242MOL0     H32613   4.698   0.013   6.250  1.9273 -1.8007  1.2042
  242MOL0     H32614   4.605  -0.075   6.129  0.1895  0.2431 -2.8433
  242MOL0     H32615   4.772  -0.225   6.152  3.4667  0.6698  1.3226
  242MOL0     H32616   4.795  -0.140   6.001 -0.4834 -0.3786  0.1908
  242MOL0     H32617   4.967   0.004   6.104  0.2256 -1.8881 -2.8843
  242MOL0     H32618   4.928  -0.047   6.266 -4.1343  2.9175 -0.7617
  242MOL0     H32619   5.141  -0.128   6.165  0.1797 -1.2235  1.0859
  242MOL0     H32620   5.048  -0.206   6.037 -1.7129 -1.8119 -0.4383
  242MOL0     H32621   4.911  -0.451   6.104  1.6841 -4.1811 -0.1889
  242MOL0     H32622   5.006  -0.689   6.390 -0.5881  0.6580  0.6714
  242MOL0     H32623   4.850  -0.617   6.426  1.7348  2.1824  1.5670
  242MOL0     H32624   4.921  -0.715   6.153  2.2594 -1.6104  3.5825
  242MOL0     H32625   4.770  -0.623   6.202 -0.5536  0.9578 -0.2574
  242MOL0     H32626   4.718  -0.861   6.171  3.6902 -1.2837  0.2352
  242MOL0     H32627   4.701  -0.801   6.349 -0.0717 -0.2962  1.3212
  242MOL0     H32628   4.902  -0.890   6.396 -1.9132 -0.5270  1.7026
  242MOL0     H32629   4.959  -0.928   6.232 -0.1518  4.6258  0.5179
  242MOL0     H32630   4.908  -1.081   6.071  0.8366  0.9281  1.4432
  242MOL0     H32631   4.811  -1.313   5.832  1.0461 -0.0241  0.7703
  242MOL0     H32632   4.814  -1.136   5.810 -0.0338  0.7135 -0.2689
  242MOL0     H32633   4.940  -1.213   5.903 -0.0135  3.1325  2.2391
  242MOL0     H32634   4.276  -1.333   5.825 -0.0464 -1.6538  0.3415
  242MOL0     H32635   4.173  -1.416   5.615  1.0262  0.8267 -0.7322
  242MOL0     H32636   4.400  -1.767   5.417 -1.1051  1.0184  0.4100
  242MOL0     H32637   4.271  -1.828   5.521 -0.7899 -0.6395 -0.6742
  242MOL0     H32638   4.259  -1.720   5.239 -1.3223  0.4057  0.6431
  242MOL0     H32639   4.256  -1.892   5.274  0.4222  0.8160  1.2710
  242MOL0     H32640   4.035  -1.693   5.360 -0.5188 -0.5776  0.1429
  242MOL0     H32641   4.048  -1.866   5.415  3.1939 -0.7508  0.3424
  242MOL0     H32642   4.055  -1.794   5.114  0.0494 -2.4926 -1.6389
  242MOL0     H32643   4.009  -1.944   5.186 -0.2910 -0.6976 -3.4664
  242MOL0     H32644   3.848  -1.698   5.226 -0.7037  0.4162  1.3471
  242MOL0     H32645   3.805  -1.865   5.279 -1.9452 -1.9720 -3.3486
  242MOL0     H32646   3.698  -1.781   5.067 -0.2649  0.2785  1.9989
  242MOL0     H32647   3.866  -1.784   5.005 -2.2482 -0.0956  0.0805
  242MOL0     H32648   3.829  -2.048   5.016 -0.8460 -0.3076 -0.5909
  242MOL0     H32649   3.713  -1.966   4.919  3.3683 -4.2526 -1.7840
  242MOL0     H32650   3.663  -2.061   5.209  0.6641  0.4608  0.4566
  242MOL0     H32651   3.596  -2.127   5.051 -0.5813 -0.2243  0.4566
  242MOL0     H32652   4.457  -1.743   5.627  2.6294  1.4500 -1.0466
  242MOL0     H32653   4.541  -1.657   5.843  1.7735 -1.0486 -3.0186
  242MOL0     H32654   4.479  -1.309   6.164 -1.3802  3.0881 -0.0751
  242MOL0     H32655   4.592  -1.191   6.354 -0.2878 -1.0213 -0.2079
  242MOL0     H32656   4.307   0.627   5.824  1.2514  1.5303 -1.3071
  242MOL0     H32657   4.094   0.679   5.695  0.4779 -0.4293 -1.5691
  242MOL0     H32658   3.988   0.665   5.126 -1.4294  3.3935  0.5050
  242MOL0     H32659   3.785   0.660   4.983 -0.7942 -0.5761 -0.7038
  242MOL0     H32660   3.583   0.555   4.832  2.5009  1.7358  0.9436
  242MOL0     H32661   3.649   0.435   4.941  0.8882  1.7910  2.4266
  242MOL0     H32662   3.462   0.360   4.801  0.5607 -1.2978  0.3352
  242MOL0     H32663   3.344   0.461   4.891 -0.0704 -0.8519  0.5613
  242MOL0     H32664   3.537   0.261   5.019  1.0518  1.4553 -1.7084
  242MOL0     H32665   3.375   0.218   4.959  1.3814 -1.5867  1.4101
  242MOL0     H32666   3.263   0.362   5.096  0.8898 -0.3106 -3.7297
  242MOL0     H32667   3.400   0.452   5.142 -2.2840  0.6046 -0.8088
  242MOL0     H32668   3.399   0.094   5.399 -1.6308  1.3867  0.1530
  242MOL0     H32669   3.557   0.534   5.308  0.3457 -0.8741  2.0087
  242MOL0     H32670   3.749   0.510   5.443  0.5708 -1.4537 -0.4309
  243MOL0     O32671   0.779   5.082   2.895 -0.5765 -0.5329 -0.1697
  243MOL0     C32672   0.765   5.036   3.011 -1.0737  0.1221  0.6031
  243MOL0     O32673   0.843   4.937   3.072  0.7737 -0.4642 -0.2533
  243MOL0     C32674   0.945   4.879   3.005  0.0191  0.0865 -0.4280
  243MOL0     C32675   1.078   4.906   3.045  0.3782 -1.2512  0.4436
  243MOL0     C32676   1.184   4.833   2.986  0.0577  0.0842 -0.5427
  243MOL0     C32677   1.171   4.727   2.900 -0.2091 -0.0969  0.9030
  243MOL0     O32678   1.265   4.636   2.850  0.2479  0.1824  0.7050
  243MOL0     C32679   1.400   4.645   2.904  0.1380 -0.0400 -0.3478
  243MOL0     C32680   1.502   4.574   2.805 -0.0414 -0.6548 -0.6871
  243MOL0     C32681   1.459   4.435   2.774  0.1689  1.0634 -0.1897
  243MOL0     C32682   1.353   4.438   2.661 -0.0848 -0.9615 -0.2174
  243MOL0     C32683   1.397   4.362   2.534 -0.0446  0.9921 -0.2955
  243MOL0     C32684   1.469   4.455   2.442  0.1960  0.2115  0.4278
  243MOL0     C32685   1.549   4.382   2.334 -0.3003 -0.3706  0.6002
  243MOL0     C32686   1.464   4.306   2.237  0.7123  0.5978  0.8948
  243MOL0     N32687   1.550   4.257   2.119  0.2352  0.2686  0.0240
  243MOL0     C32688   1.672   4.189   2.113  0.6969  0.0950  0.1471
  243MOL0     C32689   1.695   4.178   1.978  0.5031  0.2448 -0.4951
  243MOL0     C32690   1.811   4.120   1.909 -0.2455  0.1095  0.7326
  243MOL0     C32691   1.784   3.976   1.846 -0.3741 -0.0299 -0.6525
  243MOL0     C32692   1.668   3.979   1.752  0.4579 -0.6772 -0.0399
  243MOL0     C32693   1.649   3.843   1.683  0.0614  1.4079 -0.3280
  243MOL0     O32694   1.529   3.854   1.613  0.3680  1.0549  0.5927
  243MOL0     C32695   1.526   3.878   1.480 -0.2058 -0.1824  0.4055
  243MOL0     C32696   1.639   3.867   1.388 -0.3880 -0.4059 -0.2499
  243MOL0     C32697   1.628   3.902   1.254 -0.0544 -0.1432 -0.2544
  243MOL0     C32698   1.747   3.891   1.160  0.4361  0.3521 -0.0669
  243MOL0     C32699   1.508   3.958   1.206 -0.9269  1.1305 -0.4700
  243MOL0     C32700   1.482   3.998   1.068 -1.0611  0.2911  0.1597
  243MOL0     O32701   1.421   4.124   1.054  0.0988 -0.1236  0.1429
  243MOL0     C32702   1.424   4.173   0.928  0.4376  0.3643 -0.2647
  243MOL0     C32703   1.532   4.252   0.898 -0.5003  0.1776  0.0342
  243MOL0     C32704   1.534   4.313   0.769 -0.2608  0.0774  0.7238
  243MOL0     C32705   1.435   4.290   0.674 -0.5875 -0.8754 -0.5074
  243MOL0     O32706   1.444   4.347   0.549 -0.0973  0.2121  0.4056
  243MOL0     C32707   1.566   4.391   0.511  0.7350 -0.4155 -0.0623
  243MOL0     C32708   1.561   4.395   0.353  1.6289  0.8915 -0.4425
  243MOL0     C32709   1.534   4.533   0.292  0.7078 -0.7094 -0.5113
  243MOL0     C32710   1.575   4.528   0.141 -0.1563 -0.2097  0.9145
  243MOL0     C32711   1.709   4.591   0.101 -0.0876  0.3937 -0.4108
  243MOL0     C32712   1.830   4.509   0.151 -0.5283 -0.3202 -0.1657
  243MOL0     C32713   1.974   4.573   0.143  0.7184 -0.1127 -0.2661
  243MOL0     C32714   2.052   4.530   0.017  0.4673 -0.0967 -0.8479
  243MOL0    Cl32715   2.212   4.614   0.028  0.2864  0.4011 -0.1073
  243MOL0     C32716   1.325   4.209   0.708 -0.2877  0.7553 -0.3206
  243MOL0     C32717   1.317   4.151   0.838  0.2847  0.3161 -0.1041
  243MOL0     O32718   1.513   3.918   0.972  0.6177  0.5110 -0.0081
  243MOL0     C32719   1.399   3.967   1.297  0.8580 -0.2389  0.0720
  243MOL0     C32720   1.403   3.918   1.420 -0.8377  0.3458 -0.2458
  243MOL0     N32721   1.595   4.234   1.896  0.0847 -0.9252  0.2808
  243MOL0     N32722   1.517   4.279   1.992  0.2451 -0.7026 -0.1293
  243MOL0     C32723   1.040   4.713   2.855 -0.2564 -0.3399  0.2764
  243MOL0     C32724   0.929   4.782   2.904 -0.1994  0.0786 -0.3184
  243MOL0     C32725   0.652   5.087   3.091 -0.2047  0.4807  0.6919
  243MOL0     C32726   0.623   5.052   3.224  0.6233 -0.4527 -0.0338
  243MOL0     C32727   0.517   5.102   3.300  0.7741  1.0502 -0.1478
  243MOL0     C32728   0.436   5.203   3.252  0.3637 -0.4358 -0.1804
  243MOL0     O32729   0.326   5.241   3.324  0.2747  0.0110 -0.3148
  243MOL0     C32730   0.292   5.383   3.324  0.4344 -0.0589  0.4281
  243MOL0     C32731   0.239   5.448   3.457 -0.3571 -0.3228 -0.2377
  243MOL0     C32732   0.115   5.359   3.481 -0.3742  0.6425 -0.4741
  243MOL0     C32733   0.019   5.439   3.571 -0.6863 -0.1628  0.4070
  243MOL0     C32734  -0.066   5.356   3.655  0.5862  0.2255 -0.9744
  243MOL0     C32735  -0.146   5.296   3.718 -0.8412  0.2709  0.0735
  243MOL0     C32736   0.465   5.251   3.124  0.4140  0.3733 -1.0622
  243MOL0     C32737   0.568   5.198   3.049  0.3989  0.5651  0.2494
  243MOL0     H32738   1.116   4.968   3.126  0.3954 -0.8669  0.1408
  243MOL0     H32739   1.279   4.860   3.031  0.1114  1.5761 -1.4521
  243MOL0     H32740   1.435   4.748   2.909 -1.2372  0.4354 -0.1461
  243MOL0     H32741   1.412   4.601   3.003 -0.8629  1.2350  0.3659
  243MOL0     H32742   1.526   4.641   2.722  1.6311 -1.0620 -0.5656
  243MOL0     H32743   1.593   4.571   2.866 -0.2314  0.2525 -0.3384
  243MOL0     H32744   1.549   4.382   2.742 -1.4718 -1.4988 -0.9004
  243MOL0     H32745   1.426   4.386   2.866  1.4845  2.9937  1.3841
  243MOL0     H32746   1.257   4.405   2.702 -0.5922  1.6644  0.8527
  243MOL0     H32747   1.327   4.538   2.626 -1.7641 -1.0170  0.7168
  243MOL0     H32748   1.466   4.279   2.553  1.1897  1.5156 -2.1468
  243MOL0     H32749   1.304   4.322   2.493 -0.9929  0.1283  2.4804
  243MOL0     H32750   1.395   4.527   2.407  1.3607  1.0855 -0.3087
  243MOL0     H32751   1.527   4.528   2.499 -1.5067  0.8177  1.4241
  243MOL0     H32752   1.593   4.464   2.276 -0.0721 -0.3542  0.7919
  243MOL0     H32753   1.636   4.324   2.365  1.1397 -0.1553 -2.6585
  243MOL0     H32754   1.387   4.372   2.195  3.0844  2.1299 -1.3773
  243MOL0     H32755   1.413   4.225   2.290  2.9232 -0.6964  1.1649
  243MOL0     H32756   1.731   4.135   2.187 -0.4831 -3.4291 -1.2647
  243MOL0     H32757   1.850   4.172   1.821  1.0899 -1.2383  0.4788
  243MOL0     H32758   1.884   4.122   1.990 -2.8749  0.0056  3.2205
  243MOL0     H32759   1.775   3.896   1.921 -2.2398  1.2492  0.5803
  243MOL0     H32760   1.866   3.956   1.776  0.3320  2.6300 -0.6800
  243MOL0     H32761   1.680   4.053   1.672 -1.9364 -1.1580 -0.9275
  243MOL0     H32762   1.576   4.004   1.805  0.4539 -0.8795  0.0496
  243MOL0     H32763   1.638   3.761   1.755  4.1616 -0.8692 -1.9174
  243MOL0     H32764   1.738   3.800   1.637  0.5461 -0.1781  1.8783
  243MOL0     H32765   1.733   3.827   1.425 -1.0771 -1.3428  0.5633
  243MOL0     H32766   1.746   3.807   1.090  3.4563  0.7113 -0.6907
  243MOL0     H32767   1.742   3.984   1.103 -4.4242 -0.4849 -1.4309
  243MOL0     H32768   1.840   3.872   1.216 -0.5749 -1.4168  1.0937
  243MOL0     H32769   1.606   4.276   0.974  2.2411 -0.7861 -2.1268
  243MOL0     H32770   1.608   4.391   0.755 -0.5021  0.6457  2.3982
  243MOL0     H32771   1.590   4.491   0.549 -1.3241  0.2128 -0.3188
  243MOL0     H32772   1.641   4.318   0.543  0.3545 -0.4578  0.7746
  243MOL0     H32773   1.655   4.351   0.317  1.4576  0.6549 -0.6011
  243MOL0     H32774   1.487   4.325   0.315  1.4727  1.0650 -0.4565
  243MOL0     H32775   1.594   4.603   0.350 -2.2446 -1.4409  3.9028
  243MOL0     H32776   1.428   4.560   0.302  0.9993 -0.2309  2.0063
  243MOL0     H32777   1.562   4.430   0.095  0.2870  0.3080 -0.3438
  243MOL0     H32778   1.506   4.587   0.081  1.6463  0.2751 -0.7801
  243MOL0     H32779   1.720   4.695   0.135  4.7355 -0.3234  0.9279
  243MOL0     H32780   1.709   4.595  -0.009  2.0133 -1.0109 -0.5059
  243MOL0     H32781   1.815   4.492   0.258 -0.9939 -4.2254 -0.6940
  243MOL0     H32782   1.829   4.412   0.099 -0.7670 -0.8950  0.8941
  243MOL0     H32783   2.020   4.558   0.242 -1.8184  2.0522  1.3913
  243MOL0     H32784   1.962   4.681   0.132 -0.2161 -0.0673  0.9386
  243MOL0     H32785   1.991   4.555  -0.071 -1.5638  0.9710  0.7899
  243MOL0     H32786   2.069   4.422   0.030  1.9515  0.1408 -0.6135
  243MOL0     H32787   1.255   4.185   0.629  1.0610  1.6936 -1.8628
  243MOL0     H32788   1.229   4.090   0.859  0.8166 -0.5481 -0.3733
  243MOL0     H32789   1.308   4.012   1.258  1.0804  0.0417 -0.1226
  243MOL0     H32790   1.318   3.924   1.488 -1.3728 -2.2138 -0.6016
  243MOL0     H32791   1.021   4.630   2.787 -2.3639 -0.4853  0.9763
  243MOL0     H32792   0.829   4.746   2.882 -0.2393  0.8438 -1.4958
  243MOL0     H32793   0.673   4.972   3.277 -1.4927  0.3068  3.3974
  243MOL0     H32794   0.493   5.049   3.391 -0.9933 -0.2427 -1.3005
  243MOL0     H32795   0.384   5.440   3.308 -0.0672  0.0056 -2.8178
  243MOL0     H32796   0.227   5.403   3.238  0.7632  0.5343  0.3054
  243MOL0     H32797   0.235   5.556   3.467  0.3053 -0.3029 -0.1267
  243MOL0     H32798   0.307   5.417   3.537  0.0325 -0.9537 -0.8036
  243MOL0     H32799   0.148   5.263   3.520 -0.3849  0.1571 -1.6293
  243MOL0     H32800   0.071   5.343   3.382  1.5806  1.1961 -1.4783
  243MOL0     H32801  -0.036   5.501   3.500  2.2751  0.3194 -1.6251
  243MOL0     H32802   0.073   5.506   3.640 -1.2766 -0.2169  0.9326
  243MOL0     H32803  -0.209   5.234   3.778  1.3189 -0.9708  1.1497
  243MOL0     H32804   0.411   5.333   3.078 -0.1803  0.1462 -0.7887
  243MOL0     H32805   0.575   5.239   2.949 -2.1167  1.5686  0.4101
  244MOL0     O32806   4.501   0.386  11.251 -0.0144 -0.4447 -0.3162
  244MOL0     C32807   4.617   0.344  11.275  0.2295  0.6460 -0.1634
  244MOL0     O32808   4.735   0.422  11.267  0.1618 -0.3351  0.1685
  244MOL0     C32809   4.754   0.545  11.227  0.6560 -0.8397 -0.5260
  244MOL0     C32810   4.876   0.599  11.231  0.3389 -0.5124 -0.2205
  244MOL0     C32811   4.899   0.738  11.200  0.4100 -0.3494 -0.1698
  244MOL0     C32812   4.796   0.826  11.153  0.6555 -0.0481  0.4104
  244MOL0     O32813   4.812   0.966  11.136 -0.2026  0.8025 -0.0362
  244MOL0     C32814   4.928   1.022  11.085 -0.2974  0.6385  0.6846
  244MOL0     C32815   4.910   1.175  11.082 -0.4952 -0.7219 -0.0827
  244MOL0     C32816   4.892   1.218  10.938 -0.0387 -0.7330 -0.3510
  244MOL0     C32817   4.932   1.366  10.897  0.0607 -0.7156 -0.2847
  244MOL0     C32818   4.887   1.408  10.761 -0.5943 -0.6725 -0.3629
  244MOL0     C32819   4.916   1.562  10.736  0.6460 -0.1793  0.4594
  244MOL0     C32820   4.930   1.600  10.586 -0.1256 -0.0782  0.3199
  244MOL0     C32821   4.952   1.751  10.556 -0.1455  0.8078 -0.5939
  244MOL0     N32822   4.857   1.846  10.634 -0.2399  0.2871  0.0842
  244MOL0     C32823   4.890   1.969  10.682  0.4534 -0.0590 -0.2770
  244MOL0     C32824   4.786   2.014  10.751  0.3551 -0.2906  0.4466
  244MOL0     C32825   4.774   2.139  10.838  0.1871 -0.7532  0.2148
  244MOL0     C32826   4.655   2.226  10.787 -0.6133  0.3280 -0.2503
  244MOL0     C32827   4.515   2.178  10.824  0.4476 -0.1287 -1.0711
  244MOL0     C32828   4.422   2.291  10.789 -0.9344 -0.1292  0.2317
  244MOL0     O32829   4.404   2.303  10.650 -0.2622  0.0531  0.3732
  244MOL0     C32830   4.327   2.405  10.605  0.4138  1.0084  0.1619
  244MOL0     C32831   4.334   2.431  10.467 -0.2327 -0.7625  0.5515
  244MOL0     C32832   4.256   2.513  10.390 -0.4706  0.5288 -0.2150
  244MOL0     C32833   4.277   2.512  10.235 -0.4544 -0.1286 -0.9626
  244MOL0     C32834   4.177   2.600  10.467  0.0424  0.3794  0.3844
  244MOL0     C32835   4.123   2.724  10.414 -0.3750  0.2077 -0.4315
  244MOL0     O32836   4.004   2.769  10.458  0.0945 -0.5646  0.0462
  244MOL0     C32837   3.958   2.885  10.396 -0.0378 -0.8900 -1.7635
  244MOL0     C32838   4.010   3.016  10.432 -0.5767 -0.3229 -0.3235
  244MOL0     C32839   3.967   3.134  10.364  0.1527  0.3238 -0.2730
  244MOL0     C32840   3.874   3.123  10.266  0.5441 -0.2520  0.2458
  244MOL0     O32841   3.837   3.242  10.191 -0.1574 -0.4207 -0.5984
  244MOL0     C32842   3.821   3.378  10.257 -0.2056  0.0279  0.3173
  244MOL0     C32843   3.731   3.363  10.384  0.2915 -0.2156  0.4185
  244MOL0     C32844   3.668   3.490  10.421 -0.1302 -0.6448 -0.1563
  244MOL0     C32845   3.551   3.462  10.512  0.6876 -0.4368  0.4636
  244MOL0     C32846   3.524   3.580  10.598  0.0258  0.0830 -0.3031
  244MOL0     C32847   3.405   3.659  10.545  1.0808 -1.0285 -0.0838
  244MOL0     C32848   3.430   3.714  10.400 -0.4689 -0.5360  0.1532
  244MOL0     C32849   3.324   3.811  10.364 -0.0163  0.8455 -0.1130
  244MOL0    Cl32850   3.322   3.960  10.465  0.0052  0.4423 -0.2300
  244MOL0     C32851   3.827   3.006  10.230  0.2235 -0.2098 -0.6992
  244MOL0     C32852   3.864   2.890  10.295  0.5724  0.1908 -0.1680
  244MOL0     O32853   4.179   2.778  10.328 -0.6887 -0.6190 -0.7124
  244MOL0     C32854   4.153   2.570  10.598  0.3067  0.2441  0.6264
  244MOL0     C32855   4.235   2.481  10.672  0.3665  0.2937 -0.4177
  244MOL0     N32856   4.680   1.922  10.740  0.7182 -0.2089  0.5034
  244MOL0     N32857   4.729   1.828  10.666 -0.9059  0.2131  0.0230
  244MOL0     C32858   4.669   0.767  11.148 -0.1845 -0.1599 -0.2965
  244MOL0     C32859   4.644   0.631  11.180 -0.4403 -0.3399  0.5988
  244MOL0     C32860   4.635   0.203  11.327 -0.3867 -0.0943 -0.5258
  244MOL0     C32861   4.523   0.119  11.332  0.1070  0.2971 -0.1128
  244MOL0     C32862   4.530  -0.008  11.375  0.4605 -0.1448  0.0654
  244MOL0     C32863   4.649  -0.068  11.407 -0.8394 -0.0551 -0.1781
  244MOL0     O32864   4.653  -0.196  11.442 -0.1160 -0.0564  0.4832
  244MOL0     C32865   4.773  -0.265  11.483  0.4237  0.2419 -0.4733
  244MOL0     C32866   4.742  -0.403  11.525 -0.5519  0.1662  0.7992
  244MOL0     C32867   4.668  -0.414  11.661 -0.4921  1.2734  0.7304
  244MOL0     C32868   4.689  -0.562  11.703  0.8141 -0.2048  0.3134
  244MOL0     C32869   4.675  -0.672  11.606 -0.1706 -0.6188  1.0706
  244MOL0     C32870   4.673  -0.746  11.513 -0.1438 -1.4580  0.0030
  244MOL0     C32871   4.768   0.014  11.412  0.0296  0.0526  0.5123
  244MOL0     C32872   4.753   0.148  11.379 -0.4029  0.1743 -0.5078
  244MOL0     H32873   4.962   0.536  11.252  0.4848 -0.1576  0.2556
  244MOL0     H32874   4.993   0.785  11.227 -0.9668  2.1247  0.5928
  244MOL0     H32875   5.011   1.001  11.153 -1.1444 -0.3253  1.4562
  244MOL0     H32876   4.963   0.976  10.993 -2.0137 -4.0018  2.0757
  244MOL0     H32877   4.822   1.202  11.142 -0.1184 -1.1522  0.6844
  244MOL0     H32878   4.994   1.231  11.122 -1.3845 -0.4783  1.5234
  244MOL0     H32879   4.960   1.164  10.871  1.6396  1.5944 -0.6505
  244MOL0     H32880   4.788   1.184  10.926 -0.6238 -0.1775  2.5786
  244MOL0     H32881   4.906   1.438  10.975  2.2740  1.1475 -1.1365
  244MOL0     H32882   5.040   1.378  10.905 -0.0914  0.8384 -0.2421
  244MOL0     H32883   4.946   1.344  10.694  0.8418  0.1754  0.0600
  244MOL0     H32884   4.783   1.378  10.744 -1.4076  1.9136 -0.3868
  244MOL0     H32885   4.834   1.612  10.788 -0.3073 -2.2047  1.0153
  244MOL0     H32886   5.009   1.585  10.789 -0.6119  0.6872  2.4199
  244MOL0     H32887   5.008   1.533  10.547  0.1438 -0.4345  1.4393
  244MOL0     H32888   4.831   1.584  10.541 -1.0247  1.2577  1.7481
  244MOL0     H32889   4.938   1.776  10.450 -2.5192 -0.1939 -0.5650
  244MOL0     H32890   5.053   1.786  10.580  0.9190 -0.6122 -2.7043
  244MOL0     H32891   4.975   2.033  10.659  1.3418 -1.1544 -0.1250
  244MOL0     H32892   4.763   2.131  10.946  0.1830 -1.5390  0.1602
  244MOL0     H32893   4.864   2.196  10.809  0.3567  0.0231  2.1356
  244MOL0     H32894   4.652   2.222  10.678  3.7405 -1.8539 -0.5312
  244MOL0     H32895   4.669   2.328  10.824  5.2463  0.5039 -1.9438
  244MOL0     H32896   4.505   2.166  10.932 -2.6274  3.8870 -0.6245
  244MOL0     H32897   4.497   2.085  10.770 -1.5728  0.0131 -0.7545
  244MOL0     H32898   4.467   2.382  10.830  2.9114 -1.1634 -1.3119
  244MOL0     H32899   4.322   2.273  10.830 -0.5894  0.9619  1.6655
  244MOL0     H32900   4.408   2.378  10.407 -0.0903 -1.1081  1.0328
  244MOL0     H32901   4.353   2.588  10.213  1.4937 -1.3546  1.1346
  244MOL0     H32902   4.319   2.415  10.207 -2.2069 -1.4234  0.6318
  244MOL0     H32903   4.182   2.541  10.189 -1.3193  0.9240  1.3211
  244MOL0     H32904   4.080   3.019  10.515 -1.8580 -1.2264  0.8427
  244MOL0     H32905   4.007   3.227  10.402 -4.4850  1.7795  1.8930
  244MOL0     H32906   3.910   3.435  10.285  0.3213  0.5817 -2.2225
  244MOL0     H32907   3.774   3.442  10.182  1.2808  0.4944 -0.2537
  244MOL0     H32908   3.660   3.281  10.364  0.0035 -0.7457  3.2528
  244MOL0     H32909   3.793   3.321  10.463  3.0687 -0.4523 -1.7087
  244MOL0     H32910   3.637   3.540  10.329  0.0917 -1.1058 -0.4873
  244MOL0     H32911   3.738   3.566  10.459 -0.5347  0.6155 -1.8369
  244MOL0     H32912   3.471   3.420  10.451  3.3503 -3.9311 -0.9344
  244MOL0     H32913   3.577   3.386  10.585 -1.0267 -2.4764 -0.9461
  244MOL0     H32914   3.610   3.647  10.613  3.1214 -3.6269  0.2280
  244MOL0     H32915   3.493   3.555  10.700  0.8064  2.0666  0.4794
  244MOL0     H32916   3.315   3.598  10.552 -0.0538  0.7475  1.8889
  244MOL0     H32917   3.391   3.741  10.616 -2.0595  1.0544 -2.8163
  244MOL0     H32918   3.429   3.627  10.333  4.7171 -2.1285  1.6219
  244MOL0     H32919   3.533   3.751  10.392 -1.1736  1.5237  0.0782
  244MOL0     H32920   3.226   3.765  10.354  0.2333 -0.5111  2.7015
  244MOL0     H32921   3.354   3.848  10.265 -1.8878  3.6955  0.2769
  244MOL0     H32922   3.755   2.999  10.150 -3.2023 -1.2050  2.1923
  244MOL0     H32923   3.831   2.794  10.258 -0.9528  1.1047 -1.2732
  244MOL0     H32924   4.089   2.629  10.663  0.4720  1.4396 -0.2609
  244MOL0     H32925   4.223   2.478  10.779  2.6250  1.4414 -0.0774
  244MOL0     H32926   4.582   0.828  11.128 -0.8656 -1.3769 -1.1285
  244MOL0     H32927   4.544   0.591  11.167  0.5039 -2.6675 -0.1141
  244MOL0     H32928   4.426   0.160  11.311  0.1761  1.3827  1.5085
  244MOL0     H32929   4.438  -0.065  11.377  0.4917 -0.3354  3.6624
  244MOL0     H32930   4.838  -0.266  11.395  1.8064 -0.8875  0.5216
  244MOL0     H32931   4.819  -0.220  11.572 -0.8039 -3.0425  2.0059
  244MOL0     H32932   4.838  -0.455  11.518 -0.1311  1.1324 -2.3810
  244MOL0     H32933   4.681  -0.448  11.446  1.5769  1.1805 -1.5566
  244MOL0     H32934   4.564  -0.381  11.671 -0.1561  2.8450 -0.5261
  244MOL0     H32935   4.712  -0.344  11.732  0.6063  0.7640  0.5724
  244MOL0     H32936   4.625  -0.577  11.791  1.4275 -0.7102  0.6892
  244MOL0     H32937   4.792  -0.567  11.742  0.0535  0.7801  2.6682
  244MOL0     H32938   4.664  -0.801  11.422  1.1304 -0.1034 -0.9702
  244MOL0     H32939   4.861  -0.037  11.436  2.2005  2.4282 -2.1083
  244MOL0     H32940   4.839   0.212  11.363 -0.4457 -0.0332 -1.7020
  245MOL0     O32941   9.985   0.160   3.021  0.2299  0.4282 -0.1590
  245MOL0     C32942  10.084   0.198   3.084  0.6113 -0.6915  0.4110
  245MOL0     O32943  10.208   0.210   3.030 -0.5276  0.5021  0.3314
  245MOL0     C32944  10.227   0.184   2.893  0.9035  0.1047 -0.9183
  245MOL0     C32945  10.141   0.231   2.791  0.6200 -0.1891  0.0619
  245MOL0     C32946  10.179   0.214   2.658 -0.7025 -0.4611  0.8617
  245MOL0     C32947  10.306   0.152   2.630 -0.7541 -0.1765  0.2750
  245MOL0     O32948  10.351   0.132   2.501  0.1516  0.0907 -0.2187
  245MOL0     C32949  10.311   0.231   2.407 -0.6584  0.2878 -0.2202
  245MOL0     C32950  10.385   0.222   2.280 -0.1684  0.4433 -0.0340
  245MOL0     C32951  10.311   0.312   2.173  0.1871 -0.7839 -0.8270
  245MOL0     C32952  10.348   0.453   2.188 -0.9280  0.2000  0.2440
  245MOL0     C32953  10.264   0.559   2.117 -0.3441  0.1362  0.0593
  245MOL0     C32954  10.126   0.563   2.173  0.4225  0.4604 -0.2595
  245MOL0     C32955  10.053   0.686   2.109 -0.5051  0.0967  0.0501
  245MOL0     C32956   9.952   0.728   2.220 -0.1046 -0.4270  0.4393
  245MOL0     N32957   9.884   0.849   2.177  1.3339  0.2889  0.8544
  245MOL0     C32958   9.797   0.864   2.064  0.6458  0.2290  0.2979
  245MOL0     C32959   9.790   1.002   2.055  0.2548  0.1432 -0.0661
  245MOL0     C32960   9.698   1.063   1.956 -0.1270  0.7830 -0.2664
  245MOL0     C32961   9.779   1.167   1.867  0.3059  0.7455  0.4366
  245MOL0     C32962   9.699   1.291   1.822 -1.3887 -0.6508  0.1516
  245MOL0     C32963   9.788   1.375   1.721 -0.1311  0.0425  0.6110
  245MOL0     O32964   9.895   1.422   1.796  0.1639  0.0332  0.9234
  245MOL0     C32965  10.001   1.483   1.725 -0.1323  0.6826  0.4885
  245MOL0     C32966  10.131   1.467   1.768  0.6252 -0.6786 -0.1819
  245MOL0     C32967  10.239   1.539   1.711 -0.8842  0.0683  0.1600
  245MOL0     C32968  10.372   1.510   1.767  0.6920 -0.1871 -0.0648
  245MOL0     C32969  10.214   1.620   1.600 -0.2770 -0.1331 -0.0390
  245MOL0     C32970  10.320   1.690   1.524  0.0774  0.8543 -0.7064
  245MOL0     O32971  10.273   1.768   1.414  0.1037 -0.4826  0.0268
  245MOL0     C32972  10.351   1.873   1.374  0.4644  0.4533  0.6134
  245MOL0     C32973  10.294   1.997   1.393  1.0089 -1.2037  1.1689
  245MOL0     C32974  10.374   2.109   1.365  0.6869 -0.1587  0.4472
  245MOL0     C32975  10.503   2.099   1.325 -0.0113  0.4577  0.4525
  245MOL0     O32976  10.568   2.219   1.306 -0.2565  0.5135 -0.2120
  245MOL0     C32977  10.682   2.243   1.377 -0.0724  0.2125  0.8186
  245MOL0     C32978  10.731   2.394   1.365  1.1250  0.5940  1.2873
  245MOL0     C32979  10.801   2.423   1.232  1.0562 -0.3774 -0.2389
  245MOL0     C32980  10.853   2.563   1.195 -0.0215  0.3788 -0.7358
  245MOL0     C32981  10.922   2.563   1.058  0.6190  0.4835  0.0325
  245MOL0     C32982  10.986   2.698   1.036  0.1491 -0.2579 -1.6789
  245MOL0     C32983  11.114   2.723   1.121 -0.3135  0.2997 -0.2649
  245MOL0     C32984  11.173   2.867   1.099 -0.6252  0.2962  0.0753
  245MOL0    Cl32985  11.315   2.890   1.222 -0.1993 -0.2549  0.2088
  245MOL0     C32986  10.558   1.974   1.303 -0.7258  0.5840 -0.9514
  245MOL0     C32987  10.480   1.862   1.321  0.6480 -0.1791 -1.4519
  245MOL0     O32988  10.435   1.695   1.575  0.2118  0.0482 -0.0288
  245MOL0     C32989  10.086   1.626   1.551  1.2417  0.4827 -0.2898
  245MOL0     C32990   9.980   1.567   1.615 -0.3529 -0.5853 -0.4744
  245MOL0     N32991   9.870   1.065   2.159 -0.9593  0.2661  0.2137
  245MOL0     N32992   9.921   0.966   2.232 -0.9708 -1.2929  1.3590
  245MOL0     C32993  10.383   0.097   2.732  0.0647  0.7640  0.2080
  245MOL0     C32994  10.345   0.112   2.863 -0.1309  0.3751 -0.0793
  245MOL0     C32995  10.070   0.218   3.228 -0.0246 -0.0864 -0.4479
  245MOL0     C32996   9.948   0.184   3.292 -0.9897 -0.0236 -0.7910
  245MOL0     C32997   9.926   0.237   3.419  0.3385  0.7270 -0.2898
  245MOL0     C32998  10.026   0.303   3.484  0.4452  0.4106 -1.8151
  245MOL0     O32999  10.020   0.333   3.621 -0.4095  0.4112  0.2348
  245MOL0     C33000  10.026   0.207   3.702  0.2885 -0.8988  0.1190
  245MOL0     C33001  10.172   0.194   3.742  0.1002 -0.6590  0.6715
  245MOL0     C33002  10.200   0.279   3.861  0.1631 -0.4326  1.0468
  245MOL0     C33003  10.346   0.277   3.874 -0.7613  0.1961 -0.3069
  245MOL0     C33004  10.420   0.347   3.773  0.5786 -0.1111  0.4955
  245MOL0     C33005  10.476   0.420   3.691 -0.1422 -0.0559 -0.7388
  245MOL0     C33006  10.144   0.316   3.425 -0.9985 -0.1126  0.0862
  245MOL0     C33007  10.164   0.289   3.297 -0.3703 -0.4855  0.7252
  245MOL0     H33008  10.045   0.276   2.815 -0.2483 -2.0183  0.1492
  245MOL0     H33009  10.109   0.242   2.580  1.7472  2.9392 -0.3611
  245MOL0     H33010  10.206   0.248   2.382 -0.4549  2.0741  0.0004
  245MOL0     H33011  10.357   0.323   2.445 -0.5416 -0.1282  0.6566
  245MOL0     H33012  10.489   0.255   2.281 -0.4708  1.7646 -2.7087
  245MOL0     H33013  10.375   0.119   2.243 -0.4272 -0.0537  1.3525
  245MOL0     H33014  10.338   0.274   2.074 -2.0359 -1.3118 -1.2787
  245MOL0     H33015  10.202   0.303   2.183  0.0399  1.8332  1.0312
  245MOL0     H33016  10.350   0.471   2.295 -0.1312 -1.9024  0.6376
  245MOL0     H33017  10.451   0.466   2.154 -0.7368  3.4580  1.7557
  245MOL0     H33018  10.312   0.649   2.157  0.1109 -0.3409  0.6123
  245MOL0     H33019  10.238   0.553   2.011 -0.9535 -2.4132  0.2889
  245MOL0     H33020  10.064   0.479   2.142  0.3252  0.7592 -0.8981
  245MOL0     H33021  10.133   0.572   2.282 -0.3081 -0.4536 -0.1224
  245MOL0     H33022  10.133   0.760   2.100 -3.2065  3.3830  1.0415
  245MOL0     H33023  10.012   0.679   2.008 -0.4540 -1.1367  0.0897
  245MOL0     H33024   9.995   0.756   2.316 -0.2344 -1.1516  0.7135
  245MOL0     H33025   9.883   0.645   2.232 -3.2406  1.3184 -3.2357
  245MOL0     H33026   9.749   0.801   1.990 -1.1138  2.2828 -0.4134
  245MOL0     H33027   9.640   0.992   1.896 -0.5230  0.2060  0.7692
  245MOL0     H33028   9.616   1.115   2.007 -1.3545 -2.1440  1.0044
  245MOL0     H33029   9.807   1.117   1.774  3.8688  2.4510  0.4374
  245MOL0     H33030   9.869   1.210   1.911  0.2017 -0.9334  2.4492
  245MOL0     H33031   9.672   1.355   1.906  1.0150 -0.4932  0.8971
  245MOL0     H33032   9.609   1.261   1.769 -1.9920  0.3665  0.5812
  245MOL0     H33033   9.735   1.463   1.683  3.3540  2.2106  0.3497
  245MOL0     H33034   9.817   1.313   1.636 -2.1035  0.7927 -0.6892
  245MOL0     H33035  10.158   1.414   1.859 -1.4263 -0.4863  0.5902
  245MOL0     H33036  10.414   1.601   1.810  0.0155 -0.4335  1.1748
  245MOL0     H33037  10.366   1.444   1.854 -3.3569 -2.9331 -2.1205
  245MOL0     H33038  10.436   1.466   1.691 -0.6841 -1.0369 -0.7745
  245MOL0     H33039  10.189   2.011   1.416  1.0773  0.3602  0.5829
  245MOL0     H33040  10.332   2.209   1.364  0.0695 -0.4117  0.2547
  245MOL0     H33041  10.677   2.207   1.480  0.4828  0.8659  1.0828
  245MOL0     H33042  10.761   2.183   1.332 -2.8817 -2.3477 -1.0831
  245MOL0     H33043  10.644   2.458   1.384  0.9503 -0.1956  3.4362
  245MOL0     H33044  10.802   2.420   1.444  0.4280  2.9912  1.2055
  245MOL0     H33045  10.736   2.405   1.146  0.5891 -0.9292  0.2210
  245MOL0     H33046  10.879   2.347   1.226  0.9702 -0.3412 -2.7596
  245MOL0     H33047  10.773   2.636   1.209 -3.6325 -3.5166  0.9894
  245MOL0     H33048  10.930   2.593   1.267  0.7775 -1.2783 -0.8495
  245MOL0     H33049  10.839   2.545   0.989 -1.2731 -0.0166  2.3224
  245MOL0     H33050  10.994   2.482   1.041  1.4445  1.3962 -1.0180
  245MOL0     H33051  11.017   2.722   0.934 -2.8650  3.6792 -1.8904
  245MOL0     H33052  10.923   2.782   1.067 -1.2134 -1.4529 -1.0817
  245MOL0     H33053  11.194   2.649   1.115  0.4387  0.9565  1.1549
  245MOL0     H33054  11.088   2.706   1.226 -1.0750 -0.5400 -0.5706
  245MOL0     H33055  11.090   2.937   1.117 -2.9945 -2.5028  0.9295
  245MOL0     H33056  11.190   2.888   0.993 -0.9389 -0.6177 -0.1602
  245MOL0     H33057  10.658   1.970   1.263 -0.5484  2.9446 -0.8821
  245MOL0     H33058  10.509   1.757   1.322 -2.8934 -1.4433  2.8081
  245MOL0     H33059  10.060   1.692   1.469 -0.3462  0.9440  0.5420
  245MOL0     H33060   9.881   1.588   1.577 -0.1965  0.7902 -0.1418
  245MOL0     H33061  10.478   0.052   2.705 -0.1177  1.1844 -1.1955
  245MOL0     H33062  10.416   0.085   2.940  0.8619  2.4809 -0.2111
  245MOL0     H33063   9.878   0.122   3.236  0.3939 -0.1425 -2.4737
  245MOL0     H33064   9.836   0.225   3.479  0.2927 -2.2261 -0.8308
  245MOL0     H33065   9.967   0.220   3.793 -0.0660  2.9461 -0.4582
  245MOL0     H33066   9.989   0.117   3.653 -1.6166  0.9939 -2.1781
  245MOL0     H33067  10.237   0.222   3.658 -0.3725  0.4162  0.6497
  245MOL0     H33068  10.191   0.089   3.766  2.2867 -0.3988  0.3031
  245MOL0     H33069  10.159   0.238   3.954  0.1757 -2.9398  0.0122
  245MOL0     H33070  10.153   0.376   3.840 -1.1849 -1.2453  0.0799
  245MOL0     H33071  10.386   0.175   3.872 -0.0452  0.4311  0.7933
  245MOL0     H33072  10.374   0.307   3.975 -1.6361 -1.4088  0.4529
  245MOL0     H33073  10.523   0.496   3.632 -0.0010  0.3125 -0.1540
  245MOL0     H33074  10.220   0.370   3.479 -2.6718  0.5198  1.9341
  245MOL0     H33075  10.252   0.330   3.248 -2.2285 -0.3721 -2.9360
  246MOL0     O33076  11.472   7.316  11.327 -0.1037  0.0046  0.0512
  246MOL0     C33077  11.519   7.354  11.222  0.0043  0.0637 -0.5657
  246MOL0     O33078  11.528   7.487  11.182 -0.3109  0.1985 -0.7348
  246MOL0     C33079  11.455   7.569  11.256  0.2657  0.8982 -0.6273
  246MOL0     C33080  11.316   7.575  11.259  0.6115  0.9974  0.3857
  246MOL0     C33081  11.260   7.670  11.347  0.1486 -0.1320  0.0231
  246MOL0     C33082  11.339   7.770  11.418 -0.0813  0.5066 -0.7188
  246MOL0     O33083  11.299   7.848  11.520  0.8290 -0.2906  0.7914
  246MOL0     C33084  11.157   7.868  11.530 -0.5698 -0.2432 -0.1199
  246MOL0     C33085  11.096   7.957  11.424  0.1485  0.8726 -1.3749
  246MOL0     C33086  10.963   8.019  11.467 -0.3255 -0.3316  0.3144
  246MOL0     C33087  10.858   7.914  11.500 -0.0693 -0.3962  0.1739
  246MOL0     C33088  10.709   7.968  11.528 -0.0365  0.0271 -0.0169
  246MOL0     C33089  10.638   8.033  11.411  0.5608  0.6677 -0.8295
  246MOL0     C33090  10.540   8.136  11.437 -0.3363 -0.7006 -0.4070
  246MOL0     C33091  10.440   8.099  11.541 -0.7182 -0.1945 -0.0015
  246MOL0     N33092  10.322   8.053  11.481 -0.4914  0.3837 -0.1508
  246MOL0     C33093  10.301   7.942  11.399 -0.1364  0.0682  0.2047
  246MOL0     C33094  10.166   7.960  11.369 -0.2620  0.1882  0.1272
  246MOL0     C33095  10.073   7.878  11.279 -0.9725 -0.1548  0.1178
  246MOL0     C33096  10.002   7.747  11.344 -0.5718 -0.5849 -0.1254
  246MOL0     C33097  10.099   7.643  11.378 -0.0477  0.1765 -0.2290
  246MOL0     C33098  10.020   7.512  11.423  0.7764 -0.4291 -0.2271
  246MOL0     O33099  10.123   7.423  11.444 -0.8112 -0.4813  0.0473
  246MOL0     C33100  10.092   7.312  11.526 -0.4413 -1.7557  0.0854
  246MOL0     C33101   9.963   7.255  11.535  1.2411 -0.9805  0.9638
  246MOL0     C33102   9.938   7.152  11.629  0.1040 -0.4450  1.0158
  246MOL0     C33103   9.803   7.096  11.634 -0.1759 -1.1855  0.6016
  246MOL0     C33104  10.042   7.115  11.714 -0.0590 -0.3827  0.2304
  246MOL0     C33105  10.027   7.025  11.830  0.1998  0.2276  0.3414
  246MOL0     O33106  10.135   6.952  11.866 -0.0333  0.2499  0.5609
  246MOL0     C33107  10.137   6.906  11.994 -0.3776 -0.0703 -0.2933
  246MOL0     C33108  10.109   6.773  12.026 -0.3047 -0.0346  0.1473
  246MOL0     C33109  10.126   6.725  12.150  0.7080 -0.3896  0.4161
  246MOL0     C33110  10.172   6.803  12.248  0.7027 -0.5193 -1.5711
  246MOL0     O33111  10.194   6.759  12.377 -0.5208 -0.7700 -0.0982
  246MOL0     C33112  10.213   6.616  12.401  0.0685  0.4946  0.4090
  246MOL0     C33113  10.262   6.617  12.546  1.1338 -0.5262  0.4265
  246MOL0     C33114  10.294   6.490  12.612 -0.5921 -0.4451  0.4993
  246MOL0     C33115  10.170   6.410  12.630  0.5591  0.2150 -0.1060
  246MOL0     C33116  10.195   6.273  12.689  0.3086 -0.3021  0.9347
  246MOL0     C33117  10.062   6.190  12.687 -1.7741  0.8591  0.3479
  246MOL0     C33118   9.955   6.256  12.773  0.2123  0.0908 -1.3103
  246MOL0     C33119   9.840   6.150  12.786 -0.3270 -0.3355 -0.2038
  246MOL0    Cl33120   9.887   6.007  12.875 -0.1517 -0.0742 -0.3184
  246MOL0     C33121  10.203   6.933  12.219  0.4436  0.2773 -0.1483
  246MOL0     C33122  10.181   6.987  12.091  0.3616 -0.0408 -0.2705
  246MOL0     O33123   9.920   7.038  11.900  0.8724  0.1240  0.1176
  246MOL0     C33124  10.170   7.170  11.698 -0.0398 -0.2434 -1.0884
  246MOL0     C33125  10.193   7.273  11.604  0.2600  0.5111 -0.8877
  246MOL0     N33126  10.113   8.069  11.427 -1.0339 -0.2114  0.0173
  246MOL0     N33127  10.207   8.119  11.504  0.2187  0.1842  0.7843
  246MOL0     C33128  11.481   7.764  11.400 -0.0394 -0.2492 -0.3953
  246MOL0     C33129  11.533   7.663  11.319  0.6269 -0.6003  0.4419
  246MOL0     C33130  11.553   7.235  11.127 -0.8120 -0.2274 -1.2737
  246MOL0     C33131  11.598   7.261  11.000  1.1219 -0.4343 -0.5486
  246MOL0     C33132  11.632   7.156  10.917  0.2898  1.1315  0.5778
  246MOL0     C33133  11.613   7.019  10.957  0.1074 -0.2910  0.4760
  246MOL0     O33134  11.637   6.904  10.881  0.3876  0.2129  0.1250
  246MOL0     C33135  11.690   6.922  10.749  0.4501  0.1199  1.2913
  246MOL0     C33136  11.737   6.788  10.695 -0.0801  0.3824  0.0920
  246MOL0     C33137  11.633   6.715  10.591 -0.3221 -0.6569  0.2447
  246MOL0     C33138  11.546   6.615  10.660 -0.0735  1.1917  0.0119
  246MOL0     C33139  11.635   6.508  10.715  0.5144  0.0513  0.3879
  246MOL0     C33140  11.698   6.412  10.742  0.2748  0.5619  0.8624
  246MOL0     C33141  11.578   6.990  11.089  1.0999 -0.1299 -0.7932
  246MOL0     C33142  11.540   7.099  11.170 -0.0614 -0.5301  0.3695
  246MOL0     H33143  11.260   7.504  11.200  0.2604  1.1153  0.5732
  246MOL0     H33144  11.154   7.661  11.365 -0.2124  2.6143 -0.3435
  246MOL0     H33145  11.109   7.770  11.539  2.4061 -1.9991 -1.8231
  246MOL0     H33146  11.128   7.911  11.627 -2.7687 -2.6676  0.4453
  246MOL0     H33147  11.164   8.042  11.410  0.8388  0.7844  0.9547
  246MOL0     H33148  11.073   7.909  11.329  0.4788  1.2809 -1.6656
  246MOL0     H33149  10.985   8.086  11.550  0.1508 -0.3471  0.2041
  246MOL0     H33150  10.935   8.088  11.386  0.7964 -1.7672 -1.3902
  246MOL0     H33151  10.856   7.851  11.411  3.0164  1.2947 -1.2276
  246MOL0     H33152  10.898   7.858  11.586 -3.1707 -4.4524 -0.6874
  246MOL0     H33153  10.643   7.888  11.564 -0.7180  0.7646  0.3947
  246MOL0     H33154  10.712   8.044  11.606 -0.7600 -0.0873  0.1301
  246MOL0     H33155  10.710   8.076  11.341  0.7911  1.7355  0.0315
  246MOL0     H33156  10.593   7.954  11.350  0.3390 -0.3917  0.6338
  246MOL0     H33157  10.590   8.227  11.471  0.1105 -1.2870  0.5609
  246MOL0     H33158  10.482   8.164  11.349  1.6525  1.1097 -1.2285
  246MOL0     H33159  10.408   8.192  11.589 -0.9858 -0.3393  0.1024
  246MOL0     H33160  10.479   8.035  11.621 -0.0578 -0.5052 -0.5649
  246MOL0     H33161  10.366   7.865  11.360  0.9447  0.6486  0.8143
  246MOL0     H33162   9.999   7.950  11.243 -1.7772 -1.5347 -1.0752
  246MOL0     H33163  10.134   7.849  11.193  0.4550  1.1302  0.6473
  246MOL0     H33164   9.934   7.709  11.267 -0.9249 -3.7190  1.5367
  246MOL0     H33165   9.950   7.771  11.438 -0.0399  0.1675 -0.0154
  246MOL0     H33166  10.165   7.681  11.456 -1.2655 -1.7510  1.8731
  246MOL0     H33167  10.164   7.615  11.295 -1.3011  0.5008 -1.3639
  246MOL0     H33168   9.942   7.476  11.355 -2.4483  3.3006  1.1561
  246MOL0     H33169   9.967   7.524  11.518  0.6345  0.5010 -0.4215
  246MOL0     H33170   9.881   7.292  11.474  2.9921  1.9173  0.1574
  246MOL0     H33171   9.756   7.178  11.688  0.9894  0.1692 -0.3463
  246MOL0     H33172   9.758   7.079  11.536 -2.1124  3.3753  0.4300
  246MOL0     H33173   9.794   7.007  11.696 -1.0089 -0.8408  0.9958
  246MOL0     H33174  10.067   6.720  11.941 -1.2122  0.9814 -0.0681
  246MOL0     H33175  10.091   6.624  12.170 -3.4759  0.7445 -0.1111
  246MOL0     H33176  10.117   6.563  12.395  0.6258 -0.8539  2.4785
  246MOL0     H33177  10.284   6.564  12.336 -1.3189 -2.8956  1.3983
  246MOL0     H33178  10.349   6.683  12.555  1.2189 -0.3777 -1.1063
  246MOL0     H33179  10.181   6.669  12.596 -0.6413  0.4212 -3.0695
  246MOL0     H33180  10.334   6.524  12.708 -1.0732  1.7552 -0.0118
  246MOL0     H33181  10.383   6.445  12.569  3.6753  4.0157  3.5904
  246MOL0     H33182  10.099   6.467  12.692  0.1945  1.2943 -1.4804
  246MOL0     H33183  10.109   6.400  12.540  0.3514  2.8839 -0.3262
  246MOL0     H33184  10.230   6.298  12.790  0.9837 -1.3136  0.9674
  246MOL0     H33185  10.272   6.233  12.622 -0.6116  3.4061 -2.7618
  246MOL0     H33186  10.032   6.190  12.582  1.3857  0.5733 -0.6498
  246MOL0     H33187  10.093   6.097  12.737 -1.5141  0.5315 -0.4118
  246MOL0     H33188   9.908   6.344  12.726  0.3788 -0.1933 -2.0248
  246MOL0     H33189  10.002   6.278  12.869  2.7948  1.1929 -2.6979
  246MOL0     H33190   9.804   6.125  12.685 -1.0956  0.4776 -0.1498
  246MOL0     H33191   9.756   6.200  12.835  0.6462  2.5316 -1.2169
  246MOL0     H33192  10.231   7.003  12.297 -0.7705  2.8556 -1.8902
  246MOL0     H33193  10.212   7.090  12.077  1.9168  0.0678  3.0308
  246MOL0     H33194  10.251   7.150  11.767 -0.7455  0.5129 -0.0061
  246MOL0     H33195  10.293   7.310  11.588  0.9051 -0.6066  0.3723
  246MOL0     H33196  11.550   7.826  11.457  2.0608 -0.0175 -2.9822
  246MOL0     H33197  11.638   7.656  11.293  0.8422  2.0092  0.3293
  246MOL0     H33198  11.617   7.359  10.957  1.5262 -0.2979 -0.0686
  246MOL0     H33199  11.686   7.173  10.825 -0.6617  0.9783 -0.0262
  246MOL0     H33200  11.616   6.971  10.686  1.9285 -0.4752 -1.0275
  246MOL0     H33201  11.773   6.989  10.770  1.8711 -0.9661 -0.5566
  246MOL0     H33202  11.758   6.729  10.784 -0.7544 -2.9117 -1.7782
  246MOL0     H33203  11.831   6.811  10.644 -0.6301  2.2527 -0.1695
  246MOL0     H33204  11.683   6.667  10.507 -1.1020 -0.5954 -0.2653
  246MOL0     H33205  11.571   6.790  10.541  1.2822 -1.5382 -3.3623
  246MOL0     H33206  11.482   6.561  10.589  1.8015 -2.9201  1.1161
  246MOL0     H33207  11.483   6.655  10.740  1.0400  0.6514  1.1883
  246MOL0     H33208  11.748   6.321  10.770 -2.7265 -0.5292  3.2199
  246MOL0     H33209  11.588   6.888  11.126 -1.9541 -0.4068 -0.5308
  246MOL0     H33210  11.494   7.070  11.264  0.9623  1.7992  1.6640
  247MOL0     O33211   2.186   2.885   8.640  0.3215 -0.3646  0.5209
  247MOL0     C33212   2.073   2.870   8.691  0.2530  0.2340  0.1193
  247MOL0     O33213   1.974   2.962   8.680 -0.0547 -1.1384 -0.7326
  247MOL0     C33214   1.982   3.049   8.586 -1.0687 -0.0942  0.7499
  247MOL0     C33215   1.992   3.182   8.620 -0.6678 -0.3556 -0.6971
  247MOL0     C33216   2.010   3.270   8.512  1.1119 -0.2268 -1.1501
  247MOL0     C33217   1.997   3.228   8.378 -0.4289  0.0076  0.1513
  247MOL0     O33218   2.023   3.309   8.273  0.8168 -0.0458  0.1609
  247MOL0     C33219   1.934   3.420   8.268 -0.1792 -0.1675  0.1591
  247MOL0     C33220   1.811   3.388   8.194 -0.1509 -0.1158 -0.0609
  247MOL0     C33221   1.723   3.508   8.146  0.4053  0.3852 -0.2217
  247MOL0     C33222   1.777   3.594   8.022 -0.0059 -0.8964 -0.8339
  247MOL0     C33223   1.665   3.664   7.952 -0.0562  0.3537 -0.5655
  247MOL0     C33224   1.724   3.744   7.837  0.6928  0.1823  0.0534
  247MOL0     C33225   1.619   3.826   7.764  0.3010  0.3408  0.9081
  247MOL0     C33226   1.669   3.913   7.653 -0.5854 -0.5322  0.6107
  247MOL0     N33227   1.765   3.845   7.559 -0.2916 -0.1035  0.5704
  247MOL0     C33228   1.744   3.774   7.442  0.5724 -0.6668 -0.6109
  247MOL0     C33229   1.865   3.718   7.410  0.4055 -1.0880 -0.1479
  247MOL0     C33230   1.886   3.629   7.293 -0.0362  0.0274  0.1085
  247MOL0     C33231   1.932   3.719   7.175 -1.2259 -0.9749 -0.0439
  247MOL0     C33232   2.066   3.791   7.208 -0.5387 -0.5208 -0.3708
  247MOL0     C33233   2.098   3.863   7.074 -0.3679  0.3348 -0.0337
  247MOL0     O33234   2.032   3.991   7.049 -0.2759  0.8398 -0.3757
  247MOL0     C33235   2.103   4.094   6.995 -0.4621 -0.0340  0.6816
  247MOL0     C33236   2.047   4.217   7.010 -0.7233  0.5561 -0.0502
  247MOL0     C33237   2.100   4.325   6.931  0.7887 -0.1011 -0.2549
  247MOL0     C33238   2.041   4.460   6.960 -0.2250  0.2936 -0.6411
  247MOL0     C33239   2.217   4.321   6.855  0.6933  0.8203  1.3129
  247MOL0     C33240   2.288   4.427   6.778  0.5038  0.6577 -0.4525
  247MOL0     O33241   2.221   4.534   6.737 -0.8572  0.5535  0.7552
  247MOL0     C33242   2.291   4.630   6.665  0.7615 -0.8470  0.3858
  247MOL0     C33243   2.405   4.692   6.722 -0.0824 -0.4588  0.0694
  247MOL0     C33244   2.486   4.762   6.636 -0.0184 -0.2453  0.3582
  247MOL0     C33245   2.447   4.793   6.508  0.0690  0.0676  0.6878
  247MOL0     O33246   2.517   4.892   6.444 -0.5024 -0.4761  0.2117
  247MOL0     C33247   2.533   4.882   6.299  0.5990 -0.2479 -1.2012
  247MOL0     C33248   2.614   5.005   6.256 -0.2785 -0.2153 -0.8441
  247MOL0     C33249   2.515   5.118   6.221 -0.0368  0.2450 -0.1521
  247MOL0     C33250   2.576   5.256   6.227 -0.9650 -0.3869  0.6838
  247MOL0     C33251   2.475   5.372   6.242 -0.9397  0.2649  0.9400
  247MOL0     C33252   2.438   5.398   6.383 -0.4602 -0.7007 -0.4921
  247MOL0     C33253   2.331   5.510   6.391  0.5383  0.0339  0.1730
  247MOL0     C33254   2.226   5.481   6.488  0.5953  1.0534  0.0300
  247MOL0    Cl33255   2.160   5.634   6.554 -0.2343 -0.6799  0.4207
  247MOL0     C33256   2.329   4.738   6.461 -0.4133  0.2858 -0.2175
  247MOL0     C33257   2.255   4.652   6.536  0.6511  0.2983 -1.3844
  247MOL0     O33258   2.406   4.399   6.742  0.2256 -0.0171  0.1903
  247MOL0     C33259   2.271   4.189   6.855 -1.0789  0.5117  0.2479
  247MOL0     C33260   2.221   4.082   6.927 -0.4071  0.3962 -0.7043
  247MOL0     N33261   1.954   3.761   7.509  0.0578  0.5835  0.2481
  247MOL0     N33262   1.900   3.839   7.588  0.0333  0.1275 -0.6980
  247MOL0     C33263   1.976   3.093   8.352  0.8285 -0.1422 -0.4875
  247MOL0     C33264   1.972   3.003   8.452  0.7000 -0.1044 -0.5175
  247MOL0     C33265   2.052   2.749   8.775 -0.2264  0.9185 -0.3386
  247MOL0     C33266   1.930   2.739   8.844 -0.4498 -0.3366 -0.4970
  247MOL0     C33267   1.898   2.636   8.932  0.1804 -0.0668  0.5565
  247MOL0     C33268   1.980   2.526   8.946  0.3447 -0.3011  0.4433
  247MOL0     O33269   1.933   2.417   9.014 -0.2458  0.2241 -0.4341
  247MOL0     C33270   2.026   2.352   9.110 -0.3237 -0.7367  0.6550
  247MOL0     C33271   1.965   2.313   9.247 -0.3959  0.9452  0.0129
  247MOL0     C33272   1.903   2.436   9.318  0.0802 -0.0553  0.0428
  247MOL0     C33273   2.008   2.498   9.402  0.2717 -0.9198  0.1440
  247MOL0     C33274   1.969   2.612   9.484  0.6488  0.7013 -0.2108
  247MOL0     C33275   1.932   2.693   9.568 -0.8865  0.2752  0.2996
  247MOL0     C33276   2.102   2.536   8.876 -0.2389 -0.2290  0.2294
  247MOL0     C33277   2.149   2.646   8.791 -0.0207  0.3055 -0.2002
  247MOL0     H33278   1.998   3.221   8.721  3.5527  4.2064 -2.3108
  247MOL0     H33279   2.034   3.369   8.549 -2.2537  0.2385  0.1941
  247MOL0     H33280   1.911   3.460   8.367 -2.5146  1.2838 -0.9106
  247MOL0     H33281   1.988   3.488   8.203  4.4218 -2.9063  0.6192
  247MOL0     H33282   1.838   3.330   8.105 -0.1647 -2.5686  1.4357
  247MOL0     H33283   1.748   3.318   8.250 -0.6103  0.6291  0.3649
  247MOL0     H33284   1.637   3.456   8.103  1.5838 -2.6189  0.7581
  247MOL0     H33285   1.676   3.570   8.223 -0.9982 -0.3972 -0.4285
  247MOL0     H33286   1.850   3.671   8.046 -1.0832 -0.0865 -0.0166
  247MOL0     H33287   1.829   3.528   7.953  0.6437  1.6530 -2.9302
  247MOL0     H33288   1.584   3.598   7.918  0.6301  0.3324 -2.2440
  247MOL0     H33289   1.611   3.732   8.018  1.2604  0.3084  0.5949
  247MOL0     H33290   1.810   3.806   7.863  1.6804 -0.9179 -0.4543
  247MOL0     H33291   1.757   3.666   7.766  0.5683  1.0392 -0.9720
  247MOL0     H33292   1.554   3.751   7.719 -1.1088 -1.0508  4.8350
  247MOL0     H33293   1.561   3.887   7.833 -0.1050 -0.9636  1.7584
  247MOL0     H33294   1.725   3.998   7.693  1.4786 -0.4639 -2.1246
  247MOL0     H33295   1.587   3.937   7.585  0.4668 -2.5828 -1.5206
  247MOL0     H33296   1.651   3.755   7.389 -0.1495  1.2368 -0.0956
  247MOL0     H33297   1.954   3.548   7.320 -0.5627 -1.3448 -2.3631
  247MOL0     H33298   1.796   3.578   7.256 -0.2298 -0.7575  1.5889
  247MOL0     H33299   1.856   3.792   7.146 -1.2793 -1.4544 -1.1618
  247MOL0     H33300   1.960   3.658   7.088  3.3980  0.1088  0.4000
  247MOL0     H33301   2.144   3.718   7.229  2.2979  1.0351 -4.2160
  247MOL0     H33302   2.058   3.865   7.288  1.8286 -1.3572  0.7129
  247MOL0     H33303   2.084   3.798   6.988  2.5334 -2.6962  1.5675
  247MOL0     H33304   2.206   3.876   7.066 -0.0352  0.5769  3.3931
  247MOL0     H33305   1.957   4.226   7.070 -0.4492  3.0542  0.0678
  247MOL0     H33306   2.119   4.537   6.960 -0.9733  1.1262  1.8459
  247MOL0     H33307   1.969   4.472   6.878 -0.6110  0.7646 -0.2424
  247MOL0     H33308   1.987   4.457   7.055 -2.4030 -0.1874 -1.8017
  247MOL0     H33309   2.429   4.678   6.827 -0.8269  2.0570  0.6242
  247MOL0     H33310   2.582   4.791   6.677  0.2208 -2.8715  1.8751
  247MOL0     H33311   2.594   4.791   6.286  0.6678 -0.2806 -0.6677
  247MOL0     H33312   2.439   4.866   6.246  0.5130  0.3311 -1.2274
  247MOL0     H33313   2.676   5.028   6.343 -2.0262 -2.4740  1.1344
  247MOL0     H33314   2.678   4.980   6.171  0.1577 -0.0054 -0.5793
  247MOL0     H33315   2.441   5.123   6.302 -0.6927  4.1590 -0.7970
  247MOL0     H33316   2.468   5.113   6.122  2.0930  2.5377 -1.3821
  247MOL0     H33317   2.645   5.250   6.312 -1.2882 -0.7606  0.9305
  247MOL0     H33318   2.642   5.277   6.143 -0.7403 -2.5543  0.2421
  247MOL0     H33319   2.385   5.355   6.181  1.0522 -0.6342 -1.9322
  247MOL0     H33320   2.522   5.461   6.199  1.5621 -1.0647  0.8020
  247MOL0     H33321   2.402   5.303   6.423  1.4496 -0.2700  2.5132
  247MOL0     H33322   2.520   5.412   6.454 -1.5251 -2.2538  1.1242
  247MOL0     H33323   2.276   5.517   6.297 -2.1194  0.4038  1.6455
  247MOL0     H33324   2.390   5.600   6.408 -0.2298  0.8866 -1.4770
  247MOL0     H33325   2.259   5.419   6.572 -3.7438  0.3215  1.4361
  247MOL0     H33326   2.149   5.424   6.436  0.7535  2.7230 -2.2023
  247MOL0     H33327   2.289   4.761   6.363 -0.7554  2.7845  0.4315
  247MOL0     H33328   2.163   4.605   6.502  0.0635  0.9882 -0.7892
  247MOL0     H33329   2.351   4.163   6.786 -1.7092  0.7348 -0.5969
  247MOL0     H33330   2.280   3.992   6.917 -0.4213  0.5512 -2.6036
  247MOL0     H33331   1.969   3.050   8.253  0.6445 -2.2180  0.3742
  247MOL0     H33332   1.966   2.896   8.435 -0.8674 -0.1370  0.1071
  247MOL0     H33333   1.853   2.814   8.842 -0.9854 -0.8872 -0.8024
  247MOL0     H33334   1.796   2.637   8.968  0.3622 -1.6112  1.1813
  247MOL0     H33335   2.057   2.260   9.059 -1.0822  0.4185 -2.0309
  247MOL0     H33336   2.115   2.413   9.125 -1.1222  0.6532 -0.0946
  247MOL0     H33337   2.036   2.271   9.318  0.5834  1.7770 -0.4566
  247MOL0     H33338   1.884   2.240   9.234  1.9719 -2.2921  1.9898
  247MOL0     H33339   1.817   2.406   9.379 -0.6586 -0.6931 -1.2747
  247MOL0     H33340   1.852   2.501   9.247 -3.6972 -0.4540  2.1150
  247MOL0     H33341   2.097   2.527   9.347 -1.4730  0.2131 -2.2352
  247MOL0     H33342   2.048   2.426   9.474  1.4505  2.4653  3.1914
  247MOL0     H33343   1.897   2.763   9.642 -2.0317  0.0845 -0.0335
  247MOL0     H33344   2.178   2.463   8.902  2.1107  2.0760  0.3450
  247MOL0     H33345   2.249   2.639   8.749  1.7164 -0.1714  3.5247
  248MOL0     O33346   0.386   6.084   8.928  0.1731  0.1532  0.2539
  248MOL0     C33347   0.465   5.984   8.936  0.6842 -0.0864  0.3112
  248MOL0     O33348   0.496   5.903   8.831 -0.5464  0.0422  1.1731
  248MOL0     C33349   0.457   5.957   8.706 -0.4999  0.0582 -0.8810
  248MOL0     C33350   0.357   5.882   8.636 -0.4191  0.0105  0.2147
  248MOL0     C33351   0.329   5.918   8.502 -0.2815 -0.6856 -0.1888
  248MOL0     C33352   0.404   6.024   8.440 -1.2995  1.1996 -0.0910
  248MOL0     O33353   0.377   6.059   8.311  0.0474 -0.4130 -0.0468
  248MOL0     C33354   0.456   5.986   8.216  0.0957  0.2000 -0.2459
  248MOL0     C33355   0.402   5.998   8.083 -0.7944 -0.4281 -0.1098
  248MOL0     C33356   0.261   5.959   8.067  0.3084  0.6952 -1.1897
  248MOL0     C33357   0.219   5.827   8.134 -0.9914  0.2050 -0.4661
  248MOL0     C33358   0.070   5.811   8.111  0.3707 -0.4645  0.1271
  248MOL0     C33359   0.022   5.661   8.117 -0.5755 -0.4151  0.7221
  248MOL0     C33360   0.000   5.592   8.258 -0.2634 -1.2310  0.2366
  248MOL0     C33361  -0.049   5.455   8.225 -0.0452  0.6603 -0.6148
  248MOL0     N33362  -0.144   5.408   8.332  0.4000 -0.0501  0.9635
  248MOL0     C33363  -0.130   5.397   8.469 -0.9880 -0.3003 -0.3399
  248MOL0     C33364  -0.242   5.358   8.513  0.8192  0.2421  0.1348
  248MOL0     C33365  -0.285   5.354   8.661 -0.1676 -0.0835  0.7755
  248MOL0     C33366  -0.357   5.219   8.691  1.2060  1.2147  0.6091
  248MOL0     C33367  -0.267   5.094   8.672 -0.2709 -0.3821 -0.6891
  248MOL0     C33368  -0.165   5.069   8.782 -0.7508  0.2111 -0.1370
  248MOL0     O33369  -0.217   5.000   8.895 -0.5437  0.3046  0.7229
  248MOL0     C33370  -0.213   4.864   8.908  0.0960 -0.2998 -0.7634
  248MOL0     C33371  -0.187   4.785   8.797  0.2769  0.9317  0.7094
  248MOL0     C33372  -0.215   4.643   8.797 -0.1297 -0.3543 -0.3137
  248MOL0     C33373  -0.189   4.559   8.668  1.0425  0.2567 -0.1092
  248MOL0     C33374  -0.298   4.595   8.900 -0.7512  0.7135 -1.2226
  248MOL0     C33375  -0.372   4.477   8.902 -0.2254 -0.5443 -0.7555
  248MOL0     O33376  -0.349   4.395   9.011  0.1327  0.7594  0.3956
  248MOL0     C33377  -0.449   4.312   9.061 -0.2277  0.6473 -1.2781
  248MOL0     C33378  -0.418   4.216   9.157  0.6086  0.6391  0.0201
  248MOL0     C33379  -0.513   4.126   9.218  0.1690 -0.5642 -0.8394
  248MOL0     C33380  -0.645   4.127   9.172  0.5081 -0.5349 -0.5883
  248MOL0     O33381  -0.749   4.051   9.222 -0.6264  0.0640  0.2943
  248MOL0     C33382  -0.758   3.985   9.360 -0.2369 -0.6339  0.8631
  248MOL0     C33383  -0.735   4.086   9.472  0.0060  1.0887 -0.0566
  248MOL0     C33384  -0.815   4.220   9.453 -1.3552  1.3429 -1.1759
  248MOL0     C33385  -0.810   4.296   9.580 -0.5198  0.0293 -0.9357
  248MOL0     C33386  -0.854   4.436   9.560  0.5422 -0.5143  0.4681
  248MOL0     C33387  -0.822   4.532   9.675  0.0726 -0.2266  0.2472
  248MOL0     C33388  -0.912   4.493   9.794  0.0280 -0.6603 -0.4469
  248MOL0     C33389  -0.884   4.578   9.911 -0.5060 -0.1684 -0.0454
  248MOL0    Cl33390  -0.710   4.572   9.965  0.0120 -0.4348  0.4470
  248MOL0     C33391  -0.679   4.230   9.086  0.7570 -0.9793  0.6288
  248MOL0     C33392  -0.590   4.325   9.031  0.3497  0.1790 -0.6330
  248MOL0     O33393  -0.427   4.440   8.803 -0.3623  0.1851  0.3900
  248MOL0     C33394  -0.328   4.677   9.015  0.1129 -0.1809 -0.0471
  248MOL0     C33395  -0.274   4.810   9.015  0.1713  0.8620 -1.0877
  248MOL0     N33396  -0.334   5.347   8.410 -0.4210  0.4684  0.5564
  248MOL0     N33397  -0.272   5.376   8.296 -0.4204 -0.2371  0.1421
  248MOL0     C33398   0.504   6.091   8.507 -0.2445  0.4437 -0.0665
  248MOL0     C33399   0.532   6.060   8.649 -0.4691 -0.1203  0.9283
  248MOL0     C33400   0.502   5.936   9.072  0.1316  0.5180 -0.0737
  248MOL0     C33401   0.490   6.006   9.187 -0.0063  0.0112 -0.3194
  248MOL0     C33402   0.499   5.953   9.318 -0.5622  0.7416 -1.0491
  248MOL0     C33403   0.528   5.814   9.328  0.0033  0.4262  0.1644
  248MOL0     O33404   0.550   5.748   9.449 -0.6530  0.4947 -0.4663
  248MOL0     C33405   0.473   5.799   9.560 -0.0921 -0.7911 -0.4605
  248MOL0     C33406   0.463   5.682   9.658  0.0293  0.3489 -0.5704
  248MOL0     C33407   0.378   5.725   9.783 -0.3421 -0.8622 -0.2043
  248MOL0     C33408   0.396   5.647   9.917  0.5078 -0.0353  1.5986
  248MOL0     C33409   0.300   5.538   9.924  0.1896 -0.9616  0.4690
  248MOL0     C33410   0.231   5.442   9.914  0.4930  0.4301  0.3847
  248MOL0     C33411   0.545   5.734   9.215 -0.4268 -0.0383  0.4228
  248MOL0     C33412   0.541   5.802   9.091  0.1377 -0.6777 -0.3294
  248MOL0     H33413   0.310   5.800   8.690 -1.8555  0.1841 -0.7034
  248MOL0     H33414   0.255   5.871   8.439 -0.0215  0.1292 -1.1308
  248MOL0     H33415   0.561   6.015   8.216  0.1360  0.0636 -0.7347
  248MOL0     H33416   0.465   5.881   8.245 -0.7710  0.6978  1.9750
  248MOL0     H33417   0.418   6.100   8.046 -0.2074 -1.0838 -1.7795
  248MOL0     H33418   0.463   5.932   8.021  1.2139  0.9833  0.2593
  248MOL0     H33419   0.206   6.033   8.127  1.3762 -0.1959  0.9654
  248MOL0     H33420   0.230   5.963   7.962 -1.8736 -0.2172 -0.6165
  248MOL0     H33421   0.278   5.744   8.095  4.7928  1.6517  3.8059
  248MOL0     H33422   0.238   5.816   8.241 -0.4751 -0.5336 -0.6278
  248MOL0     H33423   0.008   5.870   8.179 -1.7836 -1.5377 -0.8086
  248MOL0     H33424   0.042   5.846   8.011 -1.5461 -1.2152  0.3619
  248MOL0     H33425  -0.079   5.664   8.075 -2.0762  0.8888  4.0417
  248MOL0     H33426   0.094   5.606   8.057 -0.6038  2.2830 -1.9842
  248MOL0     H33427   0.082   5.601   8.331 -0.8761 -0.7653  0.8858
  248MOL0     H33428  -0.081   5.653   8.299 -0.2791  0.7937 -2.5078
  248MOL0     H33429   0.033   5.383   8.231  0.1924  0.8778 -1.1659
  248MOL0     H33430  -0.104   5.458   8.131  1.2162  0.8020 -1.3785
  248MOL0     H33431  -0.044   5.424   8.529  1.0080  0.2360 -3.1860
  248MOL0     H33432  -0.200   5.362   8.730 -1.6588 -0.4851  2.7697
  248MOL0     H33433  -0.357   5.436   8.675  0.1514  0.2977  0.2262
  248MOL0     H33434  -0.448   5.211   8.630 -0.0467 -0.5020  2.5645
  248MOL0     H33435  -0.396   5.221   8.794 -1.2452 -1.6001 -0.1246
  248MOL0     H33436  -0.201   5.113   8.587  0.4951  0.2938  0.0389
  248MOL0     H33437  -0.329   5.005   8.659  1.3689 -1.8506  0.8772
  248MOL0     H33438  -0.129   5.168   8.810  2.1264 -0.7918  0.0220
  248MOL0     H33439  -0.079   5.016   8.741 -1.5392 -0.0108 -1.5608
  248MOL0     H33440  -0.158   4.816   8.697 -1.6552 -0.0628 -0.2147
  248MOL0     H33441  -0.096   4.572   8.612  0.1295 -1.5326 -2.1650
  248MOL0     H33442  -0.190   4.455   8.703 -1.9710 -0.1571 -1.1842
  248MOL0     H33443  -0.262   4.573   8.588  0.8945  0.8637  0.1316
  248MOL0     H33444  -0.318   4.217   9.200  2.1156 -0.9586 -3.0396
  248MOL0     H33445  -0.482   4.060   9.298 -0.5257 -1.1445 -1.0304
  248MOL0     H33446  -0.853   3.932   9.374 -0.4936 -0.6705 -0.8326
  248MOL0     H33447  -0.674   3.915   9.359 -0.4371 -0.8892 -0.8531
  248MOL0     H33448  -0.764   4.031   9.562  0.1698  0.8475 -0.1512
  248MOL0     H33449  -0.628   4.107   9.469 -0.4875  4.1800  0.6377
  248MOL0     H33450  -0.915   4.191   9.420 -0.9079 -1.2846 -0.4729
  248MOL0     H33451  -0.767   4.275   9.371  3.0468 -2.4073 -1.5311
  248MOL0     H33452  -0.870   4.246   9.655  0.1250 -0.3471 -0.6637
  248MOL0     H33453  -0.708   4.299   9.619 -1.1526  2.8115  0.7722
  248MOL0     H33454  -0.963   4.440   9.546 -0.2017 -0.4447  4.8643
  248MOL0     H33455  -0.808   4.470   9.467 -3.3839  0.6703 -1.2635
  248MOL0     H33456  -0.717   4.519   9.703  0.6547 -0.0028 -1.7253
  248MOL0     H33457  -0.835   4.632   9.634 -0.5613 -1.0480 -1.6255
  248MOL0     H33458  -0.897   4.388   9.820 -2.4805 -0.7718  0.8621
  248MOL0     H33459  -1.014   4.512   9.759 -0.3989 -0.3893  0.8710
  248MOL0     H33460  -0.942   4.534   9.992  0.1115 -1.5956 -0.3467
  248MOL0     H33461  -0.922   4.678   9.888 -4.8160 -1.3803  1.0008
  248MOL0     H33462  -0.779   4.225   9.045  2.2846 -0.6460 -3.6287
  248MOL0     H33463  -0.631   4.396   8.960  3.1952  1.8126 -0.7841
  248MOL0     H33464  -0.389   4.638   9.095 -2.4051  0.4839 -1.5369
  248MOL0     H33465  -0.308   4.870   9.099 -0.9133 -1.3916  0.1698
  248MOL0     H33466   0.564   6.167   8.457 -0.3337  2.0246  2.0892
  248MOL0     H33467   0.605   6.111   8.711 -0.4637  2.4370 -1.0120
  248MOL0     H33468   0.470   6.112   9.195 -0.4956  0.0024 -1.2149
  248MOL0     H33469   0.479   6.011   9.408 -2.4798  0.9737 -1.5917
  248MOL0     H33470   0.526   5.880   9.611  2.7188 -4.2362  2.7407
  248MOL0     H33471   0.380   5.836   9.518 -0.4635 -0.3331  0.7118
  248MOL0     H33472   0.560   5.644   9.692  0.2037 -0.8460 -2.2916
  248MOL0     H33473   0.415   5.597   9.608 -0.8754  0.3233  0.3029
  248MOL0     H33474   0.271   5.725   9.761 -0.8491  0.1578  1.9915
  248MOL0     H33475   0.407   5.831   9.791 -0.9986 -0.2400 -4.0267
  248MOL0     H33476   0.369   5.729   9.984 -0.6018  3.2539 -2.4199
  248MOL0     H33477   0.498   5.617   9.938  0.0495 -2.8402  0.2456
  248MOL0     H33478   0.164   5.359   9.922  1.1404  0.0607  2.5138
  248MOL0     H33479   0.566   5.627   9.210 -2.8955 -0.5398 -0.9061
  248MOL0     H33480   0.553   5.735   9.007 -0.5053 -4.2680  2.1846
  249MOL0     O33481   5.261   0.662   2.086 -1.0116 -0.0535 -0.6919
  249MOL0     C33482   5.376   0.709   2.055  0.1098  0.1287  0.3379
  249MOL0     O33483   5.487   0.644   2.074 -0.9640 -0.6801 -0.2541
  249MOL0     C33484   5.501   0.510   2.101  0.1170  0.5474 -0.4789
  249MOL0     C33485   5.407   0.411   2.065 -0.0901 -0.0396 -0.4503
  249MOL0     C33486   5.443   0.273   2.083  0.3538 -0.1360  0.3375
  249MOL0     C33487   5.559   0.235   2.152  0.2865 -0.0116 -0.7509
  249MOL0     O33488   5.580   0.106   2.181  0.3973  0.2790  1.0386
  249MOL0     C33489   5.472   0.055   2.262 -0.6000  0.1785 -0.0505
  249MOL0     C33490   5.550  -0.014   2.375  1.1659  1.2137 -0.2010
  249MOL0     C33491   5.595   0.082   2.481 -0.3247 -0.1225 -0.5105
  249MOL0     C33492   5.632   0.007   2.610  0.2194 -0.6131  0.0026
  249MOL0     C33493   5.669   0.110   2.725  0.6520  0.1645 -0.6818
  249MOL0     C33494   5.689   0.033   2.859  0.3156  0.4249  0.3735
  249MOL0     C33495   5.685   0.116   2.983 -0.9297 -0.1213 -0.4892
  249MOL0     C33496   5.552   0.196   3.021  0.2759  0.3484  0.3083
  249MOL0     N33497   5.436   0.104   3.047 -0.4773 -0.7912 -0.5901
  249MOL0     C33498   5.362   0.053   2.944  0.5547 -0.4908  0.0879
  249MOL0     C33499   5.288  -0.046   3.000 -0.2970 -0.4339 -0.2691
  249MOL0     C33500   5.190  -0.133   2.918  0.5214  0.0180  0.3299
  249MOL0     C33501   5.044  -0.071   2.910  0.1184  0.2948 -0.6376
  249MOL0     C33502   4.966  -0.118   2.780 -0.1409 -1.1158 -1.1222
  249MOL0     C33503   4.925  -0.260   2.776  0.5413 -0.1955  0.5097
  249MOL0     O33504   4.869  -0.283   2.649  0.8574 -0.6514  0.5761
  249MOL0     C33505   4.736  -0.306   2.658  0.0421  0.4126  0.1608
  249MOL0     C33506   4.657  -0.198   2.695 -0.0584 -0.3321 -0.1114
  249MOL0     C33507   4.515  -0.203   2.699  0.7350 -0.0331  0.7528
  249MOL0     C33508   4.445  -0.073   2.732  0.1072  0.5053 -1.1980
  249MOL0     C33509   4.448  -0.333   2.670 -0.4982 -0.5781 -0.2318
  249MOL0     C33510   4.302  -0.353   2.682  0.1761 -0.9580 -0.7816
  249MOL0     O33511   4.249  -0.475   2.640 -0.5369 -0.0792 -0.1287
  249MOL0     C33512   4.116  -0.494   2.641  0.6941 -0.2187 -0.9841
  249MOL0     C33513   4.038  -0.501   2.521  0.0534  0.1547 -0.4159
  249MOL0     C33514   3.902  -0.537   2.529  0.3818  0.5256 -0.8809
  249MOL0     C33515   3.842  -0.561   2.651  0.3480  0.0577  0.2329
  249MOL0     O33516   3.711  -0.577   2.645 -0.1822 -0.4481  0.1671
  249MOL0     C33517   3.623  -0.604   2.755 -0.3548 -0.3328  0.5370
  249MOL0     C33518   3.594  -0.478   2.842 -0.2885  0.4035 -0.2032
  249MOL0     C33519   3.549  -0.360   2.752 -0.0683  0.1417  0.0360
  249MOL0     C33520   3.510  -0.245   2.828 -0.4981 -1.0016 -0.2737
  249MOL0     C33521   3.420  -0.164   2.745 -0.1386  0.4735  0.2696
  249MOL0     C33522   3.401  -0.020   2.796  0.1224 -0.3126  0.2793
  249MOL0     C33523   3.331   0.068   2.694 -0.7425 -0.6323 -0.4718
  249MOL0     C33524   3.321   0.219   2.743  0.4781  0.3609  0.4314
  249MOL0    Cl33525   3.174   0.270   2.827  0.0758  0.1340  0.2180
  249MOL0     C33526   3.915  -0.550   2.769 -0.6281 -0.2846  0.4609
  249MOL0     C33527   4.054  -0.520   2.761 -0.0378  0.4179 -1.2300
  249MOL0     O33528   4.233  -0.269   2.742  0.9781 -0.2082 -0.1724
  249MOL0     C33529   4.533  -0.440   2.634 -0.1126  1.2271 -0.5237
  249MOL0     C33530   4.670  -0.426   2.627  0.4411 -1.0568 -0.4106
  249MOL0     N33531   5.318  -0.048   3.143  0.5644  0.2200  0.0069
  249MOL0     N33532   5.402   0.046   3.160  0.1138 -0.7443 -0.8500
  249MOL0     C33533   5.652   0.337   2.185 -0.0585  0.3513  0.6251
  249MOL0     C33534   5.622   0.471   2.152  0.2549 -0.1122  0.4749
  249MOL0     C33535   5.377   0.839   1.986 -0.1089 -0.5730  0.0476
  249MOL0     C33536   5.269   0.932   1.983  0.2722  0.2103 -0.1273
  249MOL0     C33537   5.275   1.049   1.907 -0.0608 -0.5352  0.0932
  249MOL0     C33538   5.392   1.085   1.832  0.5898  0.2038 -0.2134
  249MOL0     O33539   5.395   1.205   1.766 -0.7220 -0.3803  0.7248
  249MOL0     C33540   5.499   1.238   1.676  0.8298  0.0640  1.5625
  249MOL0     C33541   5.504   1.392   1.663 -0.6627 -0.4261  0.2460
  249MOL0     C33542   5.369   1.457   1.653 -0.4417 -0.1068  0.1610
  249MOL0     C33543   5.368   1.588   1.573  0.3694 -0.3105  0.8919
  249MOL0     C33544   5.250   1.674   1.611  0.0261 -0.0281  0.0313
  249MOL0     C33545   5.150   1.739   1.620 -1.1285 -0.0501 -0.3898
  249MOL0     C33546   5.498   0.993   1.834 -0.1916  0.0515  0.2988
  249MOL0     C33547   5.488   0.872   1.900 -0.0931 -0.1969 -0.5832
  249MOL0     H33548   5.315   0.428   2.009 -0.6668  0.2112  0.5482
  249MOL0     H33549   5.372   0.197   2.050  1.0197 -0.3926 -0.5274
  249MOL0     H33550   5.407   0.127   2.312 -0.2575 -0.9942  2.2334
  249MOL0     H33551   5.410   0.001   2.189 -1.3149  2.1320 -0.9509
  249MOL0     H33552   5.471  -0.077   2.417  1.9970  1.4630  1.8394
  249MOL0     H33553   5.635  -0.069   2.333  0.7164 -0.3691  0.8667
  249MOL0     H33554   5.680   0.143   2.452 -1.7965  2.9283  1.1289
  249MOL0     H33555   5.509   0.146   2.501 -2.0770 -2.0123 -1.5776
  249MOL0     H33556   5.556  -0.062   2.649  0.5962  0.0810  2.1082
  249MOL0     H33557   5.720  -0.056   2.597 -0.1968 -1.1689 -0.1467
  249MOL0     H33558   5.762   0.166   2.707 -0.4898  1.7472 -2.0008
  249MOL0     H33559   5.597   0.192   2.738  0.1494 -0.4629  0.7009
  249MOL0     H33560   5.616  -0.045   2.881 -1.1297  2.0397  1.6540
  249MOL0     H33561   5.787  -0.016   2.857  0.0056 -0.2210  0.8258
  249MOL0     H33562   5.710   0.057   3.072 -2.2869  2.2293  1.6200
  249MOL0     H33563   5.760   0.192   2.961  2.9141 -3.7892 -1.4237
  249MOL0     H33564   5.520   0.266   2.943  1.6648  1.6998  0.8858
  249MOL0     H33565   5.570   0.259   3.109 -1.8323 -1.4963  2.1497
  249MOL0     H33566   5.380   0.074   2.839  1.6138 -0.1752  0.3230
  249MOL0     H33567   5.239  -0.155   2.823  3.8239  1.3105  1.6085
  249MOL0     H33568   5.180  -0.224   2.977  3.2983 -2.7396 -3.0593
  249MOL0     H33569   5.039   0.037   2.890 -1.6975 -0.0285 -2.1726
  249MOL0     H33570   4.989  -0.087   3.003  1.3639 -0.1081  0.0511
  249MOL0     H33571   5.028  -0.089   2.695  0.9013  0.4120  0.0910
  249MOL0     H33572   4.880  -0.050   2.791  2.3515  1.9302  2.2571
  249MOL0     H33573   4.853  -0.268   2.857  0.1513 -1.2434  0.0749
  249MOL0     H33574   5.014  -0.324   2.778  0.1353 -0.7446  1.4252
  249MOL0     H33575   4.700  -0.100   2.715 -1.8324  0.4748 -0.0533
  249MOL0     H33576   4.368  -0.078   2.809 -0.5152  1.3471 -1.7524
  249MOL0     H33577   4.502   0.016   2.759  0.5362 -0.7626  2.8419
  249MOL0     H33578   4.386  -0.040   2.646 -0.2301 -0.2743 -1.2797
  249MOL0     H33579   4.083  -0.475   2.426 -0.3051 -1.1576 -0.9696
  249MOL0     H33580   3.843  -0.553   2.439 -0.2049 -1.4772 -0.1987
  249MOL0     H33581   3.520  -0.608   2.719 -0.4956  1.4440  0.6501
  249MOL0     H33582   3.651  -0.692   2.814 -0.4816  0.4774  1.8535
  249MOL0     H33583   3.511  -0.498   2.910  1.3852  4.0727  3.4090
  249MOL0     H33584   3.682  -0.451   2.901  2.2858 -1.8998 -2.7306
  249MOL0     H33585   3.467  -0.396   2.689  1.0261  0.0814 -1.3996
  249MOL0     H33586   3.635  -0.330   2.691  0.0176  3.5278  1.5941
  249MOL0     H33587   3.453  -0.286   2.912 -1.6108 -3.6695 -2.1991
  249MOL0     H33588   3.595  -0.185   2.861 -0.7974 -1.0902  0.7173
  249MOL0     H33589   3.325  -0.218   2.744 -0.7671  1.1731  4.3790
  249MOL0     H33590   3.456  -0.160   2.641 -0.4281 -2.2107 -0.0112
  249MOL0     H33591   3.341  -0.022   2.887 -0.4415  0.2341 -0.0750
  249MOL0     H33592   3.500   0.019   2.822  0.1657 -0.0807 -0.2300
  249MOL0     H33593   3.236   0.021   2.669 -1.6575  1.8851 -2.1119
  249MOL0     H33594   3.392   0.067   2.603 -1.1934  2.4098 -0.9216
  249MOL0     H33595   3.338   0.295   2.666  0.1856  2.0244  1.9616
  249MOL0     H33596   3.403   0.245   2.810  0.4883  0.8824  0.2200
  249MOL0     H33597   3.871  -0.557   2.867  2.0473  0.5366  1.8228
  249MOL0     H33598   4.113  -0.519   2.852 -2.2223  2.1532  0.3112
  249MOL0     H33599   4.491  -0.538   2.611 -1.1788  1.3721  0.6320
  249MOL0     H33600   4.726  -0.516   2.606 -0.3944 -2.5935  3.1704
  249MOL0     H33601   5.749   0.325   2.231  0.4581  2.0953  0.0797
  249MOL0     H33602   5.693   0.552   2.166 -1.8283  1.6695  1.3597
  249MOL0     H33603   5.188   0.896   2.045  3.8597 -2.6215  3.3958
  249MOL0     H33604   5.191   1.119   1.907  0.1960 -0.2196  0.4445
  249MOL0     H33605   5.592   1.203   1.722  0.0952 -2.6300  1.1780
  249MOL0     H33606   5.476   1.192   1.579  1.3486  1.7200  0.6027
  249MOL0     H33607   5.548   1.417   1.566  0.1310  1.1228  0.9835
  249MOL0     H33608   5.560   1.448   1.738  0.8761  2.9203 -3.1027
  249MOL0     H33609   5.330   1.476   1.753 -0.9545 -0.8049  0.0949
  249MOL0     H33610   5.302   1.385   1.606  0.8067 -2.0297  1.2360
  249MOL0     H33611   5.367   1.575   1.464 -2.2329 -2.3627  1.0620
  249MOL0     H33612   5.455   1.647   1.602  0.5059  0.8734 -1.6715
  249MOL0     H33613   5.056   1.788   1.636 -2.4190 -2.8755  1.6851
  249MOL0     H33614   5.591   1.011   1.783  0.1699  0.4147  1.0607
  249MOL0     H33615   5.569   0.801   1.885 -2.3786 -3.1523  0.0739
  250MOL0     O33616   8.051   9.817   1.938 -0.1730  0.6794 -0.5658
  250MOL0     C33617   8.010   9.896   2.022  0.1605 -0.3655  0.7206
  250MOL0     O33618   7.875   9.935   2.026  0.2046 -0.6549  0.1034
  250MOL0     C33619   7.778   9.861   1.963 -0.1394 -0.0204  0.1766
  250MOL0     C33620   7.774   9.826   1.834 -0.1224  1.1484  0.6865
  250MOL0     C33621   7.664   9.752   1.788  0.2659  0.5589 -0.6813
  250MOL0     C33622   7.544   9.734   1.854 -0.1222  0.2022 -0.1627
  250MOL0     O33623   7.432   9.694   1.779  0.5534  0.4131  0.5556
  250MOL0     C33624   7.354   9.804   1.722  0.3635  0.1157 -0.8241
  250MOL0     C33625   7.418   9.865   1.595 -0.7649  0.4217  0.2413
  250MOL0     C33626   7.419   9.765   1.475 -0.3072  0.0326  0.2626
  250MOL0     C33627   7.280   9.757   1.415  0.2799 -0.1621  1.2850
  250MOL0     C33628   7.288   9.707   1.263  0.4036  0.1246 -0.0327
  250MOL0     C33629   7.284   9.831   1.187 -0.6493  1.4727 -0.1536
  250MOL0     C33630   7.246   9.815   1.038 -0.2813 -0.2694  0.9388
  250MOL0     C33631   7.284   9.935   0.951  0.4819 -0.4320 -0.3644
  250MOL0     N33632   7.426   9.969   0.944  0.2141  0.0004  0.4252
  250MOL0     C33633   7.532   9.889   0.956  0.2821  0.0565 -0.0604
  250MOL0     C33634   7.635   9.981   0.971  0.4806 -0.0559 -0.0560
  250MOL0     C33635   7.780   9.958   1.006 -0.6617 -0.5108 -1.2482
  250MOL0     C33636   7.842   9.849   0.922 -0.1975  0.5800  0.4221
  250MOL0     C33637   7.978   9.820   0.970 -0.9742 -0.5911  0.2517
  250MOL0     C33638   8.000   9.724   1.090  0.1921  1.2451 -0.3155
  250MOL0     O33639   7.992   9.582   1.038  0.8128 -0.7511  0.0462
  250MOL0     C33640   8.094   9.500   1.040 -0.4402 -0.0921 -0.2291
  250MOL0     C33641   8.068   9.402   0.946 -0.2716 -0.3289  0.0812
  250MOL0     C33642   8.170   9.303   0.917  1.5315 -0.4407  0.8873
  250MOL0     C33643   8.134   9.215   0.799 -0.4927  0.1858  0.2075
  250MOL0     C33644   8.293   9.299   0.984  0.4026  0.2052 -0.5451
  250MOL0     C33645   8.397   9.191   0.966 -0.7243  0.1041  0.6183
  250MOL0     O33646   8.525   9.249   0.965 -0.7865 -0.4804 -0.5613
  250MOL0     C33647   8.624   9.175   1.016  1.0128  0.0233 -0.3164
  250MOL0     C33648   8.689   9.078   0.937  0.2844  0.2992  0.1154
  250MOL0     C33649   8.806   9.016   0.967 -0.3571  0.9612  0.4073
  250MOL0     C33650   8.858   9.040   1.105  0.6188  0.8342  1.0788
  250MOL0     O33651   8.973   8.977   1.149 -0.3687 -0.3859  0.3634
  250MOL0     C33652   9.057   9.044   1.235 -0.5785 -0.0590 -1.0394
  250MOL0     C33653   9.020   8.987   1.370  0.0669 -0.3709  0.1138
  250MOL0     C33654   9.064   9.087   1.476 -0.2264  1.0930 -0.1173
  250MOL0     C33655   9.213   9.122   1.487 -0.1403  0.3286 -0.8356
  250MOL0     C33656   9.229   9.246   1.567 -0.1964 -0.0220  0.3268
  250MOL0     C33657   9.381   9.291   1.563 -0.2862  0.5205  1.3970
  250MOL0     C33658   9.483   9.218   1.661  0.1118 -0.3521  0.7582
  250MOL0     C33659   9.624   9.285   1.664  0.4426 -0.4249 -0.8674
  250MOL0    Cl33660   9.669   9.273   1.837 -0.3218  0.1039 -0.5313
  250MOL0     C33661   8.793   9.138   1.185 -0.7381  0.0174  0.2335
  250MOL0     C33662   8.673   9.202   1.142  0.0833 -0.3922 -0.2160
  250MOL0     O33663   8.362   9.069   0.933 -0.3687  0.9026  0.7069
  250MOL0     C33664   8.308   9.392   1.090  0.2328 -0.8013 -0.0577
  250MOL0     C33665   8.211   9.500   1.111 -0.2406  0.2448 -0.0832
  250MOL0     N33666   7.586  10.112   0.973 -0.1676 -0.5661  0.4685
  250MOL0     N33667   7.458  10.102   0.958 -0.4743 -0.5556  0.0382
  250MOL0     C33668   7.547   9.771   1.987 -0.5339 -0.0923 -0.9793
  250MOL0     C33669   7.660   9.832   2.040  0.0618 -0.0982 -0.0821
  250MOL0     C33670   8.109   9.969   2.097 -0.1531 -1.5312 -0.5058
  250MOL0     C33671   8.238   9.920   2.114  0.8301  0.1927 -0.6692
  250MOL0     C33672   8.332   9.996   2.196  0.6872  0.1089 -0.1896
  250MOL0     C33673   8.292  10.112   2.259  0.2128  0.8642 -0.4579
  250MOL0     O33674   8.371  10.186   2.345  0.0017  0.1672 -0.5592
  250MOL0     C33675   8.423  10.115   2.458  0.1623 -0.8485 -0.3657
  250MOL0     C33676   8.359  10.187   2.584  0.4895  0.4455  0.3365
  250MOL0     C33677   8.426  10.143   2.708  0.1728 -0.2534 -1.7484
  250MOL0     C33678   8.563  10.211   2.739 -0.7323 -0.7341  0.2528
  250MOL0     C33679   8.660  10.122   2.789  0.0448 -0.3269  0.4292
  250MOL0     C33680   8.745  10.068   2.857 -0.1508  1.3698  0.4655
  250MOL0     C33681   8.156  10.162   2.241 -0.0391  0.1957 -0.7104
  250MOL0     C33682   8.066  10.091   2.167  0.5282 -0.3014 -0.4517
  250MOL0     H33683   7.859   9.841   1.768  0.8116 -1.0963  1.2631
  250MOL0     H33684   7.674   9.736   1.681  1.7408  1.9981 -0.7823
  250MOL0     H33685   7.252   9.773   1.695 -1.0506  2.6461  1.1575
  250MOL0     H33686   7.348   9.879   1.801  3.4789 -0.1488 -0.2195
  250MOL0     H33687   7.374   9.956   1.553 -2.2456 -0.6186 -0.5226
  250MOL0     H33688   7.523   9.894   1.610 -0.8198  2.9392 -2.9939
  250MOL0     H33689   7.489   9.802   1.400  0.2666  1.9113  1.6388
  250MOL0     H33690   7.449   9.669   1.517  2.4355  1.7765  2.6808
  250MOL0     H33691   7.214   9.688   1.467  0.6349 -2.3209 -0.9428
  250MOL0     H33692   7.235   9.857   1.420 -4.1790 -1.7515 -1.4844
  250MOL0     H33693   7.381   9.658   1.232 -0.0891 -0.7678 -0.1286
  250MOL0     H33694   7.207   9.641   1.231 -0.8583  1.9036 -0.6538
  250MOL0     H33695   7.204   9.893   1.228  0.6144  1.4120  2.6342
  250MOL0     H33696   7.388   9.862   1.204 -0.0777 -0.5727  0.3722
  250MOL0     H33697   7.282   9.720   0.998 -0.1913 -0.2948  1.0799
  250MOL0     H33698   7.136   9.816   1.033 -0.2332  1.4718 -0.4697
  250MOL0     H33699   7.233  10.027   0.981  2.7362  0.1401  2.1235
  250MOL0     H33700   7.252   9.915   0.848  1.3060 -4.6284  0.0180
  250MOL0     H33701   7.541   9.781   0.966  0.6282  0.1113  0.2774
  250MOL0     H33702   7.835  10.051   0.992 -1.2850 -0.0052 -0.4677
  250MOL0     H33703   7.796   9.947   1.114  1.3171  3.2870 -0.9806
  250MOL0     H33704   7.854   9.889   0.821  1.4418 -2.0552 -0.5037
  250MOL0     H33705   7.783   9.758   0.925  0.0231  0.3514 -1.2419
  250MOL0     H33706   8.034   9.911   0.991 -1.7311 -0.7717  3.6338
  250MOL0     H33707   8.036   9.765   0.896  2.5403  0.6074  1.8797
  250MOL0     H33708   7.920   9.732   1.164  1.3205  0.1917  1.0758
  250MOL0     H33709   8.094   9.752   1.138 -0.4895  3.6202 -0.2528
  250MOL0     H33710   7.974   9.402   0.893  0.4771  3.8518 -1.6574
  250MOL0     H33711   8.120   9.114   0.839  0.0232  0.9358  2.4148
  250MOL0     H33712   8.042   9.253   0.754 -1.5294 -0.6695  1.5195
  250MOL0     H33713   8.225   9.219   0.739 -0.7563  1.0970 -0.1505
  250MOL0     H33714   8.648   9.073   0.837  0.0135  3.8677 -0.0821
  250MOL0     H33715   8.856   8.950   0.897 -1.0193  2.7596 -1.9141
  250MOL0     H33716   9.162   9.024   1.215 -0.6455 -1.5344 -0.0026
  250MOL0     H33717   9.041   9.152   1.245  1.9361  0.1277  3.1519
  250MOL0     H33718   8.913   8.965   1.375  0.3114 -2.1879 -1.4705
  250MOL0     H33719   9.069   8.889   1.375  3.9938  1.4230  0.7405
  250MOL0     H33720   9.035   9.033   1.567 -0.2917 -1.1076 -1.3732
  250MOL0     H33721   9.005   9.179   1.471  1.8120  2.4473 -0.4949
  250MOL0     H33722   9.264   9.038   1.536 -1.0260 -0.9895 -2.0661
  250MOL0     H33723   9.252   9.124   1.385  0.6415 -1.3498 -0.6109
  250MOL0     H33724   9.204   9.250   1.673 -0.1891  1.3588  0.2989
  250MOL0     H33725   9.164   9.319   1.517  0.1929 -0.0577 -0.2458
  250MOL0     H33726   9.418   9.299   1.460  1.4068 -0.1233  1.9170
  250MOL0     H33727   9.375   9.394   1.597 -0.0659  1.9824 -2.4263
  250MOL0     H33728   9.499   9.112   1.640  0.9522 -1.1585  4.6914
  250MOL0     H33729   9.429   9.232   1.755 -4.0612 -0.9224 -1.2900
  250MOL0     H33730   9.618   9.391   1.637 -0.0325  0.6813  2.9261
  250MOL0     H33731   9.686   9.242   1.585  1.3859  0.5535 -0.6761
  250MOL0     H33732   8.833   9.158   1.284  5.0302 -2.6818 -1.1383
  250MOL0     H33733   8.628   9.278   1.206  0.4996  1.1118 -1.6504
  250MOL0     H33734   8.395   9.388   1.155 -0.2930 -1.7636  0.6220
  250MOL0     H33735   8.220   9.568   1.196 -5.0028  0.0683  0.8821
  250MOL0     H33736   7.462   9.759   2.052 -0.5012 -0.3781 -0.9879
  250MOL0     H33737   7.649   9.866   2.143  2.1683 -0.3915  0.2832
  250MOL0     H33738   8.268   9.822   2.077  0.1431 -0.4635  0.4472
  250MOL0     H33739   8.432   9.955   2.204  0.8958  0.2030 -1.8738
  250MOL0     H33740   8.395  10.010   2.452  1.1797 -1.0585 -2.5124
  250MOL0     H33741   8.532  10.118   2.465  0.0360  1.5629  1.8655
  250MOL0     H33742   8.251  10.173   2.592  0.1769  2.7388  0.7127
  250MOL0     H33743   8.369  10.296   2.577  0.4638  0.3785 -1.2313
  250MOL0     H33744   8.448  10.037   2.696 -0.2756 -0.6168  0.3913
  250MOL0     H33745   8.356  10.158   2.791  1.8847  3.4997 -0.7603
  250MOL0     H33746   8.539  10.293   2.808 -1.1795 -0.0699 -0.6583
  250MOL0     H33747   8.601  10.254   2.645 -3.7208  3.5512  0.6714
  250MOL0     H33748   8.805  10.008   2.923 -2.7540 -0.0718  1.6689
  250MOL0     H33749   8.124  10.244   2.303 -2.0668 -1.8473  1.1049
  250MOL0     H33750   7.964  10.126   2.152  1.0320  1.3918 -0.1899
  251MOL0     O33751   3.086   0.372  10.909  0.6359  0.8617  0.2305
  251MOL0     C33752   2.966   0.390  10.896 -0.1166 -0.8240  0.2254
  251MOL0     O33753   2.874   0.388  10.994  0.4428  0.7471  0.4657
  251MOL0     C33754   2.910   0.383  11.124 -0.4797  0.2927 -0.6452
  251MOL0     C33755   2.996   0.474  11.185  0.6780  0.5682 -0.7247
  251MOL0     C33756   3.031   0.456  11.324  0.0498 -0.5952 -0.6198
  251MOL0     C33757   2.966   0.357  11.405  0.1269  0.7520  0.3695
  251MOL0     O33758   2.981   0.361  11.541 -0.1161  0.4158  0.1218
  251MOL0     C33759   2.856   0.342  11.617 -0.4090  0.0474 -0.1086
  251MOL0     C33760   2.883   0.397  11.754  1.1040 -0.2626  0.8189
  251MOL0     C33761   2.758   0.383  11.841 -0.8445  0.1625  0.3191
  251MOL0     C33762   2.731   0.242  11.897  0.3112 -0.2561  0.5198
  251MOL0     C33763   2.602   0.223  11.973  0.3144  0.6851  0.2233
  251MOL0     C33764   2.588   0.320  12.089 -0.3154  0.1574 -0.1878
  251MOL0     C33765   2.475   0.273  12.182 -0.5113  0.0074 -0.5742
  251MOL0     C33766   2.339   0.251  12.111 -0.0407  0.3991  0.6149
  251MOL0     N33767   2.282   0.363  12.034  0.5813  0.6361 -0.1352
  251MOL0     C33768   2.287   0.374  11.897  0.0409  0.6299 -1.0793
  251MOL0     C33769   2.202   0.477  11.871 -0.1128 -0.9225 -0.2375
  251MOL0     C33770   2.193   0.552  11.747 -0.3988  0.0921  0.8051
  251MOL0     C33771   2.330   0.572  11.670 -0.2484 -0.0438 -0.4594
  251MOL0     C33772   2.436   0.670  11.725 -0.6774  0.7470  0.0683
  251MOL0     C33773   2.563   0.690  11.643  0.2771  0.6530 -0.5616
  251MOL0     O33774   2.654   0.777  11.711  0.9158 -0.7956  0.4813
  251MOL0     C33775   2.774   0.818  11.648  0.2342 -1.0846 -0.3222
  251MOL0     C33776   2.846   0.928  11.696 -0.1339 -0.8184  0.7384
  251MOL0     C33777   2.961   0.983  11.638  0.1380  0.1927 -0.0058
  251MOL0     C33778   3.002   1.123  11.693  0.6168  0.1204 -0.1222
  251MOL0     C33779   3.017   0.903  11.534 -0.5045 -0.1885  0.2134
  251MOL0     C33780   3.143   0.945  11.469  0.4716  0.0272  0.2918
  251MOL0     O33781   3.212   1.048  11.527 -0.3844 -0.0975 -0.2781
  251MOL0     C33782   3.347   1.068  11.487  0.1186  0.1090  0.1087
  251MOL0     C33783   3.449   1.017  11.565  0.9517  0.3904 -0.5250
  251MOL0     C33784   3.580   1.007  11.524  0.3730  0.2257  0.7052
  251MOL0     C33785   3.615   1.058  11.400 -0.5551  0.1031 -0.0489
  251MOL0     O33786   3.736   1.033  11.348  0.0126  0.5796 -1.2537
  251MOL0     C33787   3.791   1.115  11.234  0.9395  0.6576 -0.1831
  251MOL0     C33788   3.938   1.102  11.196 -0.3906  0.0058 -0.2836
  251MOL0     C33789   4.029   1.087  11.317 -0.6199  0.2643 -0.7480
  251MOL0     C33790   4.052   1.227  11.378 -0.0213 -0.0009 -0.6174
  251MOL0     C33791   4.170   1.227  11.478  0.9103  0.4904  1.0788
  251MOL0     C33792   4.217   1.365  11.532 -0.0774  0.3295  0.5405
  251MOL0     C33793   4.235   1.384  11.690 -1.1793  0.4174 -0.0659
  251MOL0     C33794   4.249   1.536  11.723  0.0686 -0.4319  0.5944
  251MOL0    Cl33795   4.412   1.598  11.680 -0.2838 -0.1633  0.3725
  251MOL0     C33796   3.515   1.129  11.320 -1.1337  0.3427  0.3532
  251MOL0     C33797   3.392   1.126  11.362  0.9608  0.3724  1.2452
  251MOL0     O33798   3.174   0.889  11.365  0.1779  0.2709 -0.0700
  251MOL0     C33799   2.950   0.798  11.481  0.2362  0.6829 -0.4834
  251MOL0     C33800   2.830   0.745  11.548 -0.9384  0.4680  0.1823
  251MOL0     N33801   2.141   0.519  11.987 -0.4068 -0.3521 -0.0381
  251MOL0     N33802   2.187   0.449  12.082  0.4321 -0.3771  0.7027
  251MOL0     C33803   2.876   0.268  11.344 -0.9677  0.3085  0.0134
  251MOL0     C33804   2.864   0.273  11.200 -0.2285 -0.5084 -0.8503
  251MOL0     C33805   2.926   0.420  10.756  0.2836 -0.6006  0.3942
  251MOL0     C33806   3.019   0.458  10.656 -0.1467 -0.1306  0.2403
  251MOL0     C33807   2.984   0.483  10.526 -0.1622 -0.0709  0.4032
  251MOL0     C33808   2.849   0.457  10.493  0.2657  1.0025 -0.1369
  251MOL0     O33809   2.798   0.458  10.367 -0.5708 -0.1439  0.7469
  251MOL0     C33810   2.874   0.531  10.264 -0.5598  0.7631  0.0853
  251MOL0     C33811   2.795   0.541  10.142  0.0256 -0.3761 -1.2167
  251MOL0     C33812   2.785   0.400  10.081  0.2586 -0.9666 -0.2651
  251MOL0     C33813   2.716   0.428   9.946 -0.6396 -0.2219  0.4106
  251MOL0     C33814   2.642   0.308   9.910  0.7930 -0.0044  1.7972
  251MOL0     C33815   2.586   0.202   9.882  0.2453 -0.6446  0.5295
  251MOL0     C33816   2.755   0.423  10.594 -0.6560  0.0572  1.2504
  251MOL0     C33817   2.787   0.402  10.717 -0.8556 -0.2350 -0.7277
  251MOL0     H33818   3.017   0.554  11.114 -1.7760  1.4082 -0.5884
  251MOL0     H33819   3.109   0.524  11.355 -0.5988 -0.0651 -0.1119
  251MOL0     H33820   2.774   0.397  11.570  0.1847 -0.8738 -2.3760
  251MOL0     H33821   2.823   0.238  11.628  1.0850 -0.3978  0.3409
  251MOL0     H33822   2.970   0.353  11.803  2.7889  2.0679  0.1287
  251MOL0     H33823   2.912   0.501  11.735 -3.2147  0.5410 -3.3928
  251MOL0     H33824   2.766   0.461  11.917  1.5279  1.7190 -1.3609
  251MOL0     H33825   2.662   0.400  11.789 -1.5364 -0.0626  1.4936
  251MOL0     H33826   2.741   0.183  11.806  2.3784  2.0923 -0.9358
  251MOL0     H33827   2.812   0.212  11.964  1.1334  1.3978  0.3205
  251MOL0     H33828   2.518   0.232  11.905 -0.7819  0.6700  1.5259
  251MOL0     H33829   2.612   0.121  12.011  2.6929 -0.0074 -2.0294
  251MOL0     H33830   2.685   0.332  12.139 -0.7269  0.6835  0.5068
  251MOL0     H33831   2.563   0.417  12.046 -2.2198 -0.6179 -0.9208
  251MOL0     H33832   2.500   0.178  12.231  2.6161  0.1221 -1.7147
  251MOL0     H33833   2.457   0.350  12.257 -0.0477 -0.2201 -0.2244
  251MOL0     H33834   2.264   0.226  12.186 -2.8167 -0.2200 -2.1662
  251MOL0     H33835   2.353   0.159  12.054  0.6146 -0.3506  1.9328
  251MOL0     H33836   2.362   0.329  11.834 -0.6837 -0.1728 -1.3914
  251MOL0     H33837   2.121   0.508  11.677 -2.1996  3.1109  0.6040
  251MOL0     H33838   2.163   0.655  11.767  2.3471  1.0999  0.1651
  251MOL0     H33839   2.306   0.617  11.573  1.2767 -0.7956 -1.2374
  251MOL0     H33840   2.386   0.478  11.660  0.5556 -0.2234  3.9461
  251MOL0     H33841   2.468   0.632  11.823 -2.7201 -2.5412 -0.3793
  251MOL0     H33842   2.391   0.768  11.742  1.7357  1.8314  0.5856
  251MOL0     H33843   2.542   0.731  11.544  0.3172  1.7295 -0.1375
  251MOL0     H33844   2.613   0.593  11.627  2.1754  1.4834  0.0333
  251MOL0     H33845   2.798   0.985  11.774 -2.5726 -0.2596 -1.0644
  251MOL0     H33846   3.095   1.113  11.751 -0.6528 -0.9449  1.8606
  251MOL0     H33847   3.017   1.190  11.608  1.4110 -0.9805 -0.8805
  251MOL0     H33848   2.920   1.166  11.751 -0.3658 -0.5105 -1.0297
  251MOL0     H33849   3.419   0.971  11.659 -0.6687  0.4376 -0.9795
  251MOL0     H33850   3.663   0.951  11.567  0.6642 -1.5007 -1.8762
  251MOL0     H33851   3.724   1.102  11.149 -0.4699 -1.5681  1.1533
  251MOL0     H33852   3.776   1.216  11.274 -0.3158 -0.0799  1.3565
  251MOL0     H33853   3.949   1.011  11.137 -2.7918  1.1721 -2.7520
  251MOL0     H33854   3.969   1.187  11.135 -0.9670  2.6651  2.8170
  251MOL0     H33855   4.117   1.032  11.282 -0.6673  2.2318 -4.3909
  251MOL0     H33856   3.978   1.018  11.385 -1.6254 -1.1024 -2.7834
  251MOL0     H33857   4.073   1.312  11.311  2.3879 -0.1641 -0.1494
  251MOL0     H33858   3.956   1.249  11.426  0.0014 -1.1949  0.0048
  251MOL0     H33859   4.248   1.174  11.423 -3.0212 -3.2382 -1.5685
  251MOL0     H33860   4.152   1.161  11.563  0.7007  0.2380  0.8403
  251MOL0     H33861   4.321   1.391  11.507 -0.8076  2.3584 -0.6089
  251MOL0     H33862   4.162   1.446  11.485  2.3337  1.1793 -1.0132
  251MOL0     H33863   4.328   1.340  11.726 -3.0880 -2.1857  2.1259
  251MOL0     H33864   4.157   1.330  11.744  1.7165 -3.3234  0.7677
  251MOL0     H33865   4.247   1.543  11.832 -2.7723 -3.9552  0.9635
  251MOL0     H33866   4.166   1.592  11.681 -1.5653  0.5247  4.6188
  251MOL0     H33867   3.533   1.162  11.218 -0.6208 -2.3027 -0.4936
  251MOL0     H33868   3.319   1.145  11.284  2.1141 -1.2796 -0.3374
  251MOL0     H33869   2.986   0.738  11.398 -1.0450 -0.1205 -0.4930
  251MOL0     H33870   2.794   0.646  11.522  1.7622 -0.8711  1.1184
  251MOL0     H33871   2.847   0.176  11.395  0.3530  1.9217  4.0372
  251MOL0     H33872   2.823   0.190  11.144 -1.3055 -0.3075 -0.3712
  251MOL0     H33873   3.122   0.470  10.686  0.4362 -3.0483 -0.2432
  251MOL0     H33874   3.055   0.510  10.449 -1.9454 -0.9254 -1.6423
  251MOL0     H33875   2.891   0.632  10.303 -4.0338  0.7987  1.9566
  251MOL0     H33876   2.971   0.487  10.241  0.1545  2.3667 -0.1539
  251MOL0     H33877   2.853   0.599  10.070 -1.0534  0.4877 -1.4116
  251MOL0     H33878   2.697   0.579  10.170  1.5328  1.5028  2.2596
  251MOL0     H33879   2.728   0.338  10.151  0.7659 -0.0584  0.9995
  251MOL0     H33880   2.884   0.354  10.074  2.6016  3.5851 -0.9028
  251MOL0     H33881   2.790   0.448   9.867 -1.5516 -0.6643 -0.5835
  251MOL0     H33882   2.648   0.510   9.966  3.4691  3.5119  0.5856
  251MOL0     H33883   2.541   0.108   9.859  1.5464 -2.0002  3.0995
  251MOL0     H33884   2.661   0.390  10.552  0.1591 -2.5553  1.2931
  251MOL0     H33885   2.709   0.366  10.783 -0.9510 -0.0040 -0.7162
  252MOL0     O33886   8.833   2.828   2.167  0.0168  0.9133 -0.1566
  252MOL0     C33887   8.839   2.875   2.280  0.1427 -0.0377  0.1276
  252MOL0     O33888   8.843   2.807   2.394 -0.2954  0.1836  0.4120
  252MOL0     C33889   8.856   2.669   2.374 -0.4278  0.6562  0.2699
  252MOL0     C33890   8.951   2.611   2.288 -0.0629  1.4703  1.1526
  252MOL0     C33891   8.979   2.470   2.298  0.5326 -0.1814  0.4263
  252MOL0     C33892   8.894   2.393   2.380  0.8298 -0.6196 -0.2054
  252MOL0     O33893   8.907   2.250   2.383 -0.8733  0.2509 -0.7577
  252MOL0     C33894   9.033   2.183   2.337  0.3566  0.4137 -0.4545
  252MOL0     C33895   9.080   2.076   2.437  0.2336  0.6155 -0.4557
  252MOL0     C33896   9.187   1.987   2.376 -0.3603  0.6000  0.1724
  252MOL0     C33897   9.248   1.887   2.477 -0.0722  0.6194 -0.4640
  252MOL0     C33898   9.371   1.939   2.556  1.1175 -0.1790  0.0265
  252MOL0     C33899   9.435   1.814   2.622  0.3735  0.0841 -0.1904
  252MOL0     C33900   9.363   1.757   2.744  0.0186 -0.0385  0.1872
  252MOL0     C33901   9.443   1.649   2.823  1.1214  0.2375  0.2624
  252MOL0     N33902   9.353   1.585   2.924  0.0920 -0.7971 -0.2112
  252MOL0     C33903   9.275   1.478   2.898 -0.0606  0.1581  0.9189
  252MOL0     C33904   9.198   1.456   3.010  0.4431 -0.3647 -0.6403
  252MOL0     C33905   9.102   1.337   3.014  0.0341 -0.0039 -0.5413
  252MOL0     C33906   9.186   1.205   3.007 -0.0368 -1.4727 -1.0271
  252MOL0     C33907   9.093   1.090   2.978  0.1179  0.3664  1.1507
  252MOL0     C33908   9.170   0.950   2.973  0.2231 -0.4571  0.0196
  252MOL0     O33909   9.233   0.926   3.101 -0.0945 -0.5769 -0.4784
  252MOL0     C33910   9.257   0.796   3.150 -0.5549  0.1582 -0.2539
  252MOL0     C33911   9.229   0.671   3.088 -0.8386  0.1934 -0.1396
  252MOL0     C33912   9.239   0.552   3.158  0.2458 -0.1597  0.1016
  252MOL0     C33913   9.204   0.428   3.073 -0.9058 -0.0672 -0.3697
  252MOL0     C33914   9.287   0.553   3.297 -0.3832  0.2300  0.2366
  252MOL0     C33915   9.296   0.431   3.376 -0.3596 -0.2524  0.1796
  252MOL0     O33916   9.392   0.341   3.352  0.9901 -0.0581 -0.6898
  252MOL0     C33917   9.393   0.231   3.424 -0.6470  1.2742  1.0667
  252MOL0     C33918   9.519   0.190   3.455  0.4133 -0.7958  0.1037
  252MOL0     C33919   9.532   0.068   3.507 -0.4837  0.6391 -0.2911
  252MOL0     C33920   9.430  -0.010   3.548  0.7382  0.0593 -0.6866
  252MOL0     O33921   9.461  -0.125   3.616 -0.1423  0.0455  0.6904
  252MOL0     C33922   9.360  -0.224   3.651 -0.5858 -0.0440  0.0209
  252MOL0     C33923   9.313  -0.191   3.789  0.0973  0.6268  1.3656
  252MOL0     C33924   9.187  -0.275   3.818 -0.2205  0.2058 -0.5457
  252MOL0     C33925   9.187  -0.325   3.958 -0.1756  0.6614 -0.6896
  252MOL0     C33926   9.219  -0.201   4.050  0.7715  0.1536 -0.6870
  252MOL0     C33927   9.239  -0.261   4.192  0.4914  0.6574  1.0499
  252MOL0     C33928   9.289  -0.158   4.287 -0.8824  0.5155 -0.1118
  252MOL0     C33929   9.212  -0.145   4.415 -0.8580  0.4928  0.4770
  252MOL0    Cl33930   9.213  -0.296   4.505  0.6932 -0.3981  0.6617
  252MOL0     C33931   9.301   0.024   3.508  1.0084  0.4206  0.3349
  252MOL0     C33932   9.277   0.154   3.442 -0.6453  0.2381  0.4928
  252MOL0     O33933   9.206   0.419   3.458 -0.4044  0.0529 -0.7878
  252MOL0     C33934   9.322   0.684   3.356  0.1344  0.3366 -0.7290
  252MOL0     C33935   9.307   0.798   3.282 -0.1179  0.2629  0.0887
  252MOL0     N33936   9.241   1.541   3.107  0.1363  0.3314  0.9039
  252MOL0     N33937   9.321   1.619   3.054  0.3193 -0.3024 -0.7182
  252MOL0     C33938   8.803   2.449   2.467 -0.4183 -0.6684  0.5212
  252MOL0     C33939   8.794   2.589   2.469  0.4633  0.6982  0.1768
  252MOL0     C33940   8.842   3.035   2.285 -0.4123  1.2022  0.5516
  252MOL0     C33941   8.762   3.105   2.203  0.2789 -0.8977  1.5215
  252MOL0     C33942   8.761   3.242   2.213  0.0893 -0.3093 -0.6824
  252MOL0     C33943   8.843   3.307   2.298 -1.0261 -0.0735  0.9263
  252MOL0     O33944   8.832   3.451   2.297  0.4932  0.5941 -0.3830
  252MOL0     C33945   8.925   3.525   2.371  0.2518  0.1212 -0.0549
  252MOL0     C33946   8.858   3.551   2.507 -0.7648  0.4314  0.2046
  252MOL0     C33947   8.942   3.632   2.607  0.0660 -0.5594  0.3071
  252MOL0     C33948   8.997   3.767   2.541 -0.1212 -0.2515  0.3999
  252MOL0     C33949   9.077   3.828   2.651  0.3995 -0.8955  0.3011
  252MOL0     C33950   9.170   3.870   2.725 -0.0334  0.4223  0.8016
  252MOL0     C33951   8.916   3.231   2.388  0.1789  0.1755  0.0130
  252MOL0     C33952   8.920   3.092   2.384  0.3417  1.2379  0.9743
  252MOL0     H33953   9.005   2.662   2.210  1.5352 -2.2647 -0.4480
  252MOL0     H33954   9.042   2.417   2.227  2.4987  2.2231  0.2016
  252MOL0     H33955   9.020   2.140   2.237  0.1210  0.2425 -0.3504
  252MOL0     H33956   9.117   2.251   2.325 -1.6404  3.5860  1.8055
  252MOL0     H33957   9.108   2.125   2.530 -0.2899  2.3040 -1.1463
  252MOL0     H33958   8.992   2.013   2.456 -0.6818  2.3127  1.2066
  252MOL0     H33959   9.139   1.937   2.291  1.3236  1.0993 -1.1309
  252MOL0     H33960   9.275   2.043   2.343  0.3894 -0.6376  0.0127
  252MOL0     H33961   9.173   1.854   2.549 -0.0561  1.3123 -0.1205
  252MOL0     H33962   9.275   1.795   2.424 -4.1156  0.7014 -3.0934
  252MOL0     H33963   9.432   1.995   2.485  2.0311 -0.9191  0.2057
  252MOL0     H33964   9.340   2.011   2.632  2.0603  0.1720  0.0823
  252MOL0     H33965   9.453   1.737   2.546  1.1016 -1.7222  1.7240
  252MOL0     H33966   9.537   1.843   2.650  0.3147  0.0780  0.0275
  252MOL0     H33967   9.355   1.842   2.813 -1.1607  0.2254 -0.2420
  252MOL0     H33968   9.272   1.709   2.707 -0.4688  1.8347 -1.1726
  252MOL0     H33969   9.533   1.688   2.871  1.7734 -0.5604 -0.2809
  252MOL0     H33970   9.481   1.574   2.753 -0.6768 -0.4452 -0.0363
  252MOL0     H33971   9.267   1.432   2.800 -0.7062  1.0682  0.5335
  252MOL0     H33972   9.039   1.338   3.103 -2.2304 -0.8982 -2.0352
  252MOL0     H33973   9.038   1.334   2.925  2.2891 -1.1701 -2.2344
  252MOL0     H33974   9.225   1.200   3.109 -2.9316  1.9660  0.4674
  252MOL0     H33975   9.272   1.215   2.939 -0.7014  1.5045 -1.5832
  252MOL0     H33976   9.060   1.098   2.874 -2.5439 -0.2920  1.8631
  252MOL0     H33977   9.010   1.087   3.048 -0.6005  0.1381  0.3105
  252MOL0     H33978   9.251   0.942   2.900  1.1527  2.1309  0.6429
  252MOL0     H33979   9.101   0.872   2.940 -0.6774  1.4432 -3.0018
  252MOL0     H33980   9.202   0.667   2.983  0.8452 -0.5152 -0.5786
  252MOL0     H33981   9.291   0.365   3.053 -1.5219 -1.2056  0.4287
  252MOL0     H33982   9.138   0.368   3.137 -1.0935  3.2217  2.8452
  252MOL0     H33983   9.167   0.452   2.973  0.8145 -0.9568 -1.2679
  252MOL0     H33984   9.598   0.263   3.443 -1.1873  1.7572  3.4613
  252MOL0     H33985   9.633   0.035   3.531  0.1364  3.2866  1.1578
  252MOL0     H33986   9.286  -0.224   3.571  1.3756  0.6187 -1.9004
  252MOL0     H33987   9.398  -0.326   3.640 -3.9523 -1.5675  1.2643
  252MOL0     H33988   9.396  -0.221   3.853  1.9147 -0.5019 -1.3397
  252MOL0     H33989   9.304  -0.083   3.806  0.6121  1.0884 -0.9497
  252MOL0     H33990   9.200  -0.361   3.752  4.2980  1.5653 -1.8015
  252MOL0     H33991   9.100  -0.214   3.796  1.6332  2.2643 -2.6665
  252MOL0     H33992   9.092  -0.369   3.990 -0.3647  0.8681 -0.9616
  252MOL0     H33993   9.268  -0.395   3.980 -0.1476  1.0364  0.4642
  252MOL0     H33994   9.132  -0.135   4.052 -1.8266 -2.8885 -3.1208
  252MOL0     H33995   9.306  -0.138   4.032 -0.0512  0.8777 -2.3002
  252MOL0     H33996   9.144  -0.301   4.227 -1.5130  3.6187 -0.5344
  252MOL0     H33997   9.315  -0.340   4.196 -0.0043  0.1022 -0.2181
  252MOL0     H33998   9.299  -0.058   4.243  1.0627 -0.2189 -1.4823
  252MOL0     H33999   9.392  -0.185   4.313 -1.7320 -0.4914  2.5581
  252MOL0     H34000   9.113  -0.101   4.395  0.4631  2.7813 -1.6527
  252MOL0     H34001   9.265  -0.081   4.486 -1.2399 -0.3340  1.5344
  252MOL0     H34002   9.213  -0.031   3.538  0.0379  0.4021 -2.3185
  252MOL0     H34003   9.179   0.179   3.404  0.1936 -0.5235 -2.4087
  252MOL0     H34004   9.353   0.695   3.459 -3.9386  4.5939  0.3813
  252MOL0     H34005   9.323   0.894   3.329 -0.8099  1.5941 -2.2669
  252MOL0     H34006   8.745   2.387   2.535 -0.7215 -2.2352 -1.0790
  252MOL0     H34007   8.730   2.644   2.538 -2.1759 -0.3381 -1.2845
  252MOL0     H34008   8.687   3.061   2.138  1.3382  2.4975 -2.3999
  252MOL0     H34009   8.691   3.307   2.160 -3.1159 -0.3949  3.0497
  252MOL0     H34010   9.023   3.475   2.377  0.2844  0.1635  6.0568
  252MOL0     H34011   8.939   3.617   2.314  0.4371  0.3345  0.3316
  252MOL0     H34012   8.831   3.457   2.556  4.3686 -1.4930 -0.0540
  252MOL0     H34013   8.765   3.605   2.484  0.5688  1.9540 -2.0600
  252MOL0     H34014   9.025   3.575   2.649  0.2191  0.1393  0.9745
  252MOL0     H34015   8.873   3.658   2.688  0.7949  1.3830  0.3709
  252MOL0     H34016   8.918   3.836   2.512  0.0874 -0.6431 -1.1775
  252MOL0     H34017   9.067   3.740   2.461 -0.9345 -4.1278  0.7680
  252MOL0     H34018   9.258   3.883   2.785  1.3424 -2.7048 -0.3171
  252MOL0     H34019   8.989   3.278   2.453 -1.2880 -1.0372  2.7042
  252MOL0     H34020   8.980   3.034   2.453 -0.6236  0.1356  0.9191
  253MOL0     O34021   2.328   1.308   4.901  0.0202  0.6031  0.9045
  253MOL0     C34022   2.236   1.388   4.917 -0.3768 -0.0550  0.1773
  253MOL0     O34023   2.110   1.345   4.952  0.5614 -0.6774  0.2641
  253MOL0     C34024   2.069   1.209   4.945 -0.3133 -0.2443  0.1102
  253MOL0     C34025   2.067   1.144   4.818  0.3899  0.0196 -0.1213
  253MOL0     C34026   2.034   1.009   4.800 -1.0116 -0.4872  0.3027
  253MOL0     C34027   1.978   0.947   4.909  0.6740 -0.0351  0.4167
  253MOL0     O34028   1.911   0.825   4.881  0.5046  0.1817 -0.0802
  253MOL0     C34029   1.785   0.808   4.950 -0.0390  0.3711  0.0710
  253MOL0     C34030   1.655   0.887   4.904  0.2477 -0.5898  0.1721
  253MOL0     C34031   1.593   0.830   4.773  0.5941 -0.3914  0.3849
  253MOL0     C34032   1.463   0.900   4.731 -0.5278 -0.1189 -0.0111
  253MOL0     C34033   1.404   0.840   4.610 -0.6721  0.4584  0.4949
  253MOL0     C34034   1.277   0.915   4.546  0.2641 -1.4937  0.2204
  253MOL0     C34035   1.199   0.830   4.443 -0.5968  0.4196  0.2753
  253MOL0     C34036   1.298   0.792   4.333  0.4950 -0.5522  0.5133
  253MOL0     N34037   1.227   0.740   4.218  0.2928 -0.7091 -0.6490
  253MOL0     C34038   1.193   0.807   4.102  0.5018 -0.5025 -0.5648
  253MOL0     C34039   1.142   0.699   4.025  0.1818  0.2354  0.2040
  253MOL0     C34040   1.078   0.710   3.888  0.5352  0.2027  0.5186
  253MOL0     C34041   1.149   0.619   3.783 -0.0199  0.6827  0.6522
  253MOL0     C34042   1.095   0.652   3.637 -0.8592 -0.2223 -0.0675
  253MOL0     C34043   1.152   0.791   3.585  0.5814  0.4298  0.2551
  253MOL0     O34044   1.286   0.775   3.554  0.3241 -0.7684  0.0107
  253MOL0     C34045   1.355   0.891   3.527  0.3050 -0.1678 -1.1382
  253MOL0     C34046   1.494   0.885   3.549  0.1783  0.5179  0.6968
  253MOL0     C34047   1.580   0.993   3.571  0.0138  0.6657  0.0165
  253MOL0     C34048   1.730   0.955   3.572 -0.8347  0.2044  0.3602
  253MOL0     C34049   1.524   1.122   3.565 -0.0777 -0.2439  0.0888
  253MOL0     C34050   1.607   1.244   3.586 -0.4202 -0.1283  0.2773
  253MOL0     O34051   1.556   1.366   3.554 -0.4199 -0.3276  0.1545
  253MOL0     C34052   1.628   1.479   3.584  0.0751  0.2492 -0.1147
  253MOL0     C34053   1.606   1.537   3.714 -0.0994  0.3636 -0.3610
  253MOL0     C34054   1.674   1.657   3.750 -0.6966  0.2709 -0.1784
  253MOL0     C34055   1.765   1.712   3.668 -0.0170 -0.1030  0.1970
  253MOL0     O34056   1.844   1.823   3.701 -0.1158 -0.2439  0.1271
  253MOL0     C34057   1.787   1.927   3.791 -0.3754 -1.1557 -0.4889
  253MOL0     C34058   1.866   2.062   3.793  0.5454 -0.1117  0.6497
  253MOL0     C34059   2.015   2.051   3.819 -0.9334  0.1384  0.2777
  253MOL0     C34060   2.076   2.185   3.802 -0.4159 -0.1603  1.2160
  253MOL0     C34061   2.230   2.177   3.772  0.2035  1.3603  0.4115
  253MOL0     C34062   2.293   2.312   3.768 -1.2674 -1.3453  0.2580
  253MOL0     C34063   2.301   2.395   3.898  0.2004  0.5645 -0.2081
  253MOL0     C34064   2.451   2.415   3.940  0.5132  1.1681 -0.5259
  253MOL0    Cl34065   2.431   2.508   4.090 -0.1787 -0.3231 -0.0627
  253MOL0     C34066   1.790   1.647   3.543  0.1766  0.0299  0.3697
  253MOL0     C34067   1.724   1.534   3.497 -0.3144  0.0922  0.1281
  253MOL0     O34068   1.718   1.222   3.642  0.1400  0.5745 -0.1590
  253MOL0     C34069   1.391   1.135   3.545 -0.0115  0.0426 -1.4607
  253MOL0     C34070   1.303   1.021   3.528 -0.6465  0.0882  0.6317
  253MOL0     N34071   1.167   0.575   4.091  0.4104 -0.0703 -0.4351
  253MOL0     N34072   1.207   0.598   4.210  0.2239 -0.4652 -0.2847
  253MOL0     C34073   1.991   1.006   5.037  0.7049  0.3835 -0.0170
  253MOL0     C34074   2.040   1.137   5.058  0.1583  0.4260  0.3035
  253MOL0     C34075   2.275   1.528   4.920  0.0419 -0.3952 -0.6162
  253MOL0     C34076   2.180   1.630   4.941 -1.0486 -0.1984 -0.2941
  253MOL0     C34077   2.215   1.772   4.961 -0.3270  0.0324  0.7329
  253MOL0     C34078   2.352   1.804   4.958 -0.1696 -1.1759 -0.0173
  253MOL0     O34079   2.384   1.937   4.968 -0.2593 -0.6720  0.4941
  253MOL0     C34080   2.516   1.976   5.005 -0.7714 -0.2401  0.4173
  253MOL0     C34081   2.523   2.131   5.017  0.3121  0.5165 -0.1911
  253MOL0     C34082   2.503   2.209   4.885 -0.7282 -0.1260  0.4153
  253MOL0     C34083   2.444   2.350   4.886 -0.4956  0.2709  0.7094
  253MOL0     C34084   2.500   2.431   4.998  0.4633 -0.2195  0.3033
  253MOL0     C34085   2.531   2.490   5.105  0.7234  0.5543 -0.4979
  253MOL0     C34086   2.443   1.709   4.934 -0.6745  0.1131 -0.0428
  253MOL0     C34087   2.405   1.573   4.919  1.0378  0.4552  0.6044
  253MOL0     H34088   2.105   1.211   4.741  0.8684  1.5095  1.3694
  253MOL0     H34089   2.036   0.950   4.709  1.4009  3.8601 -2.8333
  253MOL0     H34090   1.777   0.699   4.959  0.6229  0.3429  0.3438
  253MOL0     H34091   1.796   0.829   5.057  0.5271 -0.6121  0.2252
  253MOL0     H34092   1.577   0.891   4.980  0.6201 -2.7259  0.7428
  253MOL0     H34093   1.692   0.986   4.878 -0.7151 -0.3710 -0.3899
  253MOL0     H34094   1.665   0.811   4.693  0.9866 -1.2437  0.9104
  253MOL0     H34095   1.561   0.726   4.785  0.8148 -0.6670 -1.2134
  253MOL0     H34096   1.389   0.885   4.810 -3.1069 -1.2034 -2.4807
  253MOL0     H34097   1.482   1.007   4.720 -1.0633 -0.2716 -4.2048
  253MOL0     H34098   1.476   0.820   4.530 -2.3946 -0.8604 -0.8169
  253MOL0     H34099   1.375   0.737   4.635 -3.0083  0.5176 -1.5515
  253MOL0     H34100   1.216   0.950   4.630  2.1015 -0.6627  1.2666
  253MOL0     H34101   1.310   1.009   4.501 -0.1897 -2.0112 -1.2546
  253MOL0     H34102   1.153   0.753   4.505 -0.9787 -0.6536 -1.3026
  253MOL0     H34103   1.117   0.893   4.409 -1.6190 -1.0023  0.0444
  253MOL0     H34104   1.367   0.714   4.368  0.3665 -0.7861  0.2567
  253MOL0     H34105   1.364   0.873   4.303 -0.5804  0.5907  1.1558
  253MOL0     H34106   1.184   0.909   4.065 -0.6940  0.3631  1.9083
  253MOL0     H34107   0.971   0.689   3.890 -0.0580  2.8280 -0.4324
  253MOL0     H34108   1.077   0.816   3.861  1.5809 -0.2724 -1.6575
  253MOL0     H34109   1.120   0.516   3.805 -0.0972  0.1492 -1.6996
  253MOL0     H34110   1.258   0.625   3.782  0.2303 -1.6589 -2.1443
  253MOL0     H34111   0.985   0.650   3.630 -0.8486 -2.9337 -0.4794
  253MOL0     H34112   1.133   0.572   3.574  2.7056  0.3490  1.1589
  253MOL0     H34113   1.126   0.872   3.654 -1.1886  0.1394 -0.0487
  253MOL0     H34114   1.094   0.811   3.495  1.5238  2.9854  0.1211
  253MOL0     H34115   1.536   0.785   3.542 -1.3822 -0.0298 -2.3857
  253MOL0     H34116   1.751   0.849   3.558 -3.5028 -0.0480 -3.1515
  253MOL0     H34117   1.781   1.001   3.487 -2.0880 -2.6116 -2.0956
  253MOL0     H34118   1.773   0.992   3.665 -0.6927  3.4244 -0.8293
  253MOL0     H34119   1.520   1.496   3.765 -0.4191 -1.7239 -2.3742
  253MOL0     H34120   1.649   1.715   3.838  4.4299  2.0942  0.3842
  253MOL0     H34121   1.687   1.963   3.761  0.0427  2.2751  1.6191
  253MOL0     H34122   1.775   1.889   3.893 -1.7619  0.8230  0.1528
  253MOL0     H34123   1.863   2.103   3.691  2.4426 -1.6192 -0.0884
  253MOL0     H34124   1.823   2.118   3.876 -1.3844  0.3419 -0.5854
  253MOL0     H34125   2.067   1.984   3.750 -2.6218 -1.1202  0.1548
  253MOL0     H34126   2.034   2.022   3.923  5.0159  0.8268 -0.2707
  253MOL0     H34127   2.025   2.232   3.718  0.9979 -0.3815  0.1968
  253MOL0     H34128   2.058   2.255   3.884  1.1098  1.5705  0.1432
  253MOL0     H34129   2.235   2.149   3.667  2.3278  1.3414  0.4741
  253MOL0     H34130   2.275   2.109   3.845 -1.6055 -0.7803 -0.3524
  253MOL0     H34131   2.393   2.286   3.733 -1.0750 -1.5706  0.9610
  253MOL0     H34132   2.235   2.372   3.697  0.3936 -0.4182 -0.3657
  253MOL0     H34133   2.248   2.337   3.975  2.9449 -3.8556 -1.2711
  253MOL0     H34134   2.253   2.492   3.883 -0.3552  0.3516  0.1687
  253MOL0     H34135   2.509   2.458   3.857 -1.7726 -0.1076 -2.9320
  253MOL0     H34136   2.493   2.318   3.967  1.8516  1.8253 -0.1208
  253MOL0     H34137   1.866   1.700   3.486  0.5807 -0.7828  0.1445
  253MOL0     H34138   1.743   1.485   3.402 -0.9439 -0.7987  0.4411
  253MOL0     H34139   1.352   1.233   3.522  0.1154  0.5454  0.3713
  253MOL0     H34140   1.198   1.047   3.539 -0.4429  0.9189  0.6477
  253MOL0     H34141   1.954   0.937   5.111  1.8682 -2.5838 -2.0223
  253MOL0     H34142   2.041   1.173   5.160  0.3306  1.0887  0.0692
  253MOL0     H34143   2.079   1.594   4.960 -0.2560 -1.1652  2.6143
  253MOL0     H34144   2.140   1.850   4.964  0.7948  1.1327  0.8295
  253MOL0     H34145   2.546   1.939   5.104  2.2111  2.5919  0.7246
  253MOL0     H34146   2.589   1.933   4.936 -0.5108 -2.9939  2.2525
  253MOL0     H34147   2.624   2.152   5.053 -0.3143 -0.8390  2.6176
  253MOL0     H34148   2.453   2.169   5.091  0.6059 -0.8760  0.8341
  253MOL0     H34149   2.438   2.161   4.812  0.2385  1.5919 -1.6824
  253MOL0     H34150   2.599   2.214   4.835 -1.1586 -1.6402 -0.6153
  253MOL0     H34151   2.335   2.355   4.900 -0.3120  4.8395  2.3948
  253MOL0     H34152   2.471   2.387   4.787 -0.7177  3.6083  1.7435
  253MOL0     H34153   2.565   2.536   5.196 -0.4009  1.5858 -0.5873
  253MOL0     H34154   2.550   1.722   4.934 -0.5507 -0.4118 -2.6220
  253MOL0     H34155   2.484   1.503   4.894  1.4586  1.4034 -0.9191
  254MOL0     O34156   7.609   7.988   8.408 -0.0895 -0.3276 -0.6070
  254MOL0     C34157   7.676   8.076   8.460 -0.1977 -0.8617 -0.4816
  254MOL0     O34158   7.632   8.201   8.502 -0.8368  0.4125  0.0985
  254MOL0     C34159   7.509   8.235   8.530 -0.4215 -0.0972 -0.4405
  254MOL0     C34160   7.421   8.149   8.584 -0.1562  1.1837  0.0090
  254MOL0     C34161   7.285   8.179   8.609 -0.6032 -0.3822  0.1906
  254MOL0     C34162   7.246   8.313   8.580  1.2523  0.2032  0.5760
  254MOL0     O34163   7.114   8.352   8.584 -0.1961 -0.2414  0.5796
  254MOL0     C34164   7.015   8.271   8.638 -1.7688  0.7519  0.4060
  254MOL0     C34165   6.884   8.349   8.642 -1.6085 -0.3748  0.3413
  254MOL0     C34166   6.761   8.269   8.635  0.3253 -0.4452 -0.0511
  254MOL0     C34167   6.644   8.370   8.604 -0.7607  0.9491 -0.3943
  254MOL0     C34168   6.509   8.306   8.592  0.2571  0.1017  0.5221
  254MOL0     C34169   6.459   8.199   8.706 -0.7735  0.0959  0.2558
  254MOL0     C34170   6.314   8.178   8.685 -0.0401 -0.3592  0.5273
  254MOL0     C34171   6.278   8.042   8.741  0.9611 -0.5409  0.6884
  254MOL0     N34172   6.337   8.007   8.873 -0.0945  0.2395 -0.5006
  254MOL0     C34173   6.330   8.076   8.986 -0.4023  0.0497  0.8305
  254MOL0     C34174   6.424   8.022   9.063  1.0686 -0.2664  0.1066
  254MOL0     C34175   6.458   8.061   9.200 -0.7542 -0.1394 -0.0457
  254MOL0     C34176   6.513   8.210   9.195  0.4606 -0.7503  0.0606
  254MOL0     C34177   6.590   8.259   9.316  0.3213 -0.0139  0.7192
  254MOL0     C34178   6.497   8.322   9.419 -0.2881  0.6172 -0.0008
  254MOL0     O34179   6.483   8.461   9.392  0.3332  0.6033 -0.5325
  254MOL0     C34180   6.409   8.522   9.486  0.3284  0.1674  0.3630
  254MOL0     C34181   6.390   8.653   9.442 -0.7169  0.5261  0.5994
  254MOL0     C34182   6.316   8.744   9.513 -0.4216 -0.4517 -0.5226
  254MOL0     C34183   6.310   8.879   9.448  0.0633  0.1445 -0.2096
  254MOL0     C34184   6.260   8.719   9.637 -0.3793  0.7249  0.3603
  254MOL0     C34185   6.176   8.807   9.715  0.5362  0.6038  0.5413
  254MOL0     O34186   6.194   8.803   9.847 -0.3358 -0.7430  0.1958
  254MOL0     C34187   6.115   8.880   9.933 -0.9092 -0.0915  0.3012
  254MOL0     C34188   6.111   9.018   9.933  0.4300  0.1105 -0.2484
  254MOL0     C34189   6.026   9.087  10.026 -0.1474  0.7635  0.8221
  254MOL0     C34190   5.945   9.008  10.112  1.0302 -0.2915  0.2031
  254MOL0     O34191   5.847   9.066  10.198  0.1263 -0.5375 -0.1509
  254MOL0     C34192   5.853   9.213  10.216  0.9433  0.5654 -0.0951
  254MOL0     C34193   5.750   9.236  10.330  0.4497  0.6548 -0.1283
  254MOL0     C34194   5.746   9.385  10.364 -0.7128 -0.4250 -1.0101
  254MOL0     C34195   5.642   9.406  10.478  0.1284  0.5337 -0.8420
  254MOL0     C34196   5.621   9.553  10.518 -0.4055 -0.4135 -0.7119
  254MOL0     C34197   5.750   9.619  10.576 -0.1594 -0.3062 -0.2110
  254MOL0     C34198   5.814   9.533  10.682  0.1787 -0.3099 -0.0937
  254MOL0     C34199   5.715   9.488  10.801  0.0444 -0.3188 -0.3636
  254MOL0    Cl34200   5.647   9.636  10.888 -0.0640 -0.0220  0.3437
  254MOL0     C34201   5.951   8.871  10.118  0.1813  0.0314 -0.4386
  254MOL0     C34202   6.035   8.807  10.024  0.0828 -0.2358 -1.1319
  254MOL0     O34203   6.087   8.866   9.657  0.5301  0.2949  0.4485
  254MOL0     C34204   6.265   8.580   9.673  0.4278 -0.5316 -0.1050
  254MOL0     C34205   6.350   8.486   9.601  0.2491  0.0719  0.7518
  254MOL0     N34206   6.471   7.910   8.999 -0.4302  0.7214 -0.1244
  254MOL0     N34207   6.426   7.906   8.883  0.0842  0.3785  0.0649
  254MOL0     C34208   7.334   8.408   8.525  0.0722  1.1622 -0.8001
  254MOL0     C34209   7.468   8.365   8.505  0.6843 -0.0763  0.6548
  254MOL0     C34210   7.814   8.026   8.491  0.9070  0.6621 -0.7123
  254MOL0     C34211   7.862   7.893   8.470 -0.1705  0.5594  0.4786
  254MOL0     C34212   7.997   7.876   8.490 -0.3136  0.0933  0.5852
  254MOL0     C34213   8.087   7.971   8.549  0.6669 -1.3701 -0.4620
  254MOL0     O34214   8.221   7.951   8.588  0.0202  0.0038 -0.5258
  254MOL0     C34215   8.265   7.821   8.591 -0.3933  0.5340 -0.1300
  254MOL0     C34216   8.394   7.800   8.662 -0.4839 -0.3672 -0.0840
  254MOL0     C34217   8.523   7.840   8.587 -0.5683 -0.4109  0.9453
  254MOL0     C34218   8.653   7.800   8.652 -0.1703  0.2130  0.1079
  254MOL0     C34219   8.768   7.874   8.594 -0.9607  0.3528 -0.1759
  254MOL0     C34220   8.857   7.948   8.561 -0.1522  0.0441  0.0379
  254MOL0     C34221   8.029   8.095   8.580 -0.2996 -0.0303 -0.1018
  254MOL0     C34222   7.900   8.120   8.548 -0.2776  0.1436  0.3160
  254MOL0     H34223   7.457   8.051   8.613 -1.1285  1.3144  1.7761
  254MOL0     H34224   7.206   8.121   8.655 -0.9124  0.0551  0.2198
  254MOL0     H34225   6.998   8.179   8.580  2.3287 -2.2251  3.3387
  254MOL0     H34226   7.043   8.229   8.735 -1.3565 -3.1952 -1.2239
  254MOL0     H34227   6.870   8.421   8.723  0.0405 -0.0552  0.3625
  254MOL0     H34228   6.883   8.420   8.560 -1.9678 -0.2072  0.4833
  254MOL0     H34229   6.763   8.187   8.562  0.0623 -2.0209  1.6319
  254MOL0     H34230   6.754   8.215   8.730 -0.6937  1.9888  1.3457
  254MOL0     H34231   6.634   8.438   8.689  0.0447 -0.8068  1.1777
  254MOL0     H34232   6.674   8.422   8.513  2.0380 -2.5698 -1.7301
  254MOL0     H34233   6.436   8.388   8.585 -1.7248 -1.6736 -0.8455
  254MOL0     H34234   6.520   8.265   8.492  1.9798 -0.7042  1.0149
  254MOL0     H34235   6.506   8.100   8.694 -2.5037 -0.6469 -0.6822
  254MOL0     H34236   6.473   8.247   8.803 -4.4180  1.5459  0.2163
  254MOL0     H34237   6.268   8.263   8.737  2.6047  1.1386  0.5877
  254MOL0     H34238   6.290   8.183   8.578  1.3392  0.6819  0.2328
  254MOL0     H34239   6.304   7.960   8.672 -0.3941 -3.4785  3.4003
  254MOL0     H34240   6.170   8.051   8.758  1.3783  1.7703  2.5110
  254MOL0     H34241   6.272   8.163   9.015 -0.2355  0.2824  0.4804
  254MOL0     H34242   6.361   8.067   9.251 -0.0296 -2.0880  1.7100
  254MOL0     H34243   6.526   7.996   9.255 -1.3908 -0.5419  0.2818
  254MOL0     H34244   6.431   8.282   9.184  3.3386  3.5030  3.2003
  254MOL0     H34245   6.572   8.225   9.105  0.5499 -0.2306  0.2015
  254MOL0     H34246   6.677   8.321   9.291 -1.0909  1.0530 -1.9085
  254MOL0     H34247   6.634   8.165   9.352 -0.8021 -0.2017  1.6482
  254MOL0     H34248   6.533   8.294   9.519 -0.6707  1.0512  0.2639
  254MOL0     H34249   6.395   8.281   9.421 -0.9352  2.0950 -1.2120
  254MOL0     H34250   6.456   8.686   9.362 -0.2330  0.2036  0.8612
  254MOL0     H34251   6.289   8.951   9.528 -1.4372 -0.6120  0.1167
  254MOL0     H34252   6.393   8.910   9.384 -0.1547  0.6389 -0.2566
  254MOL0     H34253   6.221   8.877   9.385  0.0264 -0.9973 -0.1515
  254MOL0     H34254   6.154   9.078   9.853 -1.0748  0.7410 -0.6286
  254MOL0     H34255   6.024   9.195  10.023  1.7913  0.8029 -0.1458
  254MOL0     H34256   5.947   9.247  10.260  1.8057 -0.9624 -0.6765
  254MOL0     H34257   5.824   9.256  10.119 -0.1180 -1.3412 -0.6763
  254MOL0     H34258   5.646   9.213  10.308  0.5890  2.6032 -3.5607
  254MOL0     H34259   5.795   9.185  10.416 -0.4701  2.1179  1.2757
  254MOL0     H34260   5.718   9.446  10.278 -3.3708  1.3750  0.9544
  254MOL0     H34261   5.846   9.422  10.387 -1.8886  2.4727 -0.0551
  254MOL0     H34262   5.545   9.371  10.443 -0.5240  1.6253 -0.1853
  254MOL0     H34263   5.657   9.338  10.562 -3.0351  1.8532  0.9781
  254MOL0     H34264   5.546   9.556  10.598  0.8984 -1.8149  0.6371
  254MOL0     H34265   5.603   9.615  10.430 -0.4824 -2.8157 -2.5087
  254MOL0     H34266   5.822   9.620  10.493  3.5505  2.3656  2.6889
  254MOL0     H34267   5.718   9.715  10.616  1.5923  0.3177 -0.2391
  254MOL0     H34268   5.904   9.578  10.726 -0.3009  3.7126 -2.7431
  254MOL0     H34269   5.858   9.447  10.631  4.7253  1.0251  1.1109
  254MOL0     H34270   5.775   9.432  10.873  0.0265  1.7221  1.3583
  254MOL0     H34271   5.642   9.415  10.765 -0.3324 -0.3187  0.3865
  254MOL0     H34272   5.880   8.826  10.187 -4.2899  1.8043 -3.4068
  254MOL0     H34273   6.034   8.699  10.024  1.3759 -0.2681 -0.9672
  254MOL0     H34274   6.206   8.537   9.754 -0.0134  0.7947  0.3082
  254MOL0     H34275   6.356   8.380   9.623 -0.7091 -0.3385 -0.7896
  254MOL0     H34276   7.297   8.504   8.490 -1.7735  0.6294 -0.4284
  254MOL0     H34277   7.535   8.435   8.455  0.0423  1.6217  2.0638
  254MOL0     H34278   7.806   7.814   8.420 -1.0110  2.0660 -1.0545
  254MOL0     H34279   8.044   7.786   8.451 -1.5696  0.5011 -2.1147
  254MOL0     H34280   8.190   7.761   8.643  2.2264 -1.8655  1.2078
  254MOL0     H34281   8.279   7.796   8.486 -0.1564  1.2400 -0.2722
  254MOL0     H34282   8.407   7.692   8.676  2.4538 -0.4577 -2.6285
  254MOL0     H34283   8.395   7.857   8.756 -0.0077  2.8934 -1.9065
  254MOL0     H34284   8.512   7.948   8.577 -0.2602 -0.4980 -0.5807
  254MOL0     H34285   8.513   7.794   8.489 -3.3294 -0.2711  1.1013
  254MOL0     H34286   8.663   7.691   8.643 -0.4423  0.1388  0.6799
  254MOL0     H34287   8.650   7.816   8.760  1.8783 -0.0542  0.2353
  254MOL0     H34288   8.929   8.018   8.525 -1.0609 -0.3372 -2.7123
  254MOL0     H34289   8.092   8.175   8.618 -3.0914  2.2019  0.1893
  254MOL0     H34290   7.875   8.222   8.577  1.5387 -0.5174  5.0815
  255MOL0     O34291  10.028   7.616   2.396  0.2769  0.2243  0.0010
  255MOL0     C34292   9.911   7.596   2.440 -1.3894 -0.4037 -0.0639
  255MOL0     O34293   9.795   7.656   2.394  0.3856  0.0640  0.7447
  255MOL0     C34294   9.800   7.734   2.278 -0.5070 -0.9806  0.0252
  255MOL0     C34295   9.894   7.839   2.265  1.2117 -0.4809  0.5534
  255MOL0     C34296   9.884   7.930   2.157  0.4570  0.9342 -0.1220
  255MOL0     C34297   9.782   7.910   2.056 -0.3834 -0.0555 -0.4300
  255MOL0     O34298   9.766   7.987   1.946 -0.5682  0.7133  0.5130
  255MOL0     C34299   9.881   8.014   1.859  0.1906  1.1591 -0.0569
  255MOL0     C34300   9.866   7.953   1.723 -0.2876  0.1255  0.4446
  255MOL0     C34301   9.842   7.804   1.719 -1.2603  0.3483 -0.0859
  255MOL0     C34302   9.969   7.724   1.764 -0.4141 -0.0376  0.2512
  255MOL0     C34303   9.944   7.591   1.832  0.9219 -0.5891 -0.2487
  255MOL0     C34304  10.078   7.524   1.866 -0.3968 -0.8906 -0.5227
  255MOL0     C34305  10.063   7.390   1.945 -0.6627 -0.2370 -0.1514
  255MOL0     C34306  10.018   7.421   2.091 -0.2479  1.8481 -0.2225
  255MOL0     N34307  10.095   7.334   2.183 -0.1771  0.8401  0.4303
  255MOL0     C34308  10.231   7.303   2.194 -0.1726  0.9622  0.5831
  255MOL0     C34309  10.231   7.203   2.285 -0.3903  0.0305 -0.3705
  255MOL0     C34310  10.345   7.120   2.331  0.1250 -0.1149  0.3450
  255MOL0     C34311  10.445   7.083   2.217  0.3838 -0.0487 -0.6171
  255MOL0     C34312  10.371   6.990   2.118  0.6685 -0.3495  0.2281
  255MOL0     C34313  10.457   6.939   2.008 -0.3129  0.0586 -0.3860
  255MOL0     O34314  10.479   7.050   1.922  0.3390 -0.2777  0.5754
  255MOL0     C34315  10.375   7.099   1.836  0.5089  0.1383 -1.3076
  255MOL0     C34316  10.244   7.055   1.826  0.2623 -0.0018  0.3893
  255MOL0     C34317  10.153   7.123   1.740 -1.0043 -0.4049 -1.1312
  255MOL0     C34318  10.010   7.070   1.746  0.8627  0.1281  0.9951
  255MOL0     C34319  10.196   7.223   1.654 -0.3306 -0.7839  1.0563
  255MOL0     C34320  10.107   7.302   1.565 -0.1582 -0.3758 -0.0967
  255MOL0     O34321  10.002   7.238   1.496  0.2946 -0.1135 -0.2742
  255MOL0     C34322   9.897   7.306   1.431  0.4092  0.0452  0.9985
  255MOL0     C34323   9.825   7.219   1.349  0.7461 -0.0423  0.0634
  255MOL0     C34324   9.718   7.261   1.269 -0.4727 -0.0377 -0.2743
  255MOL0     C34325   9.682   7.397   1.268  0.0799  1.1599  0.4253
  255MOL0     O34326   9.589   7.443   1.177 -0.3873  0.7206 -0.7582
  255MOL0     C34327   9.560   7.378   1.051 -0.1246 -1.0257  0.0732
  255MOL0     C34328   9.480   7.480   0.977  0.6121 -0.4843  0.2323
  255MOL0     C34329   9.556   7.586   0.895 -0.6341 -0.5879 -0.5757
  255MOL0     C34330   9.454   7.679   0.829  0.3238 -0.5202  0.2757
  255MOL0     C34331   9.387   7.615   0.711  0.2542  0.6786  0.7515
  255MOL0     C34332   9.324   7.716   0.623 -0.3536 -0.5849 -0.7997
  255MOL0     C34333   9.333   7.679   0.483 -0.1873 -0.0046 -0.5415
  255MOL0     C34334   9.286   7.792   0.402 -0.3867  0.3097  0.0165
  255MOL0    Cl34335   9.254   7.722   0.236 -0.1338  0.3973 -0.3118
  255MOL0     C34336   9.757   7.489   1.347  0.0134 -0.2182  0.2270
  255MOL0     C34337   9.864   7.442   1.431  0.9558 -0.6889 -0.2881
  255MOL0     O34338  10.131   7.428   1.552  0.6747  0.5255 -0.3960
  255MOL0     C34339  10.335   7.259   1.654  0.0878  0.5045 -0.9050
  255MOL0     C34340  10.418   7.193   1.737 -0.5794 -0.4389  0.0237
  255MOL0     N34341  10.102   7.187   2.344  0.6226 -0.3326  0.0127
  255MOL0     N34342  10.020   7.261   2.270 -0.7954 -0.2287 -0.8194
  255MOL0     C34343   9.691   7.807   2.072 -0.1448 -1.2227  0.1861
  255MOL0     C34344   9.708   7.724   2.180 -0.0254 -1.1631 -0.5964
  255MOL0     C34345   9.890   7.499   2.549  0.3193 -0.5581  0.4563
  255MOL0     C34346   9.766   7.500   2.606 -0.2034  0.2403 -0.7395
  255MOL0     C34347   9.738   7.415   2.720 -0.2638  0.6292 -0.4667
  255MOL0     C34348   9.829   7.327   2.761  0.0212 -0.5716  0.4129
  255MOL0     O34349   9.794   7.248   2.867 -0.4822 -0.1651 -0.8162
  255MOL0     C34350   9.884   7.148   2.925  0.2915 -0.4420  0.3573
  255MOL0     C34351   9.815   7.087   3.048  0.6261 -0.7351  0.0783
  255MOL0     C34352   9.711   6.984   3.002 -0.1088  0.6589 -1.0063
  255MOL0     C34353   9.758   6.839   3.013  0.2017  0.3002 -0.1859
  255MOL0     C34354   9.749   6.795   3.155 -0.0253 -0.4871  0.2682
  255MOL0     C34355   9.762   6.774   3.273 -0.1967  0.0989 -0.0081
  255MOL0     C34356   9.961   7.331   2.706  0.3490  0.4133  0.9916
  255MOL0     C34357   9.989   7.414   2.594 -0.1705 -0.5107  0.1707
  255MOL0     H34358   9.966   7.836   2.347 -0.5500  1.3606  2.2965
  255MOL0     H34359   9.960   8.002   2.131  0.7716  0.5379 -0.3068
  255MOL0     H34360   9.894   8.123   1.856 -1.7249  1.4025 -1.6580
  255MOL0     H34361   9.975   7.978   1.900  1.6328  2.0545 -2.4350
  255MOL0     H34362   9.789   8.002   1.662 -0.6901 -2.9357 -1.7630
  255MOL0     H34363   9.952   7.984   1.663  1.6901  1.0132  3.5262
  255MOL0     H34364   9.762   7.764   1.782 -0.2929 -2.7090 -0.6383
  255MOL0     H34365   9.804   7.778   1.620 -0.5373 -1.3258  0.0447
  255MOL0     H34366  10.033   7.712   1.676 -0.2283  1.6486  0.1186
  255MOL0     H34367  10.029   7.782   1.834  0.4210 -0.0070 -0.4753
  255MOL0     H34368   9.866   7.609   1.907 -0.7847  2.2822 -2.4990
  255MOL0     H34369   9.891   7.534   1.755 -1.0704 -1.7295  1.8249
  255MOL0     H34370  10.133   7.501   1.774 -1.1781 -1.4864 -0.8564
  255MOL0     H34371  10.143   7.597   1.916  0.2823 -1.6139 -0.3192
  255MOL0     H34372  10.004   7.320   1.885 -1.2554  1.1964 -1.3110
  255MOL0     H34373  10.164   7.348   1.940 -1.4028 -1.9938 -2.1105
  255MOL0     H34374   9.914   7.389   2.098 -0.5154  0.0238 -6.5843
  255MOL0     H34375  10.039   7.524   2.122  2.2000  1.2765  0.2236
  255MOL0     H34376  10.314   7.350   2.142 -0.3056  1.3432  0.7098
  255MOL0     H34377  10.409   7.174   2.402  0.4787 -0.1859  0.0792
  255MOL0     H34378  10.290   7.033   2.369 -0.4519  0.8644  1.8700
  255MOL0     H34379  10.526   7.022   2.258 -0.7077 -2.1860 -1.4400
  255MOL0     H34380  10.476   7.177   2.170 -1.4896  0.7032 -0.4468
  255MOL0     H34381  10.286   7.038   2.070  1.0366 -0.9472 -1.0618
  255MOL0     H34382  10.338   6.901   2.172  1.2806  1.4330  3.9049
  255MOL0     H34383  10.400   6.856   1.964  1.0790 -1.3347  0.3118
  255MOL0     H34384  10.558   6.902   2.027  0.5367 -2.3823 -6.9433
  255MOL0     H34385  10.214   6.972   1.890 -0.3868 -0.8000 -0.8964
  255MOL0     H34386  10.005   6.968   1.706  1.9734  0.4146  0.0590
  255MOL0     H34387   9.968   7.069   1.847 -2.3772  0.8366 -0.2230
  255MOL0     H34388   9.939   7.117   1.678  1.6954 -3.2027 -2.6055
  255MOL0     H34389   9.861   7.117   1.338  0.6986 -0.5050  3.2229
  255MOL0     H34390   9.686   7.182   1.202 -1.7803 -0.3951  0.7251
  255MOL0     H34391   9.653   7.353   1.001 -0.2172 -3.8170  1.1291
  255MOL0     H34392   9.513   7.280   1.066 -0.4849 -0.5215  3.0475
  255MOL0     H34393   9.409   7.427   0.913  0.3568  1.0827 -0.8507
  255MOL0     H34394   9.420   7.547   1.040  0.3982  1.3803 -1.8326
  255MOL0     H34395   9.616   7.543   0.815  1.3819 -3.5770  2.2901
  255MOL0     H34396   9.632   7.640   0.952 -0.9510  0.6769 -1.3083
  255MOL0     H34397   9.378   7.707   0.902 -0.5088 -2.1206  0.0779
  255MOL0     H34398   9.507   7.765   0.787  1.3908 -1.5061 -0.4548
  255MOL0     H34399   9.316   7.533   0.726 -0.1471  0.9062  0.1385
  255MOL0     H34400   9.467   7.565   0.656 -2.3159 -2.4734 -0.4892
  255MOL0     H34401   9.219   7.737   0.645 -0.2307  1.8497 -2.1010
  255MOL0     H34402   9.381   7.810   0.633 -1.1627 -0.3138  1.9026
  255MOL0     H34403   9.278   7.585   0.471 -1.3087  0.5851 -0.1872
  255MOL0     H34404   9.440   7.662   0.469  0.3022 -0.9823  3.4524
  255MOL0     H34405   9.363   7.870   0.394 -0.8326  0.9181  1.3815
  255MOL0     H34406   9.192   7.833   0.440 -0.8155 -1.5345  1.0174
  255MOL0     H34407   9.741   7.596   1.338 -1.9259 -0.4358  0.6968
  255MOL0     H34408   9.913   7.516   1.494 -2.0488  3.2338 -2.1110
  255MOL0     H34409  10.365   7.344   1.595 -3.1183  1.2351 -1.7046
  255MOL0     H34410  10.518   7.233   1.755 -1.2514  0.5869  1.6646
  255MOL0     H34411   9.624   7.789   1.989  1.4101  0.1925 -1.4596
  255MOL0     H34412   9.638   7.643   2.198 -0.0713 -1.0816 -0.4002
  255MOL0     H34413   9.686   7.567   2.578 -2.7140 -2.8570 -1.6168
  255MOL0     H34414   9.647   7.416   2.778  0.7430  1.2558  1.1518
  255MOL0     H34415   9.914   7.076   2.849  1.5046 -0.1668  0.5430
  255MOL0     H34416   9.972   7.202   2.963  1.4102  1.2863 -4.0550
  255MOL0     H34417   9.763   7.165   3.104 -1.8084  0.7463 -3.7901
  255MOL0     H34418   9.894   7.040   3.105  2.6341  2.4972  0.2301
  255MOL0     H34419   9.681   7.009   2.900 -0.6730  2.8331 -0.3528
  255MOL0     H34420   9.618   6.987   3.059 -1.8039  1.0730 -3.6479
  255MOL0     H34421   9.857   6.825   2.971 -0.1736 -2.2580 -0.3756
  255MOL0     H34422   9.684   6.788   2.950 -1.6808  1.8625  0.6296
  255MOL0     H34423   9.775   6.750   3.376  1.7127 -2.8022 -0.8268
  255MOL0     H34424  10.042   7.268   2.742  0.3624  0.1639  0.5410
  255MOL0     H34425  10.086   7.427   2.547 -1.2946 -1.4503 -2.5505
  256MOL0     O34426   4.982   2.615  11.003  0.2707  0.5130 -0.5511
  256MOL0     C34427   5.015   2.738  11.007  0.1424 -0.0294  0.2864
  256MOL0     O34428   5.070   2.805  11.113  0.1305  0.2239 -0.5291
  256MOL0     C34429   5.056   2.754  11.236  0.1468  0.6727 -0.4589
  256MOL0     C34430   4.945   2.677  11.286 -0.2765  0.5391 -0.2439
  256MOL0     C34431   4.956   2.617  11.406  2.4997 -0.3044 -0.4798
  256MOL0     C34432   5.076   2.624  11.479  0.0449 -0.4038 -0.1178
  256MOL0     O34433   5.103   2.542  11.582  0.1890 -0.8153 -0.5285
  256MOL0     C34434   5.140   2.408  11.549  0.4128  0.5824 -0.4648
  256MOL0     C34435   5.064   2.319  11.643  0.0252 -0.6940  0.5291
  256MOL0     C34436   5.128   2.183  11.606 -0.2580  0.0369  0.1083
  256MOL0     C34437   5.086   2.056  11.687  0.4209 -0.5046 -0.0611
  256MOL0     C34438   5.175   1.948  11.662 -0.1596 -0.4245  0.8058
  256MOL0     C34439   5.140   1.812  11.718 -1.8877 -0.2812 -0.1287
  256MOL0     C34440   5.070   1.737  11.609  1.0080 -0.3174 -0.0489
  256MOL0     C34441   5.004   1.614  11.675 -0.5434 -0.6432 -0.8444
  256MOL0     N34442   4.923   1.553  11.578 -0.0710 -0.4735 -0.2615
  256MOL0     C34443   4.789   1.593  11.553 -0.4963  0.3596  0.2592
  256MOL0     C34444   4.751   1.509  11.452 -0.1552 -0.5473  0.6564
  256MOL0     C34445   4.607   1.509  11.399 -0.2187 -0.5887 -0.3513
  256MOL0     C34446   4.605   1.481  11.241  0.8412 -0.1974 -0.1445
  256MOL0     C34447   4.476   1.500  11.158 -0.0977 -0.0271 -0.7213
  256MOL0     C34448   4.368   1.407  11.195 -0.9945  0.3372 -0.6327
  256MOL0     O34449   4.297   1.381  11.082 -0.1732  0.1339  0.2883
  256MOL0     C34450   4.318   1.269  11.001 -0.2128 -0.1448 -1.4074
  256MOL0     C34451   4.205   1.229  10.919 -0.3273 -0.5442 -0.0514
  256MOL0     C34452   4.215   1.122  10.847  0.6874  0.7907  0.8894
  256MOL0     C34453   4.091   1.105  10.759 -0.4168  0.5595 -0.4993
  256MOL0     C34454   4.329   1.033  10.864  0.5565 -0.3523 -0.0922
  256MOL0     C34455   4.331   0.894  10.800  0.4483 -1.2298  0.4047
  256MOL0     O34456   4.444   0.819  10.827  0.2704 -0.4288  0.6378
  256MOL0     C34457   4.408   0.691  10.859 -0.9024 -0.8855 -0.5974
  256MOL0     C34458   4.455   0.600  10.780 -0.4100 -0.1102  1.1448
  256MOL0     C34459   4.431   0.465  10.804  0.0166 -0.5465  0.5224
  256MOL0     C34460   4.360   0.424  10.914  0.3460  0.5350 -0.9451
  256MOL0     O34461   4.333   0.294  10.943 -0.3053 -0.1231 -0.0597
  256MOL0     C34462   4.352   0.208  10.837  0.2919  0.1261 -0.4831
  256MOL0     C34463   4.307   0.069  10.869 -0.2925 -0.7449  0.5222
  256MOL0     C34464   4.303  -0.014  10.744 -0.8975 -0.6287 -0.8152
  256MOL0     C34465   4.207  -0.128  10.758  0.9232  0.2027 -0.1940
  256MOL0     C34466   4.187  -0.202  10.628  0.0999  0.3651 -0.0017
  256MOL0     C34467   4.309  -0.286  10.572  0.1970 -0.0456 -0.0722
  256MOL0     C34468   4.249  -0.384  10.470 -0.2463 -0.0422 -0.5082
  256MOL0     C34469   4.296  -0.373  10.327  0.1342 -0.0441  0.8490
  256MOL0    Cl34470   4.234  -0.214  10.244 -0.0210  0.2760  0.2818
  256MOL0     C34471   4.325   0.524  11.004  0.4393  0.3488 -0.2994
  256MOL0     C34472   4.342   0.656  10.979  0.9126 -0.9701  0.4348
  256MOL0     O34473   4.239   0.865  10.720 -0.0110  0.2399  0.2875
  256MOL0     C34474   4.426   1.075  10.951  0.4908  1.0984 -0.1343
  256MOL0     C34475   4.425   1.190  11.023 -0.5672  1.0491  0.4736
  256MOL0     N34476   4.848   1.416  11.419 -0.0105 -0.9682 -0.1196
  256MOL0     N34477   4.949   1.448  11.493 -0.6618 -0.2212 -0.2863
  256MOL0     C34478   5.176   2.715  11.437  0.5733 -0.1775 -0.1731
  256MOL0     C34479   5.175   2.780  11.318 -1.0104 -0.4452  0.8155
  256MOL0     C34480   5.004   2.811  10.880 -0.1393  0.4935  1.3062
  256MOL0     C34481   5.052   2.938  10.881 -0.1211  0.4369  0.0934
  256MOL0     C34482   5.056   3.009  10.760 -0.6244 -0.5886 -0.6281
  256MOL0     C34483   5.005   2.959  10.639 -0.4407 -1.0685  0.2213
  256MOL0     O34484   5.018   3.045  10.535 -0.0285 -0.1035 -0.7317
  256MOL0     C34485   4.902   3.073  10.453 -0.7006  0.2621 -0.3756
  256MOL0     C34486   4.946   3.031  10.303  0.5796 -0.4552  0.3904
  256MOL0     C34487   4.961   2.876  10.280 -0.4889 -0.6580 -0.3720
  256MOL0     C34488   4.986   2.862  10.136  0.0992 -0.3926 -0.3585
  256MOL0     C34489   5.032   2.730  10.096 -1.5591  0.5033 -0.4176
  256MOL0     C34490   5.076   2.627  10.041 -0.4145 -0.4011 -0.3589
  256MOL0     C34491   4.944   2.834  10.638  1.3150  1.1750  0.9644
  256MOL0     C34492   4.945   2.763  10.761  0.0742 -0.2167  0.1077
  256MOL0     H34493   4.866   2.663  11.213  0.9897  2.9610 -2.2562
  256MOL0     H34494   4.884   2.546  11.443  1.6090  0.1990 -1.1979
  256MOL0     H34495   5.110   2.392  11.446 -2.7854  2.2223  0.0816
  256MOL0     H34496   5.249   2.402  11.556  0.5515  1.9988 -1.0550
  256MOL0     H34497   5.083   2.347  11.747  2.1668 -2.4882  0.6922
  256MOL0     H34498   4.956   2.326  11.628 -0.2031  1.7048  2.6044
  256MOL0     H34499   5.100   2.165  11.501  0.5136  3.7736 -0.8886
  256MOL0     H34500   5.237   2.192  11.618 -0.2024 -0.3507 -0.0684
  256MOL0     H34501   5.083   2.078  11.794  0.3604 -1.3526  0.1156
  256MOL0     H34502   4.983   2.025  11.664  0.1082  0.2789  0.2464
  256MOL0     H34503   5.202   1.941  11.556  0.7873 -0.7570  1.0593
  256MOL0     H34504   5.274   1.972  11.703  0.0179 -1.4511  0.9925
  256MOL0     H34505   5.228   1.756  11.752 -1.0042  1.3939  0.4765
  256MOL0     H34506   5.080   1.834  11.806 -3.3128 -0.6342 -0.9806
  256MOL0     H34507   4.988   1.797  11.569  1.5219  1.8126  1.8706
  256MOL0     H34508   5.138   1.708  11.528 -0.0704 -0.6723 -0.8559
  256MOL0     H34509   4.955   1.652  11.765  2.1836  1.5208 -0.1146
  256MOL0     H34510   5.084   1.552  11.715  1.6485  2.7821  0.5554
  256MOL0     H34511   4.718   1.648  11.614  0.0114 -0.3463  1.5242
  256MOL0     H34512   4.547   1.432  11.447 -1.9965  1.0807  0.2365
  256MOL0     H34513   4.555   1.602  11.427  2.8080  1.0223  0.3476
  256MOL0     H34514   4.644   1.380  11.234  1.3415 -0.0968  1.0612
  256MOL0     H34515   4.671   1.552  11.190 -2.0264  1.1306 -2.3878
  256MOL0     H34516   4.512   1.506  11.054  1.2088  0.7279 -0.2435
  256MOL0     H34517   4.448   1.602  11.185  0.0795 -0.2862  0.4731
  256MOL0     H34518   4.305   1.463  11.264 -0.4163  0.0769  0.1215
  256MOL0     H34519   4.412   1.322  11.248 -4.6197 -1.1889  0.2363
  256MOL0     H34520   4.118   1.294  10.910 -0.0730  0.3126  2.8469
  256MOL0     H34521   4.044   1.198  10.727  0.9820  0.9797 -1.4201
  256MOL0     H34522   4.118   1.051  10.668 -1.2313  2.1163 -1.7112
  256MOL0     H34523   4.019   1.041  10.810  3.1318 -2.4938  1.1711
  256MOL0     H34524   4.517   0.623  10.694  0.5614 -0.4112  1.7474
  256MOL0     H34525   4.448   0.393  10.724  0.7068 -0.8002  0.8823
  256MOL0     H34526   4.296   0.241  10.748  1.0483  0.1485 -0.9563
  256MOL0     H34527   4.454   0.194  10.801  0.4296 -1.0384  0.2950
  256MOL0     H34528   4.368   0.022  10.947 -1.3009 -2.0795  0.5397
  256MOL0     H34529   4.209   0.079  10.917 -1.9229 -1.5899 -2.3885
  256MOL0     H34530   4.398  -0.060  10.718  0.0851  1.1673 -0.5584
  256MOL0     H34531   4.286   0.037  10.648  4.1414 -0.2813 -1.7734
  256MOL0     H34532   4.245  -0.200  10.831  1.3244 -0.8398 -1.4148
  256MOL0     H34533   4.107  -0.096  10.790  0.9211 -0.3493  0.3700
  256MOL0     H34534   4.159  -0.125  10.555  2.9951  0.6733 -0.8779
  256MOL0     H34535   4.102  -0.269  10.645  1.9980 -1.9955  0.5679
  256MOL0     H34536   4.390  -0.229  10.526  3.2923 -2.1412  2.3505
  256MOL0     H34537   4.364  -0.350  10.641  1.1214  0.9058  0.0915
  256MOL0     H34538   4.141  -0.400  10.478 -0.6747  0.6641 -3.6831
  256MOL0     H34539   4.284  -0.481  10.507 -1.0256 -0.0160  0.3476
  256MOL0     H34540   4.266  -0.461  10.269  0.2682 -0.7885  1.8730
  256MOL0     H34541   4.405  -0.369  10.324  0.0726  3.2529 -0.6181
  256MOL0     H34542   4.273   0.503  11.097  2.2656 -0.3862  0.5978
  256MOL0     H34543   4.308   0.741  11.038  3.2388  1.8512 -1.9079
  256MOL0     H34544   4.505   1.002  10.967 -0.2619 -0.1557 -1.8179
  256MOL0     H34545   4.502   1.219  11.093  0.1839  2.9042 -1.0438
  256MOL0     H34546   5.266   2.714  11.498  1.1989  1.5308 -1.0153
  256MOL0     H34547   5.243   2.856  11.282 -1.1036  0.1076  1.7823
  256MOL0     H34548   5.098   2.984  10.968  1.6896 -3.1641  1.2321
  256MOL0     H34549   5.094   3.110  10.754 -0.7948 -0.5062 -0.3296
  256MOL0     H34550   4.806   3.027  10.476 -0.3506  0.4930  1.7651
  256MOL0     H34551   4.892   3.181  10.469  0.2004  0.3422 -0.3066
  256MOL0     H34552   5.034   3.089  10.273  1.6799 -2.7092 -1.0294
  256MOL0     H34553   4.875   3.076  10.233 -1.6586  1.4786  3.5994
  256MOL0     H34554   4.870   2.819  10.304 -0.5325 -0.7440 -0.7391
  256MOL0     H34555   5.044   2.837  10.341 -0.7117  0.1232  0.4627
  256MOL0     H34556   5.074   2.924  10.116  0.0708 -0.0328  0.5823
  256MOL0     H34557   4.905   2.903  10.075  1.2970  1.2834 -0.9029
  256MOL0     H34558   5.128   2.539  10.008 -1.2277 -0.3771 -1.7799
  256MOL0     H34559   4.892   2.802  10.549  0.3881  2.0219  1.1714
  256MOL0     H34560   4.898   2.667  10.781  0.1945  0.5072  5.4496
  257MOL0     O34561   1.132  10.010   6.288 -0.1905  1.3650  0.2391
  257MOL0     C34562   1.046   9.932   6.331  0.3475 -0.2701  0.2039
  257MOL0     O34563   1.007   9.924   6.458  0.1838  0.0070 -0.1127
  257MOL0     C34564   1.031  10.046   6.536 -0.0020 -0.1572 -0.4568
  257MOL0     C34565   0.941  10.153   6.562 -0.1691  0.5456  0.7086
  257MOL0     C34566   0.970  10.246   6.670 -0.4535  0.0209  0.3509
  257MOL0     C34567   1.098  10.253   6.730 -0.4063 -0.3770 -1.0506
  257MOL0     O34568   1.113  10.330   6.842  0.1991 -0.2725 -0.1098
  257MOL0     C34569   1.167  10.268   6.964  0.1928 -0.0875  0.3527
  257MOL0     C34570   1.197  10.375   7.071 -0.5141  0.5948 -0.8317
  257MOL0     C34571   1.279  10.327   7.199  0.9182 -0.7431  0.9046
  257MOL0     C34572   1.310  10.446   7.292 -0.2525 -0.0972 -0.6575
  257MOL0     C34573   1.407  10.412   7.404  1.4417 -0.5495 -0.0000
  257MOL0     C34574   1.395  10.491   7.531  0.2106 -0.1999 -0.5430
  257MOL0     C34575   1.437  10.646   7.504  0.0566  0.6705 -0.1569
  257MOL0     C34576   1.508  10.677   7.635 -0.4601 -0.1324  0.6004
  257MOL0     N34577   1.531  10.814   7.662 -0.8096 -1.0927  0.4971
  257MOL0     C34578   1.650  10.869   7.678 -0.3646 -0.4597 -1.3561
  257MOL0     C34579   1.637  11.001   7.702 -0.5859  0.3163 -1.5058
  257MOL0     C34580   1.732  11.122   7.725  0.0250  0.1195 -0.1245
  257MOL0     C34581   1.717  11.174   7.876 -0.0858 -0.5953  0.2907
  257MOL0     C34582   1.821  11.292   7.906 -0.1841  1.3820 -0.0479
  257MOL0     C34583   1.760  11.378   8.010  0.7968  0.5036  0.5088
  257MOL0     O34584   1.859  11.467   8.051 -1.0787 -0.3993 -0.0527
  257MOL0     C34585   1.819  11.571   8.137  0.6327 -0.2930  0.3004
  257MOL0     C34586   1.689  11.620   8.160 -1.1760  0.3669 -0.1819
  257MOL0     C34587   1.655  11.733   8.239  0.0492  0.9978  0.1323
  257MOL0     C34588   1.509  11.779   8.250  0.6160  0.8301  0.7428
  257MOL0     C34589   1.768  11.805   8.291  0.7607 -0.5014  0.6076
  257MOL0     C34590   1.762  11.931   8.371 -0.0103 -0.0684  1.0618
  257MOL0     O34591   1.863  12.020   8.353  0.6059  0.8692 -0.0216
  257MOL0     C34592   1.850  12.138   8.412  0.2696 -0.5567 -0.9702
  257MOL0     C34593   1.899  12.150   8.541  1.0831 -0.2130 -0.5684
  257MOL0     C34594   1.931  12.278   8.595  0.3606 -0.3563  0.4127
  257MOL0     C34595   1.906  12.393   8.515 -0.2336 -0.0325 -0.1995
  257MOL0     O34596   1.944  12.526   8.549 -0.2297 -0.1149  0.3495
  257MOL0     C34597   2.021  12.540   8.676  0.1459 -0.3414  0.9134
  257MOL0     C34598   2.080  12.687   8.702  0.7172  0.7051 -0.0338
  257MOL0     C34599   1.981  12.795   8.716  0.6388  0.1765 -0.7449
  257MOL0     C34600   1.955  12.873   8.587 -0.4352 -0.4529  0.2771
  257MOL0     C34601   1.884  13.009   8.620  0.3570  0.5238 -0.5835
  257MOL0     C34602   1.825  13.085   8.498  0.8048  0.7378 -0.1198
  257MOL0     C34603   1.925  13.111   8.380  0.1179 -0.5617  0.5767
  257MOL0     C34604   2.002  13.236   8.414 -1.0050  0.9031 -0.0013
  257MOL0    Cl34605   2.189  13.181   8.401  0.1975  0.2784  0.1660
  257MOL0     C34606   1.845  12.372   8.388 -0.2258  0.6974  0.0737
  257MOL0     C34607   1.823  12.251   8.337 -0.9010 -0.4948  0.1469
  257MOL0     O34608   1.671  11.943   8.449  0.1670 -0.0092 -0.3129
  257MOL0     C34609   1.906  11.752   8.274  0.1631  0.2714 -0.0981
  257MOL0     C34610   1.921  11.637   8.200  0.0673 -0.3734  0.6782
  257MOL0     N34611   1.500  11.017   7.706  0.5104  0.3500 -0.8810
  257MOL0     N34612   1.445  10.907   7.696 -0.8768 -0.5154  0.6931
  257MOL0     C34613   1.193  10.151   6.694  0.0107  0.2699  0.1770
  257MOL0     C34614   1.154  10.054   6.607 -0.0213 -0.3024  0.4705
  257MOL0     C34615   0.983   9.838   6.236 -0.4842 -0.0364  0.6684
  257MOL0     C34616   0.878   9.758   6.279  0.0075 -0.5489 -0.7546
  257MOL0     C34617   0.814   9.669   6.197  0.2298 -0.5381  0.6553
  257MOL0     C34618   0.841   9.678   6.056 -0.0679  1.0981  1.3351
  257MOL0     O34619   0.763   9.595   5.981  0.0838 -0.1322  0.1585
  257MOL0     C34620   0.743   9.632   5.839 -0.1861 -0.2964  0.5752
  257MOL0     C34621   0.661   9.525   5.777  1.0204  0.0570  0.5183
  257MOL0     C34622   0.509   9.534   5.832  0.1661  0.3323  0.2598
  257MOL0     C34623   0.424   9.465   5.725  0.1822  0.0893  0.0566
  257MOL0     C34624   0.476   9.342   5.676 -0.3036  0.8584 -0.1733
  257MOL0     C34625   0.507   9.231   5.647 -0.6582  1.2605 -1.0842
  257MOL0     C34626   0.938   9.762   6.003 -1.2510 -0.3376 -0.1104
  257MOL0     C34627   1.012   9.835   6.097 -0.3981 -0.0089 -0.7852
  257MOL0     H34628   0.844  10.137   6.515  0.5586 -1.9984 -0.0621
  257MOL0     H34629   0.887  10.310   6.700 -3.2934 -2.5892 -1.4323
  257MOL0     H34630   1.094  10.192   6.994 -2.4634  2.6649  1.4818
  257MOL0     H34631   1.264  10.222   6.944  0.2970 -0.1210  0.9117
  257MOL0     H34632   1.230  10.473   7.036  0.3421 -0.4016 -2.9827
  257MOL0     H34633   1.099  10.392   7.115 -1.7884 -1.0738 -2.8590
  257MOL0     H34634   1.215  10.261   7.257 -2.9503  0.1781 -1.9247
  257MOL0     H34635   1.376  10.289   7.163  0.5981  0.6129 -1.6527
  257MOL0     H34636   1.340  10.538   7.241 -2.6174  1.5791  0.7426
  257MOL0     H34637   1.215  10.466   7.343 -0.0419 -1.8757  0.4972
  257MOL0     H34638   1.377  10.310   7.427 -0.3966 -0.0907 -0.1708
  257MOL0     H34639   1.507  10.422   7.360  1.4409 -1.2573 -0.1736
  257MOL0     H34640   1.292  10.483   7.567  0.9080 -1.3446  1.3411
  257MOL0     H34641   1.453  10.445   7.612  1.6659 -2.2604 -2.6441
  257MOL0     H34642   1.505  10.673   7.422 -1.3945  2.4320 -0.8610
  257MOL0     H34643   1.351  10.713   7.490 -1.5329 -1.1050  0.6408
  257MOL0     H34644   1.601  10.619   7.637 -1.2627 -1.5347 -0.5387
  257MOL0     H34645   1.462  10.636   7.725 -1.7143 -2.8731 -1.1609
  257MOL0     H34646   1.748  10.822   7.687  0.0089  0.2401 -1.6970
  257MOL0     H34647   1.830  11.087   7.693 -1.0926 -2.7644 -0.7612
  257MOL0     H34648   1.707  11.209   7.664 -1.3579  2.2430  3.1786
  257MOL0     H34649   1.727  11.091   7.946 -1.0806 -1.6610 -0.7854
  257MOL0     H34650   1.616  11.217   7.872  0.3522  0.5798 -4.1815
  257MOL0     H34651   1.841  11.344   7.812  1.2557 -2.3883 -2.0572
  257MOL0     H34652   1.917  11.255   7.944 -0.0955  0.6078 -0.9842
  257MOL0     H34653   1.720  11.336   8.103 -0.8778  4.7726  1.9741
  257MOL0     H34654   1.687  11.436   7.954  0.7609  2.8097  2.7631
  257MOL0     H34655   1.605  11.558   8.130 -1.4396  0.4169  0.4325
  257MOL0     H34656   1.466  11.736   8.341 -0.9152  0.2577 -0.2296
  257MOL0     H34657   1.499  11.888   8.259  0.8760  0.8620  0.6535
  257MOL0     H34658   1.450  11.742   8.166  3.9871 -0.5594 -1.2329
  257MOL0     H34659   1.921  12.069   8.610  0.9337 -1.1654 -1.6121
  257MOL0     H34660   1.958  12.296   8.699  1.0132 -1.3800  0.4378
  257MOL0     H34661   1.955  12.512   8.758 -1.2723  2.5614  0.8890
  257MOL0     H34662   2.107  12.474   8.665 -0.5640 -1.3205  1.0440
  257MOL0     H34663   2.134  12.682   8.797  2.2494  1.5098 -0.8258
  257MOL0     H34664   2.152  12.718   8.625 -0.5642  2.1772 -0.6876
  257MOL0     H34665   2.014  12.862   8.797  1.0996 -1.4845  0.4986
  257MOL0     H34666   1.884  12.754   8.745  1.4122 -1.5756 -0.5598
  257MOL0     H34667   2.054  12.880   8.541  0.6272 -3.3944  1.8841
  257MOL0     H34668   1.890  12.800   8.538 -0.0605 -0.3742 -0.3500
  257MOL0     H34669   1.943  13.082   8.677 -1.8025  1.3748  0.6883
  257MOL0     H34670   1.796  12.994   8.683  1.2026  0.1279  0.5374
  257MOL0     H34671   1.758  13.010   8.457  2.1444  0.0979 -1.2065
  257MOL0     H34672   1.761  13.168   8.530  0.8168  0.1156  1.6096
  257MOL0     H34673   1.868  13.128   8.288  0.4713 -2.3867 -0.0301
  257MOL0     H34674   1.992  13.034   8.341  1.0324 -0.0406  1.0939
  257MOL0     H34675   2.004  13.258   8.521  0.8065 -2.7731  0.8934
  257MOL0     H34676   1.966  13.316   8.349 -1.0696 -0.2045 -1.3801
  257MOL0     H34677   1.838  12.465   8.333  4.0791  1.5956  0.7052
  257MOL0     H34678   1.790  12.256   8.234 -0.3528  1.8352  0.0331
  257MOL0     H34679   2.001  11.795   8.303  1.1697  0.7353 -3.5645
  257MOL0     H34680   2.023  11.602   8.190  1.1557  2.7659 -0.4371
  257MOL0     H34681   1.290  10.143   6.741 -1.0117 -0.0147  2.3774
  257MOL0     H34682   1.226   9.974   6.588 -0.3072 -0.3233 -0.6027
  257MOL0     H34683   0.846   9.766   6.382  1.9902  0.0124 -0.1417
  257MOL0     H34684   0.751   9.587   6.230 -0.1699 -0.0712  1.0609
  257MOL0     H34685   0.698   9.729   5.817  0.3560 -0.4517 -1.4347
  257MOL0     H34686   0.837   9.626   5.784 -1.1769 -5.2369 -1.0349
  257MOL0     H34687   0.701   9.426   5.798  0.2497  0.0756  2.1970
  257MOL0     H34688   0.647   9.541   5.669  0.0969 -0.2960  0.5733
  257MOL0     H34689   0.467   9.634   5.842 -2.2141 -0.6264  0.4233
  257MOL0     H34690   0.485   9.495   5.931  0.4238 -0.4102  0.0347
  257MOL0     H34691   0.406   9.529   5.638 -0.8043 -0.3941 -0.1026
  257MOL0     H34692   0.327   9.447   5.771  0.0247 -1.0557 -0.6813
  257MOL0     H34693   0.538   9.129   5.639 -0.7397  0.9948  1.2599
  257MOL0     H34694   0.969   9.766   5.900 -1.4332  0.8741 -0.1275
  257MOL0     H34695   1.082   9.910   6.062  1.1769  1.1601  3.9997
  258MOL0     O34696   5.291   5.177   7.676  0.1243 -0.0316 -0.2939
  258MOL0     C34697   5.249   5.289   7.718  0.3977  0.4939  0.2111
  258MOL0     O34698   5.127   5.349   7.675 -0.4930  0.3038 -0.9429
  258MOL0     C34699   5.036   5.300   7.582 -0.3098 -0.3580  0.3625
  258MOL0     C34700   4.958   5.385   7.508  0.6237 -0.6332  0.4428
  258MOL0     C34701   4.871   5.337   7.400 -1.2602 -0.7321  0.8473
  258MOL0     C34702   4.863   5.198   7.357 -0.4762 -0.4545 -0.7952
  258MOL0     O34703   4.788   5.142   7.255 -0.0693  0.2362  0.6456
  258MOL0     C34704   4.713   5.239   7.179  0.0710 -0.3240 -0.6362
  258MOL0     C34705   4.624   5.181   7.071  0.4170  0.7815  0.4528
  258MOL0     C34706   4.516   5.100   7.131 -0.1505  1.0778  0.1786
  258MOL0     C34707   4.433   5.018   7.027  0.8184  0.0838  0.7253
  258MOL0     C34708   4.514   4.921   6.937  0.3661 -0.5613  0.2424
  258MOL0     C34709   4.421   4.811   6.876 -0.0531  0.1934 -0.0803
  258MOL0     C34710   4.494   4.733   6.764 -0.4627  0.3467  0.2593
  258MOL0     C34711   4.600   4.635   6.821  0.0193  0.5416  0.1605
  258MOL0     N34712   4.700   4.600   6.727  0.2000 -0.4339  0.2002
  258MOL0     C34713   4.785   4.677   6.658 -0.4737  0.1369 -0.4565
  258MOL0     C34714   4.863   4.593   6.584  0.4429 -0.7452  0.5478
  258MOL0     C34715   4.980   4.630   6.495  0.2751 -0.4715 -0.9299
  258MOL0     C34716   5.091   4.529   6.503  0.6208  0.2202 -0.2063
  258MOL0     C34717   5.212   4.582   6.430 -0.6841 -0.1753  0.0829
  258MOL0     C34718   5.317   4.463   6.416 -0.0196  0.1076 -1.1725
  258MOL0     O34719   5.370   4.419   6.549 -0.5582 -0.2621 -0.1376
  258MOL0     C34720   5.500   4.375   6.566 -0.1811  0.0173 -0.2421
  258MOL0     C34721   5.528   4.337   6.697 -0.3215 -0.6608  0.3715
  258MOL0     C34722   5.653   4.295   6.741  0.1076  0.3028  0.0725
  258MOL0     C34723   5.679   4.255   6.883 -0.6823  1.0908 -0.0370
  258MOL0     C34724   5.752   4.279   6.636 -0.5973  0.4804 -0.3992
  258MOL0     C34725   5.893   4.238   6.662  1.0651  0.3731  0.5428
  258MOL0     O34726   5.955   4.276   6.777  0.5109 -0.5714  0.5775
  258MOL0     C34727   6.086   4.248   6.784 -0.8807 -0.0348 -0.4672
  258MOL0     C34728   6.192   4.340   6.749  0.1158 -0.1115  0.3894
  258MOL0     C34729   6.330   4.292   6.754  0.0625 -0.6179  0.5188
  258MOL0     C34730   6.362   4.161   6.777 -0.6105 -0.0926 -0.3237
  258MOL0     O34731   6.494   4.114   6.776 -0.1935 -0.5062 -0.1703
  258MOL0     C34732   6.595   4.219   6.782  0.1634 -0.7417 -0.0606
  258MOL0     C34733   6.724   4.157   6.826  0.4602  0.1383  0.1821
  258MOL0     C34734   6.768   4.041   6.736 -0.3969 -0.4420 -0.3052
  258MOL0     C34735   6.915   4.007   6.773  0.0997  0.0642 -0.7368
  258MOL0     C34736   6.998   4.029   6.649 -0.4440 -0.2762  0.1930
  258MOL0     C34737   7.152   4.043   6.689  0.4369  0.3795  0.4210
  258MOL0     C34738   7.237   4.081   6.566  0.3454  0.6811 -0.9122
  258MOL0     C34739   7.375   4.088   6.611 -0.0193 -0.3334 -0.2513
  258MOL0    Cl34740   7.437   3.924   6.613  0.3420  0.7319  0.0582
  258MOL0     C34741   6.256   4.073   6.807  0.0421 -0.0185  0.3182
  258MOL0     C34742   6.120   4.117   6.824  0.0861  0.0686  0.6844
  258MOL0     O34743   5.952   4.174   6.575  0.0979 -0.3231 -0.3435
  258MOL0     C34744   5.716   4.303   6.501  0.0358 -0.3404 -0.6540
  258MOL0     C34745   5.593   4.345   6.469  0.9923 -0.1212 -0.2857
  258MOL0     N34746   4.827   4.461   6.610  0.0067 -0.1362  0.4667
  258MOL0     N34747   4.740   4.464   6.707  0.3370  0.3821  0.1356
  258MOL0     C34748   4.924   5.114   7.461  0.4505  0.3121 -0.2672
  258MOL0     C34749   5.013   5.161   7.562 -0.5558  0.6408  0.0699
  258MOL0     C34750   5.313   5.338   7.831  0.4436 -0.5691  0.0444
  258MOL0     C34751   5.262   5.434   7.919 -0.5308  0.2550  0.6091
  258MOL0     C34752   5.329   5.474   8.036 -0.3361  0.2310  0.1615
  258MOL0     C34753   5.462   5.435   8.056 -0.7053  0.1654  0.4652
  258MOL0     O34754   5.513   5.484   8.175  0.1864 -0.3234  0.4019
  258MOL0     C34755   5.639   5.429   8.215 -0.4755 -0.7227  0.1224
  258MOL0     C34756   5.624   5.413   8.371 -0.6768 -0.2624 -0.6104
  258MOL0     C34757   5.545   5.276   8.389  0.5135  0.4863  0.2315
  258MOL0     C34758   5.483   5.259   8.520  0.3427 -0.2436 -0.1065
  258MOL0     C34759   5.577   5.262   8.627 -0.3588  0.1235 -0.4227
  258MOL0     C34760   5.649   5.266   8.721  0.1600 -1.4885 -0.0353
  258MOL0     C34761   5.524   5.349   7.960 -0.2476  0.1386 -0.5783
  258MOL0     C34762   5.449   5.302   7.854  0.4826  0.8396 -0.0767
  258MOL0     H34763   4.951   5.488   7.541  1.4453  0.4407 -2.3973
  258MOL0     H34764   4.831   5.409   7.331  2.5485  0.0445 -0.8499
  258MOL0     H34765   4.651   5.302   7.243  1.5469  1.9093 -1.3083
  258MOL0     H34766   4.780   5.313   7.136 -0.7491  2.0390  1.8744
  258MOL0     H34767   4.593   5.266   7.011 -1.5209 -0.5830 -0.5892
  258MOL0     H34768   4.675   5.108   7.007 -1.3907  1.3534 -1.7761
  258MOL0     H34769   4.566   5.031   7.200 -2.7115 -1.8289 -0.6583
  258MOL0     H34770   4.465   5.176   7.190  0.9370 -1.2927  4.6865
  258MOL0     H34771   4.350   4.962   7.073 -0.9909  0.5429 -1.7692
  258MOL0     H34772   4.389   5.096   6.964  0.5329 -0.1124  0.6768
  258MOL0     H34773   4.572   4.970   6.857  0.9540 -2.7893 -0.7918
  258MOL0     H34774   4.602   4.888   6.992  1.3371 -1.0631 -1.5236
  258MOL0     H34775   4.380   4.757   6.963 -4.4734  1.9992 -0.7716
  258MOL0     H34776   4.334   4.856   6.829 -0.6681  2.0537  2.5850
  258MOL0     H34777   4.418   4.670   6.718 -2.6890 -0.3542  4.4448
  258MOL0     H34778   4.547   4.807   6.702 -1.3143  3.2003  2.6952
  258MOL0     H34779   4.545   4.551   6.865  0.0104 -0.7564 -2.1494
  258MOL0     H34780   4.651   4.684   6.904  0.8358 -2.4692  1.5924
  258MOL0     H34781   4.783   4.785   6.646 -0.7279  0.1241 -0.5373
  258MOL0     H34782   4.960   4.654   6.390 -1.9203  4.0576  0.2714
  258MOL0     H34783   5.024   4.718   6.543  1.5148 -2.2046  1.3080
  258MOL0     H34784   5.069   4.429   6.465  0.6788  0.6946 -1.5335
  258MOL0     H34785   5.123   4.510   6.606  4.3056 -0.1091 -1.2946
  258MOL0     H34786   5.258   4.664   6.485 -0.3939 -0.0390 -0.3597
  258MOL0     H34787   5.185   4.610   6.328 -4.4433 -3.3028 -0.0208
  258MOL0     H34788   5.397   4.487   6.346 -0.7314  0.9415 -1.7091
  258MOL0     H34789   5.271   4.371   6.377  4.0253 -1.4080 -2.8796
  258MOL0     H34790   5.444   4.341   6.765 -0.8003  1.1321 -0.2857
  258MOL0     H34791   5.752   4.174   6.879 -1.4284  0.3592  0.7443
  258MOL0     H34792   5.729   4.344   6.923  2.0275 -0.0435 -0.6420
  258MOL0     H34793   5.588   4.236   6.940 -0.5263  1.7959  0.4588
  258MOL0     H34794   6.166   4.437   6.710  1.8752 -0.9281 -3.2231
  258MOL0     H34795   6.407   4.364   6.730  0.2613  0.0839  2.9851
  258MOL0     H34796   6.614   4.268   6.686 -1.3727  0.9752  0.4407
  258MOL0     H34797   6.575   4.303   6.850  0.9538 -0.5788 -0.0245
  258MOL0     H34798   6.803   4.233   6.824  0.2896  0.3032 -0.4215
  258MOL0     H34799   6.712   4.119   6.928 -1.4246  2.3954  0.8942
  258MOL0     H34800   6.754   4.079   6.634 -0.4798  1.2053  0.3079
  258MOL0     H34801   6.704   3.954   6.752  1.8625 -2.2018 -0.1915
  258MOL0     H34802   6.961   4.062   6.855  2.1179 -0.5154 -1.4141
  258MOL0     H34803   6.909   3.904   6.809 -3.9864  0.2033 -0.6049
  258MOL0     H34804   6.966   4.124   6.606  1.0802 -0.9477 -2.6991
  258MOL0     H34805   6.974   3.950   6.577  1.9132 -2.2765  1.4565
  258MOL0     H34806   7.161   4.110   6.775 -1.7814  0.6173  0.5326
  258MOL0     H34807   7.183   3.942   6.716  1.6441 -0.7819 -4.4261
  258MOL0     H34808   7.199   4.180   6.540 -0.9000  0.1212 -1.2863
  258MOL0     H34809   7.216   3.999   6.497 -2.2824 -0.6240  1.2496
  258MOL0     H34810   7.383   4.145   6.704 -0.4404  0.0694 -0.4592
  258MOL0     H34811   7.433   4.137   6.532 -0.5473  0.2659 -0.2783
  258MOL0     H34812   6.273   3.971   6.840 -1.3665 -0.6535 -0.8068
  258MOL0     H34813   6.038   4.056   6.860  0.2504  0.9616  2.7044
  258MOL0     H34814   5.777   4.281   6.414 -0.3088  0.5902 -1.1399
  258MOL0     H34815   5.576   4.342   6.362 -0.1390  0.1597 -0.1321
  258MOL0     H34816   4.902   5.009   7.445  2.6822 -0.6398  2.1210
  258MOL0     H34817   5.073   5.086   7.613  0.7538 -0.0124 -2.2545
  258MOL0     H34818   5.166   5.479   7.898 -0.7337 -1.2801 -2.3527
  258MOL0     H34819   5.275   5.544   8.098  1.4618  1.9956 -0.1724
  258MOL0     H34820   5.664   5.329   8.177 -1.7475 -1.9596  2.2666
  258MOL0     H34821   5.720   5.500   8.199 -0.4176 -0.7447  0.3121
  258MOL0     H34822   5.582   5.501   8.421  1.3211 -0.0345  0.8315
  258MOL0     H34823   5.720   5.403   8.423 -1.0396 -0.3505  0.0604
  258MOL0     H34824   5.613   5.192   8.370 -0.4065 -0.2308  0.0261
  258MOL0     H34825   5.475   5.263   8.306 -0.4158  1.3780  0.8536
  258MOL0     H34826   5.421   5.169   8.516 -1.0305  0.6927 -0.3483
  258MOL0     H34827   5.417   5.345   8.533 -2.4286 -2.3171  0.3103
  258MOL0     H34828   5.709   5.266   8.809  1.3302 -3.4281 -0.7705
  258MOL0     H34829   5.626   5.317   7.981 -0.9994 -1.9981  0.0122
  258MOL0     H34830   5.499   5.230   7.790 -0.0185  0.5298 -0.1246
  259MOL0     O34831   7.818   7.007   3.316  0.2478 -0.3372  0.1327
  259MOL0     C34832   7.912   6.926   3.305 -0.4680  0.9376 -1.3233
  259MOL0     O34833   8.005   6.928   3.207  0.3547 -0.1147 -0.2446
  259MOL0     C34834   7.977   7.007   3.093 -1.3319 -0.7725 -0.4068
  259MOL0     C34835   7.849   7.045   3.043 -0.1853  0.2244 -0.0136
  259MOL0     C34836   7.834   7.113   2.922  0.0665  0.4517 -0.0217
  259MOL0     C34837   7.947   7.138   2.846  1.0226 -0.0030  0.0935
  259MOL0     O34838   7.943   7.182   2.720 -0.1902  0.2127  0.3122
  259MOL0     C34839   7.890   7.308   2.703 -0.2840  0.3481 -0.5209
  259MOL0     C34840   7.915   7.346   2.558  0.3251  0.4365  0.3827
  259MOL0     C34841   7.884   7.501   2.537  0.9255  0.4561  0.1836
  259MOL0     C34842   7.730   7.515   2.529 -1.0101  0.2007 -0.9350
  259MOL0     C34843   7.661   7.481   2.405  0.4001  0.6234  0.3574
  259MOL0     C34844   7.684   7.581   2.293 -0.3421 -0.5079 -0.0632
  259MOL0     C34845   7.649   7.519   2.159  0.0048  0.4306 -0.6099
  259MOL0     C34846   7.768   7.437   2.089 -0.6044 -1.2190 -0.3950
  259MOL0     N34847   7.739   7.387   1.953 -0.0990 -0.2996 -0.2351
  259MOL0     C34848   7.762   7.445   1.838  0.8738 -1.0539  0.3975
  259MOL0     C34849   7.717   7.354   1.743 -0.3387 -0.7020 -0.1805
  259MOL0     C34850   7.692   7.384   1.600  0.1432 -0.4868 -0.3609
  259MOL0     C34851   7.563   7.314   1.533  0.8883  0.6399 -0.4899
  259MOL0     C34852   7.551   7.344   1.390  0.4445  0.3279 -0.0349
  259MOL0     C34853   7.403   7.353   1.345 -0.7522 -0.2407  0.3257
  259MOL0     O34854   7.401   7.386   1.203  0.5964 -0.9085 -0.7619
  259MOL0     C34855   7.359   7.510   1.165 -0.2135  1.0546 -0.2292
  259MOL0     C34856   7.276   7.600   1.235 -0.8933 -0.1392  0.0632
  259MOL0     C34857   7.248   7.730   1.191  0.4930  0.0596  1.1710
  259MOL0     C34858   7.154   7.802   1.278 -0.0810  0.0718  0.3236
  259MOL0     C34859   7.319   7.790   1.077  0.7619 -0.8078  0.1772
  259MOL0     C34860   7.330   7.938   1.041 -0.1443 -0.2420  0.1607
  259MOL0     O34861   7.257   8.024   1.125 -0.2877  0.0643  0.5057
  259MOL0     C34862   7.277   8.154   1.113  0.6034 -0.4254 -0.6317
  259MOL0     C34863   7.354   8.224   1.211  0.2430 -0.6447  0.6635
  259MOL0     C34864   7.386   8.358   1.190 -0.0932  0.4265 -0.2144
  259MOL0     C34865   7.334   8.423   1.077  0.4882 -0.4304  0.6409
  259MOL0     O34866   7.358   8.557   1.043  0.5899  0.2540  0.2558
  259MOL0     C34867   7.421   8.634   1.144  0.1262 -0.4126 -0.5922
  259MOL0     C34868   7.424   8.782   1.095 -0.1265  0.0964  0.1744
  259MOL0     C34869   7.289   8.829   1.043  0.2204 -0.3757 -0.4103
  259MOL0     C34870   7.259   8.975   1.057  0.3364  0.3091  0.7597
  259MOL0     C34871   7.114   9.017   1.016  0.3340  1.0466  0.1961
  259MOL0     C34872   7.092   9.168   1.026  0.3666 -1.0574 -0.1221
  259MOL0     C34873   6.968   9.221   0.968  0.0507  0.3036 -1.0734
  259MOL0     C34874   6.944   9.371   0.979  0.2403 -0.3975 -0.6726
  259MOL0    Cl34875   6.983   9.418   1.153  0.4721  0.2531  0.5029
  259MOL0     C34876   7.250   8.354   0.993  0.0995 -0.1266  1.0255
  259MOL0     C34877   7.217   8.221   1.010 -0.3220 -0.3901  0.4802
  259MOL0     O34878   7.414   7.971   0.958  0.6431 -0.2249 -0.3331
  259MOL0     C34879   7.393   7.690   1.003 -0.4269  0.6129 -0.2125
  259MOL0     C34880   7.417   7.554   1.045  1.1797  0.9077  0.5257
  259MOL0     N34881   7.686   7.239   1.812 -0.6407  0.5046 -0.1034
  259MOL0     N34882   7.710   7.261   1.933  0.7775  0.7190 -0.3086
  259MOL0     C34883   8.074   7.096   2.890 -0.2279  0.2145 -0.3249
  259MOL0     C34884   8.089   7.042   3.016 -0.4143  0.1880  0.3088
  259MOL0     C34885   7.937   6.840   3.423 -0.0468  0.1171 -0.5132
  259MOL0     C34886   7.875   6.872   3.544 -0.7785  1.1651 -0.3715
  259MOL0     C34887   7.904   6.799   3.661  0.3380 -0.3104  0.5075
  259MOL0     C34888   8.007   6.701   3.664  0.5541 -0.6775 -0.1330
  259MOL0     O34889   8.048   6.643   3.782 -0.3005 -0.6215 -0.5963
  259MOL0     C34890   8.065   6.731   3.902  0.2096 -0.1834 -0.0770
  259MOL0     C34891   8.200   6.695   3.964 -0.3345  0.2509  0.6203
  259MOL0     C34892   8.325   6.759   3.881  0.0261 -0.3985  0.1541
  259MOL0     C34893   8.461   6.736   3.938 -0.7630 -0.7931  0.1570
  259MOL0     C34894   8.502   6.599   3.929 -0.3045  0.5998 -0.2445
  259MOL0     C34895   8.541   6.483   3.910  0.7026  0.7118 -0.9008
  259MOL0     C34896   8.067   6.662   3.544  0.2079 -0.2406 -0.0427
  259MOL0     C34897   8.031   6.738   3.430 -0.1252 -0.4250 -0.2849
  259MOL0     H34898   7.754   7.036   3.094 -0.5418  3.0439 -0.0292
  259MOL0     H34899   7.736   7.135   2.880 -0.3926 -0.3391  0.5955
  259MOL0     H34900   7.783   7.300   2.721  0.3123  0.3955  4.2304
  259MOL0     H34901   7.938   7.382   2.767 -0.4243  1.4092 -1.6071
  259MOL0     H34902   8.017   7.317   2.531  0.0383 -2.6432  2.1350
  259MOL0     H34903   7.848   7.294   2.489 -0.1304 -0.8451  1.7456
  259MOL0     H34904   7.926   7.547   2.627  2.4189  0.9988 -0.7530
  259MOL0     H34905   7.939   7.532   2.448  2.2260  0.7042  1.0435
  259MOL0     H34906   7.684   7.449   2.603  0.6210 -3.0436 -2.6167
  259MOL0     H34907   7.718   7.620   2.559  2.0066  0.8212 -1.5846
  259MOL0     H34908   7.686   7.379   2.372 -3.2887 -1.1300  2.3565
  259MOL0     H34909   7.553   7.486   2.420  0.6544  3.2870  1.8922
  259MOL0     H34910   7.632   7.675   2.314  0.7594  0.1266 -0.0942
  259MOL0     H34911   7.791   7.598   2.284 -0.4979 -0.0762 -1.2531
  259MOL0     H34912   7.564   7.453   2.176  0.4541 -1.1403 -3.7957
  259MOL0     H34913   7.623   7.599   2.089  0.0399  2.4135  1.5166
  259MOL0     H34914   7.786   7.352   2.156 -1.4773  1.4646  3.6187
  259MOL0     H34915   7.859   7.496   2.107 -0.5741 -1.9528  2.3613
  259MOL0     H34916   7.797   7.547   1.828 -0.6587 -0.6477 -1.3857
  259MOL0     H34917   7.668   7.490   1.595  0.3768 -0.3829  0.5672
  259MOL0     H34918   7.782   7.362   1.542  0.1142  0.7675 -0.9085
  259MOL0     H34919   7.481   7.365   1.583 -0.7493 -2.1465 -0.1383
  259MOL0     H34920   7.546   7.208   1.553 -3.5681  1.2975  0.2249
  259MOL0     H34921   7.593   7.262   1.331  0.7624  0.2886  0.2431
  259MOL0     H34922   7.592   7.443   1.370 -1.7023  1.4749  0.8173
  259MOL0     H34923   7.341   7.415   1.409  0.0334  1.7257 -0.7419
  259MOL0     H34924   7.357   7.254   1.347 -2.0593  0.3220 -0.3184
  259MOL0     H34925   7.242   7.566   1.333  1.7470 -1.0001  0.7604
  259MOL0     H34926   7.068   7.834   1.218  0.3833  0.9325  0.1084
  259MOL0     H34927   7.114   7.754   1.368  1.2655 -2.8068 -0.5017
  259MOL0     H34928   7.212   7.887   1.314  0.7892 -0.1394 -0.5354
  259MOL0     H34929   7.401   8.171   1.293 -0.1391 -1.0442  0.6310
  259MOL0     H34930   7.451   8.398   1.267  0.2279 -0.3924 -0.0500
  259MOL0     H34931   7.367   8.632   1.239 -2.1491 -2.3570 -1.8151
  259MOL0     H34932   7.524   8.597   1.158  1.7963  3.8630 -0.1082
  259MOL0     H34933   7.455   8.841   1.181  1.8178  1.6870 -1.5184
  259MOL0     H34934   7.499   8.796   1.017 -0.6659 -0.9452 -0.5594
  259MOL0     H34935   7.211   8.782   1.104 -1.2861 -1.1007 -2.7430
  259MOL0     H34936   7.279   8.798   0.939  0.3677 -0.4422 -0.4045
  259MOL0     H34937   7.269   9.002   1.162 -2.4737 -1.4827  1.5811
  259MOL0     H34938   7.333   9.025   0.993  0.1931 -1.2691 -0.7137
  259MOL0     H34939   7.040   8.955   1.067  2.8826 -1.3272  1.2905
  259MOL0     H34940   7.107   8.994   0.909  0.9266 -1.1263  0.5697
  259MOL0     H34941   7.111   9.190   1.131  2.8104  1.6361 -0.9917
  259MOL0     H34942   7.172   9.226   0.978 -0.4175 -0.8931 -1.2685
  259MOL0     H34943   6.887   9.172   1.024 -1.2178  3.3864  0.0601
  259MOL0     H34944   6.944   9.194   0.865 -2.5320  2.9679 -1.3118
  259MOL0     H34945   6.838   9.388   0.957 -0.9705 -3.3684  2.0154
  259MOL0     H34946   7.017   9.429   0.922  2.2223 -1.6176  0.4749
  259MOL0     H34947   7.210   8.410   0.909 -0.3612 -2.8144 -0.6474
  259MOL0     H34948   7.148   8.180   0.937 -0.5607  0.5848  0.1466
  259MOL0     H34949   7.441   7.726   0.912 -0.2171 -3.4245 -1.8964
  259MOL0     H34950   7.478   7.501   0.972 -1.4018  1.8310 -2.5374
  259MOL0     H34951   8.158   7.113   2.823  0.6235 -2.6655 -0.1292
  259MOL0     H34952   8.182   6.995   3.047 -0.2801  1.2409  1.5531
  259MOL0     H34953   7.811   6.960   3.548 -4.5053 -1.3688  0.2167
  259MOL0     H34954   7.864   6.833   3.756 -0.3411  1.1568 -0.2862
  259MOL0     H34955   8.070   6.838   3.876 -1.1167  0.0705  0.6508
  259MOL0     H34956   7.995   6.711   3.984  0.4738  0.4211  0.3124
  259MOL0     H34957   8.217   6.587   3.963 -0.3744  0.2188 -1.3445
  259MOL0     H34958   8.206   6.736   4.065  3.3605  0.9425  0.2538
  259MOL0     H34959   8.319   6.868   3.881  3.0110 -0.1532  0.2133
  259MOL0     H34960   8.336   6.719   3.780  1.4157  1.9300 -0.6851
  259MOL0     H34961   8.472   6.746   4.047  1.1280 -1.5758  0.0827
  259MOL0     H34962   8.534   6.797   3.885  0.2423  0.1806  2.5239
  259MOL0     H34963   8.589   6.387   3.906  0.3151  0.5372 -1.5242
  259MOL0     H34964   8.142   6.584   3.535  1.3162  0.6742  0.8954
  259MOL0     H34965   8.093   6.720   3.343  0.1996 -0.9303  0.0499
  260MOL0     O34966   2.752   8.417   5.188  0.5840  0.3309 -0.3628
  260MOL0     C34967   2.648   8.430   5.125 -0.3420  0.4245  0.1274
  260MOL0     O34968   2.560   8.327   5.079 -0.1208  0.1047 -0.2942
  260MOL0     C34969   2.572   8.199   5.118 -0.2671 -0.0825  1.1225
  260MOL0     C34970   2.620   8.170   5.243 -1.9305 -0.3846 -0.9623
  260MOL0     C34971   2.627   8.029   5.279 -0.2145  0.0346 -0.0603
  260MOL0     C34972   2.592   7.926   5.186  0.6430 -0.1064 -0.5963
  260MOL0     O34973   2.577   7.800   5.241  0.7385 -0.3071 -0.5586
  260MOL0     C34974   2.707   7.738   5.246  0.3738  0.2450  0.3790
  260MOL0     C34975   2.700   7.608   5.336 -0.1634 -0.3952  0.3904
  260MOL0     C34976   2.639   7.625   5.481  0.0230  0.6358  0.0934
  260MOL0     C34977   2.730   7.696   5.569  0.1957 -0.3921  0.0649
  260MOL0     C34978   2.658   7.701   5.704 -0.2829  0.5184 -0.4007
  260MOL0     C34979   2.713   7.808   5.799  0.2507  0.6204  0.2253
  260MOL0     C34980   2.613   7.860   5.898 -0.3973 -1.3750 -0.3676
  260MOL0     C34981   2.669   7.983   5.970  0.4281  1.5420  0.6535
  260MOL0     N34982   2.791   7.953   6.047 -0.3834  0.4087 -0.8525
  260MOL0     C34983   2.915   7.994   6.007 -0.3919 -0.8632 -0.6382
  260MOL0     C34984   2.984   7.995   6.123 -0.1014 -0.0528  0.4309
  260MOL0     C34985   3.119   8.040   6.142 -0.4940  0.2681  0.3438
  260MOL0     C34986   3.217   7.943   6.077  0.6975 -1.1982 -0.2747
  260MOL0     C34987   3.352   8.006   6.044  0.3293 -0.0984 -0.5581
  260MOL0     C34988   3.417   8.061   6.167  0.1259 -0.6634  0.0304
  260MOL0     O34989   3.539   8.129   6.117  0.4851  0.5633 -0.3128
  260MOL0     C34990   3.620   8.200   6.207  0.3057  0.2871 -0.6993
  260MOL0     C34991   3.683   8.306   6.166 -0.5864  0.1609 -0.5672
  260MOL0     C34992   3.778   8.372   6.249 -1.0291 -0.1881 -0.7106
  260MOL0     C34993   3.868   8.470   6.179 -0.2110  0.0161  0.2698
  260MOL0     C34994   3.793   8.339   6.387  1.3489  0.9931 -0.4753
  260MOL0     C34995   3.881   8.407   6.485 -0.4963  0.1584 -0.1082
  260MOL0     O34996   3.934   8.321   6.580 -0.2296 -0.2278 -0.1324
  260MOL0     C34997   3.998   8.370   6.691 -0.8250 -0.1164 -0.6978
  260MOL0     C34998   4.037   8.267   6.781 -0.3214  0.0052  0.5039
  260MOL0     C34999   4.092   8.300   6.901  0.8567 -0.7781  0.5815
  260MOL0     C35000   4.123   8.428   6.942  0.1751  0.2171 -0.1894
  260MOL0     O35001   4.206   8.439   7.051 -0.2312 -0.5083 -1.0233
  260MOL0     C35002   4.166   8.538   7.148  0.5967 -0.0998  0.0832
  260MOL0     C35003   4.271   8.564   7.247  0.3153 -1.0470 -0.7485
  260MOL0     C35004   4.296   8.440   7.328 -0.0285 -0.4145  1.2557
  260MOL0     C35005   4.358   8.471   7.462 -0.2448 -0.2383 -0.2239
  260MOL0     C35006   4.334   8.365   7.565  0.6699 -0.6541  0.6059
  260MOL0     C35007   4.407   8.402   7.688  0.4932 -0.1493  0.8690
  260MOL0     C35008   4.367   8.297   7.797  0.1389  0.0181 -0.0404
  260MOL0     C35009   4.424   8.328   7.933 -0.3137 -0.2202  0.7160
  260MOL0    Cl35010   4.599   8.317   7.942  0.3314 -0.2073 -0.0543
  260MOL0     C35011   4.077   8.537   6.855  0.6956  0.5026 -0.9571
  260MOL0     C35012   4.017   8.504   6.731 -1.1643  0.5994  0.8533
  260MOL0     O35013   3.912   8.528   6.473  0.2962 -0.2424 -0.6211
  260MOL0     C35014   3.708   8.236   6.435  0.0532  0.4836 -0.0820
  260MOL0     C35015   3.618   8.169   6.346  0.6806  0.5522  0.4726
  260MOL0     N35016   2.898   7.949   6.225  0.2044 -0.7508  0.2313
  260MOL0     N35017   2.787   7.920   6.177  0.9233 -0.5428 -0.0547
  260MOL0     C35018   2.548   7.963   5.060  0.2503  0.5238 -0.0002
  260MOL0     C35019   2.534   8.094   5.027  1.0005  0.2495  0.2327
  260MOL0     C35020   2.620   8.560   5.070  0.1397 -0.6267  0.1138
  260MOL0     C35021   2.724   8.653   5.053  0.2924  0.3521 -0.6591
  260MOL0     C35022   2.704   8.775   4.989 -0.9783 -0.1284  0.1696
  260MOL0     C35023   2.589   8.801   4.917 -0.0463  0.1607 -1.4748
  260MOL0     O35024   2.567   8.913   4.846 -1.2423  0.0162 -0.2781
  260MOL0     C35025   2.646   9.029   4.856  0.3287  0.8122  0.4471
  260MOL0     C35026   2.583   9.141   4.780  0.3729  0.1772  0.4295
  260MOL0     C35027   2.647   9.265   4.826 -0.3149  0.0968 -0.1692
  260MOL0     C35028   2.626   9.389   4.736 -0.2135 -0.3871  0.3832
  260MOL0     C35029   2.680   9.518   4.782 -0.5359 -0.5978  0.3983
  260MOL0     C35030   2.726   9.627   4.812 -0.9143 -0.2691  0.7989
  260MOL0     C35031   2.484   8.708   4.934  0.6032  1.1813 -0.6650
  260MOL0     C35032   2.501   8.593   5.009 -0.1402  0.6814 -0.4035
  260MOL0     H35033   2.652   8.246   5.314  1.3516 -1.5452 -1.0150
  260MOL0     H35034   2.646   8.003   5.382  0.8784  3.1519  0.6272
  260MOL0     H35035   2.757   7.717   5.151 -0.2160 -1.8157  0.4662
  260MOL0     H35036   2.774   7.812   5.290  1.0195  2.6829 -4.1488
  260MOL0     H35037   2.642   7.532   5.282 -0.1242 -1.0621  1.2525
  260MOL0     H35038   2.802   7.569   5.342 -0.2057 -0.6558 -0.4887
  260MOL0     H35039   2.545   7.678   5.465 -0.0041  0.6469  0.2836
  260MOL0     H35040   2.635   7.525   5.525 -1.8044  0.6747  0.0597
  260MOL0     H35041   2.829   7.650   5.575  1.4078  2.1874  1.6743
  260MOL0     H35042   2.756   7.796   5.534 -1.1497 -1.0175 -2.9957
  260MOL0     H35043   2.554   7.727   5.683  0.0428  2.3091  0.0753
  260MOL0     H35044   2.661   7.599   5.744 -0.5458  0.5937 -0.1909
  260MOL0     H35045   2.797   7.766   5.855 -0.2835  0.5026  0.9581
  260MOL0     H35046   2.747   7.890   5.735  0.8494  0.4803  0.3617
  260MOL0     H35047   2.517   7.892   5.857 -0.9189 -0.7629  1.2503
  260MOL0     H35048   2.593   7.786   5.976  2.0455 -2.2294 -0.4505
  260MOL0     H35049   2.601   8.047   6.026  1.8135  4.1850 -0.4864
  260MOL0     H35050   2.699   8.057   5.895 -1.6712  0.3312 -1.5257
  260MOL0     H35051   2.952   8.042   5.917 -1.0010  1.0236  0.0767
  260MOL0     H35052   3.129   8.146   6.117 -0.0838  1.3965  4.4786
  260MOL0     H35053   3.133   8.041   6.251 -1.4729  2.8534  0.5202
  260MOL0     H35054   3.177   7.901   5.984  1.5234 -0.0265 -1.1872
  260MOL0     H35055   3.220   7.859   6.147 -0.7520 -0.3623  0.8280
  260MOL0     H35056   3.337   8.087   5.972  2.1386 -0.5477 -1.4995
  260MOL0     H35057   3.410   7.932   5.989 -0.6993 -1.1337 -0.2916
  260MOL0     H35058   3.430   7.980   6.240  0.3884 -1.1245 -0.5131
  260MOL0     H35059   3.351   8.137   6.210 -2.5098 -1.1017 -2.8779
  260MOL0     H35060   3.691   8.323   6.059 -0.2510 -2.3285 -0.9859
  260MOL0     H35061   3.861   8.465   6.070 -4.3667 -0.6372  0.4038
  260MOL0     H35062   3.840   8.570   6.214 -0.3329  0.3576 -0.7591
  260MOL0     H35063   3.970   8.450   6.214  0.2073  0.6407 -0.5455
  260MOL0     H35064   4.012   8.166   6.751 -1.9683  1.2556 -2.9132
  260MOL0     H35065   4.131   8.218   6.961  2.7178  0.0699  0.5938
  260MOL0     H35066   4.153   8.639   7.107  2.8288 -0.0113 -0.5343
  260MOL0     H35067   4.070   8.500   7.183 -0.8092 -0.2693 -3.4997
  260MOL0     H35068   4.366   8.595   7.203  0.7772  1.5044  1.7751
  260MOL0     H35069   4.222   8.636   7.313 -0.7626 -3.0106  0.6952
  260MOL0     H35070   4.350   8.369   7.264  0.9030  2.0197 -0.8267
  260MOL0     H35071   4.195   8.400   7.340 -0.7604  0.9341 -0.1670
  260MOL0     H35072   4.465   8.464   7.441 -0.8211 -0.9763 -3.5064
  260MOL0     H35073   4.353   8.572   7.505  1.8088  1.4140 -3.4680
  260MOL0     H35074   4.364   8.271   7.518 -1.4066 -1.5957  1.0103
  260MOL0     H35075   4.228   8.353   7.589  0.9448 -1.4305  1.4821
  260MOL0     H35076   4.513   8.408   7.659 -0.2074 -0.9177 -2.2142
  260MOL0     H35077   4.379   8.498   7.731 -1.5143 -0.4478  0.3103
  260MOL0     H35078   4.413   8.206   7.755  0.4011  0.3333 -0.4466
  260MOL0     H35079   4.259   8.289   7.812 -0.3336  1.0656 -2.4403
  260MOL0     H35080   4.384   8.255   8.004  1.4845  1.1885  3.4027
  260MOL0     H35081   4.400   8.427   7.973  0.2628  0.0062  0.5142
  260MOL0     H35082   4.087   8.643   6.875 -0.6112  0.2901  1.1448
  260MOL0     H35083   3.986   8.585   6.666 -1.0899 -1.6010 -2.1709
  260MOL0     H35084   3.699   8.206   6.539 -1.8740 -0.9060 -0.5741
  260MOL0     H35085   3.552   8.094   6.388  2.4363 -3.2437 -2.9119
  260MOL0     H35086   2.523   7.875   5.001  1.2781 -0.8565  1.5390
  260MOL0     H35087   2.491   8.140   4.939 -0.8407  2.9471  2.3988
  260MOL0     H35088   2.821   8.617   5.086  1.0456  3.9879  1.6503
  260MOL0     H35089   2.788   8.840   4.967 -2.6997  1.3841 -2.4676
  260MOL0     H35090   2.662   9.060   4.960  1.4816 -0.6252  0.7180
  260MOL0     H35091   2.745   9.005   4.816  0.5620  0.7186  1.0594
  260MOL0     H35092   2.476   9.152   4.803  0.1859 -0.0103 -0.3198
  260MOL0     H35093   2.599   9.128   4.672 -2.4103  2.1089 -0.3281
  260MOL0     H35094   2.755   9.248   4.825  0.0384  2.1287 -0.3548
  260MOL0     H35095   2.630   9.307   4.925  2.3527  3.2893 -0.8976
  260MOL0     H35096   2.522   9.384   4.701 -0.5587  0.5317  1.2358
  260MOL0     H35097   2.679   9.377   4.641 -0.6570  0.5661 -0.0015
  260MOL0     H35098   2.755   9.726   4.840  0.5727 -0.0024 -1.4544
  260MOL0     H35099   2.399   8.727   4.869  0.7831  3.4884 -0.3005
  260MOL0     H35100   2.426   8.517   4.989  2.2793 -1.4807 -1.8948
  261MOL0     O35101   2.677   2.202  10.393 -0.5802  0.6207  0.1192
  261MOL0     C35102   2.704   2.252  10.502  0.7351 -0.6120  0.0933
  261MOL0     O35103   2.624   2.339  10.577 -0.7418 -0.1372 -0.2909
  261MOL0     C35104   2.505   2.372  10.521 -0.2959  0.0576 -0.1904
  261MOL0     C35105   2.492   2.510  10.500 -0.2636  0.5899  0.2159
  261MOL0     C35106   2.373   2.563  10.438 -0.0905  0.2149 -0.1978
  261MOL0     C35107   2.267   2.473  10.410  1.5250  0.1495 -0.7268
  261MOL0     O35108   2.139   2.522  10.379 -0.1766 -0.5063 -0.1901
  261MOL0     C35109   2.119   2.646  10.313  0.1018 -0.1736  0.4340
  261MOL0     C35110   1.974   2.675  10.282  0.8259 -0.3507  0.2729
  261MOL0     C35111   1.884   2.702  10.402  0.4528 -0.1418  0.5882
  261MOL0     C35112   1.817   2.842  10.386  0.2752  0.1579 -0.9952
  261MOL0     C35113   1.709   2.838  10.506  0.4286 -1.0413  0.6583
  261MOL0     C35114   1.672   2.975  10.547  0.9052 -0.2245 -0.4779
  261MOL0     C35115   1.550   2.966  10.652 -0.3801 -1.2017  0.4620
  261MOL0     C35116   1.493   3.108  10.701 -0.4571  0.6789  0.5894
  261MOL0     N35117   1.591   3.195  10.741 -0.5707 -0.4724 -0.5245
  261MOL0     C35118   1.603   3.326  10.699 -0.4832  0.5353  0.1495
  261MOL0     C35119   1.722   3.371  10.739 -0.7577  0.7759 -0.0424
  261MOL0     C35120   1.791   3.501  10.718 -0.1568  1.2031 -0.3214
  261MOL0     C35121   1.709   3.606  10.661  0.5539 -0.9653  0.0465
  261MOL0     C35122   1.623   3.676  10.770 -1.0316  0.2585 -0.5240
  261MOL0     C35123   1.581   3.805  10.713 -0.9184  0.4287 -0.0810
  261MOL0     O35124   1.470   3.845  10.802 -0.1492 -0.0283 -0.1330
  261MOL0     C35125   1.399   3.964  10.771 -0.0803  0.7925  0.2840
  261MOL0     C35126   1.436   4.050  10.671  0.2811 -0.7901  0.2724
  261MOL0     C35127   1.345   4.152  10.632  1.0005 -0.2558  0.0507
  261MOL0     C35128   1.376   4.237  10.501 -0.0163 -0.3469  0.3960
  261MOL0     C35129   1.210   4.158  10.689 -0.2528 -0.1682 -0.1648
  261MOL0     C35130   1.105   4.256  10.635  0.1136 -0.0725 -0.0082
  261MOL0     O35131   1.100   4.269  10.491  0.4758 -0.0754 -0.6635
  261MOL0     C35132   0.982   4.324  10.434  0.0883  0.3054 -0.9756
  261MOL0     C35133   0.927   4.438  10.498  0.9743  0.1760  0.3050
  261MOL0     C35134   0.812   4.490  10.445  0.4187  0.2282  0.6258
  261MOL0     C35135   0.742   4.435  10.326 -1.2932 -0.4966  0.5447
  261MOL0     O35136   0.624   4.494  10.281  0.3456 -0.3755  0.2348
  261MOL0     C35137   0.613   4.641  10.289  0.1797 -0.3719  0.0013
  261MOL0     C35138   0.561   4.691  10.153  0.3258 -0.5878 -0.3837
  261MOL0     C35139   0.473   4.819  10.163  0.3119 -0.9783  0.0011
  261MOL0     C35140   0.548   4.957  10.191 -0.8340  0.7893  0.3376
  261MOL0     C35141   0.468   5.077  10.139 -0.4912 -0.1314  0.4350
  261MOL0     C35142   0.543   5.205  10.187 -0.9357 -0.2877  0.0370
  261MOL0     C35143   0.666   5.248  10.108 -0.5061  0.4393 -0.4862
  261MOL0     C35144   0.784   5.313  10.187  0.2399  0.1473 -0.0520
  261MOL0    Cl35145   0.932   5.337  10.096  0.3974  0.4231 -0.2154
  261MOL0     C35146   0.805   4.324  10.267  0.7261  1.4210 -0.4249
  261MOL0     C35147   0.926   4.268  10.318  0.5730 -0.6105 -0.1138
  261MOL0     O35148   1.021   4.292  10.714 -0.7332  0.6261 -0.1016
  261MOL0     C35149   1.194   4.089  10.814  1.3402 -0.1410  0.1244
  261MOL0     C35150   1.284   3.989  10.845  0.1547  0.2907  0.9140
  261MOL0     N35151   1.767   3.272  10.827  0.1673 -0.3458  0.7761
  261MOL0     N35152   1.694   3.168  10.824  0.8978 -0.9401 -0.2910
  261MOL0     C35153   2.284   2.336  10.416 -0.2331 -0.0862 -0.0259
  261MOL0     C35154   2.406   2.288  10.463  0.5107  0.7578 -0.7800
  261MOL0     C35155   2.838   2.224  10.569  0.4660  1.0065  0.0131
  261MOL0     C35156   2.884   2.088  10.563 -0.0031  0.5699  0.6920
  261MOL0     C35157   2.994   2.050  10.648  0.0617  0.5833 -0.5289
  261MOL0     C35158   3.058   2.144  10.727  0.0711 -0.1466  0.3854
  261MOL0     O35159   3.170   2.132  10.806  0.2166  1.0816 -0.0157
  261MOL0     C35160   3.223   2.004  10.840 -0.6545 -0.5353  1.7323
  261MOL0     C35161   3.317   1.956  10.729  0.0659 -0.1268  0.2760
  261MOL0     C35162   3.464   1.960  10.760 -0.1099 -0.5724  0.5263
  261MOL0     C35163   3.512   1.833  10.837 -0.1399  0.1995 -0.1209
  261MOL0     C35164   3.535   1.715  10.752 -0.3063  0.2291  0.2614
  261MOL0     C35165   3.573   1.620  10.684 -0.5890 -0.2994 -0.1100
  261MOL0     C35166   3.015   2.280  10.732 -0.3553 -0.3811  1.0940
  261MOL0     C35167   2.898   2.309  10.665 -0.5958  0.1436 -0.3482
  261MOL0     H35168   2.566   2.582  10.531  1.0599  0.6174 -2.7242
  261MOL0     H35169   2.364   2.672  10.440  1.3357  0.3407  0.2926
  261MOL0     H35170   2.154   2.727  10.378 -2.2507  2.6354 -1.5440
  261MOL0     H35171   2.174   2.641  10.219  0.5724  0.6454  0.6553
  261MOL0     H35172   1.957   2.748  10.203 -1.6415 -0.5582  0.5528
  261MOL0     H35173   1.940   2.585  10.231  0.7110 -2.2069  3.3635
  261MOL0     H35174   1.806   2.625  10.395 -1.4166  1.5834  1.3977
  261MOL0     H35175   1.938   2.686  10.496 -3.7177  2.7629  3.8797
  261MOL0     H35176   1.884   2.924  10.413  0.1124  0.5327 -1.7119
  261MOL0     H35177   1.782   2.851  10.283  1.8938 -3.1357 -1.9819
  261MOL0     H35178   1.623   2.778  10.474 -0.9541  0.2383  1.8417
  261MOL0     H35179   1.746   2.794  10.600 -0.4212  1.1292  2.0784
  261MOL0     H35180   1.757   3.018  10.601  1.7636 -2.7619  0.3423
  261MOL0     H35181   1.656   3.044  10.464 -0.0026  0.7318  0.4606
  261MOL0     H35182   1.470   2.903  10.613  1.1480 -1.1742 -3.0885
  261MOL0     H35183   1.590   2.912  10.739  1.1474 -0.2816  0.3794
  261MOL0     H35184   1.427   3.076  10.782 -0.8509 -0.3219 -0.1209
  261MOL0     H35185   1.433   3.154  10.623  0.2685  2.0881  0.8209
  261MOL0     H35186   1.538   3.390  10.641 -1.4007  3.0227  3.5690
  261MOL0     H35187   1.836   3.523  10.816  0.4014  0.5126 -0.4122
  261MOL0     H35188   1.862   3.484  10.637 -0.4855  0.7283 -0.5129
  261MOL0     H35189   1.650   3.561  10.580  2.9252 -3.8687 -0.2555
  261MOL0     H35190   1.770   3.686  10.617 -1.9338  0.2902 -1.3121
  261MOL0     H35191   1.680   3.686  10.862  1.4391  2.0300 -2.1275
  261MOL0     H35192   1.538   3.608  10.782  1.1320 -2.6800 -0.7922
  261MOL0     H35193   1.552   3.800  10.608  2.3569  0.2348 -1.0727
  261MOL0     H35194   1.671   3.866  10.724 -0.3060 -0.5971  0.7161
  261MOL0     H35195   1.536   4.040  10.630  0.3521  3.2556 -0.9680
  261MOL0     H35196   1.345   4.189  10.408 -0.2454 -0.4139  0.5050
  261MOL0     H35197   1.331   4.337  10.508  2.3186  0.7569  0.5191
  261MOL0     H35198   1.484   4.247  10.492 -0.2670  1.2439 -1.6600
  261MOL0     H35199   0.956   4.497  10.584 -1.9482  2.6385 -0.2087
  261MOL0     H35200   0.764   4.577  10.489  1.8859  1.4713 -0.1458
  261MOL0     H35201   0.543   4.659  10.371 -0.4160 -0.4277 -0.4870
  261MOL0     H35202   0.703   4.702  10.301 -0.5851  1.1872 -1.7227
  261MOL0     H35203   0.650   4.720  10.096  0.3793  0.2606  0.1056
  261MOL0     H35204   0.504   4.615  10.100 -0.8277  0.3842 -0.5792
  261MOL0     H35205   0.401   4.810  10.245  0.9404  2.5305  1.0870
  261MOL0     H35206   0.418   4.825  10.069  0.1574  2.0082  0.1918
  261MOL0     H35207   0.555   4.980  10.297 -1.9849  1.4870  0.2803
  261MOL0     H35208   0.643   4.962  10.136 -0.0728  1.0322  1.6442
  261MOL0     H35209   0.366   5.082  10.179 -2.9705 -0.5408 -4.9586
  261MOL0     H35210   0.458   5.082  10.030  0.1791 -0.8392  0.3352
  261MOL0     H35211   0.473   5.289  10.183 -0.7024 -0.1437 -1.3679
  261MOL0     H35212   0.575   5.194  10.291 -0.4698 -3.2024 -0.3225
  261MOL0     H35213   0.644   5.324  10.033  0.7166  0.9384 -0.3610
  261MOL0     H35214   0.708   5.165  10.051 -3.0708  0.0834 -2.0122
  261MOL0     H35215   0.802   5.265  10.284  0.1989  0.9345  0.3581
  261MOL0     H35216   0.751   5.415  10.210 -1.8994  0.5641 -4.0015
  261MOL0     H35217   0.763   4.279  10.178  1.8922  0.9319 -0.7544
  261MOL0     H35218   0.971   4.174  10.289 -0.8852 -1.3140 -0.1579
  261MOL0     H35219   1.107   4.099  10.877  0.3902  0.9368 -1.2795
  261MOL0     H35220   1.265   3.929  10.934 -1.0706 -1.7216 -0.6040
  261MOL0     H35221   2.222   2.259  10.371 -3.5937  2.1748  0.3768
  261MOL0     H35222   2.408   2.179  10.465  1.8244  0.7003 -2.4952
  261MOL0     H35223   2.844   2.007  10.502 -0.3345  0.2917  1.2746
  261MOL0     H35224   3.023   1.945  10.636 -0.8542  0.2609 -0.0097
  261MOL0     H35225   3.285   2.001  10.929  3.0156  0.6389 -0.5578
  261MOL0     H35226   3.139   1.933  10.840  0.3289 -1.7869  0.0033
  261MOL0     H35227   3.302   2.016  10.638  3.2973  2.0988  1.0445
  261MOL0     H35228   3.298   1.850  10.710 -0.0326 -0.3418  1.5207
  261MOL0     H35229   3.500   2.054  10.803  1.2978 -1.1423  0.6539
  261MOL0     H35230   3.520   1.959  10.666  1.9808  1.3703  1.6627
  261MOL0     H35231   3.435   1.806  10.910  0.4581  6.3036  3.5294
  261MOL0     H35232   3.606   1.854  10.888 -0.0172  0.5559 -0.4886
  261MOL0     H35233   3.607   1.529  10.640  4.1198  1.2048 -0.2100
  261MOL0     H35234   3.061   2.352  10.799  2.0262 -1.5573  0.7969
  261MOL0     H35235   2.848   2.402  10.687 -1.6929 -0.3817 -0.5684
  262MOL0     O35236   0.622   9.933   4.805 -0.6177  0.2753  0.5840
  262MOL0     C35237   0.524   9.980   4.859  0.0384 -0.5082  0.4597
  262MOL0     O35238   0.403  10.013   4.792 -0.1828 -0.0394  0.6677
  262MOL0     C35239   0.379   9.966   4.666  0.5489  0.2241  0.5196
  262MOL0     C35240   0.472   9.967   4.562 -0.3175 -0.5876  0.9861
  262MOL0     C35241   0.429   9.929   4.431 -0.3483 -0.3402 -0.1050
  262MOL0     C35242   0.302   9.891   4.411  0.8639 -1.0297  0.4219
  262MOL0     O35243   0.268   9.845   4.292 -0.3870 -0.5551 -0.6059
  262MOL0     C35244   0.133   9.820   4.262 -0.4478  0.4200  0.0151
  262MOL0     C35245   0.129   9.746   4.127 -0.2586  0.6618  0.6546
  262MOL0     C35246   0.033   9.627   4.131 -1.2397  0.4583  0.8853
  262MOL0     C35247  -0.109   9.655   4.168  0.5913  0.9470  0.3816
  262MOL0     C35248  -0.197   9.527   4.196  0.1460  0.6810 -0.2938
  262MOL0     C35249  -0.339   9.572   4.255 -0.3002  0.0571 -0.6719
  262MOL0     C35250  -0.433   9.454   4.276  0.2573 -0.0471  0.2498
  262MOL0     C35251  -0.406   9.371   4.403  0.5149 -0.6577  1.0138
  262MOL0     N35252  -0.496   9.256   4.413  1.0192  0.0793 -0.7382
  262MOL0     C35253  -0.475   9.131   4.381  0.2645 -1.5370 -0.6912
  262MOL0     C35254  -0.586   9.055   4.407  0.2343 -0.5455 -0.1342
  262MOL0     C35255  -0.597   8.911   4.368  0.4626 -0.1759 -0.6991
  262MOL0     C35256  -0.617   8.825   4.507  0.7666  0.1774  0.2487
  262MOL0     C35257  -0.663   8.679   4.479  0.3823  0.5164 -0.4389
  262MOL0     C35258  -0.599   8.604   4.362 -0.1691  0.2609  0.6634
  262MOL0     O35259  -0.455   8.618   4.378  0.0776 -0.3317 -0.0424
  262MOL0     C35260  -0.380   8.516   4.325  0.0026  0.3092  0.6053
  262MOL0     C35261  -0.405   8.461   4.196  0.7534  0.0353 -0.4781
  262MOL0     C35262  -0.325   8.361   4.133 -0.4223 -0.6578  0.7517
  262MOL0     C35263  -0.371   8.312   3.996 -0.4333 -0.4005 -0.1539
  262MOL0     C35264  -0.214   8.313   4.210 -0.3781  0.6674  1.0081
  262MOL0     C35265  -0.137   8.196   4.166 -1.3432 -0.1615 -0.9885
  262MOL0     O35266  -0.108   8.100   4.258  0.0719  0.1067 -0.1244
  262MOL0     C35267  -0.053   7.982   4.213  0.2306 -0.1616 -0.5773
  262MOL0     C35268  -0.119   7.898   4.130 -0.3708  0.2651  0.1617
  262MOL0     C35269  -0.069   7.773   4.106  0.1685  0.1813  1.0153
  262MOL0     C35270   0.057   7.734   4.156  1.0309 -0.6636  0.2353
  262MOL0     O35271   0.108   7.614   4.109  0.8884 -0.1123  0.5115
  262MOL0     C35272   0.246   7.599   4.135 -0.4903 -0.5595 -0.8644
  262MOL0     C35273   0.291   7.510   4.014  0.0284 -0.1222  0.4360
  262MOL0     C35274   0.234   7.375   4.015  0.6718 -0.3420 -0.1047
  262MOL0     C35275   0.302   7.282   3.916  0.4682 -0.4397 -0.0724
  262MOL0     C35276   0.261   7.137   3.952 -0.2137  0.3235 -0.0572
  262MOL0     C35277   0.118   7.089   3.927 -0.1793  0.4452  0.1920
  262MOL0     C35278   0.092   7.061   3.775  0.2129 -0.5490 -0.4849
  262MOL0     C35279   0.097   6.916   3.732 -0.4749  0.7033  0.6278
  262MOL0    Cl35280   0.261   6.852   3.746  0.2052 -0.2457 -0.3391
  262MOL0     C35281   0.121   7.812   4.246  0.3398  0.5736  0.0544
  262MOL0     C35282   0.058   7.936   4.279  0.3607  0.2798 -0.3946
  262MOL0     O35283  -0.091   8.193   4.050  0.1671 -0.0388  0.0185
  262MOL0     C35284  -0.194   8.369   4.338 -0.2594  0.2074  0.9119
  262MOL0     C35285  -0.275   8.463   4.393 -0.1684  0.3262 -0.1744
  262MOL0     N35286  -0.683   9.138   4.456 -0.1767  0.1868 -0.2173
  262MOL0     N35287  -0.626   9.253   4.473  0.7248 -0.7042  0.0603
  262MOL0     C35288   0.201   9.901   4.514  0.0525  0.4745  0.0263
  262MOL0     C35289   0.247   9.930   4.645  0.5539 -1.1348  0.4348
  262MOL0     C35290   0.537  10.031   4.995 -1.1660 -0.5148 -0.4770
  262MOL0     C35291   0.426  10.043   5.082 -0.2932  0.4539 -0.0109
  262MOL0     C35292   0.439  10.108   5.204  0.0917  0.9900 -0.6507
  262MOL0     C35293   0.555  10.161   5.242 -0.3764 -0.0893  0.0600
  262MOL0     O35294   0.555  10.236   5.356  0.4671  0.7740 -0.8056
  262MOL0     C35295   0.672  10.293   5.415 -0.4545  0.2171 -0.4911
  262MOL0     C35296   0.663  10.401   5.517  0.4988  0.1343 -0.4308
  262MOL0     C35297   0.807  10.445   5.562  0.3299 -0.1735  0.0609
  262MOL0     C35298   0.822  10.596   5.605  0.6346  0.9690 -0.1453
  262MOL0     C35299   0.780  10.600   5.741  0.1992  0.3294  0.6113
  262MOL0     C35300   0.755  10.611   5.853  0.4790 -0.2771 -0.0779
  262MOL0     C35301   0.668  10.156   5.160 -0.3854 -0.9045 -0.3469
  262MOL0     C35302   0.660  10.081   5.041 -0.4240 -1.0229 -0.2997
  262MOL0     H35303   0.576   9.992   4.579 -0.4326 -0.1939  1.1262
  262MOL0     H35304   0.489   9.925   4.341 -0.1773 -0.0472 -0.0043
  262MOL0     H35305   0.101   9.747   4.337 -2.2396 -0.5597 -1.6044
  262MOL0     H35306   0.063   9.905   4.264 -0.1617  0.6764 -0.6208
  262MOL0     H35307   0.097   9.817   4.050 -0.1496 -1.2019 -1.2011
  262MOL0     H35308   0.221   9.693   4.102 -0.5561  0.6452 -0.4676
  262MOL0     H35309   0.043   9.565   4.041 -2.3076 -0.0561  1.1133
  262MOL0     H35310   0.065   9.564   4.214 -2.2682 -2.2452 -0.6162
  262MOL0     H35311  -0.110   9.721   4.255  2.0616  0.3665  0.8573
  262MOL0     H35312  -0.162   9.709   4.088  0.0500 -1.1844 -0.7807
  262MOL0     H35313  -0.206   9.469   4.103 -1.7197 -0.6875  0.6819
  262MOL0     H35314  -0.142   9.464   4.266 -0.5153  1.9976  1.4697
  262MOL0     H35315  -0.340   9.635   4.344  3.2345 -1.6302  0.7638
  262MOL0     H35316  -0.367   9.636   4.170  2.9552  1.3382 -0.9116
  262MOL0     H35317  -0.533   9.498   4.282 -0.1979 -1.1792  1.7035
  262MOL0     H35318  -0.428   9.387   4.190 -0.6742 -0.0618  0.1972
  262MOL0     H35319  -0.429   9.437   4.488  0.3756 -1.2273  1.4221
  262MOL0     H35320  -0.304   9.333   4.414  1.3506  1.7011  2.0881
  262MOL0     H35321  -0.385   9.096   4.331  0.1783 -1.7419 -0.7051
  262MOL0     H35322  -0.683   8.908   4.301  0.4493 -0.4719 -0.6675
  262MOL0     H35323  -0.508   8.889   4.309 -1.9719 -2.6057 -3.8452
  262MOL0     H35324  -0.694   8.856   4.578 -0.3842  0.6929 -1.1825
  262MOL0     H35325  -0.521   8.837   4.558  0.0418  4.6312  1.0240
  262MOL0     H35326  -0.771   8.683   4.463  0.8069 -0.1128 -4.9564
  262MOL0     H35327  -0.650   8.613   4.565  2.0239  1.2115 -0.1233
  262MOL0     H35328  -0.618   8.638   4.260  0.0653  0.2544  0.6164
  262MOL0     H35329  -0.625   8.499   4.371  0.2794  0.1910  1.2300
  262MOL0     H35330  -0.490   8.496   4.138  0.0280  0.0851  0.5783
  262MOL0     H35331  -0.306   8.360   3.923 -0.7348 -0.9346 -0.7787
  262MOL0     H35332  -0.356   8.205   3.980 -0.3552 -0.2850 -0.8888
  262MOL0     H35333  -0.475   8.328   3.967 -0.2333 -2.1869 -2.0572
  262MOL0     H35334  -0.213   7.937   4.094 -0.9522 -1.3644 -0.1794
  262MOL0     H35335  -0.123   7.706   4.040  0.3240 -1.1856  2.2087
  262MOL0     H35336   0.316   7.682   4.137  0.4482 -1.1139 -4.3162
  262MOL0     H35337   0.264   7.545   4.229  1.7154  2.7536  0.7915
  262MOL0     H35338   0.268   7.568   3.925 -0.7865  0.0143  0.7238
  262MOL0     H35339   0.400   7.510   4.023  0.0405  0.7318  0.3830
  262MOL0     H35340   0.126   7.367   4.002  0.8126 -2.1582 -0.2998
  262MOL0     H35341   0.254   7.334   4.115 -0.3867  1.3655  0.8542
  262MOL0     H35342   0.263   7.303   3.816 -1.6740  0.5322  0.8902
  262MOL0     H35343   0.410   7.294   3.913  0.2842  2.1229 -4.5859
  262MOL0     H35344   0.281   7.113   4.057 -1.9584  2.6867  0.8910
  262MOL0     H35345   0.322   7.070   3.890  0.3513  0.8074 -0.0310
  262MOL0     H35346   0.106   6.999   3.988 -0.0110  0.5260  0.3443
  262MOL0     H35347   0.046   7.165   3.958  0.6096  1.4191 -0.3036
  262MOL0     H35348   0.157   7.116   3.705 -1.9012 -0.1000 -2.1938
  262MOL0     H35349  -0.005   7.101   3.745  1.2595  2.4193 -0.2961
  262MOL0     H35350   0.049   6.915   3.633 -1.6039  2.3197  1.1259
  262MOL0     H35351   0.032   6.852   3.792  0.7843 -0.8629  0.3984
  262MOL0     H35352   0.213   7.783   4.296 -0.8461  0.8576  2.5652
  262MOL0     H35353   0.123   7.985   4.351  0.0265 -2.2277  1.7493
  262MOL0     H35354  -0.112   8.323   4.392 -1.9003 -0.4708  2.9630
  262MOL0     H35355  -0.249   8.508   4.489 -0.6012  4.5102 -1.8187
  262MOL0     H35356   0.094   9.888   4.501 -0.0792  1.1253  0.4488
  262MOL0     H35357   0.182   9.930   4.732  0.5644 -0.6866  0.4454
  262MOL0     H35358   0.329  10.008   5.047 -1.7803  2.4456  1.8484
  262MOL0     H35359   0.350  10.116   5.265  1.2391 -0.4952  1.3560
  262MOL0     H35360   0.732  10.212   5.457 -1.0047  0.1202  0.1247
  262MOL0     H35361   0.727  10.339   5.333 -0.2672 -1.6744 -1.4895
  262MOL0     H35362   0.602  10.358   5.597 -2.1686 -1.7074 -3.2197
  262MOL0     H35363   0.607  10.487   5.478 -1.6023 -0.5456  0.8995
  262MOL0     H35364   0.876  10.421   5.481  1.1515 -0.8106  0.9260
  262MOL0     H35365   0.848  10.378   5.638  0.5543 -0.0811  0.0239
  262MOL0     H35366   0.754  10.657   5.545 -0.1620  0.0914 -0.1626
  262MOL0     H35367   0.925  10.630   5.611  0.7904  0.2887  2.5654
  262MOL0     H35368   0.733  10.623   5.957 -3.2006 -1.5374 -0.5411
  262MOL0     H35369   0.759  10.211   5.182 -0.1328 -2.5121  3.2500
  262MOL0     H35370   0.744  10.066   4.974  0.4463 -0.0247  0.5269
  263MOL0     O35371   4.516   9.539   9.334 -0.0840  0.2276  0.2089
  263MOL0     C35372   4.454   9.587   9.238  0.4616 -0.1084  0.6009
  263MOL0     O35373   4.401   9.714   9.226 -0.9251  0.7383  0.5625
  263MOL0     C35374   4.375   9.795   9.332  0.6097 -0.5960 -0.1691
  263MOL0     C35375   4.355   9.758   9.468 -0.0488 -0.5394 -0.5274
  263MOL0     C35376   4.325   9.855   9.561 -1.0981 -0.4367 -0.5697
  263MOL0     C35377   4.314   9.994   9.525  0.0870  1.0304  0.0974
  263MOL0     O35378   4.303  10.099   9.615  0.5711  0.4249 -0.3975
  263MOL0     C35379   4.258  10.077   9.745  0.9290  0.4253 -0.3737
  263MOL0     C35380   4.191  10.194   9.798 -0.8043 -0.9034 -0.4505
  263MOL0     C35381   4.285  10.310   9.842 -0.6653  1.1998  0.0779
  263MOL0     C35382   4.238  10.444   9.786  0.3034 -0.2089  0.6133
  263MOL0     C35383   4.310  10.547   9.878  0.1068  0.6585  0.1770
  263MOL0     C35384   4.302  10.698   9.851 -0.0819 -0.4446  0.0463
  263MOL0     C35385   4.359  10.791   9.962 -0.0607 -0.8098  0.6600
  263MOL0     C35386   4.507  10.745  10.004 -0.2081 -0.4212  0.5950
  263MOL0     N35387   4.585  10.867  10.056  0.2253  0.6562 -1.0401
  263MOL0     C35388   4.618  10.977   9.980 -0.0084  0.4129  0.6230
  263MOL0     C35389   4.627  11.071  10.075  0.2743 -0.4386  0.2873
  263MOL0     C35390   4.636  11.216  10.039  1.1654  0.6879 -0.4570
  263MOL0     C35391   4.752  11.290  10.113  0.0223 -0.7314 -0.2691
  263MOL0     C35392   4.742  11.434  10.085 -0.4757  0.0682  0.0128
  263MOL0     C35393   4.842  11.510  10.164  0.0888  0.3516 -0.4516
  263MOL0     O35394   4.853  11.641  10.104 -0.4459 -0.6569 -0.1643
  263MOL0     C35395   4.793  11.754  10.166  0.6643  0.2352 -0.5141
  263MOL0     C35396   4.840  11.799  10.290  0.1684 -0.0258 -0.3156
  263MOL0     C35397   4.800  11.911  10.353 -0.1042  0.6882  0.0176
  263MOL0     C35398   4.876  11.942  10.479  0.1967  0.2252 -0.3934
  263MOL0     C35399   4.699  11.994  10.292 -0.8973 -0.0031  0.1321
  263MOL0     C35400   4.650  12.121  10.345  0.0125  0.4156  0.0894
  263MOL0     O35401   4.564  12.192  10.264  0.2521 -0.8683 -1.1813
  263MOL0     C35402   4.492  12.313  10.302 -0.3122  0.1461 -0.0051
  263MOL0     C35403   4.478  12.406  10.200  0.8633 -0.4162 -0.2959
  263MOL0     C35404   4.394  12.521  10.215 -0.4797 -0.1298  0.0876
  263MOL0     C35405   4.345  12.547  10.339  0.3446 -0.3619 -0.0389
  263MOL0     O35406   4.280  12.670  10.347  0.5205  0.3593  0.5769
  263MOL0     C35407   4.153  12.684  10.276  0.0606  0.0353 -0.1180
  263MOL0     C35408   4.133  12.830  10.251  0.5864  0.4789  0.5494
  263MOL0     C35409   4.144  12.925  10.363  0.8299  0.4658 -1.3567
  263MOL0     C35410   4.008  12.927  10.440 -0.1154  0.0517 -0.7819
  263MOL0     C35411   4.031  13.022  10.555 -0.7269  0.0359  0.7935
  263MOL0     C35412   3.901  13.036  10.642  0.8844 -0.3367  0.5700
  263MOL0     C35413   3.926  13.154  10.746 -0.1688 -0.5170 -1.0418
  263MOL0     C35414   3.919  13.093  10.887  0.2174 -0.9895 -0.2627
  263MOL0    Cl35415   3.982  13.213  11.011 -0.0915 -0.5011 -0.0418
  263MOL0     C35416   4.361  12.455  10.437 -0.2927 -0.0026 -0.4077
  263MOL0     C35417   4.436  12.339  10.423  0.2613  0.1471  0.4455
  263MOL0     O35418   4.680  12.151  10.458  0.3465  0.0312 -0.3464
  263MOL0     C35419   4.642  11.949  10.163 -0.6923  0.0179  0.4932
  263MOL0     C35420   4.691  11.833  10.107  0.2108  0.8802 -0.1836
  263MOL0     N35421   4.619  11.023  10.200  0.3143 -0.2355  0.0206
  263MOL0     N35422   4.587  10.902  10.188  0.7533  0.1902 -0.6480
  263MOL0     C35423   4.324  10.027   9.392 -0.8038 -0.0733 -0.1954
  263MOL0     C35424   4.349   9.933   9.295 -0.7287  0.3911  0.3758
  263MOL0     C35425   4.455   9.502   9.116  0.0334 -0.8249  0.2851
  263MOL0     C35426   4.401   9.558   8.992  0.5196 -0.4149  0.0797
  263MOL0     C35427   4.419   9.489   8.865  0.4168 -0.3993 -0.2739
  263MOL0     C35428   4.491   9.368   8.864 -0.6711 -0.2443 -0.0159
  263MOL0     O35429   4.515   9.294   8.756  0.4240  0.2357  0.3552
  263MOL0     C35430   4.431   9.304   8.638  0.8889  0.0653  0.8593
  263MOL0     C35431   4.520   9.248   8.536 -0.2839  0.1319 -0.5203
  263MOL0     C35432   4.528   9.097   8.556  0.8950 -0.2531  0.1543
  263MOL0     C35433   4.398   9.009   8.514 -0.4874  0.5675  0.2952
  263MOL0     C35434   4.335   9.044   8.384  0.3528 -0.0138 -0.7447
  263MOL0     C35435   4.277   9.072   8.287  0.4852  0.6972  0.2525
  263MOL0     C35436   4.550   9.321   8.984 -0.0340 -0.8388 -0.2610
  263MOL0     C35437   4.524   9.377   9.110  1.1785  0.2329 -0.9787
  263MOL0     H35438   4.366   9.655   9.502 -1.0772 -0.8220 -1.0156
  263MOL0     H35439   4.322   9.828   9.666 -0.8258 -1.6952 -0.8682
  263MOL0     H35440   4.186   9.994   9.742  0.5087  0.7778 -0.0896
  263MOL0     H35441   4.339  10.047   9.812  1.4763 -0.1646 -1.2738
  263MOL0     H35442   4.115  10.232   9.729  1.5154  0.5666 -2.3574
  263MOL0     H35443   4.134  10.168   9.888 -3.5989  0.3782 -1.7165
  263MOL0     H35444   4.301  10.306   9.950 -1.8127  0.1427  0.2317
  263MOL0     H35445   4.390  10.303   9.813 -0.6211  1.7491  0.0909
  263MOL0     H35446   4.269  10.446   9.681  0.7078 -5.7937  0.3419
  263MOL0     H35447   4.129  10.444   9.796  0.5429  0.2671  6.9809
  263MOL0     H35448   4.295  10.525   9.984  2.3144 -2.5312 -0.0501
  263MOL0     H35449   4.419  10.543   9.872  0.1055  1.6373 -1.0044
  263MOL0     H35450   4.366  10.732   9.769  1.3152  2.6134  2.2238
  263MOL0     H35451   4.198  10.728   9.834  0.7277  2.9049  0.2992
  263MOL0     H35452   4.335  10.894   9.933 -0.6343 -0.7256  1.4057
  263MOL0     H35453   4.287  10.770  10.041 -4.4834 -0.3027 -2.8196
  263MOL0     H35454   4.555  10.708   9.913  0.4071  1.3370  0.1458
  263MOL0     H35455   4.501  10.662  10.074  0.1531 -0.8220  0.1525
  263MOL0     H35456   4.611  10.984   9.872 -0.8530 -1.8564  0.4863
  263MOL0     H35457   4.641  11.225   9.930 -0.9044 -1.0614 -0.7562
  263MOL0     H35458   4.537  11.252  10.069  1.3428  0.3498  0.5698
  263MOL0     H35459   4.853  11.251  10.093 -0.4729 -3.3112  1.7463
  263MOL0     H35460   4.734  11.268  10.219 -3.5569 -0.2264 -0.6708
  263MOL0     H35461   4.639  11.462  10.109 -1.6934 -1.5974 -2.8243
  263MOL0     H35462   4.761  11.447   9.978 -1.9967  1.9869 -0.0955
  263MOL0     H35463   4.937  11.456  10.170 -1.5808 -2.7275  0.8537
  263MOL0     H35464   4.809  11.510  10.269  1.9464 -1.7320  0.2248
  263MOL0     H35465   4.923  11.738  10.324  1.5448  1.9612  0.0962
  263MOL0     H35466   4.949  11.864  10.503  0.1096  0.6014  1.2399
  263MOL0     H35467   4.931  12.033  10.455  3.3311 -1.5946 -0.7358
  263MOL0     H35468   4.815  11.959  10.568 -0.3240 -0.1896 -0.6704
  263MOL0     H35469   4.534  12.381  10.111  3.9599 -1.7546  1.8634
  263MOL0     H35470   4.403  12.608  10.151 -0.7484 -0.0619  0.1439
  263MOL0     H35471   4.141  12.629  10.182 -0.7966  0.7347 -0.4319
  263MOL0     H35472   4.074  12.648  10.343  0.8986 -0.1449  0.7962
  263MOL0     H35473   4.212  12.853  10.179  2.1454 -0.8574  1.7727
  263MOL0     H35474   4.042  12.831  10.191  0.1765 -0.7553  1.1066
  263MOL0     H35475   4.156  13.028  10.330  0.4543  1.5647  1.5840
  263MOL0     H35476   4.228  12.883  10.420  0.0989 -1.6785 -1.7526
  263MOL0     H35477   3.924  12.971  10.385 -2.4072 -1.2076  1.4761
  263MOL0     H35478   3.984  12.827  10.477  0.7690  0.6335  1.5015
  263MOL0     H35479   4.058  13.123  10.523  0.4727  0.6667  3.5573
  263MOL0     H35480   4.109  12.988  10.624  1.4009  1.9570 -0.5176
  263MOL0     H35481   3.812  13.051  10.580 -0.3347 -2.6154  1.6472
  263MOL0     H35482   3.898  12.935  10.684 -0.3793 -0.6793 -0.2951
  263MOL0     H35483   3.848  13.230  10.731 -1.5048 -2.2754 -3.6806
  263MOL0     H35484   4.026  13.199  10.743  1.2744 -3.4544 -0.4467
  263MOL0     H35485   3.986  13.008  10.903  0.4232 -0.7843 -0.0165
  263MOL0     H35486   3.822  13.061  10.927  0.3381  0.9318  1.7627
  263MOL0     H35487   4.335  12.494  10.535 -1.0818  2.6526 -1.5672
  263MOL0     H35488   4.461  12.276  10.508 -0.3499  0.5025  0.8930
  263MOL0     H35489   4.554  11.996  10.122 -0.9603 -1.7524 -1.1280
  263MOL0     H35490   4.651  11.804  10.010 -1.9930  0.8781  0.6923
  263MOL0     H35491   4.307  10.133   9.374 -0.5953  0.0503  0.3187
  263MOL0     H35492   4.347   9.959   9.190 -1.8416  1.6941  0.6919
  263MOL0     H35493   4.357   9.657   8.996 -0.6190 -0.9221  0.6684
  263MOL0     H35494   4.384   9.538   8.775  1.4641 -0.6788 -0.8504
  263MOL0     H35495   4.340   9.245   8.648  2.2230 -2.0475  1.0081
  263MOL0     H35496   4.420   9.404   8.594  2.2568 -0.2394 -0.2351
  263MOL0     H35497   4.621   9.291   8.538  1.1851 -3.0678 -0.1783
  263MOL0     H35498   4.477   9.263   8.437  1.6490  0.2560 -1.3685
  263MOL0     H35499   4.559   9.077   8.659  0.9508  2.9428  0.8471
  263MOL0     H35500   4.600   9.075   8.477  0.6754  0.6836 -0.3149
  263MOL0     H35501   4.323   9.002   8.594 -1.3525 -2.3048 -0.6413
  263MOL0     H35502   4.440   8.910   8.494  0.4867  0.9725  0.2426
  263MOL0     H35503   4.243   9.101   8.190 -2.9699 -1.0778  0.7688
  263MOL0     H35504   4.612   9.232   8.993  0.8555 -0.0346  3.0509
  263MOL0     H35505   4.546   9.322   9.201 -1.7316 -2.5311 -1.7772
  264MOL0     O35506   8.961   4.502   7.992 -0.1862  0.4575  0.6486
  264MOL0     C35507   8.905   4.571   7.903 -0.2064 -0.2358 -0.0705
  264MOL0     O35508   8.972   4.630   7.797 -0.3296 -0.0233 -0.4866
  264MOL0     C35509   9.104   4.666   7.796  0.5810 -0.1471 -0.1819
  264MOL0     C35510   9.198   4.680   7.902  0.1709 -0.7563  0.3799
  264MOL0     C35511   9.319   4.741   7.893  0.0461  0.0637 -0.0124
  264MOL0     C35512   9.357   4.789   7.765 -0.3881 -1.2191  0.4546
  264MOL0     O35513   9.488   4.829   7.745 -0.5119  0.4898  0.6061
  264MOL0     C35514   9.545   4.870   7.613 -0.3003  1.0863  0.9121
  264MOL0     C35515   9.612   4.741   7.548 -0.5008 -0.0465 -0.9192
  264MOL0     C35516   9.742   4.703   7.620 -0.6406  0.0370  1.0767
  264MOL0     C35517   9.821   4.587   7.559 -1.4672  0.1688  0.7987
  264MOL0     C35518   9.921   4.647   7.448  0.5410 -0.0586  0.2837
  264MOL0     C35519   9.982   4.548   7.354  0.2947  0.7287  0.2714
  264MOL0     C35520  10.048   4.423   7.415 -0.1601 -0.1009  0.0308
  264MOL0     C35521  10.101   4.323   7.303  0.2730 -0.5329 -0.8016
  264MOL0     N35522  10.010   4.210   7.297 -0.5883  0.3405 -0.3286
  264MOL0     C35523   9.914   4.203   7.197 -0.0197 -0.3318 -0.0080
  264MOL0     C35524   9.834   4.098   7.226  0.6126  0.8340 -0.9169
  264MOL0     C35525   9.721   4.036   7.140  0.6235 -0.6022  0.5844
  264MOL0     C35526   9.764   4.003   7.000 -0.7575 -0.0653  0.7619
  264MOL0     C35527   9.642   3.937   6.923 -0.8620 -0.1268 -0.2377
  264MOL0     C35528   9.672   3.916   6.775 -0.5005  0.1165  0.2599
  264MOL0     O35529   9.699   4.044   6.707 -0.2421 -0.8281 -0.4594
  264MOL0     C35530   9.583   4.099   6.644 -0.9761  0.5745 -0.4643
  264MOL0     C35531   9.557   4.064   6.511 -1.0448  0.1661 -0.9414
  264MOL0     C35532   9.440   4.101   6.440 -0.0555 -0.7575 -0.3949
  264MOL0     C35533   9.403   4.040   6.303 -0.0037  0.0126  0.3820
  264MOL0     C35534   9.352   4.190   6.506  0.4459 -0.6314  0.4493
  264MOL0     C35535   9.225   4.251   6.447 -0.0879 -0.0378  0.0495
  264MOL0     O35536   9.170   4.358   6.509  0.1568 -0.5850 -0.1751
  264MOL0     C35537   9.061   4.410   6.450  0.0540  0.5422  1.0987
  264MOL0     C35538   9.069   4.530   6.383 -0.2653  1.0998  0.5110
  264MOL0     C35539   8.958   4.590   6.332  0.9174  0.0642  0.6129
  264MOL0     C35540   8.836   4.528   6.327  0.2244  0.1953  0.4006
  264MOL0     O35541   8.723   4.593   6.275  1.0738  0.2383  0.2248
  264MOL0     C35542   8.729   4.716   6.200 -0.0331  0.8539  0.0109
  264MOL0     C35543   8.740   4.681   6.051 -0.2543 -0.1168  0.0445
  264MOL0     C35544   8.739   4.803   5.961 -0.5130 -0.7225 -0.1046
  264MOL0     C35545   8.851   4.908   5.984  0.0414  0.0015  0.4107
  264MOL0     C35546   8.850   5.029   5.886  1.1297  0.0349  0.2268
  264MOL0     C35547   8.712   5.112   5.867 -0.2658 -0.1957  0.6922
  264MOL0     C35548   8.735   5.181   5.733  0.1508  0.2901 -0.6459
  264MOL0     C35549   8.605   5.241   5.677  0.5687 -0.2831 -0.0472
  264MOL0    Cl35550   8.640   5.358   5.549  0.2319 -0.7534  0.3301
  264MOL0     C35551   8.819   4.425   6.416  0.6822  0.1806 -1.2344
  264MOL0     C35552   8.930   4.355   6.470 -0.3619 -0.7093 -0.8555
  264MOL0     O35553   9.173   4.198   6.349  0.0133 -0.2926 -0.1269
  264MOL0     C35554   9.379   4.229   6.644  0.2696  0.1257  0.3179
  264MOL0     C35555   9.499   4.186   6.707  0.1071 -0.1923  0.7196
  264MOL0     N35556   9.872   4.053   7.348  0.3883 -0.0121 -0.6485
  264MOL0     N35557   9.975   4.112   7.394 -0.3348 -0.8085 -0.1028
  264MOL0     C35558   9.263   4.782   7.652 -0.2034 -0.4458 -0.5040
  264MOL0     C35559   9.143   4.723   7.676 -0.4258  0.4333  0.3321
  264MOL0     C35560   8.755   4.571   7.899  0.4929  0.1450 -0.0526
  264MOL0     C35561   8.693   4.658   7.811  0.7760 -0.6206  0.0897
  264MOL0     C35562   8.554   4.668   7.815  0.7598 -0.0337 -0.5786
  264MOL0     C35563   8.476   4.584   7.903 -0.2608  0.7084 -0.0953
  264MOL0     O35564   8.339   4.586   7.882 -1.1064  0.1821  0.5838
  264MOL0     C35565   8.257   4.522   7.985  0.4607 -0.4917  0.4276
  264MOL0     C35566   8.122   4.571   7.922 -1.0029  0.0265 -0.3366
  264MOL0     C35567   8.005   4.554   8.016 -0.8608  0.1606  0.8931
  264MOL0     C35568   7.995   4.413   8.071 -0.9090 -0.7985 -0.0707
  264MOL0     C35569   7.867   4.413   8.133 -0.0884  0.3745 -0.2863
  264MOL0     C35570   7.756   4.422   8.173  0.1304 -0.0032 -0.1266
  264MOL0     C35571   8.544   4.493   7.982  0.6827  0.6399 -1.1395
  264MOL0     C35572   8.685   4.490   7.981 -0.0710  0.0940 -1.2816
  264MOL0     H35573   9.171   4.639   7.999  2.5837 -4.9654 -0.4663
  264MOL0     H35574   9.379   4.739   7.984 -3.7856 -1.0223  2.7551
  264MOL0     H35575   9.468   4.912   7.548 -0.9064 -0.4844  0.5606
  264MOL0     H35576   9.618   4.951   7.618 -0.3062  1.0463  1.7979
  264MOL0     H35577   9.534   4.666   7.559  1.2845 -1.9949 -0.9017
  264MOL0     H35578   9.633   4.768   7.444  1.5703  2.0788 -0.0495
  264MOL0     H35579   9.807   4.791   7.631  0.7471 -0.8732  0.4561
  264MOL0     H35580   9.719   4.680   7.724  0.4875 -4.0695  0.5974
  264MOL0     H35581   9.873   4.528   7.635 -0.7749  2.3551  2.0775
  264MOL0     H35582   9.760   4.506   7.517 -0.4621  0.6098 -1.6744
  264MOL0     H35583   9.861   4.722   7.394  0.4226 -0.7531 -0.5808
  264MOL0     H35584  10.001   4.707   7.493  1.4100 -1.3578  0.4975
  264MOL0     H35585   9.898   4.506   7.298  0.7588 -0.6155  0.5584
  264MOL0     H35586  10.051   4.597   7.284  3.1399  1.1066  3.1153
  264MOL0     H35587  10.138   4.459   7.465 -0.9122  0.0972  1.2689
  264MOL0     H35588   9.981   4.366   7.480 -1.1694 -2.3026 -2.7244
  264MOL0     H35589  10.197   4.276   7.323  0.9156  0.3087 -1.8433
  264MOL0     H35590  10.116   4.369   7.205 -1.0266 -1.6762 -1.5806
  264MOL0     H35591   9.909   4.254   7.101  4.4298 -3.0915 -2.0343
  264MOL0     H35592   9.690   3.941   7.185 -1.8229 -1.0509 -1.7344
  264MOL0     H35593   9.632   4.099   7.143  1.4847  0.6273  0.7488
  264MOL0     H35594   9.855   3.942   6.992 -1.9915 -1.7395 -2.1364
  264MOL0     H35595   9.793   4.100   6.958  3.8682 -0.1134  3.1976
  264MOL0     H35596   9.565   4.014   6.936 -0.2510  0.1267  2.5009
  264MOL0     H35597   9.629   3.840   6.973  1.2687  0.2718  1.1988
  264MOL0     H35598   9.576   3.873   6.743  0.5365 -1.2490 -1.1401
  264MOL0     H35599   9.752   3.843   6.763 -0.8026 -0.4873  1.7581
  264MOL0     H35600   9.628   3.997   6.464  2.9846  0.4918  3.7808
  264MOL0     H35601   9.397   4.111   6.220  2.1953  2.0654  1.8194
  264MOL0     H35602   9.480   3.967   6.276  0.8520  1.8950 -2.8485
  264MOL0     H35603   9.311   3.983   6.301  0.8049 -1.3561 -2.0419
  264MOL0     H35604   9.160   4.585   6.364 -0.2783  1.7871  2.2922
  264MOL0     H35605   8.967   4.684   6.277  4.7388  0.3203  1.3821
  264MOL0     H35606   8.631   4.764   6.207 -0.6691 -0.5226  0.7881
  264MOL0     H35607   8.801   4.789   6.238  2.4687 -1.1051 -0.7328
  264MOL0     H35608   8.824   4.619   6.020 -0.5045 -1.1039  1.2817
  264MOL0     H35609   8.644   4.632   6.033 -0.4751  0.5975 -0.7973
  264MOL0     H35610   8.641   4.850   5.961 -0.3245 -0.2978 -1.0728
  264MOL0     H35611   8.763   4.756   5.865 -0.6413 -0.9992 -0.0021
  264MOL0     H35612   8.844   4.945   6.087 -1.8654 -0.4504  0.4936
  264MOL0     H35613   8.950   4.863   5.984 -0.2092 -0.7251 -1.9699
  264MOL0     H35614   8.879   4.982   5.792 -1.9728 -1.6841  0.0263
  264MOL0     H35615   8.923   5.107   5.913  0.7539  0.9950 -1.4282
  264MOL0     H35616   8.635   5.034   5.872  1.6908 -2.3552 -0.7893
  264MOL0     H35617   8.696   5.180   5.951 -0.1337 -2.0570  2.2816
  264MOL0     H35618   8.782   5.115   5.659  3.1534  0.9076  0.5610
  264MOL0     H35619   8.798   5.269   5.749 -0.3964  0.9375 -1.9230
  264MOL0     H35620   8.556   5.295   5.759 -1.7331 -1.9327 -0.2586
  264MOL0     H35621   8.536   5.168   5.634 -0.9443  1.7064 -1.1489
  264MOL0     H35622   8.722   4.386   6.443  0.7167  0.5139 -0.5903
  264MOL0     H35623   8.902   4.267   6.526 -3.6708  1.6313  1.5818
  264MOL0     H35624   9.331   4.313   6.692  0.7005 -0.0822  1.1290
  264MOL0     H35625   9.542   4.232   6.795  0.9060  1.5921 -0.5360
  264MOL0     H35626   9.288   4.834   7.560 -0.0892 -0.9314 -0.7529
  264MOL0     H35627   9.078   4.722   7.588  1.0989 -0.4770 -0.8308
  264MOL0     H35628   8.742   4.717   7.734  0.2283  1.0690  0.9722
  264MOL0     H35629   8.506   4.722   7.734  1.5007 -0.5923 -1.4112
  264MOL0     H35630   8.245   4.413   7.986 -1.6666 -0.2871  0.7632
  264MOL0     H35631   8.281   4.555   8.086  0.5471  1.0699 -0.0757
  264MOL0     H35632   8.102   4.514   7.831 -1.6537 -2.0589  1.0387
  264MOL0     H35633   8.131   4.679   7.904 -1.7692  0.1305 -0.1112
  264MOL0     H35634   7.911   4.587   7.970  0.2376 -0.5503 -2.1088
  264MOL0     H35635   8.008   4.625   8.100 -1.9145  0.6623  0.5243
  264MOL0     H35636   8.077   4.412   8.143 -1.1108  0.3143  0.1914
  264MOL0     H35637   8.005   4.335   7.995 -0.3558  2.0397 -3.1495
  264MOL0     H35638   7.657   4.455   8.194 -0.0187 -0.3370 -0.2926
  264MOL0     H35639   8.488   4.423   8.043  0.5501  1.2823 -0.5092
  264MOL0     H35640   8.742   4.424   8.046  0.7398 -1.8360 -3.8078
  265MOL0     O35641   4.831   1.572   7.554 -0.0193 -0.7982  0.1647
  265MOL0     C35642   4.917   1.497   7.504  0.0443 -1.1008 -0.1467
  265MOL0     O35643   5.046   1.472   7.562  0.3994 -0.3078  0.7609
  265MOL0     C35644   5.075   1.524   7.686 -0.7273  0.3457  0.4979
  265MOL0     C35645   5.210   1.527   7.707  0.2603  0.1505 -0.1978
  265MOL0     C35646   5.271   1.547   7.838  0.6116 -1.0146  0.0007
  265MOL0     C35647   5.182   1.587   7.943  0.1204 -0.1395  0.3051
  265MOL0     O35648   5.218   1.618   8.067  0.1482  0.1206  0.8222
  265MOL0     C35649   5.338   1.556   8.114  0.0662  0.4703  0.7137
  265MOL0     C35650   5.309   1.508   8.262  0.6668  0.9836 -0.8381
  265MOL0     C35651   5.280   1.628   8.352 -0.3844  0.6773  0.6653
  265MOL0     C35652   5.216   1.575   8.472  0.1096  0.4632  0.3541
  265MOL0     C35653   5.201   1.691   8.574  0.0870  0.1837  0.1321
  265MOL0     C35654   5.165   1.655   8.715  0.1109 -1.1081 -0.7390
  265MOL0     C35655   5.122   1.770   8.798  0.6750  0.2412  0.2574
  265MOL0     C35656   5.098   1.723   8.944  0.2833  0.1199  0.5838
  265MOL0     N35657   5.050   1.828   9.031  0.2163 -0.2858  0.2779
  265MOL0     C35658   4.972   1.809   9.148 -1.0078 -0.2182  0.3461
  265MOL0     C35659   4.995   1.928   9.212 -0.7024  0.6443  1.4979
  265MOL0     C35660   4.948   1.967   9.349 -0.9484 -0.5669 -0.7158
  265MOL0     C35661   5.062   1.950   9.452  0.7490  0.3175 -0.1699
  265MOL0     C35662   5.109   2.093   9.496  0.2083  0.6995 -0.1710
  265MOL0     C35663   5.030   2.163   9.608 -0.2972  0.3708  0.4695
  265MOL0     O35664   5.071   2.119   9.743 -0.3560  0.1489 -0.4562
  265MOL0     C35665   5.166   2.195   9.804  0.2299  0.1207  0.6001
  265MOL0     C35666   5.250   2.295   9.761 -0.0208 -0.2577  0.0860
  265MOL0     C35667   5.343   2.363   9.827  0.2447 -0.3562 -0.2664
  265MOL0     C35668   5.403   2.482   9.765 -0.3971 -0.1731  0.1950
  265MOL0     C35669   5.367   2.323   9.965  0.5343  0.6851  0.0912
  265MOL0     C35670   5.449   2.394  10.060 -0.4543 -0.3610  0.1119
  265MOL0     O35671   5.450   2.350  10.190  0.1953 -0.1630 -0.1309
  265MOL0     C35672   5.524   2.416  10.287 -0.1392  0.4746  0.6616
  265MOL0     C35673   5.641   2.351  10.327  0.4025  0.8046  0.0339
  265MOL0     C35674   5.728   2.420  10.415  0.0797  0.5833  0.0609
  265MOL0     C35675   5.705   2.554  10.451 -0.2046  0.1278 -1.1312
  265MOL0     O35676   5.791   2.606  10.544  0.1196 -0.5994 -0.4211
  265MOL0     C35677   5.766   2.741  10.575  0.1085 -0.3554 -0.8175
  265MOL0     C35678   5.875   2.804  10.670 -0.7405 -0.4393 -0.3037
  265MOL0     C35679   5.870   2.745  10.815 -0.4904  0.6389  0.4352
  265MOL0     C35680   5.982   2.818  10.896  0.4239 -0.5112 -0.1466
  265MOL0     C35681   6.012   2.766  11.037  0.2495 -0.2591  0.2361
  265MOL0     C35682   6.123   2.845  11.109  0.1883  0.1831  0.6824
  265MOL0     C35683   6.199   2.755  11.209 -0.9326 -0.4270 -0.3658
  265MOL0     C35684   6.340   2.813  11.228  0.1600  0.2773  0.4171
  265MOL0    Cl35685   6.354   2.928  11.355  0.0353  0.0544  0.1552
  265MOL0     C35686   5.594   2.614  10.408 -0.3615  0.3841 -0.4745
  265MOL0     C35687   5.498   2.556  10.325 -0.9396 -0.1816  0.5918
  265MOL0     O35688   5.504   2.491  10.024  0.3586  0.1583 -0.3791
  265MOL0     C35689   5.285   2.216  10.014 -1.1070 -0.6407  0.4467
  265MOL0     C35690   5.192   2.158   9.935 -0.2317 -0.0604 -0.6913
  265MOL0     N35691   5.076   2.016   9.138  0.2524 -0.1030  0.2418
  265MOL0     N35692   5.107   1.951   9.040  0.5890  0.0099 -0.1567
  265MOL0     C35693   5.051   1.589   7.916  0.2818 -0.3001 -0.1686
  265MOL0     C35694   4.992   1.556   7.795 -0.3233 -0.0352  0.5507
  265MOL0     C35695   4.897   1.442   7.376 -0.7493  0.8450  0.3309
  265MOL0     C35696   4.986   1.344   7.318 -0.1053 -0.3893 -0.0481
  265MOL0     C35697   4.983   1.305   7.192  0.1568 -0.0844 -0.0137
  265MOL0     C35698   4.891   1.354   7.102  0.3183 -0.5510 -0.4564
  265MOL0     O35699   4.914   1.313   6.976 -0.5882  0.0584 -0.0166
  265MOL0     C35700   4.816   1.316   6.873 -0.7053 -0.8098  0.2374
  265MOL0     C35701   4.820   1.456   6.807  0.5076  0.0902  1.1537
  265MOL0     C35702   4.712   1.465   6.697 -1.1346  0.6237 -0.5376
  265MOL0     C35703   4.567   1.497   6.739 -0.3527  0.1255 -0.2301
  265MOL0     C35704   4.550   1.634   6.771  0.9524 -0.5778 -0.2016
  265MOL0     C35705   4.553   1.752   6.799 -0.4999 -0.2472  0.3503
  265MOL0     C35706   4.791   1.448   7.152 -0.4777  0.7144 -0.6894
  265MOL0     C35707   4.794   1.488   7.286  0.7149  0.2888  0.2373
  265MOL0     H35708   5.281   1.500   7.630  1.0132 -1.9416  1.1232
  265MOL0     H35709   5.378   1.553   7.850  0.4779  0.8640  0.6547
  265MOL0     H35710   5.366   1.464   8.062  0.4134  1.3480 -0.7015
  265MOL0     H35711   5.421   1.625   8.096 -1.5978  2.8382  1.5780
  265MOL0     H35712   5.221   1.442   8.264 -0.1623  2.0128 -1.9156
  265MOL0     H35713   5.395   1.449   8.293 -1.0929 -0.8231  0.8562
  265MOL0     H35714   5.376   1.679   8.365  0.1354  0.4574 -1.8122
  265MOL0     H35715   5.216   1.698   8.299 -0.2031 -1.3721 -2.5891
  265MOL0     H35716   5.124   1.523   8.442 -0.6207 -0.7431  4.1721
  265MOL0     H35717   5.281   1.497   8.513  0.5969  0.0079 -1.2138
  265MOL0     H35718   5.294   1.748   8.581 -1.1340  2.0397  3.1765
  265MOL0     H35719   5.130   1.766   8.538  1.5581  1.3100 -0.5363
  265MOL0     H35720   5.080   1.585   8.712 -0.2260 -1.0167  2.7053
  265MOL0     H35721   5.251   1.604   8.759 -0.3713 -1.3486 -0.0634
  265MOL0     H35722   5.196   1.849   8.785 -0.7671  1.5509 -0.3837
  265MOL0     H35723   5.038   1.815   8.743  1.3947  1.5296  0.1609
  265MOL0     H35724   5.179   1.672   8.997  1.3645 -0.7008 -1.7045
  265MOL0     H35725   5.017   1.652   8.924  1.2265 -0.8281  0.0381
  265MOL0     H35726   4.929   1.716   9.185 -1.2714 -0.6089 -0.8739
  265MOL0     H35727   4.913   2.071   9.348 -3.3317 -1.3247 -0.6790
  265MOL0     H35728   4.857   1.910   9.369  0.2376 -1.4658  2.9300
  265MOL0     H35729   5.145   1.906   9.395  0.0989 -0.1826 -0.7628
  265MOL0     H35730   5.031   1.895   9.541 -1.5861  0.6043 -0.7493
  265MOL0     H35731   5.090   2.166   9.418 -2.5812  2.8488  2.2990
  265MOL0     H35732   5.213   2.089   9.529  0.4299 -0.2546 -0.9402
  265MOL0     H35733   4.920   2.161   9.603 -0.3461  2.4503 -0.5092
  265MOL0     H35734   5.054   2.270   9.600  2.1363 -0.2187 -0.9562
  265MOL0     H35735   5.244   2.319   9.655 -1.9006 -0.3619  0.1357
  265MOL0     H35736   5.510   2.483   9.743 -0.6879  0.5009 -1.3317
  265MOL0     H35737   5.341   2.505   9.678 -2.0585  1.8630  1.8107
  265MOL0     H35738   5.385   2.572   9.825  1.7869 -0.1240  0.8652
  265MOL0     H35739   5.666   2.254  10.286 -3.6004 -0.8945  1.0510
  265MOL0     H35740   5.807   2.354  10.449  1.3099  1.0094 -1.8124
  265MOL0     H35741   5.761   2.817  10.496  2.2361  2.5054  1.5753
  265MOL0     H35742   5.670   2.744  10.628  0.4433 -0.3253 -0.2103
  265MOL0     H35743   5.982   2.800  10.646  0.8166  2.8860  4.4208
  265MOL0     H35744   5.847   2.910  10.681 -3.1799 -0.6194 -3.3842
  265MOL0     H35745   5.893   2.638  10.805 -0.9811  0.5628  0.0883
  265MOL0     H35746   5.772   2.767  10.858 -0.9070  1.8808 -1.0504
  265MOL0     H35747   6.072   2.812  10.835 -0.2035  2.2480 -1.4972
  265MOL0     H35748   5.939   2.917  10.913 -1.8696 -1.8165  2.8169
  265MOL0     H35749   6.044   2.662  11.032 -0.1523 -0.4282  1.0049
  265MOL0     H35750   5.916   2.782  11.088 -1.3776  1.3016 -3.0302
  265MOL0     H35751   6.184   2.873  11.021 -0.0464 -1.8785 -0.1814
  265MOL0     H35752   6.091   2.938  11.158 -3.8982 -0.9080  0.4267
  265MOL0     H35753   6.206   2.651  11.178 -0.6785  0.3843 -3.3433
  265MOL0     H35754   6.147   2.758  11.305  0.9257 -5.0169  1.0519
  265MOL0     H35755   6.374   2.861  11.135 -3.9701  1.2701 -0.7525
  265MOL0     H35756   6.414   2.732  11.236  0.7867  0.0901 -4.1871
  265MOL0     H35757   5.566   2.717  10.430 -3.5897  0.0438 -2.3451
  265MOL0     H35758   5.411   2.613  10.293  0.8563  0.9924 -2.7285
  265MOL0     H35759   5.285   2.174  10.114  0.1646 -1.4492  0.1248
  265MOL0     H35760   5.148   2.066   9.971  2.4704 -2.8668 -3.8762
  265MOL0     H35761   4.977   1.629   7.984 -1.6866 -1.4655 -1.5194
  265MOL0     H35762   4.884   1.551   7.795 -0.2763 -1.5868  1.3654
  265MOL0     H35763   5.058   1.296   7.383  1.6744 -0.9173 -2.2595
  265MOL0     H35764   5.042   1.220   7.160 -0.8889 -0.1788 -1.8208
  265MOL0     H35765   4.837   1.250   6.788  2.8900  0.6459 -0.1591
  265MOL0     H35766   4.716   1.281   6.902  0.2082 -3.0506  0.8325
  265MOL0     H35767   4.916   1.468   6.755  0.1726 -2.3222 -0.1414
  265MOL0     H35768   4.797   1.538   6.877 -1.4791  4.4809 -3.9828
  265MOL0     H35769   4.720   1.365   6.652 -1.5669  0.0292  0.6620
  265MOL0     H35770   4.751   1.525   6.615  0.2637 -0.8471 -1.0245
  265MOL0     H35771   4.546   1.428   6.822 -1.0337  0.1347 -0.3875
  265MOL0     H35772   4.500   1.463   6.660 -0.8181 -2.1601  1.0437
  265MOL0     H35773   4.572   1.854   6.826  1.9224 -0.2791 -0.9416
  265MOL0     H35774   4.707   1.486   7.095 -2.1544 -1.8603 -0.1445
  265MOL0     H35775   4.724   1.561   7.325  0.9193  0.7845 -0.2992
  266MOL0     O35776   2.885   4.578   8.205 -0.1802  1.2569  0.0622
  266MOL0     C35777   2.764   4.593   8.181 -0.8196  0.2171  0.3196
  266MOL0     O35778   2.674   4.663   8.261 -0.2264 -0.6121  0.2130
  266MOL0     C35779   2.709   4.745   8.370  0.1024  0.9673  0.8490
  266MOL0     C35780   2.820   4.826   8.375  0.4012  0.1484  0.7020
  266MOL0     C35781   2.840   4.924   8.476  1.4153  0.0306 -0.1452
  266MOL0     C35782   2.754   4.934   8.581  0.1376 -0.0873 -0.2708
  266MOL0     O35783   2.777   5.023   8.686  0.6387  0.2048  0.4812
  266MOL0     C35784   2.909   5.045   8.727 -0.2232  0.4091 -0.2912
  266MOL0     C35785   2.910   5.122   8.866  0.4305  0.8103 -0.2825
  266MOL0     C35786   3.054   5.155   8.913  0.1772 -0.1227 -0.4789
  266MOL0     C35787   3.138   5.246   8.813 -0.2555  0.3213  0.5878
  266MOL0     C35788   3.077   5.388   8.805 -0.7167 -0.3614  0.1735
  266MOL0     C35789   3.173   5.481   8.732 -1.1747 -0.4979  0.1817
  266MOL0     C35790   3.177   5.469   8.576  0.1011 -0.3166 -0.1428
  266MOL0     C35791   3.267   5.572   8.507  0.6634  0.7211  0.4471
  266MOL0     N35792   3.391   5.568   8.567 -0.3684 -0.3456  0.4514
  266MOL0     C35793   3.494   5.471   8.544  0.5337  0.1335 -0.0142
  266MOL0     C35794   3.596   5.497   8.630  0.7439 -0.5907  0.3156
  266MOL0     C35795   3.726   5.415   8.648  0.1512 -0.3134 -0.3930
  266MOL0     C35796   3.689   5.297   8.727 -0.2320  0.2016  0.2277
  266MOL0     C35797   3.807   5.214   8.762 -0.6278  0.0622 -0.0400
  266MOL0     C35798   3.758   5.068   8.811  0.8080 -0.5631  0.2817
  266MOL0     O35799   3.874   4.983   8.806 -0.1854 -0.8803  0.2576
  266MOL0     C35800   3.974   4.990   8.895  0.0316  0.1419  0.0276
  266MOL0     C35801   3.971   5.042   9.025 -0.7968 -0.1448 -1.2520
  266MOL0     C35802   4.085   5.050   9.105  0.1945  0.0939  0.6588
  266MOL0     C35803   4.080   5.112   9.241  0.6870 -0.1176 -0.1366
  266MOL0     C35804   4.209   4.990   9.060  0.2329  0.5272  0.8551
  266MOL0     C35805   4.327   4.970   9.138 -0.5228 -0.3850  0.3308
  266MOL0     O35806   4.317   4.958   9.276  0.4840  0.1385  0.2641
  266MOL0     C35807   4.415   4.912   9.359 -0.8606  0.4887  0.1664
  266MOL0     C35808   4.544   4.967   9.357  0.0787 -0.6404 -0.1943
  266MOL0     C35809   4.643   4.930   9.452 -0.5221 -0.8802 -0.9546
  266MOL0     C35810   4.612   4.845   9.554 -1.3206 -0.0103  0.2155
  266MOL0     O35811   4.708   4.823   9.644 -0.3074 -0.6008 -0.2948
  266MOL0     C35812   4.695   4.722   9.739  0.8350 -0.0061  0.0740
  266MOL0     C35813   4.837   4.693   9.800 -0.5709  0.0917  0.5839
  266MOL0     C35814   4.880   4.805   9.899 -0.1719  0.0033 -0.4604
  266MOL0     C35815   5.023   4.780   9.952  0.0829  0.2371 -0.0390
  266MOL0     C35816   5.091   4.911   9.997  0.7830  0.3628  0.2256
  266MOL0     C35817   5.177   4.896  10.121 -0.0246  0.5754  0.4167
  266MOL0     C35818   5.106   4.846  10.253  0.6175  0.1715  0.5556
  266MOL0     C35819   5.195   4.855  10.379 -0.7872  0.3224 -0.2510
  266MOL0    Cl35820   5.136   4.781  10.532  0.1681  0.2516 -0.1317
  266MOL0     C35821   4.488   4.784   9.563 -0.1136 -0.7651  0.3860
  266MOL0     C35822   4.393   4.822   9.460  0.6194  0.1236 -0.9448
  266MOL0     O35823   4.440   4.959   9.073  0.4094  0.0374 -1.4798
  266MOL0     C35824   4.209   4.925   8.927  0.9535 -0.1167 -0.3671
  266MOL0     C35825   4.094   4.922   8.848  0.2662 -0.3564  0.1951
  266MOL0     N35826   3.559   5.619   8.696 -0.4937  0.1551  0.5017
  266MOL0     N35827   3.442   5.652   8.664  0.1564 -0.5513 -0.7808
  266MOL0     C35828   2.633   4.850   8.578  0.1279  0.4353  1.4749
  266MOL0     C35829   2.612   4.763   8.468 -0.5554 -0.1601  1.2536
  266MOL0     C35830   2.717   4.550   8.046 -0.2154 -0.8257 -0.2750
  266MOL0     C35831   2.588   4.578   8.005  0.2706  0.4994  0.8529
  266MOL0     C35832   2.547   4.540   7.872 -0.3131 -0.3263  1.1590
  266MOL0     C35833   2.639   4.484   7.778  0.7821 -0.2068 -0.2409
  266MOL0     O35834   2.609   4.455   7.657 -0.5792  1.1973  0.7271
  266MOL0     C35835   2.483   4.460   7.593  0.1406  0.6116 -1.0910
  266MOL0     C35836   2.389   4.347   7.646 -0.7667 -0.2491  0.0995
  266MOL0     C35837   2.437   4.198   7.607  0.6656 -0.5931 -0.3926
  266MOL0     C35838   2.408   4.097   7.718 -0.0869 -0.0949  0.7884
  266MOL0     C35839   2.269   4.081   7.731  0.2192 -0.0839  0.4588
  266MOL0     C35840   2.155   4.047   7.715 -0.4339  0.2395 -0.0769
  266MOL0     C35841   2.764   4.458   7.827  0.3391 -0.0107 -0.8479
  266MOL0     C35842   2.799   4.479   7.960  0.5842  1.1398 -0.5706
  266MOL0     H35843   2.894   4.813   8.297  0.4484 -1.8425  1.0190
  266MOL0     H35844   2.931   4.983   8.474  1.2084  0.5038  2.0839
  266MOL0     H35845   2.950   4.945   8.742  1.9196  0.8567 -2.5232
  266MOL0     H35846   2.967   5.105   8.656 -0.4844  1.2281  0.1653
  266MOL0     H35847   2.849   5.211   8.850  2.2505  2.1980  0.1582
  266MOL0     H35848   2.867   5.060   8.945  3.6414 -2.4849 -0.8279
  266MOL0     H35849   3.045   5.199   9.012 -0.2368  1.1816 -1.0666
  266MOL0     H35850   3.116   5.067   8.893  0.7673  0.8198 -3.3693
  266MOL0     H35851   3.236   5.249   8.862  0.0290  1.9304 -0.0090
  266MOL0     H35852   3.146   5.202   8.714 -1.6063 -0.3713  0.7545
  266MOL0     H35853   2.986   5.385   8.745 -0.5205 -1.8853 -0.0913
  266MOL0     H35854   3.054   5.442   8.897 -1.0034 -0.2479  0.0345
  266MOL0     H35855   3.130   5.581   8.747 -1.0389  0.1175 -3.0037
  266MOL0     H35856   3.273   5.479   8.777  0.3587  4.1815 -2.3846
  266MOL0     H35857   3.215   5.368   8.559  1.5109 -0.0679  1.3008
  266MOL0     H35858   3.081   5.485   8.526  1.4249 -0.2553 -2.8992
  266MOL0     H35859   3.220   5.671   8.513 -0.5961  0.2636 -1.1488
  266MOL0     H35860   3.283   5.562   8.399 -2.3773 -0.1952 -0.0064
  266MOL0     H35861   3.480   5.372   8.501 -0.3490  0.4676 -0.5430
  266MOL0     H35862   3.770   5.389   8.551 -2.6291 -4.4722 -0.8258
  266MOL0     H35863   3.800   5.469   8.708  1.5642 -4.7926  2.3858
  266MOL0     H35864   3.622   5.239   8.663 -0.0224  0.2319 -0.0180
  266MOL0     H35865   3.625   5.305   8.816  1.8008 -3.2648  2.2233
  266MOL0     H35866   3.857   5.264   8.845 -1.1125 -1.5087  1.2558
  266MOL0     H35867   3.876   5.203   8.678 -0.0388  1.1908  0.2797
  266MOL0     H35868   3.687   5.027   8.738 -1.3231  2.7371  0.2928
  266MOL0     H35869   3.708   5.073   8.908 -0.6236 -2.0331 -0.3147
  266MOL0     H35870   3.880   5.086   9.065 -0.1165 -1.4793  2.1247
  266MOL0     H35871   4.039   5.042   9.314  3.1211 -1.3665  0.1160
  266MOL0     H35872   4.175   5.141   9.288 -0.2939  3.0491  0.1676
  266MOL0     H35873   4.009   5.196   9.243 -0.3590 -0.9762 -0.2524
  266MOL0     H35874   4.579   5.041   9.286  2.6952 -1.5361  0.0763
  266MOL0     H35875   4.743   4.971   9.460 -0.4343 -1.3213  0.6607
  266MOL0     H35876   4.615   4.740   9.812 -0.8928 -0.2691 -1.6637
  266MOL0     H35877   4.675   4.631   9.681  1.4342  2.1728 -3.9900
  266MOL0     H35878   4.843   4.600   9.857  0.3349  1.1398  2.2957
  266MOL0     H35879   4.913   4.692   9.721 -1.7828 -1.0700 -0.6163
  266MOL0     H35880   4.821   4.803   9.991  1.3106 -1.0706  0.5075
  266MOL0     H35881   4.868   4.904   9.853  0.9444 -0.1386 -1.0719
  266MOL0     H35882   5.017   4.699  10.026 -0.5142  0.3035 -0.0113
  266MOL0     H35883   5.088   4.749   9.870 -0.5841  2.0733 -1.3254
  266MOL0     H35884   5.017   4.987  10.022 -0.0339 -0.2687 -0.2109
  266MOL0     H35885   5.151   4.945   9.912 -0.8594 -1.7365 -1.9189
  266MOL0     H35886   5.257   4.823  10.102 -0.4195 -0.1361  1.4061
  266MOL0     H35887   5.235   4.988  10.131 -0.2476  0.7744 -0.0827
  266MOL0     H35888   5.086   4.739  10.241  1.9165  0.0953 -1.5030
  266MOL0     H35889   5.010   4.895  10.274  1.9606  3.2272 -0.0138
  266MOL0     H35890   5.185   4.962  10.400 -3.4941 -0.3664  2.8689
  266MOL0     H35891   5.297   4.823  10.356 -0.8066  0.4259 -0.4760
  266MOL0     H35892   4.463   4.718   9.645 -0.2776  1.5588  2.2961
  266MOL0     H35893   4.293   4.783   9.446  0.0695  1.3579 -0.6474
  266MOL0     H35894   4.298   4.873   8.893  0.9790 -0.5190  0.2962
  266MOL0     H35895   4.101   4.862   8.758  2.0556  0.6093 -0.3470
  266MOL0     H35896   2.556   4.849   8.654  0.9930  0.0250  2.3752
  266MOL0     H35897   2.521   4.708   8.449  0.5979 -1.4264 -0.9642
  266MOL0     H35898   2.507   4.625   8.060  0.3938 -0.0470  1.5208
  266MOL0     H35899   2.444   4.564   7.847 -0.6043 -2.1197  0.5188
  266MOL0     H35900   2.422   4.547   7.617 -0.4569 -0.4216  1.5138
  266MOL0     H35901   2.487   4.447   7.485  1.2104 -2.4620 -0.7878
  266MOL0     H35902   2.300   4.374   7.588  0.4475  1.6706 -0.9932
  266MOL0     H35903   2.363   4.357   7.752  0.5411  3.6240  0.2329
  266MOL0     H35904   2.545   4.207   7.588  1.1299 -2.1261  1.1967
  266MOL0     H35905   2.401   4.165   7.510  1.6986  2.4831 -1.9439
  266MOL0     H35906   2.451   4.131   7.812 -0.1285  2.2414  0.0238
  266MOL0     H35907   2.446   3.998   7.688  0.4475 -0.3967  2.3663
  266MOL0     H35908   2.055   4.016   7.691 -1.3268  2.8969 -0.0551
  266MOL0     H35909   2.843   4.424   7.760  2.5195  1.8051  0.6398
  266MOL0     H35910   2.897   4.463   8.005 -0.1933  0.5946  1.0031
  267MOL0     O35911   0.332  10.632   9.982 -1.4871  0.5036 -0.8413
  267MOL0     C35912   0.274  10.736   9.962  1.6677  0.4048  0.2830
  267MOL0     O35913   0.173  10.786  10.041 -0.9268 -0.0133 -0.1636
  267MOL0     C35914   0.154  10.720  10.161  0.6271 -0.0718  0.1675
  267MOL0     C35915   0.020  10.673  10.180 -0.4132  0.5968  0.1854
  267MOL0     C35916  -0.014  10.600  10.290  0.0458  0.2611  0.0582
  267MOL0     C35917   0.080  10.565  10.392  1.0173  0.6582  0.5111
  267MOL0     O35918   0.039  10.518  10.518 -0.0749 -0.1703 -0.0901
  267MOL0     C35919   0.085  10.396  10.577 -0.1128 -0.0140 -0.4330
  267MOL0     C35920   0.035  10.378  10.719  0.1752 -0.3187  0.2490
  267MOL0     C35921  -0.100  10.296  10.733 -1.1291 -0.1703  1.0366
  267MOL0     C35922  -0.129  10.301  10.882 -0.2734 -0.5041  0.5485
  267MOL0     C35923  -0.206  10.176  10.927 -0.8985  0.3120 -0.3661
  267MOL0     C35924  -0.130  10.038  10.913 -0.6950 -1.0314  0.4560
  267MOL0     C35925  -0.197   9.910  10.975 -0.3944 -1.1860 -0.5241
  267MOL0     C35926  -0.338   9.886  10.926  0.3670 -0.8411  0.0036
  267MOL0     N35927  -0.351   9.870  10.784  0.2859  0.9684  0.2264
  267MOL0     C35928  -0.379   9.965  10.685  0.2631 -0.3653 -0.2325
  267MOL0     C35929  -0.398   9.884  10.578 -0.6451 -0.2125 -0.5818
  267MOL0     C35930  -0.415   9.946  10.443  0.5731 -0.5209  0.0136
  267MOL0     C35931  -0.303   9.937  10.346 -0.8755  0.3465  0.2119
  267MOL0     C35932  -0.196  10.043  10.401 -1.2613 -0.1139  0.9351
  267MOL0     C35933  -0.097  10.050  10.275 -1.3901  0.2011 -0.4979
  267MOL0     O35934   0.007  10.159  10.292  0.0083 -0.0071  0.3863
  267MOL0     C35935   0.105  10.177  10.197  0.1275  0.4427  0.0463
  267MOL0     C35936   0.230  10.244  10.238 -0.6035 -0.3625  1.0297
  267MOL0     C35937   0.338  10.250  10.147  0.5409 -1.0536 -0.0413
  267MOL0     C35938   0.454  10.331  10.181 -0.1622  0.2144  0.4320
  267MOL0     C35939   0.321  10.203  10.015 -0.0971 -0.5477 -0.4195
  267MOL0     C35940   0.432  10.218   9.911 -0.5797 -0.1977  0.0490
  267MOL0     O35941   0.403  10.272   9.790 -0.3756 -0.3980 -0.0107
  267MOL0     C35942   0.491  10.281   9.688 -0.5396  0.0509  0.0941
  267MOL0     C35943   0.626  10.335   9.698  0.4099  0.3401  0.7092
  267MOL0     C35944   0.706  10.334   9.578  0.1208 -0.5291 -0.0588
  267MOL0     C35945   0.650  10.298   9.457 -0.1235 -0.0520  0.0356
  267MOL0     O35946   0.723  10.302   9.339  0.1196 -0.3871  0.5779
  267MOL0     C35947   0.850  10.375   9.326 -0.1044 -0.4017 -0.0793
  267MOL0     C35948   0.885  10.383   9.175  0.5656  0.8643  0.0158
  267MOL0     C35949   0.945  10.245   9.130 -0.6885 -0.5837 -0.5366
  267MOL0     C35950   0.846  10.133   9.096  0.1394 -0.4492 -0.0055
  267MOL0     C35951   0.920  10.017   9.016 -0.1251 -0.3653 -0.1579
  267MOL0     C35952   0.829   9.888   9.004 -0.4264 -0.3074 -0.3343
  267MOL0     C35953   0.901   9.787   8.916  0.3298  1.1543 -0.0968
  267MOL0     C35954   0.819   9.663   8.891 -0.5445  0.6110  0.8399
  267MOL0    Cl35955   0.819   9.585   9.048 -0.4205  0.1872 -0.2889
  267MOL0     C35956   0.518  10.249   9.455 -0.2986 -0.3416  0.5679
  267MOL0     C35957   0.440  10.241   9.569 -0.4932 -0.2054  0.2761
  267MOL0     O35958   0.545  10.167   9.935  0.2441 -0.1219  0.3132
  267MOL0     C35959   0.203  10.142   9.978  0.5673 -0.6894  0.0823
  267MOL0     C35960   0.092  10.127  10.063 -0.1866  1.0532  0.1800
  267MOL0     N35961  -0.388   9.747  10.613 -0.3502 -0.1119  0.3509
  267MOL0     N35962  -0.363   9.743  10.737  0.4820  0.1624 -0.0355
  267MOL0     C35963   0.219  10.601  10.362 -0.0881  0.4954  0.4557
  267MOL0     C35964   0.257  10.667  10.244  0.2902  0.0721 -1.4373
  267MOL0     C35965   0.309  10.827   9.845 -0.8667  0.4597 -0.4820
  267MOL0     C35966   0.276  10.963   9.851 -0.0029  0.6402 -0.6554
  267MOL0     C35967   0.290  11.037   9.738  0.1981  0.1537  1.1877
  267MOL0     C35968   0.359  10.989   9.628 -0.4174 -0.3850 -0.1242
  267MOL0     O35969   0.371  11.068   9.515 -0.6150  0.2691  0.4279
  267MOL0     C35970   0.437  11.016   9.402  0.0085  1.2144 -0.4362
  267MOL0     C35971   0.468  11.126   9.302 -0.1682 -0.9812  0.0149
  267MOL0     C35972   0.573  11.228   9.362  0.0349  0.6339 -0.4561
  267MOL0     C35973   0.624  11.335   9.270 -0.6485  0.0291 -0.3863
  267MOL0     C35974   0.506  11.420   9.246  0.1854  0.3663  0.2682
  267MOL0     C35975   0.403  11.484   9.240  0.2390  0.3484  0.5345
  267MOL0     C35976   0.411  10.859   9.632  0.2185  0.2357  0.8958
  267MOL0     C35977   0.385  10.775   9.740 -0.9148 -0.0996 -0.0966
  267MOL0     H35978  -0.045  10.692  10.095  1.4045 -1.3400 -1.7355
  267MOL0     H35979  -0.114  10.561  10.305 -0.7925  2.4575  0.6509
  267MOL0     H35980   0.055  10.310  10.517 -0.7756  0.9154 -1.4830
  267MOL0     H35981   0.193  10.378  10.572 -0.2524 -1.5885  1.3201
  267MOL0     H35982   0.120  10.331  10.769  2.8431  6.1639  2.9046
  267MOL0     H35983   0.022  10.477  10.765  0.6694 -0.4233  0.6141
  267MOL0     H35984  -0.186  10.331  10.675  1.1353  1.9482 -1.2882
  267MOL0     H35985  -0.084  10.194  10.696 -1.0409 -0.6557  2.3569
  267MOL0     H35986  -0.036  10.317  10.937  0.6620  0.9091 -1.3089
  267MOL0     H35987  -0.193  10.387  10.898  2.2291  1.8857 -1.3369
  267MOL0     H35988  -0.219  10.190  11.034  0.3209  2.7387 -0.4657
  267MOL0     H35989  -0.309  10.176  10.891 -2.2443 -2.6565  2.9811
  267MOL0     H35990  -0.118  10.011  10.808 -1.2470 -1.2229  0.4384
  267MOL0     H35991  -0.029  10.050  10.954  0.3370  2.5165 -2.5673
  267MOL0     H35992  -0.138   9.820  10.953  1.3544  0.4664 -3.1918
  267MOL0     H35993  -0.197   9.922  11.084 -1.2230  1.9732 -0.7889
  267MOL0     H35994  -0.400   9.973  10.953  1.6875  0.8174 -2.0527
  267MOL0     H35995  -0.372   9.794  10.974  0.1304 -0.8370 -0.1534
  267MOL0     H35996  -0.375  10.073  10.686  0.2398 -0.1476 -4.7578
  267MOL0     H35997  -0.498   9.890  10.401 -0.8443 -0.2419  2.2766
  267MOL0     H35998  -0.446  10.051  10.443  2.7532  0.2196 -1.6771
  267MOL0     H35999  -0.334   9.970  10.246 -1.1539  2.2654  0.9017
  267MOL0     H36000  -0.256   9.838  10.339  0.4276  0.8782  1.2354
  267MOL0     H36001  -0.150  10.015  10.496 -1.1761 -4.9697 -0.2515
  267MOL0     H36002  -0.238  10.144  10.399 -1.3541 -0.1573 -0.6952
  267MOL0     H36003  -0.143  10.086  10.182  0.9899 -0.4088 -2.0197
  267MOL0     H36004  -0.060   9.951  10.249  0.0919  0.1211  1.6959
  267MOL0     H36005   0.250  10.293  10.332  1.0314 -1.1483  1.1297
  267MOL0     H36006   0.455  10.358  10.287  3.1172 -0.0127  0.5809
  267MOL0     H36007   0.545  10.272  10.171 -0.1558  0.5092 -1.8686
  267MOL0     H36008   0.469  10.416  10.113 -0.5825  2.3588  2.8412
  267MOL0     H36009   0.656  10.359   9.799 -1.2863 -1.1459  1.6313
  267MOL0     H36010   0.807  10.374   9.588  0.3126 -1.1124  0.4118
  267MOL0     H36011   0.831  10.479   9.357 -4.4448 -1.2360  0.7441
  267MOL0     H36012   0.928  10.325   9.384 -1.1714 -3.8435 -1.3550
  267MOL0     H36013   0.794  10.398   9.116 -1.5236 -2.2206  2.1992
  267MOL0     H36014   0.960  10.462   9.161 -3.2728  4.8538 -0.5608
  267MOL0     H36015   0.996  10.200   9.215 -0.3974 -3.5831 -2.1543
  267MOL0     H36016   1.016  10.256   9.047  0.1827 -1.5771  0.0652
  267MOL0     H36017   0.804  10.098   9.191  0.1984  2.5193  1.2162
  267MOL0     H36018   0.767  10.176   9.035  1.6693  3.9902  0.7889
  267MOL0     H36019   1.005   9.990   9.078 -1.4214 -0.0518  1.8506
  267MOL0     H36020   0.941  10.062   8.918 -3.6040  0.8015 -0.5111
  267MOL0     H36021   0.813   9.841   9.102  1.3721  0.4088  0.3468
  267MOL0     H36022   0.728   9.911   8.969 -0.2627 -0.0302 -0.6263
  267MOL0     H36023   0.994   9.762   8.968 -0.7535 -0.5798  1.1011
  267MOL0     H36024   0.923   9.834   8.819 -0.5951 -0.5961 -1.2130
  267MOL0     H36025   0.868   9.608   8.811  1.0157  4.1951 -0.9088
  267MOL0     H36026   0.718   9.687   8.858 -0.7429 -2.2525 -0.9903
  267MOL0     H36027   0.489  10.218   9.355  3.6718 -3.6617  0.1693
  267MOL0     H36028   0.340  10.199   9.571 -0.1122 -1.1055  1.6559
  267MOL0     H36029   0.201  10.101   9.877 -1.8417 -2.2488  0.6782
  267MOL0     H36030   0.001  10.079  10.029  1.2754 -2.0280  0.1856
  267MOL0     H36031   0.301  10.564  10.422 -0.2504 -1.1748 -0.2873
  267MOL0     H36032   0.362  10.685  10.221  0.1337  1.1393 -1.3703
  267MOL0     H36033   0.235  11.022   9.932  1.3115 -0.3085  0.7732
  267MOL0     H36034   0.235  11.129   9.721 -3.7140 -2.0915  0.4757
  267MOL0     H36035   0.531  10.962   9.413 -0.9072 -0.4404 -0.5143
  267MOL0     H36036   0.369  10.945   9.354  0.7966 -0.2009  0.4721
  267MOL0     H36037   0.379  11.190   9.300  0.1985 -0.2025  3.3128
  267MOL0     H36038   0.494  11.104   9.198  0.3070  0.0940 -0.1126
  267MOL0     H36039   0.655  11.167   9.403  0.3804  0.6154 -1.1735
  267MOL0     H36040   0.525  11.277   9.448  2.3985  1.2333  0.6142
  267MOL0     H36041   0.657  11.287   9.178  1.8392 -2.8881  1.8262
  267MOL0     H36042   0.707  11.383   9.321 -1.8328 -0.0874  1.7684
  267MOL0     H36043   0.324  11.556   9.231  0.4171  0.5362  0.4571
  267MOL0     H36044   0.468  10.818   9.549 -0.9875  1.2919 -0.4991
  267MOL0     H36045   0.427  10.675   9.740  0.3848  0.4159 -1.6199
  268MOL0     O36046  10.608   3.777   6.733  0.1440 -0.1815  0.1493
  268MOL0     C36047  10.665   3.715   6.636  0.6647 -0.0619 -0.5945
  268MOL0     O36048  10.707   3.761   6.509  0.2482  0.5397  0.4768
  268MOL0     C36049  10.659   3.890   6.480  0.2045  0.4259  0.6688
  268MOL0     C36050  10.520   3.929   6.481 -0.8781  0.2017 -0.2319
  268MOL0     C36051  10.477   4.061   6.467 -0.2297  0.8253 -0.3287
  268MOL0     C36052  10.579   4.158   6.439 -0.1078  0.1146  0.5040
  268MOL0     O36053  10.552   4.287   6.409  1.0080 -0.1105 -0.1598
  268MOL0     C36054  10.413   4.326   6.414 -0.4420 -0.0368  0.7944
  268MOL0     C36055  10.394   4.474   6.394  0.1414  0.6628 -0.7013
  268MOL0     C36056  10.433   4.563   6.516 -0.4273  0.6276 -0.2483
  268MOL0     C36057  10.346   4.535   6.638  0.2865  0.5355  0.6719
  268MOL0     C36058  10.345   4.645   6.735 -0.8796 -0.0119  0.0974
  268MOL0     C36059  10.287   4.614   6.878  0.5559  0.2199  0.7778
  268MOL0     C36060  10.134   4.567   6.864  0.5790 -1.3455 -0.0126
  268MOL0     C36061  10.049   4.666   6.780  0.4716 -0.4842  0.6237
  268MOL0     N36062  10.036   4.801   6.834  0.6142 -0.1198  0.5007
  268MOL0     C36063  10.140   4.899   6.835 -0.1836 -0.6409 -0.3875
  268MOL0     C36064  10.078   5.004   6.898  0.3741  0.1298  0.0291
  268MOL0     C36065  10.144   5.135   6.935 -0.7593 -0.0542  0.5193
  268MOL0     C36066  10.121   5.209   7.070  1.1039  0.2645 -1.0199
  268MOL0     C36067  10.180   5.347   7.101 -0.6005  0.0598 -0.5507
  268MOL0     C36068  10.172   5.447   6.988 -0.2808  0.5738  0.4307
  268MOL0     O36069  10.204   5.579   7.016 -0.3774  0.4985 -0.0001
  268MOL0     C36070  10.200   5.664   6.904 -0.8219  0.4952 -1.5107
  268MOL0     C36071  10.240   5.795   6.919  0.4695  0.4838  0.9144
  268MOL0     C36072  10.232   5.887   6.807  0.8209 -0.2147 -0.0854
  268MOL0     C36073  10.285   6.020   6.825  0.1780  0.4170  0.1398
  268MOL0     C36074  10.186   5.837   6.672  0.1818 -0.3182  0.0882
  268MOL0     C36075  10.157   5.925   6.556 -0.6559 -0.1483 -0.8266
  268MOL0     O36076  10.105   6.042   6.603 -0.3553  0.0185 -0.0589
  268MOL0     C36077  10.092   6.142   6.515  0.5593 -0.3190  0.4527
  268MOL0     C36078  10.178   6.244   6.513 -0.2176 -0.5048  0.4843
  268MOL0     C36079  10.165   6.351   6.412  0.4970  0.1200 -0.8780
  268MOL0     C36080  10.048   6.378   6.347  1.4900 -0.3111  0.9200
  268MOL0     O36081  10.037   6.496   6.280 -0.4476 -0.5462 -0.3398
  268MOL0     C36082   9.925   6.517   6.181 -0.4790  0.4280 -0.1593
  268MOL0     C36083   9.919   6.661   6.137 -0.9225  0.4055 -0.0787
  268MOL0     C36084  10.053   6.705   6.064 -0.2799 -0.0412  0.1049
  268MOL0     C36085  10.032   6.860   6.011  0.1125  0.6319 -0.2189
  268MOL0     C36086  10.066   6.969   6.124  0.2069  0.0219  0.9286
  268MOL0     C36087  10.050   7.114   6.065 -0.5099 -0.0753 -0.0258
  268MOL0     C36088  10.111   7.231   6.149  0.3506 -0.5218 -0.4185
  268MOL0     C36089  10.018   7.251   6.277 -0.2078  1.3090  1.5147
  268MOL0    Cl36090   9.850   7.314   6.230  0.6432  0.0240  0.1821
  268MOL0     C36091   9.945   6.274   6.356 -0.3150  0.2528 -0.3878
  268MOL0     C36092   9.977   6.154   6.430  0.3197 -0.3710 -0.1636
  268MOL0     O36093  10.174   5.890   6.434 -0.5639 -0.1049 -0.3858
  268MOL0     C36094  10.152   5.702   6.663  0.4881 -0.5877 -0.7107
  268MOL0     C36095  10.163   5.618   6.774  0.0775  0.5573  0.8670
  268MOL0     N36096   9.943   4.969   6.927 -0.6264 -0.3062  0.2661
  268MOL0     N36097   9.918   4.853   6.893 -0.1788  0.3549  0.0819
  268MOL0     C36098  10.716   4.127   6.422  0.1510  0.6403 -1.1979
  268MOL0     C36099  10.753   3.991   6.448 -0.6059  0.5713  0.7853
  268MOL0     C36100  10.692   3.580   6.669 -0.3833  0.9938  0.2758
  268MOL0     C36101  10.683   3.481   6.570 -0.6016 -0.3650 -0.7976
  268MOL0     C36102  10.689   3.343   6.603  0.2530 -0.3571  0.4970
  268MOL0     C36103  10.716   3.305   6.731 -0.5897 -0.7433 -0.1941
  268MOL0     O36104  10.751   3.173   6.753  0.2303 -0.3981  0.1894
  268MOL0     C36105  10.889   3.134   6.719  0.1581 -1.3702 -0.5329
  268MOL0     C36106  10.934   3.008   6.783  0.5579 -0.1176 -0.1023
  268MOL0     C36107  10.905   3.003   6.932  0.2071  0.3262  0.8941
  268MOL0     C36108  10.967   2.880   7.002 -0.0794  0.9616 -0.5248
  268MOL0     C36109  10.964   2.882   7.148 -0.3188 -0.6582  0.4001
  268MOL0     C36110  10.977   2.886   7.271  0.7907  0.1897  0.3609
  268MOL0     C36111  10.721   3.402   6.839 -0.4280  0.3135  0.2500
  268MOL0     C36112  10.702   3.531   6.802  0.9263 -0.2150 -0.8835
  268MOL0     H36113  10.449   3.853   6.513  0.4001 -1.5854 -1.4438
  268MOL0     H36114  10.370   4.073   6.483 -0.0932  2.1862 -0.3822
  268MOL0     H36115  10.348   4.269   6.347  1.4307 -0.4744 -0.7316
  268MOL0     H36116  10.384   4.293   6.515  2.8776 -2.9340  0.9927
  268MOL0     H36117  10.436   4.519   6.303  1.7902 -0.8580 -0.7306
  268MOL0     H36118  10.285   4.483   6.393  0.2895  3.1169 -0.7781
  268MOL0     H36119  10.537   4.547   6.546  0.2055  1.6016 -1.8078
  268MOL0     H36120  10.411   4.668   6.496 -2.2797 -0.0355 -2.0282
  268MOL0     H36121  10.244   4.511   6.607  0.1693 -0.1874  1.5711
  268MOL0     H36122  10.388   4.447   6.688 -0.0507 -0.4716 -0.7650
  268MOL0     H36123  10.448   4.676   6.750 -0.3770 -1.2773 -0.5987
  268MOL0     H36124  10.295   4.725   6.679 -2.0614  0.4205  1.6779
  268MOL0     H36125  10.346   4.540   6.933 -0.4023  0.7948  2.6477
  268MOL0     H36126  10.293   4.713   6.925  2.3563  2.0220 -2.8297
  268MOL0     H36127  10.142   4.469   6.816 -0.1753 -1.5930  0.3457
  268MOL0     H36128  10.098   4.565   6.968  2.0941  2.5841  0.7355
  268MOL0     H36129   9.946   4.628   6.781  0.3826 -0.7500 -3.3112
  268MOL0     H36130  10.090   4.664   6.679 -0.6578  0.7382  0.1178
  268MOL0     H36131  10.241   4.891   6.796 -0.9621  0.1018 -2.7281
  268MOL0     H36132  10.253   5.128   6.930 -0.6985  0.0586  1.4882
  268MOL0     H36133  10.117   5.206   6.857  1.3590 -0.6526 -0.8356
  268MOL0     H36134  10.160   5.135   7.140  0.6225  0.0869 -0.9304
  268MOL0     H36135  10.013   5.219   7.087  1.3743  2.9561 -0.4264
  268MOL0     H36136  10.285   5.335   7.130 -1.3587 -2.0413  1.7362
  268MOL0     H36137  10.129   5.395   7.186  1.1332  2.2981 -0.6999
  268MOL0     H36138  10.068   5.439   6.955 -0.8757 -1.9400  2.5528
  268MOL0     H36139  10.236   5.407   6.909  0.2721  0.7909  0.7587
  268MOL0     H36140  10.282   5.842   7.008 -0.1118  5.6114 -1.1917
  268MOL0     H36141  10.325   6.053   6.728 -1.5904  0.5823 -0.5695
  268MOL0     H36142  10.201   6.084   6.851 -0.4684  0.9649 -2.8812
  268MOL0     H36143  10.362   6.024   6.903 -0.8685 -1.2353  1.3129
  268MOL0     H36144  10.263   6.245   6.581  2.0665 -0.4593 -2.1814
  268MOL0     H36145  10.249   6.415   6.385  1.8129 -0.1223  2.2362
  268MOL0     H36146   9.938   6.450   6.096 -0.9776  0.5144 -0.3041
  268MOL0     H36147   9.837   6.490   6.240 -1.3041 -0.8262 -1.8702
  268MOL0     H36148   9.842   6.669   6.060 -2.4774 -0.3592  1.3191
  268MOL0     H36149   9.888   6.723   6.222 -2.2381 -1.8779  1.1912
  268MOL0     H36150  10.060   6.649   5.971  1.5813 -0.0360  0.1997
  268MOL0     H36151  10.142   6.700   6.128  0.8467 -3.7277 -1.4792
  268MOL0     H36152  10.110   6.870   5.934 -0.7418 -2.0845 -1.5598
  268MOL0     H36153   9.935   6.871   5.963  1.6185  1.0965 -3.4138
  268MOL0     H36154  10.165   6.949   6.165 -0.6435 -0.6697  2.7918
  268MOL0     H36155   9.997   6.958   6.208  2.2450 -0.8269  2.5641
  268MOL0     H36156  10.098   7.117   5.967 -0.1213  1.6595  0.1817
  268MOL0     H36157   9.947   7.146   6.044 -0.7858 -0.3950  0.7792
  268MOL0     H36158  10.133   7.318   6.087  2.2583  0.5354  1.5940
  268MOL0     H36159  10.205   7.185   6.180  0.3784 -0.0329  0.2636
  268MOL0     H36160  10.076   7.331   6.324  2.3591  0.0662  0.6870
  268MOL0     H36161  10.019   7.161   6.339 -0.3897 -1.1063 -1.7075
  268MOL0     H36162   9.848   6.287   6.307  0.5520 -0.3298 -2.3715
  268MOL0     H36163   9.911   6.068   6.431  2.1543 -1.9326 -2.3968
  268MOL0     H36164  10.111   5.669   6.568  0.4824  2.2319 -1.7864
  268MOL0     H36165  10.141   5.514   6.754  0.2929  0.9901 -2.0783
  268MOL0     H36166  10.788   4.204   6.397  1.4654  0.0773  0.6347
  268MOL0     H36167  10.850   3.943   6.436 -0.9231 -0.2761  1.4726
  268MOL0     H36168  10.642   3.503   6.472 -2.5503  1.0510  0.2639
  268MOL0     H36169  10.687   3.253   6.541  3.0089 -1.8614  2.3996
  268MOL0     H36170  10.914   3.134   6.613  2.4229  3.0787 -0.2405
  268MOL0     H36171  10.944   3.217   6.764 -0.0998 -1.6835  0.4025
  268MOL0     H36172  11.039   3.003   6.756 -0.5040 -0.1061 -5.0598
  268MOL0     H36173  10.886   2.924   6.733 -0.9467  0.8063 -0.2943
  268MOL0     H36174  10.798   3.008   6.952  0.3706  2.0954  1.5185
  268MOL0     H36175  10.944   3.091   6.984 -0.6743  1.0984  0.2648
  268MOL0     H36176  11.068   2.858   6.965  0.3647  0.6043  0.8422
  268MOL0     H36177  10.913   2.788   6.975 -2.5987  1.8780  1.1042
  268MOL0     H36178  10.996   2.880   7.376  1.9057  1.1836  0.2405
  268MOL0     H36179  10.742   3.380   6.943 -2.4650 -0.5695  0.5128
  268MOL0     H36180  10.715   3.605   6.880 -0.9646 -0.7989  0.0224
  269MOL0     O36181   4.732   0.953   2.888 -0.3468  0.2362 -0.2360
  269MOL0     C36182   4.763   0.881   2.979 -0.2302  0.8228 -0.5835
  269MOL0     O36183   4.678   0.785   3.034  0.4403 -0.3599 -0.3491
  269MOL0     C36184   4.556   0.776   2.984  0.0411  0.2877 -0.1815
  269MOL0     C36185   4.460   0.862   3.045 -0.1086 -0.5432  0.4128
  269MOL0     C36186   4.327   0.859   2.994  1.0115 -0.1352  0.4896
  269MOL0     C36187   4.275   0.754   2.914 -0.2353 -0.6687  0.4377
  269MOL0     O36188   4.139   0.761   2.871  0.1044  0.2495  0.5483
  269MOL0     C36189   4.096   0.666   2.764 -0.0040 -0.2233  0.6633
  269MOL0     C36190   3.954   0.706   2.711 -0.0843  1.2486 -0.1419
  269MOL0     C36191   3.949   0.837   2.638  0.3685  0.4989  0.6207
  269MOL0     C36192   4.032   0.838   2.514 -0.5521 -0.3009  0.2306
  269MOL0     C36193   3.990   0.938   2.397 -0.0023 -0.8351 -0.5199
  269MOL0     C36194   3.881   0.879   2.316 -0.1004  1.2505  0.2441
  269MOL0     C36195   3.817   0.980   2.224  0.1349  0.5718 -0.1086
  269MOL0     C36196   3.681   0.918   2.194 -0.6028 -0.1008 -0.1918
  269MOL0     N36197   3.668   0.830   2.071  0.3289 -0.3418  0.0626
  269MOL0     C36198   3.711   0.706   2.061  0.9508 -0.4714 -0.6392
  269MOL0     C36199   3.694   0.665   1.931 -0.8483 -0.9947  0.0374
  269MOL0     C36200   3.765   0.542   1.889  0.2314 -0.4595 -0.2164
  269MOL0     C36201   3.882   0.575   1.797 -0.9339  0.4695  0.1571
  269MOL0     C36202   3.944   0.454   1.737  0.8851  0.4563  0.1424
  269MOL0     C36203   4.077   0.518   1.676  0.3612 -0.1003  0.6642
  269MOL0     O36204   4.058   0.597   1.560  0.3327  0.5225 -0.1086
  269MOL0     C36205   4.165   0.637   1.484  0.3047 -0.5849 -0.3731
  269MOL0     C36206   4.299   0.598   1.507  1.1922  0.8846  0.1666
  269MOL0     C36207   4.394   0.639   1.415  0.5738  0.5183  0.4487
  269MOL0     C36208   4.535   0.617   1.455 -0.6000 -0.3103 -0.1408
  269MOL0     C36209   4.357   0.707   1.290  0.3190 -0.1136 -0.1473
  269MOL0     C36210   4.459   0.760   1.191  0.2561  0.3208  0.2145
  269MOL0     O36211   4.405   0.847   1.109 -0.5185 -0.3814  0.7668
  269MOL0     C36212   4.466   0.867   0.984 -0.1433  0.0836 -0.6589
  269MOL0     C36213   4.520   0.772   0.899  0.0331 -0.1328  0.2384
  269MOL0     C36214   4.561   0.798   0.762 -0.9015 -0.0590 -0.4464
  269MOL0     C36215   4.528   0.918   0.705 -0.5425  0.5970  0.9502
  269MOL0     O36216   4.558   0.940   0.576  0.2648 -0.0314  0.5419
  269MOL0     C36217   4.454   0.986   0.489 -0.5308 -0.2624 -0.3791
  269MOL0     C36218   4.321   0.899   0.495 -0.0412 -1.1510  0.4443
  269MOL0     C36219   4.333   0.750   0.475  0.4682  1.0711  0.0377
  269MOL0     C36220   4.370   0.692   0.338  0.3541 -0.4585  0.1611
  269MOL0     C36221   4.319   0.545   0.319 -0.1341  0.0309  0.3812
  269MOL0     C36222   4.347   0.457   0.439  0.1951  0.6662 -0.0440
  269MOL0     C36223   4.336   0.309   0.406 -1.1882  0.4913 -0.6687
  269MOL0     C36224   4.479   0.234   0.401  0.9433  0.0952  0.1979
  269MOL0    Cl36225   4.458   0.048   0.385  0.1202  0.4405  0.3519
  269MOL0     C36226   4.466   1.014   0.787  0.2278  0.8905  0.0523
  269MOL0     C36227   4.444   0.992   0.925 -0.1214 -0.2589  0.2393
  269MOL0     O36228   4.573   0.727   1.195  0.2815  0.7707 -0.6339
  269MOL0     C36229   4.223   0.739   1.277 -0.0247  0.0016  0.3309
  269MOL0     C36230   4.128   0.707   1.368  0.1280 -0.2997  0.6407
  269MOL0     N36231   3.607   0.757   1.872 -0.2604  0.0494 -0.5963
  269MOL0     N36232   3.602   0.864   1.953 -0.4584 -0.0949 -0.6729
  269MOL0     C36233   4.371   0.658   2.863  0.7336  1.0592 -0.6067
  269MOL0     C36234   4.510   0.667   2.894  0.7142  0.1330 -0.0492
  269MOL0     C36235   4.900   0.892   3.029 -0.0553 -0.5337 -0.6848
  269MOL0     C36236   4.954   0.793   3.121  0.2644  0.6521 -0.0882
  269MOL0     C36237   5.078   0.812   3.182 -0.9695  0.0161  0.0583
  269MOL0     C36238   5.153   0.930   3.158  0.5756 -1.1011 -0.2931
  269MOL0     O36239   5.267   0.966   3.231 -0.3331 -0.5144  0.6364
  269MOL0     C36240   5.251   0.963   3.371 -0.3584 -0.1951  0.3543
  269MOL0     C36241   5.370   1.038   3.438 -0.0257  0.2630  0.7971
  269MOL0     C36242   5.414   0.965   3.565 -0.4214  0.2083 -1.7798
  269MOL0     C36243   5.464   0.824   3.543  0.3254 -0.4101  0.0170
  269MOL0     C36244   5.536   0.791   3.663 -0.2097  0.0194 -0.3216
  269MOL0     C36245   5.606   0.768   3.760 -0.4301 -0.0768  0.1580
  269MOL0     C36246   5.108   1.023   3.064  0.4870  0.1459  0.8196
  269MOL0     C36247   4.979   1.014   3.007  0.4120 -0.3327  0.3811
  269MOL0     H36248   4.485   0.937   3.120  0.4302 -0.7290  0.4240
  269MOL0     H36249   4.251   0.928   3.030  0.0596 -1.2732  0.7187
  269MOL0     H36250   4.164   0.669   2.678 -2.1402 -1.1074 -1.1417
  269MOL0     H36251   4.096   0.561   2.794  3.9070 -0.9495 -1.1767
  269MOL0     H36252   3.941   0.623   2.640 -0.4865  4.2462 -3.8922
  269MOL0     H36253   3.880   0.709   2.792  0.0445 -3.9909  0.5399
  269MOL0     H36254   3.843   0.858   2.616  0.1703 -1.1822 -0.1624
  269MOL0     H36255   4.001   0.902   2.708  5.4921 -0.7512 -1.5785
  269MOL0     H36256   4.134   0.863   2.541 -0.2084  1.4383 -2.3261
  269MOL0     H36257   4.023   0.734   2.479 -2.4371  0.1807 -0.8629
  269MOL0     H36258   3.954   1.036   2.429  0.5405  0.0391 -2.4437
  269MOL0     H36259   4.063   0.956   2.317 -1.5562 -3.7666 -2.8238
  269MOL0     H36260   3.922   0.801   2.252  2.5077  1.6183  1.3209
  269MOL0     H36261   3.815   0.826   2.386  2.4395 -3.7965 -0.7324
  269MOL0     H36262   3.799   1.076   2.274  0.9359  1.1029 -0.8078
  269MOL0     H36263   3.864   0.992   2.126  0.6644 -1.1402 -0.0902
  269MOL0     H36264   3.610   1.001   2.181 -1.3140 -0.9011 -1.6730
  269MOL0     H36265   3.639   0.865   2.280 -0.6900 -1.0790 -0.8312
  269MOL0     H36266   3.781   0.664   2.133  2.9518  1.8449 -1.0921
  269MOL0     H36267   3.790   0.483   1.979 -0.1486  1.7137  1.3893
  269MOL0     H36268   3.703   0.475   1.829  0.5223 -1.4483  0.5421
  269MOL0     H36269   3.955   0.638   1.850 -0.7914  1.8308 -1.5466
  269MOL0     H36270   3.844   0.638   1.716  0.6734  3.2048  1.3802
  269MOL0     H36271   3.880   0.422   1.654  2.2539  1.2153 -1.2548
  269MOL0     H36272   3.964   0.368   1.802 -2.2011 -1.7990 -1.5992
  269MOL0     H36273   4.136   0.431   1.645  1.2346  0.9647 -0.8026
  269MOL0     H36274   4.138   0.563   1.755 -0.9078  1.9595  0.5300
  269MOL0     H36275   4.328   0.542   1.595  1.2266 -2.1016 -1.6225
  269MOL0     H36276   4.600   0.561   1.387  1.6401  1.5093  0.3764
  269MOL0     H36277   4.581   0.714   1.477 -2.5689  0.5918  0.1493
  269MOL0     H36278   4.539   0.566   1.552  1.4059 -0.1678 -0.1049
  269MOL0     H36279   4.527   0.670   0.937 -2.4108 -0.1173  0.8437
  269MOL0     H36280   4.606   0.728   0.692  1.8296  2.3880 -1.3617
  269MOL0     H36281   4.433   1.092   0.508 -0.0665 -0.3158  0.4939
  269MOL0     H36282   4.497   0.992   0.389  0.7970  1.7420  0.2532
  269MOL0     H36283   4.267   0.903   0.590  1.5664 -0.3410  1.3666
  269MOL0     H36284   4.254   0.933   0.415 -0.0785 -1.6907  0.2383
  269MOL0     H36285   4.237   0.702   0.497  0.2339  0.1347 -2.6575
  269MOL0     H36286   4.395   0.706   0.554 -2.2113 -1.5157  0.9410
  269MOL0     H36287   4.320   0.754   0.264 -2.6137  1.0256  3.1215
  269MOL0     H36288   4.478   0.696   0.322  0.6611  0.6589  2.2257
  269MOL0     H36289   4.367   0.504   0.229 -2.4815 -0.3859 -0.7503
  269MOL0     H36290   4.213   0.538   0.294 -0.0378  0.6410 -0.2208
  269MOL0     H36291   4.439   0.480   0.492 -0.1693  1.0520  0.4356
  269MOL0     H36292   4.257   0.480   0.497 -0.3092  2.5727 -1.4688
  269MOL0     H36293   4.277   0.289   0.316  2.5897 -0.6822 -3.1450
  269MOL0     H36294   4.274   0.254   0.477 -2.3640  1.5762 -0.8226
  269MOL0     H36295   4.538   0.272   0.485  1.0638 -0.5874  0.4373
  269MOL0     H36296   4.535   0.278   0.319 -1.9270  2.6923 -0.5458
  269MOL0     H36297   4.433   1.110   0.748  3.0930  1.1933 -1.8707
  269MOL0     H36298   4.391   1.066   0.985 -1.5832 -1.5078  0.5661
  269MOL0     H36299   4.180   0.794   1.193  0.1251 -1.6107 -0.8563
  269MOL0     H36300   4.025   0.731   1.346  0.4304 -1.7889 -3.3315
  269MOL0     H36301   4.353   0.581   2.789  2.6076  1.2236 -1.2857
  269MOL0     H36302   4.580   0.592   2.857 -0.0264  0.1863 -1.6425
  269MOL0     H36303   4.904   0.700   3.146  0.9567  0.6543  1.3519
  269MOL0     H36304   5.120   0.741   3.252 -0.9516 -1.0116 -0.9574
  269MOL0     H36305   5.164   1.023   3.402  1.3033  2.0274  0.9992
  269MOL0     H36306   5.241   0.860   3.406  1.1199 -0.3744  0.3056
  269MOL0     H36307   5.331   1.138   3.462 -0.3022  0.3331  0.0797
  269MOL0     H36308   5.459   1.041   3.375 -0.6821 -0.2896 -0.1893
  269MOL0     H36309   5.333   0.968   3.639  0.9855 -0.3650 -0.1335
  269MOL0     H36310   5.493   1.028   3.608  0.5049 -1.3532 -1.0938
  269MOL0     H36311   5.535   0.826   3.460 -0.9209 -0.0298 -1.0606
  269MOL0     H36312   5.390   0.746   3.524  0.1908 -0.3377  0.2356
  269MOL0     H36313   5.673   0.753   3.842  1.1423  4.4647 -0.0393
  269MOL0     H36314   5.173   1.105   3.035 -2.8125  1.2250 -4.8366
  269MOL0     H36315   4.941   1.091   2.940 -2.1013 -1.4042  0.4322
  270MOL0     O36316  11.107   1.468  10.601 -0.5333 -0.4870  0.4904
  270MOL0     C36317  11.226   1.501  10.582 -0.0857 -0.5582  0.3670
  270MOL0     O36318  11.294   1.503  10.462  0.2554  0.3621  0.1148
  270MOL0     C36319  11.228   1.480  10.348  0.8671 -0.6438  0.2796
  270MOL0     C36320  11.104   1.549  10.299 -0.0233  0.2812 -0.3817
  270MOL0     C36321  11.051   1.528  10.174 -0.4988 -0.5473  0.3682
  270MOL0     C36322  11.112   1.433  10.088 -0.1028  0.9690  0.4684
  270MOL0     O36323  11.076   1.392   9.961  0.1580 -0.8030 -0.0087
  270MOL0     C36324  10.953   1.449   9.918  0.3560 -0.2553 -0.5039
  270MOL0     C36325  10.900   1.364   9.802  0.0161  1.1653  0.2108
  270MOL0     C36326  10.771   1.423   9.744 -0.3273 -0.4271  0.0353
  270MOL0     C36327  10.754   1.390   9.601 -0.0245 -0.3169 -0.0087
  270MOL0     C36328  10.625   1.461   9.550 -0.3754 -0.0654  0.0433
  270MOL0     C36329  10.578   1.427   9.406 -0.5664  0.2704 -0.1454
  270MOL0     C36330  10.525   1.286   9.366 -0.3304 -0.0537 -0.2554
  270MOL0     C36331  10.427   1.224   9.466 -0.3750  0.3251  0.9332
  270MOL0     N36332  10.319   1.305   9.510 -1.0054 -0.4338 -0.6005
  270MOL0     C36333  10.267   1.319   9.633  0.3272  0.7007  0.6057
  270MOL0     C36334  10.174   1.415   9.625  0.0428 -0.1765  0.1658
  270MOL0     C36335  10.082   1.472   9.728  0.3248 -0.6792  0.5735
  270MOL0     C36336   9.999   1.361   9.802 -0.3025 -0.4687  0.3900
  270MOL0     C36337   9.917   1.418   9.923  0.8277 -0.4613  0.2041
  270MOL0     C36338   9.796   1.503   9.892 -0.3181  0.1138  0.6539
  270MOL0     O36339   9.831   1.636   9.840  0.1510  0.3958 -0.3572
  270MOL0     C36340   9.733   1.706   9.782 -0.7220  0.5550  0.0829
  270MOL0     C36341   9.773   1.825   9.724  0.2837  0.5774  0.5146
  270MOL0     C36342   9.688   1.921   9.665 -0.2554  0.4514  0.4583
  270MOL0     C36343   9.753   2.046   9.610 -0.5356  0.6988  0.0415
  270MOL0     C36344   9.549   1.888   9.668 -0.3593 -0.4028 -0.3247
  270MOL0     C36345   9.438   1.978   9.621  0.1708  1.8711 -1.1863
  270MOL0     O36346   9.320   1.916   9.595 -0.2815 -0.4602 -0.5016
  270MOL0     C36347   9.200   1.986   9.602 -0.3843  0.1925  0.4384
  270MOL0     C36348   9.084   1.940   9.550  0.1658  0.3070 -0.9833
  270MOL0     C36349   8.965   2.012   9.557  0.0396  0.9054  0.3363
  270MOL0     C36350   8.951   2.124   9.641 -0.4378 -0.0464  0.4201
  270MOL0     O36351   8.839   2.202   9.668  0.5392  0.5835  0.3509
  270MOL0     C36352   8.716   2.154   9.603  0.3150  0.0411  0.3842
  270MOL0     C36353   8.585   2.229   9.630  0.9367  0.4765 -1.0658
  270MOL0     C36354   8.604   2.378   9.608 -0.0879 -0.4055  0.3471
  270MOL0     C36355   8.482   2.460   9.651 -0.2028  0.0866 -0.3220
  270MOL0     C36356   8.477   2.602   9.592 -0.0108 -0.4836 -0.8082
  270MOL0     C36357   8.351   2.694   9.613  0.1621  1.0541 -0.6177
  270MOL0     C36358   8.223   2.641   9.552 -0.5460  0.0367  0.8773
  270MOL0     C36359   8.107   2.734   9.562 -0.1850 -0.8656 -0.3368
  270MOL0    Cl36360   8.047   2.766   9.724 -0.1920 -0.3971 -0.2795
  270MOL0     C36361   9.060   2.167   9.707  0.6665  0.1761 -0.3754
  270MOL0     C36362   9.184   2.103   9.683 -0.6492  0.1566 -0.0334
  270MOL0     O36363   9.462   2.099   9.607 -0.1541 -0.2044  0.4556
  270MOL0     C36364   9.511   1.765   9.723 -0.8474  0.6886  0.5284
  270MOL0     C36365   9.598   1.672   9.775  0.1625 -0.4495  0.1049
  270MOL0     N36366  10.176   1.455   9.488 -0.2940  0.1993 -0.7738
  270MOL0     N36367  10.259   1.388   9.422 -0.2500  0.4635 -0.1673
  270MOL0     C36368  11.231   1.372  10.129 -0.2463  0.4060  0.6631
  270MOL0     C36369  11.287   1.395  10.255  0.0167  0.2075  0.7272
  270MOL0     C36370  11.315   1.521  10.703  0.0046 -0.5340  0.1896
  270MOL0     C36371  11.264   1.488  10.832  0.2823 -0.7046  0.3646
  270MOL0     C36372  11.346   1.493  10.939 -0.6145  0.4943  0.0879
  270MOL0     C36373  11.477   1.538  10.922 -0.7578  0.2089 -0.6246
  270MOL0     O36374  11.568   1.537  11.027  0.4216  0.4052  0.9167
  270MOL0     C36375  11.625   1.409  11.053  0.3922  0.3610  0.7849
  270MOL0     C36376  11.754   1.421  11.141 -0.1029 -0.3865  0.6711
  270MOL0     C36377  11.715   1.497  11.263 -0.5631  0.4266 -0.0265
  270MOL0     C36378  11.839   1.508  11.360  0.6526  0.5273  0.0605
  270MOL0     C36379  11.801   1.573  11.494  0.3802  0.9235  0.1152
  270MOL0     C36380  11.772   1.617  11.605 -0.9157  0.8209  0.2422
  270MOL0     C36381  11.531   1.573  10.795  0.4401 -0.1510  0.3154
  270MOL0     C36382  11.447   1.567  10.688 -0.3377 -0.2245 -0.1847
  270MOL0     H36383  11.055   1.614  10.370  2.9224  0.6186  1.5546
  270MOL0     H36384  10.957   1.578  10.155  0.3141  0.6728 -0.5384
  270MOL0     H36385  10.878   1.447   9.997  1.6130 -0.8965  0.7245
  270MOL0     H36386  10.963   1.552   9.884  1.2141  0.5070  1.8519
  270MOL0     H36387  10.975   1.356   9.722 -1.0877 -0.9454 -0.7059
  270MOL0     H36388  10.876   1.266   9.844  1.8835  0.8554  0.6692
  270MOL0     H36389  10.687   1.385   9.804 -2.3615  1.9561 -1.0912
  270MOL0     H36390  10.777   1.532   9.748 -0.8819 -0.2613 -2.3615
  270MOL0     H36391  10.843   1.427   9.549  0.7092  1.3995  2.3049
  270MOL0     H36392  10.746   1.282   9.584 -2.1172 -0.2408  0.1770
  270MOL0     H36393  10.545   1.438   9.620  1.7982 -0.1152  2.7058
  270MOL0     H36394  10.650   1.567   9.564  1.7747 -0.4156 -0.6971
  270MOL0     H36395  10.493   1.486   9.371  0.4530  0.7267 -1.9819
  270MOL0     H36396  10.666   1.437   9.341 -2.2189 -0.3464 -2.5834
  270MOL0     H36397  10.492   1.310   9.264  2.9389  0.4356 -1.3048
  270MOL0     H36398  10.606   1.215   9.346 -1.5909 -1.4669 -0.5191
  270MOL0     H36399  10.492   1.216   9.553  0.5303  0.5430  0.2949
  270MOL0     H36400  10.395   1.127   9.427 -0.4746  1.2153 -1.3749
  270MOL0     H36401  10.306   1.263   9.717  1.0185  0.5376  0.1822
  270MOL0     H36402  10.144   1.530   9.797  1.3964  2.4809 -2.6749
  270MOL0     H36403  10.015   1.545   9.682  1.8717 -0.3689 -1.3543
  270MOL0     H36404  10.062   1.288   9.854  0.2595  1.6885  2.9926
  270MOL0     H36405   9.931   1.303   9.739  0.6521  1.9312 -3.1699
  270MOL0     H36406   9.981   1.479   9.986  0.6144 -0.3935  0.3600
  270MOL0     H36407   9.882   1.332   9.981 -1.1116 -0.1911 -0.4854
  270MOL0     H36408   9.742   1.494   9.986  0.2490 -1.1950  0.8714
  270MOL0     H36409   9.740   1.453   9.812  1.2054  1.1587 -1.1421
  270MOL0     H36410   9.879   1.851   9.727  0.3907  0.2833 -0.4389
  270MOL0     H36411   9.689   2.107   9.546  0.6903  2.5763  0.5274
  270MOL0     H36412   9.795   2.090   9.701  3.1862 -1.0001 -0.6830
  270MOL0     H36413   9.845   2.018   9.558  0.3345  0.5364  1.5990
  270MOL0     H36414   9.075   1.852   9.488 -2.2839  0.7715 -1.3850
  270MOL0     H36415   8.880   1.978   9.497 -0.5154  2.6319  0.0853
  270MOL0     H36416   8.730   2.156   9.495 -1.6391 -0.8452  0.0636
  270MOL0     H36417   8.703   2.048   9.627 -4.0141  0.2947 -0.0763
  270MOL0     H36418   8.515   2.184   9.560 -0.3193  2.5865 -1.2361
  270MOL0     H36419   8.543   2.210   9.729 -0.3615  2.6327 -1.1413
  270MOL0     H36420   8.619   2.387   9.500  1.3595  1.6461  0.6756
  270MOL0     H36421   8.697   2.404   9.659  1.2920 -0.2106 -2.1162
  270MOL0     H36422   8.390   2.413   9.616 -0.7090 -0.9535  2.1531
  270MOL0     H36423   8.490   2.451   9.760  4.3318 -3.1493 -0.6349
  270MOL0     H36424   8.492   2.610   9.484  2.3979  0.9969 -0.4438
  270MOL0     H36425   8.561   2.660   9.632 -1.6682  1.4504  0.0869
  270MOL0     H36426   8.346   2.710   9.721  1.8096  0.1658 -0.3703
  270MOL0     H36427   8.367   2.789   9.561 -0.3744 -0.6726 -4.2919
  270MOL0     H36428   8.194   2.549   9.605 -2.5385  0.3569  0.4058
  270MOL0     H36429   8.257   2.620   9.450 -1.0306  0.7488  0.5623
  270MOL0     H36430   8.127   2.830   9.513 -3.5033 -1.0282 -2.3405
  270MOL0     H36431   8.022   2.687   9.513 -1.3420 -1.9714  2.5375
  270MOL0     H36432   9.048   2.249   9.776 -0.5572 -0.6939  0.4748
  270MOL0     H36433   9.268   2.140   9.741  0.8213 -0.3162 -1.7698
  270MOL0     H36434   9.406   1.737   9.719 -0.8722  0.3667  2.5335
  270MOL0     H36435   9.562   1.575   9.809 -1.4836  0.2457  0.4300
  270MOL0     H36436  11.273   1.287  10.077 -0.4141 -0.5320  2.0132
  270MOL0     H36437  11.371   1.333  10.285  0.1686 -1.1038 -2.1120
  270MOL0     H36438  11.160   1.460  10.848 -0.3737  0.8654 -0.9201
  270MOL0     H36439  11.308   1.455  11.033 -1.0233  1.0410  0.1510
  270MOL0     H36440  11.551   1.343  11.098 -0.4048 -1.2300 -2.5781
  270MOL0     H36441  11.646   1.365  10.955 -1.8648 -0.9415  0.8144
  270MOL0     H36442  11.849   1.451  11.095 -0.7616  3.8316  1.6130
  270MOL0     H36443  11.779   1.319  11.172  0.3822 -1.6005 -3.1719
  270MOL0     H36444  11.635   1.438  11.308 -1.6001 -0.2593 -2.5763
  270MOL0     H36445  11.676   1.596  11.237  1.8123  0.8063 -2.7029
  270MOL0     H36446  11.921   1.563  11.315  0.5029 -1.0502 -2.2928
  270MOL0     H36447  11.884   1.410  11.376 -0.0876  0.1884  0.1240
  270MOL0     H36448  11.731   1.636  11.703 -3.7994  2.0358 -1.0796
  270MOL0     H36449  11.630   1.616  10.783 -0.0758  0.6890 -1.2500
  270MOL0     H36450  11.490   1.587  10.590  0.0040  0.5043  0.1112
  271MOL0     O36451   1.093   3.921   2.720 -0.5496  0.0633  0.1363
  271MOL0     C36452   1.160   4.023   2.716 -0.2809  0.5521 -0.0340
  271MOL0     O36453   1.115   4.144   2.661 -1.2566 -0.6551 -0.1891
  271MOL0     C36454   0.990   4.154   2.618  0.3612 -0.2070  0.3299
  271MOL0     C36455   0.898   4.052   2.573 -0.3872  0.0303  0.3063
  271MOL0     C36456   0.769   4.077   2.525  0.3330  0.2265 -0.4995
  271MOL0     C36457   0.726   4.209   2.537 -0.3956  0.8594  1.0390
  271MOL0     O36458   0.606   4.268   2.515  0.0600  0.0838  0.3662
  271MOL0     C36459   0.499   4.187   2.484 -0.5284  0.8770  0.7979
  271MOL0     C36460   0.436   4.233   2.350 -0.9078  0.4765  0.1685
  271MOL0     C36461   0.533   4.268   2.239 -0.0630  0.4686  0.4194
  271MOL0     C36462   0.449   4.297   2.106  0.8827  0.6184 -0.2660
  271MOL0     C36463   0.533   4.362   1.998  0.8978  0.1286  1.0166
  271MOL0     C36464   0.523   4.281   1.871  0.7276  0.4782  0.2165
  271MOL0     C36465   0.604   4.335   1.763 -0.1226 -0.4120 -0.1105
  271MOL0     C36466   0.578   4.279   1.628  0.1870  0.2405  0.2508
  271MOL0     N36467   0.621   4.363   1.511 -1.0835  0.5087 -0.1341
  271MOL0     C36468   0.752   4.351   1.455  0.6086  0.5255 -0.2717
  271MOL0     C36469   0.766   4.444   1.359 -0.5866  0.0400 -0.9109
  271MOL0     C36470   0.895   4.492   1.301 -0.2577 -0.7844 -0.0329
  271MOL0     C36471   0.950   4.387   1.196  0.0548  0.9179 -0.5341
  271MOL0     C36472   0.858   4.388   1.069  0.2031  0.0270  0.5092
  271MOL0     C36473   0.923   4.328   0.945  0.0885  0.6032  0.1432
  271MOL0     O36474   1.050   4.393   0.936 -0.0760  0.4222 -0.5595
  271MOL0     C36475   1.069   4.484   0.835 -0.4898  1.1905 -0.1253
  271MOL0     C36476   0.972   4.566   0.771  0.7557  0.0520 -0.3260
  271MOL0     C36477   1.004   4.646   0.658 -0.6993  0.2225  0.5875
  271MOL0     C36478   0.886   4.706   0.581  0.4496 -0.2189 -0.3073
  271MOL0     C36479   1.143   4.655   0.618 -0.0813 -0.2086 -0.5118
  271MOL0     C36480   1.186   4.740   0.518  0.2588 -0.3724  1.2683
  271MOL0     O36481   1.298   4.814   0.541 -0.8253 -0.1480 -0.3546
  271MOL0     C36482   1.355   4.904   0.446  0.8251 -0.1026 -0.3402
  271MOL0     C36483   1.264   4.994   0.392  0.6646  0.4368  1.6830
  271MOL0     C36484   1.318   5.082   0.294 -0.4493 -0.5880 -0.2059
  271MOL0     C36485   1.452   5.072   0.248 -0.6447 -0.3937  0.1813
  271MOL0     O36486   1.506   5.149   0.149 -0.4110  0.1228 -0.3881
  271MOL0     C36487   1.429   5.254   0.089 -0.0486 -0.0347 -0.4182
  271MOL0     C36488   1.498   5.320  -0.025  1.1525  0.1373 -0.2170
  271MOL0     C36489   1.464   5.241  -0.156 -0.6224 -0.1757 -0.7617
  271MOL0     C36490   1.571   5.137  -0.167  0.5828 -1.0119  0.7371
  271MOL0     C36491   1.529   4.997  -0.204  1.0096 -0.1818  0.8141
  271MOL0     C36492   1.636   4.895  -0.186 -0.0800 -0.3654 -0.8330
  271MOL0     C36493   1.749   4.914  -0.280 -0.5673 -0.0299  0.7151
  271MOL0     C36494   1.880   4.845  -0.228 -0.4095  0.1507  0.3456
  271MOL0    Cl36495   1.959   4.931  -0.096 -0.0396  0.0535  0.2270
  271MOL0     C36496   1.538   4.992   0.324  0.3752  0.5017  0.7255
  271MOL0     C36497   1.491   4.909   0.422 -0.6481 -0.7895  0.4987
  271MOL0     O36498   1.149   4.707   0.403  0.0186  1.0621 -0.7805
  271MOL0     C36499   1.240   4.594   0.701  0.5199  0.3432  0.0699
  271MOL0     C36500   1.201   4.506   0.803 -0.0683  0.6557  0.6184
  271MOL0     N36501   0.649   4.521   1.364 -0.3107 -0.1662  0.6390
  271MOL0     N36502   0.567   4.469   1.453 -0.0372 -0.1251  0.4913
  271MOL0     C36503   0.818   4.304   2.577 -0.0737  0.5350  0.4780
  271MOL0     C36504   0.946   4.282   2.617  0.5114  0.3068  0.4521
  271MOL0     C36505   1.300   4.013   2.764  0.1778  1.2466 -0.0126
  271MOL0     C36506   1.358   4.118   2.836 -0.7012 -0.7472  0.3083
  271MOL0     C36507   1.484   4.109   2.884 -0.3165  0.0352  0.1121
  271MOL0     C36508   1.545   3.985   2.885  0.1016  0.0239  0.3315
  271MOL0     O36509   1.659   3.958   2.957  0.4330 -0.2664 -0.0267
  271MOL0     C36510   1.677   4.031   3.085  0.4547  0.0760  0.0669
  271MOL0     C36511   1.758   3.938   3.168  0.0512  0.4765  0.2496
  271MOL0     C36512   1.905   3.913   3.117  0.5930 -0.1610 -0.0435
  271MOL0     C36513   1.975   3.797   3.190  0.1510 -2.0644 -0.2172
  271MOL0     C36514   1.996   3.848   3.327  0.5670 -0.3943 -0.2101
  271MOL0     C36515   1.986   3.868   3.451  0.5781 -0.4548  0.1263
  271MOL0     C36516   1.487   3.876   2.829  0.3720 -1.0475  0.7556
  271MOL0     C36517   1.365   3.894   2.763  0.4244  0.0340  0.2058
  271MOL0     H36518   0.928   3.948   2.565 -2.1887 -0.7348  2.5427
  271MOL0     H36519   0.698   3.999   2.499 -0.2462  0.4116  0.4619
  271MOL0     H36520   0.511   4.078   2.486 -2.5438  0.4751 -2.4113
  271MOL0     H36521   0.424   4.204   2.563 -1.2226 -1.9128  0.8351
  271MOL0     H36522   0.375   4.148   2.320 -0.8226  0.9601 -1.4482
  271MOL0     H36523   0.370   4.318   2.371 -2.7144 -0.8591  0.0859
  271MOL0     H36524   0.570   4.360   2.285  2.5683 -0.5597  0.5800
  271MOL0     H36525   0.617   4.197   2.239  0.7353  1.3893 -0.3070
  271MOL0     H36526   0.409   4.202   2.072  0.1479  1.2863 -1.3417
  271MOL0     H36527   0.362   4.360   2.126  1.7370  2.2630 -1.3683
  271MOL0     H36528   0.506   4.464   1.971  2.6149  0.5025  0.5593
  271MOL0     H36529   0.638   4.374   2.026  1.1356  1.1990 -0.2465
  271MOL0     H36530   0.559   4.178   1.882  0.0186  0.0707 -1.1407
  271MOL0     H36531   0.416   4.267   1.854  0.1606  2.1228  2.0729
  271MOL0     H36532   0.582   4.442   1.764  2.6272  0.2283  0.6389
  271MOL0     H36533   0.708   4.314   1.791  0.4520  0.2608 -1.6166
  271MOL0     H36534   0.470   4.275   1.611  0.5469 -1.6533 -2.2613
  271MOL0     H36535   0.617   4.177   1.620 -2.8514 -0.8444 -2.8964
  271MOL0     H36536   0.826   4.276   1.481 -1.1327 -0.7151  1.2944
  271MOL0     H36537   0.864   4.587   1.257  0.6631 -1.1278 -1.4632
  271MOL0     H36538   0.966   4.518   1.380  3.1720  0.3303 -3.1989
  271MOL0     H36539   0.956   4.287   1.241  1.5893  2.1087  2.1750
  271MOL0     H36540   1.055   4.414   1.181  0.5815 -0.1645  0.8786
  271MOL0     H36541   0.826   4.486   1.033 -2.4454 -0.1230  2.2018
  271MOL0     H36542   0.761   4.341   1.085 -1.7720  2.6384 -2.6249
  271MOL0     H36543   0.871   4.350   0.851 -1.8598 -0.1067  1.0010
  271MOL0     H36544   0.952   4.222   0.949  0.5352  0.3596 -4.2286
  271MOL0     H36545   0.869   4.558   0.806  0.2632  0.9137 -1.5287
  271MOL0     H36546   0.921   4.796   0.530  0.1223  0.0517 -0.0541
  271MOL0     H36547   0.857   4.632   0.506 -0.3937  0.4769 -0.6755
  271MOL0     H36548   0.804   4.730   0.648  1.1079 -0.4377  0.6009
  271MOL0     H36549   1.164   4.999   0.434 -1.0265  0.6756 -1.9380
  271MOL0     H36550   1.253   5.159   0.256 -1.5667  0.1764  2.9728
  271MOL0     H36551   1.332   5.225   0.047 -0.0261 -0.8404  0.0703
  271MOL0     H36552   1.414   5.334   0.162 -1.4215  0.9750 -1.7391
  271MOL0     H36553   1.451   5.419  -0.031  1.3713  0.2556 -0.0061
  271MOL0     H36554   1.603   5.340  -0.004  0.9497  1.0851 -0.0584
  271MOL0     H36555   1.460   5.305  -0.245 -2.6582  0.0589 -0.5479
  271MOL0     H36556   1.363   5.199  -0.154 -0.0811 -1.7783  3.6252
  271MOL0     H36557   1.646   5.173  -0.238  1.5065 -1.7115  1.3352
  271MOL0     H36558   1.627   5.145  -0.074 -0.5174 -1.7949  1.5000
  271MOL0     H36559   1.476   4.992  -0.300  1.3745  1.4546  0.4890
  271MOL0     H36560   1.441   4.980  -0.141 -0.8290 -2.1628 -2.0380
  271MOL0     H36561   1.662   4.898  -0.080  2.7399  1.3249 -1.4671
  271MOL0     H36562   1.594   4.795  -0.195 -0.3741 -0.2815 -0.4017
  271MOL0     H36563   1.782   5.016  -0.305  2.3377 -1.1989 -0.6816
  271MOL0     H36564   1.718   4.877  -0.378  2.1875 -0.4980 -0.0592
  271MOL0     H36565   1.948   4.834  -0.313 -0.7855 -0.8568  0.1584
  271MOL0     H36566   1.843   4.749  -0.193  1.2868 -1.2807 -1.5769
  271MOL0     H36567   1.642   4.986   0.294  0.0592 -0.0334 -0.3146
  271MOL0     H36568   1.564   4.853   0.480 -0.8711 -1.6600 -0.0405
  271MOL0     H36569   1.344   4.615   0.678  1.1372 -0.1992  2.1890
  271MOL0     H36570   1.269   4.436   0.851 -0.7438 -0.6413 -0.2500
  271MOL0     H36571   0.792   4.408   2.561  1.4605  1.0164  0.9126
  271MOL0     H36572   1.003   4.367   2.654 -1.4607  1.1106  1.7995
  271MOL0     H36573   1.301   4.209   2.853  0.8024  0.1202  0.8709
  271MOL0     H36574   1.520   4.195   2.940  1.1423 -0.7737  0.4803
  271MOL0     H36575   1.713   4.134   3.078 -0.6405  0.4381 -0.4514
  271MOL0     H36576   1.581   4.042   3.137  0.4902  0.6751  0.0067
  271MOL0     H36577   1.706   3.841   3.172 -0.7378  0.9023  3.1190
  271MOL0     H36578   1.756   3.976   3.271  0.8031  1.9551 -0.2623
  271MOL0     H36579   1.943   4.014   3.132 -1.0725  0.5449 -0.3175
  271MOL0     H36580   1.906   3.885   3.011  0.8888 -0.8712  0.1449
  271MOL0     H36581   2.075   3.767   3.156  2.5518  2.2933  1.9524
  271MOL0     H36582   1.901   3.717   3.193 -0.4235 -1.5909 -1.2811
  271MOL0     H36583   1.967   3.893   3.554  0.7827 -1.0713  0.3206
  271MOL0     H36584   1.550   3.788   2.839  1.5631 -0.2998  0.1400
  271MOL0     H36585   1.322   3.807   2.716 -0.8160  0.6503  0.1612
  272MOL0     O36586   7.646   0.765   3.030 -0.2136  0.3053 -0.4183
  272MOL0     C36587   7.542   0.791   2.970  0.0142  0.8815  1.0499
  272MOL0     O36588   7.418   0.808   3.023  0.0979 -0.1510  0.4365
  272MOL0     C36589   7.408   0.792   3.158 -0.3878  0.4329 -0.4373
  272MOL0     C36590   7.471   0.869   3.258  0.7449 -0.5384  0.2789
  272MOL0     C36591   7.451   0.834   3.395  0.5614 -0.3823 -0.0852
  272MOL0     C36592   7.360   0.734   3.430  0.2033 -0.3819  1.0360
  272MOL0     O36593   7.327   0.687   3.559 -0.3489 -0.6561  0.0217
  272MOL0     C36594   7.371   0.783   3.662  0.9280 -1.0456 -0.0768
  272MOL0     C36595   7.304   0.742   3.799  0.1157 -0.2436 -0.2232
  272MOL0     C36596   7.373   0.824   3.917  0.2677  0.1194  0.2277
  272MOL0     C36597   7.305   0.958   3.952 -0.0910 -0.4925  0.0869
  272MOL0     C36598   7.402   1.051   4.034  0.7503  0.3695 -0.1256
  272MOL0     C36599   7.483   1.149   3.934  0.9318 -0.2258  0.1138
  272MOL0     C36600   7.582   1.224   4.014 -0.5506 -0.2771  0.7820
  272MOL0     C36601   7.684   1.317   3.931  0.4595 -0.2859  0.9529
  272MOL0     N36602   7.632   1.447   3.886 -0.1871 -1.0258  0.2386
  272MOL0     C36603   7.678   1.574   3.915 -0.6208  0.0206 -0.1794
  272MOL0     C36604   7.605   1.656   3.835 -0.0498 -0.3747 -0.4401
  272MOL0     C36605   7.613   1.804   3.855 -0.2376 -0.2959 -0.7188
  272MOL0     C36606   7.573   1.845   4.004 -0.3335  0.8701 -0.2994
  272MOL0     C36607   7.571   2.000   4.021 -0.1310 -0.2951 -0.3354
  272MOL0     C36608   7.464   2.055   4.118 -0.1856  1.0928 -0.0436
  272MOL0     O36609   7.438   2.194   4.082  0.5212  0.5182 -0.3459
  272MOL0     C36610   7.526   2.288   4.124 -0.3025  0.6207 -0.0025
  272MOL0     C36611   7.643   2.264   4.194  0.1383 -0.9622  0.0784
  272MOL0     C36612   7.732   2.361   4.222  0.2394 -0.1834 -0.0938
  272MOL0     C36613   7.853   2.305   4.294 -0.3345 -0.7796 -0.1293
  272MOL0     C36614   7.715   2.494   4.181 -0.5836 -1.3508  0.5006
  272MOL0     C36615   7.811   2.602   4.218  0.0129 -0.0051  0.0852
  272MOL0     O36616   7.760   2.731   4.216  0.0320 -0.4420 -0.0233
  272MOL0     C36617   7.819   2.819   4.123 -0.3657  0.8047 -0.6082
  272MOL0     C36618   7.888   2.766   4.004  0.0804 -0.6769  0.0493
  272MOL0     C36619   7.958   2.860   3.925  0.3426  0.1894 -0.2062
  272MOL0     C36620   7.947   2.998   3.944 -0.1348  0.3729 -0.3336
  272MOL0     O36621   8.005   3.076   3.846  0.0844 -0.0784 -0.1701
  272MOL0     C36622   7.938   3.193   3.804  0.4003 -0.1434 -0.1346
  272MOL0     C36623   7.997   3.240   3.664  0.3489 -0.4684  0.0991
  272MOL0     C36624   7.977   3.137   3.550 -0.3532  0.1901  0.3123
  272MOL0     C36625   8.051   3.193   3.422 -0.1950  0.1518  0.5913
  272MOL0     C36626   8.018   3.100   3.299 -1.0238 -0.0004 -0.0933
  272MOL0     C36627   8.075   3.157   3.167  0.6720  0.0674 -0.1001
  272MOL0     C36628   8.064   3.044   3.054 -0.1655 -0.8746 -0.5655
  272MOL0     C36629   8.172   3.066   2.945  0.3148  0.2826 -0.3329
  272MOL0    Cl36630   8.338   3.025   2.994  0.3210 -0.0167  0.0201
  272MOL0     C36631   7.877   3.044   4.057 -0.3766  0.3983 -0.3037
  272MOL0     C36632   7.817   2.947   4.145  0.6579 -1.0585 -0.3478
  272MOL0     O36633   7.922   2.584   4.269  0.0975 -0.1123  0.0694
  272MOL0     C36634   7.599   2.527   4.109  1.0315 -0.1218  0.1913
  272MOL0     C36635   7.509   2.420   4.078  0.6300 -0.1499  1.1538
  272MOL0     N36636   7.511   1.581   3.764 -0.4005  1.0623 -0.6341
  272MOL0     N36637   7.543   1.455   3.781  0.8344 -0.1446 -0.3814
  272MOL0     C36638   7.292   0.665   3.336 -0.7218  0.2585 -0.2174
  272MOL0     C36639   7.323   0.686   3.201 -0.2767  0.5779 -1.3333
  272MOL0     C36640   7.554   0.814   2.817 -0.2956  0.3368  1.0039
  272MOL0     C36641   7.648   0.755   2.744 -0.6350  0.5389  0.4190
  272MOL0     C36642   7.659   0.761   2.608  0.0707 -1.2310  0.8993
  272MOL0     C36643   7.567   0.832   2.535  0.0223 -0.7535 -0.3841
  272MOL0     O36644   7.576   0.836   2.399  1.3440  0.1514 -0.5611
  272MOL0     C36645   7.487   0.921   2.318  0.0600 -0.2406 -0.0921
  272MOL0     C36646   7.567   1.057   2.298  1.4103  0.0080 -0.5290
  272MOL0     C36647   7.471   1.150   2.223  0.9756 -0.4721 -0.0363
  272MOL0     C36648   7.537   1.285   2.201 -0.2172  0.4997  0.8832
  272MOL0     C36649   7.462   1.381   2.112  0.6133  0.1973 -1.0942
  272MOL0     C36650   7.405   1.466   2.047  0.4971 -0.4342  0.3149
  272MOL0     C36651   7.471   0.910   2.603 -0.4733  0.4704  0.4860
  272MOL0     C36652   7.461   0.896   2.746 -0.2291 -0.3761  0.2564
  272MOL0     H36653   7.536   0.953   3.235  0.2899 -0.4970 -0.9186
  272MOL0     H36654   7.514   0.878   3.472  1.5272 -1.5429 -0.1905
  272MOL0     H36655   7.479   0.795   3.666  1.0901 -2.4339  0.3460
  272MOL0     H36656   7.328   0.880   3.637  0.9055 -1.3832 -1.4383
  272MOL0     H36657   7.196   0.756   3.788  0.1424 -0.6836 -1.0970
  272MOL0     H36658   7.332   0.637   3.811  2.9331 -0.1075 -3.8958
  272MOL0     H36659   7.359   0.768   4.010 -1.6191 -1.0987 -0.7214
  272MOL0     H36660   7.476   0.843   3.885  0.5175 -2.3522 -0.6052
  272MOL0     H36661   7.260   1.005   3.864  2.4603 -0.9731 -1.5606
  272MOL0     H36662   7.222   0.923   4.015 -1.2191  0.8844 -0.5826
  272MOL0     H36663   7.343   1.111   4.103  0.4441  3.4155 -2.8170
  272MOL0     H36664   7.467   0.984   4.092  0.9695  0.4284 -0.2971
  272MOL0     H36665   7.528   1.102   3.846  0.2981  0.6803 -0.7010
  272MOL0     H36666   7.402   1.216   3.906  1.8606  1.4321  1.2441
  272MOL0     H36667   7.523   1.285   4.083 -2.7332 -2.8393  1.3319
  272MOL0     H36668   7.651   1.154   4.061  3.4970 -0.6906 -4.7346
  272MOL0     H36669   7.709   1.264   3.838 -2.2268 -1.8828  1.0290
  272MOL0     H36670   7.779   1.332   3.981 -0.1585  3.1289  1.2997
  272MOL0     H36671   7.747   1.586   3.998 -4.6094 -0.8343  3.6398
  272MOL0     H36672   7.718   1.836   3.849  0.3822 -1.1852  2.7888
  272MOL0     H36673   7.567   1.852   3.768  1.2750  0.8462 -0.9431
  272MOL0     H36674   7.631   1.794   4.081  0.0808 -0.6177 -1.5407
  272MOL0     H36675   7.468   1.813   4.007 -0.5075  1.4199 -0.2795
  272MOL0     H36676   7.547   2.051   3.927 -1.9033  0.4340  0.4793
  272MOL0     H36677   7.670   2.034   4.053 -0.3944 -0.4059  0.6327
  272MOL0     H36678   7.484   2.045   4.225  2.4592  0.2103 -0.5480
  272MOL0     H36679   7.376   1.991   4.109  0.2769  0.1765  1.5318
  272MOL0     H36680   7.668   2.168   4.237 -1.3243 -0.5165  2.1217
  272MOL0     H36681   7.870   2.364   4.385 -0.8749  0.6668 -0.9323
  272MOL0     H36682   7.843   2.198   4.310 -1.8689 -0.7268 -0.6273
  272MOL0     H36683   7.947   2.325   4.241 -0.8199  1.0388 -0.3813
  272MOL0     H36684   7.881   2.660   3.982  5.2245 -1.8963  2.6752
  272MOL0     H36685   8.008   2.821   3.837 -1.1170 -0.3786 -0.8163
  272MOL0     H36686   7.829   3.184   3.806  0.3889 -1.0387  3.8468
  272MOL0     H36687   7.970   3.267   3.877  2.2762 -0.4467 -0.5862
  272MOL0     H36688   7.941   3.330   3.638  1.8237  0.5377  0.2582
  272MOL0     H36689   8.103   3.267   3.671 -0.5137  3.1895  4.4019
  272MOL0     H36690   7.871   3.127   3.525  0.0283  0.1588 -1.4725
  272MOL0     H36691   8.008   3.038   3.585  1.0931  1.1447  1.9255
  272MOL0     H36692   8.030   3.299   3.404  2.7374  0.4368 -1.9291
  272MOL0     H36693   8.159   3.195   3.438 -0.2624 -0.0028  1.0617
  272MOL0     H36694   7.910   3.085   3.287 -1.0449 -1.6027  1.6819
  272MOL0     H36695   8.060   3.004   3.328 -1.5587  0.0665  0.9527
  272MOL0     H36696   8.016   3.240   3.127 -1.0221 -1.0707 -0.0786
  272MOL0     H36697   8.179   3.188   3.179  0.7869  0.4850 -1.9053
  272MOL0     H36698   7.964   3.044   3.011 -0.7646  0.4751  0.7504
  272MOL0     H36699   8.082   2.950   3.107  2.5367 -0.4437 -0.5854
  272MOL0     H36700   8.161   3.171   2.916 -0.8381 -0.3660 -2.4636
  272MOL0     H36701   8.133   3.002   2.865 -1.2404  0.4013  0.2976
  272MOL0     H36702   7.865   3.149   4.081  1.8074  0.6995 -0.3261
  272MOL0     H36703   7.770   2.990   4.233 -2.3788 -1.6002 -1.5973
  272MOL0     H36704   7.576   2.629   4.080  0.9968 -0.7494 -2.2670
  272MOL0     H36705   7.418   2.437   4.021  0.0845  0.9358  2.2945
  272MOL0     H36706   7.225   0.585   3.364 -0.6000  0.4962  0.7873
  272MOL0     H36707   7.265   0.617   3.141  0.6211 -2.1924  0.7572
  272MOL0     H36708   7.719   0.690   2.794 -1.9500 -1.7705 -0.5390
  272MOL0     H36709   7.745   0.720   2.556  0.4163 -0.9732  1.2641
  272MOL0     H36710   7.479   0.866   2.223 -1.6588 -1.1911  0.5629
  272MOL0     H36711   7.387   0.940   2.357 -0.0233  1.7736 -1.1527
  272MOL0     H36712   7.656   1.031   2.241  3.1327 -1.7439  2.7011
  272MOL0     H36713   7.601   1.109   2.389 -0.3009  1.3637 -0.6134
  272MOL0     H36714   7.373   1.161   2.270 -0.8594 -0.9798 -3.3641
  272MOL0     H36715   7.436   1.101   2.131 -1.3260  0.8731  0.0688
  272MOL0     H36716   7.637   1.277   2.157  0.9125  1.2939  3.0979
  272MOL0     H36717   7.551   1.331   2.300  0.5341  2.0958  0.0755
  272MOL0     H36718   7.347   1.540   1.995  0.0100  0.3654  1.9572
  272MOL0     H36719   7.403   0.972   2.546  0.5671 -0.7986 -2.3380
  272MOL0     H36720   7.371   0.930   2.797 -1.0957  2.3104 -2.7169
  273MOL0     O36721   5.043  10.580   5.588  0.7520  0.2455  0.0257
  273MOL0     C36722   5.142  10.607   5.654 -0.5428 -0.0230  0.4795
  273MOL0     O36723   5.207  10.731   5.645 -1.2161  0.3330 -0.3878
  273MOL0     C36724   5.145  10.830   5.573  0.0799 -0.2069 -0.3304
  273MOL0     C36725   5.012  10.870   5.588 -0.2266 -0.5515 -0.5188
  273MOL0     C36726   4.960  10.982   5.515 -0.4585 -0.2729  0.2610
  273MOL0     C36727   5.045  11.052   5.425  0.1850  0.4068 -0.3546
  273MOL0     O36728   5.012  11.168   5.366 -0.2932 -0.2502  0.2750
  273MOL0     C36729   4.875  11.183   5.332  0.1473  0.1335  0.3792
  273MOL0     C36730   4.809  11.083   5.248  0.6594  0.0050  0.5747
  273MOL0     C36731   4.659  11.106   5.203  0.4481  1.4698 -0.0118
  273MOL0     C36732   4.594  10.992   5.113  0.6486  0.7908 -1.5176
  273MOL0     C36733   4.672  10.936   4.998  0.0405  0.5294  1.2462
  273MOL0     C36734   4.600  10.831   4.906 -0.8938  0.9640 -0.5105
  273MOL0     C36735   4.691  10.766   4.805 -0.3897  0.4547  0.1634
  273MOL0     C36736   4.615  10.698   4.694 -0.1372  0.9447 -0.6214
  273MOL0     N36737   4.679  10.583   4.623 -0.4412  1.0899  0.6118
  273MOL0     C36738   4.796  10.521   4.659  0.8423 -0.8916  1.0156
  273MOL0     C36739   4.811  10.438   4.554 -0.3836 -0.3662 -0.3924
  273MOL0     C36740   4.918  10.334   4.534 -0.1442 -0.7258  0.5044
  273MOL0     C36741   4.936  10.261   4.663 -0.6586 -0.4223 -1.2079
  273MOL0     C36742   5.053  10.161   4.662 -0.5716 -0.4805 -1.1662
  273MOL0     C36743   5.044  10.066   4.783 -0.1548  0.6974  0.5053
  273MOL0     O36744   5.123   9.942   4.767 -0.1200 -0.3683 -0.5320
  273MOL0     C36745   5.141   9.882   4.887  0.4212  0.2295 -0.6531
  273MOL0     C36746   5.043   9.877   4.990 -0.1819  0.1188 -0.3799
  273MOL0     C36747   5.083   9.811   5.109  0.3790  1.2497  0.2066
  273MOL0     C36748   4.991   9.845   5.225  0.9721 -0.2389  0.7418
  273MOL0     C36749   5.195   9.733   5.115  0.4989  0.0085  0.1175
  273MOL0     C36750   5.233   9.661   5.240  0.2419  0.5187 -0.2015
  273MOL0     O36751   5.363   9.613   5.251 -0.3624  0.0475  0.6999
  273MOL0     C36752   5.385   9.556   5.373 -0.1634 -0.2093 -0.1233
  273MOL0     C36753   5.375   9.416   5.379  0.1634 -0.6500 -0.7324
  273MOL0     C36754   5.400   9.352   5.496 -0.8073 -0.3656  0.1741
  273MOL0     C36755   5.448   9.423   5.609  0.8174  0.6446 -0.9487
  273MOL0     O36756   5.470   9.367   5.735  0.6323  0.3812 -0.3454
  273MOL0     C36757   5.475   9.227   5.752  0.7126 -0.1827 -0.1763
  273MOL0     C36758   5.480   9.204   5.901  0.2993 -0.9208  0.6543
  273MOL0     C36759   5.487   9.063   5.938  0.2082 -0.0548 -0.4491
  273MOL0     C36760   5.482   9.041   6.096 -0.4786  0.5455  0.7531
  273MOL0     C36761   5.355   9.082   6.173  0.0372  0.6189  0.8142
  273MOL0     C36762   5.357   9.020   6.310 -0.6806 -0.2127 -0.0404
  273MOL0     C36763   5.238   9.076   6.397  0.5996  1.1290 -0.6417
  273MOL0     C36764   5.136   8.960   6.430  0.3199 -0.1148 -0.3540
  273MOL0    Cl36765   5.003   9.041   6.528  0.1767 -0.1639  0.3263
  273MOL0     C36766   5.464   9.562   5.593 -0.2126 -0.7135 -0.0635
  273MOL0     C36767   5.451   9.623   5.470  0.3681 -0.2743 -0.3624
  273MOL0     O36768   5.145   9.638   5.326 -0.2227 -0.1467 -0.6164
  273MOL0     C36769   5.283   9.735   5.003  0.3088 -0.9703 -0.2362
  273MOL0     C36770   5.262   9.817   4.893  0.8484  0.2434 -0.2901
  273MOL0     N36771   4.716  10.439   4.465  0.4756 -0.8229  1.0876
  273MOL0     N36772   4.635  10.529   4.509  1.2466  0.9549  0.7577
  273MOL0     C36773   5.169  11.000   5.399 -0.1290  0.1501 -0.1482
  273MOL0     C36774   5.228  10.901   5.480  0.0331 -0.1222 -0.0451
  273MOL0     C36775   5.205  10.503   5.726 -0.9411 -0.4938  0.7715
  273MOL0     C36776   5.184  10.370   5.697 -0.3689  0.5216 -0.3088
  273MOL0     C36777   5.254  10.263   5.753 -0.3753  0.0608 -0.6092
  273MOL0     C36778   5.339  10.289   5.872  0.8798 -0.1300 -0.0953
  273MOL0     O36779   5.404  10.205   5.962 -0.1978  0.1766  0.4177
  273MOL0     C36780   5.438  10.063   5.942  0.2711 -0.0414  0.7878
  273MOL0     C36781   5.579  10.065   5.879 -0.0512  0.5125  0.1564
  273MOL0     C36782   5.575   9.951   5.764 -0.6805 -0.8873 -0.0909
  273MOL0     C36783   5.691   9.987   5.673  0.3538  0.0696  0.2629
  273MOL0     C36784   5.722   9.890   5.568  0.4695  0.4333  0.0930
  273MOL0     C36785   5.746   9.811   5.482 -0.1136  0.4506  0.6516
  273MOL0     C36786   5.352  10.425   5.915 -1.5134 -0.1934 -0.4139
  273MOL0     C36787   5.294  10.527   5.840  0.4177  0.6478  0.3457
  273MOL0     H36788   4.946  10.805   5.644  0.2985 -1.2393 -0.6921
  273MOL0     H36789   4.857  11.010   5.534 -1.9379 -2.4369 -3.4988
  273MOL0     H36790   4.804  11.198   5.414 -1.1945 -2.8444 -0.0979
  273MOL0     H36791   4.858  11.274   5.274 -1.8268 -0.2509  0.2941
  273MOL0     H36792   4.866  11.076   5.155 -0.2054 -0.8605  0.0885
  273MOL0     H36793   4.813  10.982   5.290  1.2627 -0.8596 -1.4425
  273MOL0     H36794   4.605  11.117   5.298  2.1292  1.1964  1.0166
  273MOL0     H36795   4.650  11.196   5.141  1.1629  0.9618 -0.8776
  273MOL0     H36796   4.558  10.909   5.174 -0.6780  1.2372 -1.6634
  273MOL0     H36797   4.497  11.026   5.075 -0.1807  1.0074  0.6658
  273MOL0     H36798   4.684  11.026   4.937  1.6239  0.0266  0.7484
  273MOL0     H36799   4.766  10.894   5.035  0.4413  0.8837  0.6460
  273MOL0     H36800   4.552  10.750   4.961 -0.4041  0.4699 -0.8042
  273MOL0     H36801   4.523  10.891   4.857  0.6506  0.3084 -3.9793
  273MOL0     H36802   4.760  10.842   4.769  1.3740 -0.3746  1.6265
  273MOL0     H36803   4.751  10.685   4.848 -0.6539 -0.5959 -1.3650
  273MOL0     H36804   4.602  10.782   4.626  0.0710 -1.2704 -3.5994
  273MOL0     H36805   4.512  10.672   4.721 -0.4746 -0.5784 -3.0974
  273MOL0     H36806   4.851  10.539   4.751  1.9117  0.8624  0.1068
  273MOL0     H36807   4.869  10.271   4.459 -0.8100  4.1655 -3.6781
  273MOL0     H36808   5.010  10.380   4.495 -0.8283 -0.2425 -0.5764
  273MOL0     H36809   4.844  10.219   4.703 -1.0515  2.3619  1.0726
  273MOL0     H36810   4.960  10.333   4.742 -3.2898 -0.7424 -0.0224
  273MOL0     H36811   5.142  10.222   4.680 -1.0741 -0.3615  1.3827
  273MOL0     H36812   5.060  10.099   4.573  1.8118  0.9335 -2.0684
  273MOL0     H36813   4.941  10.037   4.807 -0.2119  0.9599  0.5809
  273MOL0     H36814   5.081  10.127   4.866 -2.6632  1.9709  0.7690
  273MOL0     H36815   4.942   9.914   4.979 -0.1319 -0.1197 -1.8161
  273MOL0     H36816   4.928   9.761   5.256 -1.8227  2.0838  1.8114
  273MOL0     H36817   5.047   9.888   5.308  3.2784 -1.9363  0.1618
  273MOL0     H36818   4.915   9.909   5.179  1.9567 -1.2386 -2.5629
  273MOL0     H36819   5.340   9.362   5.292  1.9076  0.2810 -2.0806
  273MOL0     H36820   5.389   9.245   5.507 -0.0158 -0.1655  4.4437
  273MOL0     H36821   5.391   9.179   5.701 -1.3055 -0.0457  2.8155
  273MOL0     H36822   5.570   9.202   5.702  0.7892  0.6269 -0.4498
  273MOL0     H36823   5.570   9.252   5.941 -0.3142 -0.4079  1.4573
  273MOL0     H36824   5.390   9.258   5.933 -1.5042 -1.7346 -2.6375
  273MOL0     H36825   5.572   9.016   5.889  0.9738 -0.3763  1.1141
  273MOL0     H36826   5.391   9.019   5.906 -1.2500  2.1513  0.6326
  273MOL0     H36827   5.498   8.937   6.127 -0.8943  0.6089  1.1731
  273MOL0     H36828   5.570   9.090   6.139  0.7237 -0.4346 -0.4457
  273MOL0     H36829   5.266   9.049   6.119 -0.2381  2.5162  0.0256
  273MOL0     H36830   5.347   9.191   6.179 -3.9326  0.4376  0.7951
  273MOL0     H36831   5.362   8.911   6.301 -0.1147 -0.1221 -0.9724
  273MOL0     H36832   5.454   9.036   6.359  0.4866  4.1348 -3.2505
  273MOL0     H36833   5.182   9.151   6.340 -1.0943 -0.8139 -1.6903
  273MOL0     H36834   5.276   9.119   6.490 -1.0685  1.4406 -0.0690
  273MOL0     H36835   5.180   8.877   6.486  2.8522  0.9933 -0.5641
  273MOL0     H36836   5.098   8.921   6.335 -0.7876 -0.2392  0.1241
  273MOL0     H36837   5.498   9.616   5.681  0.3759 -3.6983  1.6791
  273MOL0     H36838   5.493   9.721   5.449  0.7779 -0.1909  0.7574
  273MOL0     H36839   5.375   9.678   5.000  1.8067  1.2958 -0.4765
  273MOL0     H36840   5.341   9.815   4.819  0.0597  0.8968 -1.1666
  273MOL0     H36841   5.222  11.059   5.325 -1.9644  1.2015 -0.7003
  273MOL0     H36842   5.330  10.875   5.456 -0.0895 -1.5560  0.8844
  273MOL0     H36843   5.103  10.342   5.630 -0.5685  0.0456  0.1208
  273MOL0     H36844   5.242  10.158   5.729 -0.1325 -0.1479  0.1667
  273MOL0     H36845   5.448  10.016   6.040  1.2582  2.9910  2.2734
  273MOL0     H36846   5.362  10.017   5.878  2.8712 -1.7450 -1.3073
  273MOL0     H36847   5.641  10.023   5.959 -1.6573 -1.2819  0.5549
  273MOL0     H36848   5.602  10.166   5.844  2.2442 -0.1403 -0.3644
  273MOL0     H36849   5.478   9.946   5.713 -0.5795 -0.7178 -0.3000
  273MOL0     H36850   5.604   9.858   5.815  0.0737 -0.5815  0.0541
  273MOL0     H36851   5.780  10.014   5.730 -0.6337 -0.9659  2.4172
  273MOL0     H36852   5.667  10.079   5.619  0.0661 -0.7384 -1.0098
  273MOL0     H36853   5.782   9.748   5.403  0.4920  1.0511  0.4401
  273MOL0     H36854   5.407  10.440   6.007 -0.5180 -1.9689 -0.6950
  273MOL0     H36855   5.325  10.628   5.864 -0.6692  0.2544  4.0444
  274MOL0     O36856   4.861   9.373   4.290 -0.8363  0.2558 -0.4196
  274MOL0     C36857   4.782   9.413   4.200 -0.6697  0.8684 -0.0060
  274MOL0     O36858   4.664   9.359   4.174 -0.5583  0.3385 -0.2295
  274MOL0     C36859   4.629   9.254   4.250  0.3405 -0.5574 -1.2614
  274MOL0     C36860   4.539   9.278   4.359 -0.0198  0.2756  0.2569
  274MOL0     C36861   4.491   9.157   4.417 -0.0569  0.2080  0.4914
  274MOL0     C36862   4.537   9.029   4.374 -0.1150  0.7558 -0.6014
  274MOL0     O36863   4.493   8.909   4.425  0.3587  0.1385 -0.2670
  274MOL0     C36864   4.367   8.883   4.489 -0.3504  0.3763  0.2655
  274MOL0     C36865   4.328   8.945   4.623 -0.5235 -0.5024 -0.9923
  274MOL0     C36866   4.412   8.894   4.736 -0.8294 -0.2950 -0.5725
  274MOL0     C36867   4.395   8.745   4.769 -0.2981  0.0165  0.6396
  274MOL0     C36868   4.514   8.700   4.857 -0.5779  0.1280 -0.2105
  274MOL0     C36869   4.526   8.548   4.889 -0.1524  0.1318 -0.6187
  274MOL0     C36870   4.642   8.492   4.806 -0.4622  0.2121  0.5432
  274MOL0     C36871   4.598   8.462   4.657  0.1610 -0.0435 -0.9480
  274MOL0     N36872   4.710   8.434   4.572  0.2678 -0.0243  0.1815
  274MOL0     C36873   4.806   8.332   4.593  0.0591  0.2132  0.2316
  274MOL0     C36874   4.888   8.332   4.478 -0.4160  0.3191 -0.1489
  274MOL0     C36875   5.000   8.231   4.452 -0.2941 -0.0323 -0.7484
  274MOL0     C36876   5.010   8.156   4.313  0.7297 -1.0116 -0.3132
  274MOL0     C36877   5.093   8.034   4.315 -0.0341 -0.7751 -0.0295
  274MOL0     C36878   5.060   7.938   4.201  1.1780  0.2478 -0.3526
  274MOL0     O36879   5.083   7.995   4.070  1.2673  0.0704 -0.0681
  274MOL0     C36880   5.038   7.928   3.957  0.5209 -0.3666  0.1774
  274MOL0     C36881   5.041   7.789   3.942  0.0232 -0.3560  0.2681
  274MOL0     C36882   5.007   7.736   3.815  0.0072  0.6354 -0.1701
  274MOL0     C36883   5.033   7.584   3.795  0.3455 -0.0473  0.5813
  274MOL0     C36884   4.951   7.807   3.717 -0.8130  0.4237  0.6452
  274MOL0     C36885   4.905   7.756   3.583  0.1213 -0.0403 -0.6680
  274MOL0     O36886   4.799   7.823   3.531  0.0761 -0.4764 -0.1272
  274MOL0     C36887   4.760   7.781   3.402 -1.4503  0.4185  0.6612
  274MOL0     C36888   4.682   7.661   3.376 -0.6518  0.2039 -0.2632
  274MOL0     C36889   4.654   7.620   3.252  0.4827  0.2886  0.5691
  274MOL0     C36890   4.692   7.706   3.144  0.5723  0.8078  0.2629
  274MOL0     O36891   4.653   7.653   3.025  0.6892  0.5274  0.7989
  274MOL0     C36892   4.656   7.742   2.915  0.7207 -0.1328  0.1751
  274MOL0     C36893   4.597   7.665   2.784  1.3077  0.2368  0.3008
  274MOL0     C36894   4.710   7.602   2.694 -0.3409 -0.7905 -0.0235
  274MOL0     C36895   4.634   7.539   2.569 -1.1983 -0.3330 -0.0406
  274MOL0     C36896   4.747   7.501   2.472  1.2445  0.0586 -0.0164
  274MOL0     C36897   4.799   7.622   2.378  0.4361  0.3532 -0.1069
  274MOL0     C36898   4.935   7.614   2.312 -0.2043 -0.0548  0.3411
  274MOL0     C36899   5.041   7.594   2.419  0.6718  0.0299 -0.5668
  274MOL0    Cl36900   5.077   7.420   2.459  0.4836  0.3505  0.8588
  274MOL0     C36901   4.752   7.828   3.167  0.2584 -0.2447  0.5800
  274MOL0     C36902   4.796   7.864   3.292  0.0408  0.5268 -0.6006
  274MOL0     O36903   4.965   7.665   3.531  0.1353  0.3314  0.4927
  274MOL0     C36904   4.945   7.946   3.738  0.9092 -0.1451 -0.3445
  274MOL0     C36905   4.997   8.006   3.850 -0.1564  0.7337  0.6358
  274MOL0     N36906   4.832   8.423   4.392  0.6060  0.7868 -0.5153
  274MOL0     N36907   4.731   8.489   4.451 -0.7117 -0.6701  0.8351
  274MOL0     C36908   4.634   9.021   4.275  0.5425  0.6045 -0.1547
  274MOL0     C36909   4.675   9.132   4.211  0.3106 -0.0618  0.0131
  274MOL0     C36910   4.811   9.533   4.130 -0.1651  0.3011  0.3970
  274MOL0     C36911   4.918   9.615   4.178 -1.6086 -0.3711  0.7215
  274MOL0     C36912   4.961   9.737   4.110 -0.1415  0.0131 -0.3481
  274MOL0     C36913   4.876   9.783   4.003  0.1632  0.4230 -0.4702
  274MOL0     O36914   4.894   9.889   3.929 -0.2750  0.5669  0.1086
  274MOL0     C36915   4.906  10.023   3.993 -0.1116  0.2645 -0.8040
  274MOL0     C36916   4.774  10.081   4.059  0.0248  0.6650  0.1532
  274MOL0     C36917   4.771  10.235   4.066  0.1917 -0.4297 -0.6197
  274MOL0     C36918   4.633  10.292   4.085 -0.3221 -0.6257 -0.4353
  274MOL0     C36919   4.552  10.292   3.966  0.1331  0.5333  1.3596
  274MOL0     C36920   4.464  10.277   3.874 -0.9472  1.7276 -0.1945
  274MOL0     C36921   4.760   9.714   3.968  0.1654  0.5630  0.6505
  274MOL0     C36922   4.731   9.591   4.030  0.3673 -0.6187 -0.1537
  274MOL0     H36923   4.508   9.371   4.404 -2.0515 -1.9223  3.9048
  274MOL0     H36924   4.416   9.183   4.492 -1.2437 -1.5924  0.0074
  274MOL0     H36925   4.288   8.918   4.421 -0.5798 -0.5924  0.0207
  274MOL0     H36926   4.353   8.775   4.493  0.6207  0.2516  4.4710
  274MOL0     H36927   4.335   9.054   4.616 -3.3718 -0.2155 -0.8244
  274MOL0     H36928   4.221   8.926   4.638 -1.0407  0.5193 -3.0396
  274MOL0     H36929   4.516   8.925   4.723 -1.7490  2.2116 -3.1234
  274MOL0     H36930   4.372   8.947   4.824 -3.7540 -0.6092 -1.6067
  274MOL0     H36931   4.297   8.745   4.818 -2.4728  3.8872 -3.0973
  274MOL0     H36932   4.384   8.681   4.681 -0.8477  0.7026  0.2047
  274MOL0     H36933   4.595   8.738   4.794 -0.6926  0.8187  0.0489
  274MOL0     H36934   4.521   8.755   4.952  2.6259 -2.3425  1.1776
  274MOL0     H36935   4.548   8.532   4.995 -1.0734 -0.2835 -0.4864
  274MOL0     H36936   4.442   8.484   4.863  1.2570 -1.6214 -1.0495
  274MOL0     H36937   4.726   8.563   4.807 -0.5273  0.2883  1.6185
  274MOL0     H36938   4.690   8.407   4.855  1.9789  2.1359  1.7305
  274MOL0     H36939   4.530   8.540   4.621 -0.6585  0.4167  1.4375
  274MOL0     H36940   4.535   8.373   4.670  1.4022 -0.6798  1.2409
  274MOL0     H36941   4.837   8.279   4.683  2.1152  0.6504 -0.1716
  274MOL0     H36942   5.099   8.275   4.471 -0.6704 -0.3442  2.4666
  274MOL0     H36943   4.984   8.155   4.529  1.4862  1.1361  0.8717
  274MOL0     H36944   5.050   8.235   4.249  2.3136 -0.9771  0.6698
  274MOL0     H36945   4.911   8.116   4.287 -1.1947  1.7392  2.1638
  274MOL0     H36946   5.088   7.990   4.415  1.8418  2.9182  1.9068
  274MOL0     H36947   5.198   8.062   4.311 -0.2123 -0.1479 -0.8255
  274MOL0     H36948   4.954   7.917   4.217  0.7984  1.9785 -0.4816
  274MOL0     H36949   5.130   7.854   4.199  0.6881 -0.1775  0.0460
  274MOL0     H36950   5.083   7.747   4.033 -1.1462  1.6755  1.8236
  274MOL0     H36951   5.046   7.531   3.890 -1.4762 -2.2271 -0.2982
  274MOL0     H36952   4.963   7.517   3.744  0.7148  0.4420 -0.5957
  274MOL0     H36953   5.132   7.582   3.749 -0.0665  0.5832 -0.3784
  274MOL0     H36954   4.642   7.609   3.464  0.1012  0.7134  0.3885
  274MOL0     H36955   4.612   7.523   3.229  3.5665 -1.7396  2.6893
  274MOL0     H36956   4.590   7.826   2.937  0.1585 -1.0732  2.2770
  274MOL0     H36957   4.755   7.785   2.895  0.1364  2.6346  2.5472
  274MOL0     H36958   4.515   7.599   2.812  0.1082  1.7245  0.3717
  274MOL0     H36959   4.552   7.747   2.728  1.4429 -1.6501 -2.8618
  274MOL0     H36960   4.775   7.535   2.750  0.9757  0.6011  0.1731
  274MOL0     H36961   4.766   7.689   2.659 -1.5191 -0.5080 -1.3253
  274MOL0     H36962   4.581   7.446   2.592  0.2725 -1.2281 -0.0918
  274MOL0     H36963   4.563   7.610   2.527 -1.3186 -0.3177  0.1889
  274MOL0     H36964   4.700   7.419   2.418 -2.1314  1.0712  1.1543
  274MOL0     H36965   4.833   7.450   2.517 -0.5341 -0.3752  3.1892
  274MOL0     H36966   4.732   7.642   2.295  1.1017 -1.7492 -1.2218
  274MOL0     H36967   4.801   7.717   2.433 -0.8661  1.3966 -1.7731
  274MOL0     H36968   4.951   7.699   2.245 -1.5045 -0.0535 -0.0001
  274MOL0     H36969   4.938   7.532   2.239 -2.8944  1.3054 -1.4787
  274MOL0     H36970   5.014   7.647   2.511  3.9107 -0.5953  0.8918
  274MOL0     H36971   5.135   7.635   2.380  0.8685  1.1681  1.0298
  274MOL0     H36972   4.780   7.891   3.084 -0.4071 -0.8868 -0.1452
  274MOL0     H36973   4.850   7.958   3.297 -0.3448  0.7325 -0.1899
  274MOL0     H36974   4.887   8.001   3.664  1.1528 -0.9468 -1.1518
  274MOL0     H36975   4.998   8.114   3.857 -3.6219  0.8146  2.0621
  274MOL0     H36976   4.670   8.920   4.254 -1.9644 -0.3528 -0.2224
  274MOL0     H36977   4.749   9.105   4.137  0.8192 -1.2117  0.9086
  274MOL0     H36978   4.977   9.584   4.263  0.0563  1.9375  0.5127
  274MOL0     H36979   5.052   9.789   4.138 -0.6652 -0.2401  1.9572
  274MOL0     H36980   4.977  10.018   4.076 -0.9561 -1.7837 -0.1278
  274MOL0     H36981   4.963  10.094   3.933  0.6293 -0.7511 -1.3537
  274MOL0     H36982   4.768  10.037   4.159 -1.8134  0.2981 -0.0774
  274MOL0     H36983   4.683  10.047   4.008 -0.2579  1.2290  0.2823
  274MOL0     H36984   4.811  10.277   3.974  2.9186  0.4991  0.8658
  274MOL0     H36985   4.842  10.266   4.143 -0.0623 -1.3960  0.0197
  274MOL0     H36986   4.639  10.397   4.115 -1.2409 -1.3260  2.5309
  274MOL0     H36987   4.570  10.234   4.154 -2.5217  1.5598 -0.4898
  274MOL0     H36988   4.388  10.256   3.802 -1.3367 -2.2734  1.1203
  274MOL0     H36989   4.690   9.754   3.896  1.2521  1.2664 -0.0463
  274MOL0     H36990   4.635   9.546   4.007 -1.9515  2.9808  1.5671
  275MOL0     O36991   4.386   1.388   9.107 -0.0762 -0.4229  0.1827
  275MOL0     C36992   4.285   1.432   9.164  0.5620 -0.7845 -0.6101
  275MOL0     O36993   4.286   1.519   9.267 -1.3087 -0.2379 -0.2583
  275MOL0     C36994   4.412   1.543   9.333  0.6640  0.0725  0.3967
  275MOL0     C36995   4.506   1.449   9.378  0.6429  0.2364 -0.6054
  275MOL0     C36996   4.627   1.486   9.439 -0.2387 -0.2768 -0.3807
  275MOL0     C36997   4.671   1.616   9.452  0.2653 -0.1278  0.6349
  275MOL0     O36998   4.787   1.662   9.517  0.2936  1.0408 -0.6946
  275MOL0     C36999   4.872   1.568   9.587  0.0667  0.6834  1.1199
  275MOL0     C37000   4.938   1.637   9.691 -0.7258 -0.6329 -1.6625
  275MOL0     C37001   4.856   1.719   9.796  0.1135 -0.1447  0.2977
  275MOL0     C37002   4.934   1.796   9.905 -0.8266 -0.1196  0.4988
  275MOL0     C37003   4.845   1.846  10.013  0.3885 -0.6630 -0.9927
  275MOL0     C37004   4.794   1.988  10.002  0.1838  0.4790 -0.7990
  275MOL0     C37005   4.718   2.046  10.125 -0.2623 -0.5036 -0.4341
  275MOL0     C37006   4.757   2.028  10.271  0.0323 -0.4969  0.5372
  275MOL0     N37007   4.876   2.108  10.309  0.8304  1.1973 -0.1614
  275MOL0     C37008   4.881   2.240  10.351  0.3418 -0.2219  0.7620
  275MOL0     C37009   5.006   2.271  10.361 -0.7182 -0.2117  0.3187
  275MOL0     C37010   5.056   2.410  10.388  0.0835  0.1669  0.0801
  275MOL0     C37011   5.145   2.433  10.509 -0.0266 -0.9955  0.5731
  275MOL0     C37012   5.080   2.427  10.644 -0.0429  0.4670 -0.6776
  275MOL0     C37013   5.173   2.420  10.764 -0.0482 -0.4297  0.2563
  275MOL0     O37014   5.252   2.531  10.769 -0.4859  0.1882 -1.1953
  275MOL0     C37015   5.351   2.523  10.860  0.3808  0.6371  0.0820
  275MOL0     C37016   5.333   2.526  10.994 -0.0957 -0.1994  0.6628
  275MOL0     C37017   5.448   2.517  11.079 -0.1925 -0.8597  0.0921
  275MOL0     C37018   5.416   2.525  11.230  0.3341  0.7726  0.6836
  275MOL0     C37019   5.577   2.496  11.028  0.0218  0.7853  1.3227
  275MOL0     C37020   5.686   2.455  11.110 -0.7313 -0.3190  0.3853
  275MOL0     O37021   5.814   2.503  11.079 -0.7965 -0.3338 -0.0015
  275MOL0     C37022   5.923   2.461  11.154  0.4470  0.6616  0.2671
  275MOL0     C37023   6.019   2.376  11.103 -0.5558  0.7291  0.5267
  275MOL0     C37024   6.125   2.320  11.193 -0.4030  0.4892 -0.3498
  275MOL0     C37025   6.135   2.370  11.324 -0.5099 -0.5587  0.1460
  275MOL0     O37026   6.246   2.336  11.392  0.2390 -0.0814 -0.1044
  275MOL0     C37027   6.229   2.268  11.517  0.5322  0.1397 -0.6042
  275MOL0     C37028   6.360   2.226  11.571 -0.2847 -0.5997 -0.0771
  275MOL0     C37029   6.428   2.330  11.654 -0.2405 -0.6608 -0.1670
  275MOL0     C37030   6.422   2.477  11.598  0.6059 -0.9296 -0.4726
  275MOL0     C37031   6.521   2.510  11.485 -0.0269  0.5750 -0.1732
  275MOL0     C37032   6.668   2.467  11.521 -0.0936 -0.3378  0.6740
  275MOL0     C37033   6.748   2.501  11.394  0.1148 -0.7268  0.2494
  275MOL0     C37034   6.888   2.566  11.418  1.2854  0.6279 -0.0855
  275MOL0    Cl37035   6.987   2.442  11.475 -0.6286 -0.2971 -0.1322
  275MOL0     C37036   6.049   2.468  11.371  0.1510 -0.2984 -0.2174
  275MOL0     C37037   5.943   2.504  11.289 -0.7789 -0.2288  0.3991
  275MOL0     O37038   5.663   2.360  11.188 -0.3184 -0.1680  0.3682
  275MOL0     C37039   5.592   2.494  10.890 -0.3341 -0.2643  0.6875
  275MOL0     C37040   5.478   2.505  10.802 -0.3466  0.3391 -0.4900
  275MOL0     N37041   5.075   2.158  10.329  0.5022 -1.0548  0.1162
  275MOL0     N37042   5.003   2.055  10.306 -0.2674  0.5690  0.6651
  275MOL0     C37043   4.586   1.714   9.405  0.7732  0.4181  1.0520
  275MOL0     C37044   4.450   1.677   9.352 -1.1197 -0.7444 -0.5000
  275MOL0     C37045   4.149   1.404   9.106 -0.0465  0.2216 -0.6039
  275MOL0     C37046   4.034   1.363   9.180  0.2297 -0.8942 -0.2178
  275MOL0     C37047   3.913   1.319   9.135 -0.1881  0.3898  0.1129
  275MOL0     C37048   3.894   1.331   9.001 -0.0954  0.4303 -0.9927
  275MOL0     O37049   3.775   1.295   8.954 -0.3796 -0.1969  0.4912
  275MOL0     C37050   3.698   1.411   8.902 -0.1294 -0.7691  0.1455
  275MOL0     C37051   3.592   1.357   8.819 -0.3538  0.0412  0.6353
  275MOL0     C37052   3.480   1.279   8.900 -0.3575 -0.1546 -1.0798
  275MOL0     C37053   3.362   1.240   8.805 -0.4357  0.1359  0.1378
  275MOL0     C37054   3.402   1.139   8.691 -0.2847  0.5585  0.1044
  275MOL0     C37055   3.431   1.072   8.592  0.4197 -1.0855  0.0651
  275MOL0     C37056   3.999   1.376   8.915  1.0852  0.4101  0.3105
  275MOL0     C37057   4.123   1.407   8.970 -0.3534 -0.1270 -0.5920
  275MOL0     H37058   4.483   1.343   9.374  1.7511 -0.0428 -0.0123
  275MOL0     H37059   4.694   1.402   9.459  1.6681  1.1100 -0.6863
  275MOL0     H37060   4.826   1.478   9.629  4.1487 -2.6110 -0.7313
  275MOL0     H37061   4.944   1.523   9.518 -2.6598 -2.0693 -0.2041
  275MOL0     H37062   4.990   1.563   9.753 -2.2379  1.3302  2.2785
  275MOL0     H37063   5.015   1.695   9.640 -0.9053 -0.6546 -1.9600
  275MOL0     H37064   4.792   1.787   9.739  0.6441  1.2880  1.3626
  275MOL0     H37065   4.797   1.639   9.842  2.8198 -1.4316  1.8367
  275MOL0     H37066   4.993   1.711   9.941  0.8150  0.2141 -1.2231
  275MOL0     H37067   4.999   1.872   9.862  2.0347 -2.1899  0.8593
  275MOL0     H37068   4.759   1.782  10.032 -0.3125  0.8323  1.3763
  275MOL0     H37069   4.890   1.849  10.113 -1.1464  0.2642 -0.2926
  275MOL0     H37070   4.883   2.049   9.987  1.8985 -0.7053  3.3113
  275MOL0     H37071   4.731   1.995   9.912  1.7377  3.5058 -1.7855
  275MOL0     H37072   4.709   2.153  10.109 -3.1851 -0.6694 -0.3217
  275MOL0     H37073   4.622   1.993  10.120  0.2868 -2.0877  2.8881
  275MOL0     H37074   4.779   1.927  10.308 -1.6169 -1.3259 -0.6404
  275MOL0     H37075   4.673   2.065  10.331 -2.0840  0.0267 -2.5176
  275MOL0     H37076   4.791   2.301  10.355 -0.0105 -0.6818 -0.0113
  275MOL0     H37077   5.108   2.449  10.300  0.3901  2.1224  1.0605
  275MOL0     H37078   4.977   2.484  10.398  0.2396  0.9712 -3.3977
  275MOL0     H37079   5.192   2.531  10.502  0.2669 -1.1733 -0.0701
  275MOL0     H37080   5.221   2.354  10.508 -1.8172 -2.8735 -2.0132
  275MOL0     H37081   5.025   2.332  10.640  2.1008 -0.8136 -1.8158
  275MOL0     H37082   5.017   2.516  10.650  0.1380  0.5786 -0.4388
  275MOL0     H37083   5.230   2.327  10.765  1.5850  0.5309 -0.1038
  275MOL0     H37084   5.107   2.397  10.849  0.2445 -2.3264  0.0190
  275MOL0     H37085   5.232   2.554  11.024  0.3518  3.2814 -0.5478
  275MOL0     H37086   5.311   2.546  11.251 -0.3458  0.0260 -1.6201
  275MOL0     H37087   5.422   2.420  11.261  0.0928  0.5746  0.0770
  275MOL0     H37088   5.475   2.596  11.288 -1.3833  3.0244 -0.1534
  275MOL0     H37089   6.023   2.328  11.006  6.5258 -1.7490  1.4261
  275MOL0     H37090   6.202   2.260  11.146 -0.5828  0.4659 -0.6156
  275MOL0     H37091   6.183   2.344  11.580 -1.0886 -0.7994 -0.5966
  275MOL0     H37092   6.170   2.175  11.515  2.4318 -1.1334  0.0493
  275MOL0     H37093   6.347   2.138  11.635 -1.0608 -0.4024  0.0493
  275MOL0     H37094   6.425   2.199  11.488  2.1852  0.5665  1.3669
  275MOL0     H37095   6.528   2.287  11.668 -1.5908 -3.4718  1.7618
  275MOL0     H37096   6.386   2.333  11.755  4.5085 -0.1790  2.0701
  275MOL0     H37097   6.327   2.513  11.559  1.1973 -1.2102 -2.2351
  275MOL0     H37098   6.450   2.544  11.680  0.0127 -0.4364 -0.6691
  275MOL0     H37099   6.507   2.616  11.459  0.5699  1.1806  1.7598
  275MOL0     H37100   6.490   2.452  11.398  1.9473  0.9790 -1.2235
  275MOL0     H37101   6.691   2.528  11.608  0.4153  0.1329  0.2174
  275MOL0     H37102   6.684   2.362  11.546 -0.6338 -0.0967  2.1001
  275MOL0     H37103   6.687   2.558  11.323 -0.1839 -2.4060 -0.9074
  275MOL0     H37104   6.768   2.408  11.339  0.9433  0.0122 -0.7483
  275MOL0     H37105   6.872   2.643  11.494  1.1151  1.1081 -0.6066
  275MOL0     H37106   6.922   2.625  11.333 -2.2022  1.7323 -0.8857
  275MOL0     H37107   6.075   2.515  11.466 -1.4057 -0.6619  0.4234
  275MOL0     H37108   5.878   2.580  11.330  2.5121  1.4195  2.9641
  275MOL0     H37109   5.690   2.468  10.851 -0.7207  0.3798 -0.7975
  275MOL0     H37110   5.491   2.502  10.694 -0.3180 -2.6375 -0.4862
  275MOL0     H37111   4.614   1.817   9.428 -0.3818  0.9446  0.2157
  275MOL0     H37112   4.381   1.755   9.320  0.9141  0.6386 -1.7392
  275MOL0     H37113   4.059   1.368   9.286  3.7397  2.4341 -0.9746
  275MOL0     H37114   3.828   1.285   9.193  0.8020 -2.8022 -0.1386
  275MOL0     H37115   3.657   1.466   8.987  0.5083 -0.3169  0.1652
  275MOL0     H37116   3.752   1.484   8.842  0.6820 -1.2476  0.2836
  275MOL0     H37117   3.648   1.295   8.747 -1.8421  0.8236 -1.2773
  275MOL0     H37118   3.543   1.438   8.764  1.3437  1.1391  0.6740
  275MOL0     H37119   3.440   1.345   8.977  3.1229  1.0399 -0.1176
  275MOL0     H37120   3.518   1.191   8.953 -2.4969 -1.0503 -0.9470
  275MOL0     H37121   3.316   1.331   8.765 -0.4775  1.2398  2.5324
  275MOL0     H37122   3.287   1.192   8.867 -1.6123  3.6749  1.7186
  275MOL0     H37123   3.469   1.002   8.521  1.6292  0.7008 -1.1336
  275MOL0     H37124   3.979   1.359   8.810 -1.4767  2.2408  0.4087
  275MOL0     H37125   4.208   1.423   8.904 -1.6260 -0.7422 -2.4852
  276MOL0     O37126   1.330   4.444   9.552  1.1138 -0.4247  0.1303
  276MOL0     C37127   1.307   4.454   9.429 -0.0519 -0.4079  0.8357
  276MOL0     O37128   1.262   4.352   9.344 -0.2368  0.1993 -1.0971
  276MOL0     C37129   1.232   4.231   9.396  0.4400  0.4715  0.0528
  276MOL0     C37130   1.329   4.121   9.400  1.1950 -1.3202 -0.1715
  276MOL0     C37131   1.288   4.003   9.461  0.4022  0.0300 -0.1407
  276MOL0     C37132   1.164   3.981   9.520 -0.4949 -0.0895 -0.2708
  276MOL0     O37133   1.124   3.876   9.601 -0.1326 -1.2213 -0.3742
  276MOL0     C37134   1.221   3.771   9.623  0.3734 -0.3637  0.2076
  276MOL0     C37135   1.328   3.827   9.722  0.1649  0.7231  0.9888
  276MOL0     C37136   1.269   3.811   9.857  0.0699 -0.9375  0.5288
  276MOL0     C37137   1.179   3.920   9.912  0.4382 -1.2448 -0.9390
  276MOL0     C37138   1.198   4.064   9.859 -0.2552 -0.4751 -0.5072
  276MOL0     C37139   1.090   4.155   9.914  0.3833  0.6375 -1.3698
  276MOL0     C37140   1.128   4.295   9.851  0.4543  0.5606  0.0918
  276MOL0     C37141   1.056   4.418   9.913 -0.1283  0.6359  0.3085
  276MOL0     N37142   0.910   4.411   9.897  0.5544  1.0363  0.0119
  276MOL0     C37143   0.832   4.365   9.802  1.1776 -0.1065  0.1616
  276MOL0     C37144   0.706   4.398   9.837  0.6678 -0.0460 -0.4696
  276MOL0     C37145   0.580   4.385   9.754  0.0296 -0.9303  0.0388
  276MOL0     C37146   0.619   4.368   9.609  0.2494  0.3398  0.6869
  276MOL0     C37147   0.499   4.345   9.519  0.0616  0.8588 -0.0703
  276MOL0     C37148   0.435   4.207   9.541 -0.6320  0.1958  0.3346
  276MOL0     O37149   0.518   4.095   9.499  0.5168  0.2910  0.2121
  276MOL0     C37150   0.564   4.003   9.584  0.0817 -0.3268 -1.2128
  276MOL0     C37151   0.604   4.027   9.724  0.3414 -0.5245  0.3354
  276MOL0     C37152   0.660   3.932   9.796 -0.1976 -0.8258 -0.4332
  276MOL0     C37153   0.708   3.982   9.930 -0.4330  0.8829 -0.1853
  276MOL0     C37154   0.672   3.809   9.749  0.0691  0.7196  1.2756
  276MOL0     C37155   0.715   3.702   9.829 -0.6361 -0.2180  0.4907
  276MOL0     O37156   0.822   3.627   9.785  0.0895 -0.4576 -0.2443
  276MOL0     C37157   0.887   3.552   9.879  0.5482  0.6778 -0.2169
  276MOL0     C37158   0.895   3.412   9.875  0.5407 -0.2137 -0.2086
  276MOL0     C37159   0.955   3.339   9.982  0.5346  0.1589 -0.6744
  276MOL0     C37160   1.012   3.406  10.093  0.0830 -1.0081 -0.7833
  276MOL0     O37161   1.070   3.339  10.201  0.0417 -1.2903  0.7435
  276MOL0     C37162   1.028   3.207  10.234 -0.9017 -0.2318  0.1927
  276MOL0     C37163   1.107   3.094  10.171 -0.5750 -0.5855 -0.7750
  276MOL0     C37164   1.044   2.956  10.187 -0.1486  0.1403 -0.1483
  276MOL0     C37165   0.995   2.907  10.052 -0.3884  0.2946 -0.6803
  276MOL0     C37166   0.952   2.762  10.069 -0.2848 -0.0886  1.2673
  276MOL0     C37167   0.916   2.703   9.928  0.0616 -0.5711  0.2022
  276MOL0     C37168   0.842   2.578   9.928  0.0471  0.0519  0.0983
  276MOL0     C37169   0.750   2.567   9.799 -0.4136 -0.5953  0.6615
  276MOL0    Cl37170   0.652   2.416   9.783  0.5046  0.2436  0.1867
  276MOL0     C37171   1.014   3.543  10.085 -0.0354 -0.5065  0.8226
  276MOL0     C37172   0.950   3.619   9.976 -0.1862 -0.0369 -0.8525
  276MOL0     O37173   0.652   3.685   9.936 -0.6723  0.1195 -0.0925
  276MOL0     C37174   0.627   3.776   9.616 -0.0152 -0.3857  1.5324
  276MOL0     C37175   0.577   3.876   9.532  0.1268 -0.7222 -0.8610
  276MOL0     N37176   0.709   4.462   9.956  0.3484 -0.2896  0.3925
  276MOL0     N37177   0.830   4.466   9.993  0.0411  0.4713  0.3554
  276MOL0     C37178   1.070   4.087   9.506  0.3547 -0.2140  0.0433
  276MOL0     C37179   1.102   4.206   9.436 -0.1123 -0.0276 -0.6608
  276MOL0     C37180   1.312   4.581   9.355  0.1852  0.1906  0.3867
  276MOL0     C37181   1.386   4.694   9.397 -0.5081 -0.6648  0.0052
  276MOL0     C37182   1.393   4.813   9.317  0.5050  0.5407 -0.2299
  276MOL0     C37183   1.318   4.827   9.207  0.8662 -1.3519  0.3555
  276MOL0     O37184   1.328   4.945   9.141 -0.5400 -0.1544  0.0724
  276MOL0     C37185   1.224   4.990   9.044 -0.2717  0.8300 -0.1438
  276MOL0     C37186   1.086   5.016   9.111 -0.6448  0.1385 -0.7312
  276MOL0     C37187   1.095   5.126   9.217 -0.0023  0.6533  0.3499
  276MOL0     C37188   0.957   5.194   9.231 -0.1982  1.0382  0.3111
  276MOL0     C37189   0.861   5.102   9.299 -0.3193 -0.0947 -0.3535
  276MOL0     C37190   0.800   5.038   9.381  0.5136  0.1519 -0.0716
  276MOL0     C37191   1.237   4.721   9.167 -0.2640 -0.1171 -0.9734
  276MOL0     C37192   1.241   4.602   9.232 -0.3692  0.2708  0.3152
  276MOL0     H37193   1.432   4.142   9.372  1.0548 -2.0900 -1.3236
  276MOL0     H37194   1.363   3.925   9.471  2.2087  1.7088 -0.1054
  276MOL0     H37195   1.178   3.677   9.659 -0.4695 -0.4194 -0.9070
  276MOL0     H37196   1.260   3.750   9.523  3.9691  0.6231  1.2315
  276MOL0     H37197   1.408   3.755   9.705 -2.3022 -1.5343 -2.4380
  276MOL0     H37198   1.351   3.933   9.709 -0.2594  0.8747  1.4608
  276MOL0     H37199   1.219   3.715   9.872  0.2037 -0.6980  2.8776
  276MOL0     H37200   1.355   3.806   9.924  0.2443  4.9018  1.2487
  276MOL0     H37201   1.074   3.901   9.888 -0.0981  1.7238 -1.3659
  276MOL0     H37202   1.189   3.920  10.021  0.6863  5.0114 -0.6126
  276MOL0     H37203   1.299   4.105   9.873  1.5586 -3.6681 -2.8119
  276MOL0     H37204   1.188   4.078   9.751  1.6125  0.0870 -0.6552
  276MOL0     H37205   0.990   4.121   9.885  0.7615 -2.3191  0.3998
  276MOL0     H37206   1.093   4.161  10.023 -0.6468  0.1702 -1.3072
  276MOL0     H37207   1.233   4.313   9.876  0.0925 -0.1499  2.2613
  276MOL0     H37208   1.108   4.294   9.743 -0.2874  0.8493  0.2208
  276MOL0     H37209   1.098   4.508   9.866  0.6565  0.7726  1.2278
  276MOL0     H37210   1.081   4.430  10.019 -1.7572  2.4967  0.5214
  276MOL0     H37211   0.860   4.313   9.711  0.3165 -0.6530  0.1996
  276MOL0     H37212   0.510   4.311   9.793 -0.0577 -1.4894 -1.1330
  276MOL0     H37213   0.527   4.480   9.766 -0.6776 -1.6603  4.4413
  276MOL0     H37214   0.679   4.278   9.598 -0.2429  0.1615 -0.7070
  276MOL0     H37215   0.682   4.451   9.574  1.9247 -1.0509  0.2396
  276MOL0     H37216   0.536   4.343   9.416  0.8458 -1.8908  0.1902
  276MOL0     H37217   0.432   4.432   9.525 -1.1255 -0.0275 -0.0092
  276MOL0     H37218   0.348   4.226   9.478  2.0456  2.1019 -3.1527
  276MOL0     H37219   0.400   4.196   9.644 -1.1415  0.0866  0.1527
  276MOL0     H37220   0.600   4.130   9.759  2.7429  0.6228 -2.3244
  276MOL0     H37221   0.771   4.072   9.925  0.6177  0.2110  0.5457
  276MOL0     H37222   0.621   4.011   9.990  1.0776  4.2083  0.6213
  276MOL0     H37223   0.773   3.903   9.968 -1.3542  0.0490 -0.3102
  276MOL0     H37224   0.858   3.365   9.784  1.4836 -0.3149 -0.5471
  276MOL0     H37225   0.940   3.231   9.985 -1.2055  0.3599  2.3154
  276MOL0     H37226   1.021   3.201  10.343 -3.6092 -1.3845  0.0395
  276MOL0     H37227   0.926   3.191  10.196  1.3158 -3.6294 -5.6689
  276MOL0     H37228   1.136   3.114  10.067  0.5417  0.4634 -0.2830
  276MOL0     H37229   1.203   3.103  10.223 -2.2581 -2.6363  3.1106
  276MOL0     H37230   0.953   2.967  10.247  1.7392  0.9272  2.8042
  276MOL0     H37231   1.117   2.887  10.233 -2.4878 -2.6512 -0.3435
  276MOL0     H37232   0.915   2.964  10.005 -0.9036 -0.3349 -0.5940
  276MOL0     H37233   1.080   2.917   9.984 -0.8605 -0.5195 -1.4080
  276MOL0     H37234   0.865   2.770  10.135  0.3617 -0.2075  2.1502
  276MOL0     H37235   1.019   2.703  10.132 -0.1813  0.5259  1.7542
  276MOL0     H37236   0.864   2.777   9.865  0.5789  0.1095  0.5573
  276MOL0     H37237   1.008   2.693   9.870 -0.4274  0.6350 -0.8423
  276MOL0     H37238   0.779   2.568  10.017  1.5569  0.7325  1.2820
  276MOL0     H37239   0.905   2.489   9.920  2.2791  1.5690  0.0772
  276MOL0     H37240   0.814   2.581   9.711 -1.3182  0.1538  0.0929
  276MOL0     H37241   0.672   2.643   9.795 -2.5680 -2.7529 -1.8855
  276MOL0     H37242   1.070   3.604  10.155 -0.6383  1.6177 -0.4481
  276MOL0     H37243   0.942   3.727   9.979  0.1585 -0.0308  0.6964
  276MOL0     H37244   0.617   3.676   9.575 -1.6419  0.5208 -0.4618
  276MOL0     H37245   0.532   3.849   9.437 -0.6091  0.8809 -1.0053
  276MOL0     H37246   0.977   4.072   9.561  0.0711 -2.7278 -0.9964
  276MOL0     H37247   1.034   4.288   9.417 -0.2113 -0.3621 -1.8371
  276MOL0     H37248   1.450   4.675   9.482  0.7627 -0.3641 -0.8529
  276MOL0     H37249   1.459   4.893   9.351 -0.0894  0.3442  1.5323
  276MOL0     H37250   1.252   5.085   8.998  1.8335 -0.0041 -0.7243
  276MOL0     H37251   1.213   4.914   8.966  0.7367  1.5359 -1.0095
  276MOL0     H37252   1.049   4.929   9.166 -0.8278  1.4211  1.2419
  276MOL0     H37253   1.010   5.028   9.033 -0.3154 -2.9637 -1.6673
  276MOL0     H37254   1.169   5.195   9.176  1.1594 -1.1390 -0.6863
  276MOL0     H37255   1.126   5.084   9.313  0.0931 -0.7626 -0.2764
  276MOL0     H37256   0.926   5.210   9.128 -0.9144 -3.1885 -0.3062
  276MOL0     H37257   0.961   5.288   9.287  3.2309  0.8526  0.5775
  276MOL0     H37258   0.736   4.998   9.457 -0.6812  2.7759  0.3951
  276MOL0     H37259   1.178   4.732   9.076  0.8223  2.0391 -1.4919
  276MOL0     H37260   1.181   4.524   9.188 -0.0390 -0.0867  0.4856
  277MOL0     O37261   7.686   2.558  10.549 -0.2563  0.0178 -0.0946
  277MOL0     C37262   7.657   2.512  10.659 -0.2118  0.5882  0.6392
  277MOL0     O37263   7.675   2.569  10.780  0.0179  0.2103  0.0727
  277MOL0     C37264   7.704   2.703  10.784  0.2550 -1.1845  0.1308
  277MOL0     C37265   7.613   2.791  10.857 -0.1543  0.2531 -0.1541
  277MOL0     C37266   7.649   2.924  10.873 -0.2297  1.3294 -0.2474
  277MOL0     C37267   7.757   2.985  10.817  0.4442  0.3894 -0.3394
  277MOL0     O37268   7.798   3.113  10.834  0.0757  0.1804  0.1308
  277MOL0     C37269   7.697   3.214  10.819 -0.2472 -0.5606 -0.7419
  277MOL0     C37270   7.705   3.290  10.675 -0.4054  0.5914 -0.4268
  277MOL0     C37271   7.848   3.323  10.629  0.0292 -1.0924 -0.1038
  277MOL0     C37272   7.928   3.415  10.730 -0.3925  0.2184  0.2348
  277MOL0     C37273   8.047   3.469  10.651 -0.7069  0.6629  0.1993
  277MOL0     C37274   8.121   3.564  10.734  1.0294  0.4991  0.5342
  277MOL0     C37275   8.239   3.617  10.658 -1.6068  0.3418 -1.5124
  277MOL0     C37276   8.186   3.708  10.547  0.2702  0.2772  0.1909
  277MOL0     N37277   8.301   3.769  10.477  0.9227 -0.2257  0.1586
  277MOL0     C37278   8.384   3.859  10.528 -0.4380  0.0752  0.0892
  277MOL0     C37279   8.462   3.894  10.432 -0.1464 -0.0821  0.9847
  277MOL0     C37280   8.573   3.995  10.452 -0.2187  0.6925  0.2946
  277MOL0     C37281   8.672   3.939  10.553 -0.2432 -0.4083  0.9860
  277MOL0     C37282   8.797   4.025  10.543  0.9974 -1.3018  0.0788
  277MOL0     C37283   8.787   4.173  10.588 -0.8329  0.2616  0.5555
  277MOL0     O37284   8.751   4.156  10.724 -0.2803 -0.4240 -0.4209
  277MOL0     C37285   8.722   4.269  10.799  0.2179 -1.3330 -0.1954
  277MOL0     C37286   8.661   4.248  10.925 -0.6308  0.4206 -0.0955
  277MOL0     C37287   8.639   4.356  11.011 -0.4054 -0.6469  0.0589
  277MOL0     C37288   8.594   4.318  11.145  0.8841 -0.8198  0.5096
  277MOL0     C37289   8.675   4.485  10.976 -0.0506 -0.3874 -0.0252
  277MOL0     C37290   8.650   4.602  11.064 -0.3745  0.6858 -0.2667
  277MOL0     O37291   8.627   4.719  11.000  0.4646 -0.9979 -0.5352
  277MOL0     C37292   8.603   4.826  11.085 -0.8371 -1.3167  0.8790
  277MOL0     C37293   8.472   4.850  11.110  1.1271 -0.1458 -0.5064
  277MOL0     C37294   8.439   4.962  11.181  0.4606 -0.0200 -0.2913
  277MOL0     C37295   8.532   5.048  11.239  0.0905 -0.6264 -0.9497
  277MOL0     O37296   8.487   5.167  11.296 -0.2534  0.3261 -1.5687
  277MOL0     C37297   8.590   5.254  11.351 -0.3250 -0.3022 -0.2064
  277MOL0     C37298   8.529   5.366  11.436  1.0679  0.3451  0.6252
  277MOL0     C37299   8.456   5.465  11.349 -0.4400  1.4999  0.1514
  277MOL0     C37300   8.365   5.554  11.423  0.2185 -0.5819 -0.2518
  277MOL0     C37301   8.420   5.653  11.515 -0.8968 -0.8972 -0.3446
  277MOL0     C37302   8.322   5.763  11.564 -0.1272 -0.1580 -0.0914
  277MOL0     C37303   8.309   5.890  11.478  0.0909 -0.3841 -0.0151
  277MOL0     C37304   8.313   6.016  11.563 -0.2341  0.4094 -0.8974
  277MOL0    Cl37305   8.197   6.002  11.693  0.8500  0.0025 -0.0509
  277MOL0     C37306   8.669   5.015  11.221  0.8586  0.2404 -1.8171
  277MOL0     C37307   8.701   4.908  11.142 -0.6888 -0.1372 -0.4114
  277MOL0     O37308   8.674   4.590  11.184 -1.1138  0.4473 -0.1380
  277MOL0     C37309   8.717   4.500  10.843  0.3967 -0.2576 -0.4493
  277MOL0     C37310   8.738   4.402  10.751  0.2865  0.4547  0.5848
  277MOL0     N37311   8.425   3.827  10.308 -0.2099 -0.2744 -0.6894
  277MOL0     N37312   8.318   3.764  10.345  0.3938 -0.3566 -0.0563
  277MOL0     C37313   7.850   2.902  10.751  0.5335 -0.0098 -0.5808
  277MOL0     C37314   7.821   2.764  10.734 -0.0195  0.3726  0.8457
  277MOL0     C37315   7.617   2.375  10.670  0.3851  0.6154 -0.0548
  277MOL0     C37316   7.671   2.278  10.586  0.8208  0.1585  0.7770
  277MOL0     C37317   7.646   2.140  10.600  0.2256  0.4562  0.6055
  277MOL0     C37318   7.558   2.105  10.705 -0.3343  0.7057 -1.4135
  277MOL0     O37319   7.515   1.976  10.731  0.5285  0.0848  0.0570
  277MOL0     C37320   7.603   1.866  10.705  0.7926 -1.1742 -0.1368
  277MOL0     C37321   7.540   1.732  10.757 -0.5627 -0.8020  0.1491
  277MOL0     C37322   7.387   1.717  10.735  0.8016 -0.3186 -0.6386
  277MOL0     C37323   7.342   1.571  10.770  0.1860 -0.2684  0.4299
  277MOL0     C37324   7.406   1.469  10.677 -0.0769 -0.4541 -0.7505
  277MOL0     C37325   7.462   1.377  10.612 -0.4023  0.8683 -0.1820
  277MOL0     C37326   7.509   2.204  10.790 -0.1140  0.1378  0.7758
  277MOL0     C37327   7.538   2.336  10.775  0.3952  0.6199  0.4588
  277MOL0     H37328   7.526   2.739  10.894  0.0565  1.4964  2.3414
  277MOL0     H37329   7.575   2.985  10.924  1.4507  2.4797  0.9022
  277MOL0     H37330   7.594   3.179  10.828 -2.0533  4.1649 -0.6788
  277MOL0     H37331   7.703   3.281  10.905 -0.9253 -0.0234 -1.1120
  277MOL0     H37332   7.664   3.226  10.597  1.7371  1.1147 -2.0824
  277MOL0     H37333   7.649   3.384  10.682  1.5594  1.6775  3.0156
  277MOL0     H37334   7.887   3.228  10.590  1.0834 -0.3913 -0.8051
  277MOL0     H37335   7.823   3.375  10.536  0.8399 -2.3859 -1.0838
  277MOL0     H37336   7.862   3.495  10.765 -0.1924 -0.3275  1.9452
  277MOL0     H37337   7.956   3.352  10.815 -1.9270 -1.5768 -0.5296
  277MOL0     H37338   8.115   3.384  10.642 -1.5790  0.1779 -3.0869
  277MOL0     H37339   8.013   3.505  10.553 -1.3566  1.1780  0.6046
  277MOL0     H37340   8.060   3.650  10.764  1.4380  1.6415 -1.6644
  277MOL0     H37341   8.151   3.516  10.827  0.5201  0.0586  0.4779
  277MOL0     H37342   8.292   3.680  10.730 -0.8670 -0.0491 -1.6994
  277MOL0     H37343   8.309   3.536  10.634  1.5859  0.5309  4.8614
  277MOL0     H37344   8.121   3.786  10.587 -0.8857 -1.6684  2.3245
  277MOL0     H37345   8.139   3.637  10.478  0.3837  1.8718 -1.5963
  277MOL0     H37346   8.396   3.899  10.628  0.6026  0.5018 -0.1957
  277MOL0     H37347   8.616   4.024  10.356  0.9441 -2.2548 -0.1618
  277MOL0     H37348   8.531   4.083  10.502 -0.1911  0.3429  0.9415
  277MOL0     H37349   8.692   3.834  10.527 -0.2202  0.1081 -1.3189
  277MOL0     H37350   8.627   3.947  10.653 -0.7854 -1.6772  0.8664
  277MOL0     H37351   8.828   4.027  10.439  0.2186  1.7714 -0.2082
  277MOL0     H37352   8.870   3.966  10.599  1.0421 -2.3280 -1.0248
  277MOL0     H37353   8.718   4.234  10.529 -0.1819  0.2901 -0.2053
  277MOL0     H37354   8.883   4.224  10.576 -0.8097  0.7859  2.6339
  277MOL0     H37355   8.629   4.148  10.954  0.3905  0.4401  1.1942
  277MOL0     H37356   8.676   4.311  11.217 -1.1628 -0.1653  3.0524
  277MOL0     H37357   8.534   4.398  11.189  3.0845  2.1199 -1.4715
  277MOL0     H37358   8.541   4.222  11.140  0.0666 -0.2989 -1.5863
  277MOL0     H37359   8.391   4.794  11.065  1.1984 -1.3477  0.8024
  277MOL0     H37360   8.332   4.984  11.184  0.7722  2.0576 -1.6173
  277MOL0     H37361   8.638   5.193  11.428  1.4802  1.2981 -0.0102
  277MOL0     H37362   8.652   5.292  11.270 -2.5328 -2.3133 -3.0662
  277MOL0     H37363   8.473   5.313  11.513 -0.5880  1.9253  0.5787
  277MOL0     H37364   8.603   5.431  11.484  2.3984  2.2156 -3.4506
  277MOL0     H37365   8.402   5.399  11.281  2.2539  1.6053 -2.3204
  277MOL0     H37366   8.527   5.530  11.297  0.9268 -0.2001 -0.2165
  277MOL0     H37367   8.323   5.613  11.341  0.4166  0.1637  0.1779
  277MOL0     H37368   8.276   5.504  11.462  0.2345 -0.5278 -0.1475
  277MOL0     H37369   8.499   5.710  11.467 -0.3060 -0.1469  1.4395
  277MOL0     H37370   8.459   5.603  11.604 -0.6160  0.4789  0.3311
  277MOL0     H37371   8.226   5.716  11.588 -0.9851  1.2037 -0.7568
  277MOL0     H37372   8.361   5.786  11.664 -1.7022 -1.3762  0.8425
  277MOL0     H37373   8.204   5.882  11.446 -0.2059  2.3257  0.0254
  277MOL0     H37374   8.377   5.879  11.394 -0.2556 -1.2737 -0.1948
  277MOL0     H37375   8.277   6.094  11.496 -1.4013  0.5230 -0.1754
  277MOL0     H37376   8.403   6.062  11.605 -0.6268  4.4026 -3.7908
  277MOL0     H37377   8.738   5.083  11.269 -2.0069  1.1680  1.3997
  277MOL0     H37378   8.805   4.883  11.124 -1.0009 -0.6166 -1.7309
  277MOL0     H37379   8.724   4.605  10.813 -2.0069  0.1731  0.2778
  277MOL0     H37380   8.777   4.424  10.652 -0.1899 -0.9349  0.0673
  277MOL0     H37381   7.947   2.938  10.717  0.5629 -1.0606 -1.6663
  277MOL0     H37382   7.897   2.706  10.681 -0.3393  0.2270  0.5414
  277MOL0     H37383   7.740   2.296  10.504  1.1020 -1.1793  0.6961
  277MOL0     H37384   7.699   2.072  10.534 -0.4230 -2.1078  2.5847
  277MOL0     H37385   7.621   1.864  10.597 -3.9635 -1.7507 -1.1140
  277MOL0     H37386   7.696   1.884  10.761 -0.3244 -1.8277  2.0476
  277MOL0     H37387   7.552   1.733  10.866  2.7367 -2.2083 -0.0949
  277MOL0     H37388   7.602   1.652  10.717  1.0835 -0.0083  0.9969
  277MOL0     H37389   7.360   1.726  10.629 -1.4604  1.0767 -0.0185
  277MOL0     H37390   7.337   1.791  10.798  1.9846 -1.3978  1.6597
  277MOL0     H37391   7.234   1.563  10.753  0.2763  0.3142 -0.4805
  277MOL0     H37392   7.368   1.543  10.872  2.0489 -1.4096 -0.3215
  277MOL0     H37393   7.514   1.310  10.546  0.9991 -0.5683  2.2276
  277MOL0     H37394   7.463   2.174  10.884  3.4074 -0.5136  2.4597
  277MOL0     H37395   7.496   2.410  10.842  0.1673  0.8157  0.0978
  278MOL0     O37396   2.932   8.796   3.670  0.2066  0.2198 -0.4481
  278MOL0     C37397   2.880   8.889   3.732  0.0760 -0.2033 -0.7600
  278MOL0     O37398   2.815   8.880   3.859 -0.7021 -0.9314 -0.3348
  278MOL0     C37399   2.781   8.758   3.895 -0.1015 -0.3988  0.9185
  278MOL0     C37400   2.652   8.737   3.939 -0.6232 -0.1446  0.1688
  278MOL0     C37401   2.600   8.616   3.976 -0.5807 -0.6357 -0.6366
  278MOL0     C37402   2.685   8.506   3.988  0.0942 -0.9673  0.0916
  278MOL0     O37403   2.649   8.383   4.024 -0.3542  0.3693  1.0252
  278MOL0     C37404   2.520   8.357   4.087 -0.0381 -0.1422 -0.1301
  278MOL0     C37405   2.505   8.200   4.076 -0.4626 -0.1262  0.0992
  278MOL0     C37406   2.385   8.132   4.141 -0.5321  0.0973 -1.1470
  278MOL0     C37407   2.386   7.986   4.098 -0.2389  0.3837  0.1619
  278MOL0     C37408   2.253   7.916   4.120  0.5786 -0.1142  0.6853
  278MOL0     C37409   2.247   7.789   4.036  0.7589  0.2358 -0.5291
  278MOL0     C37410   2.362   7.688   4.076 -0.0093  0.1451 -0.4193
  278MOL0     C37411   2.380   7.663   4.229  0.1086 -0.1285  0.2868
  278MOL0     N37412   2.266   7.581   4.276  0.6906 -1.0170  0.0943
  278MOL0     C37413   2.245   7.453   4.249 -0.1081  1.1767  1.0738
  278MOL0     C37414   2.134   7.420   4.323  0.4144  0.6328 -0.6259
  278MOL0     C37415   2.072   7.280   4.311  0.4356 -0.3382  0.7645
  278MOL0     C37416   1.943   7.269   4.385 -0.4880  0.4299 -0.3203
  278MOL0     C37417   1.902   7.117   4.390 -0.2527 -0.4731 -0.6998
  278MOL0     C37418   1.991   7.016   4.466 -0.5609 -0.4169  0.1578
  278MOL0     O37419   1.926   6.890   4.469  0.5335  1.1855  0.8446
  278MOL0     C37420   1.971   6.777   4.406  0.4952 -0.5657 -0.6165
  278MOL0     C37421   2.086   6.772   4.318  1.3597 -0.4582 -0.6367
  278MOL0     C37422   2.115   6.663   4.248 -0.4029 -0.2181  1.1282
  278MOL0     C37423   2.218   6.683   4.143  0.5299  0.4209 -0.4402
  278MOL0     C37424   2.036   6.540   4.261 -0.2133  0.1259  0.8448
  278MOL0     C37425   2.075   6.412   4.196  0.0705 -0.1428  0.3268
  278MOL0     O37426   1.977   6.314   4.184 -0.0919  0.0198 -0.7925
  278MOL0     C37427   2.015   6.190   4.138 -0.0276  0.2518 -0.2359
  278MOL0     C37428   2.010   6.068   4.211  0.5476 -1.3883 -0.1583
  278MOL0     C37429   2.052   5.947   4.161  0.4365  1.1258  0.7737
  278MOL0     C37430   2.093   5.934   4.027  0.1206 -0.0990  0.0559
  278MOL0     O37431   2.133   5.819   3.971 -0.2659 -1.2618  0.4822
  278MOL0     C37432   2.045   5.708   3.983  0.2227  0.3838 -0.1903
  278MOL0     C37433   2.125   5.593   3.928 -0.6387  0.0462  0.1485
  278MOL0     C37434   2.269   5.586   3.992  0.5656 -1.1163  0.5048
  278MOL0     C37435   2.308   5.445   3.999  1.2576  0.2896  0.5249
  278MOL0     C37436   2.418   5.423   4.081 -0.5481  0.2737 -0.7889
  278MOL0     C37437   2.472   5.273   4.091 -0.2769  0.4357  0.3049
  278MOL0     C37438   2.591   5.253   4.198  1.0941  0.6987 -0.1325
  278MOL0     C37439   2.674   5.130   4.169 -0.2120 -0.2612  0.6020
  278MOL0    Cl37440   2.813   5.124   4.292  0.4709  0.4185  0.6460
  278MOL0     C37441   2.093   6.050   3.953 -1.0230 -0.2911  0.0979
  278MOL0     C37442   2.051   6.174   4.005  0.5900 -0.3498 -1.1923
  278MOL0     O37443   2.189   6.391   4.171 -0.2919 -0.3937 -0.2325
  278MOL0     C37444   1.930   6.537   4.355  0.4852  0.8359 -0.1192
  278MOL0     C37445   1.894   6.659   4.418 -1.0247  0.4949 -0.3707
  278MOL0     N37446   2.090   7.532   4.389 -0.4507 -0.4421  0.3710
  278MOL0     N37447   2.182   7.626   4.373 -0.1560  0.9525 -0.3766
  278MOL0     C37448   2.818   8.526   3.950 -1.0552  0.0458 -0.9938
  278MOL0     C37449   2.867   8.650   3.905  0.1682  0.0997 -0.5694
  278MOL0     C37450   2.865   9.025   3.672 -0.3842 -0.4903 -1.1522
  278MOL0     C37451   2.873   9.046   3.532 -0.8605 -0.4046  0.4708
  278MOL0     C37452   2.848   9.169   3.472 -0.4484  0.4196  0.0175
  278MOL0     C37453   2.808   9.276   3.554 -0.0401  0.4350 -0.1696
  278MOL0     O37454   2.791   9.400   3.507 -0.1472 -0.7520  0.0888
  278MOL0     C37455   2.673   9.468   3.544  1.2078 -0.4991  0.5093
  278MOL0     C37456   2.592   9.484   3.413 -1.0985  0.2802  1.1686
  278MOL0     C37457   2.453   9.552   3.413 -0.3310 -0.2191  0.4643
  278MOL0     C37458   2.341   9.503   3.322 -0.7800 -0.0563 -0.2115
  278MOL0     C37459   2.207   9.546   3.372 -0.2446  0.1003  0.2041
  278MOL0     C37460   2.091   9.567   3.415  0.2517 -0.6514  0.2156
  278MOL0     C37461   2.809   9.259   3.701 -0.7257 -0.5416  0.4451
  278MOL0     C37462   2.835   9.138   3.758 -0.4017  0.2920 -0.6202
  278MOL0     H37463   2.576   8.815   3.936 -2.0071 -1.4388  0.4637
  278MOL0     H37464   2.494   8.613   3.999 -0.9078  0.8618 -1.8268
  278MOL0     H37465   2.519   8.401   4.187 -0.9121  1.1281 -0.6756
  278MOL0     H37466   2.439   8.402   4.030 -1.7794 -0.2550  2.1223
  278MOL0     H37467   2.503   8.176   3.969 -0.1629 -2.3397  0.5389
  278MOL0     H37468   2.596   8.159   4.121 -1.7133 -0.0166  2.9794
  278MOL0     H37469   2.408   8.133   4.248  0.2155  0.4009 -1.2989
  278MOL0     H37470   2.294   8.182   4.108 -3.6868 -2.4975  2.6482
  278MOL0     H37471   2.405   7.981   3.990 -2.0534 -2.3516 -0.1401
  278MOL0     H37472   2.467   7.929   4.146  0.0667 -0.5200 -1.3467
  278MOL0     H37473   2.234   7.895   4.226  1.1127  2.2597  1.3018
  278MOL0     H37474   2.171   7.983   4.095 -0.6839 -0.9608  2.3740
  278MOL0     H37475   2.147   7.745   4.029  1.0499 -0.5288 -0.0183
  278MOL0     H37476   2.264   7.812   3.931  1.1341  2.2205 -0.0771
  278MOL0     H37477   2.346   7.597   4.017 -1.1470 -0.7142  1.1433
  278MOL0     H37478   2.460   7.720   4.038 -0.8159  2.0743 -0.9605
  278MOL0     H37479   2.382   7.757   4.286 -3.2042  0.7526 -0.8202
  278MOL0     H37480   2.477   7.615   4.250  0.1406 -0.8721 -1.3986
  278MOL0     H37481   2.300   7.379   4.191  0.7590  1.1903  1.8383
  278MOL0     H37482   2.042   7.274   4.207 -2.3110  2.4452  1.2444
  278MOL0     H37483   2.145   7.203   4.337  0.3728 -1.4894 -2.1540
  278MOL0     H37484   1.868   7.338   4.348 -2.3240 -0.5967  1.2980
  278MOL0     H37485   1.962   7.308   4.486  1.3084 -0.1003 -0.4166
  278MOL0     H37486   1.881   7.087   4.287  0.7975 -0.9620 -0.7716
  278MOL0     H37487   1.806   7.117   4.443 -0.3996 -0.2492 -0.9623
  278MOL0     H37488   2.019   7.054   4.565 -0.5291 -0.7547  0.2793
  278MOL0     H37489   2.090   7.012   4.418 -0.5292  0.0724  0.1716
  278MOL0     H37490   2.156   6.853   4.300  1.5656  0.5626  3.5890
  278MOL0     H37491   2.225   6.607   4.064  3.8654  0.8837 -0.7005
  278MOL0     H37492   2.190   6.776   4.093 -4.8219 -1.4462 -1.6676
  278MOL0     H37493   2.315   6.684   4.192 -0.4012  1.6321  1.4871
  278MOL0     H37494   1.964   6.083   4.308 -2.1638 -2.4181 -1.1631
  278MOL0     H37495   2.031   5.863   4.227 -3.7154  0.8514 -0.6122
  278MOL0     H37496   2.022   5.688   4.088  0.0619  0.5530 -0.1915
  278MOL0     H37497   1.952   5.725   3.928  0.6785  0.2311 -1.0317
  278MOL0     H37498   2.076   5.497   3.944 -0.9246 -0.1141 -1.4969
  278MOL0     H37499   2.135   5.610   3.820  1.4737  3.9825  0.7560
  278MOL0     H37500   2.262   5.633   4.091 -0.8553 -1.6715  0.6970
  278MOL0     H37501   2.349   5.639   3.939  0.3961  0.4792  1.7376
  278MOL0     H37502   2.225   5.398   4.052  1.5288 -1.7010 -0.7122
  278MOL0     H37503   2.331   5.403   3.900 -0.3014 -2.1347  1.0942
  278MOL0     H37504   2.397   5.465   4.180 -0.8918  1.8031 -1.4928
  278MOL0     H37505   2.506   5.477   4.046 -1.0601 -0.1188 -2.7934
  278MOL0     H37506   2.389   5.209   4.121  2.4557 -2.8698  1.4592
  278MOL0     H37507   2.499   5.246   3.989 -0.8155  2.8402 -0.5356
  278MOL0     H37508   2.550   5.234   4.297 -1.3007  3.0032 -0.5610
  278MOL0     H37509   2.656   5.339   4.215  1.3839  0.7235 -1.2642
  278MOL0     H37510   2.716   5.143   4.068 -0.0353  1.7375  0.8948
  278MOL0     H37511   2.618   5.036   4.171 -2.0720  0.7952  0.3502
  278MOL0     H37512   2.135   6.050   3.853  2.5410  2.4149  1.3656
  278MOL0     H37513   2.055   6.260   3.939 -2.3298 -0.8042 -2.1238
  278MOL0     H37514   1.867   6.449   4.365  0.9792  0.4207 -0.5908
  278MOL0     H37515   1.814   6.669   4.491  1.2581 -1.3739  2.6228
  278MOL0     H37516   2.890   8.445   3.955  1.8619  2.4662 -1.0951
  278MOL0     H37517   2.968   8.672   3.871 -0.2925  0.5972 -1.6478
  278MOL0     H37518   2.905   8.960   3.474  0.5282  0.6115 -0.3247
  278MOL0     H37519   2.839   9.183   3.365  1.2797 -2.2629 -0.5803
  278MOL0     H37520   2.619   9.419   3.626 -0.3300  0.9297  0.4107
  278MOL0     H37521   2.711   9.561   3.588 -2.3109  1.2412  0.2195
  278MOL0     H37522   2.574   9.384   3.372 -1.5949  1.1349 -0.7976
  278MOL0     H37523   2.659   9.539   3.347 -0.1781  0.4913  2.2501
  278MOL0     H37524   2.455   9.658   3.387  2.3319 -0.4212 -0.4248
  278MOL0     H37525   2.413   9.529   3.512  0.9145 -2.1287  0.5841
  278MOL0     H37526   2.339   9.394   3.330 -0.2071  0.0572  2.5105
  278MOL0     H37527   2.353   9.541   3.220 -2.2400 -3.1548 -1.6633
  278MOL0     H37528   1.992   9.588   3.449 -0.9938 -3.1834 -1.4818
  278MOL0     H37529   2.781   9.346   3.760 -1.0596  0.2543 -0.8461
  278MOL0     H37530   2.823   9.111   3.862  1.8314 -1.0024 -0.6364
  279MOL0     O37531   5.528   0.290   8.249 -0.1228 -0.1129  0.2180
  279MOL0     C37532   5.555   0.283   8.371  0.1791  0.3266  0.3210
  279MOL0     O37533   5.677   0.244   8.429  0.2711 -0.3479  0.1623
  279MOL0     C37534   5.784   0.206   8.347 -0.1795 -0.0598  0.1754
  279MOL0     C37535   5.850   0.092   8.384 -0.7907 -0.4028 -0.0373
  279MOL0     C37536   5.965   0.057   8.315 -0.1138 -0.0723 -0.6436
  279MOL0     C37537   6.010   0.125   8.202  0.3326 -0.8785 -1.3157
  279MOL0     O37538   6.116   0.090   8.120 -0.2869  0.5353  0.6765
  279MOL0     C37539   6.238   0.047   8.182  0.1387 -0.5604  0.6605
  279MOL0     C37540   6.335   0.023   8.053 -0.0125  0.1512  0.0229
  279MOL0     C37541   6.483   0.017   8.103  0.6139  0.3288  0.0221
  279MOL0     C37542   6.573  -0.028   7.991  0.0485 -0.5784 -0.3716
  279MOL0     C37543   6.712  -0.061   8.022 -0.2700  0.3431 -0.5527
  279MOL0     C37544   6.722  -0.199   8.088 -0.3561  0.2356 -0.6432
  279MOL0     C37545   6.772  -0.210   8.228 -0.5936  0.3959 -0.4604
  279MOL0     C37546   6.928  -0.186   8.231 -0.0225  0.0617 -0.3390
  279MOL0     N37547   6.982  -0.209   8.364  0.5565 -0.1369  0.1481
  279MOL0     C37548   6.971  -0.121   8.471  0.3946  0.3805 -0.4194
  279MOL0     C37549   7.004  -0.214   8.576  0.7743 -0.9281  0.3238
  279MOL0     C37550   7.016  -0.173   8.719 -0.2187  0.0867  1.4033
  279MOL0     C37551   6.886  -0.190   8.813  0.4874 -0.3436  0.4819
  279MOL0     C37552   6.793  -0.307   8.764 -0.3926 -0.2205  0.3621
  279MOL0     C37553   6.671  -0.258   8.699  0.5729 -0.7009  0.6634
  279MOL0     O37554   6.548  -0.295   8.767  0.5946  0.0736  1.1322
  279MOL0     C37555   6.436  -0.306   8.686  1.3322  0.1097  0.6950
  279MOL0     C37556   6.327  -0.366   8.747 -0.1465 -0.3042 -0.8572
  279MOL0     C37557   6.197  -0.384   8.692  0.5668 -0.6658  0.8982
  279MOL0     C37558   6.086  -0.442   8.775  0.1954  0.0110  0.4485
  279MOL0     C37559   6.189  -0.343   8.556  0.3719 -0.0874  0.6493
  279MOL0     C37560   6.063  -0.366   8.487  0.6377  0.5150  0.4019
  279MOL0     O37561   6.075  -0.427   8.363 -0.0730 -1.0276  0.4179
  279MOL0     C37562   5.967  -0.436   8.281  0.4499 -0.1899 -1.1561
  279MOL0     C37563   5.991  -0.437   8.141 -0.0962 -0.4786  0.5763
  279MOL0     C37564   5.888  -0.460   8.048 -0.6110 -0.9719 -0.4500
  279MOL0     C37565   5.756  -0.469   8.084  0.1218  0.8056 -0.5325
  279MOL0     O37566   5.643  -0.462   8.008  0.5261  0.2229  0.3625
  279MOL0     C37567   5.645  -0.423   7.868 -0.1453 -1.3626  0.3153
  279MOL0     C37568   5.499  -0.380   7.829 -0.0921  0.3816  0.6911
  279MOL0     C37569   5.428  -0.493   7.772  1.0964  0.5937  0.1620
  279MOL0     C37570   5.282  -0.480   7.737 -0.6404  0.2808  0.2741
  279MOL0     C37571   5.212  -0.606   7.693  0.4095 -0.3851  0.7538
  279MOL0     C37572   5.245  -0.725   7.786 -0.1844 -0.2341  0.0511
  279MOL0     C37573   5.169  -0.844   7.724 -0.2328 -0.0325  0.5210
  279MOL0     C37574   5.187  -0.979   7.793  0.6703 -0.4770 -0.8609
  279MOL0    Cl37575   5.330  -1.076   7.737 -0.4906  0.1625 -0.0441
  279MOL0     C37576   5.734  -0.472   8.218 -0.0805 -0.0858  1.2613
  279MOL0     C37577   5.828  -0.458   8.313 -0.6947 -0.0845 -0.5726
  279MOL0     O37578   5.958  -0.321   8.539 -0.1684  0.0579 -0.5454
  279MOL0     C37579   6.306  -0.291   8.487 -0.6989 -0.1244 -0.3029
  279MOL0     C37580   6.423  -0.271   8.551  0.2484 -0.7612 -0.7390
  279MOL0     N37581   7.011  -0.345   8.529  0.5484  0.1668  0.4624
  279MOL0     N37582   7.001  -0.334   8.405  0.1236 -0.1283  0.7912
  279MOL0     C37583   5.945   0.243   8.169 -0.1497  0.2764 -0.3205
  279MOL0     C37584   5.825   0.283   8.235 -0.3926  0.6631  0.4551
  279MOL0     C37585   5.445   0.302   8.463 -0.2684 -0.5231  0.7508
  279MOL0     C37586   5.451   0.252   8.592 -0.6225  0.1710  0.1254
  279MOL0     C37587   5.364   0.286   8.702  0.8643 -0.3344 -0.3117
  279MOL0     C37588   5.264   0.379   8.670  0.3783  0.0656 -0.3311
  279MOL0     O37589   5.165   0.434   8.757 -0.0754  0.3314  0.9917
  279MOL0     C37590   5.175   0.383   8.889  0.8069 -0.4797  0.0965
  279MOL0     C37591   5.059   0.451   8.959 -0.4074  0.6049  0.6944
  279MOL0     C37592   5.050   0.414   9.110 -0.1275  1.0144 -0.1915
  279MOL0     C37593   4.952   0.494   9.192  0.1414  0.1767  0.4690
  279MOL0     C37594   4.812   0.470   9.147 -0.9002 -0.3365 -1.4646
  279MOL0     C37595   4.697   0.452   9.119  0.4260 -0.1519 -0.3281
  279MOL0     C37596   5.253   0.419   8.538  0.1205 -0.3942 -0.0561
  279MOL0     C37597   5.332   0.381   8.430  0.3172  0.0638  0.8114
  279MOL0     H37598   5.820   0.028   8.466  2.4743  0.2872  1.8756
  279MOL0     H37599   6.007  -0.041   8.336  1.4411 -0.3885 -4.5086
  279MOL0     H37600   6.280   0.139   8.224  1.6039 -0.6874 -0.4536
  279MOL0     H37601   6.215  -0.027   8.258 -0.3254  1.7194  2.8917
  279MOL0     H37602   6.300  -0.068   8.004  0.8272  0.7630 -1.8082
  279MOL0     H37603   6.328   0.095   7.971 -0.0591 -1.4979 -1.4886
  279MOL0     H37604   6.505   0.116   8.143  1.5476  0.2412 -0.2515
  279MOL0     H37605   6.490  -0.064   8.177 -1.1090  0.1405  0.0230
  279MOL0     H37606   6.528  -0.113   7.938 -1.5863 -1.5085  2.2918
  279MOL0     H37607   6.593   0.059   7.927  2.5113 -0.5881  0.2754
  279MOL0     H37608   6.775  -0.063   7.933  1.1128 -0.7053  0.3793
  279MOL0     H37609   6.761   0.012   8.088  4.7825 -1.0194 -2.3610
  279MOL0     H37610   6.627  -0.254   8.087 -0.0947 -0.4166  1.9622
  279MOL0     H37611   6.784  -0.257   8.020 -0.4712  0.0471 -0.5892
  279MOL0     H37612   6.722  -0.134   8.288  1.1819  1.6268 -0.4649
  279MOL0     H37613   6.749  -0.313   8.259 -1.4497 -0.0273 -2.3570
  279MOL0     H37614   6.943  -0.080   8.205  2.5574 -0.1107  0.1614
  279MOL0     H37615   6.979  -0.251   8.160  1.0707 -0.0063  0.4905
  279MOL0     H37616   6.951  -0.015   8.469  1.1704  0.5453 -0.0256
  279MOL0     H37617   7.096  -0.234   8.761  2.7356  1.4257 -1.8242
  279MOL0     H37618   7.065  -0.075   8.714  2.0782 -1.0614 -0.5207
  279MOL0     H37619   6.834  -0.095   8.799  1.5412 -0.0844 -2.3681
  279MOL0     H37620   6.920  -0.196   8.917 -0.2916 -3.3843  0.6626
  279MOL0     H37621   6.760  -0.374   8.844  0.9627 -0.7377  0.5249
  279MOL0     H37622   6.847  -0.381   8.705 -1.2863  0.2304 -1.0590
  279MOL0     H37623   6.681  -0.288   8.595 -1.6170 -1.2865  0.5655
  279MOL0     H37624   6.675  -0.148   8.696  0.3118 -0.7008  0.3210
  279MOL0     H37625   6.343  -0.400   8.849  1.4906 -3.1319 -1.9337
  279MOL0     H37626   6.045  -0.355   8.826  0.7579 -0.0214  0.9726
  279MOL0     H37627   6.008  -0.494   8.719  1.6079 -1.4885 -0.1982
  279MOL0     H37628   6.120  -0.506   8.857  0.1515 -1.8598 -0.9407
  279MOL0     H37629   6.088  -0.417   8.098 -0.5229  2.9619  0.9328
  279MOL0     H37630   5.909  -0.429   7.946 -0.9410  1.3311  0.1115
  279MOL0     H37631   5.701  -0.330   7.855  0.2710 -1.0360  3.4994
  279MOL0     H37632   5.689  -0.501   7.805  3.5215  0.0632  0.8590
  279MOL0     H37633   5.451  -0.344   7.921 -1.2196 -3.3088  1.6882
  279MOL0     H37634   5.498  -0.295   7.760 -0.1746 -1.3464 -1.5260
  279MOL0     H37635   5.430  -0.568   7.852  1.1434  2.3152  1.8351
  279MOL0     H37636   5.471  -0.527   7.677  1.2309  0.3615  0.3032
  279MOL0     H37637   5.230  -0.433   7.822  2.7389  1.4504  1.8895
  279MOL0     H37638   5.263  -0.407   7.658 -3.7504 -0.3821  0.2596
  279MOL0     H37639   5.239  -0.633   7.591 -1.0220 -0.7818  0.4565
  279MOL0     H37640   5.105  -0.584   7.694  0.3848 -0.4556 -0.0953
  279MOL0     H37641   5.348  -0.760   7.788  0.6112  1.9424  2.6334
  279MOL0     H37642   5.214  -0.699   7.887 -0.6069  1.2355 -0.4322
  279MOL0     H37643   5.186  -0.839   7.616  0.5835  2.9654  0.6994
  279MOL0     H37644   5.062  -0.823   7.731 -0.3115  0.1658 -1.0220
  279MOL0     H37645   5.092  -1.031   7.775 -0.1565 -0.5656  2.9967
  279MOL0     H37646   5.184  -0.975   7.902 -5.6366  4.9899 -0.5748
  279MOL0     H37647   5.629  -0.487   8.242  0.6774 -3.2651  3.1505
  279MOL0     H37648   5.791  -0.468   8.415  0.0806 -0.0937 -0.2871
  279MOL0     H37649   6.299  -0.275   8.380 -1.6706  1.6623 -0.0147
  279MOL0     H37650   6.502  -0.217   8.500  0.1153 -0.5157 -0.6851
  279MOL0     H37651   5.979   0.297   8.081 -0.4528 -1.6660 -1.7173
  279MOL0     H37652   5.763   0.365   8.199  2.3636  0.9984 -4.3426
  279MOL0     H37653   5.537   0.195   8.627 -1.8597 -0.3060  2.6256
  279MOL0     H37654   5.372   0.243   8.801 -0.3552  1.3890  0.5771
  279MOL0     H37655   5.179   0.274   8.895  2.6202 -0.4576 -0.1443
  279MOL0     H37656   5.260   0.428   8.941 -0.3152 -0.0002  1.5961
  279MOL0     H37657   4.969   0.415   8.908 -1.6182  0.9898  2.4641
  279MOL0     H37658   5.074   0.558   8.943 -0.5459  0.5862  0.4323
  279MOL0     H37659   5.151   0.426   9.151  0.2057  0.2504 -0.7708
  279MOL0     H37660   5.023   0.309   9.102  1.0650  0.8181 -2.9035
  279MOL0     H37661   4.969   0.599   9.171 -0.7680  0.4309  0.9379
  279MOL0     H37662   4.960   0.475   9.300 -2.8553 -0.2052  0.7054
  279MOL0     H37663   4.596   0.431   9.089 -0.9278  2.0479  2.2269
  279MOL0     H37664   5.165   0.478   8.514  0.6794  0.1572 -0.8104
  279MOL0     H37665   5.327   0.412   8.326 -2.3872  0.5987  1.0375
  280MOL0     O37666   7.447   3.024   0.976 -0.1819 -0.5201 -1.2072
  280MOL0     C37667   7.440   2.994   0.859  0.8290  0.2703  0.9499
  280MOL0     O37668   7.326   2.926   0.804 -0.2977  0.2568  0.3431
  280MOL0     C37669   7.225   2.887   0.891  0.2171  1.0297  0.0806
  280MOL0     C37670   7.241   2.839   1.017 -0.5131 -0.8180 -1.0913
  280MOL0     C37671   7.127   2.824   1.101 -0.0648  0.0019 -0.2935
  280MOL0     C37672   6.991   2.845   1.052  0.2437 -0.2736 -0.7407
  280MOL0     O37673   6.898   2.822   1.143  0.5545  0.6031  0.4061
  280MOL0     C37674   6.781   2.905   1.120  0.4661 -0.7580  0.8757
  280MOL0     C37675   6.684   2.887   1.240  0.2742 -0.3691  0.4124
  280MOL0     C37676   6.546   2.955   1.229  0.3674 -0.2642  0.5094
  280MOL0     C37677   6.447   2.887   1.330 -0.7660 -0.8358  0.8074
  280MOL0     C37678   6.302   2.955   1.347  0.9875 -0.7542  0.4075
  280MOL0     C37679   6.278   3.038   1.468  0.4527 -0.0170  0.7571
  280MOL0     C37680   6.161   3.137   1.464 -1.0971  0.2096 -0.4166
  280MOL0     C37681   6.038   3.088   1.542 -0.9085  0.0266 -0.4398
  280MOL0     N37682   5.913   3.170   1.527  0.1931 -0.1628  0.7101
  280MOL0     C37683   5.828   3.127   1.432  0.3940  0.7257  0.0378
  280MOL0     C37684   5.727   3.216   1.437  0.2876  0.2904  0.1934
  280MOL0     C37685   5.601   3.212   1.346 -0.0871 -0.7971 -0.7480
  280MOL0     C37686   5.512   3.093   1.395 -0.0133 -0.3655 -0.2485
  280MOL0     C37687   5.440   3.131   1.525 -0.7240 -0.1437  0.4014
  280MOL0     C37688   5.359   3.263   1.527 -0.6470  0.3540  0.1533
  280MOL0     O37689   5.288   3.261   1.403  0.5547  0.4164  0.3094
  280MOL0     C37690   5.197   3.368   1.369  0.3692  0.2650  0.6474
  280MOL0     C37691   5.143   3.382   1.243 -0.3336  0.5102 -0.3720
  280MOL0     C37692   5.046   3.480   1.207 -0.6575  0.8487  0.7965
  280MOL0     C37693   4.993   3.488   1.069 -0.5760 -0.0424 -0.3527
  280MOL0     C37694   5.030   3.581   1.303  0.2221 -0.1110 -0.9928
  280MOL0     C37695   4.954   3.696   1.264 -0.1925  0.0175  0.3988
  280MOL0     O37696   5.028   3.807   1.237  0.1018  0.1903 -0.2438
  280MOL0     C37697   4.971   3.928   1.221 -0.4526 -0.8622  0.3825
  280MOL0     C37698   4.988   3.986   1.092 -0.2874 -0.6457 -0.2976
  280MOL0     C37699   4.951   4.126   1.072  0.5874  0.2185  0.5133
  280MOL0     C37700   4.897   4.195   1.177  0.3462 -0.1843  0.2984
  280MOL0     O37701   4.868   4.328   1.136 -0.5051  0.3152 -0.0534
  280MOL0     C37702   4.827   4.420   1.246  0.2957  0.3024 -0.3664
  280MOL0     C37703   4.787   4.548   1.183 -0.5863  0.7894  0.9962
  280MOL0     C37704   4.700   4.642   1.261 -1.1975  0.5614 -0.4762
  280MOL0     C37705   4.549   4.620   1.271  0.1711  0.3935 -0.6327
  280MOL0     C37706   4.471   4.749   1.302 -0.2250  0.5800  0.2147
  280MOL0     C37707   4.478   4.790   1.444  0.1712  0.2999  0.3357
  280MOL0     C37708   4.413   4.922   1.481 -0.2927 -0.0530  0.4877
  280MOL0     C37709   4.269   4.938   1.424  0.1130 -0.0377 -0.4782
  280MOL0    Cl37710   4.170   4.811   1.493  0.0665  0.3636  0.6164
  280MOL0     C37711   4.876   4.132   1.302  0.1506 -0.1082  0.0035
  280MOL0     C37712   4.916   4.003   1.323 -0.0518  0.7240  0.0574
  280MOL0     O37713   4.834   3.682   1.282 -0.0121 -0.1890 -0.3088
  280MOL0     C37714   5.077   3.569   1.435 -0.5494  0.0138 -0.6206
  280MOL0     C37715   5.156   3.457   1.462  0.2899 -0.6123  0.1342
  280MOL0     N37716   5.752   3.304   1.542 -0.3296  0.2583  1.0811
  280MOL0     N37717   5.871   3.280   1.586 -0.1937 -1.5112 -0.5005
  280MOL0     C37718   6.976   2.879   0.922  0.2092  0.3554 -0.0582
  280MOL0     C37719   7.086   2.905   0.840 -0.0376  0.6278  0.6179
  280MOL0     C37720   7.543   3.037   0.766 -0.0147  0.0040 -0.6785
  280MOL0     C37721   7.520   3.069   0.636  0.5026 -0.4720  0.4177
  280MOL0     C37722   7.619   3.105   0.540  0.3044 -0.6396 -0.1376
  280MOL0     C37723   7.752   3.126   0.584 -0.7520  0.3895 -0.0647
  280MOL0     O37724   7.849   3.170   0.492  0.0691  0.7042  0.3853
  280MOL0     C37725   7.945   3.083   0.436  0.8540 -1.1497 -0.1444
  280MOL0     C37726   7.957   3.111   0.290  0.2055 -0.4906 -0.7303
  280MOL0     C37727   8.054   3.013   0.228  0.3859  0.1409 -0.1537
  280MOL0     C37728   8.060   3.041   0.082  0.0068 -0.1499  0.1512
  280MOL0     C37729   8.165   2.967   0.021 -0.1650  1.3608  0.0056
  280MOL0     C37730   8.254   2.909  -0.048 -0.0421 -0.6329  0.3081
  280MOL0     C37731   7.773   3.066   0.710  0.2263  0.3068  0.1544
  280MOL0     C37732   7.675   3.034   0.800  0.6576 -0.3254  0.4129
  280MOL0     H37733   7.336   2.813   1.063  0.2777  2.0758 -0.8957
  280MOL0     H37734   7.146   2.769   1.193 -0.1109 -0.6138 -0.6427
  280MOL0     H37735   6.804   3.011   1.108 -0.7468 -0.6223 -0.6130
  280MOL0     H37736   6.734   2.867   1.028  3.5299  0.3035 -1.2914
  280MOL0     H37737   6.673   2.780   1.256 -0.9863  0.2275  4.5139
  280MOL0     H37738   6.730   2.934   1.327  2.8306 -3.5700  0.9420
  280MOL0     H37739   6.549   3.064   1.228  1.4755 -0.2827 -0.1175
  280MOL0     H37740   6.506   2.945   1.127 -3.1142  3.4412  1.2370
  280MOL0     H37741   6.427   2.781   1.312 -3.2634 -0.1229 -1.1660
  280MOL0     H37742   6.493   2.912   1.426 -0.8954  2.2212  0.1616
  280MOL0     H37743   6.280   3.009   1.254  1.2457 -2.5972 -0.7850
  280MOL0     H37744   6.231   2.872   1.346  0.5427 -0.4324 -1.7846
  280MOL0     H37745   6.274   2.958   1.543  5.4560 -2.1297 -0.7999
  280MOL0     H37746   6.365   3.101   1.488 -0.8108  2.8411 -1.9983
  280MOL0     H37747   6.191   3.231   1.510 -3.3686  1.2432 -0.9233
  280MOL0     H37748   6.137   3.157   1.359  0.8256  2.2801 -0.5525
  280MOL0     H37749   6.048   3.092   1.651 -1.9177  2.6199 -0.3846
  280MOL0     H37750   6.017   2.989   1.500 -0.3459  0.0759 -0.8408
  280MOL0     H37751   5.836   3.048   1.358 -3.0844 -1.2318  1.4864
  280MOL0     H37752   5.546   3.307   1.337  2.5272  0.7928 -0.8006
  280MOL0     H37753   5.628   3.193   1.241  1.4571 -0.0304 -0.5064
  280MOL0     H37754   5.562   2.998   1.416 -3.2443 -1.8188  1.5083
  280MOL0     H37755   5.432   3.069   1.326 -0.3577 -1.7800  0.6033
  280MOL0     H37756   5.517   3.134   1.603 -0.6473  1.9865  0.2759
  280MOL0     H37757   5.371   3.049   1.551 -1.9965 -0.3607 -3.1821
  280MOL0     H37758   5.413   3.358   1.533  0.0066 -0.1044  2.3044
  280MOL0     H37759   5.290   3.259   1.611 -1.6187 -0.5764 -0.6504
  280MOL0     H37760   5.188   3.320   1.167 -1.8161  1.6434 -2.2568
  280MOL0     H37761   4.883   3.487   1.072 -0.5607 -0.9754  0.7062
  280MOL0     H37762   5.032   3.581   1.028  0.7846 -0.3713  0.1428
  280MOL0     H37763   5.027   3.399   1.015  1.5352  0.3854  0.1992
  280MOL0     H37764   5.015   3.922   1.009 -2.6011 -0.7300 -1.0646
  280MOL0     H37765   4.956   4.172   0.974  3.1007  1.5400  1.1845
  280MOL0     H37766   4.743   4.378   1.302  0.1623 -0.4288 -1.0904
  280MOL0     H37767   4.912   4.437   1.313 -0.6057  2.0934  0.3721
  280MOL0     H37768   4.878   4.602   1.157 -1.1970  0.5231 -2.1700
  280MOL0     H37769   4.734   4.525   1.090  3.1840  0.8735 -1.3804
  280MOL0     H37770   4.707   4.744   1.221 -0.5879  1.0613  0.8299
  280MOL0     H37771   4.746   4.660   1.359 -1.7021 -0.9721  0.0714
  280MOL0     H37772   4.529   4.586   1.169  2.2818 -2.3214 -0.2494
  280MOL0     H37773   4.531   4.534   1.336 -2.6847 -0.4001 -2.3046
  280MOL0     H37774   4.371   4.734   1.260  0.4766  2.4004 -2.2840
  280MOL0     H37775   4.508   4.830   1.240 -2.1579  0.1280 -1.6685
  280MOL0     H37776   4.437   4.710   1.507  0.7597  1.8673  2.8592
  280MOL0     H37777   4.585   4.795   1.462  0.7677  1.7659 -2.9449
  280MOL0     H37778   4.470   5.009   1.449 -1.6270  1.6085  2.3871
  280MOL0     H37779   4.412   4.952   1.586  0.9292 -1.4586  0.9331
  280MOL0     H37780   4.269   4.931   1.314 -0.4461 -1.5696 -0.4042
  280MOL0     H37781   4.217   5.028   1.459 -1.2537 -1.2587  0.7486
  280MOL0     H37782   4.825   4.180   1.384 -2.5845 -1.7822 -0.5981
  280MOL0     H37783   4.921   3.950   1.417  0.8486 -4.7358 -2.6968
  280MOL0     H37784   5.053   3.647   1.506 -2.3057  2.8209 -4.0261
  280MOL0     H37785   5.206   3.457   1.558  0.4271  1.1500  0.0884
  280MOL0     H37786   6.885   2.893   0.865  0.8047 -0.5800 -1.2994
  280MOL0     H37787   7.048   2.944   0.746  0.5045  1.2288  0.6393
  280MOL0     H37788   7.419   3.062   0.596  0.8706 -1.2222 -0.4321
  280MOL0     H37789   7.583   3.117   0.438 -4.6484  0.1152  1.4392
  280MOL0     H37790   8.039   3.102   0.489  0.0304 -1.7894  1.6127
  280MOL0     H37791   7.906   2.986   0.466 -0.8175  0.4049  3.2291
  280MOL0     H37792   7.977   3.218   0.279 -0.4897 -0.1682  0.8909
  280MOL0     H37793   7.858   3.098   0.244  0.6304 -1.6718 -1.3714
  280MOL0     H37794   8.027   2.909   0.251 -1.8463  0.7341  0.1374
  280MOL0     H37795   8.152   3.037   0.271  1.3241  2.2811 -3.2144
  280MOL0     H37796   8.073   3.150   0.074 -0.0823  0.3226  4.2066
  280MOL0     H37797   7.967   3.002   0.042  0.9040 -0.8716 -1.2839
  280MOL0     H37798   8.337   2.864  -0.098  0.6623  2.1655 -1.2474
  280MOL0     H37799   7.873   3.040   0.744 -0.2443 -1.5496  0.2734
  280MOL0     H37800   7.703   3.011   0.902  0.0570 -0.7273  0.4907
  281MOL0     O37801   8.977   9.896   4.593 -0.2996  0.3539 -0.2844
  281MOL0     C37802   8.921   9.787   4.609  0.0865 -0.3956 -0.1040
  281MOL0     O37803   8.880   9.735   4.726  0.1965  0.0173 -0.5598
  281MOL0     C37804   8.892   9.782   4.855 -0.3784 -0.2847 -0.3870
  281MOL0     C37805   8.852   9.693   4.952  0.2195  0.2277 -0.6760
  281MOL0     C37806   8.864   9.716   5.092 -0.1817 -0.8969 -0.2468
  281MOL0     C37807   8.915   9.845   5.124  0.7993 -0.5677  1.0684
  281MOL0     O37808   8.938   9.888   5.247 -0.3277  0.3411  0.2832
  281MOL0     C37809   8.821   9.959   5.308  0.5474  1.0100  0.5652
  281MOL0     C37810   8.843  10.001   5.457 -0.8863 -0.5951  0.8522
  281MOL0     C37811   8.756  10.105   5.518  0.2840 -0.8046  0.5259
  281MOL0     C37812   8.730  10.221   5.420  0.5338 -0.2449  0.1401
  281MOL0     C37813   8.849  10.301   5.368  0.1274 -0.4510 -0.2672
  281MOL0     C37814   8.905  10.401   5.462  0.6463 -0.5108 -0.5456
  281MOL0     C37815   9.015  10.487   5.397  0.4118 -0.2320  0.1030
  281MOL0     C37816   9.054  10.595   5.491 -0.3573 -0.5358 -0.2947
  281MOL0     N37817   8.958  10.710   5.499 -0.5837  0.4122  0.5299
  281MOL0     C37818   8.945  10.800   5.405  0.8513  0.7200 -0.4744
  281MOL0     C37819   8.888  10.910   5.465  0.0237 -0.0762 -0.7292
  281MOL0     C37820   8.881  11.051   5.411 -0.3011  0.0546  0.3382
  281MOL0     C37821   8.963  11.145   5.492  0.1998  0.2227  0.4009
  281MOL0     C37822   8.937  11.292   5.444 -0.1531  0.1268 -0.1471
  281MOL0     C37823   9.046  11.384   5.490 -0.3136 -0.3266 -0.7374
  281MOL0     O37824   9.177  11.370   5.410  0.5937 -0.1536 -0.2985
  281MOL0     C37825   9.197  11.492   5.337 -0.3300  1.4281  0.5326
  281MOL0     C37826   9.108  11.565   5.253 -0.2157  0.6848  0.8830
  281MOL0     C37827   9.155  11.683   5.187 -0.1200 -0.0286 -0.9789
  281MOL0     C37828   9.058  11.759   5.104  0.2653  0.4535  0.4876
  281MOL0     C37829   9.288  11.722   5.195 -0.4009 -0.6741  0.2904
  281MOL0     C37830   9.356  11.838   5.115  0.4094 -0.0295 -0.8934
  281MOL0     O37831   9.446  11.908   5.188  0.2781  0.0392 -0.4521
  281MOL0     C37832   9.528  12.003   5.124  0.4454  1.5699  0.3017
  281MOL0     C37833   9.662  11.974   5.111 -0.1443 -0.2725 -0.0958
  281MOL0     C37834   9.751  12.068   5.061  0.2459  0.5713 -0.2397
  281MOL0     C37835   9.710  12.191   5.009  0.6386 -0.3981  0.1962
  281MOL0     O37836   9.801  12.284   4.962  0.4264  0.2901 -0.0056
  281MOL0     C37837   9.918  12.220   4.894  0.0261  0.7612 -0.9334
  281MOL0     C37838   9.987  12.328   4.809 -0.6916  0.5828  0.7589
  281MOL0     C37839  10.139  12.301   4.804  0.6202  0.0096 -0.5783
  281MOL0     C37840  10.207  12.424   4.734  1.1146 -0.8736  0.6816
  281MOL0     C37841  10.359  12.406   4.745 -0.7072  0.0359  0.1627
  281MOL0     C37842  10.425  12.510   4.658 -1.4295  0.8632  0.2995
  281MOL0     C37843  10.586  12.523   4.694  1.0386  0.8605  0.9658
  281MOL0     C37844  10.616  12.577   4.837 -0.5706 -0.4120  0.4915
  281MOL0    Cl37845  10.787  12.578   4.864 -0.2319  0.2320 -0.2726
  281MOL0     C37846   9.571  12.212   5.019 -0.4320 -0.8305 -0.5721
  281MOL0     C37847   9.480  12.120   5.068 -0.6362 -0.0584 -0.0031
  281MOL0     O37848   9.331  11.842   4.999  0.5904 -0.1526  0.6702
  281MOL0     C37849   9.378  11.643   5.270 -0.1727 -0.0874 -1.0894
  281MOL0     C37850   9.325  11.536   5.337  0.0558  0.0441 -0.2010
  281MOL0     N37851   8.870  10.876   5.596  0.3343  0.2618 -0.6359
  281MOL0     N37852   8.903  10.757   5.610  1.1054  0.0681 -0.2021
  281MOL0     C37853   8.953   9.929   5.022  0.2627 -0.0076  0.1696
  281MOL0     C37854   8.939   9.906   4.891 -0.3685 -0.7312  0.1396
  281MOL0     C37855   8.889   9.706   4.486  0.5520 -0.9593  0.3264
  281MOL0     C37856   8.904   9.763   4.352 -0.2488  0.4200  0.2602
  281MOL0     C37857   8.902   9.675   4.247 -0.8964  0.3380  0.1099
  281MOL0     C37858   8.861   9.543   4.268 -0.4479  0.3906  0.2365
  281MOL0     O37859   8.843   9.475   4.151 -0.1283  0.4432 -0.3822
  281MOL0     C37860   8.755   9.364   4.136 -0.2460 -0.4054  0.0613
  281MOL0     C37861   8.749   9.316   3.995 -0.6922  0.6804 -0.0008
  281MOL0     C37862   8.703   9.420   3.884  0.2266  0.3323  0.2433
  281MOL0     C37863   8.581   9.497   3.916  0.8049  0.7513  0.1064
  281MOL0     C37864   8.462   9.417   3.950  0.2031 -0.9484  0.5043
  281MOL0     C37865   8.357   9.356   3.951 -1.3104  0.3176 -0.4163
  281MOL0     C37866   8.832   9.492   4.391  0.5313  0.4440 -0.0805
  281MOL0     C37867   8.851   9.571   4.504 -0.4355  0.4588 -0.4330
  281MOL0     H37868   8.816   9.602   4.906 -0.9989 -0.1050  0.8863
  281MOL0     H37869   8.832   9.656   5.176  0.5036  0.7357  1.2555
  281MOL0     H37870   8.800  10.051   5.252 -0.7671  0.4800  0.1376
  281MOL0     H37871   8.734   9.894   5.299  0.3373  1.4777 -1.3681
  281MOL0     H37872   8.830   9.911   5.517  3.3204 -2.0845 -0.1470
  281MOL0     H37873   8.945  10.038   5.474 -1.1174  0.5428 -0.0937
  281MOL0     H37874   8.659  10.059   5.542 -0.3894  0.1312 -0.3015
  281MOL0     H37875   8.794  10.139   5.614 -0.4652  0.0732  0.5279
  281MOL0     H37876   8.681  10.185   5.329 -0.2873 -3.6388  1.7562
  281MOL0     H37877   8.656  10.292   5.461  0.6751 -0.4319  0.7349
  281MOL0     H37878   8.938  10.240   5.351  0.4504 -0.3459  0.9968
  281MOL0     H37879   8.829  10.356   5.275  0.6296  1.5994  0.7819
  281MOL0     H37880   8.826  10.466   5.500  0.6841 -0.4203 -0.6222
  281MOL0     H37881   8.948  10.349   5.547  0.2665  0.6423  0.3729
  281MOL0     H37882   9.096  10.415   5.379  0.7340  0.0209  0.5377
  281MOL0     H37883   8.970  10.528   5.306 -0.3647 -0.4811  0.3719
  281MOL0     H37884   9.148  10.638   5.454 -0.5436 -1.0444 -1.4005
  281MOL0     H37885   9.062  10.574   5.598 -1.2565  1.6553  0.2581
  281MOL0     H37886   8.988  10.796   5.305  2.7894 -1.3276  0.3505
  281MOL0     H37887   8.902  11.071   5.305 -0.5689  3.0704  0.7777
  281MOL0     H37888   8.776  11.079   5.425 -0.4296  0.1533 -0.7116
  281MOL0     H37889   9.069  11.119   5.477  0.2994  1.0587 -0.5032
  281MOL0     H37890   8.935  11.125   5.595  3.0136  1.0231  1.4188
  281MOL0     H37891   8.848  11.328   5.496  1.0346  2.1129  0.6547
  281MOL0     H37892   8.927  11.307   5.336  0.9146  1.0522 -0.1369
  281MOL0     H37893   9.061  11.384   5.599  1.1620  5.3492 -0.6197
  281MOL0     H37894   8.997  11.481   5.485  0.1645 -0.0391  0.0025
  281MOL0     H37895   9.001  11.547   5.240 -0.2229 -1.1848  2.9760
  281MOL0     H37896   9.050  11.861   5.143 -2.0883  0.0226  1.2989
  281MOL0     H37897   9.085  11.766   4.998 -0.7683 -0.8826  0.1086
  281MOL0     H37898   8.957  11.717   5.106 -0.0185  1.1172  2.6964
  281MOL0     H37899   9.704  11.888   5.161 -1.9171 -0.7625  0.6367
  281MOL0     H37900   9.853  12.033   5.059 -0.4147 -1.7805  2.1704
  281MOL0     H37901  10.001  12.187   4.957  0.6156  1.2335 -1.4419
  281MOL0     H37902   9.890  12.138   4.828 -0.2250 -0.1990  0.3168
  281MOL0     H37903   9.942  12.334   4.710  2.4699  3.0134 -0.7123
  281MOL0     H37904   9.975  12.424   4.859  0.6342 -0.6384  3.7083
  281MOL0     H37905  10.167  12.213   4.745  0.5073  1.2053 -2.4951
  281MOL0     H37906  10.172  12.297   4.909  0.5288 -2.2928 -0.5959
  281MOL0     H37907  10.166  12.435   4.633 -4.2234  0.9085  2.6766
  281MOL0     H37908  10.173  12.514   4.786 -2.2248 -0.8795 -1.1646
  281MOL0     H37909  10.373  12.308   4.698 -1.1467 -0.0638  0.2335
  281MOL0     H37910  10.384  12.404   4.851  0.3449  2.8815  0.0491
  281MOL0     H37911  10.404  12.475   4.557 -4.2891  0.4958  0.9596
  281MOL0     H37912  10.393  12.614   4.666 -4.0014  0.3724 -2.2326
  281MOL0     H37913  10.640  12.575   4.614  1.2987 -0.0001  0.5698
  281MOL0     H37914  10.611  12.417   4.702 -1.4649  0.1699  0.5278
  281MOL0     H37915  10.566  12.520   4.915 -0.0096 -1.4879  0.0899
  281MOL0     H37916  10.586  12.682   4.845 -0.9942  0.1502 -4.8160
  281MOL0     H37917   9.521  12.303   4.989  0.6079  0.7121  1.9825
  281MOL0     H37918   9.375  12.148   5.066 -1.6180 -3.2364  0.8816
  281MOL0     H37919   9.486  11.657   5.279 -0.3806  0.9150  0.2412
  281MOL0     H37920   9.390  11.478   5.401  2.6617  1.3421 -1.5258
  281MOL0     H37921   8.989  10.027   5.051 -1.7261  2.1071 -3.6855
  281MOL0     H37922   8.966   9.990   4.827 -0.2618  0.3849  1.5970
  281MOL0     H37923   8.952   9.860   4.343 -0.3180  0.5521  1.1753
  281MOL0     H37924   8.929   9.708   4.147  0.4035  3.6167  1.3900
  281MOL0     H37925   8.800   9.284   4.196  0.5099  0.7659  1.1013
  281MOL0     H37926   8.654   9.374   4.179 -2.0399 -1.1191 -3.6114
  281MOL0     H37927   8.677   9.234   3.989 -0.0720  0.2171 -2.1011
  281MOL0     H37928   8.844   9.269   3.969 -2.7919 -3.4248 -1.1877
  281MOL0     H37929   8.683   9.371   3.789 -1.3336  2.7410 -0.7555
  281MOL0     H37930   8.780   9.495   3.863 -1.1764  1.5161 -0.7951
  281MOL0     H37931   8.560   9.572   3.839  0.5328  3.3371  2.5130
  281MOL0     H37932   8.605   9.556   4.005  1.8583  0.7168 -0.1434
  281MOL0     H37933   8.264   9.303   3.962 -0.6852 -0.6053  0.6506
  281MOL0     H37934   8.799   9.388   4.395  2.1931 -0.1348 -0.5854
  281MOL0     H37935   8.850   9.521   4.600  1.3688  0.6454 -0.2807
  282MOL0     O37936   2.990   6.393   8.129  0.6795  0.3147 -0.9102
  282MOL0     C37937   2.978   6.274   8.096  0.4455  0.8095  0.2991
  282MOL0     O37938   3.067   6.207   8.021 -0.1187 -0.2834  0.2980
  282MOL0     C37939   3.198   6.237   8.022 -0.6866 -0.5024  0.3318
  282MOL0     C37940   3.247   6.305   7.905 -1.1474  0.0684 -0.2622
  282MOL0     C37941   3.379   6.338   7.898  1.3427  0.2764 -0.0438
  282MOL0     C37942   3.467   6.293   7.992 -0.1106 -0.5826 -0.4805
  282MOL0     O37943   3.598   6.322   7.954  0.2367  1.0039  0.2797
  282MOL0     C37944   3.701   6.251   8.027  0.0202  0.3735 -0.4372
  282MOL0     C37945   3.850   6.274   7.997 -0.4386 -1.0008  0.1636
  282MOL0     C37946   3.928   6.208   8.110  0.1200  0.2701 -0.2596
  282MOL0     C37947   4.074   6.204   8.076 -0.1711  0.0531 -0.3972
  282MOL0     C37948   4.173   6.173   8.193  0.1489  0.1864 -0.5268
  282MOL0     C37949   4.320   6.181   8.160  0.8531 -0.1734 -0.2192
  282MOL0     C37950   4.369   6.061   8.077 -0.8276  0.2584  0.1647
  282MOL0     C37951   4.467   6.106   7.974 -0.5428  0.0047  0.1534
  282MOL0     N37952   4.508   5.991   7.895 -0.4526 -0.5590  0.1388
  282MOL0     C37953   4.423   5.927   7.801  0.3044 -0.3843  0.0506
  282MOL0     C37954   4.500   5.827   7.753 -0.6686  0.1928  0.7005
  282MOL0     C37955   4.468   5.714   7.656  0.1468  0.1102  0.1501
  282MOL0     C37956   4.572   5.695   7.550 -0.9940  0.5522 -0.0220
  282MOL0     C37957   4.518   5.681   7.411 -0.6683 -0.4491 -0.5606
  282MOL0     C37958   4.440   5.538   7.409  0.6193  0.0179  0.0626
  282MOL0     O37959   4.394   5.529   7.269  0.5547 -0.0170  0.0345
  282MOL0     C37960   4.310   5.425   7.231  0.2906  0.7883  0.9054
  282MOL0     C37961   4.238   5.435   7.115  0.3242  0.2756 -0.8004
  282MOL0     C37962   4.139   5.335   7.078  0.2688  0.6919 -0.0629
  282MOL0     C37963   4.048   5.361   6.956  0.1033  0.3771  0.2553
  282MOL0     C37964   4.104   5.222   7.162 -0.3313 -0.8984 -0.1541
  282MOL0     C37965   4.006   5.113   7.145 -0.2472 -0.2620  0.0050
  282MOL0     O37966   3.958   5.063   7.259  0.5134  0.0386 -0.2746
  282MOL0     C37967   3.866   4.965   7.247 -0.5980 -0.1428 -0.0822
  282MOL0     C37968   3.726   4.989   7.253 -0.7011  0.4488 -0.3246
  282MOL0     C37969   3.637   4.877   7.255 -0.5648 -0.5538  0.0526
  282MOL0     C37970   3.678   4.743   7.255 -0.4336 -0.0614 -0.0560
  282MOL0     O37971   3.586   4.638   7.271 -0.2858  0.1013  0.1455
  282MOL0     C37972   3.574   4.558   7.147  0.8040  0.4773 -0.4266
  282MOL0     C37973   3.547   4.408   7.175 -0.1272 -0.0483 -0.2651
  282MOL0     C37974   3.585   4.332   7.048 -1.2280  0.5786  0.2251
  282MOL0     C37975   3.620   4.192   7.077 -0.0715  0.0690  0.0548
  282MOL0     C37976   3.666   4.106   6.955  0.2391  0.3708  0.0445
  282MOL0     C37977   3.719   3.970   7.011  1.2194  0.0969  0.5529
  282MOL0     C37978   3.604   3.887   7.095  0.1590 -0.2942  0.0444
  282MOL0     C37979   3.640   3.904   7.248  0.2910  0.4228 -0.7189
  282MOL0    Cl37980   3.523   3.808   7.358 -0.3357  0.2616 -0.2277
  282MOL0     C37981   3.817   4.719   7.241  0.0832  0.4284  0.5214
  282MOL0     C37982   3.906   4.835   7.231 -0.3573  0.3389  0.6028
  282MOL0     O37983   3.973   5.078   7.032  0.6884 -0.0541  0.3104
  282MOL0     C37984   4.178   5.224   7.280  0.3722 -0.6480 -0.6901
  282MOL0     C37985   4.276   5.315   7.316  0.2724 -0.6245 -0.9420
  282MOL0     N37986   4.624   5.832   7.812 -0.3909 -0.3649 -0.2453
  282MOL0     N37987   4.631   5.931   7.896  0.2870  0.6723  0.2470
  282MOL0     C37988   3.427   6.233   8.110 -0.5076 -0.4865  0.1105
  282MOL0     C37989   3.288   6.200   8.123 -0.2121 -1.0818  0.6114
  282MOL0     C37990   2.846   6.206   8.134 -0.2776 -0.0480 -0.4911
  282MOL0     C37991   2.745   6.287   8.176  1.2755 -0.4258 -0.5361
  282MOL0     C37992   2.636   6.219   8.239  0.8550 -1.0998 -0.0649
  282MOL0     C37993   2.623   6.081   8.242 -1.0245  0.0969  0.2917
  282MOL0     O37994   2.522   6.010   8.296  0.1316  0.0552  0.2220
  282MOL0     C37995   2.540   6.031   8.436  0.4213  0.1760  0.4127
  282MOL0     C37996   2.495   5.915   8.525 -0.1539 -1.0953  0.6944
  282MOL0     C37997   2.338   5.905   8.525 -0.6701  0.2924  0.3133
  282MOL0     C37998   2.292   5.794   8.627  0.5576 -0.2478 -0.0374
  282MOL0     C37999   2.313   5.659   8.570  0.0290 -1.5824  0.5533
  282MOL0     C38000   2.323   5.553   8.517  0.0429  0.5179  0.3563
  282MOL0     C38001   2.709   6.003   8.172 -0.7225  0.0026 -0.7511
  282MOL0     C38002   2.834   6.064   8.129  0.8493  0.5614  0.2578
  282MOL0     H38003   3.177   6.330   7.826 -0.8940  2.1476  0.1198
  282MOL0     H38004   3.422   6.388   7.811  1.7395 -1.2414 -0.7555
  282MOL0     H38005   3.688   6.278   8.132  2.7788 -0.2617  0.1426
  282MOL0     H38006   3.690   6.142   8.032  0.4610  0.3738  1.0873
  282MOL0     H38007   3.889   6.237   7.902  1.0265  0.9074 -0.0334
  282MOL0     H38008   3.871   6.381   7.997  1.2606 -1.3008  1.1442
  282MOL0     H38009   3.908   6.269   8.199 -0.6232 -1.4173  0.7820
  282MOL0     H38010   3.891   6.107   8.131 -0.0270  0.5495  0.9320
  282MOL0     H38011   4.073   6.126   7.999 -2.1854 -1.2360  0.8620
  282MOL0     H38012   4.104   6.295   8.023 -2.9474  0.3298 -1.6657
  282MOL0     H38013   4.142   6.251   8.263 -1.6404 -1.5377  0.6880
  282MOL0     H38014   4.144   6.073   8.225 -3.7757  0.9976 -0.9857
  282MOL0     H38015   4.329   6.270   8.098  1.0222  1.3603  1.9245
  282MOL0     H38016   4.374   6.178   8.255  2.2544  1.1462 -0.9258
  282MOL0     H38017   4.430   6.011   8.153  0.0613  3.0167  1.3919
  282MOL0     H38018   4.296   5.994   8.032  1.2279 -1.0287 -1.4286
  282MOL0     H38019   4.561   6.144   8.014  2.2483 -3.2872 -2.6599
  282MOL0     H38020   4.430   6.178   7.900 -0.2425 -2.1883 -2.2539
  282MOL0     H38021   4.319   5.938   7.773  0.1100  2.6674  1.6384
  282MOL0     H38022   4.458   5.627   7.721 -1.0521  0.4879  0.5133
  282MOL0     H38023   4.371   5.726   7.605  0.6969  4.8394 -0.2354
  282MOL0     H38024   4.624   5.601   7.565 -0.3948  1.0038  0.8652
  282MOL0     H38025   4.642   5.778   7.560 -1.2225  0.5343  2.4484
  282MOL0     H38026   4.603   5.678   7.344  1.0045 -0.8553  1.4781
  282MOL0     H38027   4.448   5.764   7.397 -0.4567 -0.3571 -1.0695
  282MOL0     H38028   4.348   5.546   7.469  0.5454  2.9956 -0.3042
  282MOL0     H38029   4.513   5.461   7.435  0.8118 -0.9327 -2.9413
  282MOL0     H38030   4.239   5.518   7.045 -5.3985  1.3017 -0.1584
  282MOL0     H38031   3.946   5.335   6.983 -0.7992  3.4188  0.1667
  282MOL0     H38032   4.061   5.462   6.916  1.9097  0.7077  1.5264
  282MOL0     H38033   4.080   5.281   6.889 -1.5380 -0.4304  0.4052
  282MOL0     H38034   3.708   5.095   7.264 -1.5830  0.2785 -0.0242
  282MOL0     H38035   3.530   4.890   7.241 -0.3633  1.1365 -0.1779
  282MOL0     H38036   3.489   4.604   7.096 -0.1894  0.6539  1.3065
  282MOL0     H38037   3.668   4.557   7.092  2.0639 -1.4629  1.5962
  282MOL0     H38038   3.608   4.382   7.262 -1.3539 -3.5648 -0.3258
  282MOL0     H38039   3.441   4.396   7.197  0.2764  0.3283  2.2585
  282MOL0     H38040   3.677   4.371   7.004 -1.2859 -0.6122 -1.0057
  282MOL0     H38041   3.498   4.335   6.981 -0.3904  1.0632 -0.8666
  282MOL0     H38042   3.703   4.193   7.149  1.9431 -0.3411 -2.1152
  282MOL0     H38043   3.533   4.139   7.116 -1.0462  0.0677 -1.9586
  282MOL0     H38044   3.739   4.163   6.898  0.9258 -2.2572 -1.9079
  282MOL0     H38045   3.574   4.092   6.898 -0.4893  0.1229  1.2397
  282MOL0     H38046   3.747   3.920   6.918  0.5342 -0.3940  0.6022
  282MOL0     H38047   3.806   3.986   7.076 -0.8934  1.6784  3.1916
  282MOL0     H38048   3.617   3.780   7.078 -1.0424  0.0266 -3.5310
  282MOL0     H38049   3.500   3.914   7.074  0.2749 -0.6415 -1.0346
  282MOL0     H38050   3.628   4.009   7.278  0.0156  0.3244 -0.4716
  282MOL0     H38051   3.737   3.865   7.281 -0.9301 -0.2045  2.5895
  282MOL0     H38052   3.838   4.614   7.258  0.5927 -0.1930 -3.1547
  282MOL0     H38053   4.013   4.822   7.242 -0.5758  0.2890  3.0578
  282MOL0     H38054   4.151   5.148   7.354 -1.8702  0.8823  0.2052
  282MOL0     H38055   4.322   5.302   7.413  0.2464  2.2301 -0.4628
  282MOL0     H38056   3.502   6.197   8.180 -0.6322 -0.9196  0.0284
  282MOL0     H38057   3.243   6.143   8.205 -1.4127  1.3040  1.7196
  282MOL0     H38058   2.750   6.395   8.181 -2.8927 -0.1125  0.0158
  282MOL0     H38059   2.556   6.274   8.287  0.5710 -0.9842 -0.6643
  282MOL0     H38060   2.645   6.044   8.463  0.3562 -0.5198  1.0111
  282MOL0     H38061   2.505   6.133   8.459  2.5415  0.7659  1.2375
  282MOL0     H38062   2.533   5.923   8.627  0.0303 -3.2735  0.8478
  282MOL0     H38063   2.537   5.824   8.480  4.3728  1.4139 -0.7951
  282MOL0     H38064   2.298   5.877   8.427 -0.8336  0.0564  0.4451
  282MOL0     H38065   2.293   6.003   8.544  1.2642  0.9073  2.2052
  282MOL0     H38066   2.184   5.809   8.632  0.6910  0.5601  4.2967
  282MOL0     H38067   2.336   5.800   8.727 -1.4797 -0.0548  0.9002
  282MOL0     H38068   2.336   5.458   8.469  0.1638  0.5786  0.2681
  282MOL0     H38069   2.687   5.897   8.171 -1.2693  0.0467  1.2874
  282MOL0     H38070   2.917   6.006   8.090  1.2592  1.8640 -0.8822
  283MOL0     O38071   1.917   4.422   7.461  0.1182 -0.8870  0.1421
  283MOL0     C38072   1.988   4.511   7.407 -0.3767  0.9161  0.4451
  283MOL0     O38073   1.963   4.645   7.408  0.6138  0.0935  1.0736
  283MOL0     C38074   1.862   4.690   7.494 -0.4722 -0.1280  0.9454
  283MOL0     C38075   1.838   4.643   7.625 -0.7957  0.4479 -0.2529
  283MOL0     C38076   1.717   4.674   7.694 -0.0467  1.3405 -0.5509
  283MOL0     C38077   1.627   4.771   7.648 -0.6231  0.4791  0.2045
  283MOL0     O38078   1.511   4.818   7.709  0.0186 -0.0914 -0.4659
  283MOL0     C38079   1.465   4.758   7.832 -0.1082 -0.4288  0.4587
  283MOL0     C38080   1.341   4.816   7.874  0.0098  0.2942 -0.3250
  283MOL0     C38081   1.286   4.723   7.975 -0.5792 -0.8505 -1.0816
  283MOL0     C38082   1.161   4.789   8.052  0.0482 -0.7887 -0.0152
  283MOL0     C38083   1.116   4.714   8.176  0.2600 -0.4601  0.2675
  283MOL0     C38084   1.129   4.562   8.162  0.3798  0.6093  0.1101
  283MOL0     C38085   1.089   4.495   8.298 -0.3449 -0.4545 -0.1240
  283MOL0     C38086   1.088   4.339   8.282 -0.0581 -0.7328 -1.1727
  283MOL0     N38087   1.078   4.275   8.413  0.4560 -0.4454  0.1154
  283MOL0     C38088   0.974   4.289   8.498  0.7107 -0.1747 -0.4835
  283MOL0     C38089   1.008   4.222   8.610  0.1564 -0.4946 -0.1359
  283MOL0     C38090   0.931   4.206   8.733  0.0738  0.6674 -0.4110
  283MOL0     C38091   0.796   4.130   8.725  0.4627  0.6400 -0.1358
  283MOL0     C38092   0.681   4.222   8.711 -0.7189 -0.3909  1.4522
  283MOL0     C38093   0.550   4.143   8.715 -0.8936 -0.3781 -0.4946
  283MOL0     O38094   0.544   4.047   8.605 -0.5351  0.1987  0.4913
  283MOL0     C38095   0.431   3.974   8.573 -0.5191  0.1807 -0.6886
  283MOL0     C38096   0.350   3.940   8.680  0.0980  0.0457 -1.1226
  283MOL0     C38097   0.236   3.861   8.646  0.0747 -0.8403  0.7251
  283MOL0     C38098   0.156   3.809   8.762 -0.5329 -0.3756  0.0636
  283MOL0     C38099   0.197   3.831   8.512 -0.2429  0.2517  0.0564
  283MOL0     C38100   0.072   3.767   8.465  0.8495  0.3425  1.0516
  283MOL0     O38101   0.048   3.776   8.328 -0.4038  0.2977 -0.1664
  283MOL0     C38102  -0.047   3.685   8.286 -0.1478  0.0410 -0.7543
  283MOL0     C38103  -0.020   3.545   8.265 -0.4043 -0.0955  1.0442
  283MOL0     C38104  -0.119   3.476   8.192 -0.4803  0.9289  0.6992
  283MOL0     C38105  -0.243   3.526   8.164 -0.6916  0.6096 -0.7136
  283MOL0     O38106  -0.327   3.437   8.099 -0.2929  0.2680  0.2072
  283MOL0     C38107  -0.466   3.478   8.080 -0.3841 -0.2711  1.1267
  283MOL0     C38108  -0.550   3.376   8.000 -0.7471 -0.6445 -0.3955
  283MOL0     C38109  -0.579   3.242   8.072  0.7344 -0.0059  0.9691
  283MOL0     C38110  -0.656   3.251   8.201  0.5790 -0.0503  0.2057
  283MOL0     C38111  -0.647   3.130   8.301 -0.5354 -0.3505 -0.2260
  283MOL0     C38112  -0.654   2.993   8.230 -0.4750 -0.0460  0.2216
  283MOL0     C38113  -0.806   2.975   8.176 -1.5141 -0.2624  0.7400
  283MOL0     C38114  -0.929   2.971   8.277 -0.0441 -0.1834 -0.1805
  283MOL0    Cl38115  -0.972   2.807   8.344 -0.2798  0.1135 -0.0671
  283MOL0     C38116  -0.276   3.658   8.201  0.8184  1.0219  0.0925
  283MOL0     C38117  -0.175   3.736   8.254  0.1611 -0.5265  0.0672
  283MOL0     O38118  -0.013   3.717   8.543 -0.1139 -0.8191  0.2810
  283MOL0     C38119   0.291   3.869   8.417  0.3022 -0.3556 -1.1514
  283MOL0     C38120   0.401   3.946   8.446 -0.0455  0.1455 -0.0212
  283MOL0     N38121   1.142   4.194   8.601  0.0073 -0.4767  1.3029
  283MOL0     N38122   1.177   4.215   8.477 -0.0840 -0.0744  0.6053
  283MOL0     C38123   1.662   4.827   7.527 -0.5509 -0.4319 -0.5888
  283MOL0     C38124   1.771   4.783   7.453  0.0602 -1.0070  0.1609
  283MOL0     C38125   2.109   4.476   7.327  0.0918 -0.2479  0.6766
  283MOL0     C38126   2.205   4.565   7.280 -0.5004  0.7044 -0.5481
  283MOL0     C38127   2.321   4.511   7.225  0.1259  0.3548 -0.2683
  283MOL0     C38128   2.348   4.374   7.220 -0.8814  0.4728  0.0555
  283MOL0     O38129   2.474   4.323   7.194 -0.3816  0.0081  0.3917
  283MOL0     C38130   2.543   4.388   7.093 -0.7694 -0.6126 -0.6364
  283MOL0     C38131   2.647   4.284   7.032 -0.4195  0.0440 -0.9860
  283MOL0     C38132   2.697   4.165   7.113  0.1309 -0.4986  0.1088
  283MOL0     C38133   2.753   4.191   7.249 -0.1488 -0.1906 -0.1379
  283MOL0     C38134   2.789   4.075   7.339  0.5298 -0.4774 -0.1708
  283MOL0     C38135   2.807   3.978   7.409 -0.5332 -0.1448  0.8177
  283MOL0     C38136   2.249   4.280   7.267 -0.0755 -0.3677  1.0093
  283MOL0     C38137   2.132   4.335   7.319  0.6571  0.3340  0.2929
  283MOL0     H38138   1.907   4.568   7.663 -1.9120 -0.2999  0.3770
  283MOL0     H38139   1.703   4.623   7.789 -2.2873 -0.6224 -1.8341
  283MOL0     H38140   1.456   4.651   7.813 -2.6908 -0.0121 -1.2563
  283MOL0     H38141   1.537   4.782   7.910 -1.9069 -1.9428  2.7350
  283MOL0     H38142   1.348   4.920   7.907  0.5410  0.2757 -0.3589
  283MOL0     H38143   1.276   4.817   7.786  1.2952  3.4559 -1.4218
  283MOL0     H38144   1.260   4.630   7.923 -2.5113 -0.3541 -1.0941
  283MOL0     H38145   1.371   4.712   8.042  0.7939  1.6062 -2.2835
  283MOL0     H38146   1.190   4.890   8.081 -0.3756 -0.6785  0.0303
  283MOL0     H38147   1.076   4.788   7.983  0.8711 -1.7191 -1.0457
  283MOL0     H38148   1.180   4.736   8.262  1.4995 -2.3967 -0.0869
  283MOL0     H38149   1.009   4.731   8.189 -0.2833 -4.9276  4.5815
  283MOL0     H38150   1.070   4.525   8.078 -0.2816  0.3646  0.6721
  283MOL0     H38151   1.233   4.538   8.139  0.6397 -3.1036  3.8893
  283MOL0     H38152   1.164   4.531   8.369 -2.4295  1.2393  1.3582
  283MOL0     H38153   0.999   4.539   8.341  0.6684  0.0939  1.5401
  283MOL0     H38154   1.170   4.310   8.216 -1.0174 -0.2397 -2.6237
  283MOL0     H38155   0.995   4.314   8.231 -0.7633 -0.4035 -0.0855
  283MOL0     H38156   0.882   4.345   8.483  1.0504  0.6336  0.4003
  283MOL0     H38157   0.998   4.148   8.798  0.2155  2.8362  1.4859
  283MOL0     H38158   0.916   4.304   8.778  2.5947  1.6222 -1.4331
  283MOL0     H38159   0.787   4.087   8.825 -0.1303 -0.3871 -0.6167
  283MOL0     H38160   0.795   4.058   8.643  2.9568  0.5498 -0.1638
  283MOL0     H38161   0.679   4.277   8.617 -1.1953  0.7717  2.1218
  283MOL0     H38162   0.681   4.302   8.786 -2.4630  2.7140 -1.5703
  283MOL0     H38163   0.469   4.214   8.695 -0.1799  1.0104  1.3001
  283MOL0     H38164   0.537   4.095   8.812 -0.0560 -0.2966 -0.3430
  283MOL0     H38165   0.368   3.959   8.785  0.9170  4.1959 -1.8327
  283MOL0     H38166   0.083   3.731   8.739  1.6226 -1.9984 -1.8200
  283MOL0     H38167   0.236   3.758   8.818 -0.5396 -0.3640  0.0839
  283MOL0     H38168   0.105   3.881   8.826 -0.8124 -0.0553 -0.5194
  283MOL0     H38169   0.069   3.493   8.300  0.7859  2.5518  2.1819
  283MOL0     H38170  -0.106   3.372   8.162 -0.3843  1.4076 -1.0098
  283MOL0     H38171  -0.503   3.503   8.180  1.3295  1.0832  1.4660
  283MOL0     H38172  -0.467   3.570   8.022 -1.7543 -1.3728 -0.7130
  283MOL0     H38173  -0.644   3.429   7.985  0.2534  2.8618  3.8759
  283MOL0     H38174  -0.493   3.351   7.910  0.8842  1.0391  0.1185
  283MOL0     H38175  -0.483   3.197   8.099  0.1825 -0.5944  2.0660
  283MOL0     H38176  -0.638   3.183   8.001 -0.5870 -1.1609  2.9099
  283MOL0     H38177  -0.627   3.341   8.255 -1.9187  1.2077 -0.4248
  283MOL0     H38178  -0.761   3.268   8.174  0.8451  1.5108  0.0911
  283MOL0     H38179  -0.718   3.144   8.383 -1.6796 -0.1051 -1.2295
  283MOL0     H38180  -0.550   3.135   8.350 -1.3930 -1.9950  1.7925
  283MOL0     H38181  -0.581   2.971   8.152 -0.4586 -1.3457  0.5859
  283MOL0     H38182  -0.628   2.921   8.308  1.7079  1.3637  0.8549
  283MOL0     H38183  -0.826   2.889   8.112 -2.4773  1.4259 -1.3834
  283MOL0     H38184  -0.813   3.062   8.109  1.4828 -1.5475 -1.4966
  283MOL0     H38185  -1.017   3.005   8.222  0.5141  1.6904 -0.0149
  283MOL0     H38186  -0.911   3.041   8.360 -3.0929  0.5662 -0.0309
  283MOL0     H38187  -0.374   3.698   8.177  0.8994  0.1941 -1.7288
  283MOL0     H38188  -0.189   3.843   8.260  0.6695 -0.4363 -0.2773
  283MOL0     H38189   0.285   3.832   8.315 -0.3581 -2.5269 -0.3974
  283MOL0     H38190   0.456   3.991   8.364  0.3444 -2.2386 -1.1423
  283MOL0     H38191   1.607   4.908   7.481  1.6219  1.6926  0.4061
  283MOL0     H38192   1.794   4.839   7.363 -1.0843  0.9824  1.0382
  283MOL0     H38193   2.182   4.672   7.280 -0.7308  0.7971  3.2801
  283MOL0     H38194   2.394   4.591   7.218 -0.8415  1.5419  2.1647
  283MOL0     H38195   2.469   4.431   7.026 -1.9955 -0.8621  0.5032
  283MOL0     H38196   2.589   4.472   7.147 -1.6384 -1.0319  0.8280
  283MOL0     H38197   2.735   4.344   7.010 -2.1377  2.9996 -0.3204
  283MOL0     H38198   2.613   4.238   6.939  1.1011  1.5760 -2.3653
  283MOL0     H38199   2.781   4.118   7.062  0.6760  0.7581 -0.1735
  283MOL0     H38200   2.621   4.089   7.136  0.4535 -0.4757  1.3252
  283MOL0     H38201   2.690   4.255   7.312 -0.0367  0.2996 -0.5231
  283MOL0     H38202   2.848   4.244   7.235  0.1002 -0.3547  0.8269
  283MOL0     H38203   2.816   3.888   7.465 -0.5215 -1.0606 -0.5933
  283MOL0     H38204   2.263   4.173   7.258 -5.9333 -1.2361 -2.5876
  283MOL0     H38205   2.052   4.265   7.343  2.1867 -1.5467  0.1629
  284MOL0     O38206   6.764   4.392   7.637 -0.8464  0.0212 -0.1655
  284MOL0     C38207   6.734   4.276   7.663 -1.7205  0.8306  0.1444
  284MOL0     O38208   6.616   4.230   7.702 -0.6572  0.1939 -0.4799
  284MOL0     C38209   6.513   4.319   7.737  0.3030  1.2542  0.9191
  284MOL0     C38210   6.387   4.260   7.709 -0.5154  0.3410 -0.1254
  284MOL0     C38211   6.271   4.317   7.766 -0.3473  0.9383 -0.8167
  284MOL0     C38212   6.279   4.438   7.826  0.4563  0.1677 -0.3479
  284MOL0     O38213   6.172   4.498   7.880  0.0805 -0.5807 -0.6294
  284MOL0     C38214   6.127   4.624   7.828 -0.1163 -0.0183  0.0837
  284MOL0     C38215   5.984   4.648   7.878 -0.0273 -0.1740  0.0048
  284MOL0     C38216   5.974   4.626   8.030 -0.7693  0.1042  0.8039
  284MOL0     C38217   6.054   4.740   8.095 -0.1986 -0.0326  0.1235
  284MOL0     C38218   5.987   4.768   8.233 -0.5809  0.0021 -0.1058
  284MOL0     C38219   6.051   4.893   8.276  0.7086  0.1123  0.2920
  284MOL0     C38220   6.010   4.912   8.420  0.2113  0.0576 -0.2592
  284MOL0     C38221   6.079   5.032   8.493  0.1986 -0.0748  0.7100
  284MOL0     N38222   6.054   5.145   8.402  0.1983 -0.7651  0.1684
  284MOL0     C38223   6.149   5.227   8.360 -0.1536 -0.4083 -0.4742
  284MOL0     C38224   6.090   5.345   8.343  0.0769  0.3320  1.3225
  284MOL0     C38225   6.148   5.485   8.310  0.0233  0.1801  0.4495
  284MOL0     C38226   6.085   5.579   8.213  0.1100 -0.0633  0.1898
  284MOL0     C38227   6.012   5.695   8.279  0.6306  0.2326 -0.2114
  284MOL0     C38228   5.951   5.798   8.180  0.0759  0.5939 -0.0392
  284MOL0     O38229   6.064   5.861   8.119 -0.3239 -0.2150  0.6617
  284MOL0     C38230   6.055   5.921   7.998  0.5627 -0.1633 -0.0998
  284MOL0     C38231   6.136   5.898   7.892  0.5627 -0.3975 -0.1963
  284MOL0     C38232   6.141   5.974   7.773 -0.7936 -0.5619 -0.5522
  284MOL0     C38233   6.257   5.951   7.676 -0.7271 -0.3740  1.2285
  284MOL0     C38234   6.043   6.078   7.753  0.5556 -0.0670 -0.1948
  284MOL0     C38235   6.031   6.156   7.632 -0.8664  0.3026  0.2022
  284MOL0     O38236   5.950   6.263   7.636  0.7721 -0.0735  0.3918
  284MOL0     C38237   5.923   6.324   7.513  0.6342 -0.5552 -0.2720
  284MOL0     C38238   6.015   6.391   7.442 -0.5813  0.4754  0.6679
  284MOL0     C38239   5.994   6.436   7.310 -0.0641  0.1622 -1.1839
  284MOL0     C38240   5.870   6.417   7.259  0.4723  0.5990 -0.2688
  284MOL0     O38241   5.866   6.430   7.120 -0.4795  0.5371  0.6373
  284MOL0     C38242   5.738   6.434   7.063  0.5221 -0.2627 -0.3252
  284MOL0     C38243   5.751   6.449   6.917  0.1588 -0.4027 -0.0297
  284MOL0     C38244   5.619   6.463   6.849  0.4977  0.5170 -0.0565
  284MOL0     C38245   5.644   6.475   6.700  0.9608  0.2189 -0.3570
  284MOL0     C38246   5.519   6.476   6.620  0.1917 -0.4968 -0.6627
  284MOL0     C38247   5.530   6.512   6.476  0.0904 -0.1478  0.0578
  284MOL0     C38248   5.403   6.513   6.390  0.5679  0.4334  0.2191
  284MOL0     C38249   5.414   6.541   6.240  0.2487  0.2929  0.3128
  284MOL0    Cl38250   5.561   6.453   6.183  0.0219  0.3257  0.4114
  284MOL0     C38251   5.765   6.368   7.338  0.9206 -0.2972  0.6072
  284MOL0     C38252   5.789   6.323   7.467  0.3808  0.0130 -0.3003
  284MOL0     O38253   6.104   6.131   7.539  0.0881 -0.4439  0.3578
  284MOL0     C38254   5.953   6.095   7.863  0.2748 -0.2619  0.5579
  284MOL0     C38255   5.951   6.022   7.985 -0.6575 -0.0052 -0.2882
  284MOL0     N38256   5.955   5.325   8.364  0.7272 -0.1808  0.6756
  284MOL0     N38257   5.932   5.205   8.395  0.0056 -0.8815  0.1084
  284MOL0     C38258   6.396   4.505   7.839 -0.6595  0.5937 -0.3188
  284MOL0     C38259   6.515   4.439   7.802  0.0454 -0.5881 -1.0055
  284MOL0     C38260   6.850   4.180   7.653  0.5687  0.3009 -0.7129
  284MOL0     C38261   6.838   4.063   7.723  0.2262  0.1005  0.3991
  284MOL0     C38262   6.937   3.973   7.728 -0.2384 -0.4100 -0.9219
  284MOL0     C38263   7.063   4.003   7.669  0.2557  0.2299  0.1061
  284MOL0     O38264   7.165   3.923   7.707 -0.0486 -0.2718  0.4849
  284MOL0     C38265   7.302   3.972   7.688 -0.3960  0.1789 -0.1817
  284MOL0     C38266   7.366   3.922   7.559  0.4820 -0.2613 -0.1494
  284MOL0     C38267   7.403   3.768   7.578  0.9447  0.2781 -0.5680
  284MOL0     C38268   7.432   3.703   7.443 -0.6268 -0.3502 -0.2794
  284MOL0     C38269   7.576   3.736   7.395  0.5659 -0.6093 -0.2525
  284MOL0     C38270   7.695   3.768   7.396 -0.6468 -0.1897 -0.8058
  284MOL0     C38271   7.079   4.117   7.591  0.7934 -0.0162 -0.5487
  284MOL0     C38272   6.970   4.208   7.583  0.6933  0.5312 -0.9331
  284MOL0     H38273   6.376   4.162   7.664  1.2933 -0.7877  1.7388
  284MOL0     H38274   6.172   4.272   7.764  0.0007  0.0365  0.7758
  284MOL0     H38275   6.194   4.702   7.864 -0.1711 -0.3384  0.8936
  284MOL0     H38276   6.141   4.630   7.719 -1.1111 -1.3303 -0.1476
  284MOL0     H38277   5.954   4.750   7.851  1.3203  0.0464 -0.7361
  284MOL0     H38278   5.913   4.594   7.815 -0.1328  1.9980 -1.8612
  284MOL0     H38279   5.870   4.643   8.060 -1.3815  1.2343 -1.7720
  284MOL0     H38280   5.987   4.524   8.067  0.9808  0.6342  1.7669
  284MOL0     H38281   6.156   4.705   8.113 -0.3313 -0.7763 -0.5284
  284MOL0     H38282   6.051   4.835   8.041 -2.6892  0.3832  0.8653
  284MOL0     H38283   5.881   4.787   8.214 -0.3992  4.2371  1.7968
  284MOL0     H38284   6.010   4.684   8.299  1.5212  2.1790  2.1793
  284MOL0     H38285   6.159   4.878   8.272  0.7477  0.5989 -0.6007
  284MOL0     H38286   6.034   4.982   8.216  2.1359 -0.3320 -0.8184
  284MOL0     H38287   5.901   4.921   8.421  0.1581 -0.4538  1.5243
  284MOL0     H38288   6.043   4.825   8.477  2.1312  1.2460  0.5636
  284MOL0     H38289   6.186   5.008   8.493 -0.1018 -1.7427  2.8470
  284MOL0     H38290   6.043   5.041   8.596 -2.2734 -1.6353  0.0579
  284MOL0     H38291   6.256   5.207   8.354  0.3555  2.1318 -0.8224
  284MOL0     H38292   6.150   5.536   8.406  3.6609 -1.5268  1.4599
  284MOL0     H38293   6.253   5.468   8.286  0.1421 -3.1926  2.6469
  284MOL0     H38294   6.008   5.532   8.152  1.2979 -0.6082 -0.9287
  284MOL0     H38295   6.163   5.614   8.145  0.3184 -3.6675 -1.6451
  284MOL0     H38296   6.076   5.740   8.355  1.1399  1.1565 -1.1753
  284MOL0     H38297   5.931   5.646   8.334  1.9619 -2.2469 -0.2844
  284MOL0     H38298   5.876   5.866   8.221  0.1578  1.0272 -0.5919
  284MOL0     H38299   5.892   5.755   8.099 -1.2570 -0.5875  1.4845
  284MOL0     H38300   6.205   5.815   7.903  0.4326 -1.1620 -3.8520
  284MOL0     H38301   6.325   5.876   7.717 -0.9243 -1.7477 -0.8124
  284MOL0     H38302   6.223   5.901   7.585  0.3432 -0.8389  1.0649
  284MOL0     H38303   6.316   6.039   7.652 -1.9368 -0.7509 -4.7346
  284MOL0     H38304   6.107   6.425   7.489  0.4388 -0.9303 -0.2135
  284MOL0     H38305   6.065   6.496   7.255 -1.2712  1.3383 -1.5000
  284MOL0     H38306   5.702   6.334   7.090  2.2689 -0.5673  1.1274
  284MOL0     H38307   5.672   6.514   7.095 -0.4961 -2.0533  2.4632
  284MOL0     H38308   5.812   6.536   6.889 -0.7870 -0.0178 -0.9446
  284MOL0     H38309   5.803   6.362   6.875 -0.2694 -0.2454 -0.9214
  284MOL0     H38310   5.563   6.552   6.880  0.2904 -0.3344  2.1642
  284MOL0     H38311   5.550   6.383   6.874  0.6554  0.6381  0.8014
  284MOL0     H38312   5.685   6.576   6.693  1.2456  0.1999  0.8399
  284MOL0     H38313   5.719   6.405   6.663  0.9811  1.1731 -2.2896
  284MOL0     H38314   5.455   6.549   6.672  2.7534 -1.2114  4.0300
  284MOL0     H38315   5.467   6.380   6.628 -1.2623  0.4225  3.4403
  284MOL0     H38316   5.558   6.618   6.468 -0.2913  0.3518  3.7618
  284MOL0     H38317   5.614   6.457   6.432 -0.2529 -1.2543  0.7552
  284MOL0     H38318   5.334   6.593   6.420 -0.0723 -0.5820  1.6151
  284MOL0     H38319   5.352   6.416   6.396  1.9669 -0.5507 -2.4328
  284MOL0     H38320   5.424   6.648   6.219 -0.4551  0.2532 -0.2677
  284MOL0     H38321   5.334   6.500   6.178  0.9799  1.1314 -1.2490
  284MOL0     H38322   5.665   6.340   7.306  1.6533 -1.8449 -0.4637
  284MOL0     H38323   5.716   6.265   7.521  0.5693 -0.2350 -0.3074
  284MOL0     H38324   5.863   6.152   7.843  0.8561  0.7191  0.6567
  284MOL0     H38325   5.879   6.048   8.062 -0.7354  0.5157 -0.5383
  284MOL0     H38326   6.413   4.594   7.898 -0.5763 -1.3449  2.7882
  284MOL0     H38327   6.607   4.497   7.810  1.1020 -2.5002  2.6311
  284MOL0     H38328   6.748   4.039   7.779 -0.7988  2.9039  0.0968
  284MOL0     H38329   6.918   3.884   7.787  1.5965  1.5322  3.0449
  284MOL0     H38330   7.311   4.081   7.680 -2.7840  0.2761 -4.5662
  284MOL0     H38331   7.360   3.934   7.773  2.9496 -1.5095 -2.9464
  284MOL0     H38332   7.462   3.967   7.531  0.5958 -0.8729 -0.7582
  284MOL0     H38333   7.296   3.952   7.480  1.0322  2.9676  0.4390
  284MOL0     H38334   7.313   3.716   7.613  1.5259  0.9823  2.1865
  284MOL0     H38335   7.476   3.755   7.658  0.4578 -1.9892 -0.4322
  284MOL0     H38336   7.355   3.720   7.367  0.8572 -0.6605 -1.9153
  284MOL0     H38337   7.436   3.597   7.470 -0.7260 -0.3014 -0.0701
  284MOL0     H38338   7.793   3.804   7.375 -1.0558 -0.3976 -3.3257
  284MOL0     H38339   7.167   4.149   7.536  1.3197  1.0080  0.8381
  284MOL0     H38340   6.970   4.294   7.517 -0.9487  2.0634  0.9303
  285MOL0     O38341  10.962   2.726   1.821  0.3315 -0.6453 -0.6505
  285MOL0     C38342  10.926   2.623   1.758  0.2539 -1.1281  0.2155
  285MOL0     O38343  10.808   2.555   1.770 -0.1272  0.0633  0.6957
  285MOL0     C38344  10.734   2.578   1.883  0.5152 -0.4219 -1.4943
  285MOL0     C38345  10.750   2.487   1.986 -0.3635 -0.2849  0.9010
  285MOL0     C38346  10.696   2.507   2.115  0.2394  1.2262 -0.5738
  285MOL0     C38347  10.600   2.604   2.133  1.1400  0.4247  0.1521
  285MOL0     O38348  10.532   2.631   2.252 -0.2611  0.7298  0.6739
  285MOL0     C38349  10.566   2.552   2.354  0.6299  0.1279  1.0034
  285MOL0     C38350  10.478   2.579   2.474 -0.3261 -0.2825  0.0267
  285MOL0     C38351  10.537   2.509   2.599 -0.7066 -1.4002  0.1864
  285MOL0     C38352  10.434   2.501   2.710  0.2993  0.3566  0.4325
  285MOL0     C38353  10.487   2.490   2.855 -0.4569  0.8684 -0.0120
  285MOL0     C38354  10.566   2.357   2.872  0.6491  0.0478 -0.1222
  285MOL0     C38355  10.618   2.333   3.021  0.0636 -0.1804  0.3164
  285MOL0     C38356  10.518   2.261   3.112 -0.1380 -1.0719  0.7850
  285MOL0     N38357  10.523   2.117   3.107  0.2222  0.5737 -0.1166
  285MOL0     C38358  10.621   2.047   3.156 -0.1815  0.5758 -0.4752
  285MOL0     C38359  10.569   1.916   3.153 -0.6002 -0.3410  0.4590
  285MOL0     C38360  10.607   1.781   3.198 -0.0896 -0.5257 -0.3210
  285MOL0     C38361  10.662   1.711   3.072 -0.6379 -0.7099 -0.6196
  285MOL0     C38362  10.552   1.647   2.992  0.3394  0.1852  0.5929
  285MOL0     C38363  10.592   1.575   2.858  0.0573 -0.3192  0.7592
  285MOL0     O38364  10.692   1.479   2.894  0.8426 -0.0833  0.5849
  285MOL0     C38365  10.675   1.365   2.958 -0.2119  0.1020 -0.3312
  285MOL0     C38366  10.552   1.301   2.981  1.1306 -0.0717  0.3822
  285MOL0     C38367  10.545   1.176   3.039 -0.1198  0.3413  0.1305
  285MOL0     C38368  10.406   1.104   3.034 -0.0996 -0.7591  0.2422
  285MOL0     C38369  10.662   1.112   3.089 -0.4123 -0.4868 -0.2317
  285MOL0     C38370  10.671   0.970   3.162  0.1228 -1.0826  0.5141
  285MOL0     O38371  10.788   0.903   3.160 -0.3575 -0.2648 -0.2342
  285MOL0     C38372  10.816   0.784   3.222 -0.3034 -0.8177 -0.0476
  285MOL0     C38373  10.732   0.714   3.306 -0.8409  0.7687 -0.2533
  285MOL0     C38374  10.779   0.591   3.355  0.2666 -0.0292  0.4811
  285MOL0     C38375  10.910   0.543   3.324 -0.1550  0.1887  0.0889
  285MOL0     O38376  10.952   0.425   3.383 -0.0674 -0.7893 -0.1578
  285MOL0     C38377  10.889   0.301   3.356 -0.6819  0.3229 -0.6943
  285MOL0     C38378  10.954   0.183   3.424 -0.2126 -1.2091 -0.1238
  285MOL0     C38379  10.933   0.199   3.572 -0.1598 -0.2014 -0.3652
  285MOL0     C38380  10.807   0.123   3.610  0.2076  0.0058 -0.2106
  285MOL0     C38381  10.795   0.139   3.766 -0.3511 -0.7741 -0.7781
  285MOL0     C38382  10.663   0.087   3.831 -0.4484  1.0453  1.4530
  285MOL0     C38383  10.682   0.087   3.985  0.7653  0.0183  0.3399
  285MOL0     C38384  10.555   0.018   4.049  0.3599  0.1692  0.9832
  285MOL0    Cl38385  10.587  -0.073   4.211 -0.4309 -0.0935  0.4029
  285MOL0     C38386  11.000   0.615   3.263 -0.9504 -0.3450  0.1401
  285MOL0     C38387  10.950   0.735   3.210 -0.9394  0.8038 -0.0877
  285MOL0     O38388  10.568   0.926   3.199  0.9112 -0.0502 -0.0591
  285MOL0     C38389  10.786   1.175   3.062 -0.3429  0.1314  0.2597
  285MOL0     C38390  10.789   1.301   3.000  0.4151 -0.2190  0.8321
  285MOL0     N38391  10.435   1.927   3.104 -0.1055  0.3144 -0.2234
  285MOL0     N38392  10.418   2.045   3.048 -1.5746 -0.5738 -0.3404
  285MOL0     C38393  10.585   2.703   2.032 -0.3495  0.2634 -0.1948
  285MOL0     C38394  10.644   2.685   1.903 -0.6891 -0.0218 -0.7667
  285MOL0     C38395  11.024   2.567   1.661  1.0881  0.1671  0.2427
  285MOL0     C38396  11.035   2.435   1.644 -0.4314  0.5837 -0.3894
  285MOL0     C38397  11.136   2.380   1.556 -0.2931  0.0449  1.1224
  285MOL0     C38398  11.214   2.463   1.478 -0.5006 -0.0761 -0.5784
  285MOL0     O38399  11.332   2.421   1.416 -0.4060 -0.6093  0.1772
  285MOL0     C38400  11.323   2.381   1.275  0.1526  0.2007 -0.5009
  285MOL0     C38401  11.449   2.427   1.205 -0.2119 -0.3612 -0.4128
  285MOL0     C38402  11.559   2.341   1.244  0.4448  0.4833 -0.6142
  285MOL0     C38403  11.685   2.417   1.227 -0.3934  0.0142 -0.1694
  285MOL0     C38404  11.735   2.480   1.354 -0.3618 -0.0289  0.1728
  285MOL0     C38405  11.772   2.538   1.454 -0.1867  0.2019  0.2010
  285MOL0     C38406  11.210   2.606   1.498  0.0486  0.2370 -0.7274
  285MOL0     C38407  11.116   2.656   1.594  0.1130  0.8686  0.3535
  285MOL0     H38408  10.821   2.407   1.964 -1.6206 -1.0817 -0.3965
  285MOL0     H38409  10.719   2.433   2.191 -1.9273 -0.1939 -1.2254
  285MOL0     H38410  10.555   2.447   2.326 -2.7060  0.7752 -0.6431
  285MOL0     H38411  10.666   2.577   2.392 -0.0584 -0.7289  3.5800
  285MOL0     H38412  10.463   2.685   2.496 -0.3119 -0.0969 -0.8186
  285MOL0     H38413  10.380   2.531   2.462  0.0081 -1.2185  0.9596
  285MOL0     H38414  10.572   2.410   2.570  0.8217 -0.5890 -0.8861
  285MOL0     H38415  10.623   2.564   2.639 -0.4793 -1.0655 -0.7279
  285MOL0     H38416  10.372   2.591   2.709  0.5582  0.5374 -0.4066
  285MOL0     H38417  10.379   2.408   2.697  1.7497 -1.0877  3.6566
  285MOL0     H38418  10.551   2.577   2.872 -1.2771  1.2300  1.2858
  285MOL0     H38419  10.401   2.494   2.922  0.0503 -0.2423  0.7300
  285MOL0     H38420  10.490   2.280   2.852  0.5020  0.5994 -1.7849
  285MOL0     H38421  10.645   2.343   2.799 -0.3279  0.0117 -1.2085
  285MOL0     H38422  10.713   2.278   3.026  1.2597  1.5437 -1.6417
  285MOL0     H38423  10.638   2.432   3.063  0.6528 -0.6113  1.0722
  285MOL0     H38424  10.419   2.305   3.096  0.0392 -1.6030 -2.5009
  285MOL0     H38425  10.546   2.295   3.212  0.6334  2.8432 -0.5796
  285MOL0     H38426  10.705   2.068   3.221 -0.1208  2.9911 -1.2387
  285MOL0     H38427  10.678   1.789   3.281  0.4293 -3.9192 -0.2850
  285MOL0     H38428  10.513   1.742   3.238 -0.8196 -0.4437 -1.8963
  285MOL0     H38429  10.735   1.636   3.105  0.4887 -0.2556 -1.9631
  285MOL0     H38430  10.720   1.779   3.008 -3.2287  1.6853 -0.5961
  285MOL0     H38431  10.469   1.714   2.967  0.3425 -0.5712 -1.6206
  285MOL0     H38432  10.498   1.569   3.046  0.9057  0.0319  0.9539
  285MOL0     H38433  10.639   1.647   2.792  1.7529 -1.4032  0.7224
  285MOL0     H38434  10.513   1.548   2.787  1.7359  0.0985 -1.3685
  285MOL0     H38435  10.460   1.342   2.941  0.6961  0.8378  2.1934
  285MOL0     H38436  10.419   1.008   2.984  1.8427  0.2303 -1.3182
  285MOL0     H38437  10.358   1.093   3.131 -1.8738  2.6685 -0.0876
  285MOL0     H38438  10.331   1.156   2.975 -0.0710 -1.4450 -0.4145
  285MOL0     H38439  10.632   0.753   3.325 -1.0699  1.4757 -2.6216
  285MOL0     H38440  10.726   0.536   3.432 -1.2997 -0.2990 -0.7612
  285MOL0     H38441  10.783   0.311   3.384 -1.0631 -2.9030 -0.5692
  285MOL0     H38442  10.900   0.284   3.248  0.3901  0.7945 -0.6664
  285MOL0     H38443  10.912   0.095   3.374 -0.3097 -0.4003 -1.5168
  285MOL0     H38444  11.061   0.177   3.402 -0.5618 -0.7288 -2.1327
  285MOL0     H38445  10.924   0.305   3.596 -1.4572 -0.4718  0.4641
  285MOL0     H38446  11.018   0.173   3.635  1.6577  0.2649 -2.4871
  285MOL0     H38447  10.716   0.155   3.559 -0.5854  2.1384  2.2809
  285MOL0     H38448  10.815   0.017   3.583  0.1831 -0.9038  2.8824
  285MOL0     H38449  10.797   0.246   3.790 -0.2113 -1.3328  1.9883
  285MOL0     H38450  10.884   0.094   3.810  0.4742  2.0748  0.6741
  285MOL0     H38451  10.587   0.162   3.807  1.4188  3.1258  1.7068
  285MOL0     H38452  10.628  -0.008   3.789  1.2106  0.9541  0.2004
  285MOL0     H38453  10.692   0.188   4.024 -3.0053 -0.1864  2.2453
  285MOL0     H38454  10.766   0.029   4.025  0.9984 -0.0077 -0.1752
  285MOL0     H38455  10.517  -0.057   3.978 -0.8040  2.0219 -0.4625
  285MOL0     H38456  10.474   0.091   4.059 -1.1157 -0.7609 -2.4685
  285MOL0     H38457  11.103   0.581   3.268  0.3581  3.2364  1.2108
  285MOL0     H38458  11.015   0.805   3.158  1.3537 -0.0445  1.4687
  285MOL0     H38459  10.872   1.128   3.108 -1.3359 -0.0927  1.9743
  285MOL0     H38460  10.888   1.345   2.998  1.4471 -2.3751  1.2246
  285MOL0     H38461  10.514   2.781   2.058  1.2086  1.1427  1.7809
  285MOL0     H38462  10.613   2.749   1.822 -2.9256 -0.5724 -0.4206
  285MOL0     H38463  10.971   2.372   1.706  0.3063  0.0277 -0.1781
  285MOL0     H38464  11.150   2.273   1.544 -2.8658 -0.2096 -0.5883
  285MOL0     H38465  11.305   2.273   1.275  1.5265 -0.0452 -0.2359
  285MOL0     H38466  11.241   2.430   1.222  1.8645  1.6716 -1.8894
  285MOL0     H38467  11.478   2.529   1.233  0.6094 -1.0620  1.4234
  285MOL0     H38468  11.437   2.442   1.097 -0.2869  1.6681 -0.1705
  285MOL0     H38469  11.546   2.253   1.180 -3.4791  0.0657  0.5040
  285MOL0     H38470  11.546   2.307   1.347  1.9773 -1.2594 -0.9332
  285MOL0     H38471  11.672   2.506   1.165  1.1930 -0.1700 -0.8170
  285MOL0     H38472  11.760   2.355   1.177  0.4740  0.7742  0.1626
  285MOL0     H38473  11.815   2.587   1.538  1.3611  3.2080 -2.1340
  285MOL0     H38474  11.277   2.674   1.448 -0.8895 -0.6143 -3.3084
  285MOL0     H38475  11.108   2.764   1.602  1.4980  0.9412  1.1046
  286MOL0     O38476   9.399   6.909   5.559 -0.1469 -0.0486  0.3798
  286MOL0     C38477   9.337   6.873   5.654  0.7286 -0.2278 -0.5990
  286MOL0     O38478   9.199   6.853   5.653  0.0296  0.5490  0.4310
  286MOL0     C38479   9.135   6.890   5.543  0.0531 -0.4660 -0.3352
  286MOL0     C38480   9.065   7.018   5.536  0.1611  0.2854  0.2805
  286MOL0     C38481   8.974   7.036   5.425  0.7508 -1.3459 -0.1125
  286MOL0     C38482   8.955   6.941   5.326  0.2533 -0.4541 -0.3717
  286MOL0     O38483   8.855   6.964   5.232  0.1492  0.1397  0.6550
  286MOL0     C38484   8.753   6.864   5.247  1.3220 -0.6768  0.7226
  286MOL0     C38485   8.618   6.913   5.194 -0.6167 -0.2176  0.5907
  286MOL0     C38486   8.511   6.805   5.194 -0.8389  0.5445 -0.5977
  286MOL0     C38487   8.395   6.845   5.099 -0.5830 -0.5914 -0.1307
  286MOL0     C38488   8.256   6.772   5.133 -0.0164  0.3254  0.0233
  286MOL0     C38489   8.269   6.625   5.170  0.4625  0.6012  0.1443
  286MOL0     C38490   8.250   6.507   5.073  0.1906  0.4301  0.5466
  286MOL0     C38491   8.362   6.478   4.971  0.4535 -0.2051  0.0055
  286MOL0     N38492   8.323   6.380   4.865 -0.9225 -0.4720 -0.2311
  286MOL0     C38493   8.200   6.315   4.843 -0.4876 -0.0470  0.6726
  286MOL0     C38494   8.222   6.227   4.735 -0.1767 -0.6906  0.4850
  286MOL0     C38495   8.110   6.143   4.682  0.0180 -0.7035 -0.6715
  286MOL0     C38496   8.030   6.226   4.586  1.0052  0.8336 -1.0942
  286MOL0     C38497   7.893   6.169   4.567 -0.1314  0.0710 -0.1802
  286MOL0     C38498   7.791   6.194   4.681 -0.5453 -0.0470  0.1467
  286MOL0     O38499   7.775   6.335   4.697  0.5818  0.3826  0.4602
  286MOL0     C38500   7.673   6.412   4.638 -0.2131 -0.4605  1.2851
  286MOL0     C38501   7.548   6.366   4.602  0.0522  0.6371 -0.2622
  286MOL0     C38502   7.453   6.452   4.542 -0.0400  0.2582 -0.5455
  286MOL0     C38503   7.331   6.384   4.489  0.4215  0.4690 -0.1968
  286MOL0     C38504   7.494   6.589   4.520  0.2521 -0.3105 -0.3671
  286MOL0     C38505   7.405   6.690   4.454 -0.3545  0.4911 -0.8504
  286MOL0     O38506   7.270   6.656   4.447 -0.0728 -0.6751 -0.1629
  286MOL0     C38507   7.175   6.732   4.382  0.0585  0.3264 -0.4220
  286MOL0     C38508   7.059   6.763   4.445  0.0436  0.4150  0.2948
  286MOL0     C38509   6.953   6.829   4.376  0.9169  0.0135  0.5499
  286MOL0     C38510   6.959   6.873   4.241  0.9202  0.4744  0.0157
  286MOL0     O38511   6.866   6.954   4.177  0.3171  0.5351  0.1054
  286MOL0     C38512   6.861   6.952   4.030  0.1465 -0.9826 -0.5145
  286MOL0     C38513   6.908   7.100   3.983  0.8627  1.2632  0.7099
  286MOL0     C38514   6.922   7.104   3.827  0.8891 -0.1593 -1.1518
  286MOL0     C38515   6.827   7.198   3.756 -0.0911 -0.4108 -0.7593
  286MOL0     C38516   6.886   7.251   3.633 -0.2243 -0.3125 -0.0003
  286MOL0     C38517   6.821   7.389   3.580 -0.0916  0.2861 -0.3229
  286MOL0     C38518   6.876   7.433   3.445 -0.2234 -0.6941 -0.1018
  286MOL0     C38519   6.810   7.556   3.389 -1.4442  0.2990 -0.1714
  286MOL0    Cl38520   6.815   7.700   3.506 -0.3560  0.2244  0.4622
  286MOL0     C38521   7.077   6.838   4.178 -0.6082 -0.4696  0.2352
  286MOL0     C38522   7.183   6.768   4.243 -0.6993  0.5848  0.4646
  286MOL0     O38523   7.447   6.800   4.420  0.7121 -0.5081 -0.8091
  286MOL0     C38524   7.615   6.640   4.566 -0.5122  0.1360 -0.6242
  286MOL0     C38525   7.711   6.543   4.618  1.1414 -0.8260  0.5009
  286MOL0     N38526   8.355   6.231   4.707  0.0186 -0.5655 -0.0110
  286MOL0     N38527   8.415   6.325   4.779 -0.8663  0.0627 -0.3537
  286MOL0     C38528   9.030   6.828   5.327  0.9170  0.7989 -0.4543
  286MOL0     C38529   9.116   6.796   5.437  0.7816  0.0863  0.2353
  286MOL0     C38530   9.406   6.872   5.776  0.2307  0.3082 -0.3364
  286MOL0     C38531   9.329   6.856   5.900 -0.6223  1.4501 -0.3091
  286MOL0     C38532   9.412   6.839   6.024  1.0188  0.4914 -0.4741
  286MOL0     C38533   9.554   6.846   6.024 -0.2237 -0.2833 -1.1378
  286MOL0     O38534   9.617   6.849   6.148 -0.9366  0.5110  0.0642
  286MOL0     C38535   9.693   6.959   6.175 -0.1590 -0.1237  0.2556
  286MOL0     C38536   9.715   6.962   6.326 -0.4506  0.3534 -0.3888
  286MOL0     C38537   9.592   6.998   6.406 -0.6921  0.2733 -0.6531
  286MOL0     C38538   9.492   6.877   6.419 -0.7319  0.4003  0.4941
  286MOL0     C38539   9.393   6.910   6.526  0.6577 -1.2942  0.0858
  286MOL0     C38540   9.322   6.934   6.616  0.2516  0.1395 -0.7989
  286MOL0     C38541   9.616   6.871   5.900  0.4125  0.7187 -0.5606
  286MOL0     C38542   9.547   6.873   5.786 -0.5107 -0.9169  0.1004
  286MOL0     H38543   9.072   7.079   5.625  2.5700 -0.2148  0.5036
  286MOL0     H38544   8.908   7.122   5.420  3.3873  0.7708 -0.7510
  286MOL0     H38545   8.771   6.779   5.182 -1.5457 -0.4442 -0.5241
  286MOL0     H38546   8.734   6.830   5.350  0.6013 -0.3111  0.7153
  286MOL0     H38547   8.592   7.002   5.252  1.1679  1.0915 -0.4928
  286MOL0     H38548   8.630   6.946   5.090 -2.5459 -0.0646  0.3836
  286MOL0     H38549   8.550   6.712   5.152 -3.8505 -1.0930 -0.0441
  286MOL0     H38550   8.478   6.787   5.297 -0.8692 -0.3296 -0.7478
  286MOL0     H38551   8.386   6.953   5.114  0.5925 -0.8301  2.8450
  286MOL0     H38552   8.438   6.834   4.999  0.6449  3.5070 -0.2508
  286MOL0     H38553   8.212   6.822   5.220  1.4453  2.5066 -0.4316
  286MOL0     H38554   8.185   6.787   5.051  0.3879  3.2944  0.0892
  286MOL0     H38555   8.359   6.589   5.220  0.8410 -1.5120 -1.8523
  286MOL0     H38556   8.193   6.614   5.247  0.2922  2.9274  0.3758
  286MOL0     H38557   8.244   6.418   5.137  3.9268  0.9045  1.8150
  286MOL0     H38558   8.155   6.534   5.026  1.1277  3.5330  0.1613
  286MOL0     H38559   8.458   6.460   5.020 -0.8856 -2.8508  1.8892
  286MOL0     H38560   8.354   6.572   4.916 -3.0854  0.3669  1.2689
  286MOL0     H38561   8.107   6.331   4.897 -0.0669 -1.2643  1.8181
  286MOL0     H38562   8.155   6.067   4.618 -0.7547 -0.5238 -1.4551
  286MOL0     H38563   8.040   6.104   4.756  0.6180  0.8012  0.7585
  286MOL0     H38564   8.087   6.240   4.493  2.8332  1.1980  0.0211
  286MOL0     H38565   8.015   6.324   4.632 -0.6058 -0.0511  0.3527
  286MOL0     H38566   7.896   6.059   4.567 -2.0152 -0.0246 -0.0121
  286MOL0     H38567   7.852   6.190   4.467  4.0773 -2.1976 -2.6358
  286MOL0     H38568   7.841   6.163   4.774  0.3274 -1.8791 -0.8829
  286MOL0     H38569   7.696   6.142   4.666  0.1973 -1.2553 -0.5109
  286MOL0     H38570   7.519   6.262   4.616 -2.0610  1.4332  1.7777
  286MOL0     H38571   7.322   6.410   4.383  0.0022 -1.4275 -0.6718
  286MOL0     H38572   7.341   6.276   4.507  0.4387  0.7333  1.5597
  286MOL0     H38573   7.241   6.416   4.541  0.4802 -1.9421  1.5768
  286MOL0     H38574   7.041   6.736   4.549  1.3509 -1.3288  0.0899
  286MOL0     H38575   6.864   6.863   4.429 -0.2573  0.3110 -1.5046
  286MOL0     H38576   6.927   6.879   3.982  1.9287  1.9274 -2.9146
  286MOL0     H38577   6.762   6.947   3.984  1.0919 -0.0800 -2.8132
  286MOL0     H38578   6.836   7.174   4.019  0.3843  1.0198  0.2529
  286MOL0     H38579   7.009   7.126   4.019  1.0531  1.1540  0.2636
  286MOL0     H38580   6.902   7.004   3.787 -0.0536 -0.5676  0.2879
  286MOL0     H38581   7.024   7.128   3.795  1.4602 -2.4724 -1.2223
  286MOL0     H38582   6.733   7.146   3.735  0.6284 -2.1198  0.0447
  286MOL0     H38583   6.798   7.272   3.830  0.9698 -4.2982  4.0537
  286MOL0     H38584   6.873   7.169   3.561 -0.2512 -0.0546 -0.2915
  286MOL0     H38585   6.994   7.269   3.644 -0.1326  0.6030 -1.9523
  286MOL0     H38586   6.713   7.371   3.590 -0.1261  1.0463  0.8791
  286MOL0     H38587   6.848   7.470   3.648 -0.0385 -1.0941  1.3871
  286MOL0     H38588   6.860   7.358   3.368  3.0117  0.8656 -2.5400
  286MOL0     H38589   6.980   7.467   3.453 -0.2481 -0.3786 -1.0267
  286MOL0     H38590   6.708   7.532   3.357 -1.8821 -4.1777  3.4685
  286MOL0     H38591   6.868   7.587   3.302  0.0199  1.3127  1.0975
  286MOL0     H38592   7.088   6.861   4.072 -1.7934  0.5138  0.3046
  286MOL0     H38593   7.279   6.743   4.200 -2.3507 -1.6193 -2.2568
  286MOL0     H38594   7.644   6.745   4.559  0.3993 -0.0468  0.2388
  286MOL0     H38595   7.812   6.578   4.638  2.0954 -0.2508 -4.1481
  286MOL0     H38596   9.027   6.760   5.243 -1.9513  1.0496 -0.6704
  286MOL0     H38597   9.172   6.703   5.447  0.3467 -0.0677  1.3053
  286MOL0     H38598   9.222   6.845   5.907 -0.9840  1.4410 -3.9815
  286MOL0     H38599   9.358   6.818   6.116  0.1707 -3.1919 -1.6555
  286MOL0     H38600   9.783   6.960   6.112 -1.6585  0.4619 -1.9855
  286MOL0     H38601   9.633   7.043   6.140  0.6596  1.2083  1.9029
  286MOL0     H38602   9.786   7.042   6.350 -0.3958  0.9161 -2.2793
  286MOL0     H38603   9.761   6.869   6.362  1.6587  2.1764  2.0178
  286MOL0     H38604   9.543   7.088   6.367 -0.3956  1.5379  1.6756
  286MOL0     H38605   9.635   7.018   6.505 -0.6335  0.8146 -0.7838
  286MOL0     H38606   9.533   6.780   6.447 -4.1069 -0.6388  2.3077
  286MOL0     H38607   9.440   6.854   6.326 -2.5937 -0.9897  1.8145
  286MOL0     H38608   9.265   6.927   6.707 -2.2672 -3.5351 -2.4277
  286MOL0     H38609   9.723   6.885   5.902  0.3349  1.2773 -0.0276
  286MOL0     H38610   9.610   6.878   5.697  0.3868  1.2871  0.7876
  287MOL0     O38611   1.745   5.595   8.816  0.3189  0.4539  0.1312
  287MOL0     C38612   1.869   5.614   8.795 -0.0884  0.0100  0.0791
  287MOL0     O38613   1.934   5.679   8.690 -0.2027  0.4811  1.0198
  287MOL0     C38614   1.856   5.743   8.601  0.2240 -0.3736  0.1420
  287MOL0     C38615   1.759   5.834   8.640  0.3424  0.3824 -0.4469
  287MOL0     C38616   1.675   5.898   8.550 -0.1591 -0.5334  0.1670
  287MOL0     C38617   1.691   5.881   8.415  0.0913  0.1705  0.6363
  287MOL0     O38618   1.615   5.948   8.332  0.0587 -0.4521 -0.5410
  287MOL0     C38619   1.686   6.019   8.230  0.0934  0.2855 -0.0598
  287MOL0     C38620   1.681   6.172   8.249 -0.2736  0.5550 -0.4482
  287MOL0     C38621   1.793   6.257   8.169 -0.1140  0.3161  0.1095
  287MOL0     C38622   1.815   6.389   8.239 -1.4254 -1.0199 -0.1809
  287MOL0     C38623   1.898   6.506   8.159  0.9560  0.3712  0.0966
  287MOL0     C38624   1.849   6.645   8.221 -0.4651  0.4319  0.6861
  287MOL0     C38625   1.958   6.749   8.181 -0.8189 -0.4643 -0.9161
  287MOL0     C38626   2.002   6.757   8.039 -0.2546 -0.3173 -0.3438
  287MOL0     N38627   2.109   6.859   8.023 -0.1803 -0.9553  0.8601
  287MOL0     C38628   2.245   6.824   8.002  0.2966 -0.4100 -0.2556
  287MOL0     C38629   2.312   6.947   7.990 -0.5814  0.8859  0.8115
  287MOL0     C38630   2.460   6.950   7.983 -0.1044  0.2105 -0.3897
  287MOL0     C38631   2.504   6.877   7.849  0.4839  0.2005  0.2098
  287MOL0     C38632   2.647   6.899   7.845 -0.9527  0.3296 -0.3479
  287MOL0     C38633   2.689   7.034   7.791  0.0243 -0.6690  0.1595
  287MOL0     O38634   2.825   7.050   7.769 -1.3996 -0.4189  0.3257
  287MOL0     C38635   2.888   7.168   7.768  0.0172 -0.6142 -0.2386
  287MOL0     C38636   3.023   7.165   7.792 -0.0806  1.0423  0.0759
  287MOL0     C38637   3.113   7.270   7.775 -1.2877  0.4872 -0.1841
  287MOL0     C38638   3.252   7.251   7.838 -0.5381  0.5434 -0.0394
  287MOL0     C38639   3.064   7.394   7.734  0.1973  0.1120 -0.1249
  287MOL0     C38640   3.142   7.525   7.711 -0.7346  1.7478 -0.2611
  287MOL0     O38641   3.079   7.625   7.650  0.0783  0.5651 -0.4664
  287MOL0     C38642   3.134   7.741   7.611 -0.1885  0.1133  0.5834
  287MOL0     C38643   3.249   7.750   7.531 -0.2795 -0.1892  0.1306
  287MOL0     C38644   3.295   7.871   7.478  0.2965  0.4364  0.6926
  287MOL0     C38645   3.226   7.987   7.499  0.1876 -0.5068 -0.1702
  287MOL0     O38646   3.237   8.102   7.429  0.6270 -0.2085  0.7474
  287MOL0     C38647   3.321   8.099   7.310  0.2416  0.0133  0.0961
  287MOL0     C38648   3.311   8.223   7.224 -0.2012 -0.4422 -0.1105
  287MOL0     C38649   3.353   8.353   7.294  0.6936 -0.0870 -0.0644
  287MOL0     C38650   3.369   8.472   7.206  0.8632 -0.1081  0.4252
  287MOL0     C38651   3.473   8.571   7.259 -0.2579  0.1462 -0.4886
  287MOL0     C38652   3.459   8.701   7.188 -0.0605  0.6988  0.1254
  287MOL0     C38653   3.344   8.779   7.253 -0.5464 -0.0294  0.1450
  287MOL0     C38654   3.315   8.896   7.164  0.3580 -0.0851  0.2283
  287MOL0    Cl38655   3.207   9.006   7.254  0.3138 -0.1844  0.3332
  287MOL0     C38656   3.120   7.987   7.594  0.3599  1.0633  1.0099
  287MOL0     C38657   3.078   7.866   7.644 -0.4598  0.9832 -0.8476
  287MOL0     O38658   3.259   7.528   7.754  0.8471  0.3399 -0.4349
  287MOL0     C38659   2.925   7.399   7.704 -0.1354 -0.0508 -0.1944
  287MOL0     C38660   2.841   7.289   7.711  0.2475  0.0829 -0.6539
  287MOL0     N38661   2.222   7.043   8.002 -0.5559  0.1651  0.3364
  287MOL0     N38662   2.105   6.997   8.031 -0.0638  0.0973  0.0920
  287MOL0     C38663   1.794   5.795   8.366  0.0234 -0.0610 -0.5870
  287MOL0     C38664   1.878   5.730   8.459  0.4435 -0.6670  0.4502
  287MOL0     C38665   1.965   5.561   8.899  0.0791  0.2173  0.1704
  287MOL0     C38666   2.104   5.599   8.903 -0.6450 -0.6207  0.5627
  287MOL0     C38667   2.195   5.539   8.984  0.1590 -0.5102 -0.1366
  287MOL0     C38668   2.149   5.459   9.080 -0.3848 -0.1701  0.4634
  287MOL0     O38669   2.237   5.410   9.164  0.5355  0.0124  0.4416
  287MOL0     C38670   2.275   5.278   9.130 -0.2507 -0.0781 -0.7098
  287MOL0     C38671   2.420   5.268   9.105 -0.7906  0.3936  0.1002
  287MOL0     C38672   2.495   5.248   9.235  0.0834  0.4650 -0.1708
  287MOL0     C38673   2.489   5.363   9.326 -0.4512 -0.2808  0.1918
  287MOL0     C38674   2.592   5.345   9.434  0.4336  0.4559 -0.8422
  287MOL0     C38675   2.684   5.327   9.519  0.4557  0.7318 -1.0710
  287MOL0     C38676   2.016   5.413   9.081  0.7670  0.0189 -0.2162
  287MOL0     C38677   1.928   5.464   8.991  0.3405  0.2071 -0.1961
  287MOL0     H38678   1.750   5.847   8.747  1.5729  0.3620 -0.3192
  287MOL0     H38679   1.609   5.977   8.584  1.5558  3.5092 -4.6982
  287MOL0     H38680   1.791   5.992   8.211 -0.9293 -2.3882 -2.8304
  287MOL0     H38681   1.627   6.001   8.139 -0.5039  2.2181 -0.0969
  287MOL0     H38682   1.581   6.215   8.243  1.3959  5.0187 -0.0180
  287MOL0     H38683   1.708   6.190   8.354 -0.0007  2.7280 -0.8442
  287MOL0     H38684   1.888   6.203   8.178  0.2712  1.0202  0.2785
  287MOL0     H38685   1.748   6.279   8.072 -3.3675 -2.4019  0.7871
  287MOL0     H38686   1.717   6.431   8.264 -1.4251 -0.4142 -1.1591
  287MOL0     H38687   1.870   6.376   8.333 -0.5946 -0.2690 -0.5365
  287MOL0     H38688   2.007   6.496   8.162  0.7846 -1.6430  1.9527
  287MOL0     H38689   1.858   6.509   8.058 -0.9087  1.0956  0.8141
  287MOL0     H38690   1.750   6.666   8.179  0.5400  1.9783 -1.0211
  287MOL0     H38691   1.843   6.646   8.331 -3.9714  3.4533  0.6746
  287MOL0     H38692   1.927   6.851   8.205  1.1528 -0.0760  0.1069
  287MOL0     H38693   2.044   6.736   8.247  0.3319  2.1131 -1.7788
  287MOL0     H38694   1.916   6.782   7.976 -1.3541 -2.7610  0.0784
  287MOL0     H38695   2.060   6.668   8.013  2.7673  0.6414  2.5122
  287MOL0     H38696   2.276   6.721   7.992 -0.1950 -0.8044  1.7818
  287MOL0     H38697   2.503   7.050   7.993 -0.7730  0.6004 -1.2703
  287MOL0     H38698   2.501   6.889   8.064 -0.2793  0.3503 -0.1961
  287MOL0     H38699   2.457   6.921   7.761 -0.5823  2.8883  2.0111
  287MOL0     H38700   2.480   6.770   7.853  0.0186  0.2663 -0.6136
  287MOL0     H38701   2.691   6.823   7.780 -1.3540 -1.7723  1.7391
  287MOL0     H38702   2.705   6.886   7.937  0.2476  0.2230 -1.0921
  287MOL0     H38703   2.648   7.106   7.863  0.9663 -0.2269  0.2753
  287MOL0     H38704   2.638   7.050   7.696  1.2359 -0.9511 -0.5676
  287MOL0     H38705   3.072   7.074   7.826 -0.4414  0.7088 -0.2731
  287MOL0     H38706   3.329   7.294   7.773  0.1103  1.4805  1.2986
  287MOL0     H38707   3.266   7.304   7.932 -0.9762 -0.9927  0.9378
  287MOL0     H38708   3.275   7.145   7.856  1.4436  1.0499  0.6221
  287MOL0     H38709   3.305   7.660   7.507  1.3218  0.3729  1.5373
  287MOL0     H38710   3.391   7.863   7.427 -0.2655 -0.1254 -0.3156
  287MOL0     H38711   3.424   8.091   7.346  0.4200 -0.0409 -0.4217
  287MOL0     H38712   3.287   8.017   7.247 -1.0474 -0.7190  1.6698
  287MOL0     H38713   3.377   8.194   7.142  4.2331  0.0969  2.9301
  287MOL0     H38714   3.204   8.233   7.200 -0.9663 -0.5001  2.9183
  287MOL0     H38715   3.447   8.339   7.348 -0.0865  1.4154  1.8428
  287MOL0     H38716   3.283   8.370   7.377  0.7915 -2.2990  0.5364
  287MOL0     H38717   3.404   8.431   7.111 -3.7817 -1.1837 -1.1002
  287MOL0     H38718   3.264   8.503   7.203 -0.0825 -3.0482 -0.0070
  287MOL0     H38719   3.570   8.520   7.250  0.5397  1.0565  2.0407
  287MOL0     H38720   3.463   8.599   7.364 -1.8415  4.1735 -1.5283
  287MOL0     H38721   3.555   8.754   7.196  1.4113 -1.5930 -1.0957
  287MOL0     H38722   3.438   8.691   7.081  1.9571 -1.5919 -0.1435
  287MOL0     H38723   3.392   8.829   7.338  0.8647  0.3437 -0.8228
  287MOL0     H38724   3.256   8.721   7.281 -0.0884  0.1425  2.0871
  287MOL0     H38725   3.272   8.862   7.069  0.4736  1.7918 -0.5440
  287MOL0     H38726   3.404   8.951   7.131 -0.5542  0.5288 -1.3321
  287MOL0     H38727   3.070   8.080   7.620  0.1070  1.0638  0.5301
  287MOL0     H38728   3.003   7.848   7.720  1.9173  3.6575  2.4300
  287MOL0     H38729   2.882   7.493   7.670  0.0583 -0.4614 -1.6055
  287MOL0     H38730   2.737   7.294   7.679  0.4595  2.7016 -1.1449
  287MOL0     H38731   1.808   5.783   8.259  1.6392  0.3898 -0.4536
  287MOL0     H38732   1.963   5.675   8.420  1.3210  0.5554  0.5903
  287MOL0     H38733   2.147   5.680   8.844  2.0439 -1.2988  1.4283
  287MOL0     H38734   2.295   5.581   8.981 -1.1400  3.0424  0.9621
  287MOL0     H38735   2.250   5.211   9.213  0.6273 -0.0664 -0.4257
  287MOL0     H38736   2.216   5.239   9.046  0.7754 -0.6541 -1.1766
  287MOL0     H38737   2.456   5.348   9.039  0.1138 -2.1062 -2.6743
  287MOL0     H38738   2.434   5.180   9.041  1.5453  2.1898 -2.0530
  287MOL0     H38739   2.597   5.214   9.214 -0.2294  0.8916 -2.6021
  287MOL0     H38740   2.452   5.162   9.287 -2.5478 -0.8948 -4.1392
  287MOL0     H38741   2.389   5.371   9.369 -1.0479 -2.1657 -0.7219
  287MOL0     H38742   2.501   5.461   9.278 -5.1477 -0.0276 -1.0576
  287MOL0     H38743   2.737   5.314   9.612 -2.9449  0.6628  1.0053
  287MOL0     H38744   1.976   5.340   9.150  1.7018 -1.2457 -0.9586
  287MOL0     H38745   1.825   5.430   8.994  0.2118  0.4649 -1.3374
  288MOL0     O38746   5.918  11.038   9.618 -0.1947 -0.5758 -0.4378
  288MOL0     C38747   5.833  10.951   9.648  1.1107 -0.4400 -0.3491
  288MOL0     O38748   5.834  10.824   9.603  0.7452 -1.1250  0.3449
  288MOL0     C38749   5.959  10.774   9.573 -0.0001 -0.6075  1.5535
  288MOL0     C38750   6.022  10.800   9.454  0.3360 -0.3700 -1.4642
  288MOL0     C38751   6.142  10.756   9.415 -0.1594  0.0479 -0.2802
  288MOL0     C38752   6.215  10.682   9.507 -0.9597 -0.9377 -0.2059
  288MOL0     O38753   6.346  10.657   9.465 -0.2058 -0.2880 -0.6358
  288MOL0     C38754   6.455  10.650   9.556  0.1067  0.5052 -0.1383
  288MOL0     C38755   6.496  10.502   9.568 -0.1465 -0.3911 -0.2580
  288MOL0     C38756   6.593  10.473   9.677  0.3617 -0.9778 -0.3027
  288MOL0     C38757   6.613  10.323   9.684 -0.2296 -0.6241  0.0374
  288MOL0     C38758   6.687  10.294   9.818  0.8974 -0.2734  0.8968
  288MOL0     C38759   6.676  10.141   9.846  0.2072  0.6696  0.3322
  288MOL0     C38760   6.674  10.113   9.996  0.2150  0.7324 -0.0963
  288MOL0     C38761   6.803  10.169  10.059  0.6117  0.3087 -0.9123
  288MOL0     N38762   6.928  10.122   9.993 -0.2088  0.2719 -1.1183
  288MOL0     C38763   6.992  10.007  10.042 -0.3066 -0.2477 -0.3657
  288MOL0     C38764   7.111   9.999   9.973  0.2615 -0.4861  0.9813
  288MOL0     C38765   7.210   9.898  10.009  0.6367  0.8012  0.5768
  288MOL0     C38766   7.164   9.754   9.989 -0.1265  0.8425  0.5707
  288MOL0     C38767   7.277   9.640   9.989  0.0649  0.4174  0.4350
  288MOL0     C38768   7.213   9.492   9.970  0.1418 -0.7034 -0.7497
  288MOL0     O38769   7.308   9.389   9.958  0.1358  0.0394 -0.5978
  288MOL0     C38770   7.260   9.257   9.963 -0.0785 -0.4643  0.9235
  288MOL0     C38771   7.126   9.225   9.935 -0.7650  0.6602 -0.5869
  288MOL0     C38772   7.080   9.089   9.941 -0.2027  0.3408  0.5790
  288MOL0     C38773   6.939   9.070   9.925  0.5522 -0.0053  1.2039
  288MOL0     C38774   7.172   8.982   9.962 -0.2807 -0.2786  0.3385
  288MOL0     C38775   7.147   8.837   9.956  1.3053  0.1922 -0.7241
  288MOL0     O38776   7.216   8.763  10.039 -1.1992  1.0854  0.0593
  288MOL0     C38777   7.208   8.623  10.020 -1.3513  0.0060 -0.5618
  288MOL0     C38778   7.300   8.564   9.933  0.4044 -0.0243  0.9026
  288MOL0     C38779   7.322   8.426   9.938  0.8308  0.4196  0.1536
  288MOL0     C38780   7.253   8.343  10.034 -0.0316 -0.4147  0.6220
  288MOL0     O38781   7.267   8.205  10.035 -0.2398  0.2567 -0.2265
  288MOL0     C38782   7.321   8.147  10.152 -0.8656 -0.6520 -0.0172
  288MOL0     C38783   7.467   8.162  10.161  0.5128  0.2654 -0.1769
  288MOL0     C38784   7.539   8.079  10.051 -0.6314  0.5857  0.2831
  288MOL0     C38785   7.699   8.086  10.071 -0.0916  1.0421 -0.3120
  288MOL0     C38786   7.762   8.080   9.934  0.2280 -0.1852 -0.4571
  288MOL0     C38787   7.906   8.114   9.932  0.6729  0.4163  0.1035
  288MOL0     C38788   7.962   8.251   9.981  0.4879  0.1870 -0.2796
  288MOL0     C38789   7.904   8.369   9.909 -0.3326 -0.6216 -0.5386
  288MOL0    Cl38790   7.918   8.356   9.734  0.0059 -0.0888 -0.0496
  288MOL0     C38791   7.163   8.411  10.126 -0.7430 -0.5685  0.3186
  288MOL0     C38792   7.146   8.544  10.121 -0.5978 -0.0786 -0.9705
  288MOL0     O38793   7.067   8.801   9.870 -0.8050  0.4315  0.3043
  288MOL0     C38794   7.309   9.016   9.987  0.2754 -0.3088  0.7679
  288MOL0     C38795   7.350   9.148   9.989  0.5350  0.0738  0.7206
  288MOL0     N38796   7.126  10.114   9.892 -0.5944 -0.5530  0.0803
  288MOL0     N38797   7.009  10.183   9.900 -0.5791 -0.1771 -0.3988
  288MOL0     C38798   6.172  10.663   9.636  0.8010  1.1898  0.2610
  288MOL0     C38799   6.041  10.706   9.666 -0.5479 -0.2155  0.8026
  288MOL0     C38800   5.726  10.993   9.739 -1.0721 -1.0802  0.3056
  288MOL0     C38801   5.618  10.908   9.781  0.2627 -0.1166 -0.7218
  288MOL0     C38802   5.521  10.945   9.868  0.3195  0.8727  0.7167
  288MOL0     C38803   5.528  11.072   9.931 -0.0265 -0.0177 -0.1057
  288MOL0     O38804   5.423  11.117  10.015 -0.4089 -0.5872  0.0915
  288MOL0     C38805   5.443  11.202  10.125 -0.3565  0.3524 -1.0087
  288MOL0     C38806   5.525  11.128  10.237  0.6220  0.5472  0.1176
  288MOL0     C38807   5.505  11.197  10.366  0.1097 -0.3036 -0.1075
  288MOL0     C38808   5.591  11.175  10.488 -0.7928  0.0096  0.0409
  288MOL0     C38809   5.545  11.270  10.589 -0.3655  0.0750 -0.5737
  288MOL0     C38810   5.516  11.332  10.689 -0.1960 -0.0874  0.0326
  288MOL0     C38811   5.630  11.159   9.899  0.2381  0.1290 -0.2167
  288MOL0     C38812   5.728  11.124   9.799  0.1079  0.8153  0.7493
  288MOL0     H38813   5.966  10.861   9.384  1.7371  1.3198 -1.2025
  288MOL0     H38814   6.190  10.790   9.323  1.6831  0.1524  0.6596
  288MOL0     H38815   6.534  10.722   9.535  0.1853  2.4650  5.3305
  288MOL0     H38816   6.428  10.681   9.657  2.2664 -0.8504  0.9145
  288MOL0     H38817   6.403  10.450   9.591  1.2235 -3.1339 -0.5429
  288MOL0     H38818   6.543  10.464   9.476  0.1241 -0.7406  0.0238
  288MOL0     H38819   6.696  10.507   9.662  0.7535 -1.4830  1.0521
  288MOL0     H38820   6.556  10.521   9.768  1.3726  0.1934 -0.4791
  288MOL0     H38821   6.514  10.278   9.674 -0.9599  0.9376 -0.0290
  288MOL0     H38822   6.675  10.293   9.599  0.7354  2.9772 -0.7262
  288MOL0     H38823   6.785  10.341   9.804 -1.0609  3.7994 -0.5266
  288MOL0     H38824   6.645  10.351   9.902  1.2066  2.9480 -0.9654
  288MOL0     H38825   6.588  10.094   9.801 -0.7016  0.3199  2.3780
  288MOL0     H38826   6.768  10.096   9.807 -0.1593  0.9046 -0.8473
  288MOL0     H38827   6.583  10.156  10.039 -1.1802 -1.9649 -0.1744
  288MOL0     H38828   6.662  10.006  10.011  0.9216  0.4216 -1.5077
  288MOL0     H38829   6.807  10.160  10.168  2.2309 -0.2248 -0.9820
  288MOL0     H38830   6.801  10.277  10.042 -1.1570  0.1802 -1.8242
  288MOL0     H38831   6.959   9.936  10.117 -4.8181 -2.1711 -3.7312
  288MOL0     H38832   7.307   9.915   9.961  1.1181  2.3368  1.9733
  288MOL0     H38833   7.227   9.918  10.115  1.1544  0.4948  0.5562
  288MOL0     H38834   7.113   9.747   9.893 -3.2929 -2.1759  2.2174
  288MOL0     H38835   7.093   9.721  10.066  1.6066 -1.1001  1.4540
  288MOL0     H38836   7.341   9.652  10.077  2.3540  0.2830 -1.1172
  288MOL0     H38837   7.334   9.663   9.898 -2.2564  0.6741 -1.0249
  288MOL0     H38838   7.142   9.481   9.888 -2.6547 -0.5202  1.4941
  288MOL0     H38839   7.160   9.471  10.064  3.1134 -2.8337  0.5971
  288MOL0     H38840   7.042   9.290   9.912 -2.9951 -2.0604 -0.5957
  288MOL0     H38841   6.876   9.156   9.947  0.2159  0.2928 -0.7767
  288MOL0     H38842   6.933   9.024   9.826  1.6137  1.4894  0.4154
  288MOL0     H38843   6.914   8.994  10.000  0.4900  0.5596  1.7658
  288MOL0     H38844   7.359   8.619   9.860  0.0879  0.1465  0.7765
  288MOL0     H38845   7.396   8.374   9.878  0.8604  1.8524 -1.1037
  288MOL0     H38846   7.279   8.191  10.243 -2.4563  0.6460 -1.3077
  288MOL0     H38847   7.292   8.042  10.152  1.8806 -1.4766  0.1221
  288MOL0     H38848   7.483   8.270  10.158 -3.0916  0.9217 -0.5072
  288MOL0     H38849   7.503   8.122  10.256 -5.4550 -1.2474  1.9097
  288MOL0     H38850   7.520   8.115   9.949  1.3220 -0.2938 -0.4410
  288MOL0     H38851   7.514   7.973  10.057 -0.4273  0.3791 -1.7095
  288MOL0     H38852   7.718   8.182  10.119  0.0716  1.6727 -1.5863
  288MOL0     H38853   7.724   7.999  10.131 -0.9445  2.6334  2.5226
  288MOL0     H38854   7.704   8.144   9.867 -1.6486 -0.8696  0.4642
  288MOL0     H38855   7.757   7.979   9.894 -0.1700 -0.8013  1.0556
  288MOL0     H38856   7.947   8.039  10.000 -1.0262 -0.7782 -0.1085
  288MOL0     H38857   7.951   8.098   9.834  3.7530  2.5432  1.0248
  288MOL0     H38858   8.068   8.256   9.956  0.2393  1.2383 -1.1823
  288MOL0     H38859   7.932   8.265  10.085 -2.4068 -1.7116 -0.7181
  288MOL0     H38860   7.959   8.455   9.949 -2.3509 -0.2334  1.6949
  288MOL0     H38861   7.800   8.385   9.942 -0.0986  0.4974 -0.2906
  288MOL0     H38862   7.102   8.339  10.179  1.8462 -1.9671  1.5926
  288MOL0     H38863   7.089   8.598  10.196  1.3910 -2.6060  2.6863
  288MOL0     H38864   7.380   8.935  10.003  1.4414  1.2971  4.9213
  288MOL0     H38865   7.457   9.156  10.005  0.3657  3.1400  0.9321
  288MOL0     H38866   6.220  10.593   9.703 -0.9443 -0.2694  0.0542
  288MOL0     H38867   5.992  10.677   9.758 -2.5335 -4.7554 -1.3286
  288MOL0     H38868   5.620  10.808   9.739 -0.9992  0.3265 -1.8992
  288MOL0     H38869   5.435  10.883   9.888  1.0384  0.5640  3.1208
  288MOL0     H38870   5.491  11.294  10.092  2.4631 -0.3430  0.7563
  288MOL0     H38871   5.343  11.234  10.154 -0.1127 -0.7745  1.3701
  288MOL0     H38872   5.630  11.130  10.210  0.9176 -0.1656  1.1479
  288MOL0     H38873   5.498  11.022  10.244  2.8620 -0.1328 -0.7896
  288MOL0     H38874   5.405  11.176  10.405 -0.1184  2.4280  1.0019
  288MOL0     H38875   5.502  11.303  10.339  1.1271 -0.7653 -2.2574
  288MOL0     H38876   5.697  11.192  10.468 -0.7818  0.2638  0.3111
  288MOL0     H38877   5.583  11.073  10.527 -0.3902  0.0556  0.2514
  288MOL0     H38878   5.502  11.404  10.767 -4.3600 -2.4214  1.7986
  288MOL0     H38879   5.628  11.265   9.922  0.8576  0.0786  0.0951
  288MOL0     H38880   5.807  11.188   9.762  0.8460 -1.3882 -1.7956
  289MOL0     O38881   9.926   2.901   6.685  0.2022 -0.0871  0.1346
  289MOL0     C38882  10.007   2.962   6.623  0.2808 -0.4273 -0.0045
  289MOL0     O38883  10.105   3.040   6.675  0.1738  0.4588  0.0309
  289MOL0     C38884  10.099   3.050   6.809 -1.0550  0.1806 -0.9680
  289MOL0     C38885  10.068   3.179   6.865  0.6968 -0.3897 -0.3347
  289MOL0     C38886  10.082   3.190   7.004 -0.6906  0.7673  0.0952
  289MOL0     C38887  10.129   3.079   7.088 -0.4410 -0.4629 -0.4947
  289MOL0     O38888  10.139   3.077   7.227 -0.6318 -0.3262 -0.5431
  289MOL0     C38889  10.132   3.197   7.294 -0.3761 -0.4525 -0.2502
  289MOL0     C38890   9.991   3.222   7.352 -1.0228 -0.2707  0.2666
  289MOL0     C38891   9.991   3.350   7.439 -0.5102 -0.3167 -0.5400
  289MOL0     C38892   9.871   3.341   7.527 -0.7647  0.0337  0.5633
  289MOL0     C38893   9.836   3.471   7.612 -0.2188 -0.7370 -0.0801
  289MOL0     C38894   9.946   3.518   7.709  1.2901 -0.1745 -0.6555
  289MOL0     C38895   9.996   3.408   7.797 -0.0022  0.1806 -0.5024
  289MOL0     C38896  10.105   3.452   7.904  0.3733 -0.1412 -0.6106
  289MOL0     N38897  10.205   3.353   7.922 -0.3936  0.4832 -1.3579
  289MOL0     C38898  10.181   3.226   7.952 -0.2744 -0.5474  0.3976
  289MOL0     C38899  10.295   3.150   7.960  0.1897 -0.1843 -0.5534
  289MOL0     C38900  10.334   3.012   7.985  0.1287  0.3725  0.0744
  289MOL0     C38901  10.282   2.914   7.878 -0.2530 -0.0705  0.1050
  289MOL0     C38902  10.338   2.778   7.912 -0.4054  0.5798 -0.4529
  289MOL0     C38903  10.485   2.781   7.872 -0.5937  0.0967  0.3861
  289MOL0     O38904  10.520   2.742   7.740 -0.2130  0.2401 -0.6601
  289MOL0     C38905  10.652   2.746   7.712 -0.1880 -0.6431 -0.6243
  289MOL0     C38906  10.743   2.839   7.763 -0.1182 -0.6056  0.0176
  289MOL0     C38907  10.881   2.833   7.731 -0.0918 -0.4975 -0.5084
  289MOL0     C38908  10.977   2.921   7.812  0.4931  0.0299  0.4179
  289MOL0     C38909  10.932   2.727   7.639  0.9375 -0.0703 -0.5972
  289MOL0     C38910  11.066   2.708   7.596  1.0307  1.0833  0.7272
  289MOL0     O38911  11.099   2.570   7.583  0.4424  0.2722  0.0795
  289MOL0     C38912  11.193   2.545   7.487  0.9198 -0.1474 -0.1494
  289MOL0     C38913  11.327   2.548   7.512  0.2609  0.0668  0.2430
  289MOL0     C38914  11.420   2.527   7.407 -0.4005  0.6669  0.5134
  289MOL0     C38915  11.377   2.488   7.278  0.5649  0.1595  0.6352
  289MOL0     O38916  11.457   2.436   7.182 -0.9723  0.5800 -0.4548
  289MOL0     C38917  11.535   2.525   7.100  0.0035 -0.0020 -0.1509
  289MOL0     C38918  11.675   2.558   7.152  0.2073  0.4920  0.8284
  289MOL0     C38919  11.778   2.642   7.064 -0.3790  0.1054  0.7704
  289MOL0     C38920  11.845   2.559   6.947  0.0697 -0.9125 -0.1476
  289MOL0     C38921  11.911   2.644   6.837  0.0990 -0.8614  0.1393
  289MOL0     C38922  11.954   2.562   6.714  0.2796 -0.4024 -0.2920
  289MOL0     C38923  12.054   2.637   6.626 -0.4525 -0.7152  0.2353
  289MOL0     C38924  12.206   2.616   6.660  0.5957 -0.2898  0.5533
  289MOL0    Cl38925  12.302   2.641   6.511  0.3220 -0.0369  0.0674
  289MOL0     C38926  11.242   2.493   7.251 -0.5687 -1.5723 -0.9107
  289MOL0     C38927  11.153   2.531   7.350  0.3257 -0.2677 -0.2464
  289MOL0     O38928  11.134   2.803   7.561  0.1166  1.1159  0.6749
  289MOL0     C38929  10.836   2.639   7.588 -0.6644  0.2883 -0.0202
  289MOL0     C38930  10.710   2.644   7.626  1.0294 -0.1013  0.2772
  289MOL0     N38931  10.391   3.239   7.918  0.2083 -0.0925  0.3020
  289MOL0     N38932  10.340   3.363   7.895  0.0536  0.3637  0.3483
  289MOL0     C38933  10.174   2.965   7.027 -0.3394  0.4689 -0.6088
  289MOL0     C38934  10.152   2.946   6.890 -0.1422 -0.1381  0.6886
  289MOL0     C38935   9.996   2.948   6.475  0.9195 -0.3429  0.3093
  289MOL0     C38936   9.869   2.973   6.414 -1.0970  0.6734 -0.4476
  289MOL0     C38937   9.864   2.961   6.271  0.5174 -0.2633 -0.9912
  289MOL0     C38938   9.978   2.934   6.197 -0.0004 -0.5830  0.4615
  289MOL0     O38939   9.949   2.943   6.062 -0.1700 -0.3011 -0.3201
  289MOL0     C38940  10.050   2.934   5.961 -0.3271 -0.4525 -0.1189
  289MOL0     C38941  10.001   3.002   5.833  0.0874  0.5666 -0.2185
  289MOL0     C38942   9.936   3.135   5.848  0.1022  0.3132 -0.7079
  289MOL0     C38943  10.029   3.252   5.885 -0.3489  0.1044 -0.0362
  289MOL0     C38944   9.938   3.368   5.914 -0.0982 -0.9208  0.8542
  289MOL0     C38945   9.863   3.462   5.931 -0.5239 -0.4940  0.7893
  289MOL0     C38946  10.108   2.926   6.251  0.0570 -0.1961  0.1843
  289MOL0     C38947  10.112   2.933   6.392 -1.2039  0.8017  0.0935
  289MOL0     H38948  10.026   3.256   6.800 -0.0787 -1.1436 -0.7645
  289MOL0     H38949  10.050   3.285   7.046  0.3950  1.5785 -0.8722
  289MOL0     H38950  10.207   3.189   7.374 -0.9578  1.6639  0.5841
  289MOL0     H38951  10.167   3.283   7.237 -1.0764 -0.6638 -1.0050
  289MOL0     H38952   9.909   3.227   7.280 -1.5842 -0.1487  0.9012
  289MOL0     H38953   9.979   3.132   7.413 -0.2806 -0.8712 -0.4546
  289MOL0     H38954  10.085   3.349   7.494 -0.8740 -0.0834  0.0903
  289MOL0     H38955   9.979   3.439   7.377  1.6761  0.3876 -0.0184
  289MOL0     H38956   9.781   3.315   7.470 -0.1449  0.6457 -0.7391
  289MOL0     H38957   9.890   3.259   7.597 -0.9112  1.3378  2.2202
  289MOL0     H38958   9.808   3.549   7.542  1.9648  0.5327  0.3565
  289MOL0     H38959   9.744   3.449   7.667  0.4217  1.1281  1.8816
  289MOL0     H38960  10.032   3.551   7.649  2.6735 -0.1206  1.2816
  289MOL0     H38961   9.906   3.599   7.769 -0.7959 -0.4200 -1.6297
  289MOL0     H38962   9.913   3.361   7.851  0.2942 -0.6738 -0.7740
  289MOL0     H38963  10.046   3.337   7.730 -1.7271  0.4313 -2.1369
  289MOL0     H38964  10.055   3.484   7.996  0.9397  3.7703 -1.4870
  289MOL0     H38965  10.144   3.548   7.869 -1.0632  1.5891  2.2192
  289MOL0     H38966  10.082   3.184   7.945 -0.8285  0.9010 -3.7770
  289MOL0     H38967  10.443   3.018   7.997  0.2833  3.8606 -1.7908
  289MOL0     H38968  10.278   2.992   8.077  0.1215  0.4522  0.0867
  289MOL0     H38969  10.321   2.958   7.785 -0.5105  0.2427  0.1417
  289MOL0     H38970  10.173   2.912   7.870 -0.1007 -1.1959 -2.4865
  289MOL0     H38971  10.283   2.713   7.844  0.4138  2.7809 -3.4472
  289MOL0     H38972  10.315   2.762   8.018 -0.1788 -0.1013 -0.5031
  289MOL0     H38973  10.539   2.707   7.931 -0.9081 -1.0792 -0.7488
  289MOL0     H38974  10.524   2.881   7.894 -1.9785  0.6111  0.6585
  289MOL0     H38975  10.714   2.915   7.835  2.7105 -2.2779  3.1923
  289MOL0     H38976  10.922   3.014   7.826  0.5490 -0.0143  0.9312
  289MOL0     H38977  11.001   2.875   7.908  0.5253  2.6608  1.7527
  289MOL0     H38978  11.064   2.933   7.745 -1.4095  1.8051 -1.9283
  289MOL0     H38979  11.360   2.549   7.615 -1.6229  0.5009  0.8718
  289MOL0     H38980  11.524   2.518   7.438 -0.4172  0.5891  0.5451
  289MOL0     H38981  11.535   2.486   6.998 -3.8732 -0.2334 -0.2213
  289MOL0     H38982  11.472   2.614   7.090  0.1100  0.5601  3.0977
  289MOL0     H38983  11.670   2.628   7.236 -0.6637 -0.0252  1.2066
  289MOL0     H38984  11.721   2.464   7.183  2.5230  1.6239  1.0537
  289MOL0     H38985  11.849   2.682   7.137  1.0995 -0.2636 -0.4195
  289MOL0     H38986  11.729   2.731   7.023  0.4164  0.0230 -0.4063
  289MOL0     H38987  11.925   2.500   6.994  1.1534 -0.1321 -0.9485
  289MOL0     H38988  11.764   2.501   6.902  0.2972 -1.5976  0.3070
  289MOL0     H38989  11.993   2.709   6.870  1.1898 -0.6196 -2.7365
  289MOL0     H38990  11.849   2.723   6.794  2.8183 -0.6116 -3.8346
  289MOL0     H38991  11.989   2.462   6.739  4.9615  1.1935  0.6368
  289MOL0     H38992  11.866   2.555   6.649 -0.3096 -0.5640  0.4993
  289MOL0     H38993  12.039   2.745   6.618  1.7873 -0.4737 -3.0147
  289MOL0     H38994  12.042   2.582   6.532  2.9655  0.7803 -1.2723
  289MOL0     H38995  12.211   2.516   6.705  0.6855 -1.1282 -1.2300
  289MOL0     H38996  12.249   2.689   6.729  5.0287 -1.7019 -0.3407
  289MOL0     H38997  11.214   2.480   7.147  1.5141  0.6201 -1.8643
  289MOL0     H38998  11.049   2.541   7.321 -0.3666  1.2262  2.4512
  289MOL0     H38999  10.876   2.552   7.535 -0.8645 -0.8123  1.5552
  289MOL0     H39000  10.655   2.553   7.601  0.3660  0.7308 -1.4524
  289MOL0     H39001  10.222   2.890   7.089 -2.7132 -0.6760 -0.0016
  289MOL0     H39002  10.198   2.856   6.852 -0.3147 -0.2432  0.7295
  289MOL0     H39003   9.779   2.984   6.473 -1.3059  2.1240 -0.9857
  289MOL0     H39004   9.760   2.974   6.245 -1.3362  0.4724  5.1962
  289MOL0     H39005  10.144   2.983   5.989 -0.1962  1.2855 -3.1904
  289MOL0     H39006  10.078   2.828   5.954 -0.7122 -0.6412  1.0661
  289MOL0     H39007   9.925   2.934   5.793  1.2726  0.5112 -2.4851
  289MOL0     H39008  10.069   2.993   5.749  0.5665  1.5692  0.0524
  289MOL0     H39009   9.868   3.132   5.933  0.3028 -1.3300 -0.5725
  289MOL0     H39010   9.885   3.151   5.752 -1.0291 -0.2032 -0.2082
  289MOL0     H39011  10.098   3.277   5.804 -0.2648  0.9448  0.2770
  289MOL0     H39012  10.095   3.227   5.968 -1.0352 -1.5517  0.0409
  289MOL0     H39013   9.799   3.548   5.936  2.4163  1.9749 -0.6203
  289MOL0     H39014  10.199   2.913   6.194  0.5627  1.4390  0.5606
  289MOL0     H39015  10.207   2.923   6.443 -1.9921  1.8402  1.8712
  290MOL0     O39016   5.014   0.225   9.383 -0.3496  0.6277 -0.7635
  290MOL0     C39017   5.031   0.271   9.500  0.3375  0.8101  0.8080
  290MOL0     O39018   4.955   0.232   9.615  0.0040  0.1876 -0.2203
  290MOL0     C39019   4.853   0.144   9.595  0.4087 -0.0082  0.4541
  290MOL0     C39020   4.845   0.030   9.676  0.0964  0.4178 -0.0024
  290MOL0     C39021   4.743  -0.070   9.648  0.2049 -0.3213 -0.3427
  290MOL0     C39022   4.635  -0.044   9.560 -0.1525 -0.2793  0.4852
  290MOL0     O39023   4.531  -0.135   9.530  0.5744 -0.0475  0.8803
  290MOL0     C39024   4.562  -0.273   9.523  0.4231 -0.6787 -0.3159
  290MOL0     C39025   4.678  -0.298   9.428 -0.2700 -0.3690  0.2725
  290MOL0     C39026   4.661  -0.236   9.287 -0.3112 -0.8711  0.4412
  290MOL0     C39027   4.745  -0.289   9.165 -0.4743  0.1562 -0.7518
  290MOL0     C39028   4.896  -0.249   9.168  0.2621  0.5530 -0.5409
  290MOL0     C39029   4.898  -0.099   9.145  0.4772  0.4609 -0.3806
  290MOL0     C39030   5.024  -0.045   9.078  0.5255 -0.7449  1.0642
  290MOL0     C39031   5.147  -0.068   9.162  0.4246  0.7388 -0.4281
  290MOL0     N39032   5.275  -0.014   9.118  0.0767 -0.3927  0.7412
  290MOL0     C39033   5.346  -0.063   9.010  0.0517  0.2213  0.7529
  290MOL0     C39034   5.461   0.011   8.998  0.3036 -0.3404 -0.8922
  290MOL0     C39035   5.556   0.023   8.876 -0.2096  0.2386  0.1186
  290MOL0     C39036   5.684  -0.061   8.865  0.0053  0.4530 -0.1706
  290MOL0     C39037   5.654  -0.215   8.866 -0.0754  0.0931 -0.0696
  290MOL0     C39038   5.635  -0.269   8.715 -0.8351 -0.2403 -0.7905
  290MOL0     O39039   5.496  -0.238   8.675  0.3334  0.4999  0.2232
  290MOL0     C39040   5.472  -0.181   8.550 -0.5095 -0.6982  0.3242
  290MOL0     C39041   5.564  -0.171   8.448  0.2397  0.4593 -0.8042
  290MOL0     C39042   5.526  -0.109   8.322 -0.4873  0.0712 -0.7999
  290MOL0     C39043   5.621  -0.113   8.206 -0.7596 -0.0540  0.9838
  290MOL0     C39044   5.401  -0.040   8.317  0.4000  0.5482  1.0981
  290MOL0     C39045   5.345   0.011   8.188 -0.2672  0.3184 -0.3184
  290MOL0     O39046   5.201   0.019   8.189  0.3236  0.1465 -0.0210
  290MOL0     C39047   5.140   0.075   8.083  0.4077 -0.5011  0.4291
  290MOL0     C39048   5.189   0.189   8.007 -0.4276  0.4558  0.2153
  290MOL0     C39049   5.100   0.254   7.929  0.5147 -0.0672  0.5080
  290MOL0     C39050   4.962   0.220   7.913 -1.1420  0.1431 -0.4572
  290MOL0     O39051   4.875   0.281   7.833 -0.1636 -0.1766  0.2431
  290MOL0     C39052   4.731   0.296   7.885 -0.8255 -0.2090  1.0802
  290MOL0     C39053   4.695   0.439   7.941 -1.2387  0.1347 -0.4125
  290MOL0     C39054   4.588   0.421   8.049  1.5050  0.5108 -0.6309
  290MOL0     C39055   4.545   0.560   8.091  1.0912 -0.4803 -0.1563
  290MOL0     C39056   4.446   0.556   8.212  0.1500 -0.1710 -1.2357
  290MOL0     C39057   4.381   0.689   8.215 -0.0570  0.1898 -1.0518
  290MOL0     C39058   4.309   0.681   8.358 -0.5631 -0.3301 -0.2961
  290MOL0     C39059   4.376   0.751   8.467 -0.3161 -0.5791 -0.1965
  290MOL0    Cl39060   4.392   0.915   8.408  0.1365 -0.2115 -0.1163
  290MOL0     C39061   4.927   0.103   7.970  0.5139  0.1873 -0.0671
  290MOL0     C39062   5.012   0.025   8.052  0.0102 -0.4309  0.4092
  290MOL0     O39063   5.413   0.021   8.088 -0.3447 -0.8924 -0.5706
  290MOL0     C39064   5.323  -0.031   8.426  0.5478  1.0395 -0.3005
  290MOL0     C39065   5.354  -0.108   8.538  0.1940  0.1667  0.4258
  290MOL0     N39066   5.454   0.105   9.100 -0.0333 -0.3058 -0.2419
  290MOL0     N39067   5.343   0.095   9.160  0.2427 -0.1047 -0.4799
  290MOL0     C39068   4.633   0.083   9.487 -0.1569 -0.4805 -0.2500
  290MOL0     C39069   4.755   0.166   9.495 -0.1456  0.4017  0.7599
  290MOL0     C39070   5.148   0.359   9.520 -0.4600  0.1232 -0.7060
  290MOL0     C39071   5.157   0.446   9.621 -0.3019 -0.4604 -0.7796
  290MOL0     C39072   5.265   0.534   9.635  0.1319 -0.0455  0.1672
  290MOL0     C39073   5.374   0.525   9.546 -0.1786  0.1545 -0.5818
  290MOL0     O39074   5.494   0.588   9.561 -0.7597  0.3204 -0.2755
  290MOL0     C39075   5.535   0.612   9.697  0.4506 -0.4453  0.3735
  290MOL0     C39076   5.680   0.647   9.698 -0.6755  0.7989 -0.1828
  290MOL0     C39077   5.723   0.715   9.833 -0.0803  0.1962  0.9080
  290MOL0     C39078   5.872   0.779   9.822  0.8562  0.5749  0.2500
  290MOL0     C39079   5.894   0.852   9.944 -0.8115 -0.5053 -0.1145
  290MOL0     C39080   5.907   0.904  10.062 -0.4201 -0.0757 -0.0169
  290MOL0     C39081   5.366   0.438   9.441 -0.0723  0.8451  1.1874
  290MOL0     C39082   5.254   0.353   9.425 -0.2202  0.0487  0.2713
  290MOL0     H39083   4.925   0.023   9.749 -0.9227  0.5374  1.1621
  290MOL0     H39084   4.745  -0.165   9.701 -0.4690  0.2471  0.7395
  290MOL0     H39085   4.577  -0.317   9.622 -1.0654 -2.7953 -0.9706
  290MOL0     H39086   4.470  -0.326   9.498 -0.2701 -0.4888  1.6825
  290MOL0     H39087   4.770  -0.262   9.474 -0.8928 -1.2367  2.2984
  290MOL0     H39088   4.689  -0.405   9.408  3.4708  0.5837 -4.8952
  290MOL0     H39089   4.558  -0.255   9.255 -1.1378  3.5956 -0.1510
  290MOL0     H39090   4.671  -0.127   9.293  0.2911 -0.6526 -2.7990
  290MOL0     H39091   4.736  -0.398   9.154 -1.5555 -0.1541  2.1922
  290MOL0     H39092   4.698  -0.247   9.076  1.9414 -0.4004 -2.3877
  290MOL0     H39093   4.956  -0.276   9.255  1.4780  0.8907 -1.2585
  290MOL0     H39094   4.939  -0.300   9.082 -0.7105 -0.3506 -0.5146
  290MOL0     H39095   4.813  -0.066   9.085  1.2421  1.2611 -1.0487
  290MOL0     H39096   4.898  -0.044   9.240 -0.0857  2.0363 -1.2585
  290MOL0     H39097   5.035  -0.088   8.978  2.3148  1.4078  0.2496
  290MOL0     H39098   5.017   0.061   9.054  3.0649 -0.4589  1.3178
  290MOL0     H39099   5.165  -0.176   9.172  1.2439  0.6782 -2.0923
  290MOL0     H39100   5.135  -0.030   9.263 -1.4597  1.0982 -0.7645
  290MOL0     H39101   5.316  -0.135   8.934 -4.3831  2.2207  0.3082
  290MOL0     H39102   5.497   0.022   8.784  0.1671  0.7940 -0.1363
  290MOL0     H39103   5.594   0.125   8.890 -1.6219  0.6172  1.3978
  290MOL0     H39104   5.745  -0.039   8.952 -1.5548 -3.5394  2.2245
  290MOL0     H39105   5.739  -0.032   8.775 -0.4069 -2.2489 -1.3934
  290MOL0     H39106   5.565  -0.241   8.923 -1.4275  1.3122 -1.5539
  290MOL0     H39107   5.737  -0.268   8.914  0.2631 -0.9491 -1.7356
  290MOL0     H39108   5.647  -0.377   8.727  1.2214  0.0840  0.6485
  290MOL0     H39109   5.710  -0.218   8.655  0.2024  1.8038  2.0064
  290MOL0     H39110   5.658  -0.225   8.447 -0.1029 -0.1429 -0.8777
  290MOL0     H39111   5.724  -0.149   8.215  0.7203  3.6293  0.4156
  290MOL0     H39112   5.582  -0.169   8.121 -1.2273 -0.0640  1.2001
  290MOL0     H39113   5.645  -0.011   8.175  3.1421 -0.9735  0.3951
  290MOL0     H39114   5.289   0.230   8.019  0.1887 -0.6856 -0.8318
  290MOL0     H39115   5.132   0.342   7.873  0.2289  0.7931  1.6751
  290MOL0     H39116   4.668   0.270   7.801  0.3673  1.4422 -0.4077
  290MOL0     H39117   4.695   0.226   7.961  0.4444 -1.5481  0.5015
  290MOL0     H39118   4.776   0.491   7.992 -1.1281  1.4971 -1.9019
  290MOL0     H39119   4.649   0.503   7.865 -0.0521  2.6899  0.8877
  290MOL0     H39120   4.619   0.366   8.138 -0.9316  0.1470  0.0719
  290MOL0     H39121   4.497   0.369   8.017  1.3067 -0.2578  1.0596
  290MOL0     H39122   4.635   0.620   8.109  1.8293 -1.2683 -1.1422
  290MOL0     H39123   4.485   0.602   8.010  0.0889  0.4210  0.9987
  290MOL0     H39124   4.506   0.537   8.302 -0.2558 -2.1711 -1.3325
  290MOL0     H39125   4.381   0.468   8.203  0.6105 -0.5772 -0.7234
  290MOL0     H39126   4.456   0.767   8.200  3.4596 -2.4378  1.1107
  290MOL0     H39127   4.305   0.697   8.136 -0.8047  3.7298 -0.1295
  290MOL0     H39128   4.294   0.579   8.395 -1.2911  0.1170  0.6969
  290MOL0     H39129   4.210   0.726   8.345  0.2760  1.2638 -1.4469
  290MOL0     H39130   4.476   0.710   8.483 -0.2611 -1.7224 -2.9140
  290MOL0     H39131   4.311   0.732   8.553 -0.3397 -1.2852 -0.3608
  290MOL0     H39132   4.822   0.073   7.964 -0.1241  1.8233  1.6685
  290MOL0     H39133   4.980  -0.053   8.121  0.5719 -1.6110 -0.6312
  290MOL0     H39134   5.246   0.045   8.439  0.2086  0.8854 -1.3244
  290MOL0     H39135   5.287  -0.087   8.620 -0.5758 -0.9894  0.1071
  290MOL0     H39136   4.556   0.087   9.411 -1.3541  0.3521  0.9769
  290MOL0     H39137   4.777   0.251   9.432  1.7198 -1.4986 -1.3174
  290MOL0     H39138   5.075   0.451   9.692  1.3895 -1.0737  1.3618
  290MOL0     H39139   5.260   0.611   9.711 -1.7513  2.5693 -2.3766
  290MOL0     H39140   5.485   0.700   9.739 -3.0232 -2.4629  0.8258
  290MOL0     H39141   5.520   0.521   9.756  1.8236 -1.4908 -0.8124
  290MOL0     H39142   5.702   0.711   9.612 -0.5850  1.0562  0.0277
  290MOL0     H39143   5.730   0.550   9.688 -3.0782 -0.8212  2.1460
  290MOL0     H39144   5.730   0.637   9.910 -1.0728 -0.5433  0.2734
  290MOL0     H39145   5.652   0.792   9.867 -0.7326  0.6279 -1.3080
  290MOL0     H39146   5.894   0.840   9.735  1.8102 -0.0568  0.0372
  290MOL0     H39147   5.939   0.693   9.820 -0.5729 -0.7234  2.6784
  290MOL0     H39148   5.900   0.954  10.156  1.1607  0.9763 -0.4290
  290MOL0     H39149   5.441   0.427   9.363 -3.0936  1.9638 -2.1736
  290MOL0     H39150   5.260   0.296   9.332  0.3092 -1.3957  1.1655
  291MOL0     O39151   6.781   8.050   2.711 -0.5346 -0.1212  0.3050
  291MOL0     C39152   6.774   8.090   2.828 -1.0124 -0.0604  0.0760
  291MOL0     O39153   6.694   8.186   2.879  0.4844 -0.6093  0.1545
  291MOL0     C39154   6.600   8.233   2.790 -0.4602 -0.6115 -0.3961
  291MOL0     C39155   6.616   8.360   2.728  0.0572  0.9182 -0.1784
  291MOL0     C39156   6.525   8.403   2.627 -0.5206  0.5647  0.4096
  291MOL0     C39157   6.411   8.324   2.591 -0.3298 -0.8053  0.2200
  291MOL0     O39158   6.360   8.365   2.468 -0.0475  0.0889  0.4639
  291MOL0     C39159   6.254   8.278   2.421 -0.9513  0.0499  0.8428
  291MOL0     C39160   6.190   8.330   2.293 -0.2222  0.0213 -0.0012
  291MOL0     C39161   6.132   8.467   2.301  0.7461 -0.1345  0.2793
  291MOL0     C39162   6.006   8.492   2.217 -0.5372  0.8066  0.4606
  291MOL0     C39163   5.930   8.607   2.274 -0.5180 -0.0344  0.0432
  291MOL0     C39164   5.784   8.621   2.228  0.0359 -0.3488 -0.8624
  291MOL0     C39165   5.774   8.628   2.070  0.1444  1.1319 -0.0079
  291MOL0     C39166   5.794   8.769   2.006  0.4514 -0.7119  0.3255
  291MOL0     N39167   5.792   8.743   1.860 -1.3440  0.2006 -0.1060
  291MOL0     C39168   5.679   8.736   1.784 -0.4127 -0.3368 -0.2142
  291MOL0     C39169   5.719   8.701   1.660 -0.8711  0.3320  0.0915
  291MOL0     C39170   5.653   8.699   1.519 -0.4380  0.1979  0.9225
  291MOL0     C39171   5.506   8.740   1.515  0.2998 -0.5594 -0.9512
  291MOL0     C39172   5.497   8.890   1.550  1.1063 -0.2958  0.1722
  291MOL0     C39173   5.352   8.927   1.582  0.4491  0.3687 -0.0711
  291MOL0     O39174   5.333   9.031   1.673  0.5532 -0.6123  0.0025
  291MOL0     C39175   5.349   9.021   1.814 -0.6880  0.4906  0.4329
  291MOL0     C39176   5.372   9.141   1.872  0.9630 -0.2103 -1.2728
  291MOL0     C39177   5.410   9.145   2.010 -0.1934  0.0445 -0.1811
  291MOL0     C39178   5.427   9.290   2.074 -0.2415 -0.0233  0.6555
  291MOL0     C39179   5.431   9.024   2.088  0.6423  0.6912  0.0080
  291MOL0     C39180   5.489   9.026   2.222  0.1800 -1.1373  0.3585
  291MOL0     O39181   5.475   9.135   2.304 -0.9564  0.1154  0.5708
  291MOL0     C39182   5.545   9.144   2.422  0.0025  0.0934  0.1251
  291MOL0     C39183   5.659   9.214   2.417 -1.1742  0.1725 -0.7115
  291MOL0     C39184   5.735   9.241   2.540 -0.1750 -0.6323  0.3723
  291MOL0     C39185   5.686   9.181   2.652  0.0755  0.6130  0.0869
  291MOL0     O39186   5.751   9.183   2.772 -0.6005 -0.0504 -0.2081
  291MOL0     C39187   5.878   9.252   2.787 -0.4178 -0.6037 -0.4716
  291MOL0     C39188   5.935   9.183   2.909 -0.1014  0.0455  0.7131
  291MOL0     C39189   6.052   9.262   2.966  0.5514  0.4686 -0.6492
  291MOL0     C39190   6.174   9.270   2.878 -0.1277  0.1804 -0.0589
  291MOL0     C39191   6.277   9.374   2.927 -0.9095  0.1183  0.1046
  291MOL0     C39192   6.313   9.387   3.071 -0.9101  0.2927 -0.6109
  291MOL0     C39193   6.458   9.444   3.086  0.0806 -0.3394  0.0085
  291MOL0     C39194   6.508   9.472   3.232 -0.5945 -0.0214 -0.2453
  291MOL0    Cl39195   6.480   9.319   3.335  0.1256  0.2271  0.3666
  291MOL0     C39196   5.564   9.112   2.651 -0.3177 -0.5832 -0.4037
  291MOL0     C39197   5.494   9.088   2.539  0.5032 -0.5687  0.3454
  291MOL0     O39198   5.555   8.927   2.251 -0.4529 -0.4355 -0.2706
  291MOL0     C39199   5.409   8.901   2.012 -0.2952  0.5631 -0.3046
  291MOL0     C39200   5.361   8.903   1.885 -1.4733  0.7519  0.7148
  291MOL0     N39201   5.861   8.697   1.665  0.8056  0.2486 -0.3759
  291MOL0     N39202   5.902   8.719   1.784 -0.0018 -0.5526  0.3384
  291MOL0     C39203   6.391   8.196   2.654 -0.3709 -0.0009  0.0269
  291MOL0     C39204   6.493   8.150   2.749 -0.6725  0.3830  0.2355
  291MOL0     C39205   6.870   8.026   2.918 -0.2858  0.4089  0.1020
  291MOL0     C39206   6.962   7.928   2.884 -0.5270 -0.5834 -1.0665
  291MOL0     C39207   7.045   7.862   2.980  0.2339  0.4955  0.0136
  291MOL0     C39208   7.021   7.895   3.115  0.2991  0.4130  0.0837
  291MOL0     O39209   7.084   7.813   3.202  0.5313 -1.0653 -0.7590
  291MOL0     C39210   7.074   7.828   3.348  0.8494  0.0626  0.9840
  291MOL0     C39211   7.204   7.875   3.404 -0.3377  0.7145 -0.3667
  291MOL0     C39212   7.314   7.763   3.406 -0.6512 -0.2689 -0.1827
  291MOL0     C39213   7.457   7.812   3.443  0.2721 -0.3124 -0.3142
  291MOL0     C39214   7.560   7.733   3.383 -0.4456 -0.1046  0.3017
  291MOL0     C39215   7.639   7.651   3.348 -0.0148 -0.0762 -0.0734
  291MOL0     C39216   6.935   7.997   3.148 -0.2812 -1.3214 -1.0364
  291MOL0     C39217   6.854   8.068   3.053 -0.7938 -0.2854 -0.5130
  291MOL0     H39218   6.703   8.417   2.760  0.0620 -0.9229  3.6795
  291MOL0     H39219   6.538   8.495   2.570  0.5776  0.8180  1.0266
  291MOL0     H39220   6.305   8.185   2.396  0.6105  0.8939  0.7918
  291MOL0     H39221   6.186   8.252   2.502 -0.7923 -3.7969 -0.0786
  291MOL0     H39222   6.252   8.328   2.203 -0.5161  1.8329 -0.2792
  291MOL0     H39223   6.104   8.265   2.270 -1.8385  2.4309 -1.2689
  291MOL0     H39224   6.110   8.478   2.407 -1.4077 -1.0872 -0.0089
  291MOL0     H39225   6.207   8.541   2.273  1.1172  1.2740  4.3389
  291MOL0     H39226   6.022   8.511   2.111  1.6557  1.1928  0.8022
  291MOL0     H39227   5.942   8.405   2.235  2.8840 -2.5719 -1.8293
  291MOL0     H39228   5.913   8.599   2.382 -0.7788 -0.1153 -0.0054
  291MOL0     H39229   5.989   8.694   2.242 -1.5511 -0.1168 -2.2966
  291MOL0     H39230   5.719   8.540   2.263  0.7549 -0.9147 -0.8284
  291MOL0     H39231   5.737   8.715   2.259  0.6025 -0.9609  2.1566
  291MOL0     H39232   5.848   8.559   2.029 -1.5111 -1.6693  1.3921
  291MOL0     H39233   5.682   8.583   2.032  1.9813 -3.3337  0.1844
  291MOL0     H39234   5.890   8.817   2.025  0.5595 -0.6827 -0.2797
  291MOL0     H39235   5.719   8.846   2.025 -1.8511 -2.6335 -0.3728
  291MOL0     H39236   5.580   8.743   1.827  0.6361  0.2335  2.3021
  291MOL0     H39237   5.699   8.781   1.463  0.7982  1.4412  3.5803
  291MOL0     H39238   5.664   8.602   1.469  2.1749 -0.0584  1.8846
  291MOL0     H39239   5.455   8.679   1.590  1.2935  0.8612  0.9712
  291MOL0     H39240   5.465   8.729   1.414 -2.5923  3.6957 -0.5284
  291MOL0     H39241   5.520   8.950   1.462 -3.1121  0.7981 -0.4083
  291MOL0     H39242   5.565   8.910   1.633 -1.0144 -4.4740  3.3255
  291MOL0     H39243   5.303   8.840   1.627 -4.0969  2.1623 -1.0512
  291MOL0     H39244   5.297   8.961   1.494 -3.5526 -0.6107  1.8181
  291MOL0     H39245   5.360   9.228   1.808  0.1845  0.5163 -0.1695
  291MOL0     H39246   5.419   9.363   1.994 -1.8963  0.9393  1.6474
  291MOL0     H39247   5.340   9.307   2.138 -2.7361 -1.2746 -2.1603
  291MOL0     H39248   5.520   9.304   2.130 -0.3497  1.1839  0.5597
  291MOL0     H39249   5.673   9.269   2.325  4.8605 -0.8822 -0.8368
  291MOL0     H39250   5.825   9.300   2.528 -0.8975  0.1343 -1.8625
  291MOL0     H39251   5.933   9.250   2.693  0.8880  0.3848  0.2285
  291MOL0     H39252   5.866   9.360   2.801 -0.8077 -0.2393 -3.0767
  291MOL0     H39253   5.864   9.185   2.993 -1.6446 -1.9470 -0.4618
  291MOL0     H39254   5.955   9.079   2.884 -2.1999  0.0760 -1.4057
  291MOL0     H39255   6.072   9.219   3.064  1.9194  3.3879  0.4656
  291MOL0     H39256   6.014   9.357   3.004 -0.2832 -1.1156  2.9252
  291MOL0     H39257   6.219   9.172   2.890 -2.2673 -0.6586  1.8790
  291MOL0     H39258   6.155   9.296   2.774  0.3501 -0.6472 -0.3589
  291MOL0     H39259   6.243   9.474   2.899 -0.7343  0.6091  1.5670
  291MOL0     H39260   6.367   9.369   2.866 -1.2812  3.0582 -0.8210
  291MOL0     H39261   6.243   9.455   3.120 -1.6362  0.0064 -1.2403
  291MOL0     H39262   6.318   9.286   3.112  1.8003 -0.8467 -3.3349
  291MOL0     H39263   6.455   9.546   3.044  1.2832 -0.7073 -1.0170
  291MOL0     H39264   6.521   9.380   3.024  0.5141  0.2800 -0.2045
  291MOL0     H39265   6.473   9.563   3.281 -0.3567  0.7983 -1.5494
  291MOL0     H39266   6.616   9.481   3.218 -0.8711  2.1875 -1.3777
  291MOL0     H39267   5.534   9.080   2.750  0.9449 -0.1369  0.1299
  291MOL0     H39268   5.402   9.031   2.537 -3.2066  4.3570 -5.0102
  291MOL0     H39269   5.387   8.813   2.072 -2.0735  2.4384  2.0003
  291MOL0     H39270   5.331   8.805   1.849 -0.6821 -0.5274  3.2736
  291MOL0     H39271   6.302   8.145   2.619  1.2190 -1.1511 -2.6669
  291MOL0     H39272   6.486   8.051   2.794  1.0563 -1.0895 -2.4357
  291MOL0     H39273   6.988   7.908   2.780 -1.3167  0.3088 -1.4563
  291MOL0     H39274   7.120   7.787   2.958  1.3858  1.4629  0.5155
  291MOL0     H39275   6.997   7.894   3.389  1.0759  0.2001  1.1906
  291MOL0     H39276   7.050   7.728   3.387  3.5337 -0.6669  0.9619
  291MOL0     H39277   7.179   7.896   3.509  1.7543 -1.8786  0.7733
  291MOL0     H39278   7.248   7.955   3.344 -1.7791  0.0148 -2.4825
  291MOL0     H39279   7.317   7.702   3.316  0.4862  2.1403 -1.8632
  291MOL0     H39280   7.283   7.698   3.489 -3.7582  2.7846  1.2926
  291MOL0     H39281   7.469   7.834   3.549 -0.0358 -1.4738 -0.0250
  291MOL0     H39282   7.460   7.905   3.385  1.1132 -0.0327  0.1558
  291MOL0     H39283   7.719   7.580   3.340  0.4095  0.5062 -1.1524
  291MOL0     H39284   6.945   8.034   3.250  0.8752 -0.1970 -1.5186
  291MOL0     H39285   6.780   8.136   3.092 -1.3318 -2.6008  3.0290
  292MOL0     O39286   9.673   8.893   7.861 -0.3736 -0.2931  0.1993
  292MOL0     C39287   9.707   8.788   7.809  0.1509  0.1798 -0.0747
  292MOL0     O39288   9.755   8.682   7.879  0.0591 -0.0309 -0.2444
  292MOL0     C39289   9.829   8.711   7.988 -0.2003 -0.2005  1.4840
  292MOL0     C39290   9.933   8.805   7.988 -0.8704  0.4048  0.1326
  292MOL0     C39291  10.026   8.814   8.101 -1.1498  0.4797  0.0873
  292MOL0     C39292  10.025   8.708   8.198  0.2925 -0.1857  0.5833
  292MOL0     O39293  10.094   8.729   8.314 -0.3688  0.1700  0.5250
  292MOL0     C39294  10.183   8.617   8.358 -0.5147  0.2675 -0.5490
  292MOL0     C39295  10.177   8.599   8.509  0.8602 -0.4893  0.4449
  292MOL0     C39296  10.277   8.497   8.555 -0.2475 -0.2663 -0.3735
  292MOL0     C39297  10.426   8.531   8.541  0.0277 -0.9869  0.1449
  292MOL0     C39298  10.524   8.417   8.531  0.4759  0.6806  0.1509
  292MOL0     C39299  10.485   8.303   8.619 -0.0378 -0.7466  0.1237
  292MOL0     C39300  10.607   8.213   8.652 -0.3500 -0.5841 -0.8522
  292MOL0     C39301  10.704   8.271   8.761  0.3659 -0.2165 -0.3526
  292MOL0     N39302  10.736   8.167   8.852 -0.7574 -0.0247  0.3391
  292MOL0     C39303  10.652   8.118   8.943  0.6896 -0.3269 -0.4632
  292MOL0     C39304  10.727   8.035   9.019  0.9161 -0.0589 -0.0157
  292MOL0     C39305  10.690   7.954   9.141 -0.1920  0.5780 -0.6964
  292MOL0     C39306  10.743   8.012   9.271  0.6478 -0.7193  0.0020
  292MOL0     C39307  10.899   8.020   9.274  0.1312 -0.1669  0.2191
  292MOL0     C39308  10.961   8.018   9.409 -0.3940  0.4643 -0.0270
  292MOL0     O39309  10.981   7.891   9.463 -0.6113  0.0970  0.3153
  292MOL0     C39310  11.083   7.885   9.555  0.1486 -0.7673 -0.8694
  292MOL0     C39311  11.154   7.766   9.562  0.7977  0.3009 -0.1042
  292MOL0     C39312  11.250   7.733   9.649 -0.6536  0.0536 -0.4782
  292MOL0     C39313  11.327   7.606   9.622 -0.3866 -0.4037  0.5371
  292MOL0     C39314  11.289   7.825   9.745 -1.3208  0.1007 -0.9440
  292MOL0     C39315  11.381   7.797   9.867  0.4720 -1.0580  0.4748
  292MOL0     O39316  11.442   7.915   9.920 -0.1176 -0.6886  0.4190
  292MOL0     C39317  11.548   7.907  10.008 -0.3529  0.6341 -0.4571
  292MOL0     C39318  11.558   8.011  10.104  0.5000  0.4973  0.6407
  292MOL0     C39319  11.671   8.008  10.185  1.0353  0.1550 -0.1989
  292MOL0     C39320  11.769   7.908  10.184  0.7282  0.0564  0.5399
  292MOL0     O39321  11.879   7.902  10.264  0.0613 -0.3598 -0.2723
  292MOL0     C39322  11.899   8.005  10.360  0.1004  0.9535  0.8037
  292MOL0     C39323  12.045   7.994  10.399 -0.0207 -0.1131 -0.1795
  292MOL0     C39324  12.096   8.099  10.497  0.1455 -0.1660  0.5671
  292MOL0     C39325  12.074   8.056  10.642  0.1805  0.0315  0.2669
  292MOL0     C39326  12.153   8.146  10.734  0.2424 -0.1470 -0.7857
  292MOL0     C39327  12.116   8.289  10.722 -0.3699  0.4688 -0.9335
  292MOL0     C39328  12.167   8.374  10.842  0.0170  0.6671  0.0260
  292MOL0     C39329  12.094   8.504  10.865 -0.1366 -0.0219 -0.3309
  292MOL0    Cl39330  11.921   8.491  10.846  0.4240  0.0755 -0.0949
  292MOL0     C39331  11.764   7.808  10.093  0.1808 -0.1304  0.8651
  292MOL0     C39332  11.658   7.813  10.002 -0.2777 -0.3133  0.0876
  292MOL0     O39333  11.405   7.677   9.895 -0.0550 -0.6189 -0.0197
  292MOL0     C39334  11.221   7.949   9.746  0.1311  0.7078 -0.1234
  292MOL0     C39335  11.117   7.979   9.655  0.0927  0.1073  0.3603
  292MOL0     N39336  10.852   8.032   8.964 -1.0612  0.0149  0.2042
  292MOL0     N39337  10.857   8.109   8.861 -0.6766 -0.0929 -0.1712
  292MOL0     C39338   9.927   8.608   8.189 -0.1875 -0.2600  0.1545
  292MOL0     C39339   9.830   8.612   8.084  0.1936  1.2065  0.2769
  292MOL0     C39340   9.676   8.766   7.674  0.2763  0.2642  0.4622
  292MOL0     C39341   9.574   8.851   7.607 -0.2198 -0.4035  0.5439
  292MOL0     C39342   9.552   8.830   7.467  0.3306 -0.0900 -0.5412
  292MOL0     C39343   9.631   8.735   7.399 -0.7272  0.3249 -0.0918
  292MOL0     O39344   9.609   8.737   7.263 -0.3817  0.3534 -0.0186
  292MOL0     C39345   9.668   8.642   7.173 -0.0466  0.2054 -0.2954
  292MOL0     C39346   9.612   8.504   7.191  1.2564  1.1182  0.0270
  292MOL0     C39347   9.451   8.486   7.181 -0.1179  0.1085 -0.0534
  292MOL0     C39348   9.409   8.372   7.271  0.2153  0.3797 -0.5170
  292MOL0     C39349   9.445   8.245   7.204 -0.3756 -0.0066  0.8550
  292MOL0     C39350   9.481   8.139   7.161 -0.9490  0.2343  0.1490
  292MOL0     C39351   9.736   8.663   7.469  0.1721  0.5263 -0.3124
  292MOL0     C39352   9.743   8.667   7.600 -0.4173  0.8567 -0.3053
  292MOL0     H39353   9.940   8.871   7.902  3.4545 -0.4773 -0.4257
  292MOL0     H39354  10.099   8.894   8.110 -1.2100  0.3734  1.9727
  292MOL0     H39355  10.176   8.519   8.309  0.2094 -0.0848  0.0440
  292MOL0     H39356  10.288   8.636   8.337  0.4231 -1.8210  1.7614
  292MOL0     H39357  10.188   8.700   8.550 -0.5359  0.2093 -0.7827
  292MOL0     H39358  10.079   8.560   8.535  1.3132 -3.3273 -1.6346
  292MOL0     H39359  10.269   8.479   8.662 -3.0940 -0.5382 -0.5551
  292MOL0     H39360  10.262   8.401   8.505 -0.2599 -1.3194  1.5546
  292MOL0     H39361  10.446   8.593   8.453  0.3124 -0.7437  0.3774
  292MOL0     H39362  10.455   8.592   8.628 -0.0037  0.3422 -0.7506
  292MOL0     H39363  10.528   8.385   8.426 -0.0834  0.1775  0.2753
  292MOL0     H39364  10.617   8.470   8.554 -0.6535  3.0789 -0.4476
  292MOL0     H39365  10.451   8.336   8.718 -0.6980 -1.7312  0.2343
  292MOL0     H39366  10.406   8.245   8.569  1.2108 -0.7203 -1.9820
  292MOL0     H39367  10.575   8.116   8.693 -2.9283  0.3236 -0.4968
  292MOL0     H39368  10.670   8.198   8.564  1.3327 -3.1273  0.6367
  292MOL0     H39369  10.643   8.340   8.819  1.7885 -0.2610  1.2531
  292MOL0     H39370  10.794   8.315   8.717  3.9195 -3.5042  2.8805
  292MOL0     H39371  10.547   8.146   8.952  1.1385  1.3716 -0.1411
  292MOL0     H39372  10.582   7.948   9.155  0.0241  0.4232  1.2872
  292MOL0     H39373  10.721   7.850   9.127 -1.3920  0.1886 -0.5976
  292MOL0     H39374  10.718   7.941   9.350  0.6260  0.1914  0.8234
  292MOL0     H39375  10.703   8.108   9.305 -0.6327 -1.8836  1.9779
  292MOL0     H39376  10.913   8.119   9.229 -3.3346 -0.1384 -1.1422
  292MOL0     H39377  10.948   7.943   9.214  0.1666  1.1534 -1.5093
  292MOL0     H39378  10.894   8.068   9.479  1.5802 -1.0347  3.1708
  292MOL0     H39379  11.053   8.077   9.398 -0.7845  1.3918  1.3725
  292MOL0     H39380  11.125   7.688   9.492 -0.1279 -0.8805  1.5241
  292MOL0     H39381  11.286   7.555   9.534 -2.1184  1.4053  0.2265
  292MOL0     H39382  11.426   7.631   9.584 -1.2969 -0.7335 -2.3358
  292MOL0     H39383  11.328   7.541   9.710  1.7893  1.6751  2.1773
  292MOL0     H39384  11.486   8.092  10.113  0.3138  0.2947  1.0105
  292MOL0     H39385  11.686   8.080  10.265  0.5529 -1.7572  1.7359
  292MOL0     H39386  11.884   8.106  10.321  0.8395  0.2926 -1.3396
  292MOL0     H39387  11.837   7.983  10.448  1.8828 -0.3300  1.8134
  292MOL0     H39388  12.074   7.897  10.442 -1.9861 -0.8521 -0.4305
  292MOL0     H39389  12.099   8.009  10.306 -0.2049  1.2971 -0.0824
  292MOL0     H39390  12.053   8.197  10.470 -0.0830 -0.3069  0.4154
  292MOL0     H39391  12.203   8.114  10.479 -0.0406  1.6794  0.7462
  292MOL0     H39392  11.966   8.065  10.654  0.1444 -0.4677  0.3530
  292MOL0     H39393  12.096   7.949  10.649 -0.3328 -0.3972 -2.8862
  292MOL0     H39394  12.258   8.129  10.710  0.5773 -1.2298  1.2239
  292MOL0     H39395  12.142   8.119  10.839  1.4838  3.3989  0.4150
  292MOL0     H39396  12.161   8.329  10.630  1.0372  2.9853  0.7391
  292MOL0     H39397  12.006   8.291  10.726 -0.3642  2.8642  3.0098
  292MOL0     H39398  12.272   8.398  10.822 -0.2151  0.9886 -0.8905
  292MOL0     H39399  12.176   8.306  10.927  1.8285 -0.9035 -1.3419
  292MOL0     H39400  12.123   8.565  10.779  1.2905  1.2032  0.9752
  292MOL0     H39401  12.133   8.546  10.958 -0.7066  2.4409 -1.1206
  292MOL0     H39402  11.838   7.728  10.089 -2.2411 -2.4979 -0.9892
  292MOL0     H39403  11.657   7.748   9.915 -0.3987  0.9837 -0.9083
  292MOL0     H39404  11.233   8.029   9.819 -4.4509  0.6038  1.1040
  292MOL0     H39405  11.048   8.063   9.662 -1.0327 -0.8251  0.7598
  292MOL0     H39406   9.930   8.534   8.268 -2.6447  1.2345  1.7547
  292MOL0     H39407   9.764   8.527   8.076  2.7418 -0.7505 -3.1386
  292MOL0     H39408   9.519   8.925   7.664 -1.5767 -0.4169 -0.6897
  292MOL0     H39409   9.477   8.880   7.406  1.5337  1.5205 -0.7732
  292MOL0     H39410   9.631   8.671   7.074 -1.0378  0.8191  0.2312
  292MOL0     H39411   9.777   8.642   7.169  0.1154  0.7175  2.2550
  292MOL0     H39412   9.646   8.470   7.289 -2.3088  0.3578  1.1533
  292MOL0     H39413   9.655   8.430   7.122 -1.6723 -0.8258  0.0968
  292MOL0     H39414   9.415   8.466   7.080 -0.4651 -2.3483  0.4890
  292MOL0     H39415   9.409   8.583   7.210  4.3247  1.4758  2.8497
  292MOL0     H39416   9.302   8.368   7.295 -0.0833 -1.7893 -1.8914
  292MOL0     H39417   9.460   8.379   7.367  1.0435  0.4297 -0.9589
  292MOL0     H39418   9.541   8.067   7.109 -2.5264  0.2148 -1.7541
  292MOL0     H39419   9.807   8.601   7.414 -1.0932 -0.7236 -0.6111
  292MOL0     H39420   9.812   8.599   7.649  1.0743  1.3937 -1.5760
  293MOL0     O39421  10.876   0.291   8.891  0.0216  0.4956 -0.5533
  293MOL0     C39422  10.876   0.171   8.883  0.3447 -0.4238  0.6737
  293MOL0     O39423  10.921   0.098   8.773 -0.0233  0.0414  0.3061
  293MOL0     C39424  10.971   0.158   8.662  0.0341  0.1851  0.9197
  293MOL0     C39425  11.081   0.251   8.679 -0.4338  0.0688  0.2295
  293MOL0     C39426  11.127   0.314   8.569  0.9797  0.8316  1.1069
  293MOL0     C39427  11.066   0.299   8.438 -0.2523 -0.4051 -0.1362
  293MOL0     O39428  11.113   0.370   8.329  0.2524  0.3681  0.1968
  293MOL0     C39429  11.149   0.507   8.346 -0.4464 -0.1660  0.1192
  293MOL0     C39430  11.093   0.602   8.229 -0.4443  0.6106 -0.0986
  293MOL0     C39431  11.162   0.571   8.098  0.0988 -0.3646 -0.6297
  293MOL0     C39432  11.114   0.659   7.978 -0.0641 -0.4847 -0.2272
  293MOL0     C39433  11.161   0.633   7.838 -0.4472 -0.3555 -0.3861
  293MOL0     C39434  11.320   0.630   7.829  0.3988 -0.4836 -0.1888
  293MOL0     C39435  11.363   0.598   7.690 -0.0882  0.4229 -0.9661
  293MOL0     C39436  11.310   0.702   7.589 -0.0472 -0.6159 -0.0837
  293MOL0     N39437  11.383   0.712   7.459  0.0352  0.7836 -0.0069
  293MOL0     C39438  11.450   0.813   7.407 -0.1123 -0.8551  0.3449
  293MOL0     C39439  11.505   0.774   7.293  0.6842 -0.4185  0.8084
  293MOL0     C39440  11.600   0.852   7.194 -0.3772 -0.0331  0.4158
  293MOL0     C39441  11.514   0.959   7.124 -0.6351 -0.3425 -0.1624
  293MOL0     C39442  11.383   0.921   7.073  0.5444 -0.2940  0.2778
  293MOL0     C39443  11.321   1.031   6.989  0.5650  0.2592  0.1874
  293MOL0     O39444  11.292   1.138   7.077 -0.3219 -0.2424  0.2209
  293MOL0     C39445  11.345   1.261   7.056  0.1781 -0.3432 -0.1217
  293MOL0     C39446  11.426   1.328   7.152  0.4006 -0.0404 -0.4540
  293MOL0     C39447  11.472   1.453   7.126  0.4568 -0.1921  1.2775
  293MOL0     C39448  11.552   1.522   7.231 -0.7425  0.3929 -0.0371
  293MOL0     C39449  11.465   1.510   6.996 -0.9327 -2.1500 -0.3628
  293MOL0     C39450  11.524   1.651   6.961  0.1885  0.4966 -0.3218
  293MOL0     O39451  11.519   1.748   7.060  0.5292  0.1846  0.2004
  293MOL0     C39452  11.605   1.854   7.047 -0.5808 -0.5575  0.9765
  293MOL0     C39453  11.736   1.842   7.076 -0.5046  0.2195 -0.6098
  293MOL0     C39454  11.820   1.952   7.068  0.5626 -0.3331  0.1926
  293MOL0     C39455  11.775   2.075   7.024  0.4106 -0.3951 -0.4347
  293MOL0     O39456  11.857   2.194   7.026  0.1315  0.0149  1.3195
  293MOL0     C39457  11.982   2.187   6.953 -0.4879 -0.1543  0.9701
  293MOL0     C39458  12.107   2.241   7.034  0.4342 -0.3042 -0.4153
  293MOL0     C39459  12.159   2.141   7.139  1.2679 -0.7183  0.2100
  293MOL0     C39460  12.240   2.032   7.087  0.7792  0.0005  0.9445
  293MOL0     C39461  12.342   1.990   7.188  0.2100  0.1492  0.1876
  293MOL0     C39462  12.463   1.912   7.141 -0.2463  0.6008 -0.3376
  293MOL0     C39463  12.594   1.937   7.205  0.1717 -0.9138  0.4642
  293MOL0     C39464  12.702   1.831   7.167 -0.4513 -0.2369  0.0953
  293MOL0    Cl39465  12.758   1.847   6.989  0.0974 -0.3621 -0.3263
  293MOL0     C39466  11.637   2.092   6.987 -0.3725  0.7355  0.1768
  293MOL0     C39467  11.554   1.981   6.998  0.0940 -0.0754  0.0916
  293MOL0     O39468  11.574   1.667   6.850  0.6865 -0.5685 -0.2527
  293MOL0     C39469  11.390   1.442   6.896  0.4514  0.1571 -0.2204
  293MOL0     C39470  11.319   1.321   6.930 -1.5534 -0.5613  0.7674
  293MOL0     N39471  11.470   0.643   7.277 -0.0558  0.0661 -0.0182
  293MOL0     N39472  11.402   0.604   7.373 -0.6693  0.2854 -0.4271
  293MOL0     C39473  10.968   0.201   8.427  0.0348 -0.3381  1.1482
  293MOL0     C39474  10.916   0.137   8.535  0.1245  0.8100  0.7325
  293MOL0     C39475  10.824   0.106   9.007 -0.3536 -0.6290 -0.0449
  293MOL0     C39476  10.848  -0.026   9.038 -0.1243 -0.2895  0.2323
  293MOL0     C39477  10.823  -0.077   9.166  0.3581 -0.8816  0.4337
  293MOL0     C39478  10.755  -0.000   9.263  0.4331 -0.7953  0.3280
  293MOL0     O39479  10.700  -0.057   9.384 -0.5901  0.2526  0.5715
  293MOL0     C39480  10.719  -0.198   9.417  0.4713 -0.1328  0.9885
  293MOL0     C39481  10.672  -0.223   9.555  0.0241 -0.8356  0.2875
  293MOL0     C39482  10.534  -0.167   9.586  0.2876 -0.4919  0.1569
  293MOL0     C39483  10.487  -0.222   9.723  0.3641 -0.7667  0.8482
  293MOL0     C39484  10.556  -0.163   9.838  0.3578  0.2413  0.5575
  293MOL0     C39485  10.614  -0.108   9.928  0.2387 -0.8486 -0.5869
  293MOL0     C39486  10.723   0.128   9.228  0.3514 -0.4904  0.3542
  293MOL0     C39487  10.762   0.185   9.110  0.7273  0.5475  0.2520
  293MOL0     H39488  11.126   0.259   8.777  0.7046  0.8391 -0.3370
  293MOL0     H39489  11.200   0.393   8.573  1.0927  0.9180 -1.2546
  293MOL0     H39490  11.106   0.546   8.438 -0.6961  0.4262 -0.2421
  293MOL0     H39491  11.256   0.528   8.346 -0.6397  0.8976 -0.1591
  293MOL0     H39492  10.987   0.576   8.221 -0.4737  0.5028  0.5580
  293MOL0     H39493  11.116   0.703   8.262 -0.8007  0.3942  0.8425
  293MOL0     H39494  11.271   0.578   8.105  0.0150  0.6768 -0.1382
  293MOL0     H39495  11.134   0.474   8.057 -1.9864  0.4070 -1.1359
  293MOL0     H39496  11.005   0.652   7.973 -0.2574  1.4434  0.4742
  293MOL0     H39497  11.126   0.762   8.013 -2.2524 -0.4666  0.6876
  293MOL0     H39498  11.109   0.547   7.796 -2.5422  1.3790 -1.5958
  293MOL0     H39499  11.112   0.715   7.784  0.1744 -0.9034 -1.8093
  293MOL0     H39500  11.357   0.730   7.852  1.1447 -0.3887 -1.6762
  293MOL0     H39501  11.361   0.559   7.901  0.1859  0.3255  0.7473
  293MOL0     H39502  11.471   0.581   7.687  0.4744  2.5127  2.3588
  293MOL0     H39503  11.318   0.507   7.650  1.5695 -1.0062  0.2639
  293MOL0     H39504  11.322   0.804   7.628  0.5424  0.2953 -2.4670
  293MOL0     H39505  11.201   0.699   7.586 -0.3452  2.6392  1.8526
  293MOL0     H39506  11.468   0.911   7.450  2.1271  0.8888 -3.9165
  293MOL0     H39507  11.682   0.899   7.250  0.7404 -1.9140  0.4333
  293MOL0     H39508  11.644   0.784   7.120  2.1627 -0.1490  1.9052
  293MOL0     H39509  11.572   1.001   7.041  0.0674  1.2350  1.0895
  293MOL0     H39510  11.503   1.041   7.196 -0.0636  1.4798 -2.0452
  293MOL0     H39511  11.321   0.897   7.161 -1.9412  1.1645 -0.9706
  293MOL0     H39512  11.388   0.825   7.021 -0.5018 -0.3774  0.2978
  293MOL0     H39513  11.222   0.994   6.962 -0.6860  2.7494  0.9725
  293MOL0     H39514  11.358   1.054   6.889 -2.3372  0.6665 -0.8812
  293MOL0     H39515  11.439   1.277   7.246  3.7560 -0.2042 -0.9020
  293MOL0     H39516  11.568   1.452   7.313  1.8819  0.8248 -0.0944
  293MOL0     H39517  11.650   1.548   7.192 -0.5370 -1.2431 -0.6875
  293MOL0     H39518  11.498   1.610   7.267  1.3012  2.1539 -1.0628
  293MOL0     H39519  11.767   1.742   7.106  0.1836  0.6553  0.1726
  293MOL0     H39520  11.928   1.959   7.081  0.6866  4.5129 -1.4352
  293MOL0     H39521  12.013   2.087   6.922  0.9143  0.4691  0.2304
  293MOL0     H39522  11.985   2.246   6.860  0.1434  0.0506  1.1149
  293MOL0     H39523  12.175   2.284   6.960  0.1951 -0.6193 -0.8289
  293MOL0     H39524  12.070   2.332   7.082  1.0220  1.4967 -3.1639
  293MOL0     H39525  12.069   2.101   7.186  1.6538  2.0727  3.7766
  293MOL0     H39526  12.218   2.205   7.206  1.9015 -1.1466  0.0611
  293MOL0     H39527  12.186   1.946   7.045  0.8997  0.3352  0.0854
  293MOL0     H39528  12.298   2.080   7.008  0.4642  0.2026  0.8320
  293MOL0     H39529  12.289   1.928   7.260 -0.1456  0.6757  0.3787
  293MOL0     H39530  12.391   2.079   7.228  2.1563  0.2996 -2.2629
  293MOL0     H39531  12.432   1.807   7.146  0.7852  0.3500  1.5896
  293MOL0     H39532  12.476   1.930   7.034  1.7163  2.5389  0.1621
  293MOL0     H39533  12.572   1.941   7.313 -3.0185  2.2008 -0.1274
  293MOL0     H39534  12.620   2.039   7.175 -1.7015 -0.1551  1.2352
  293MOL0     H39535  12.656   1.732   7.166  0.0703 -0.5028  1.0879
  293MOL0     H39536  12.795   1.831   7.225  0.5239  4.0249 -1.1002
  293MOL0     H39537  11.588   2.186   6.965 -1.6484 -0.3437 -1.8500
  293MOL0     H39538  11.448   1.984   6.973  0.0095 -1.4905  0.1731
  293MOL0     H39539  11.379   1.467   6.791 -2.8173 -2.3585 -0.6494
  293MOL0     H39540  11.248   1.284   6.857  1.5997 -2.6022 -1.5456
  293MOL0     H39541  10.936   0.179   8.326  2.8781 -0.7258  0.2450
  293MOL0     H39542  10.851   0.052   8.517  2.5210 -0.4841 -2.9622
  293MOL0     H39543  10.882  -0.099   8.964 -2.2529  0.4328 -1.5899
  293MOL0     H39544  10.851  -0.182   9.176  0.1272 -1.1154 -1.1426
  293MOL0     H39545  10.683  -0.275   9.348  0.9427  1.2597 -0.8744
  293MOL0     H39546  10.827  -0.212   9.414  0.4976  0.1413  0.7033
  293MOL0     H39547  10.740  -0.186   9.632  0.9881  0.5501 -1.1683
  293MOL0     H39548  10.668  -0.331   9.565 -1.1591 -0.8652 -0.3759
  293MOL0     H39549  10.462  -0.202   9.511 -0.1815  1.6941 -0.4731
  293MOL0     H39550  10.539  -0.058   9.592 -3.0130 -0.0475 -2.0542
  293MOL0     H39551  10.492  -0.332   9.719  2.3116 -0.7104  0.1596
  293MOL0     H39552  10.386  -0.194   9.753 -0.1875 -1.8587  0.1104
  293MOL0     H39553  10.664  -0.058  10.008  2.5034 -3.1708 -0.4126
  293MOL0     H39554  10.682   0.195   9.304  0.5478  1.2793 -1.0281
  293MOL0     H39555  10.746   0.289   9.083  3.4195  1.0191  0.1741
  294MOL0     O39556   6.294   5.567   3.725 -0.2385  0.2188  0.9746
  294MOL0     C39557   6.201   5.571   3.805 -0.1331 -0.5315 -0.0635
  294MOL0     O39558   6.177   5.674   3.892 -0.4185  0.2607 -0.1781
  294MOL0     C39559   6.245   5.785   3.864  0.1884 -0.2899 -1.3258
  294MOL0     C39560   6.194   5.865   3.771  0.2040  0.0180 -0.2538
  294MOL0     C39561   6.274   5.970   3.714  0.6796  0.2045  0.7247
  294MOL0     C39562   6.410   5.985   3.754 -0.7720 -0.2010  0.7350
  294MOL0     O39563   6.492   6.089   3.712  0.1809  0.7048  0.0753
  294MOL0     C39564   6.430   6.178   3.615  0.6223 -0.0072 -0.3928
  294MOL0     C39565   6.512   6.295   3.558 -0.5951  0.0209 -0.0576
  294MOL0     C39566   6.613   6.262   3.448  0.3525  0.3018  0.3672
  294MOL0     C39567   6.727   6.160   3.477  0.2200 -0.0779 -1.1079
  294MOL0     C39568   6.844   6.169   3.377  0.0920 -0.3547  0.1308
  294MOL0     C39569   6.807   6.125   3.233  0.2701 -0.3690  0.0485
  294MOL0     C39570   6.929   6.079   3.151  0.6664 -0.2708 -0.8926
  294MOL0     C39571   6.916   5.951   3.068 -0.3372  0.5575  0.4382
  294MOL0     N39572   6.837   5.978   2.951 -0.5618 -0.1296 -0.1001
  294MOL0     C39573   6.880   6.034   2.834  0.6645  0.0161  0.5136
  294MOL0     C39574   6.767   6.051   2.763  0.9036 -0.0255  0.4398
  294MOL0     C39575   6.761   6.121   2.628 -0.5084  0.4082 -0.1877
  294MOL0     C39576   6.707   6.261   2.626  0.3377  0.7106 -0.7329
  294MOL0     C39577   6.559   6.273   2.663  0.4279 -0.1968  0.0256
  294MOL0     C39578   6.538   6.419   2.700  0.0809 -0.0907  0.2985
  294MOL0     O39579   6.553   6.512   2.591  0.2330  0.2272 -0.2449
  294MOL0     C39580   6.455   6.601   2.590 -0.3311  0.2347  0.4637
  294MOL0     C39581   6.480   6.723   2.639  0.2604 -0.6008 -1.4199
  294MOL0     C39582   6.373   6.813   2.666 -0.4003  0.1129 -0.5645
  294MOL0     C39583   6.410   6.946   2.728 -0.4862  0.6310  0.1928
  294MOL0     C39584   6.241   6.761   2.653 -0.3199  0.5403  0.0381
  294MOL0     C39585   6.122   6.837   2.704 -0.6855  0.2138  0.1862
  294MOL0     O39586   6.143   6.946   2.782 -0.1415  1.1918  0.0982
  294MOL0     C39587   6.048   6.987   2.868  0.0247  0.2878 -0.0008
  294MOL0     C39588   5.979   6.901   2.958 -0.4554 -0.2462 -0.1814
  294MOL0     C39589   5.890   6.948   3.043  0.1693 -0.3510 -1.2933
  294MOL0     C39590   5.877   7.088   3.062  1.4004 -0.6235 -0.5647
  294MOL0     O39591   5.772   7.132   3.144  1.0032 -0.5286 -0.1600
  294MOL0     C39592   5.775   7.248   3.229  0.2694 -0.9796  0.0649
  294MOL0     C39593   5.717   7.365   3.146  1.1870 -0.5523 -0.6819
  294MOL0     C39594   5.578   7.341   3.090 -0.0474  0.0953  1.0174
  294MOL0     C39595   5.542   7.449   2.989 -0.4990  0.1311  0.1275
  294MOL0     C39596   5.618   7.434   2.855  0.2887 -0.5165  0.1026
  294MOL0     C39597   5.549   7.325   2.776 -0.0335 -0.4747  0.8034
  294MOL0     C39598   5.638   7.254   2.675 -0.2733 -0.6139  0.3201
  294MOL0     C39599   5.555   7.158   2.584 -0.3135 -0.0284 -0.3822
  294MOL0    Cl39600   5.430   7.241   2.489 -0.6213  0.1041 -0.4214
  294MOL0     C39601   5.941   7.178   2.981  0.0130 -0.3593  0.7221
  294MOL0     C39602   6.028   7.126   2.887 -0.2131 -0.4903 -0.6337
  294MOL0     O39603   6.005   6.795   2.674 -0.3805 -0.0797  0.0427
  294MOL0     C39604   6.220   6.641   2.582  0.1601 -0.3755 -0.1153
  294MOL0     C39605   6.324   6.567   2.555 -0.7895 -0.1669  0.2625
  294MOL0     N39606   6.656   6.005   2.830 -0.0333  0.3635 -0.4278
  294MOL0     N39607   6.697   5.959   2.944 -0.6380 -0.4854  0.2343
  294MOL0     C39608   6.456   5.901   3.854 -0.1565  0.7716 -0.2297
  294MOL0     C39609   6.373   5.808   3.914  0.9104  0.2679  0.2365
  294MOL0     C39610   6.113   5.447   3.808 -0.5465  0.0890  0.4601
  294MOL0     C39611   6.006   5.433   3.892  1.0129  0.2124  0.2840
  294MOL0     C39612   5.922   5.323   3.887 -0.1310  0.1385  0.0544
  294MOL0     C39613   5.950   5.212   3.807  0.9586 -0.1792 -1.1441
  294MOL0     O39614   5.867   5.102   3.784  0.8778 -0.5567  0.3063
  294MOL0     C39615   5.739   5.081   3.860  0.2165  0.2285 -0.3040
  294MOL0     C39616   5.732   4.950   3.921 -0.2186 -0.4142  0.4670
  294MOL0     C39617   5.858   4.887   3.965  0.8265  0.1501 -0.1335
  294MOL0     C39618   5.855   4.743   3.996 -0.1119  0.5813 -0.2333
  294MOL0     C39619   5.984   4.698   4.040 -0.5617  0.3227 -0.3280
  294MOL0     C39620   6.085   4.681   4.100  0.7155  0.6207 -0.5496
  294MOL0     C39621   6.062   5.222   3.722  1.0173  0.6105 -0.1245
  294MOL0     C39622   6.145   5.337   3.724  0.2385 -0.2533 -0.0326
  294MOL0     H39623   6.092   5.833   3.751 -1.0545  1.7494  2.8098
  294MOL0     H39624   6.230   6.036   3.640 -1.1033 -1.4793  0.1920
  294MOL0     H39625   6.397   6.118   3.529 -2.1447  2.7564 -1.4677
  294MOL0     H39626   6.343   6.224   3.664 -0.8902 -3.2505  0.2401
  294MOL0     H39627   6.435   6.359   3.515  0.0042 -0.2282 -1.5512
  294MOL0     H39628   6.551   6.351   3.644 -1.5498  0.0238  0.3916
  294MOL0     H39629   6.549   6.226   3.368 -2.5847  0.8257  2.2934
  294MOL0     H39630   6.661   6.360   3.433  0.8059  0.5562  2.8714
  294MOL0     H39631   6.775   6.186   3.572 -0.7450 -5.1464  1.0566
  294MOL0     H39632   6.693   6.057   3.489  2.2713 -0.4488  3.8452
  294MOL0     H39633   6.882   6.272   3.382 -0.7414 -0.0913  4.1239
  294MOL0     H39634   6.933   6.118   3.416 -0.6500  0.5831  3.2839
  294MOL0     H39635   6.739   6.041   3.247  1.7807 -1.0378  5.2510
  294MOL0     H39636   6.758   6.207   3.180 -0.0696  0.7906  2.0532
  294MOL0     H39637   6.965   6.163   3.091  0.5251  0.7293  0.3777
  294MOL0     H39638   7.013   6.060   3.218 -0.9886  0.3919  1.5245
  294MOL0     H39639   6.855   5.875   3.117 -1.9884  1.6364  0.1367
  294MOL0     H39640   7.012   5.912   3.034  0.1819  0.6142  1.7816
  294MOL0     H39641   6.974   6.075   2.798  1.2226 -0.1653  1.7348
  294MOL0     H39642   6.862   6.118   2.586 -0.5761  0.4442 -0.3530
  294MOL0     H39643   6.697   6.051   2.574 -0.6106  0.4256 -0.0904
  294MOL0     H39644   6.720   6.301   2.526 -3.0988  1.5912 -0.9192
  294MOL0     H39645   6.772   6.326   2.686  1.2709 -1.2215  0.4503
  294MOL0     H39646   6.532   6.210   2.749 -2.1548 -0.8979 -1.1948
  294MOL0     H39647   6.496   6.234   2.582  1.1947 -0.9420 -0.2257
  294MOL0     H39648   6.614   6.456   2.770 -1.0598  1.1127  0.9406
  294MOL0     H39649   6.438   6.424   2.744  0.3814 -0.9656  1.1091
  294MOL0     H39650   6.579   6.758   2.668 -0.2013  2.6839 -3.2725
  294MOL0     H39651   6.377   6.944   2.833 -2.6838  3.3952 -0.3604
  294MOL0     H39652   6.518   6.964   2.737 -0.1192 -0.8590 -0.8669
  294MOL0     H39653   6.362   7.036   2.692 -1.8593  0.4025  1.3617
  294MOL0     H39654   5.999   6.795   2.956  0.4417 -0.1122  1.0282
  294MOL0     H39655   5.827   6.884   3.105  1.4933 -0.6357 -0.1876
  294MOL0     H39656   5.724   7.238   3.325  2.8209  3.3543  2.1765
  294MOL0     H39657   5.877   7.279   3.251  0.5030 -0.6172 -1.3808
  294MOL0     H39658   5.711   7.448   3.216  1.1143 -2.2507  1.4276
  294MOL0     H39659   5.783   7.408   3.070  0.7904  0.4782 -0.4480
  294MOL0     H39660   5.511   7.344   3.176 -2.2672 -4.8018 -0.2006
  294MOL0     H39661   5.572   7.242   3.043  0.1026  0.2973  0.5661
  294MOL0     H39662   5.433   7.449   2.980 -0.3891 -1.5351 -1.8753
  294MOL0     H39663   5.577   7.541   3.036 -1.7543  0.0842  1.2033
  294MOL0     H39664   5.722   7.400   2.860  1.6133  2.5481 -2.9369
  294MOL0     H39665   5.604   7.527   2.800  0.9866 -1.4213 -1.6933
  294MOL0     H39666   5.514   7.250   2.847 -1.6744 -1.4964 -0.9690
  294MOL0     H39667   5.465   7.373   2.724 -1.7039 -0.2973  3.5172
  294MOL0     H39668   5.730   7.206   2.711 -0.4498  0.2171  1.9722
  294MOL0     H39669   5.685   7.323   2.605  1.4799 -1.1666  0.8939
  294MOL0     H39670   5.515   7.092   2.661 -0.0861 -0.3890 -0.5686
  294MOL0     H39671   5.626   7.104   2.521 -1.9391 -1.5802 -0.9574
  294MOL0     H39672   5.944   7.286   2.991  0.5496 -0.0316 -2.0431
  294MOL0     H39673   6.084   7.192   2.822  2.5737 -1.0256  1.0433
  294MOL0     H39674   6.119   6.603   2.576 -0.5695  1.5896 -1.0077
  294MOL0     H39675   6.314   6.470   2.507 -2.2732 -0.2655  0.7425
  294MOL0     H39676   6.559   5.902   3.888 -0.8959  2.0914  2.2540
  294MOL0     H39677   6.417   5.738   3.985  2.9209  1.4876  0.2580
  294MOL0     H39678   5.981   5.504   3.970 -1.5808 -0.9755  0.6664
  294MOL0     H39679   5.824   5.346   3.927 -1.8894  0.1382 -3.8575
  294MOL0     H39680   5.726   5.155   3.940 -4.6948 -2.0689  1.3744
  294MOL0     H39681   5.647   5.098   3.804 -0.6985  0.3874  1.1774
  294MOL0     H39682   5.691   4.885   3.844 -3.0507 -0.7457  2.0772
  294MOL0     H39683   5.663   4.960   4.006 -2.5145 -0.0819 -1.3230
  294MOL0     H39684   5.877   4.938   4.060 -0.9961  1.9464 -0.6608
  294MOL0     H39685   5.939   4.901   3.893 -0.9618  2.1300 -1.8712
  294MOL0     H39686   5.814   4.691   3.910 -3.0095  1.6843  0.3664
  294MOL0     H39687   5.790   4.724   4.082  1.6864  1.0005  1.2851
  294MOL0     H39688   6.176   4.663   4.155 -0.3417 -1.2340  0.6848
  294MOL0     H39689   6.088   5.134   3.665  0.0863  0.6114 -0.5632
  294MOL0     H39690   6.227   5.342   3.653  0.3315 -2.0864 -0.1029
  295MOL0     O39691   5.434  10.411   8.483 -0.0521  0.4439  0.2214
  295MOL0     C39692   5.492  10.335   8.400 -0.4993  0.1943 -0.4553
  295MOL0     O39693   5.617  10.290   8.412 -0.6865  0.2156 -0.0615
  295MOL0     C39694   5.705  10.335   8.503  0.6155 -0.2453  0.1458
  295MOL0     C39695   5.681  10.326   8.634  0.3514  0.1011 -1.2146
  295MOL0     C39696   5.767  10.373   8.729 -0.0215  1.3226 -0.0131
  295MOL0     C39697   5.887  10.428   8.694  0.0758  0.0940  0.6069
  295MOL0     O39698   5.965  10.480   8.792 -0.3288  0.3498  0.3244
  295MOL0     C39699   6.098  10.522   8.757  0.2513 -0.6544  0.3024
  295MOL0     C39700   6.166  10.576   8.886  0.0136 -0.1918 -0.1551
  295MOL0     C39701   6.321  10.578   8.877  0.1191  0.3877  0.1073
  295MOL0     C39702   6.379  10.646   9.000  0.3829 -0.4757  0.3255
  295MOL0     C39703   6.521  10.674   8.980 -0.8779 -0.8875  0.2378
  295MOL0     C39704   6.580  10.709   9.120 -0.5253  0.0254 -0.7639
  295MOL0     C39705   6.559  10.859   9.155  0.8635  0.5243 -0.7600
  295MOL0     C39706   6.654  10.962   9.078 -0.0647 -0.6806  0.1996
  295MOL0     N39707   6.654  11.100   9.134  0.7535  0.2559 -0.6345
  295MOL0     C39708   6.709  11.116   9.261  0.6201 -0.0269 -1.0305
  295MOL0     C39709   6.646  11.227   9.318 -0.5169 -0.5075 -0.0335
  295MOL0     C39710   6.633  11.266   9.466  0.3399  0.1988  0.7077
  295MOL0     C39711   6.496  11.227   9.521  0.6025 -0.7393  0.9080
  295MOL0     C39712   6.386  11.333   9.479 -0.0578 -0.0094  0.2047
  295MOL0     C39713   6.265  11.323   9.569  1.1531  0.4514  0.7015
  295MOL0     O39714   6.293  11.407   9.680  0.0638 -0.2422 -0.4513
  295MOL0     C39715   6.191  11.436   9.771 -0.5193  0.1997 -0.3051
  295MOL0     C39716   6.233  11.495   9.888 -0.5703 -0.2073 -0.6306
  295MOL0     C39717   6.145  11.509   9.994  0.0273  0.5190  0.8296
  295MOL0     C39718   6.206  11.551  10.123 -0.4510  0.1001  0.0694
  295MOL0     C39719   6.008  11.474   9.983  1.6851  0.1356  0.3783
  295MOL0     C39720   5.901  11.509  10.087  0.2640 -0.0045  0.0652
  295MOL0     O39721   5.923  11.618  10.173  0.0938  1.1697  0.3420
  295MOL0     C39722   5.863  11.643  10.296  0.4472  0.1125  1.0785
  295MOL0     C39723   5.923  11.745  10.376  0.4406  0.6064  0.4990
  295MOL0     C39724   5.869  11.777  10.506 -1.1253 -0.3445  0.0916
  295MOL0     C39725   5.754  11.708  10.551  1.1145  0.6728 -0.0072
  295MOL0     O39726   5.693  11.736  10.674  0.0866  0.2337 -0.2197
  295MOL0     C39727   5.763  11.800  10.783  0.3010  0.2437  0.1317
  295MOL0     C39728   5.662  11.816  10.909  0.5938 -0.3124 -0.2743
  295MOL0     C39729   5.723  11.804  11.050 -0.0907 -0.4201 -0.6868
  295MOL0     C39730   5.858  11.873  11.066 -0.0179  0.4711 -0.0688
  295MOL0     C39731   5.880  11.903  11.214 -0.0279  0.2287  0.3126
  295MOL0     C39732   5.917  11.761  11.278  0.3222 -0.3541  0.4264
  295MOL0     C39733   5.924  11.790  11.435 -0.7795 -0.2146 -0.3675
  295MOL0     C39734   5.964  11.661  11.512 -0.1491 -0.8279 -0.1650
  295MOL0    Cl39735   5.830  11.548  11.520  0.3525 -0.4889  0.9742
  295MOL0     C39736   5.679  11.633  10.454 -0.0803 -0.1891 -0.6472
  295MOL0     C39737   5.741  11.596  10.330 -0.2675  0.5114 -0.7567
  295MOL0     O39738   5.798  11.439  10.083 -1.0817 -0.2896 -0.4976
  295MOL0     C39739   5.966  11.429   9.859 -0.5277 -0.1022 -0.0228
  295MOL0     C39740   6.056  11.410   9.753 -0.4471 -0.4542  0.6299
  295MOL0     N39741   6.567  11.271   9.215  0.6110  0.1293 -0.4572
  295MOL0     N39742   6.568  11.206   9.110  0.7206  1.0305 -0.6387
  295MOL0     C39743   5.923  10.424   8.554 -0.1359  0.2172 -0.5558
  295MOL0     C39744   5.830  10.375   8.466 -0.1302 -0.1357 -0.6885
  295MOL0     C39745   5.417  10.301   8.278 -0.9276 -0.4282 -0.5749
  295MOL0     C39746   5.282  10.320   8.277  0.1374  0.2617  0.0377
  295MOL0     C39747   5.204  10.287   8.158 -0.8846 -0.1991 -1.2618
  295MOL0     C39748   5.272  10.245   8.043  0.8283  0.0153  0.3509
  295MOL0     O39749   5.207  10.225   7.929  0.0941  0.4515  0.5490
  295MOL0     C39750   5.118  10.115   7.943 -0.1480 -0.7420 -0.2823
  295MOL0     C39751   5.146  10.028   7.822  0.7013  0.2420  0.2680
  295MOL0     C39752   5.040   9.910   7.824  0.1453  0.0169  0.6686
  295MOL0     C39753   5.073   9.806   7.717 -0.2861  0.6821  0.0945
  295MOL0     C39754   5.086   9.855   7.578 -0.7693 -0.9997 -0.2964
  295MOL0     C39755   5.105   9.884   7.461  0.2779 -0.2502  0.8121
  295MOL0     C39756   5.414  10.226   8.049 -0.1031  0.5746  0.0570
  295MOL0     C39757   5.484  10.251   8.168 -0.0472  0.6423  0.1838
  295MOL0     H39758   5.580  10.297   8.662  0.2417 -0.9067 -2.5343
  295MOL0     H39759   5.737  10.378   8.834 -0.5757  0.1760 -0.0996
  295MOL0     H39760   6.162  10.450   8.705  1.0064  0.5607 -0.5029
  295MOL0     H39761   6.084  10.613   8.697  0.4073 -1.3144 -0.7662
  295MOL0     H39762   6.128  10.675   8.914  1.5722  1.1389 -2.3965
  295MOL0     H39763   6.139  10.509   8.968  1.4365 -0.4025  0.1615
  295MOL0     H39764   6.362  10.477   8.890 -1.9478 -0.4717  0.3879
  295MOL0     H39765   6.358  10.621   8.784 -3.1235 -2.2687 -2.6604
  295MOL0     H39766   6.325  10.740   9.007 -0.2234 -0.6906 -1.1214
  295MOL0     H39767   6.352  10.587   9.088 -0.1441 -1.9870 -0.7982
  295MOL0     H39768   6.569  10.578   8.962  0.4717 -0.8492  3.1158
  295MOL0     H39769   6.554  10.740   8.900 -0.0265  0.2172  1.4507
  295MOL0     H39770   6.519  10.655   9.192  2.1152 -2.3215 -0.1042
  295MOL0     H39771   6.684  10.678   9.133 -0.2754  1.0865 -0.1099
  295MOL0     H39772   6.455  10.886   9.137  0.0731 -2.7111 -1.6877
  295MOL0     H39773   6.591  10.868   9.259  1.7773  1.7590 -1.1159
  295MOL0     H39774   6.604  10.963   8.981  0.5590  1.3442 -0.1501
  295MOL0     H39775   6.755  10.921   9.076  0.0288 -0.4326 -1.4828
  295MOL0     H39776   6.752  11.036   9.322 -2.6406 -0.5728  0.8285
  295MOL0     H39777   6.713  11.215   9.519  0.5700  0.7383  0.8890
  295MOL0     H39778   6.652  11.373   9.476 -1.2810  0.7510 -1.3881
  295MOL0     H39779   6.494  11.219   9.630  1.5412  1.6536  1.1512
  295MOL0     H39780   6.467  11.131   9.478  2.9477 -0.7852 -0.7168
  295MOL0     H39781   6.359  11.300   9.378 -0.4845 -2.9837  1.1914
  295MOL0     H39782   6.427  11.434   9.483 -0.4800  0.2156 -0.9518
  295MOL0     H39783   6.243  11.220   9.601  2.6965 -0.4082 -0.8125
  295MOL0     H39784   6.182  11.355   9.505  0.7189 -3.2096 -0.8056
  295MOL0     H39785   6.334  11.532   9.894  0.1264 -2.1587  0.5116
  295MOL0     H39786   6.235  11.656  10.126 -0.7087  0.1595  0.6031
  295MOL0     H39787   6.149  11.524  10.213  2.6602 -0.4614  2.0129
  295MOL0     H39788   6.295  11.493  10.148 -1.2180  0.0314  3.1024
  295MOL0     H39789   6.007  11.799  10.334 -0.8444  0.4024 -2.5761
  295MOL0     H39790   5.915  11.846  10.576  2.2706 -1.9455 -0.3349
  295MOL0     H39791   5.855  11.748  10.810  1.6991  2.0082 -1.0383
  295MOL0     H39792   5.784  11.902  10.750 -0.0541  0.2341 -0.1324
  295MOL0     H39793   5.609  11.910  10.894  0.8591  0.0207  0.7484
  295MOL0     H39794   5.601  11.727  10.893  0.4093 -0.3350  0.4796
  295MOL0     H39795   5.736  11.701  11.081  2.8500  0.3709  1.0380
  295MOL0     H39796   5.653  11.844  11.124 -1.1495  1.7120 -2.7096
  295MOL0     H39797   5.943  11.817  11.026  1.2503  1.0450  1.6963
  295MOL0     H39798   5.851  11.972  11.020 -0.9747 -0.2527 -1.5364
  295MOL0     H39799   5.789  11.938  11.264 -0.7675 -1.9212  0.5853
  295MOL0     H39800   5.958  11.980  11.207 -0.3223  0.3663 -1.9754
  295MOL0     H39801   5.838  11.687  11.264  1.8852 -1.7857 -1.2034
  295MOL0     H39802   6.014  11.724  11.245  1.1535  1.6075  0.5107
  295MOL0     H39803   5.828  11.824  11.476 -1.0490 -0.5730 -0.6997
  295MOL0     H39804   5.992  11.875  11.447 -2.2359  1.3824 -2.6712
  295MOL0     H39805   5.999  11.687  11.613  1.3391 -1.6748 -0.4359
  295MOL0     H39806   6.044  11.616  11.453 -0.2162  1.9808 -2.6136
  295MOL0     H39807   5.577  11.610  10.482 -0.4415  2.7149  0.8062
  295MOL0     H39808   5.685  11.524  10.271  1.5313 -0.1393 -1.7818
  295MOL0     H39809   5.861  11.406   9.844 -0.7104 -0.6740  1.8739
  295MOL0     H39810   6.029  11.372   9.655  0.0436 -0.0605  0.3339
  295MOL0     H39811   6.025  10.443   8.522  0.3427 -0.7178  0.3809
  295MOL0     H39812   5.858  10.368   8.362  2.1138 -2.3296 -0.0435
  295MOL0     H39813   5.226  10.356   8.363 -1.1510 -2.0489  0.2655
  295MOL0     H39814   5.098  10.306   8.167 -1.4636 -2.4028 -2.5754
  295MOL0     H39815   5.126  10.057   8.036 -3.6074  2.1808  2.0887
  295MOL0     H39816   5.020  10.159   7.927  0.7824  0.7233 -2.3411
  295MOL0     H39817   5.248   9.989   7.825  0.9382  0.9177  2.6484
  295MOL0     H39818   5.128  10.075   7.724 -1.3864 -2.3324 -0.7061
  295MOL0     H39819   4.939   9.947   7.809 -1.1245 -1.1691  4.8694
  295MOL0     H39820   5.041   9.867   7.925 -0.9166  0.8992  1.0698
  295MOL0     H39821   5.005   9.720   7.721  0.9264 -0.3114  0.2229
  295MOL0     H39822   5.177   9.773   7.729 -0.6451 -1.4640 -1.9858
  295MOL0     H39823   5.122   9.912   7.359  3.6561  1.4539  1.7044
  295MOL0     H39824   5.460  10.193   7.957  2.0964  4.4051 -0.4253
  295MOL0     H39825   5.588  10.221   8.174 -0.1254 -0.3255 -2.1452
  296MOL0     O39826   2.502   5.338   0.758 -0.0008  0.0371  0.0875
  296MOL0     C39827   2.565   5.385   0.848 -0.1582 -0.0328  0.5455
  296MOL0     O39828   2.653   5.479   0.829 -0.2970  0.2529 -0.1685
  296MOL0     C39829   2.680   5.510   0.692  0.4950  0.4628  0.6492
  296MOL0     C39830   2.651   5.646   0.642 -0.3744  0.3819  0.5366
  296MOL0     C39831   2.696   5.673   0.511  0.0054 -0.5345 -0.1159
  296MOL0     C39832   2.765   5.573   0.442 -0.6797 -0.6231  0.3593
  296MOL0     O39833   2.833   5.614   0.326  0.0666  1.0054  0.2062
  296MOL0     C39834   2.976   5.600   0.332  0.4804 -0.3467 -0.2367
  296MOL0     C39835   3.028   5.708   0.244 -0.0799 -0.7169  0.0830
  296MOL0     C39836   3.164   5.707   0.233 -1.5504 -0.0083  0.5054
  296MOL0     C39837   3.197   5.849   0.173 -0.5717 -0.7773  0.7359
  296MOL0     C39838   3.335   5.902   0.191 -0.2433 -0.8334 -0.3509
  296MOL0     C39839   3.391   5.876   0.326 -0.4027 -0.6517  0.6421
  296MOL0     C39840   3.526   5.946   0.332  0.4259 -1.4883 -0.4960
  296MOL0     C39841   3.509   6.083   0.395 -0.1932  0.4886 -0.7078
  296MOL0     N39842   3.483   6.079   0.543 -0.3873  0.2150 -0.9815
  296MOL0     C39843   3.543   5.996   0.631  0.3501  0.9663  0.0928
  296MOL0     C39844   3.483   6.025   0.751  0.3216  0.1784 -0.1723
  296MOL0     C39845   3.499   5.959   0.892 -0.4674  0.9709  0.2303
  296MOL0     C39846   3.565   5.820   0.893  0.1896 -0.4761  0.1929
  296MOL0     C39847   3.586   5.779   1.034  0.5011 -0.5991  0.1198
  296MOL0     C39848   3.458   5.750   1.117 -0.3266 -0.1420  0.2803
  296MOL0     O39849   3.361   5.665   1.046  0.0897 -0.1505  0.2767
  296MOL0     C39850   3.273   5.604   1.130  0.0242 -0.3142 -0.3028
  296MOL0     C39851   3.204   5.492   1.064 -0.9915 -0.8733 -1.0204
  296MOL0     C39852   3.121   5.406   1.142  0.5032 -0.3943 -0.1043
  296MOL0     C39853   3.058   5.297   1.069  0.1000 -0.8079 -0.3601
  296MOL0     C39854   3.092   5.444   1.277 -0.5388  1.0495  0.3001
  296MOL0     C39855   2.994   5.368   1.359 -0.1001 -0.1810 -0.5435
  296MOL0     O39856   3.018   5.344   1.490 -0.3760  0.3862  0.0960
  296MOL0     C39857   2.918   5.305   1.582 -0.2266  0.7218 -0.4204
  296MOL0     C39858   2.824   5.394   1.628  0.3691 -1.0023  0.0126
  296MOL0     C39859   2.732   5.363   1.728  1.5648  0.0297 -0.3563
  296MOL0     C39860   2.752   5.249   1.805  0.8252  0.3876 -0.0384
  296MOL0     O39861   2.674   5.237   1.916 -1.0944  0.2009  0.9053
  296MOL0     C39862   2.702   5.138   2.012 -0.2458  0.1278  0.3555
  296MOL0     C39863   2.822   5.194   2.103 -0.0072  0.7834  0.0107
  296MOL0     C39864   2.777   5.310   2.194  0.2935  0.3223 -0.2244
  296MOL0     C39865   2.717   5.270   2.329  0.2110 -0.2593 -0.1614
  296MOL0     C39866   2.689   5.395   2.414  0.2524 -0.7101 -0.6969
  296MOL0     C39867   2.814   5.476   2.446  0.0577  0.2968  0.7564
  296MOL0     C39868   2.786   5.593   2.547  0.4564  0.5220  0.2328
  296MOL0     C39869   2.905   5.678   2.575  0.0904 -0.0038  0.6808
  296MOL0    Cl39870   2.871   5.832   2.500 -0.6573  0.0396 -0.2353
  296MOL0     C39871   2.825   5.147   1.747 -0.0420 -0.1043  0.4724
  296MOL0     C39872   2.911   5.171   1.636 -0.8194  0.2095 -1.5100
  296MOL0     O39873   2.899   5.323   1.300  0.1043 -0.0968  1.0791
  296MOL0     C39874   3.152   5.554   1.339 -0.2767 -0.2438  0.5788
  296MOL0     C39875   3.247   5.627   1.269 -0.6338  0.1966 -0.6476
  296MOL0     N39876   3.393   6.125   0.727  0.4022  0.2668 -1.0652
  296MOL0     N39877   3.396   6.161   0.610 -0.6540  0.2159  0.7627
  296MOL0     C39878   2.796   5.450   0.493 -0.7477 -0.0730  0.3587
  296MOL0     C39879   2.754   5.419   0.619  0.1486  0.3776 -0.1111
  296MOL0     C39880   2.531   5.346   0.986  0.5152 -0.8569 -0.4342
  296MOL0     C39881   2.456   5.234   1.014 -0.4734 -0.7585 -0.2611
  296MOL0     C39882   2.428   5.184   1.134 -0.0922  0.2799 -0.2450
  296MOL0     C39883   2.458   5.257   1.244 -0.5547 -0.2780  0.2648
  296MOL0     O39884   2.435   5.189   1.363 -0.1859 -0.4271  0.4744
  296MOL0     C39885   2.510   5.250   1.473 -0.1430  0.2109  0.1919
  296MOL0     C39886   2.454   5.191   1.607  0.1624  0.0280  0.4520
  296MOL0     C39887   2.465   5.045   1.630  1.0576  0.1867 -0.4623
  296MOL0     C39888   2.398   5.006   1.766 -0.0362  0.4903 -0.5341
  296MOL0     C39889   2.252   5.014   1.768  0.0472  0.4430 -0.5226
  296MOL0     C39890   2.131   5.031   1.781 -0.2405 -0.6608 -0.5837
  296MOL0     C39891   2.548   5.370   1.236  0.4426  0.0223  0.2692
  296MOL0     C39892   2.586   5.410   1.099  0.4385 -0.1066 -0.8346
  296MOL0     H39893   2.598   5.723   0.698 -0.5565 -0.2427  1.2364
  296MOL0     H39894   2.686   5.765   0.455 -0.2073 -0.4505  0.0629
  296MOL0     H39895   3.007   5.606   0.436 -0.9136  1.8852  0.1257
  296MOL0     H39896   3.001   5.504   0.286 -0.2870 -0.1879 -1.0333
  296MOL0     H39897   2.994   5.702   0.141  0.9731 -1.0686 -0.2545
  296MOL0     H39898   2.983   5.800   0.285 -1.4429  0.7960 -4.3020
  296MOL0     H39899   3.213   5.691   0.329 -2.0342 -2.2710  0.4309
  296MOL0     H39900   3.199   5.628   0.167 -0.0137  1.5331 -0.6354
  296MOL0     H39901   3.185   5.864   0.065  1.4054  2.0331  0.8093
  296MOL0     H39902   3.142   5.924   0.230 -1.9694 -1.3050  0.1319
  296MOL0     H39903   3.403   5.858   0.117  1.9838 -0.3971  1.3329
  296MOL0     H39904   3.332   6.009   0.172 -1.8775 -0.1326  3.1550
  296MOL0     H39905   3.321   5.897   0.408 -0.7154 -0.0274  0.2170
  296MOL0     H39906   3.417   5.770   0.322  1.3746 -0.2328 -3.4646
  296MOL0     H39907   3.598   5.888   0.391 -1.1450 -2.2097  0.8186
  296MOL0     H39908   3.574   5.967   0.236 -4.1765  2.9605 -2.2617
  296MOL0     H39909   3.431   6.140   0.343 -1.3200  0.4839  0.8994
  296MOL0     H39910   3.605   6.136   0.394  1.3708 -1.8937  3.2588
  296MOL0     H39911   3.627   5.929   0.623 -0.9811 -0.6746 -0.8566
  296MOL0     H39912   3.573   6.017   0.949  2.1201 -2.4353  0.7282
  296MOL0     H39913   3.408   5.953   0.952  0.1645 -2.3101  1.0782
  296MOL0     H39914   3.664   5.826   0.847  0.7298 -2.6497  0.9344
  296MOL0     H39915   3.507   5.747   0.836 -0.1935  1.3591 -1.8900
  296MOL0     H39916   3.632   5.860   1.091 -0.1923  0.0243 -0.1789
  296MOL0     H39917   3.654   5.694   1.033 -1.6839 -2.4606 -0.2421
  296MOL0     H39918   3.412   5.848   1.133  0.5154  0.0039  2.0005
  296MOL0     H39919   3.496   5.722   1.215  1.6091 -1.9604 -0.9081
  296MOL0     H39920   3.217   5.459   0.962  1.9988 -0.2001 -0.9410
  296MOL0     H39921   2.961   5.337   1.041  0.0488 -1.4993 -1.2166
  296MOL0     H39922   3.115   5.259   0.984  1.2687 -0.0802  0.0667
  296MOL0     H39923   3.056   5.207   1.132  3.1757  0.6200  2.0510
  296MOL0     H39924   2.823   5.492   1.582  0.6266 -1.8330 -1.8294
  296MOL0     H39925   2.668   5.440   1.772 -1.3467 -3.1969  1.5309
  296MOL0     H39926   2.613   5.127   2.073 -0.5423 -3.0978 -0.4502
  296MOL0     H39927   2.722   5.039   1.969 -2.9036  0.3517 -1.6627
  296MOL0     H39928   2.853   5.114   2.171 -2.0228  1.5020  1.8819
  296MOL0     H39929   2.914   5.226   2.053 -1.8639  0.3807 -4.1380
  296MOL0     H39930   2.714   5.385   2.146 -1.9135 -1.0584  0.3931
  296MOL0     H39931   2.871   5.364   2.211  1.3767 -0.8764 -1.9996
  296MOL0     H39932   2.626   5.211   2.313 -0.4376  0.5971  0.2768
  296MOL0     H39933   2.780   5.205   2.391 -2.7289  1.3980  5.2257
  296MOL0     H39934   2.623   5.358   2.494 -2.3877  0.1279 -2.3382
  296MOL0     H39935   2.617   5.457   2.359  0.5772  1.1870  0.9426
  296MOL0     H39936   2.894   5.416   2.490  1.0014 -0.5422 -1.9244
  296MOL0     H39937   2.856   5.525   2.358  0.0034 -0.2638  0.4092
  296MOL0     H39938   2.758   5.545   2.642  3.0988  1.2212  1.4647
  296MOL0     H39939   2.704   5.658   2.514 -0.2951 -0.5913 -0.1660
  296MOL0     H39940   2.989   5.631   2.522 -1.4091  0.1367 -2.0404
  296MOL0     H39941   2.926   5.687   2.682  2.7965 -0.8889  0.2976
  296MOL0     H39942   2.820   5.050   1.794 -2.2541  1.3771  3.6336
  296MOL0     H39943   2.978   5.090   1.610 -1.0207 -1.1403  1.7523
  296MOL0     H39944   3.116   5.602   1.429 -1.1883 -0.1671  0.1917
  296MOL0     H39945   3.281   5.718   1.316 -1.9703  0.0079  0.7627
  296MOL0     H39946   2.862   5.389   0.431 -0.0067 -0.8727  1.8964
  296MOL0     H39947   2.775   5.328   0.675 -0.6923  1.9769  3.0489
  296MOL0     H39948   2.439   5.161   0.935  0.0744 -3.0045  1.5876
  296MOL0     H39949   2.373   5.091   1.139  2.9868 -1.6773 -0.1321
  296MOL0     H39950   2.615   5.228   1.450  0.1973 -0.1677  1.9818
  296MOL0     H39951   2.486   5.357   1.479  1.7061  0.5889  2.8382
  296MOL0     H39952   2.350   5.224   1.612  0.3370  1.5834 -3.2797
  296MOL0     H39953   2.506   5.233   1.694  2.2894 -1.8331  0.1938
  296MOL0     H39954   2.571   5.016   1.630  1.0718 -0.0225  1.9278
  296MOL0     H39955   2.413   4.997   1.548  2.7199 -1.3778 -0.6600
  296MOL0     H39956   2.435   5.059   1.854  1.3464  0.7417 -1.2297
  296MOL0     H39957   2.407   4.897   1.777  0.0193  0.5499  0.0142
  296MOL0     H39958   2.026   5.051   1.781 -0.0696  1.0054  2.8835
  296MOL0     H39959   2.590   5.421   1.322 -1.1213 -0.0673  1.1382
  296MOL0     H39960   2.636   5.507   1.095 -0.8718  0.5641 -2.4364
  297MOL0     O39961   5.886   4.172   7.612 -0.3455  0.2436 -0.2012
  297MOL0     C39962   5.850   4.111   7.511  0.4778 -0.1282  0.1933
  297MOL0     O39963   5.914   3.998   7.465  0.7566  0.6331 -0.8504
  297MOL0     C39964   6.027   3.960   7.537  0.5487  0.5817 -0.9679
  297MOL0     C39965   6.018   3.895   7.666 -0.2958  0.6678 -0.0661
  297MOL0     C39966   6.125   3.846   7.734 -0.6802  0.7264  0.2813
  297MOL0     C39967   6.245   3.842   7.662  0.6597 -0.6434 -0.3940
  297MOL0     O39968   6.363   3.787   7.719  1.1634  0.1563  0.6442
  297MOL0     C39969   6.371   3.773   7.864 -0.0012  0.1531  0.4291
  297MOL0     C39970   6.421   3.900   7.922  0.9548  0.5240  0.4523
  297MOL0     C39971   6.324   4.021   7.936 -0.5666  0.6578  0.1388
  297MOL0     C39972   6.205   3.999   8.040  0.3902 -0.0821 -0.0068
  297MOL0     C39973   6.074   4.081   8.023 -0.3590  0.0887  0.7597
  297MOL0     C39974   6.001   4.105   8.159 -0.1859  0.3742 -0.9044
  297MOL0     C39975   5.878   4.183   8.131 -0.2075  0.4670 -0.1718
  297MOL0     C39976   5.790   4.204   8.257 -0.3126  0.7986 -0.2711
  297MOL0     N39977   5.694   4.306   8.225 -0.0458 -0.7756 -0.8960
  297MOL0     C39978   5.616   4.301   8.116 -0.4733  1.2217  0.1245
  297MOL0     C39979   5.580   4.426   8.091  0.3557 -0.4302 -0.0025
  297MOL0     C39980   5.504   4.465   7.971  0.7021  0.2499  0.2059
  297MOL0     C39981   5.610   4.491   7.866 -0.6700 -0.5774  0.6789
  297MOL0     C39982   5.563   4.516   7.724  0.5787 -0.1522 -0.4831
  297MOL0     C39983   5.485   4.650   7.710  1.2260 -0.3498 -0.2557
  297MOL0     O39984   5.558   4.762   7.776  0.1778  0.0877  0.4799
  297MOL0     C39985   5.486   4.834   7.871  0.0622 -0.2510 -1.4349
  297MOL0     C39986   5.532   4.817   8.003  0.0490 -1.0177 -0.5671
  297MOL0     C39987   5.473   4.893   8.109  0.3211 -0.8761 -0.6215
  297MOL0     C39988   5.543   4.905   8.239  0.0848  0.7127 -0.1710
  297MOL0     C39989   5.354   4.971   8.077 -0.3197  0.0468  0.4531
  297MOL0     C39990   5.276   5.042   8.178  1.2814 -1.6927 -1.1602
  297MOL0     O39991   5.156   5.098   8.143 -0.5275  0.2358  0.4448
  297MOL0     C39992   5.099   5.161   8.240 -0.2099 -0.2333  0.4590
  297MOL0     C39993   5.014   5.083   8.322 -0.0273 -0.6273  0.6090
  297MOL0     C39994   4.927   5.148   8.414 -0.1190 -0.3508 -0.1556
  297MOL0     C39995   4.938   5.288   8.446 -0.2664  0.3554  0.0787
  297MOL0     O39996   4.852   5.357   8.532  0.0307 -0.1821  0.3518
  297MOL0     C39997   4.802   5.296   8.648 -0.1488  0.1114 -0.1095
  297MOL0     C39998   4.733   5.385   8.746 -1.1737  0.3126  0.0769
  297MOL0     C39999   4.607   5.456   8.708 -0.7150  0.9936  0.0442
  297MOL0     C40000   4.547   5.505   8.840 -0.1292  1.0973 -0.3909
  297MOL0     C40001   4.404   5.570   8.826  0.8775  0.7491  0.9536
  297MOL0     C40002   4.303   5.501   8.736 -1.2886 -0.2276  0.0712
  297MOL0     C40003   4.272   5.357   8.784  0.0140 -0.4479 -0.4182
  297MOL0     C40004   4.143   5.296   8.731  0.2527 -0.8860  0.5305
  297MOL0    Cl40005   4.156   5.277   8.551 -0.3774  0.2399 -0.3398
  297MOL0     C40006   5.032   5.361   8.370  0.4652  0.6138  0.5114
  297MOL0     C40007   5.112   5.298   8.265 -0.3905  0.1532 -0.1711
  297MOL0     O40008   5.315   5.039   8.295  0.1839  0.2747 -1.3490
  297MOL0     C40009   5.317   4.988   7.940  1.2671  1.2842  0.3930
  297MOL0     C40010   5.381   4.914   7.837 -0.6196 -0.6205 -0.1308
  297MOL0     N40011   5.615   4.499   8.198  0.1683 -0.8629  0.8124
  297MOL0     N40012   5.685   4.426   8.276 -0.1188  0.3981 -0.4014
  297MOL0     C40013   6.252   3.905   7.544 -0.2335 -0.3347 -0.1703
  297MOL0     C40014   6.149   3.972   7.479  0.7431  0.6581  0.1975
  297MOL0     C40015   5.739   4.170   7.428  0.4122  0.1717  0.1221
  297MOL0     C40016   5.669   4.115   7.318  1.2033 -0.2689  0.7295
  297MOL0     C40017   5.552   4.169   7.265 -0.6467 -0.4394  0.1468
  297MOL0     C40018   5.510   4.293   7.307 -0.7312  0.4091  0.4630
  297MOL0     O40019   5.416   4.365   7.256  0.3500  0.0223  0.2777
  297MOL0     C40020   5.384   4.347   7.114 -0.2090 -0.3644  0.3014
  297MOL0     C40021   5.227   4.355   7.096 -0.6241 -0.3858 -0.2420
  297MOL0     C40022   5.177   4.331   6.956 -0.0305  0.3964  0.5439
  297MOL0     C40023   5.031   4.274   6.958  0.0798 -0.0312 -0.6859
  297MOL0     C40024   5.024   4.139   7.018 -0.4648 -0.6980  0.2232
  297MOL0     C40025   5.031   4.017   7.036  0.5409 -0.8628 -0.1064
  297MOL0     C40026   5.578   4.358   7.402 -0.1074 -0.2271  0.4483
  297MOL0     C40027   5.690   4.298   7.464 -0.8197  0.0918  1.0321
  297MOL0     H40028   5.919   3.908   7.707 -0.4178  0.6137 -0.3374
  297MOL0     H40029   6.109   3.820   7.838 -0.9703  0.9251  0.2876
  297MOL0     H40030   6.283   3.740   7.919 -1.2010 -1.2326 -2.1306
  297MOL0     H40031   6.443   3.693   7.883 -0.4636 -0.2060  0.6730
  297MOL0     H40032   6.455   3.862   8.019  2.7947 -1.9032 -1.0474
  297MOL0     H40033   6.502   3.935   7.857 -2.4390  1.9500 -3.4530
  297MOL0     H40034   6.382   4.110   7.962  2.1441 -0.3531 -1.9482
  297MOL0     H40035   6.276   4.030   7.838  0.4211 -0.1676 -0.4303
  297MOL0     H40036   6.161   3.899   8.033  3.6807 -1.5459 -2.8038
  297MOL0     H40037   6.236   4.016   8.144 -1.6977  2.0972  0.3454
  297MOL0     H40038   6.094   4.171   7.964  2.1599 -0.7848  0.1718
  297MOL0     H40039   6.008   4.035   7.949  0.6715  0.9862 -0.7668
  297MOL0     H40040   5.966   4.010   8.201 -1.5937 -0.0230 -2.8478
  297MOL0     H40041   6.065   4.159   8.229 -3.0629 -0.6788  2.9014
  297MOL0     H40042   5.903   4.280   8.088  3.1740 -0.4904 -0.6466
  297MOL0     H40043   5.825   4.113   8.066 -0.4779 -0.2738  0.8181
  297MOL0     H40044   5.847   4.239   8.343 -2.6206  0.3985  1.5096
  297MOL0     H40045   5.723   4.121   8.282 -1.4344  1.8191  0.2345
  297MOL0     H40046   5.608   4.210   8.058  1.1178  0.7037  0.6741
  297MOL0     H40047   5.436   4.382   7.949 -2.3378  2.8507 -0.8587
  297MOL0     H40048   5.443   4.554   7.982  2.5166  1.6125 -0.3143
  297MOL0     H40049   5.665   4.396   7.877 -0.0302 -0.0026  3.2523
  297MOL0     H40050   5.679   4.570   7.898  0.9163 -2.3898  2.0124
  297MOL0     H40051   5.500   4.433   7.694  3.3250 -2.2291 -0.8848
  297MOL0     H40052   5.650   4.523   7.657  0.5890  0.0879 -0.4465
  297MOL0     H40053   5.381   4.647   7.745 -0.2618  4.7331 -3.1948
  297MOL0     H40054   5.469   4.665   7.603 -1.9169 -3.0903 -0.3248
  297MOL0     H40055   5.620   4.757   8.025 -0.6660 -1.9671 -0.2227
  297MOL0     H40056   5.622   4.830   8.229  0.8216  1.0584  2.3611
  297MOL0     H40057   5.604   4.994   8.255  0.3479  0.2347  1.7833
  297MOL0     H40058   5.483   4.880   8.327  1.3792 -0.3873  0.4498
  297MOL0     H40059   4.993   4.985   8.280  1.4288 -0.4066 -0.7473
  297MOL0     H40060   4.850   5.090   8.465 -2.4931  0.8925 -2.1153
  297MOL0     H40061   4.730   5.224   8.609  0.9779 -1.4296  0.5339
  297MOL0     H40062   4.879   5.244   8.706  1.0788 -0.6221 -2.3036
  297MOL0     H40063   4.717   5.320   8.833 -0.4069  2.3902  1.8735
  297MOL0     H40064   4.801   5.464   8.779 -1.5175  0.5782  0.1638
  297MOL0     H40065   4.557   5.375   8.654  0.7456 -0.3232  0.6072
  297MOL0     H40066   4.640   5.532   8.636  0.7011 -0.7027 -1.1855
  297MOL0     H40067   4.543   5.419   8.907 -1.5640  1.6990  0.3549
  297MOL0     H40068   4.610   5.579   8.891 -0.6150  2.1662 -1.2886
  297MOL0     H40069   4.426   5.669   8.785  3.8474 -0.4121 -0.6190
  297MOL0     H40070   4.356   5.572   8.924 -1.1290 -3.5608  0.3023
  297MOL0     H40071   4.220   5.571   8.723 -2.3704 -1.7498 -1.5959
  297MOL0     H40072   4.351   5.486   8.639 -0.4280 -2.6911  0.8031
  297MOL0     H40073   4.277   5.334   8.890 -3.5211 -1.4547 -0.3587
  297MOL0     H40074   4.362   5.314   8.740  0.1075  1.5589 -2.4223
  297MOL0     H40075   4.058   5.361   8.750  0.6103 -0.1229 -0.3852
  297MOL0     H40076   4.118   5.204   8.785 -1.8107 -1.1520 -0.7537
  297MOL0     H40077   5.062   5.464   8.388  1.2066  1.2557 -3.4257
  297MOL0     H40078   5.181   5.344   8.195  0.0949  0.0419  0.2259
  297MOL0     H40079   5.244   5.057   7.899  0.7833 -0.1334 -1.2858
  297MOL0     H40080   5.356   4.930   7.733 -1.7236 -0.7552  0.0980
  297MOL0     H40081   6.353   3.916   7.506 -0.6674  2.1411 -0.7736
  297MOL0     H40082   6.170   3.995   7.375  1.5210  0.5481  0.3197
  297MOL0     H40083   5.698   4.021   7.272 -2.2217 -0.7710 -0.7252
  297MOL0     H40084   5.517   4.107   7.182  1.5473  2.9132 -3.6401
  297MOL0     H40085   5.436   4.415   7.046 -1.4915 -0.7182 -1.1032
  297MOL0     H40086   5.408   4.247   7.075  1.4477 -0.3333  1.1841
  297MOL0     H40087   5.198   4.457   7.123  1.3089  0.5364 -1.4651
  297MOL0     H40088   5.167   4.291   7.161  0.5811  0.0068  1.3373
  297MOL0     H40089   5.242   4.270   6.893 -2.3383  0.7225 -2.3797
  297MOL0     H40090   5.169   4.431   6.913 -0.5271  0.3563  0.5338
  297MOL0     H40091   4.993   4.259   6.856  2.7117  0.5324 -1.8242
  297MOL0     H40092   4.981   4.342   7.027 -0.8158 -1.4536  0.1222
  297MOL0     H40093   5.047   3.912   7.050  0.3791 -0.6965  1.3948
  297MOL0     H40094   5.533   4.453   7.428 -1.2946 -0.7001  0.1889
  297MOL0     H40095   5.748   4.358   7.534 -0.2783  2.1742 -1.0580
  298MOL0     O40096   0.847  10.917   2.679 -0.1374 -0.2565  0.0409
  298MOL0     C40097   0.843  10.874   2.796  0.5095  0.5575  1.0212
  298MOL0     O40098   0.946  10.821   2.863  0.6399 -0.1249 -0.9156
  298MOL0     C40099   1.070  10.804   2.806  0.2111 -0.2171 -0.6761
  298MOL0     C40100   1.097  10.755   2.676  0.4203 -1.1141 -0.1340
  298MOL0     C40101   1.231  10.763   2.629 -0.0195 -0.3756  0.5341
  298MOL0     C40102   1.330  10.824   2.696 -0.0742  0.1359 -0.1529
  298MOL0     O40103   1.461  10.845   2.662  0.1577 -0.8171  0.2229
  298MOL0     C40104   1.496  10.821   2.527 -0.0259 -0.3696 -0.6285
  298MOL0     C40105   1.607  10.916   2.482 -0.1287 -0.9052  0.5297
  298MOL0     C40106   1.538  11.024   2.402 -0.2712  0.0036  0.1254
  298MOL0     C40107   1.645  11.114   2.333  0.1899  0.0171  0.0044
  298MOL0     C40108   1.695  11.060   2.201  0.4299  0.4384  0.1722
  298MOL0     C40109   1.781  11.154   2.121  0.2008  0.6591  0.3416
  298MOL0     C40110   1.823  11.105   1.981  0.0233  0.8647  0.1962
  298MOL0     C40111   1.856  11.215   1.881 -0.8211 -0.3645  0.2576
  298MOL0     N40112   1.900  11.170   1.753 -0.1591  0.6433  0.1522
  298MOL0     C40113   1.862  11.219   1.635 -0.2377  0.1146  0.5817
  298MOL0     C40114   1.918  11.131   1.543 -0.3321 -0.0644  0.1586
  298MOL0     C40115   1.888  11.118   1.391 -0.1011  0.3446 -0.7504
  298MOL0     C40116   1.798  10.996   1.368  0.3154 -0.0299  0.1418
  298MOL0     C40117   1.774  10.972   1.220  0.2756  0.7031 -0.1874
  298MOL0     C40118   1.900  10.983   1.133 -0.8309  0.1763 -0.3825
  298MOL0     O40119   1.871  10.944   0.998  1.1508  0.3102 -0.2288
  298MOL0     C40120   1.889  11.035   0.899  0.5754  0.6318 -0.2357
  298MOL0     C40121   1.882  11.175   0.912 -0.1200 -0.0768  0.3618
  298MOL0     C40122   1.877  11.259   0.797  0.5050  0.0852  0.3229
  298MOL0     C40123   1.846  11.405   0.829  0.0966  0.1348  0.6992
  298MOL0     C40124   1.877  11.197   0.665  0.5273 -0.2826 -0.5711
  298MOL0     C40125   1.860  11.270   0.535  0.1712 -0.3790 -0.5899
  298MOL0     O40126   1.865  11.405   0.547  0.4929  0.3392 -0.1503
  298MOL0     C40127   1.864  11.482   0.433 -0.1838 -1.2295  0.0790
  298MOL0     C40128   1.941  11.602   0.435 -0.3443  0.4738  0.1536
  298MOL0     C40129   1.954  11.683   0.329 -0.0972 -1.1804  0.4065
  298MOL0     C40130   1.877  11.667   0.216  0.2681 -0.6655 -0.0340
  298MOL0     O40131   1.886  11.759   0.118  0.0097 -0.1806 -0.9215
  298MOL0     C40132   1.886  11.727  -0.028  0.4372 -1.0660 -1.0801
  298MOL0     C40133   1.990  11.799  -0.096 -0.1149  0.4706 -0.3609
  298MOL0     C40134   1.977  11.947  -0.085 -0.8002 -0.2460 -0.6550
  298MOL0     C40135   2.098  12.009  -0.154  0.2902  0.1183  0.2667
  298MOL0     C40136   2.117  12.165  -0.137 -0.1859 -0.4415 -0.2328
  298MOL0     C40137   2.252  12.216  -0.196 -0.1000  0.8767 -0.2520
  298MOL0     C40138   2.241  12.361  -0.224 -0.9119  0.3886  0.3482
  298MOL0     C40139   2.220  12.457  -0.117  0.0562  0.7340  0.1146
  298MOL0    Cl40140   2.308  12.409   0.024 -0.0309 -0.0540 -0.1522
  298MOL0     C40141   1.795  11.557   0.212 -0.0584 -0.0559 -0.0037
  298MOL0     C40142   1.786  11.467   0.312  0.3130 -0.0010 -0.2061
  298MOL0     O40143   1.848  11.210   0.429  0.4528 -0.2607 -0.3344
  298MOL0     C40144   1.890  11.059   0.655  0.5605  0.5814 -0.5416
  298MOL0     C40145   1.892  10.982   0.776 -1.5568 -1.1383 -0.0418
  298MOL0     N40146   1.990  11.031   1.608  0.3701 -0.4106  0.1028
  298MOL0     N40147   1.967  11.048   1.731  0.8880 -0.6719 -0.2089
  298MOL0     C40148   1.301  10.882   2.821 -1.2714 -0.4062 -0.8647
  298MOL0     C40149   1.175  10.864   2.881  0.6346 -0.0658  1.1438
  298MOL0     C40150   0.728  10.920   2.877  0.6158 -0.1153  0.4362
  298MOL0     C40151   0.627  11.008   2.807  0.1544  0.5172 -0.8862
  298MOL0     C40152   0.523  11.064   2.884 -0.3219 -1.2819 -0.2707
  298MOL0     C40153   0.513  11.033   3.027 -0.0207  0.2118 -0.1054
  298MOL0     O40154   0.419  11.063   3.119  0.3495 -0.4208 -0.4304
  298MOL0     C40155   0.307  11.135   3.070  0.3665 -0.3595  0.7534
  298MOL0     C40156   0.197  11.037   3.032  0.2661 -0.4840 -0.1687
  298MOL0     C40157   0.086  11.115   2.954 -0.3465  0.8607 -0.5798
  298MOL0     C40158   0.011  11.230   3.023  0.1119 -0.6994 -0.2024
  298MOL0     C40159  -0.006  11.201   3.164  0.2805  0.6122  0.3315
  298MOL0     C40160  -0.018  11.150   3.274  0.2830 -0.6111 -0.0840
  298MOL0     C40161   0.604  10.940   3.073  0.9325  0.2524  0.0768
  298MOL0     C40162   0.717  10.892   3.011 -1.3665 -0.3209  0.0731
  298MOL0     H40163   1.018  10.709   2.617 -3.5558  2.1756  2.1528
  298MOL0     H40164   1.243  10.720   2.530 -1.2520  4.4000 -1.9998
  298MOL0     H40165   1.539  10.720   2.527 -0.8536 -0.7343 -0.1045
  298MOL0     H40166   1.416  10.817   2.452  0.5210 -1.1084 -1.1986
  298MOL0     H40167   1.647  10.970   2.569 -0.7889  0.8938 -0.2272
  298MOL0     H40168   1.673  10.853   2.422 -1.3820 -2.3901  0.6488
  298MOL0     H40169   1.465  10.988   2.329 -0.2968 -0.3246  0.3116
  298MOL0     H40170   1.483  11.089   2.470  0.1020  0.2156  0.2305
  298MOL0     H40171   1.591  11.207   2.314  0.6339 -0.0496 -1.7590
  298MOL0     H40172   1.725  11.135   2.405 -0.1913  3.0153 -0.3169
  298MOL0     H40173   1.749  10.964   2.207  0.7455  0.4255 -2.1168
  298MOL0     H40174   1.609  11.032   2.139  1.2192 -2.3945  0.2244
  298MOL0     H40175   1.717  11.241   2.104  1.4157  1.2815 -1.2982
  298MOL0     H40176   1.863  11.191   2.184  0.2067  0.5347  0.4075
  298MOL0     H40177   1.902  11.029   1.980  0.2446  1.0803 -1.4852
  298MOL0     H40178   1.741  11.053   1.931  0.5978  0.0610  0.0682
  298MOL0     H40179   1.932  11.284   1.920 -2.4129  0.3980  2.1866
  298MOL0     H40180   1.768  11.279   1.870 -0.2695  0.2301 -0.8848
  298MOL0     H40181   1.793  11.300   1.613  2.0710  2.1553  0.4036
  298MOL0     H40182   1.835  11.208   1.358 -0.2412  0.4015 -0.3810
  298MOL0     H40183   1.988  11.101   1.350  0.4172 -3.6410  1.6119
  298MOL0     H40184   1.702  11.013   1.417 -1.0623  1.7009 -2.9214
  298MOL0     H40185   1.845  10.907   1.412  0.8480 -0.3509 -1.0539
  298MOL0     H40186   1.699  11.041   1.181 -0.1795  0.7836  0.7923
  298MOL0     H40187   1.721  10.877   1.208 -1.1773  1.4927 -0.1992
  298MOL0     H40188   1.981  10.922   1.174  1.4132  3.1699 -0.0589
  298MOL0     H40189   1.930  11.088   1.142  1.8918 -0.2641 -2.8381
  298MOL0     H40190   1.879  11.227   1.006 -3.6581  0.9757 -0.2100
  298MOL0     H40191   1.872  11.421   0.934 -2.6747 -2.0305  1.8395
  298MOL0     H40192   1.897  11.479   0.767 -0.8029  0.3118  0.1515
  298MOL0     H40193   1.737  11.420   0.822 -0.5249 -2.3151  3.3930
  298MOL0     H40194   2.001  11.625   0.523 -0.9303 -1.2802  1.0766
  298MOL0     H40195   2.015  11.773   0.336  0.3298 -1.3176 -1.2842
  298MOL0     H40196   1.889  11.618  -0.037 -1.5911 -1.1505 -1.3386
  298MOL0     H40197   1.790  11.757  -0.071  0.0264  0.5417  0.7694
  298MOL0     H40198   2.084  11.765  -0.051  0.3076 -0.7955 -2.0623
  298MOL0     H40199   1.987  11.770  -0.202  0.3204 -2.4029  0.3163
  298MOL0     H40200   1.979  11.979   0.020  3.2416  0.0289 -0.6676
  298MOL0     H40201   1.886  11.983  -0.135  0.6069  2.8044 -1.2477
  298MOL0     H40202   2.194  11.973  -0.118 -0.7768 -3.2360  0.0802
  298MOL0     H40203   2.102  11.987  -0.261 -4.4551  2.8216 -0.7592
  298MOL0     H40204   2.106  12.196  -0.033 -2.7754  1.5004 -0.9654
  298MOL0     H40205   2.036  12.221  -0.184  1.1185  1.1683 -0.6353
  298MOL0     H40206   2.326  12.189  -0.121 -0.8156 -1.8534 -0.4284
  298MOL0     H40207   2.280  12.160  -0.286 -1.5747  0.6796 -0.6119
  298MOL0     H40208   2.177  12.376  -0.311  1.3156 -0.7719 -1.5941
  298MOL0     H40209   2.332  12.393  -0.274 -1.1099 -2.8194 -2.4140
  298MOL0     H40210   2.112  12.458  -0.100  0.1085 -3.6308  2.0165
  298MOL0     H40211   2.255  12.557  -0.144  3.1249 -0.1992  0.2634
  298MOL0     H40212   1.730  11.548   0.126 -1.2519 -0.7097  0.9399
  298MOL0     H40213   1.719  11.385   0.289 -3.5799  3.0105 -0.7815
  298MOL0     H40214   1.895  11.015   0.556 -0.5853 -0.0830 -0.3216
  298MOL0     H40215   1.902  10.875   0.757 -0.6345 -0.5869 -3.3317
  298MOL0     H40216   1.382  10.932   2.874 -1.3848  0.0801 -1.1421
  298MOL0     H40217   1.153  10.901   2.981 -1.8907  0.6473  0.3800
  298MOL0     H40218   0.641  11.045   2.706 -3.4205 -0.7447 -1.9725
  298MOL0     H40219   0.455  11.138   2.844  2.4002  1.9954  0.6690
  298MOL0     H40220   0.283  11.203   3.152  3.4364  2.8249 -0.7331
  298MOL0     H40221   0.329  11.200   2.984  0.9673  0.8498  1.7864
  298MOL0     H40222   0.154  10.981   3.116 -0.5489 -2.0363 -1.5700
  298MOL0     H40223   0.240  10.958   2.971  2.0635 -0.5638  1.1452
  298MOL0     H40224  -0.001  11.052   2.933  0.3440 -0.6295  0.8180
  298MOL0     H40225   0.136  11.145   2.861  3.7556  0.7455  1.3768
  298MOL0     H40226  -0.089  11.257   2.989  0.8090  0.4682 -1.4100
  298MOL0     H40227   0.071  11.321   3.009 -0.8211  0.2596  1.6355
  298MOL0     H40228  -0.022  11.088   3.361 -0.3447 -1.3172 -0.6012
  298MOL0     H40229   0.585  10.912   3.177  1.1937 -0.4104 -0.0494
  298MOL0     H40230   0.789  10.821   3.049 -1.6339 -1.6657 -1.7638
  299MOL0     O40231   0.733   2.933   9.634  0.5980  0.4976 -0.3194
  299MOL0     C40232   0.818   3.013   9.672  1.1143 -0.2051 -0.2576
  299MOL0     O40233   0.788   3.139   9.717  0.1892 -0.1261  0.1071
  299MOL0     C40234   0.657   3.168   9.735  0.3292  0.5019 -0.6857
  299MOL0     C40235   0.564   3.189   9.628  0.7160 -0.5050  0.2871
  299MOL0     C40236   0.429   3.206   9.655  0.5676  1.0188  0.3108
  299MOL0     C40237   0.371   3.201   9.784  0.1815  0.3954 -0.8042
  299MOL0     O40238   0.239   3.199   9.824 -0.0328 -0.0251  0.1550
  299MOL0     C40239   0.147   3.122   9.748  0.6347  0.0387  0.5009
  299MOL0     C40240   0.074   3.213   9.642 -0.8422  0.1727  1.0063
  299MOL0     C40241  -0.035   3.293   9.708 -0.3344  0.0647 -0.1360
  299MOL0     C40242  -0.067   3.431   9.655  0.1474 -0.3989 -0.2722
  299MOL0     C40243  -0.205   3.476   9.654  0.7781 -0.0367 -0.2258
  299MOL0     C40244  -0.256   3.496   9.798 -0.0046 -0.4897 -0.2939
  299MOL0     C40245  -0.211   3.630   9.874 -0.2321  0.0120  0.0474
  299MOL0     C40246  -0.238   3.768   9.812 -0.5549 -0.5461 -0.6586
  299MOL0     N40247  -0.379   3.800   9.806 -0.1540 -0.9819  0.6308
  299MOL0     C40248  -0.469   3.798   9.913  0.0163 -0.1298  0.2866
  299MOL0     C40249  -0.590   3.839   9.857 -0.7743 -1.1684 -0.2938
  299MOL0     C40250  -0.703   3.842   9.948  0.3941 -0.1168 -0.6424
  299MOL0     C40251  -0.718   3.976  10.036 -0.6052  0.1905  0.5615
  299MOL0     C40252  -0.707   4.103   9.950 -0.0043 -0.7668  0.2298
  299MOL0     C40253  -0.709   4.230  10.062  0.7142 -0.3220  0.4950
  299MOL0     O40254  -0.839   4.225  10.137 -0.7130  0.5607  0.5388
  299MOL0     C40255  -0.863   4.318  10.237  0.9081  0.2179  0.3834
  299MOL0     C40256  -0.774   4.415  10.278  0.6274  0.3042 -0.0984
  299MOL0     C40257  -0.811   4.504  10.375  0.3417 -0.0945 -0.3120
  299MOL0     C40258  -0.716   4.613  10.403  0.2692 -0.1140  0.1148
  299MOL0     C40259  -0.935   4.495  10.446  0.3785 -0.4066  1.0488
  299MOL0     C40260  -0.989   4.594  10.548  0.5723  0.5654 -0.2208
  299MOL0     O40261  -0.954   4.726  10.554 -0.9581  0.0540 -0.4922
  299MOL0     C40262  -0.969   4.793  10.674  0.3014 -0.0027 -0.8949
  299MOL0     C40263  -1.054   4.903  10.680  0.6990  0.3264 -0.1753
  299MOL0     C40264  -1.065   4.986  10.790  0.7898 -0.6459  0.1171
  299MOL0     C40265  -0.968   4.982  10.888  0.4312  1.0024 -0.8236
  299MOL0     O40266  -0.940   5.065  10.987 -0.3398 -0.9481 -1.2521
  299MOL0     C40267  -1.051   5.146  11.034 -0.4234  0.7460 -0.4573
  299MOL0     C40268  -1.041   5.192  11.180 -0.4383 -0.0754  0.2814
  299MOL0     C40269  -1.161   5.291  11.207  0.2760  0.3666  0.3594
  299MOL0     C40270  -1.282   5.206  11.254 -0.5348 -0.2379 -0.0680
  299MOL0     C40271  -1.412   5.289  11.287 -0.5610  0.5562 -0.4241
  299MOL0     C40272  -1.504   5.292  11.166 -0.1506 -0.3765  0.1526
  299MOL0     C40273  -1.643   5.342  11.183 -0.4414 -0.3770 -0.8247
  299MOL0     C40274  -1.717   5.320  11.056 -0.2791 -0.1820  0.3220
  299MOL0    Cl40275  -1.662   5.376  10.899  0.2057 -0.3665 -0.0081
  299MOL0     C40276  -0.883   4.863  10.888  0.6842  0.3184 -0.3822
  299MOL0     C40277  -0.878   4.775  10.777 -0.2849  0.3564  0.3413
  299MOL0     O40278  -1.070   4.540  10.620  0.6212  0.0457  0.0590
  299MOL0     C40279  -1.016   4.395  10.409  0.1146 -0.1482 -0.5260
  299MOL0     C40280  -0.983   4.306  10.307  0.0840  0.0872  0.2205
  299MOL0     N40281  -0.571   3.868   9.725  1.0000  0.0614  0.4233
  299MOL0     N40282  -0.443   3.836   9.697  0.4313 -0.3686 -0.1989
  299MOL0     C40283   0.470   3.188   9.887 -0.1587  0.4083  0.2630
  299MOL0     C40284   0.606   3.168   9.862  0.6641 -0.1165  0.2386
  299MOL0     C40285   0.960   2.966   9.688  0.1690  0.4034 -0.5553
  299MOL0     C40286   1.056   3.048   9.739  0.1765 -0.8433 -0.3824
  299MOL0     C40287   1.189   3.018   9.746  0.0811  0.7655 -0.7533
  299MOL0     C40288   1.233   2.896   9.700 -0.4163 -0.0607  0.1100
  299MOL0     O40289   1.363   2.875   9.711 -0.5699  0.6042 -1.1950
  299MOL0     C40290   1.421   2.742   9.683 -0.3025 -1.2496 -0.2150
  299MOL0     C40291   1.562   2.754   9.636  0.1127  1.0086 -0.0862
  299MOL0     C40292   1.570   2.827   9.499  0.4805 -0.5695  0.6959
  299MOL0     C40293   1.570   2.730   9.377  0.0091  0.0367  0.0297
  299MOL0     C40294   1.572   2.804   9.249  1.1257  0.5519 -0.6759
  299MOL0     C40295   1.549   2.862   9.143  0.8865  0.7805  0.3798
  299MOL0     C40296   1.140   2.805   9.648  0.6505 -0.2868 -0.2078
  299MOL0     C40297   1.005   2.839   9.635 -0.5220 -1.2559  0.2029
  299MOL0     H40298   0.608   3.177   9.530  1.8465  3.2236  0.1859
  299MOL0     H40299   0.364   3.205   9.567  0.6852  0.0268  0.2228
  299MOL0     H40300   0.196   3.043   9.690  1.1325  2.2772 -2.3833
  299MOL0     H40301   0.083   3.076   9.824  0.7468 -0.2187  0.4432
  299MOL0     H40302   0.144   3.276   9.587  0.9079 -2.6202 -0.1917
  299MOL0     H40303   0.043   3.142   9.565  1.8845 -0.1325  0.0542
  299MOL0     H40304  -0.131   3.242   9.696 -0.5913  1.0028 -2.5035
  299MOL0     H40305  -0.002   3.300   9.812  1.0828  0.0481 -0.5593
  299MOL0     H40306  -0.007   3.513   9.697 -0.6616 -0.3386  0.8148
  299MOL0     H40307  -0.055   3.428   9.546 -0.0078 -1.9952 -0.2634
  299MOL0     H40308  -0.220   3.566   9.594 -0.7970 -0.3226 -0.3150
  299MOL0     H40309  -0.267   3.402   9.603  0.9304  0.1546 -0.6938
  299MOL0     H40310  -0.364   3.509   9.794 -0.0037 -0.1963  0.5094
  299MOL0     H40311  -0.233   3.411   9.864  0.9963  3.1891  4.6859
  299MOL0     H40312  -0.267   3.642   9.967 -0.4088  1.5545 -0.2243
  299MOL0     H40313  -0.103   3.625   9.887 -0.2066  0.3366 -0.0232
  299MOL0     H40314  -0.202   3.765   9.709  1.0071  0.6526 -0.1874
  299MOL0     H40315  -0.179   3.847   9.860 -1.3672  0.7252 -1.6704
  299MOL0     H40316  -0.464   3.763  10.015 -1.0302  0.9725  0.7379
  299MOL0     H40317  -0.788   3.843   9.880  0.0665  2.7875 -0.3340
  299MOL0     H40318  -0.703   3.752  10.011 -0.4136  0.8431  0.8032
  299MOL0     H40319  -0.643   3.983  10.116 -0.6925 -0.9863  0.7626
  299MOL0     H40320  -0.820   3.983  10.075 -0.5337 -1.1219  1.0450
  299MOL0     H40321  -0.797   4.119   9.890  0.0185 -1.1416  0.0935
  299MOL0     H40322  -0.623   4.106   9.881  0.5266 -0.1126  0.8836
  299MOL0     H40323  -0.682   4.316  10.000  0.1682 -0.7072 -0.2891
  299MOL0     H40324  -0.627   4.226  10.134  1.0362  0.6356  0.1878
  299MOL0     H40325  -0.677   4.415  10.229  0.6789  1.2398 -0.0187
  299MOL0     H40326  -0.616   4.607  10.360 -0.2594 -1.1904 -1.0685
  299MOL0     H40327  -0.760   4.709  10.375  1.1301 -0.0071 -0.9408
  299MOL0     H40328  -0.716   4.614  10.512 -2.8839  0.2037  0.2146
  299MOL0     H40329  -1.111   4.906  10.587  1.6643  0.3059 -0.7875
  299MOL0     H40330  -1.146   5.058  10.794 -0.7909 -2.3974  3.3064
  299MOL0     H40331  -1.065   5.231  10.967 -1.1973 -0.2698 -1.6231
  299MOL0     H40332  -1.142   5.087  11.025 -0.3467  0.0896  2.0999
  299MOL0     H40333  -1.034   5.105  11.246 -0.4229  0.3339  0.8257
  299MOL0     H40334  -0.952   5.255  11.192  0.1603 -0.4666 -1.6969
  299MOL0     H40335  -1.200   5.347  11.122 -2.4344  0.0618  1.2926
  299MOL0     H40336  -1.141   5.368  11.283 -0.8044  2.8906 -1.7602
  299MOL0     H40337  -1.300   5.119  11.190  2.1681 -0.6039 -0.4684
  299MOL0     H40338  -1.259   5.166  11.354 -1.9179 -2.9078 -0.7201
  299MOL0     H40339  -1.400   5.392  11.321 -2.0393  0.9091 -0.8928
  299MOL0     H40340  -1.461   5.240  11.372  0.9329  3.5814  2.3886
  299MOL0     H40341  -1.453   5.342  11.083 -0.6434 -1.7337 -1.0104
  299MOL0     H40342  -1.522   5.194  11.121 -2.6310  0.5446 -1.0317
  299MOL0     H40343  -1.643   5.442  11.228 -1.8042 -1.3493  1.5079
  299MOL0     H40344  -1.691   5.273  11.253 -1.2067 -3.4787 -4.1321
  299MOL0     H40345  -1.808   5.380  11.064 -0.7767 -1.1172  2.5732
  299MOL0     H40346  -1.741   5.213  11.051  2.0869 -0.6949 -1.4037
  299MOL0     H40347  -0.799   4.844  10.954  3.6090  1.1526 -3.5118
  299MOL0     H40348  -0.799   4.702  10.761  0.2136  0.7394  1.0650
  299MOL0     H40349  -1.117   4.389  10.448 -1.5351  3.3245 -3.5594
  299MOL0     H40350  -1.055   4.235  10.268  1.9798 -1.2642 -0.9569
  299MOL0     H40351   0.439   3.180   9.991 -2.5988  0.4020 -0.4079
  299MOL0     H40352   0.673   3.159   9.948  0.0181  1.8556  0.9997
  299MOL0     H40353   1.029   3.136   9.798  1.0698 -1.2616  0.6786
  299MOL0     H40354   1.263   3.091   9.778 -2.8222  3.2523  0.8891
  299MOL0     H40355   1.425   2.693   9.781 -1.3046  0.0882  0.5376
  299MOL0     H40356   1.362   2.694   9.605 -1.4434  1.0744 -0.8846
  299MOL0     H40357   1.600   2.653   9.620 -0.9691  0.6288 -0.3039
  299MOL0     H40358   1.618   2.810   9.711  0.7517  0.4147 -0.1090
  299MOL0     H40359   1.655   2.896   9.493  2.0539 -2.5688 -2.4828
  299MOL0     H40360   1.482   2.892   9.491  1.6228  0.9445 -0.2064
  299MOL0     H40361   1.480   2.668   9.370  0.9718 -1.2438 -2.8289
  299MOL0     H40362   1.650   2.657   9.390 -0.3736 -0.6607 -1.2608
  299MOL0     H40363   1.537   2.910   9.049  1.6537 -2.6479 -1.6679
  299MOL0     H40364   1.159   2.698   9.639 -1.0841 -0.5009 -2.1206
  299MOL0     H40365   0.940   2.767   9.586  0.6931 -0.5907 -2.6124
  300MOL0     O40366  10.237   2.280   7.572 -0.1263  0.0881  0.7899
  300MOL0     C40367  10.270   2.323   7.462 -0.2140 -0.6930  0.3143
  300MOL0     O40368  10.182   2.339   7.353  0.0145  0.0933  0.3789
  300MOL0     C40369  10.061   2.284   7.366 -1.0059 -0.0897  0.3023
  300MOL0     C40370   9.967   2.333   7.455  0.4227 -1.2597  0.1990
  300MOL0     C40371   9.844   2.269   7.459  0.4584  0.3580 -0.2353
  300MOL0     C40372   9.810   2.168   7.368 -0.7918  0.2695  0.0538
  300MOL0     O40373   9.695   2.105   7.380  0.3898  0.5626 -0.3045
  300MOL0     C40374   9.585   2.163   7.310 -1.5127  0.0967  0.1989
  300MOL0     C40375   9.464   2.067   7.323  1.2816 -1.0636  0.4769
  300MOL0     C40376   9.407   2.064   7.465  0.3777 -0.1954  0.1323
  300MOL0     C40377   9.332   2.197   7.490 -0.3017 -0.6013 -0.5751
  300MOL0     C40378   9.203   2.179   7.565 -0.4034  0.1364  0.1911
  300MOL0     C40379   9.129   2.304   7.599 -0.1539  0.1079  0.2295
  300MOL0     C40380   9.037   2.299   7.719  0.1275 -0.2115  0.1292
  300MOL0     C40381   9.107   2.307   7.848 -0.3173  0.2045  0.5242
  300MOL0     N40382   9.175   2.437   7.873 -0.0442  0.1322  0.2802
  300MOL0     C40383   9.111   2.555   7.841 -0.4841 -0.1549 -1.0078
  300MOL0     C40384   9.212   2.640   7.826 -0.2685  0.8551  1.0951
  300MOL0     C40385   9.178   2.780   7.789 -1.4674 -0.8042  0.4253
  300MOL0     C40386   9.182   2.785   7.635 -0.5034 -0.2190  0.5399
  300MOL0     C40387   9.079   2.731   7.542  0.5985  0.3628 -0.6543
  300MOL0     C40388   9.082   2.815   7.416 -0.9381 -0.0178 -0.2696
  300MOL0     O40389   8.962   2.783   7.350 -0.1123 -0.1880 -0.4013
  300MOL0     C40390   8.975   2.805   7.217  0.6570 -0.2174  0.2116
  300MOL0     C40391   8.891   2.736   7.126 -0.4620 -0.0272  0.7953
  300MOL0     C40392   8.908   2.746   6.986 -0.3395  0.0748 -0.3010
  300MOL0     C40393   8.806   2.656   6.910  0.1682  0.6929  0.4627
  300MOL0     C40394   8.994   2.839   6.929 -0.6012 -0.3999 -0.2850
  300MOL0     C40395   9.020   2.853   6.778 -1.3850  0.4757  0.4463
  300MOL0     O40396   9.097   2.962   6.739  0.2726 -1.1606 -0.7146
  300MOL0     C40397   9.151   2.951   6.617  0.1446 -0.2592 -0.0647
  300MOL0     C40398   9.258   2.862   6.595  0.1912 -0.0005 -0.6211
  300MOL0     C40399   9.308   2.849   6.459  0.2431  0.2819 -0.1542
  300MOL0     C40400   9.261   2.926   6.352 -1.2747 -0.0391  0.3478
  300MOL0     O40401   9.297   2.914   6.218  0.4206  0.3327 -0.2312
  300MOL0     C40402   9.327   2.782   6.167 -0.2350 -0.7166  0.2237
  300MOL0     C40403   9.297   2.765   6.025 -1.0614 -0.1633  0.2789
  300MOL0     C40404   9.163   2.829   5.990  0.0483 -0.7521 -0.6451
  300MOL0     C40405   9.125   2.791   5.847  0.6137 -0.5483 -0.1406
  300MOL0     C40406   8.995   2.864   5.823 -0.1020 -0.0190  0.9330
  300MOL0     C40407   8.882   2.762   5.793 -0.2508  0.6114 -0.3450
  300MOL0     C40408   8.770   2.831   5.707 -0.6546  0.1144 -1.5081
  300MOL0     C40409   8.702   2.952   5.779  0.2143  1.1050  1.0918
  300MOL0    Cl40410   8.596   3.026   5.659  0.6066 -0.2497  0.3746
  300MOL0     C40411   9.162   3.027   6.389 -0.0733  0.3239  0.3083
  300MOL0     C40412   9.112   3.041   6.521 -1.4116  0.6802 -0.0082
  300MOL0     O40413   8.984   2.767   6.705 -0.3736 -0.2301  0.0253
  300MOL0     C40414   9.069   2.920   7.012  0.0751 -0.6906 -0.0805
  300MOL0     C40415   9.064   2.893   7.147  0.2077  0.4205  0.9725
  300MOL0     N40416   9.333   2.575   7.842 -0.1944 -0.7033 -0.9226
  300MOL0     N40417   9.314   2.454   7.881 -0.3471  0.2724 -0.0035
  300MOL0     C40418   9.906   2.125   7.273  1.0163 -0.2039 -0.0478
  300MOL0     C40419  10.028   2.181   7.274 -0.2104  0.3508  0.0670
  300MOL0     C40420  10.413   2.346   7.439  0.2484  0.4443 -0.2534
  300MOL0     C40421  10.457   2.430   7.340  0.5011 -0.1571  0.5102
  300MOL0     C40422  10.587   2.420   7.309  0.3172 -0.1061  0.1221
  300MOL0     C40423  10.683   2.344   7.388  0.5228  0.0930 -0.7099
  300MOL0     O40424  10.820   2.353   7.345  0.8736 -0.4950 -0.1680
  300MOL0     C40425  10.898   2.230   7.381  0.6285 -0.2554 -0.3238
  300MOL0     C40426  11.003   2.206   7.264  0.5822 -0.4215  0.3653
  300MOL0     C40427  11.054   2.055   7.264 -0.0587 -0.3603 -0.5031
  300MOL0     C40428  11.151   2.026   7.154 -0.5885 -0.1648 -1.3604
  300MOL0     C40429  11.276   2.088   7.199  0.4794  0.1012 -0.3818
  300MOL0     C40430  11.378   2.132   7.238  0.6109  0.2563  0.4198
  300MOL0     C40431  10.641   2.280   7.503  0.2159 -0.1923 -0.2498
  300MOL0     C40432  10.508   2.274   7.526  0.0408 -0.6711 -0.4979
  300MOL0     H40433   9.985   2.419   7.519 -0.1312 -1.2597  0.3626
  300MOL0     H40434   9.762   2.294   7.526  0.1913  1.2037 -0.8599
  300MOL0     H40435   9.560   2.257   7.361 -1.6241 -0.9317  2.1234
  300MOL0     H40436   9.615   2.183   7.206 -1.4000 -1.0675 -0.0056
  300MOL0     H40437   9.380   2.099   7.261  0.2365 -1.5924  1.5805
  300MOL0     H40438   9.492   1.971   7.279 -0.3452 -1.1767 -0.4128
  300MOL0     H40439   9.338   1.980   7.482  0.6468 -0.5412 -0.4830
  300MOL0     H40440   9.492   2.048   7.532  0.5659 -0.0681 -0.0790
  300MOL0     H40441   9.409   2.258   7.539 -1.0885 -0.4859  0.5539
  300MOL0     H40442   9.319   2.247   7.393 -0.4723 -2.4311 -1.5374
  300MOL0     H40443   9.135   2.119   7.503 -0.6476 -1.6252  2.0387
  300MOL0     H40444   9.220   2.121   7.656 -0.9767  2.2358  1.7188
  300MOL0     H40445   9.196   2.389   7.615  0.2792 -0.0699 -0.5785
  300MOL0     H40446   9.071   2.335   7.511 -0.2131  3.8087  1.4083
  300MOL0     H40447   8.976   2.389   7.711 -0.6078 -0.7397 -0.2773
  300MOL0     H40448   8.973   2.211   7.719  0.4495 -0.5398 -2.5333
  300MOL0     H40449   9.163   2.214   7.858  0.2222  0.4209 -0.2981
  300MOL0     H40450   9.043   2.299   7.936  0.8517  2.4017  1.6499
  300MOL0     H40451   9.008   2.584   7.824 -0.5356  0.7139  0.6660
  300MOL0     H40452   9.082   2.812   7.829 -1.0734  1.4014 -0.2961
  300MOL0     H40453   9.264   2.834   7.830  0.9317 -2.3827 -2.0864
  300MOL0     H40454   9.281   2.753   7.603  0.2129  0.1767  2.2482
  300MOL0     H40455   9.173   2.894   7.626  0.1797 -0.1940  0.1211
  300MOL0     H40456   8.981   2.728   7.590  1.1737 -1.6654  0.5166
  300MOL0     H40457   9.114   2.632   7.511  3.2632  0.6643  1.0637
  300MOL0     H40458   9.171   2.786   7.359  1.1122 -1.7547  3.4673
  300MOL0     H40459   9.112   2.919   7.431  0.6726 -0.3639 -0.8678
  300MOL0     H40460   8.818   2.668   7.167 -0.3971 -0.1889  0.6428
  300MOL0     H40461   8.767   2.696   6.816 -1.4836 -2.4171 -0.3105
  300MOL0     H40462   8.855   2.567   6.869 -0.5298 -0.5836  2.2298
  300MOL0     H40463   8.725   2.624   6.977  0.6192 -1.7637 -0.0641
  300MOL0     H40464   9.301   2.792   6.666 -0.4585 -1.2761 -1.4446
  300MOL0     H40465   9.372   2.765   6.436 -0.7762 -0.7732  0.7266
  300MOL0     H40466   9.431   2.752   6.185 -0.3216 -2.0472 -1.2900
  300MOL0     H40467   9.257   2.715   6.218 -0.0582 -0.7094  0.4781
  300MOL0     H40468   9.381   2.814   5.974 -0.8762 -3.1002 -2.6178
  300MOL0     H40469   9.303   2.659   5.996  0.7662  0.5356 -2.3225
  300MOL0     H40470   9.169   2.938   5.998  1.9652 -0.8962  0.8950
  300MOL0     H40471   9.083   2.800   6.058  1.3523 -0.7245  0.9669
  300MOL0     H40472   9.206   2.832   5.785 -0.5328  0.4538 -1.0406
  300MOL0     H40473   9.117   2.683   5.838  2.2492 -0.9475  2.4211
  300MOL0     H40474   9.018   2.928   5.736  0.3128 -2.0084 -0.4813
  300MOL0     H40475   8.962   2.927   5.906 -1.9598 -0.2488  0.4116
  300MOL0     H40476   8.921   2.670   5.749  3.1229  2.0291 -0.6040
  300MOL0     H40477   8.841   2.742   5.893 -3.6943 -1.2745 -1.9778
  300MOL0     H40478   8.698   2.752   5.688  2.1632 -4.1984  3.2450
  300MOL0     H40479   8.816   2.877   5.619  0.2292 -0.7355 -1.5081
  300MOL0     H40480   8.782   3.016   5.818  4.0279 -2.4280 -0.1339
  300MOL0     H40481   8.648   2.916   5.867  0.1965  1.3419  1.1779
  300MOL0     H40482   9.111   3.077   6.308 -1.4935 -0.8734  0.4066
  300MOL0     H40483   9.032   3.113   6.536 -0.4462  1.8491 -0.3459
  300MOL0     H40484   9.154   2.976   6.972 -0.4683  2.3626  2.6640
  300MOL0     H40485   9.136   2.937   7.215 -0.0134  2.4939 -0.0509
  300MOL0     H40486   9.863   2.066   7.193 -1.0810  1.2063 -0.0561
  300MOL0     H40487  10.109   2.161   7.205 -1.6733 -0.5513 -1.4682
  300MOL0     H40488  10.383   2.481   7.279 -1.2675 -2.0182  1.0309
  300MOL0     H40489  10.613   2.471   7.216 -2.4928  1.6188  0.1737
  300MOL0     H40490  10.942   2.246   7.480  1.6158 -0.4367 -0.7222
  300MOL0     H40491  10.839   2.138   7.376 -1.2702  0.9862 -3.6366
  300MOL0     H40492  11.081   2.277   7.295 -1.4127  2.0258  0.0745
  300MOL0     H40493  10.961   2.237   7.168 -0.7385 -1.9943  0.4002
  300MOL0     H40494  10.963   1.997   7.246 -1.6051  1.4867  0.8742
  300MOL0     H40495  11.106   2.040   7.359  0.4182  4.9197  0.4044
  300MOL0     H40496  11.115   2.071   7.060 -0.6642  1.2223 -0.7004
  300MOL0     H40497  11.165   1.918   7.145 -0.5384 -0.0548 -2.9499
  300MOL0     H40498  11.471   2.162   7.280  1.1520 -1.5761  0.6020
  300MOL0     H40499  10.709   2.237   7.576 -1.8911  0.4268  2.2444
  300MOL0     H40500  10.473   2.219   7.613  0.7639 -1.2518 -0.5691
  301MOL0     O40501   6.569   0.213   2.911  0.6305  0.6153  0.4066
  301MOL0     C40502   6.683   0.242   2.863  0.4790  0.4565 -0.1555
  301MOL0     O40503   6.801   0.197   2.903 -0.7935  0.0032 -0.4631
  301MOL0     C40504   6.817   0.081   2.970 -0.0561 -0.1178  2.1736
  301MOL0     C40505   6.904   0.070   3.074  0.3776 -0.2382  1.0325
  301MOL0     C40506   6.900  -0.042   3.157  0.1035  0.2311  1.0808
  301MOL0     C40507   6.821  -0.148   3.125 -0.1657 -0.5941 -0.0704
  301MOL0     O40508   6.832  -0.259   3.206 -0.0593  0.2286 -0.3903
  301MOL0     C40509   6.791  -0.392   3.163 -0.2484  0.2727  0.2626
  301MOL0     C40510   6.867  -0.496   3.237 -0.1476 -0.2387 -0.0405
  301MOL0     C40511   7.015  -0.461   3.253 -0.8751 -0.6610  0.0086
  301MOL0     C40512   7.084  -0.569   3.348  0.4606  0.7072  0.1565
  301MOL0     C40513   7.235  -0.559   3.335 -0.1944  0.1153  0.0297
  301MOL0     C40514   7.311  -0.609   3.461 -0.7768 -0.8386 -0.1237
  301MOL0     C40515   7.456  -0.638   3.428  0.3372 -0.6972  0.9962
  301MOL0     C40516   7.524  -0.669   3.559  0.2951 -0.8944 -0.4963
  301MOL0     N40517   7.500  -0.795   3.624  0.8510 -0.8773  1.1241
  301MOL0     C40518   7.574  -0.911   3.606  0.3094 -0.4992 -0.8528
  301MOL0     C40519   7.503  -1.009   3.668  0.5778  0.6608 -0.6150
  301MOL0     C40520   7.536  -1.157   3.672  1.0997 -0.0538  0.1391
  301MOL0     C40521   7.433  -1.264   3.691  0.4051 -0.0094 -0.4761
  301MOL0     C40522   7.477  -1.413   3.662 -0.4866 -0.9270 -0.7832
  301MOL0     C40523   7.582  -1.474   3.758 -0.8264 -0.0166 -0.6787
  301MOL0     O40524   7.605  -1.608   3.721  0.6670 -0.4492 -0.1901
  301MOL0     C40525   7.520  -1.704   3.761  0.7290  0.1967 -0.6267
  301MOL0     C40526   7.560  -1.840   3.724  0.8149 -0.4796  0.7614
  301MOL0     C40527   7.481  -1.952   3.755  0.0133 -0.6974 -1.1475
  301MOL0     C40528   7.533  -2.086   3.723  0.3117  0.2166 -0.6081
  301MOL0     C40529   7.356  -1.924   3.817  0.9465  0.9676 -0.2510
  301MOL0     C40530   7.254  -2.030   3.834 -0.1919  1.0498  1.0331
  301MOL0     O40531   7.122  -2.009   3.797  0.1072 -0.4213  0.0874
  301MOL0     C40532   7.004  -2.070   3.850  0.1257 -0.3877  0.6084
  301MOL0     C40533   6.994  -2.130   3.979  0.5424 -0.7471  0.3142
  301MOL0     C40534   6.878  -2.178   4.025  0.0211  0.5203  0.1027
  301MOL0     C40535   6.768  -2.187   3.938 -0.2681  0.7121 -0.0170
  301MOL0     O40536   6.654  -2.256   3.972  0.4313 -0.0590  0.1017
  301MOL0     C40537   6.654  -2.389   4.021 -0.8188  0.1731  0.1054
  301MOL0     C40538   6.740  -2.490   3.943 -0.2625  0.0753  0.1459
  301MOL0     C40539   6.660  -2.535   3.822 -0.7837 -0.4529  0.0618
  301MOL0     C40540   6.758  -2.601   3.733  0.8176  0.7119  0.0390
  301MOL0     C40541   6.717  -2.666   3.601 -0.2441  0.3271 -0.2428
  301MOL0     C40542   6.687  -2.551   3.498  0.5428  0.3639 -0.2879
  301MOL0     C40543   6.686  -2.622   3.359 -0.0260 -0.4721 -0.8918
  301MOL0     C40544   6.628  -2.548   3.245 -0.0367 -0.5344  0.5076
  301MOL0    Cl40545   6.705  -2.608   3.083 -0.2700  0.2658  0.0609
  301MOL0     C40546   6.772  -2.129   3.813 -0.5356 -0.4993  1.1308
  301MOL0     C40547   6.888  -2.061   3.773  0.0838  0.2121 -0.0375
  301MOL0     O40548   7.296  -2.128   3.901 -0.4438  0.3281  0.0818
  301MOL0     C40549   7.317  -1.797   3.858  0.2765  0.1712  0.0394
  301MOL0     C40550   7.397  -1.687   3.834 -0.7695  0.3199  0.0764
  301MOL0     N40551   7.393  -0.959   3.730  0.6623 -0.1527  0.3734
  301MOL0     N40552   7.394  -0.826   3.705 -0.7376  0.3342 -0.6380
  301MOL0     C40553   6.740  -0.148   3.014 -0.1889 -0.7339  0.9620
  301MOL0     C40554   6.732  -0.039   2.932 -0.2528  0.1115 -0.3713
  301MOL0     C40555   6.694   0.367   2.785 -0.3424 -0.7156 -0.4709
  301MOL0     C40556   6.582   0.451   2.782  0.1049  0.8638 -0.2781
  301MOL0     C40557   6.579   0.554   2.682  0.5741 -0.2545  1.1425
  301MOL0     C40558   6.692   0.578   2.602 -0.0746  0.8625 -0.5520
  301MOL0     O40559   6.693   0.685   2.515 -0.7930  0.7978  0.2259
  301MOL0     C40560   6.814   0.713   2.443  0.6965 -0.2647 -0.9387
  301MOL0     C40561   6.777   0.838   2.360  0.2726  0.6883  0.4445
  301MOL0     C40562   6.656   0.817   2.279  0.1242 -0.1959 -0.0500
  301MOL0     C40563   6.620   0.944   2.188  0.0432 -0.4296  0.0995
  301MOL0     C40564   6.739   0.989   2.113 -0.7577 -0.3623 -0.2506
  301MOL0     C40565   6.837   1.019   2.044 -0.4311 -0.1903  0.7433
  301MOL0     C40566   6.803   0.491   2.620  0.1805 -0.4357 -0.3331
  301MOL0     C40567   6.809   0.387   2.706 -0.1467 -0.3093 -0.3162
  301MOL0     H40568   6.967   0.152   3.108 -0.8060  0.4129  1.7191
  301MOL0     H40569   6.973  -0.054   3.237  0.9440 -0.6002  0.2218
  301MOL0     H40570   6.686  -0.407   3.190  0.1777 -0.6562  1.5036
  301MOL0     H40571   6.813  -0.407   3.057  1.5711  0.3081  0.5938
  301MOL0     H40572   6.822  -0.499   3.337  3.3323  1.5332  1.7860
  301MOL0     H40573   6.853  -0.594   3.190 -2.5245 -0.6435  1.3520
  301MOL0     H40574   7.064  -0.470   3.156 -0.0507 -0.9330  0.4442
  301MOL0     H40575   7.032  -0.356   3.278 -1.2718  0.2637 -3.2369
  301MOL0     H40576   7.043  -0.553   3.449 -1.9175  0.8731 -0.7629
  301MOL0     H40577   7.063  -0.673   3.320 -0.4119  1.0465 -0.4916
  301MOL0     H40578   7.262  -0.605   3.239 -2.6881  0.5201 -0.9313
  301MOL0     H40579   7.248  -0.450   3.329 -1.0296  0.1972 -0.4921
  301MOL0     H40580   7.304  -0.541   3.547 -0.7644 -2.2598  1.0432
  301MOL0     H40581   7.274  -0.705   3.500  0.7472 -0.1563  3.3589
  301MOL0     H40582   7.480  -0.720   3.359 -2.5291 -0.8836  0.0831
  301MOL0     H40583   7.498  -0.544   3.391  1.2985 -1.2005  0.7775
  301MOL0     H40584   7.512  -0.596   3.640  1.9203  0.7890 -1.6718
  301MOL0     H40585   7.631  -0.668   3.538  0.4084 -1.1909  0.0599
  301MOL0     H40586   7.662  -0.929   3.545  0.8118 -1.7645  0.1961
  301MOL0     H40587   7.584  -1.180   3.577  2.1165 -0.4955  0.7521
  301MOL0     H40588   7.615  -1.174   3.745  2.9683  5.4089 -0.2099
  301MOL0     H40589   7.338  -1.244   3.640  0.8147 -1.3222 -1.8462
  301MOL0     H40590   7.400  -1.260   3.795  0.0512 -2.0069 -0.4613
  301MOL0     H40591   7.529  -1.415   3.566  1.2843 -0.9818  0.1485
  301MOL0     H40592   7.376  -1.456   3.669 -3.0920  4.2697 -1.4641
  301MOL0     H40593   7.549  -1.467   3.862 -0.6857  0.4339 -0.6621
  301MOL0     H40594   7.674  -1.416   3.754 -1.1416  0.7816  1.9200
  301MOL0     H40595   7.655  -1.850   3.673  0.3115  0.6204 -0.4447
  301MOL0     H40596   7.449  -2.157   3.729  1.3491 -0.9104  2.3161
  301MOL0     H40597   7.571  -2.100   3.621  2.5814 -1.3150  0.3768
  301MOL0     H40598   7.608  -2.103   3.800  1.6645  0.9787 -1.7117
  301MOL0     H40599   7.057  -2.111   4.065 -3.4802 -0.8006  3.6004
  301MOL0     H40600   6.867  -2.215   4.126  3.1635 -0.4721  0.2003
  301MOL0     H40601   6.687  -2.399   4.125 -1.0870 -2.3198  0.0225
  301MOL0     H40602   6.549  -2.419   4.029 -0.8225  0.4284  1.1978
  301MOL0     H40603   6.838  -2.461   3.905 -0.4134 -2.0955 -2.2247
  301MOL0     H40604   6.767  -2.579   4.001  1.8235 -0.0609 -0.9500
  301MOL0     H40605   6.618  -2.446   3.774 -1.5573 -0.7391  0.1930
  301MOL0     H40606   6.575  -2.600   3.847 -1.5310  1.0113  1.4967
  301MOL0     H40607   6.833  -2.526   3.708  3.4555 -0.8782  2.5806
  301MOL0     H40608   6.813  -2.679   3.787  2.4624 -0.3499 -2.9010
  301MOL0     H40609   6.636  -2.736   3.620  1.1195 -1.4631 -0.7379
  301MOL0     H40610   6.795  -2.726   3.553  0.6491  0.2004  1.2822
  301MOL0     H40611   6.591  -2.499   3.514  0.6874  0.7802 -0.7272
  301MOL0     H40612   6.770  -2.480   3.501  1.0247  0.1983 -4.2762
  301MOL0     H40613   6.619  -2.708   3.368 -1.1679  0.5704  1.3162
  301MOL0     H40614   6.792  -2.634   3.334 -0.1166 -1.1273 -0.9725
  301MOL0     H40615   6.649  -2.441   3.259  2.0441 -0.4939 -2.1033
  301MOL0     H40616   6.519  -2.557   3.251 -0.5422  1.1103 -3.3570
  301MOL0     H40617   6.690  -2.110   3.744 -0.1145  2.8769  1.4087
  301MOL0     H40618   6.895  -2.036   3.667 -0.1421  0.3236 -0.0272
  301MOL0     H40619   7.224  -1.774   3.908 -0.0480  0.3947 -0.6682
  301MOL0     H40620   7.359  -1.592   3.871 -0.4609 -0.3978  2.3622
  301MOL0     H40621   6.669  -0.228   2.998 -0.7170  0.1295 -1.3785
  301MOL0     H40622   6.662  -0.043   2.850 -0.3757  0.5840 -0.2961
  301MOL0     H40623   6.491   0.425   2.835  0.7445 -0.8389  0.0392
  301MOL0     H40624   6.491   0.616   2.668  0.6345 -0.6403 -1.5014
  301MOL0     H40625   6.905   0.726   2.503 -0.6373 -0.0127  1.1551
  301MOL0     H40626   6.832   0.639   2.365  2.8984 -3.3706  2.2058
  301MOL0     H40627   6.850   0.860   2.281 -0.7793  1.4260 -0.3481
  301MOL0     H40628   6.761   0.921   2.429  1.1452  0.8048  0.5195
  301MOL0     H40629   6.573   0.808   2.349  0.6463 -0.6009  0.5359
  301MOL0     H40630   6.671   0.743   2.200 -1.0460 -0.0031 -0.4672
  301MOL0     H40631   6.589   1.027   2.252 -1.7576 -0.4625 -0.6959
  301MOL0     H40632   6.532   0.917   2.129  1.3631 -0.4656 -1.9773
  301MOL0     H40633   6.929   1.049   1.997 -1.3431  2.8950  0.7495
  301MOL0     H40634   6.887   0.503   2.553  2.1832  0.1413  2.1240
  301MOL0     H40635   6.893   0.319   2.707  0.8620  0.8801 -1.0634
  302MOL0     O40636   7.161   2.376   8.953 -0.5454  0.1222  0.0001
  302MOL0     C40637   7.155   2.255   8.926  0.3842 -0.0748  0.0496
  302MOL0     O40638   7.197   2.200   8.812  0.3749  0.0011  0.6664
  302MOL0     C40639   7.303   2.259   8.749  0.8231 -1.1227  0.2737
  302MOL0     C40640   7.290   2.366   8.660  0.3068 -0.2610 -1.2571
  302MOL0     C40641   7.400   2.407   8.583 -0.4718  0.9942  0.3601
  302MOL0     C40642   7.525   2.344   8.595  1.2102  0.0892 -0.1559
  302MOL0     O40643   7.635   2.377   8.516  0.2576  0.5298 -0.3098
  302MOL0     C40644   7.679   2.294   8.411 -0.3909  0.6303  1.0510
  302MOL0     C40645   7.700   2.360   8.277  0.1328 -0.4167 -0.2515
  302MOL0     C40646   7.785   2.491   8.287  1.1464 -0.2243  0.1611
  302MOL0     C40647   7.847   2.514   8.149 -0.7189  0.1039  0.3535
  302MOL0     C40648   7.895   2.657   8.127 -1.3329 -0.5472 -0.3682
  302MOL0     C40649   7.954   2.685   7.985  0.2613 -0.0620  0.3071
  302MOL0     C40650   8.078   2.589   7.954  0.1668 -1.1958  0.1064
  302MOL0     C40651   8.163   2.634   7.836  0.6907 -0.4550 -0.4853
  302MOL0     N40652   8.296   2.574   7.830 -0.2091  0.4883  0.7232
  302MOL0     C40653   8.334   2.445   7.795  0.7890  0.5891  0.7505
  302MOL0     C40654   8.456   2.429   7.836  0.6050  0.0403  0.5142
  302MOL0     C40655   8.533   2.303   7.822 -0.5811  0.4459  0.8047
  302MOL0     C40656   8.554   2.238   7.680  0.4950 -0.0187  0.4688
  302MOL0     C40657   8.662   2.310   7.596 -0.3614 -0.5627  0.6991
  302MOL0     C40658   8.730   2.231   7.485 -0.3563 -0.5347 -0.7703
  302MOL0     O40659   8.828   2.311   7.419 -0.0710  0.0571  0.3157
  302MOL0     C40660   8.873   2.269   7.290 -1.0941  0.1501  0.9119
  302MOL0     C40661   8.821   2.161   7.205  0.1906  0.2839 -0.2456
  302MOL0     C40662   8.872   2.139   7.081 -0.0413  0.5948 -0.9046
  302MOL0     C40663   8.826   2.017   7.009 -1.1649 -0.7650  0.8855
  302MOL0     C40664   8.964   2.228   7.024 -1.8003 -0.5810 -0.6753
  302MOL0     C40665   9.023   2.203   6.889  0.1513 -0.2012 -0.0771
  302MOL0     O40666   9.140   2.258   6.873  0.9909 -0.5821  0.0377
  302MOL0     C40667   9.182   2.317   6.753 -0.3613 -0.2029 -0.3148
  302MOL0     C40668   9.128   2.432   6.697  0.2898 -1.5092  0.0131
  302MOL0     C40669   9.195   2.492   6.584 -0.0366 -0.3115 -0.2778
  302MOL0     C40670   9.304   2.441   6.529 -0.0248 -0.8554 -0.7371
  302MOL0     O40671   9.352   2.479   6.404  0.0415 -0.4503 -0.4900
  302MOL0     C40672   9.396   2.379   6.313 -0.5201  0.1811  0.7052
  302MOL0     C40673   9.266   2.307   6.261 -0.5113  0.3768 -0.2013
  302MOL0     C40674   9.153   2.398   6.204  0.1638  0.2571 -0.1458
  302MOL0     C40675   9.065   2.322   6.111  0.1457  0.1512 -0.2872
  302MOL0     C40676   8.969   2.414   6.040  0.1145 -0.1914  0.3343
  302MOL0     C40677   8.904   2.320   5.939  0.4422 -0.4863 -0.3095
  302MOL0     C40678   8.811   2.387   5.839  0.3240  0.9162 -0.4748
  302MOL0     C40679   8.668   2.423   5.894 -0.4235  0.1347  0.4234
  302MOL0    Cl40680   8.547   2.295   5.842 -0.2821  0.2674 -0.4522
  302MOL0     C40681   9.361   2.333   6.594 -0.2415  0.4143  0.4481
  302MOL0     C40682   9.300   2.263   6.699 -0.1286 -0.4337 -0.7091
  302MOL0     O40683   8.965   2.152   6.792  0.1149 -0.3045  0.0177
  302MOL0     C40684   9.002   2.340   7.096  0.3844 -0.4949 -0.4217
  302MOL0     C40685   8.960   2.367   7.231  0.0883 -0.0834  0.1839
  302MOL0     N40686   8.492   2.549   7.900  0.3642 -0.8272  0.6602
  302MOL0     N40687   8.401   2.636   7.889  0.5566  0.0542 -0.2187
  302MOL0     C40688   7.537   2.249   8.696 -0.0792  0.2817  0.2456
  302MOL0     C40689   7.429   2.208   8.775 -0.6000  0.8566  0.2814
  302MOL0     C40690   7.080   2.164   9.023  0.0452  0.7211  0.7430
  302MOL0     C40691   7.055   2.222   9.158  0.2920 -0.3658  0.7517
  302MOL0     C40692   6.998   2.152   9.264 -0.0671 -0.4378 -0.0412
  302MOL0     C40693   6.960   2.020   9.236 -0.1021  0.2850  0.0992
  302MOL0     O40694   6.926   1.941   9.337  0.4050  0.6603  0.3620
  302MOL0     C40695   6.863   1.813   9.318 -0.3502  0.3744  0.9562
  302MOL0     C40696   6.816   1.744   9.446  0.7661  0.3370 -0.0492
  302MOL0     C40697   6.930   1.703   9.537 -0.6180  0.9776  0.0207
  302MOL0     C40698   6.888   1.700   9.681  0.2932 -0.1332 -0.0570
  302MOL0     C40699   6.997   1.711   9.772 -0.6639  0.2168  0.3569
  302MOL0     C40700   7.074   1.725   9.861 -0.0861  0.4561  0.0860
  302MOL0     C40701   6.961   1.974   9.103  0.8732 -0.1684 -0.0561
  302MOL0     C40702   7.007   2.051   8.995 -0.5852  1.3315 -0.2263
  302MOL0     H40703   7.185   2.393   8.648  0.0862 -0.6204 -0.2393
  302MOL0     H40704   7.384   2.481   8.505  0.0613  2.3489  1.5071
  302MOL0     H40705   7.779   2.253   8.429  0.5735  2.0467 -0.7718
  302MOL0     H40706   7.609   2.211   8.398 -0.8726  0.9410  1.6437
  302MOL0     H40707   7.752   2.294   8.206  0.8354 -0.8573  0.6397
  302MOL0     H40708   7.601   2.388   8.241  1.3673  0.8963 -2.9553
  302MOL0     H40709   7.728   2.581   8.313  2.6918  2.1618 -3.7700
  302MOL0     H40710   7.865   2.478   8.360  0.9997  1.7735  0.7405
  302MOL0     H40711   7.929   2.444   8.129 -0.9222  0.5997 -2.8494
  302MOL0     H40712   7.776   2.487   8.070 -0.6009 -0.7114  0.5194
  302MOL0     H40713   7.817   2.727   8.159 -1.4305 -0.4246 -0.8681
  302MOL0     H40714   7.968   2.670   8.207 -1.5798  2.9521 -0.5586
  302MOL0     H40715   7.882   2.667   7.905  2.3517 -2.0545 -1.2731
  302MOL0     H40716   7.989   2.788   7.982 -0.9018  0.3314 -1.2374
  302MOL0     H40717   8.137   2.565   8.043  0.4544 -0.5557  0.0999
  302MOL0     H40718   8.033   2.497   7.917 -0.5691 -0.5244 -0.7209
  302MOL0     H40719   8.179   2.739   7.862 -0.5215 -0.5201  0.6446
  302MOL0     H40720   8.117   2.626   7.737  2.9879 -1.6885 -1.5279
  302MOL0     H40721   8.276   2.373   7.738  1.9670 -1.1694  1.6641
  302MOL0     H40722   8.632   2.322   7.863  2.2049 -4.3870 -2.7033
  302MOL0     H40723   8.475   2.234   7.883 -1.4027  0.9219  0.5808
  302MOL0     H40724   8.471   2.242   7.609  1.0169  1.3784 -0.0996
  302MOL0     H40725   8.580   2.133   7.697  1.8006 -0.3357 -2.7967
  302MOL0     H40726   8.742   2.351   7.658 -0.1956  1.7777 -0.9192
  302MOL0     H40727   8.613   2.404   7.568 -0.6725 -0.1246  2.5320
  302MOL0     H40728   8.658   2.201   7.409 -2.3981  0.0115  0.8489
  302MOL0     H40729   8.775   2.151   7.544 -0.3040  2.0474  3.1084
  302MOL0     H40730   8.749   2.084   7.234 -2.6735  1.9411 -2.3973
  302MOL0     H40731   8.784   1.941   7.075  1.3328 -3.9381 -0.8559
  302MOL0     H40732   8.763   2.038   6.922  2.7671 -0.1184 -2.1293
  302MOL0     H40733   8.918   1.972   6.969 -1.1415 -0.6899  0.8543
  302MOL0     H40734   9.043   2.479   6.745  0.7547  2.7764 -2.8143
  302MOL0     H40735   9.140   2.574   6.539  0.2563 -0.1833 -0.3973
  302MOL0     H40736   9.439   2.419   6.221  3.2612 -1.8313  1.3772
  302MOL0     H40737   9.474   2.310   6.349 -0.2247  0.1987  0.1062
  302MOL0     H40738   9.290   2.231   6.186  0.8999 -1.2210  1.7102
  302MOL0     H40739   9.234   2.249   6.349 -1.2175  1.0069 -0.0380
  302MOL0     H40740   9.189   2.488   6.153 -2.3656  0.3123 -2.0648
  302MOL0     H40741   9.095   2.419   6.294 -2.0063 -3.0840 -0.5690
  302MOL0     H40742   9.126   2.268   6.038 -2.2338 -0.8174 -1.7069
  302MOL0     H40743   9.001   2.252   6.165  0.8357 -3.0335 -3.2035
  302MOL0     H40744   9.026   2.489   5.985  1.8020 -1.6251  0.0679
  302MOL0     H40745   8.897   2.459   6.110 -0.6357  1.8787 -1.6509
  302MOL0     H40746   8.982   2.281   5.874  1.0250  1.9148 -1.1720
  302MOL0     H40747   8.853   2.238   5.989 -0.6220  0.2527 -0.1464
  302MOL0     H40748   8.799   2.315   5.758 -1.0147  0.6186 -0.0483
  302MOL0     H40749   8.850   2.480   5.797  0.4387  0.4655 -1.3753
  302MOL0     H40750   8.646   2.521   5.850 -1.8600 -1.1002 -1.8323
  302MOL0     H40751   8.665   2.450   6.000  0.7722  0.6318  0.3506
  302MOL0     H40752   9.448   2.289   6.546 -1.2698 -1.3084  0.0501
  302MOL0     H40753   9.340   2.172   6.742 -1.2011 -0.8926 -0.6781
  302MOL0     H40754   9.066   2.420   7.061 -1.2193  1.7843  1.5202
  302MOL0     H40755   8.994   2.454   7.286 -1.5745  1.0636 -0.5089
  302MOL0     H40756   7.631   2.200   8.718  0.0668  1.6638  3.2438
  302MOL0     H40757   7.436   2.124   8.843 -1.3064 -1.3619 -2.2146
  302MOL0     H40758   7.092   2.314   9.202 -1.2830 -0.8812  3.3462
  302MOL0     H40759   7.000   2.200   9.361 -0.9241 -2.3408  0.9774
  302MOL0     H40760   6.774   1.813   9.255  0.4778  0.7838 -0.2250
  302MOL0     H40761   6.931   1.747   9.264 -0.5835  1.6144 -0.9254
  302MOL0     H40762   6.746   1.660   9.432  2.3041 -0.9238 -0.3945
  302MOL0     H40763   6.758   1.826   9.491  0.9020  1.7133 -2.2480
  302MOL0     H40764   7.015   1.771   9.532  1.6029 -1.4426  2.1202
  302MOL0     H40765   6.966   1.610   9.492  0.8282  2.2942 -1.7230
  302MOL0     H40766   6.833   1.607   9.697 -2.6209  1.6396  1.2560
  302MOL0     H40767   6.818   1.782   9.702 -0.0611 -0.0137 -1.6088
  302MOL0     H40768   7.146   1.722   9.941  0.1891 -1.4101 -0.1683
  302MOL0     H40769   6.922   1.873   9.093  1.8335 -0.4543 -1.0749
  302MOL0     H40770   7.011   2.008   8.895  0.1197 -1.5952  0.9650
  303MOL0     O40771   5.186   8.934   3.658 -0.0840  0.5679  0.0668
  303MOL0     C40772   5.110   9.028   3.679 -0.0727  0.3671 -0.0720
  303MOL0     O40773   4.998   9.060   3.600 -0.1988  0.3091 -0.0509
  303MOL0     C40774   4.948   8.950   3.527  0.2600  0.1766 -0.3185
  303MOL0     C40775   4.992   8.919   3.396 -0.3256 -0.4985  0.7077
  303MOL0     C40776   4.927   8.819   3.322  0.5800  0.6613  0.4213
  303MOL0     C40777   4.817   8.750   3.372 -0.2500  0.0548 -0.2241
  303MOL0     O40778   4.761   8.645   3.298 -0.0885 -0.6183 -0.3773
  303MOL0     C40779   4.684   8.694   3.183  1.0951 -1.0648  0.3591
  303MOL0     C40780   4.567   8.595   3.157 -0.2888 -0.3319 -0.4415
  303MOL0     C40781   4.445   8.623   3.241  0.9047  0.0191 -0.1242
  303MOL0     C40782   4.334   8.520   3.204  0.1426  1.0591  0.1672
  303MOL0     C40783   4.241   8.492   3.325 -0.0807 -0.4012 -0.9564
  303MOL0     C40784   4.109   8.425   3.292 -0.2175  0.3513 -0.4255
  303MOL0     C40785   4.051   8.388   3.430 -0.3309 -0.8815  0.0899
  303MOL0     C40786   4.015   8.497   3.528 -0.0112  0.0007 -1.0635
  303MOL0     N40787   3.929   8.437   3.634  0.0883  0.3319 -0.0925
  303MOL0     C40788   3.944   8.354   3.740 -0.6064  0.4985 -0.1010
  303MOL0     C40789   3.818   8.335   3.789 -0.8040 -0.2147 -0.8465
  303MOL0     C40790   3.785   8.261   3.913 -0.5435 -0.7634  0.6001
  303MOL0     C40791   3.854   8.331   4.030 -0.4733 -0.4252 -0.0525
  303MOL0     C40792   3.883   8.233   4.136 -0.0301  0.5330  0.3164
  303MOL0     C40793   3.970   8.293   4.245  0.4016 -0.1326  0.0102
  303MOL0     O40794   4.102   8.326   4.204  0.7428 -1.2139  0.0532
  303MOL0     C40795   4.210   8.241   4.208  0.7195 -0.2106  0.7658
  303MOL0     C40796   4.338   8.303   4.208 -0.2137  0.6111  0.6067
  303MOL0     C40797   4.458   8.234   4.215  0.3093  0.6951 -0.0948
  303MOL0     C40798   4.599   8.305   4.221  0.5824  0.3226  0.1567
  303MOL0     C40799   4.444   8.090   4.219 -0.5074 -0.2263 -0.8918
  303MOL0     C40800   4.567   8.001   4.201  0.9329  0.3529 -0.2450
  303MOL0     O40801   4.551   7.877   4.268 -0.4435 -0.3638  0.1714
  303MOL0     C40802   4.661   7.794   4.295 -0.2140  0.6794  0.4222
  303MOL0     C40803   4.690   7.754   4.427 -0.1489 -0.0919 -0.6705
  303MOL0     C40804   4.792   7.654   4.448 -0.3245  0.2843  0.3007
  303MOL0     C40805   4.861   7.599   4.344  0.7008 -0.0098  0.1062
  303MOL0     O40806   4.962   7.513   4.356  0.1074  0.1120  0.1630
  303MOL0     C40807   4.989   7.445   4.481 -0.4016  0.3555 -0.0939
  303MOL0     C40808   4.909   7.327   4.510  0.7598  0.0947  0.7592
  303MOL0     C40809   4.916   7.214   4.415 -1.1269  0.4956 -0.2531
  303MOL0     C40810   4.827   7.097   4.470 -0.5033  0.5308  0.7775
  303MOL0     C40811   4.765   7.034   4.351 -0.4087 -0.0040 -0.3526
  303MOL0     C40812   4.683   6.908   4.382 -0.0203  0.4794  0.4420
  303MOL0     C40813   4.595   6.929   4.496 -0.4707 -1.3814  0.0740
  303MOL0     C40814   4.501   6.807   4.507 -0.1442 -0.4119 -0.7892
  303MOL0    Cl40815   4.401   6.806   4.652  0.2608 -0.0879 -0.4050
  303MOL0     C40816   4.847   7.647   4.220  0.0958 -0.4260  0.2520
  303MOL0     C40817   4.748   7.738   4.187  0.6916 -0.6594 -1.0529
  303MOL0     O40818   4.661   8.041   4.131  0.0322  0.0777 -0.6888
  303MOL0     C40819   4.319   8.034   4.234  0.3006 -0.0984  0.1892
  303MOL0     C40820   4.201   8.108   4.227  0.6276  0.1002 -0.5798
  303MOL0     N40821   3.733   8.410   3.719 -0.1687 -0.3778 -0.1732
  303MOL0     N40822   3.798   8.472   3.627 -0.1283 -0.3766 -1.4162
  303MOL0     C40823   4.778   8.773   3.504  0.4257  0.7620  0.1851
  303MOL0     C40824   4.834   8.877   3.567  0.2073  0.4525 -0.2886
  303MOL0     C40825   5.147   9.133   3.779 -0.7758 -0.4890  0.0455
  303MOL0     C40826   5.058   9.226   3.824 -1.0162 -0.3744  0.3211
  303MOL0     C40827   5.087   9.320   3.920 -0.2839 -0.1485 -0.0844
  303MOL0     C40828   5.208   9.317   3.980  0.4617  0.0673 -0.0704
  303MOL0     O40829   5.231   9.412   4.079  0.6687 -0.1171  0.3180
  303MOL0     C40830   5.348   9.399   4.152 -0.2130  0.3380  0.5243
  303MOL0     C40831   5.469   9.498   4.095  0.4965 -0.5012 -0.1761
  303MOL0     C40832   5.443   9.642   4.141  0.0701 -0.7870 -0.2356
  303MOL0     C40833   5.554   9.745   4.101  0.4373 -0.3759  0.2123
  303MOL0     C40834   5.677   9.708   4.167 -0.4134 -0.0461 -0.4451
  303MOL0     C40835   5.767   9.679   4.241  0.1875  0.7060  0.6230
  303MOL0     C40836   5.304   9.226   3.938 -0.5844 -0.4279  0.0017
  303MOL0     C40837   5.281   9.134   3.837 -0.2596 -0.2892 -0.2064
  303MOL0     H40838   5.073   8.965   3.341 -0.1886 -1.7592 -0.1793
  303MOL0     H40839   4.952   8.806   3.217 -0.1194  2.2083  0.0261
  303MOL0     H40840   4.628   8.788   3.195 -0.9859 -2.1472 -0.3428
  303MOL0     H40841   4.739   8.696   3.088 -1.3570  0.7772 -1.1638
  303MOL0     H40842   4.543   8.603   3.050 -0.1257  0.9978 -0.3863
  303MOL0     H40843   4.603   8.493   3.174  1.7065  0.6966  2.1956
  303MOL0     H40844   4.473   8.625   3.347  0.4502  0.8593 -0.0141
  303MOL0     H40845   4.406   8.721   3.214 -0.3708 -0.0298  1.4189
  303MOL0     H40846   4.269   8.565   3.128  0.1707 -2.7104 -2.3711
  303MOL0     H40847   4.369   8.426   3.160 -0.8155  0.1130  1.3766
  303MOL0     H40848   4.297   8.429   3.394  3.0027  2.3734 -0.6794
  303MOL0     H40849   4.229   8.586   3.379 -0.5993 -1.0759  0.1564
  303MOL0     H40850   4.043   8.491   3.236 -2.2330 -2.0261 -1.0277
  303MOL0     H40851   4.128   8.333   3.237  0.5097  0.5102 -0.4595
  303MOL0     H40852   3.960   8.332   3.409 -0.4926  0.3696 -3.3258
  303MOL0     H40853   4.122   8.322   3.480  2.5653  1.5890 -0.4481
  303MOL0     H40854   3.969   8.578   3.471 -1.0135  1.7217  1.9706
  303MOL0     H40855   4.107   8.541   3.567 -1.3486  1.7592  0.2376
  303MOL0     H40856   4.039   8.315   3.775 -0.5123  1.4104  0.6944
  303MOL0     H40857   3.678   8.255   3.934 -1.7691  0.8088 -3.8865
  303MOL0     H40858   3.826   8.161   3.894  2.0881  0.5450 -1.3608
  303MOL0     H40859   3.795   8.417   4.063  0.7572  0.6443 -0.5624
  303MOL0     H40860   3.948   8.375   3.998 -1.9057  1.9360 -1.3112
  303MOL0     H40861   3.926   8.137   4.105 -1.0696  0.2237 -0.2074
  303MOL0     H40862   3.785   8.206   4.176 -0.0459  1.0649  0.6415
  303MOL0     H40863   3.960   8.221   4.326  0.3271 -0.1680 -0.0307
  303MOL0     H40864   3.920   8.387   4.272 -2.0897 -1.4022  0.1124
  303MOL0     H40865   4.340   8.411   4.199 -0.8019  1.0334  4.1674
  303MOL0     H40866   4.591   8.401   4.273 -0.7001  1.5775 -2.1802
  303MOL0     H40867   4.671   8.247   4.280 -0.2215  1.1583  2.0419
  303MOL0     H40868   4.635   8.317   4.119 -0.7857 -4.1049 -1.0899
  303MOL0     H40869   4.639   7.802   4.509  2.3344  1.7757 -0.1003
  303MOL0     H40870   4.802   7.623   4.552 -2.4778 -4.3643 -0.6179
  303MOL0     H40871   5.089   7.400   4.476 -0.7426 -0.3684 -4.1232
  303MOL0     H40872   4.986   7.513   4.566 -0.9785 -0.1952  0.3359
  303MOL0     H40873   4.925   7.290   4.611 -2.3780  0.4997  1.5122
  303MOL0     H40874   4.803   7.356   4.509 -0.1291 -2.7310 -1.3305
  303MOL0     H40875   5.020   7.183   4.398 -1.9683 -3.7541  1.1745
  303MOL0     H40876   4.875   7.259   4.324  2.5977  0.9752 -1.8870
  303MOL0     H40877   4.890   7.021   4.518  0.3679 -0.9373 -2.4370
  303MOL0     H40878   4.749   7.137   4.536 -1.1293  0.8266 -0.1281
  303MOL0     H40879   4.843   6.995   4.285  1.5063 -3.8192  3.6171
  303MOL0     H40880   4.695   7.101   4.300  1.3019  0.9016 -1.6269
  303MOL0     H40881   4.626   6.883   4.293 -1.4082  2.9977  0.5425
  303MOL0     H40882   4.755   6.829   4.406 -1.1972 -1.1173 -1.1249
  303MOL0     H40883   4.534   7.017   4.472  1.7728 -0.0935 -1.2069
  303MOL0     H40884   4.647   6.953   4.589 -1.4376 -0.4992  0.4113
  303MOL0     H40885   4.569   6.722   4.516  2.3321  1.3185 -2.0792
  303MOL0     H40886   4.430   6.787   4.426 -1.8274  2.3463 -0.1361
  303MOL0     H40887   4.903   7.597   4.142 -0.8893 -0.0071 -0.7349
  303MOL0     H40888   4.715   7.769   4.089 -0.1497  0.0464 -0.5693
  303MOL0     H40889   4.301   7.927   4.234  0.1237 -0.0987  2.2121
  303MOL0     H40890   4.112   8.046   4.236  0.8423  0.1285  4.2017
  303MOL0     H40891   4.707   8.702   3.546  2.8051 -1.9367 -0.0193
  303MOL0     H40892   4.798   8.909   3.664  0.3349 -0.9207  0.2177
  303MOL0     H40893   4.952   9.221   3.799 -1.3506  0.7826  1.3779
  303MOL0     H40894   5.013   9.400   3.929  0.7636  0.6731  1.9210
  303MOL0     H40895   5.333   9.430   4.256 -0.2611 -3.6941  1.8955
  303MOL0     H40896   5.371   9.294   4.170  0.8452  1.0216  3.8322
  303MOL0     H40897   5.473   9.480   3.987 -2.3544 -1.1122 -0.2547
  303MOL0     H40898   5.569   9.466   4.123  1.1385 -2.4439 -4.0643
  303MOL0     H40899   5.428   9.637   4.249  0.8321 -3.4193 -0.1946
  303MOL0     H40900   5.347   9.676   4.101  0.1787 -2.6179 -2.2725
  303MOL0     H40901   5.517   9.845   4.125 -1.1493 -1.1835  1.3775
  303MOL0     H40902   5.570   9.747   3.993  0.5009  2.3818  0.2101
  303MOL0     H40903   5.840   9.652   4.314 -1.7575 -1.2077  1.9772
  303MOL0     H40904   5.406   9.227   3.976  0.3425  1.8886 -2.2855
  303MOL0     H40905   5.357   9.069   3.796  0.7528  0.1491  0.9147
  304MOL0     O40906   3.911  11.185   5.826 -0.0759 -0.2794  0.5035
  304MOL0     C40907   3.959  11.075   5.846  0.0690  0.2162 -0.5082
  304MOL0     O40908   4.011  10.992   5.757 -0.2999  0.0708 -0.5556
  304MOL0     C40909   3.926  10.930   5.674 -0.0451 -0.0510 -0.7250
  304MOL0     C40910   3.779  10.950   5.682 -0.8440  0.4567 -0.4148
  304MOL0     C40911   3.702  10.869   5.595 -0.9217  0.0247 -0.2687
  304MOL0     C40912   3.758  10.789   5.495 -0.5095  0.8157  0.9668
  304MOL0     O40913   3.675  10.715   5.405 -1.3653 -0.2249 -0.0784
  304MOL0     C40914   3.560  10.639   5.445  0.4820  0.6721  0.2856
  304MOL0     C40915   3.601  10.492   5.462  0.8759  0.6854 -0.3596
  304MOL0     C40916   3.495  10.391   5.514 -0.2036  0.2292 -0.3244
  304MOL0     C40917   3.444  10.423   5.657 -0.4797 -0.2481  0.2383
  304MOL0     C40918   3.394  10.303   5.732 -0.9471 -0.0595 -0.3859
  304MOL0     C40919   3.372  10.338   5.878 -0.2974 -0.6197 -0.0599
  304MOL0     C40920   3.376  10.213   5.967  0.2474 -0.4067  0.8870
  304MOL0     C40921   3.244  10.142   5.967 -0.4288  0.5857  0.0694
  304MOL0     N40922   3.245  10.028   6.059 -0.3270  0.5929  0.1006
  304MOL0     C40923   3.354   9.961   6.115 -0.6328  0.0452  0.5949
  304MOL0     C40924   3.304   9.883   6.214 -0.4428 -0.5900 -0.7331
  304MOL0     C40925   3.377   9.795   6.312 -0.6628 -0.0884  0.4274
  304MOL0     C40926   3.441   9.666   6.249  0.9444  0.7234  0.3203
  304MOL0     C40927   3.341   9.570   6.200  0.0402  0.8506  0.6328
  304MOL0     C40928   3.256   9.505   6.301  0.9869  0.5815 -0.5685
  304MOL0     O40929   3.326   9.442   6.418 -0.4899  0.4133 -0.1631
  304MOL0     C40930   3.251   9.377   6.513 -0.0569 -0.0558 -0.3645
  304MOL0     C40931   3.287   9.251   6.549  0.4721  0.3816 -0.4616
  304MOL0     C40932   3.212   9.192   6.657 -0.3039  0.3990  0.5015
  304MOL0     C40933   3.258   9.041   6.691  0.1799 -1.0037  0.2611
  304MOL0     C40934   3.106   9.263   6.718  0.1064  0.6739 -1.1201
  304MOL0     C40935   3.024   9.201   6.824 -0.0269  0.0424 -0.2604
  304MOL0     O40936   2.978   9.270   6.930 -0.4016 -0.6396 -0.3307
  304MOL0     C40937   2.899   9.215   7.026  0.0010 -0.0604 -0.0575
  304MOL0     C40938   2.768   9.183   6.984  0.8934 -0.6857  1.0940
  304MOL0     C40939   2.673   9.146   7.086 -0.5339  0.1763  0.7360
  304MOL0     C40940   2.711   9.157   7.217  0.0183 -0.3272  0.4337
  304MOL0     O40941   2.622   9.128   7.320  0.6437 -0.6483 -0.8997
  304MOL0     C40942   2.567   8.999   7.322 -0.1411 -0.4421  0.3127
  304MOL0     C40943   2.448   8.993   7.421 -0.1848 -0.0548  0.4932
  304MOL0     C40944   2.505   8.997   7.576 -0.3376  0.7662 -0.4725
  304MOL0     C40945   2.392   9.013   7.682 -0.3493  0.0540  0.4743
  304MOL0     C40946   2.462   9.055   7.813  0.5384 -0.3723  0.4116
  304MOL0     C40947   2.598   9.019   7.859  0.1297 -0.7205 -0.1918
  304MOL0     C40948   2.645   9.132   7.950 -0.1450 -0.0763 -0.3069
  304MOL0     C40949   2.795   9.103   7.980  0.4197  0.7599 -0.2613
  304MOL0    Cl40950   2.860   9.197   8.125  0.1968  0.3078  0.4060
  304MOL0     C40951   2.833   9.206   7.254 -0.4565 -0.7280  0.1143
  304MOL0     C40952   2.935   9.229   7.156  0.7373  0.5008  0.3423
  304MOL0     O40953   2.986   9.089   6.790 -0.2340 -0.6965  0.6194
  304MOL0     C40954   3.083   9.399   6.683 -1.0001  0.8113  0.6539
  304MOL0     C40955   3.152   9.456   6.573 -0.3581 -0.2655  0.1903
  304MOL0     N40956   3.168   9.893   6.210 -0.0430  0.0679 -0.0460
  304MOL0     N40957   3.133   9.984   6.122 -0.5954 -0.3545 -0.3268
  304MOL0     C40958   3.889  10.774   5.490 -0.7353  0.5101 -0.2917
  304MOL0     C40959   3.972  10.843   5.584 -0.4148  0.4927 -0.4562
  304MOL0     C40960   3.964  11.039   5.993  0.2409  0.3680  0.0716
  304MOL0     C40961   4.015  10.917   6.042 -0.2047 -0.0944 -0.6098
  304MOL0     C40962   4.000  10.894   6.175 -1.8147 -1.1562  0.0104
  304MOL0     C40963   3.947  10.980   6.272 -0.6286  0.9424 -0.5500
  304MOL0     O40964   3.934  10.933   6.402  0.4861 -0.4470 -0.4209
  304MOL0     C40965   3.954  11.032   6.505  0.8281 -0.3892 -0.4951
  304MOL0     C40966   4.020  10.961   6.620 -0.2679 -0.0664  0.5439
  304MOL0     C40967   4.032  11.058   6.747  0.1579  0.8052 -0.6802
  304MOL0     C40968   3.894  11.060   6.834  0.0261 -0.8027 -0.4681
  304MOL0     C40969   3.924  11.114   6.967  0.0136  0.2988  0.1005
  304MOL0     C40970   3.942  11.148   7.081 -0.8518  0.4881  0.2970
  304MOL0     C40971   3.891  11.093   6.221  0.8071  0.2858  0.4967
  304MOL0     C40972   3.902  11.129   6.082  0.1727 -0.0591  0.0888
  304MOL0     H40973   3.736  11.027   5.746  1.0309  1.0036  0.2685
  304MOL0     H40974   3.596  10.873   5.619 -0.9657  1.1988 -0.6141
  304MOL0     H40975   3.525  10.662   5.546  1.7832 -3.3318  1.8115
  304MOL0     H40976   3.474  10.652   5.378 -0.4011  1.1696  1.4700
  304MOL0     H40977   3.638  10.458   5.365  0.0760 -0.2741 -0.3509
  304MOL0     H40978   3.686  10.480   5.529  0.4858  1.6866  0.3462
  304MOL0     H40979   3.421  10.373   5.436  2.9766 -2.5417 -3.0002
  304MOL0     H40980   3.537  10.292   5.534 -1.9963 -0.2866  1.2558
  304MOL0     H40981   3.523  10.477   5.711 -1.9341  1.4033  0.7998
  304MOL0     H40982   3.365  10.497   5.645 -1.0523 -0.9355 -0.3039
  304MOL0     H40983   3.308  10.259   5.683 -0.5689 -0.3617 -0.7835
  304MOL0     H40984   3.461  10.217   5.723 -0.3621  0.3616 -0.1747
  304MOL0     H40985   3.452  10.411   5.895  0.6874 -1.0297 -2.4367
  304MOL0     H40986   3.277  10.392   5.891  1.9201  3.3209  1.7436
  304MOL0     H40987   3.454  10.148   5.926 -0.5881  0.6825 -2.7947
  304MOL0     H40988   3.406  10.245   6.066  1.3162 -0.1364  0.4861
  304MOL0     H40989   3.218  10.107   5.867 -2.4512 -0.0672  0.7545
  304MOL0     H40990   3.166  10.212   5.998 -0.4098  0.6927 -0.1281
  304MOL0     H40991   3.460   9.985   6.106 -0.1569 -1.6776  1.2734
  304MOL0     H40992   3.454   9.853   6.364 -0.5533  0.7335 -0.6274
  304MOL0     H40993   3.306   9.758   6.387 -3.2539  0.9084 -1.4043
  304MOL0     H40994   3.486   9.613   6.334 -2.3240  3.1827  3.9216
  304MOL0     H40995   3.517   9.695   6.176  2.1282 -2.7954 -0.0380
  304MOL0     H40996   3.398   9.488   6.155  0.9014  1.5288  0.4500
  304MOL0     H40997   3.294   9.615   6.112  1.9317  4.5397  1.3090
  304MOL0     H40998   3.200   9.429   6.246  2.3420 -0.3357 -0.7248
  304MOL0     H40999   3.189   9.585   6.333  0.7179  1.9160 -4.1014
  304MOL0     H41000   3.379   9.214   6.504  0.4967  0.8076 -0.7698
  304MOL0     H41001   3.365   9.030   6.672 -0.0723  0.3346 -2.3976
  304MOL0     H41002   3.244   9.021   6.798  0.8068 -0.2431  0.4888
  304MOL0     H41003   3.195   8.977   6.629 -2.9313  0.6959  1.4215
  304MOL0     H41004   2.743   9.179   6.878  2.7876 -3.1611  0.6428
  304MOL0     H41005   2.584   9.096   7.049  2.1945 -2.8444 -2.5190
  304MOL0     H41006   2.549   8.964   7.221 -0.8940 -0.4298  0.4405
  304MOL0     H41007   2.649   8.945   7.370 -1.4290 -1.5419  1.3620
  304MOL0     H41008   2.378   9.073   7.393  1.9367  1.2597 -1.4041
  304MOL0     H41009   2.406   8.895   7.398  0.1596 -0.3513  1.1013
  304MOL0     H41010   2.575   9.079   7.589 -0.1125  0.5871 -0.5373
  304MOL0     H41011   2.559   8.903   7.594  0.4099  0.8917 -1.8646
  304MOL0     H41012   2.327   9.093   7.645  0.5051 -0.7628 -3.2655
  304MOL0     H41013   2.341   8.918   7.700 -0.8997  0.3188  0.3589
  304MOL0     H41014   2.383   9.040   7.886  0.3794  0.7953  0.4860
  304MOL0     H41015   2.473   9.163   7.801  4.6017 -0.5781  0.7645
  304MOL0     H41016   2.574   8.927   7.913 -2.7480 -1.4012 -2.3814
  304MOL0     H41017   2.665   9.013   7.772  3.3384  2.2132  1.8125
  304MOL0     H41018   2.588   9.138   8.043 -3.0854  2.2768 -2.0990
  304MOL0     H41019   2.638   9.232   7.907  2.7805  1.7500  2.9208
  304MOL0     H41020   2.865   9.121   7.898 -0.1663  2.5312 -0.4102
  304MOL0     H41021   2.801   8.998   8.011 -2.2488  0.5433 -0.2302
  304MOL0     H41022   2.849   9.226   7.359 -1.7071  0.6870  0.0657
  304MOL0     H41023   3.034   9.271   7.171  1.0057  0.5559 -1.3450
  304MOL0     H41024   3.002   9.454   6.730 -0.7141  0.0510  2.0788
  304MOL0     H41025   3.133   9.557   6.537  3.3705  0.2252 -0.8059
  304MOL0     H41026   3.936  10.705   5.420 -0.0964 -0.8829  1.4258
  304MOL0     H41027   4.078  10.824   5.569 -0.3785 -0.7470  1.1638
  304MOL0     H41028   4.075  10.845   5.987 -0.0712  0.7221 -1.5601
  304MOL0     H41029   4.060  10.813   6.215 -2.7882 -0.9234  2.0946
  304MOL0     H41030   4.011  11.123   6.482 -0.0557  0.4491  0.4990
  304MOL0     H41031   3.861  11.078   6.540  0.5168 -2.1261  1.0998
  304MOL0     H41032   4.121  10.938   6.588  0.0575  0.6795  1.0088
  304MOL0     H41033   3.968  10.868   6.646 -0.2234 -0.5162 -0.8809
  304MOL0     H41034   4.054  11.158   6.708  1.1226  0.3002 -1.4819
  304MOL0     H41035   4.115  11.023   6.808 -1.0883  1.5455  1.5402
  304MOL0     H41036   3.849  10.962   6.855 -0.5720 -0.5594 -0.5921
  304MOL0     H41037   3.823  11.128   6.785  0.0878  0.0336  0.5702
  304MOL0     H41038   3.976  11.170   7.180 -0.6656  0.9399  0.1334
  304MOL0     H41039   3.824  11.159   6.276  0.7735 -1.7272  3.0671
  304MOL0     H41040   3.858  11.219   6.041  0.6328 -1.7409 -4.8823
  305MOL0     O41041   8.901   7.921  11.355 -0.0988 -1.1048  0.2140
  305MOL0     C41042   8.787   7.871  11.373 -0.5391  0.1284 -0.3443
  305MOL0     O41043   8.687   7.863  11.290  0.1741 -0.0592  0.1613
  305MOL0     C41044   8.703   7.919  11.160  0.8229  0.1124  0.4388
  305MOL0     C41045   8.680   7.831  11.046 -0.4917 -1.1007 -0.2438
  305MOL0     C41046   8.695   7.885  10.919 -0.3939  0.1640 -0.5221
  305MOL0     C41047   8.708   8.018  10.894 -0.4173 -1.5385 -0.2963
  305MOL0     O41048   8.702   8.065  10.763  0.0977  0.1241 -0.3687
  305MOL0     C41049   8.686   8.204  10.749  0.4376 -0.4232 -0.0710
  305MOL0     C41050   8.661   8.258  10.606 -0.3120 -1.0862 -0.7372
  305MOL0     C41051   8.782   8.218  10.500  0.2713 -0.7390 -0.5849
  305MOL0     C41052   8.761   8.280  10.369 -0.2880  0.5694 -1.0647
  305MOL0     C41053   8.881   8.303  10.280  0.6130 -0.3059 -0.8507
  305MOL0     C41054   8.950   8.162  10.270 -0.6590  0.3512 -0.5662
  305MOL0     C41055   9.075   8.165  10.175  0.0399 -0.5158 -0.2136
  305MOL0     C41056   9.122   8.022  10.170 -0.2142  0.7246 -0.3483
  305MOL0     N41057   9.239   7.997  10.088 -0.0700  0.0549 -0.5153
  305MOL0     C41058   9.224   7.943   9.966  0.5003  0.0467  0.1840
  305MOL0     C41059   9.344   7.928   9.921 -0.2926  0.3930 -0.4607
  305MOL0     C41060   9.410   7.884   9.793  0.3450 -0.0311  0.7798
  305MOL0     C41061   9.375   7.737   9.752 -1.2708 -0.1363  0.7131
  305MOL0     C41062   9.462   7.631   9.811 -0.1079  0.0356  0.1583
  305MOL0     C41063   9.449   7.500   9.737  0.8694 -0.0906  1.4642
  305MOL0     O41064   9.503   7.399   9.824  0.1533 -0.2741 -0.1109
  305MOL0     C41065   9.592   7.317   9.769  0.3720 -0.3371  0.8945
  305MOL0     C41066   9.705   7.366   9.710  0.0915 -0.4406  0.1003
  305MOL0     C41067   9.802   7.285   9.655  0.1366 -0.8461 -0.3678
  305MOL0     C41068   9.911   7.366   9.587 -0.2381  1.0236  0.1602
  305MOL0     C41069   9.788   7.143   9.663 -0.7459 -0.2445 -0.5833
  305MOL0     C41070   9.886   7.050   9.613 -0.1506  0.5322 -0.2191
  305MOL0     O41071   9.853   6.914   9.602 -0.1500  0.0843 -0.6203
  305MOL0     C41072   9.947   6.829   9.576 -0.0173  0.9936  0.1136
  305MOL0     C41073   9.925   6.752   9.468  0.6153  0.2873  0.5299
  305MOL0     C41074  10.026   6.669   9.424  0.4098 -0.2924 -0.0028
  305MOL0     C41075  10.136   6.642   9.505  0.1866 -0.0021  0.7375
  305MOL0     O41076  10.217   6.546   9.456  0.1605 -0.1409  0.1650
  305MOL0     C41077  10.351   6.556   9.486  0.3416 -0.6332  0.4403
  305MOL0     C41078  10.411   6.698   9.460  0.4595  0.1201  0.0389
  305MOL0     C41079  10.560   6.689   9.448 -0.4135 -0.1904 -0.7257
  305MOL0     C41080  10.632   6.640   9.581  0.1987 -0.9129 -0.7416
  305MOL0     C41081  10.779   6.620   9.538  0.0527  0.8823 -0.4462
  305MOL0     C41082  10.805   6.474   9.473  0.2752 -0.1948 -0.3051
  305MOL0     C41083  10.943   6.466   9.407 -1.6258 -0.2937 -0.3722
  305MOL0     C41084  10.932   6.378   9.283  0.1699  0.3938  0.2024
  305MOL0    Cl41085  10.808   6.439   9.162  0.3493 -0.3914 -0.3618
  305MOL0     C41086  10.149   6.708   9.628 -0.6232  0.0499  0.1346
  305MOL0     C41087  10.062   6.808   9.668  0.4112  0.0394  0.0225
  305MOL0     O41088   9.997   7.092   9.577 -0.0440 -0.2475 -1.1131
  305MOL0     C41089   9.668   7.099   9.723  0.7626  0.2274 -0.1434
  305MOL0     C41090   9.566   7.178   9.773 -0.6875 -0.8025  0.2923
  305MOL0     N41091   9.433   7.955  10.030 -0.2064 -0.3629 -0.0459
  305MOL0     N41092   9.369   7.998  10.131 -0.1744  0.2518 -0.2677
  305MOL0     C41093   8.726   8.104  11.012  0.0565  1.3711 -0.1360
  305MOL0     C41094   8.725   8.054  11.141 -1.3625  0.3722  0.0371
  305MOL0     C41095   8.767   7.817  11.510 -0.0491  0.5423 -0.4108
  305MOL0     C41096   8.679   7.705  11.536  0.2482  0.9144  0.1738
  305MOL0     C41097   8.670   7.648  11.664 -0.5436 -0.3573 -1.1327
  305MOL0     C41098   8.749   7.696  11.769  0.5353  0.4324  0.1924
  305MOL0     O41099   8.752   7.617  11.883 -0.2592  1.0104  0.1860
  305MOL0     C41100   8.816   7.682  11.996 -0.3938 -0.1930  0.5948
  305MOL0     C41101   8.781   7.606  12.127 -0.1666  0.0483 -1.3198
  305MOL0     C41102   8.629   7.578  12.143  0.5285  0.0447 -0.4213
  305MOL0     C41103   8.575   7.443  12.100  0.6086  0.6669  0.8098
  305MOL0     C41104   8.634   7.329  12.159  0.0535  0.0281  0.4544
  305MOL0     C41105   8.693   7.222  12.182  0.8945 -0.0950  0.0732
  305MOL0     C41106   8.835   7.807  11.741 -0.0784 -0.6481  0.2096
  305MOL0     C41107   8.840   7.869  11.618 -0.3610  0.1467  0.1311
  305MOL0     H41108   8.654   7.728  11.066 -0.6983 -0.7366  1.5744
  305MOL0     H41109   8.661   7.830  10.833 -2.1846  1.2278 -0.5344
  305MOL0     H41110   8.594   8.228  10.804  0.5232  0.9344 -0.4997
  305MOL0     H41111   8.773   8.257  10.788 -1.3440  0.9457  2.3122
  305MOL0     H41112   8.563   8.225  10.569 -1.4986  0.6699  0.6245
  305MOL0     H41113   8.655   8.367  10.615  1.5093 -0.8898 -1.4934
  305MOL0     H41114   8.875   8.255  10.544  0.0061 -1.5081  0.6688
  305MOL0     H41115   8.792   8.109  10.506 -0.3410 -0.7900 -0.4995
  305MOL0     H41116   8.685   8.220  10.319 -0.1830  0.0621 -0.6222
  305MOL0     H41117   8.719   8.381  10.379  1.7331  1.4281 -0.9047
  305MOL0     H41118   8.850   8.327  10.178 -2.0335  1.6504  0.2890
  305MOL0     H41119   8.946   8.387  10.308 -0.0076  1.0773 -3.2488
  305MOL0     H41120   8.980   8.122  10.367 -0.5308 -1.5781 -1.3554
  305MOL0     H41121   8.883   8.084  10.231 -3.1201  1.5889  0.9395
  305MOL0     H41122   9.058   8.204  10.074  0.2635  1.3771  0.4523
  305MOL0     H41123   9.149   8.230  10.222 -0.5430 -0.0330  0.0436
  305MOL0     H41124   9.045   7.954  10.132 -0.8224  0.1483  1.7752
  305MOL0     H41125   9.156   8.006  10.272 -0.3267 -0.0501 -0.4253
  305MOL0     H41126   9.131   7.934   9.910 -1.1301  0.3030  2.7069
  305MOL0     H41127   9.379   7.946   9.709 -1.6321 -2.6428 -0.5383
  305MOL0     H41128   9.519   7.886   9.807  0.3229 -2.0608  1.5530
  305MOL0     H41129   9.382   7.736   9.642  1.1647 -0.9749  0.8057
  305MOL0     H41130   9.270   7.712   9.772 -2.0690  2.0320 -0.4409
  305MOL0     H41131   9.429   7.607   9.912  1.8593 -1.8614  0.4278
  305MOL0     H41132   9.567   7.663   9.813 -0.1475  0.3267 -1.2571
  305MOL0     H41133   9.507   7.500   9.644 -0.7720  0.8955  0.3928
  305MOL0     H41134   9.350   7.473   9.699  0.2127  1.3805  2.0691
  305MOL0     H41135   9.718   7.474   9.714 -2.2688 -0.0963 -0.2563
  305MOL0     H41136   9.898   7.473   9.607  2.1229  0.8427  3.5921
  305MOL0     H41137  10.010   7.351   9.631 -0.6844  0.8100  1.1013
  305MOL0     H41138   9.908   7.353   9.478  1.1664 -1.1743  0.3162
  305MOL0     H41139   9.837   6.752   9.406  0.3156 -0.4006  0.9473
  305MOL0     H41140  10.000   6.623   9.329 -1.1522  3.6087 -1.7175
  305MOL0     H41141  10.363   6.542   9.594 -0.5303 -1.0728  0.4870
  305MOL0     H41142  10.411   6.477   9.440  0.2376 -1.2998  1.4231
  305MOL0     H41143  10.372   6.729   9.362 -2.9756  2.2704  1.8869
  305MOL0     H41144  10.384   6.774   9.534  0.4227  0.6506 -0.5088
  305MOL0     H41145  10.606   6.786   9.430  0.7466 -1.2336 -4.0980
  305MOL0     H41146  10.590   6.632   9.359 -1.2706 -2.6350  0.4512
  305MOL0     H41147  10.620   6.721   9.654  3.7079 -1.2597  0.3937
  305MOL0     H41148  10.589   6.551   9.629 -1.9050  0.7559  0.6678
  305MOL0     H41149  10.846   6.644   9.621  0.9852  1.8725 -1.4377
  305MOL0     H41150  10.803   6.699   9.466  1.6175  2.5766  1.8119
  305MOL0     H41151  10.807   6.401   9.555  2.5181  1.8109  1.5786
  305MOL0     H41152  10.731   6.437   9.401  2.3656  0.6940 -3.1158
  305MOL0     H41153  10.995   6.417   9.490 -1.4734  1.4368  0.5957
  305MOL0     H41154  10.991   6.559   9.375 -2.9445  1.2457  1.8354
  305MOL0     H41155  10.890   6.280   9.307 -3.7815  2.4567  2.7665
  305MOL0     H41156  11.030   6.360   9.239 -0.9568 -2.5073 -1.4097
  305MOL0     H41157  10.232   6.690   9.695 -0.7029  1.6719  0.7243
  305MOL0     H41158  10.077   6.877   9.751  0.5045 -2.3830  2.1373
  305MOL0     H41159   9.646   6.994   9.703 -1.7824  0.9925 -1.8488
  305MOL0     H41160   9.466   7.145   9.800 -0.9779 -0.8524 -0.8166
  305MOL0     H41161   8.738   8.211  11.010  3.1097  1.2678  2.8665
  305MOL0     H41162   8.744   8.116  11.228  0.7505  2.1799 -1.5994
  305MOL0     H41163   8.616   7.661  11.459 -0.9589  1.5186  0.7789
  305MOL0     H41164   8.616   7.556  11.680  0.7104 -1.0266 -0.5907
  305MOL0     H41165   8.924   7.699  12.003 -0.3010 -0.4049 -0.2594
  305MOL0     H41166   8.781   7.785  11.991 -2.0094 -0.7961 -1.3643
  305MOL0     H41167   8.810   7.662  12.216  0.3664  0.5981 -1.8275
  305MOL0     H41168   8.823   7.506  12.134 -2.5616 -1.0783 -2.0840
  305MOL0     H41169   8.573   7.661  12.099  2.0118  1.8469  0.9225
  305MOL0     H41170   8.611   7.584  12.251  4.2296 -1.2991  0.4125
  305MOL0     H41171   8.582   7.434  11.991  0.6220  0.3315  0.8372
  305MOL0     H41172   8.468   7.447  12.121  0.2174  2.5279 -1.1670
  305MOL0     H41173   8.751   7.133  12.199  3.4389  0.5221 -4.0267
  305MOL0     H41174   8.894   7.848  11.822 -1.3449  0.9520  0.3662
  305MOL0     H41175   8.905   7.957  11.612  0.0849  0.1031  2.9521
  306MOL0     O41176   6.655   8.575   2.279  0.3223 -0.0165 -0.0470
  306MOL0     C41177   6.677   8.509   2.182 -0.2045  0.5338  0.4789
  306MOL0     O41178   6.802   8.436   2.159  0.4581 -0.6445 -0.1775
  306MOL0     C41179   6.864   8.404   2.271 -0.4740  0.9120 -0.2765
  306MOL0     C41180   6.807   8.343   2.394 -0.2336  0.2655 -0.4308
  306MOL0     C41181   6.891   8.306   2.495 -0.1314 -0.6694 -0.6090
  306MOL0     C41182   7.031   8.345   2.491  0.8569 -0.1254 -0.4428
  306MOL0     O41183   7.112   8.314   2.593 -0.1568  0.3117  0.3898
  306MOL0     C41184   7.063   8.309   2.726 -0.8803 -0.0549  0.3615
  306MOL0     C41185   7.040   8.457   2.777  0.3038  0.0709 -0.0487
  306MOL0     C41186   7.152   8.545   2.742 -0.9548  0.3595  0.4212
  306MOL0     C41187   7.191   8.672   2.826  0.7929 -0.3218  0.6525
  306MOL0     C41188   7.099   8.786   2.782 -0.5270 -0.0472 -0.3374
  306MOL0     C41189   7.123   8.913   2.854 -0.3428 -0.7549  0.4590
  306MOL0     C41190   7.271   8.952   2.877 -1.5141 -0.4726 -0.0439
  306MOL0     C41191   7.285   9.054   2.982  1.0954 -0.1097  0.7659
  306MOL0     N41192   7.227   9.204   2.966 -0.2507  0.9699  0.1299
  306MOL0     C41193   7.304   9.298   2.901  0.2040 -0.0770  0.8341
  306MOL0     C41194   7.268   9.423   2.937  0.1058  1.1411 -0.1697
  306MOL0     C41195   7.317   9.556   2.899 -0.0906  0.7448  0.4803
  306MOL0     C41196   7.405   9.602   3.017 -0.8378 -0.7844  0.0499
  306MOL0     C41197   7.461   9.750   3.014 -0.0753 -0.4430 -0.1724
  306MOL0     C41198   7.545   9.778   3.134  0.5505  0.0510 -0.0628
  306MOL0     O41199   7.634   9.894   3.118 -0.4360 -0.1552  0.7161
  306MOL0     C41200   7.712   9.934   3.224  0.5368 -0.2109  0.4088
  306MOL0     C41201   7.787  10.039   3.192 -0.0755 -0.7844  0.3625
  306MOL0     C41202   7.852  10.117   3.286  0.5010 -0.4346 -0.5408
  306MOL0     C41203   7.943  10.223   3.226  0.3086  1.0227 -0.5741
  306MOL0     C41204   7.841  10.082   3.424  0.2909 -0.6339 -0.4526
  306MOL0     C41205   7.912  10.138   3.539 -0.0604 -0.1741 -0.2170
  306MOL0     O41206   7.893  10.272   3.567 -0.0132  0.7508 -0.2212
  306MOL0     C41207   7.967  10.322   3.678  1.0655 -0.8304  0.1615
  306MOL0     C41208   7.919  10.304   3.805 -0.1007  0.2346  0.7201
  306MOL0     C41209   7.997  10.343   3.909  0.0302 -0.8991 -0.9562
  306MOL0     C41210   8.117  10.404   3.897  0.0512 -0.9512  0.4215
  306MOL0     O41211   8.195  10.455   3.998  0.6508  0.5057  0.2110
  306MOL0     C41212   8.145  10.566   4.068 -0.0746 -0.3039 -0.4366
  306MOL0     C41213   8.232  10.609   4.178 -0.8332  0.1856  0.1335
  306MOL0     C41214   8.362  10.655   4.146  0.6897 -0.5059  0.2349
  306MOL0     C41215   8.376  10.756   4.024  0.0997  0.5181  0.5118
  306MOL0     C41216   8.295  10.884   4.064  0.1762  0.5053  0.0320
  306MOL0     C41217   8.345  11.007   3.990  0.3537 -0.3953  0.0623
  306MOL0     C41218   8.279  11.046   3.858 -0.4234 -0.0403 -0.4973
  306MOL0     C41219   8.144  11.130   3.884 -0.0885 -0.1692 -0.4366
  306MOL0    Cl41220   8.012  11.042   3.965  0.0697  0.1195 -0.1548
  306MOL0     C41221   8.166  10.431   3.772  0.2580  0.4260 -0.0858
  306MOL0     C41222   8.093  10.382   3.656  0.1575  0.1051 -0.6991
  306MOL0     O41223   7.996  10.062   3.592 -0.2607  0.5586 -0.4912
  306MOL0     C41224   7.753   9.974   3.458  0.0808 -0.0389  0.3758
  306MOL0     C41225   7.694   9.895   3.362  0.0489  0.0717  0.2426
  306MOL0     N41226   7.170   9.401   3.037  0.5719  0.3849  0.3974
  306MOL0     N41227   7.158   9.270   3.060  0.4911 -0.7428 -0.7315
  306MOL0     C41228   7.082   8.407   2.377  0.2339 -0.4346  0.6007
  306MOL0     C41229   6.996   8.441   2.271  0.1705  0.4925  1.0958
  306MOL0     C41230   6.572   8.513   2.076 -0.2030  0.2323 -0.8353
  306MOL0     C41231   6.460   8.606   2.076  0.4858  1.1222  0.6764
  306MOL0     C41232   6.367   8.616   1.974 -0.2140 -1.2098 -0.0219
  306MOL0     C41233   6.367   8.525   1.868  0.6944 -0.1006  0.0593
  306MOL0     O41234   6.266   8.525   1.776 -0.6318 -0.0160  0.3357
  306MOL0     C41235   6.143   8.493   1.839 -0.1136  0.0925 -0.3008
  306MOL0     C41236   6.080   8.404   1.725 -0.1044  0.3969 -0.3859
  306MOL0     C41237   6.132   8.259   1.716 -0.9942  0.1190 -1.0311
  306MOL0     C41238   6.094   8.161   1.829  0.2510  0.3156 -0.4464
  306MOL0     C41239   6.160   8.040   1.792  0.8368  0.5911  0.9704
  306MOL0     C41240   6.221   7.940   1.792  0.0327 -0.0525  1.2402
  306MOL0     C41241   6.474   8.433   1.863  0.5355 -0.0780  0.1276
  306MOL0     C41242   6.576   8.425   1.962  0.3735 -0.4768 -0.6623
  306MOL0     H41243   6.699   8.334   2.405 -0.3899  2.8860  0.8518
  306MOL0     H41244   6.859   8.251   2.583  2.1375  1.1691  1.4926
  306MOL0     H41245   6.983   8.238   2.749  0.0267 -0.7550  1.4898
  306MOL0     H41246   7.142   8.275   2.793 -0.3966 -1.2128 -0.7466
  306MOL0     H41247   6.947   8.496   2.736 -0.9536 -2.8655 -0.1949
  306MOL0     H41248   7.031   8.462   2.886 -1.4729  1.3749 -0.2050
  306MOL0     H41249   7.239   8.478   2.738 -1.3435 -0.1203 -2.8503
  306MOL0     H41250   7.139   8.573   2.637  5.4310  0.6541 -0.6776
  306MOL0     H41251   7.173   8.659   2.933 -1.4675 -2.0494  0.1520
  306MOL0     H41252   7.292   8.706   2.803  1.0260 -0.7262  1.0715
  306MOL0     H41253   7.111   8.804   2.675  1.6156  1.4609  0.0971
  306MOL0     H41254   6.993   8.763   2.796 -1.4961  3.6508 -0.6347
  306MOL0     H41255   7.068   9.002   2.821  1.2858 -1.4429 -5.1106
  306MOL0     H41256   7.074   8.897   2.951 -1.2281  0.9232  0.3210
  306MOL0     H41257   7.338   8.873   2.912 -1.3626 -0.4072 -0.1887
  306MOL0     H41258   7.304   9.011   2.791  1.9499  1.1126  2.1922
  306MOL0     H41259   7.389   9.043   3.013  0.6985 -0.5545  1.9992
  306MOL0     H41260   7.221   9.023   3.065 -2.6840 -1.4109 -2.2929
  306MOL0     H41261   7.376   9.286   2.820  0.7940 -0.4562  1.4098
  306MOL0     H41262   7.365   9.556   2.801  1.4890  0.9947  1.2185
  306MOL0     H41263   7.233   9.626   2.892  1.0916  2.0439 -3.8646
  306MOL0     H41264   7.493   9.536   3.020 -1.1546 -1.1826  1.5594
  306MOL0     H41265   7.351   9.578   3.109  1.5651  1.3682  2.1793
  306MOL0     H41266   7.375   9.817   3.006 -1.6862 -2.5850 -2.9258
  306MOL0     H41267   7.519   9.764   2.922 -0.8767  1.9962 -0.3830
  306MOL0     H41268   7.609   9.690   3.139 -0.9803 -1.2534 -1.8766
  306MOL0     H41269   7.486   9.792   3.225 -1.9993  1.7965 -1.8264
  306MOL0     H41270   7.786  10.060   3.086 -2.2925 -1.0412  0.2806
  306MOL0     H41271   7.896  10.279   3.145 -3.5902 -2.4359 -1.0526
  306MOL0     H41272   7.983  10.283   3.308  1.4544 -1.9891  1.2415
  306MOL0     H41273   8.026  10.176   3.172 -0.0690 -1.5590  0.9014
  306MOL0     H41274   7.824  10.254   3.819  0.2275 -0.5358  0.3105
  306MOL0     H41275   7.967  10.329   4.012 -0.5286 -1.0034 -1.1327
  306MOL0     H41276   8.121  10.645   3.996  0.2944 -0.5523 -0.8434
  306MOL0     H41277   8.054  10.541   4.123  0.5846 -4.0611 -0.8066
  306MOL0     H41278   8.175  10.691   4.223 -0.1161 -0.5447  2.4928
  306MOL0     H41279   8.236  10.529   4.252  0.4947 -0.8782 -1.0222
  306MOL0     H41280   8.434  10.574   4.131  3.3085  1.9624 -1.6970
  306MOL0     H41281   8.400  10.701   4.238  1.9502 -1.1154  0.0434
  306MOL0     H41282   8.482  10.778   4.010 -0.2829  0.8341 -2.5876
  306MOL0     H41283   8.346  10.716   3.927  2.6718 -0.1080 -0.0998
  306MOL0     H41284   8.322  10.899   4.169 -0.6408 -0.5359  0.4097
  306MOL0     H41285   8.189  10.871   4.040  0.9181 -2.4487 -2.3155
  306MOL0     H41286   8.349  11.093   4.057  2.4502  0.2044 -0.7535
  306MOL0     H41287   8.448  10.982   3.964  0.9213  1.5249  0.3443
  306MOL0     H41288   8.257  10.959   3.796  0.1306  1.6748 -3.2757
  306MOL0     H41289   8.342  11.107   3.793 -2.3094 -1.1965 -3.6307
  306MOL0     H41290   8.098  11.154   3.788 -0.3603  1.0670 -0.0086
  306MOL0     H41291   8.166  11.222   3.939 -2.8949  1.3444 -1.6602
  306MOL0     H41292   8.264  10.476   3.756  0.8657 -1.2029 -1.2904
  306MOL0     H41293   8.127  10.382   3.553  1.1371  0.1388 -0.3813
  306MOL0     H41294   7.744   9.958   3.565 -0.3580  2.0363  0.6924
  306MOL0     H41295   7.632   9.814   3.399 -1.3119  1.0840  0.2463
  306MOL0     H41296   7.184   8.441   2.362 -0.5057  0.8383 -2.2380
  306MOL0     H41297   7.047   8.493   2.190  3.8168  1.5642  3.7941
  306MOL0     H41298   6.446   8.665   2.166 -0.8441 -1.5323  2.3379
  306MOL0     H41299   6.289   8.691   1.975 -1.3534 -2.3665  0.3239
  306MOL0     H41300   6.159   8.433   1.930 -0.2076 -5.7027 -3.6134
  306MOL0     H41301   6.082   8.578   1.872  1.4902  0.1203  3.0350
  306MOL0     H41302   6.093   8.448   1.625  0.8672 -2.7797 -1.7688
  306MOL0     H41303   5.974   8.388   1.745 -0.2662  1.1519 -0.5909
  306MOL0     H41304   6.241   8.257   1.710 -0.7555  4.8829 -1.5114
  306MOL0     H41305   6.091   8.220   1.623  1.8453 -3.0781 -1.1527
  306MOL0     H41306   5.986   8.154   1.842  0.2337  0.9696 -0.2308
  306MOL0     H41307   6.131   8.190   1.927 -3.2667 -0.9123  1.4045
  306MOL0     H41308   6.268   7.844   1.794  0.5220  0.1357 -0.2139
  306MOL0     H41309   6.458   8.357   1.787 -1.0468  0.2886  0.0570
  306MOL0     H41310   6.652   8.348   1.973  1.3588  0.7554  1.9836
  307MOL0     O41311   0.310   0.504   3.715 -0.1273  0.6214  0.5445
  307MOL0     C41312   0.310   0.401   3.782  0.7471  0.7731 -0.4166
  307MOL0     O41313   0.269   0.388   3.909  0.8079  0.1619  0.2851
  307MOL0     C41314   0.252   0.503   3.986 -0.4533 -0.1449  0.6737
  307MOL0     C41315   0.121   0.542   4.024  0.4880  0.0721  0.3044
  307MOL0     C41316   0.108   0.649   4.103 -0.3361  0.1271 -0.2730
  307MOL0     C41317   0.218   0.728   4.146 -0.4005  1.3626  0.0895
  307MOL0     O41318   0.214   0.848   4.212  0.1560  0.4353 -0.6155
  307MOL0     C41319   0.085   0.912   4.232  0.7771  0.7474 -0.1295
  307MOL0     C41320  -0.000   0.854   4.344 -0.5871  0.0663  0.1764
  307MOL0     C41321   0.074   0.823   4.471  0.8283 -0.2708 -0.4983
  307MOL0     C41322   0.133   0.945   4.542  0.7869 -0.0993 -0.1321
  307MOL0     C41323   0.182   0.923   4.684  0.5343  0.6577 -0.8046
  307MOL0     C41324   0.256   1.051   4.738  0.0401 -0.3134 -0.2247
  307MOL0     C41325   0.180   1.186   4.723  0.6129  0.8068  0.4292
  307MOL0     C41326   0.084   1.224   4.840 -0.7023  0.3766 -0.6866
  307MOL0     N41327  -0.029   1.134   4.876  0.2428 -0.3311 -0.0882
  307MOL0     C41328  -0.106   1.051   4.800  0.6538  0.5525 -0.8027
  307MOL0     C41329  -0.177   0.981   4.892  0.2110  0.6967  0.2436
  307MOL0     C41330  -0.283   0.873   4.864  0.2833 -0.4715 -1.5407
  307MOL0     C41331  -0.246   0.781   4.748  0.5525  0.0337 -0.2100
  307MOL0     C41332  -0.316   0.650   4.737  0.3025  0.3117  0.1630
  307MOL0     C41333  -0.464   0.669   4.694  0.0175  0.2323 -0.2664
  307MOL0     O41334  -0.473   0.726   4.566  0.1916  0.2256 -0.3000
  307MOL0     C41335  -0.445   0.646   4.450  1.0649 -0.2239 -0.3500
  307MOL0     C41336  -0.434   0.710   4.333 -0.7401 -0.4203  0.1284
  307MOL0     C41337  -0.375   0.644   4.220 -0.6504  0.1634 -0.6011
  307MOL0     C41338  -0.327   0.738   4.113  0.3100 -0.0572 -0.3342
  307MOL0     C41339  -0.364   0.505   4.219 -0.7878 -0.0115 -0.4434
  307MOL0     C41340  -0.318   0.422   4.104 -0.4811  0.0557 -1.4079
  307MOL0     O41341  -0.312   0.288   4.125  0.1998  0.1670 -0.1260
  307MOL0     C41342  -0.259   0.195   4.034 -0.4095 -0.1244 -0.1183
  307MOL0     C41343  -0.171   0.223   3.932  0.7166 -0.0926  0.3509
  307MOL0     C41344  -0.127   0.122   3.855  0.4117  0.8394 -0.2686
  307MOL0     C41345  -0.167  -0.012   3.877  0.1383 -0.4430 -0.3126
  307MOL0     O41346  -0.115  -0.110   3.793 -0.9213  0.3789  0.0444
  307MOL0     C41347  -0.217  -0.204   3.764 -0.1846 -0.3255 -0.1421
  307MOL0     C41348  -0.193  -0.266   3.628 -0.4491 -0.2825 -0.0494
  307MOL0     C41349  -0.078  -0.372   3.636  0.6616 -0.1268 -0.2199
  307MOL0     C41350   0.058  -0.304   3.649  0.9232  0.3401  0.8578
  307MOL0     C41351   0.180  -0.404   3.638 -0.3684 -0.2332  1.4787
  307MOL0     C41352   0.162  -0.543   3.702 -1.1277  0.7701 -0.0593
  307MOL0     C41353   0.305  -0.616   3.679 -0.0793 -0.2034 -1.2144
  307MOL0     C41354   0.302  -0.757   3.740 -0.5700 -0.2145 -0.1065
  307MOL0    Cl41355   0.194  -0.860   3.653 -0.2588  0.1779  0.2299
  307MOL0     C41356  -0.253  -0.034   3.985  0.1153  0.9797  0.6578
  307MOL0     C41357  -0.302   0.068   4.071  0.6190  0.2205  0.5291
  307MOL0     O41358  -0.301   0.476   3.996 -0.0473  0.0929 -0.6071
  307MOL0     C41359  -0.397   0.432   4.338 -0.4204 -0.6201 -0.0662
  307MOL0     C41360  -0.432   0.504   4.457  0.0666  0.0442 -0.0444
  307MOL0     N41361  -0.158   1.037   5.015  0.1819 -0.4743 -0.3499
  307MOL0     N41362  -0.064   1.128   5.007  0.4414 -0.2985 -0.1938
  307MOL0     C41363   0.348   0.679   4.116  0.2380  0.3411 -0.1944
  307MOL0     C41364   0.368   0.564   4.042 -0.0045  0.3277 -0.2118
  307MOL0     C41365   0.322   0.266   3.707 -0.0407 -0.2277  0.9924
  307MOL0     C41366   0.224   0.166   3.719 -0.6244  0.2560  0.1540
  307MOL0     C41367   0.246   0.046   3.646  0.0263 -0.1818  1.1262
  307MOL0     C41368   0.348   0.028   3.548  0.1026  0.1265  0.3472
  307MOL0     O41369   0.361  -0.096   3.488 -0.0105 -0.3242  0.6512
  307MOL0     C41370   0.485  -0.135   3.437 -0.0056  0.3384 -0.3298
  307MOL0     C41371   0.479  -0.289   3.434  0.0327  0.0677  0.4546
  307MOL0     C41372   0.598  -0.349   3.358 -0.0644 -0.1607 -0.1132
  307MOL0     C41373   0.740  -0.318   3.422 -0.3063  0.3771  0.6917
  307MOL0     C41374   0.831  -0.379   3.328 -0.2741  0.5570 -0.4069
  307MOL0     C41375   0.899  -0.447   3.264 -0.5617 -0.4365 -0.2499
  307MOL0     C41376   0.438   0.142   3.533  1.0375  0.3520  0.1315
  307MOL0     C41377   0.420   0.261   3.609 -0.9027  0.8595  0.1112
  307MOL0     H41378   0.046   0.482   3.974  0.6524  1.8261 -2.2384
  307MOL0     H41379   0.003   0.670   4.122 -0.8295 -2.3144  0.0590
  307MOL0     H41380   0.093   1.021   4.240  0.4783  0.9308 -1.8266
  307MOL0     H41381   0.016   0.890   4.150  2.0644 -0.7652 -0.8672
  307MOL0     H41382  -0.076   0.932   4.358  0.2082  1.2401 -1.6677
  307MOL0     H41383  -0.055   0.768   4.305 -0.2996  0.0080 -0.1055
  307MOL0     H41384   0.002   0.775   4.538 -3.8974  2.3660 -3.1196
  307MOL0     H41385   0.164   0.768   4.441  2.8542  2.8092 -0.5708
  307MOL0     H41386   0.213   0.988   4.482  0.8901  1.6098  1.1505
  307MOL0     H41387   0.046   1.008   4.559 -1.0653 -1.9018 -2.2667
  307MOL0     H41388   0.101   0.892   4.750  2.4432 -2.1712  0.3878
  307MOL0     H41389   0.250   0.838   4.693 -2.2565 -1.4815  2.1405
  307MOL0     H41390   0.288   1.033   4.841  0.0665 -4.1528 -0.7476
  307MOL0     H41391   0.351   1.060   4.684 -0.5627 -0.2423 -1.3082
  307MOL0     H41392   0.261   1.260   4.723  1.5308 -0.1625 -0.4785
  307MOL0     H41393   0.138   1.190   4.623  3.4775 -2.1251 -1.0875
  307MOL0     H41394   0.031   1.311   4.802  1.2930  2.2559  0.5808
  307MOL0     H41395   0.148   1.251   4.925 -3.6524  0.3276  1.6862
  307MOL0     H41396  -0.100   1.035   4.692  1.0765 -0.2735 -0.6630
  307MOL0     H41397  -0.296   0.824   4.961  0.0577 -0.2371 -1.4506
  307MOL0     H41398  -0.373   0.928   4.835  1.6441  1.9073 -1.4841
  307MOL0     H41399  -0.144   0.748   4.767  0.8612  1.6312  1.1228
  307MOL0     H41400  -0.242   0.834   4.652  2.7766 -1.1046 -0.8026
  307MOL0     H41401  -0.295   0.589   4.825  2.2790  2.4832  1.2931
  307MOL0     H41402  -0.268   0.591   4.658  1.4014 -0.6005  1.4578
  307MOL0     H41403  -0.511   0.726   4.774 -2.7465 -4.1912  1.6651
  307MOL0     H41404  -0.528   0.582   4.709 -1.6800  1.6776  1.3199
  307MOL0     H41405  -0.439   0.818   4.328  1.5745 -0.3075 -1.8594
  307MOL0     H41406  -0.239   0.708   4.054  0.0457  1.3983 -1.5301
  307MOL0     H41407  -0.417   0.748   4.053 -0.7565 -1.3469  0.9909
  307MOL0     H41408  -0.312   0.838   4.154  0.6872  0.2338 -1.1461
  307MOL0     H41409  -0.149   0.326   3.906 -4.0335  1.7824  2.5794
  307MOL0     H41410  -0.069   0.151   3.768 -0.6329  0.6297 -1.0523
  307MOL0     H41411  -0.239  -0.277   3.842  1.5814 -0.2159  0.4991
  307MOL0     H41412  -0.307  -0.147   3.739 -1.7437 -2.8795 -0.7563
  307MOL0     H41413  -0.284  -0.316   3.592  0.1455 -0.4081 -1.4317
  307MOL0     H41414  -0.176  -0.192   3.550  0.4414  1.3377  1.6103
  307MOL0     H41415  -0.088  -0.437   3.549  0.6908 -0.2623 -0.1221
  307MOL0     H41416  -0.084  -0.430   3.728  0.3012  0.7892  0.3569
  307MOL0     H41417   0.069  -0.222   3.577  2.2414 -1.6296 -1.3247
  307MOL0     H41418   0.069  -0.256   3.747  0.4308 -1.4130  1.8082
  307MOL0     H41419   0.259  -0.344   3.683  2.3689 -2.1912 -0.3485
  307MOL0     H41420   0.207  -0.422   3.533 -1.4761  1.1988  0.9140
  307MOL0     H41421   0.141  -0.546   3.810 -2.2391 -1.6789 -0.2633
  307MOL0     H41422   0.071  -0.597   3.673  0.0246 -2.8725  2.3843
  307MOL0     H41423   0.388  -0.556   3.717  0.9303 -2.1457 -0.2066
  307MOL0     H41424   0.317  -0.634   3.572  3.2286  0.4316 -1.0509
  307MOL0     H41425   0.266  -0.748   3.843  0.0659 -2.5329  0.3623
  307MOL0     H41426   0.396  -0.811   3.746 -2.2844 -3.2380  1.7456
  307MOL0     H41427  -0.293  -0.132   4.010  1.3726  1.0437  3.2544
  307MOL0     H41428  -0.376   0.054   4.149  0.0592  2.0583  0.3813
  307MOL0     H41429  -0.379   0.326   4.353  0.3221 -0.5334 -0.2934
  307MOL0     H41430  -0.456   0.437   4.540 -0.9071 -1.8339 -1.7446
  307MOL0     H41431   0.434   0.737   4.147  1.3048 -1.2374 -0.1230
  307MOL0     H41432   0.466   0.528   4.013 -0.4405 -1.6745  0.6083
  307MOL0     H41433   0.141   0.166   3.788 -0.5871 -1.7454  0.2705
  307MOL0     H41434   0.179  -0.037   3.665 -1.9690  0.5726 -1.9361
  307MOL0     H41435   0.505  -0.098   3.336  0.9350  0.6528 -0.0463
  307MOL0     H41436   0.570  -0.101   3.497 -0.0281  0.2071 -0.2226
  307MOL0     H41437   0.389  -0.323   3.381 -0.6526  0.6913  1.1842
  307MOL0     H41438   0.467  -0.334   3.533 -0.0563 -2.1145 -0.4851
  307MOL0     H41439   0.605  -0.315   3.255  0.1392 -1.4455 -0.5429
  307MOL0     H41440   0.574  -0.456   3.360  1.8975 -0.6279  0.5371
  307MOL0     H41441   0.755  -0.359   3.522  1.7466 -1.5806 -0.3092
  307MOL0     H41442   0.777  -0.215   3.428  2.3216 -0.3941 -0.7794
  307MOL0     H41443   0.976  -0.512   3.227 -1.6607 -1.8445 -0.1787
  307MOL0     H41444   0.510   0.140   3.452 -1.3851 -0.3867 -2.1525
  307MOL0     H41445   0.477   0.351   3.586 -1.1685  0.6411 -1.5652
  308MOL0     O41446   8.621   4.455   7.548 -0.1196 -0.0298  0.0547
  308MOL0     C41447   8.519   4.455   7.474 -0.6531 -0.1714 -0.3308
  308MOL0     O41448   8.522   4.511   7.354 -0.7114  0.2268  0.5240
  308MOL0     C41449   8.621   4.600   7.316  0.0313 -0.3631  0.4702
  308MOL0     C41450   8.670   4.598   7.184  1.1054 -0.1060  0.0729
  308MOL0     C41451   8.767   4.689   7.146  0.0219  0.0238 -0.0645
  308MOL0     C41452   8.811   4.791   7.232  0.2769 -0.1546 -0.1417
  308MOL0     O41453   8.888   4.895   7.188 -0.1076  0.3253 -0.6470
  308MOL0     C41454   9.013   4.911   7.258  0.3084  0.5663 -0.0809
  308MOL0     C41455   9.079   5.044   7.234 -0.3167 -0.6703 -0.5701
  308MOL0     C41456   9.094   5.062   7.079  0.2484 -0.5170 -0.3819
  308MOL0     C41457   9.191   5.173   7.026 -0.4709 -1.2864  0.8072
  308MOL0     C41458   9.125   5.317   7.018  0.0178  0.5662  0.3142
  308MOL0     C41459   9.227   5.419   6.978  0.2408  0.0610 -0.1697
  308MOL0     C41460   9.311   5.464   7.104 -0.3373  0.0160  0.2983
  308MOL0     C41461   9.426   5.566   7.074 -0.6146  1.0571 -0.2400
  308MOL0     N41462   9.552   5.514   7.006  0.1212 -0.0122  0.8184
  308MOL0     C41463   9.559   5.457   6.874 -0.1528  0.0406 -0.1650
  308MOL0     C41464   9.680   5.403   6.870 -0.0814  0.6136  0.5819
  308MOL0     C41465   9.709   5.307   6.752 -0.6456  0.3395 -0.2300
  308MOL0     C41466   9.811   5.374   6.660  0.2091  1.2218 -0.0173
  308MOL0     C41467   9.863   5.289   6.542 -0.3795  0.3827 -0.5600
  308MOL0     C41468   9.988   5.207   6.588  0.9482 -0.3967 -0.3514
  308MOL0     O41469  10.099   5.289   6.618  0.1690 -0.8666  0.7093
  308MOL0     C41470  10.223   5.261   6.567 -0.5840  0.4143 -0.1449
  308MOL0     C41471  10.274   5.138   6.522 -0.4599 -0.8578  1.0727
  308MOL0     C41472  10.404   5.112   6.495 -0.3673  0.0771  0.2450
  308MOL0     C41473  10.435   4.970   6.438  0.7390 -0.5013  0.5721
  308MOL0     C41474  10.497   5.218   6.518  0.1836  0.0216  0.7181
  308MOL0     C41475  10.643   5.201   6.481 -0.0233  0.5728  0.0786
  308MOL0     O41476  10.726   5.299   6.518 -0.4475  0.8108 -1.1401
  308MOL0     C41477  10.854   5.276   6.480  0.0688 -0.2365  0.7281
  308MOL0     C41478  10.926   5.197   6.562 -0.4328  0.6390 -0.0853
  308MOL0     C41479  11.064   5.216   6.572 -0.8231  1.0625  0.1198
  308MOL0     C41480  11.132   5.293   6.477  0.7671  0.3114 -0.9439
  308MOL0     O41481  11.266   5.297   6.486  0.3603 -0.7045 -0.7815
  308MOL0     C41482  11.340   5.369   6.384 -0.4688 -0.3645  0.1646
  308MOL0     C41483  11.494   5.359   6.414 -0.3556 -0.4770 -0.8685
  308MOL0     C41484  11.585   5.441   6.316  0.4201  0.6401  0.2851
  308MOL0     C41485  11.718   5.467   6.368  0.1125  0.1920  0.1276
  308MOL0     C41486  11.795   5.570   6.289 -0.0825 -0.2394 -0.7013
  308MOL0     C41487  11.784   5.570   6.136 -0.2424  0.1990  0.2154
  308MOL0     C41488  11.837   5.440   6.074 -0.0553  0.4513  0.4320
  308MOL0     C41489  11.777   5.406   5.938  0.2575  0.2502 -1.4530
  308MOL0    Cl41490  11.840   5.257   5.882  0.0893  0.4761  0.6550
  308MOL0     C41491  11.059   5.367   6.383  1.3621 -0.0409 -0.6228
  308MOL0     C41492  10.920   5.365   6.389  0.4176  0.3677 -0.4926
  308MOL0     O41493  10.675   5.097   6.426  0.1705 -0.3436 -0.4578
  308MOL0     C41494  10.449   5.348   6.538 -0.1849  0.9292 -0.2000
  308MOL0     C41495  10.320   5.365   6.575  0.3492 -0.2296 -0.8613
  308MOL0     N41496   9.755   5.425   6.982  0.1809 -0.8170 -1.0553
  308MOL0     N41497   9.675   5.500   7.065  1.3796 -0.2352  0.1455
  308MOL0     C41498   8.762   4.802   7.367  0.0347 -0.1801 -0.0712
  308MOL0     C41499   8.659   4.706   7.403 -0.2975  0.1509 -0.5502
  308MOL0     C41500   8.394   4.380   7.509 -0.8779 -0.0647  0.3163
  308MOL0     C41501   8.284   4.369   7.420 -0.5832  0.4609  0.8729
  308MOL0     C41502   8.170   4.291   7.449 -1.1766 -0.6557  0.2935
  308MOL0     C41503   8.164   4.227   7.571  0.2897 -0.3875  0.0577
  308MOL0     O41504   8.061   4.146   7.581  0.7050 -0.0994 -0.2732
  308MOL0     C41505   8.031   4.086   7.711  0.3681  0.2383  0.6689
  308MOL0     C41506   7.882   4.031   7.715  0.3224  0.0935  0.7624
  308MOL0     C41507   7.774   4.135   7.696 -0.4786 -0.4058  0.6389
  308MOL0     C41508   7.788   4.262   7.796  0.5500  0.3570  0.2077
  308MOL0     C41509   7.674   4.349   7.810  0.6950  0.4358 -0.7375
  308MOL0     C41510   7.584   4.428   7.828  0.4714 -0.4469 -0.8925
  308MOL0     C41511   8.265   4.253   7.664  0.3328 -0.3430  0.0464
  308MOL0     C41512   8.377   4.329   7.638 -0.3908 -0.2302  0.3222
  308MOL0     H41513   8.624   4.525   7.118 -0.8502 -0.9625  2.2391
  308MOL0     H41514   8.815   4.691   7.049  0.0991 -1.4929 -0.0758
  308MOL0     H41515   9.004   4.892   7.366 -2.8635  4.5808  0.5766
  308MOL0     H41516   9.071   4.829   7.214  1.8786  0.4742  2.0014
  308MOL0     H41517   9.025   5.130   7.275  1.4197 -0.3398  1.1834
  308MOL0     H41518   9.176   5.033   7.282 -1.2522 -4.1315  0.8298
  308MOL0     H41519   9.144   4.974   7.037  1.7405 -1.8545  3.6474
  308MOL0     H41520   8.995   5.069   7.035 -1.4875  1.5611  3.3901
  308MOL0     H41521   9.283   5.173   7.085 -0.3891 -0.8457  0.6828
  308MOL0     H41522   9.215   5.150   6.922  1.4262  0.4301  0.8038
  308MOL0     H41523   9.056   5.312   6.934  2.7374 -0.3664 -2.0284
  308MOL0     H41524   9.079   5.341   7.115 -1.6219  1.4833 -0.6500
  308MOL0     H41525   9.301   5.366   6.917  1.6153  1.6355  0.0906
  308MOL0     H41526   9.190   5.509   6.928  1.3262  2.0479  2.4212
  308MOL0     H41527   9.241   5.499   7.179 -1.8376 -0.1159 -0.9910
  308MOL0     H41528   9.363   5.370   7.128  0.0833 -1.0341 -3.8362
  308MOL0     H41529   9.466   5.606   7.167  0.5416  0.7602 -0.5991
  308MOL0     H41530   9.387   5.649   7.015  0.5004  1.1094 -0.9266
  308MOL0     H41531   9.487   5.445   6.794 -0.8994  0.1670  0.4729
  308MOL0     H41532   9.762   5.229   6.807  1.8607  3.0102  1.5284
  308MOL0     H41533   9.622   5.269   6.698 -0.7542  1.1468 -0.6416
  308MOL0     H41534   9.891   5.417   6.721 -1.0266  1.0890  1.7628
  308MOL0     H41535   9.765   5.465   6.620  2.3600  0.9105 -3.7125
  308MOL0     H41536   9.902   5.349   6.460  1.2255  0.6402  0.3447
  308MOL0     H41537   9.783   5.227   6.501  0.5386 -0.8247 -0.5709
  308MOL0     H41538  10.003   5.135   6.508 -0.1409  0.3298 -1.2368
  308MOL0     H41539   9.956   5.147   6.674 -0.0242 -1.6749 -1.5622
  308MOL0     H41540  10.202   5.060   6.498 -0.6575  0.2750 -2.7879
  308MOL0     H41541  10.342   4.915   6.418 -0.5810  1.2011  1.6848
  308MOL0     H41542  10.498   4.978   6.350  1.5305  1.6276  1.2704
  308MOL0     H41543  10.501   4.933   6.517 -2.0652  1.4466  4.1495
  308MOL0     H41544  10.874   5.123   6.621  0.1311 -0.3387 -0.7822
  308MOL0     H41545  11.119   5.162   6.649 -0.9642  0.6743 -0.0506
  308MOL0     H41546  11.333   5.314   6.290  0.5034 -0.5351  0.1844
  308MOL0     H41547  11.318   5.476   6.379  1.9117  0.3481  2.6227
  308MOL0     H41548  11.519   5.391   6.516 -1.4109  0.5127 -0.9014
  308MOL0     H41549  11.515   5.252   6.416 -3.1456 -1.0861 -1.1342
  308MOL0     H41550  11.535   5.536   6.294 -1.8902 -0.9259 -1.7411
  308MOL0     H41551  11.578   5.387   6.221  0.5260  1.5634 -0.2598
  308MOL0     H41552  11.715   5.485   6.476  0.0314 -1.1715  0.3758
  308MOL0     H41553  11.769   5.372   6.347  2.8517  1.7586 -0.8167
  308MOL0     H41554  11.901   5.558   6.316 -0.3215 -0.1280  0.3239
  308MOL0     H41555  11.775   5.670   6.329 -0.0872 -0.4541 -0.1584
  308MOL0     H41556  11.681   5.589   6.104 -1.1071  0.5047  2.9242
  308MOL0     H41557  11.848   5.649   6.094 -2.0574  0.3012 -2.5851
  308MOL0     H41558  11.825   5.354   6.140 -0.5300 -0.9484 -1.3870
  308MOL0     H41559  11.943   5.452   6.049 -0.1849 -0.7881 -0.8982
  308MOL0     H41560  11.794   5.492   5.871 -2.7766  1.4282 -0.8721
  308MOL0     H41561  11.669   5.396   5.949  0.4899 -0.7359  0.1159
  308MOL0     H41562  11.095   5.448   6.320 -0.3196  3.1454  2.1600
  308MOL0     H41563  10.863   5.437   6.331  0.7960  1.1494  0.0961
  308MOL0     H41564  10.504   5.442   6.549  3.1879 -0.7859 -0.9964
  308MOL0     H41565  10.300   5.468   6.604 -2.0954  0.0695 -3.2022
  308MOL0     H41566   8.769   4.882   7.440 -3.0657 -0.3991  0.6153
  308MOL0     H41567   8.610   4.706   7.500  1.1062  1.7070  0.1945
  308MOL0     H41568   8.277   4.428   7.329  0.4389  0.3129  0.6814
  308MOL0     H41569   8.092   4.275   7.376  0.2532 -2.7905 -0.8827
  308MOL0     H41570   8.092   3.995   7.715  2.4167  0.9208 -4.9750
  308MOL0     H41571   8.047   4.155   7.794 -2.5509  3.4500 -1.1684
  308MOL0     H41572   7.867   3.992   7.817 -1.1214 -1.9707 -0.1733
  308MOL0     H41573   7.867   3.952   7.641 -0.5954 -1.4508  2.5106
  308MOL0     H41574   7.681   4.078   7.706 -1.6498  0.8895 -1.9734
  308MOL0     H41575   7.778   4.162   7.590 -1.8144 -2.3574  0.0432
  308MOL0     H41576   7.885   4.310   7.779  2.1219 -2.4466  0.6790
  308MOL0     H41577   7.805   4.203   7.886  2.1766 -1.9462 -1.4979
  308MOL0     H41578   7.502   4.495   7.846  1.7307  0.2630  3.0752
  308MOL0     H41579   8.260   4.211   7.764 -1.7173  2.3909  1.2101
  308MOL0     H41580   8.456   4.331   7.712  0.3960 -1.2326 -0.4595
  309MOL0     O41581   3.557   6.711   4.149  0.4738  0.4119 -0.2057
  309MOL0     C41582   3.681   6.688   4.142  1.4105  1.2104 -0.0286
  309MOL0     O41583   3.751   6.638   4.251  0.1575 -0.8340  0.4648
  309MOL0     C41584   3.688   6.555   4.341  0.6904 -0.1838  0.0851
  309MOL0     C41585   3.748   6.544   4.467 -0.7647  0.2660  0.8086
  309MOL0     C41586   3.698   6.447   4.554 -0.2600 -0.5769 -0.9156
  309MOL0     C41587   3.607   6.347   4.513  0.2899 -0.5727  0.1658
  309MOL0     O41588   3.584   6.244   4.606 -0.0876  0.2787 -0.3712
  309MOL0     C41589   3.508   6.135   4.553  0.5729 -0.1964 -0.0545
  309MOL0     C41590   3.459   6.045   4.657  0.3360  0.1874 -0.3033
  309MOL0     C41591   3.343   6.116   4.726 -0.1311 -0.1442 -0.6741
  309MOL0     C41592   3.248   6.041   4.814 -0.0873 -0.2204 -0.2923
  309MOL0     C41593   3.316   5.986   4.940  0.5729 -0.4306 -0.6434
  309MOL0     C41594   3.211   5.912   5.024  0.3660  0.2588  0.0433
  309MOL0     C41595   3.251   5.920   5.170 -0.6368 -0.0422 -0.1477
  309MOL0     C41596   3.187   5.804   5.250 -0.0691 -0.5599  0.5371
  309MOL0     N41597   3.051   5.834   5.298 -0.0509  0.0761  0.9759
  309MOL0     C41598   3.008   5.922   5.399  0.4070 -0.2920  0.3901
  309MOL0     C41599   2.870   5.923   5.387  0.0490 -0.1996 -1.0893
  309MOL0     C41600   2.770   6.015   5.460 -0.6910 -0.0415 -0.1121
  309MOL0     C41601   2.792   6.165   5.419 -0.2991  0.9068 -0.5205
  309MOL0     C41602   2.712   6.257   5.511  0.0249 -0.2552 -0.1148
  309MOL0     C41603   2.680   6.391   5.443 -1.2036 -0.0978  0.6174
  309MOL0     O41604   2.801   6.464   5.418  0.1557 -0.1912 -0.5104
  309MOL0     C41605   2.818   6.537   5.300  0.5844  0.5570  0.2192
  309MOL0     C41606   2.728   6.535   5.199 -0.4091  0.4400  0.2252
  309MOL0     C41607   2.746   6.603   5.079  0.1535  0.4422 -0.9709
  309MOL0     C41608   2.641   6.608   4.976 -0.2925  0.6763  0.0674
  309MOL0     C41609   2.864   6.681   5.066  0.0213 -0.7464  0.7762
  309MOL0     C41610   2.881   6.778   4.941  0.3589  0.3346 -0.8336
  309MOL0     O41611   2.872   6.911   4.962 -0.0721 -0.1703  0.3925
  309MOL0     C41612   2.949   6.995   4.885  0.9198 -0.5424 -0.4797
  309MOL0     C41613   3.088   6.989   4.900  0.2486  0.5041 -0.9046
  309MOL0     C41614   3.173   7.049   4.809 -0.3316  0.5879 -0.9833
  309MOL0     C41615   3.133   7.135   4.705  0.3881  1.0519 -0.5564
  309MOL0     O41616   3.211   7.203   4.615 -0.4659  0.6212 -0.4157
  309MOL0     C41617   3.352   7.166   4.598 -0.2719 -0.5641  0.0459
  309MOL0     C41618   3.403   7.265   4.499  0.9440  0.0536 -0.0465
  309MOL0     C41619   3.562   7.234   4.482  0.2948 -0.0006 -0.0034
  309MOL0     C41620   3.616   7.319   4.370  0.5900 -0.0446  0.0040
  309MOL0     C41621   3.659   7.455   4.437  0.3630 -0.9644 -0.4686
  309MOL0     C41622   3.694   7.553   4.329  0.0064 -0.2194 -0.8503
  309MOL0     C41623   3.681   7.699   4.381  0.7347  0.8413  0.4268
  309MOL0     C41624   3.723   7.782   4.269 -0.7510 -0.3372  0.0920
  309MOL0    Cl41625   3.745   7.950   4.332 -0.1988  0.2081  0.0396
  309MOL0     C41626   2.988   7.152   4.693 -0.1588 -0.5945 -0.1500
  309MOL0     C41627   2.902   7.075   4.779  0.0436  0.0517 -0.2044
  309MOL0     O41628   2.938   6.722   4.852 -0.0853 -0.8914  0.6672
  309MOL0     C41629   2.961   6.682   5.163  0.1780  0.7703 -0.4404
  309MOL0     C41630   2.939   6.609   5.283  0.5115 -0.1306 -0.4734
  309MOL0     N41631   2.833   5.829   5.292  0.1180  0.5189 -0.2052
  309MOL0     N41632   2.941   5.785   5.239 -0.2754  0.4872 -1.1984
  309MOL0     C41633   3.551   6.357   4.384  0.8861 -0.2461 -0.7783
  309MOL0     C41634   3.582   6.465   4.305 -1.0773 -0.7538  0.2139
  309MOL0     C41635   3.754   6.729   4.022 -0.3098 -0.0269 -0.1487
  309MOL0     C41636   3.889   6.699   4.006  0.4200 -1.0193 -0.0763
  309MOL0     C41637   3.959   6.739   3.891  0.0106 -0.2069 -0.2855
  309MOL0     C41638   3.885   6.804   3.783  0.1012 -0.3408  0.3598
  309MOL0     O41639   3.949   6.835   3.667 -0.7298 -0.2118 -0.1764
  309MOL0     C41640   4.093   6.845   3.659  0.0822  0.3508  0.6217
  309MOL0     C41641   4.153   6.955   3.745 -0.1778  0.0988 -0.6919
  309MOL0     C41642   4.055   7.072   3.729  0.1143  0.2580 -0.1668
  309MOL0     C41643   4.121   7.204   3.763  0.9661 -0.0215  0.0845
  309MOL0     C41644   4.222   7.257   3.669  1.5190  0.5700 -0.0875
  309MOL0     C41645   4.292   7.297   3.578  0.6450 -0.1555 -1.2118
  309MOL0     C41646   3.745   6.816   3.793  0.3553  0.1598 -1.3035
  309MOL0     C41647   3.677   6.781   3.913  0.4200  0.4271  0.8940
  309MOL0     H41648   3.838   6.598   4.493 -1.2720  0.5957  1.9482
  309MOL0     H41649   3.737   6.446   4.656 -3.2295 -0.6062  0.3279
  309MOL0     H41650   3.429   6.169   4.486  0.3668 -1.3919 -0.4466
  309MOL0     H41651   3.569   6.075   4.485 -2.2305 -1.9797 -1.1624
  309MOL0     H41652   3.412   5.957   4.612  2.0697 -1.4093  0.8826
  309MOL0     H41653   3.540   5.999   4.714  3.2101  1.4061 -3.0855
  309MOL0     H41654   3.390   6.184   4.797 -0.9904  1.8931 -1.9530
  309MOL0     H41655   3.291   6.176   4.650  0.6393 -0.5259 -1.5267
  309MOL0     H41656   3.158   6.102   4.830  0.0934 -0.3077  1.3086
  309MOL0     H41657   3.211   5.957   4.755  0.8766 -1.6020  0.9924
  309MOL0     H41658   3.407   5.927   4.922  3.1560  0.2017  6.7367
  309MOL0     H41659   3.354   6.073   4.994 -0.6082  1.6074 -2.9208
  309MOL0     H41660   3.114   5.962   5.027 -0.6219 -1.5785 -0.2050
  309MOL0     H41661   3.210   5.806   4.998  3.4802 -0.4988  2.3438
  309MOL0     H41662   3.360   5.908   5.173 -0.6902 -0.4147  0.5926
  309MOL0     H41663   3.231   6.020   5.208  0.0881 -0.4071  1.2756
  309MOL0     H41664   3.256   5.774   5.329 -2.1776 -3.0795  1.5932
  309MOL0     H41665   3.185   5.719   5.181 -0.6859  0.7085 -1.1034
  309MOL0     H41666   3.059   5.992   5.464  0.3584  1.8931 -1.7680
  309MOL0     H41667   2.668   5.981   5.439 -1.2196  0.7732  1.0720
  309MOL0     H41668   2.792   6.005   5.567  0.3057  4.6750  0.3532
  309MOL0     H41669   2.760   6.173   5.315 -4.7325 -2.1386  0.2904
  309MOL0     H41670   2.899   6.178   5.433  0.2002 -2.9718  0.2700
  309MOL0     H41671   2.777   6.277   5.597  0.9496 -4.4351  0.3665
  309MOL0     H41672   2.620   6.209   5.546 -0.0966  0.2454  0.2588
  309MOL0     H41673   2.625   6.452   5.515 -1.5564 -2.0630  2.1012
  309MOL0     H41674   2.624   6.376   5.350  1.0357  1.4121 -1.0989
  309MOL0     H41675   2.632   6.485   5.203  0.6079 -1.5102  1.9364
  309MOL0     H41676   2.638   6.704   4.923 -0.9260  0.3245 -0.5445
  309MOL0     H41677   2.680   6.530   4.909  1.7021 -0.5544  2.5100
  309MOL0     H41678   2.540   6.578   5.003  0.5289 -1.0424  1.4248
  309MOL0     H41679   3.141   6.941   4.982  1.0504  0.5362 -1.3943
  309MOL0     H41680   3.279   7.033   4.824 -0.3476  0.0037 -1.4556
  309MOL0     H41681   3.419   7.176   4.684  0.7876  2.7216 -1.0027
  309MOL0     H41682   3.365   7.066   4.555  2.2448  1.1299 -3.6824
  309MOL0     H41683   3.359   7.267   4.398  3.5244  4.3978 -1.3474
  309MOL0     H41684   3.383   7.362   4.545 -0.3950  0.0512 -0.5769
  309MOL0     H41685   3.573   7.128   4.459 -1.7460  0.0626 -1.5787
  309MOL0     H41686   3.619   7.263   4.570 -1.1299  4.0129 -0.1802
  309MOL0     H41687   3.710   7.279   4.330  1.0957  0.2676  0.8618
  309MOL0     H41688   3.551   7.324   4.282  1.8251  0.0124 -0.9406
  309MOL0     H41689   3.742   7.434   4.505  0.0358 -0.1917  0.1811
  309MOL0     H41690   3.583   7.498   4.502  0.7318  3.7459 -2.6819
  309MOL0     H41691   3.790   7.531   4.283 -0.2996 -1.0583 -1.1063
  309MOL0     H41692   3.618   7.537   4.252 -0.0878 -1.7662 -0.4768
  309MOL0     H41693   3.745   7.701   4.469  0.5627 -3.7819  0.9171
  309MOL0     H41694   3.580   7.722   4.417  0.8651  0.4414  1.0524
  309MOL0     H41695   3.647   7.781   4.190  2.7067  0.5640 -3.5835
  309MOL0     H41696   3.824   7.743   4.252  0.4217  0.9960  3.3325
  309MOL0     H41697   2.950   7.218   4.616 -1.6941  0.8849  1.7496
  309MOL0     H41698   2.796   7.095   4.766  0.0220 -1.2095 -2.4860
  309MOL0     H41699   3.046   6.748   5.151 -0.0295  1.2576  0.6667
  309MOL0     H41700   3.018   6.597   5.356 -0.7993  2.9573  1.6717
  309MOL0     H41701   3.481   6.286   4.340 -0.7428  0.1395  1.0373
  309MOL0     H41702   3.547   6.469   4.203  0.0217 -1.1613 -0.1872
  309MOL0     H41703   3.950   6.662   4.088  2.0494  0.4234 -0.5892
  309MOL0     H41704   4.061   6.701   3.894  0.7924  1.3072 -3.3886
  309MOL0     H41705   4.137   6.747   3.678 -0.4067  0.3110  1.6168
  309MOL0     H41706   4.108   6.858   3.551 -1.0704  0.8821  0.5144
  309MOL0     H41707   4.249   6.987   3.705  0.4004 -1.6801 -0.7987
  309MOL0     H41708   4.156   6.931   3.852 -0.2060 -0.2080 -0.7612
  309MOL0     H41709   3.965   7.051   3.788  0.2003 -0.1577 -0.1813
  309MOL0     H41710   4.037   7.076   3.621  2.4667 -1.4765 -0.7061
  309MOL0     H41711   4.178   7.190   3.855  0.1432 -2.6846  0.2892
  309MOL0     H41712   4.038   7.270   3.793 -0.0445 -0.0758 -2.2974
  309MOL0     H41713   4.343   7.340   3.494  0.8110  1.3743 -0.3676
  309MOL0     H41714   3.706   6.852   3.698 -0.5742 -0.2832 -1.1016
  309MOL0     H41715   3.569   6.788   3.919  0.2977 -0.1737 -0.2648
  310MOL0     O41716   2.232   6.410   7.998 -0.8256  0.0888 -0.2072
  310MOL0     C41717   2.342   6.467   8.023 -0.5760  0.9046  0.6408
  310MOL0     O41718   2.380   6.529   8.140 -0.4786  0.5189  0.7747
  310MOL0     C41719   2.309   6.514   8.250  0.4681  0.3486  0.2614
  310MOL0     C41720   2.272   6.379   8.289  0.1803 -0.1317 -0.9516
  310MOL0     C41721   2.195   6.367   8.406 -0.2538 -0.7484 -0.3692
  310MOL0     C41722   2.174   6.480   8.493  0.4997  0.0056 -0.0755
  310MOL0     O41723   2.102   6.465   8.607 -1.1531  0.5156  0.0495
  310MOL0     C41724   1.962   6.460   8.602  0.1457  0.1686  0.1961
  310MOL0     C41725   1.892   6.469   8.743  0.3678  0.0958  0.0931
  310MOL0     C41726   1.853   6.616   8.785 -0.5532 -0.3212  0.7518
  310MOL0     C41727   1.863   6.655   8.937 -0.2992 -0.3485 -0.8415
  310MOL0     C41728   1.865   6.815   8.955  0.1734 -0.0656  0.3387
  310MOL0     C41729   1.896   6.864   9.089  0.6125 -0.1612 -0.2227
  310MOL0     C41730   1.765   6.853   9.181 -0.4672  0.5661 -0.2342
  310MOL0     C41731   1.791   6.905   9.323  0.0704  0.0073 -0.3631
  310MOL0     N41732   1.826   6.804   9.429 -1.1406 -0.2116  0.2493
  310MOL0     C41733   1.748   6.755   9.522  0.0089  0.6807 -1.3962
  310MOL0     C41734   1.818   6.666   9.593  0.8937 -0.2334  0.4671
  310MOL0     C41735   1.759   6.594   9.707 -1.2867  0.2968 -0.0256
  310MOL0     C41736   1.856   6.496   9.783 -0.0419 -0.5574 -0.2407
  310MOL0     C41737   1.935   6.581   9.874  1.2022 -0.2659  0.0662
  310MOL0     C41738   2.019   6.489   9.955  0.4463 -0.0606 -0.2800
  310MOL0     O41739   1.943   6.370   9.996  0.0513 -0.5820 -1.1173
  310MOL0     C41740   2.016   6.282  10.072  0.6421  1.0651 -1.1021
  310MOL0     C41741   1.977   6.149  10.079 -0.2641 -0.4256  0.7951
  310MOL0     C41742   2.034   6.051  10.161 -0.5093 -0.3466  0.5713
  310MOL0     C41743   1.970   5.912  10.158 -0.4672 -0.2414  0.1696
  310MOL0     C41744   2.151   6.083  10.236 -0.3267  0.1311 -0.0625
  310MOL0     C41745   2.227   5.982  10.324 -0.6589 -1.2005 -0.3518
  310MOL0     O41746   2.171   5.876  10.361  0.2355  0.7900 -0.2277
  310MOL0     C41747   2.171   5.832  10.490 -0.2597 -0.3725 -0.1135
  310MOL0     C41748   2.194   5.912  10.604 -0.8319  0.0813  1.0423
  310MOL0     C41749   2.221   5.849  10.730  0.4762 -0.7124  0.2392
  310MOL0     C41750   2.220   5.716  10.748 -0.8950  0.0843 -0.1101
  310MOL0     O41751   2.234   5.645  10.860 -0.5326  0.0006 -0.7517
  310MOL0     C41752   2.278   5.714  10.980 -0.0143  0.2312  0.5689
  310MOL0     C41753   2.304   5.610  11.078 -0.0406 -0.3603 -0.2018
  310MOL0     C41754   2.402   5.497  11.026 -1.0267 -0.8430  0.1464
  310MOL0     C41755   2.479   5.438  11.138  0.1197 -0.8450 -0.4242
  310MOL0     C41756   2.584   5.336  11.100  0.9236  0.1251 -0.2585
  310MOL0     C41757   2.679   5.369  10.992 -1.1218  0.3522  0.0397
  310MOL0     C41758   2.788   5.259  10.987 -0.2294  0.2818 -0.4776
  310MOL0     C41759   2.888   5.269  11.107  0.3953  0.5151 -0.1861
  310MOL0    Cl41760   3.005   5.125  11.109 -0.0980 -0.0173  0.4700
  310MOL0     C41761   2.198   5.632  10.636  0.4873 -0.1381 -0.0847
  310MOL0     C41762   2.180   5.692  10.506  0.0689  0.2701 -0.4688
  310MOL0     O41763   2.343   6.008  10.347 -0.9725 -0.4779  0.3241
  310MOL0     C41764   2.192   6.218  10.233 -0.4924 -1.3186  0.0444
  310MOL0     C41765   2.122   6.318  10.159 -0.6056 -0.8291  0.2164
  310MOL0     N41766   1.945   6.651   9.538  0.2302 -0.0937 -0.4066
  310MOL0     N41767   1.941   6.723   9.431 -0.1849 -0.5774 -0.7930
  310MOL0     C41768   2.217   6.609   8.456  0.5199 -0.9669  0.0324
  310MOL0     C41769   2.292   6.627   8.331 -0.2719  0.0011 -0.5476
  310MOL0     C41770   2.445   6.463   7.910  0.9136  0.6963 -0.4705
  310MOL0     C41771   2.405   6.450   7.774 -0.8770 -0.2268  0.3854
  310MOL0     C41772   2.509   6.449   7.679  0.2580  0.3513 -0.4692
  310MOL0     C41773   2.642   6.478   7.714 -0.8882 -0.4418  0.4266
  310MOL0     O41774   2.736   6.471   7.610 -0.2960 -0.2405 -0.9854
  310MOL0     C41775   2.872   6.454   7.653  0.5897  0.4478 -0.1751
  310MOL0     C41776   2.955   6.405   7.539  0.1943 -0.9038  0.1237
  310MOL0     C41777   2.956   6.512   7.427 -0.0142 -0.4433 -1.4055
  310MOL0     C41778   3.053   6.469   7.312  0.5051 -0.0477  0.6143
  310MOL0     C41779   2.992   6.487   7.176 -0.1997  0.2933 -0.2784
  310MOL0     C41780   2.940   6.517   7.073  0.0545 -0.7598 -0.6489
  310MOL0     C41781   2.674   6.509   7.847  0.5891 -0.4261  0.0575
  310MOL0     C41782   2.577   6.485   7.941  0.5892  0.1643 -0.0127
  310MOL0     H41783   2.288   6.291   8.229 -1.8246 -0.2850 -1.3125
  310MOL0     H41784   2.148   6.274   8.439  0.5440 -2.3315 -3.3050
  310MOL0     H41785   1.921   6.534   8.532 -0.0521 -0.6121 -0.5253
  310MOL0     H41786   1.931   6.365   8.558  1.9019 -1.0438  1.4518
  310MOL0     H41787   1.809   6.401   8.724  0.7507 -0.3324 -0.0713
  310MOL0     H41788   1.953   6.420   8.819 -0.0596  0.2111  0.5155
  310MOL0     H41789   1.925   6.682   8.735 -0.6471  0.1330  1.1997
  310MOL0     H41790   1.756   6.641   8.742 -0.1113  2.0905  0.9847
  310MOL0     H41791   1.780   6.600   8.984  1.6125 -2.1706  0.6094
  310MOL0     H41792   1.952   6.610   8.982 -1.6599 -2.6228 -0.2412
  310MOL0     H41793   1.951   6.844   8.894 -0.6687  0.2370 -0.7428
  310MOL0     H41794   1.771   6.859   8.919  0.0377  1.1705  2.1028
  310MOL0     H41795   1.965   6.796   9.138  0.3183 -0.4410 -0.1920
  310MOL0     H41796   1.928   6.968   9.096 -2.8863  0.9318  3.6458
  310MOL0     H41797   1.677   6.906   9.144 -3.5593 -4.6860 -1.4763
  310MOL0     H41798   1.733   6.749   9.186  4.5100 -1.2426  4.7761
  310MOL0     H41799   1.714   6.971   9.362  2.3581  1.4683  1.9313
  310MOL0     H41800   1.878   6.970   9.325 -0.4528  0.8164 -1.8290
  310MOL0     H41801   1.649   6.795   9.540 -0.2286  0.5222 -2.2882
  310MOL0     H41802   1.728   6.678   9.769 -0.7288 -0.0178  0.6827
  310MOL0     H41803   1.673   6.532   9.680 -0.9355 -1.4226  2.4468
  310MOL0     H41804   1.916   6.441   9.710  0.7942 -2.9775  2.1212
  310MOL0     H41805   1.786   6.430   9.835 -1.6902  1.5993  0.4206
  310MOL0     H41806   1.861   6.636   9.934 -1.3009 -2.6270 -0.6680
  310MOL0     H41807   1.995   6.652   9.817  2.7744 -0.5525  1.2979
  310MOL0     H41808   2.051   6.538  10.048 -0.3952 -0.3235  0.1551
  310MOL0     H41809   2.108   6.470   9.895  2.5734  4.8128  0.8345
  310MOL0     H41810   1.893   6.128  10.014  0.1688  2.0567 -0.6824
  310MOL0     H41811   1.949   5.888  10.262  1.9360 -2.0350  0.3411
  310MOL0     H41812   1.877   5.911  10.100 -0.0670 -1.6573 -0.4896
  310MOL0     H41813   2.023   5.827  10.114 -0.5022  0.7537 -1.9621
  310MOL0     H41814   2.193   6.019  10.583  0.2911 -0.0487  0.2141
  310MOL0     H41815   2.230   5.923  10.809 -0.3027  0.0898 -0.3988
  310MOL0     H41816   2.377   5.747  10.950  1.0467 -2.6852  0.5647
  310MOL0     H41817   2.220   5.800  11.017  0.4262  1.3395 -1.1983
  310MOL0     H41818   2.344   5.655  11.169  2.0807  0.0674 -1.2993
  310MOL0     H41819   2.205   5.579  11.115 -0.5465  1.1867 -0.1994
  310MOL0     H41820   2.471   5.541  10.954  0.4791 -0.4699  1.7516
  310MOL0     H41821   2.345   5.422  10.970 -1.9382  1.6057 -2.4541
  310MOL0     H41822   2.533   5.518  11.191 -2.2247  0.9181 -0.5541
  310MOL0     H41823   2.402   5.397  11.204 -0.3383  1.9479  0.9479
  310MOL0     H41824   2.523   5.247  11.081  0.4246  0.6875 -1.3997
  310MOL0     H41825   2.634   5.312  11.194 -2.1576  0.0281  1.4817
  310MOL0     H41826   2.632   5.383  10.894 -2.3058  2.3676  0.8391
  310MOL0     H41827   2.734   5.463  11.005 -2.3487  1.2007 -0.6961
  310MOL0     H41828   2.844   5.274  10.895 -2.9179  1.0823 -2.0996
  310MOL0     H41829   2.741   5.161  10.986 -1.8216  0.9178  1.9280
  310MOL0     H41830   2.833   5.272  11.201 -1.1155 -1.5405 -0.9335
  310MOL0     H41831   2.945   5.362  11.108 -2.7346  2.5903 -1.3420
  310MOL0     H41832   2.204   5.526  10.657 -0.4683 -0.3484 -0.7903
  310MOL0     H41833   2.165   5.635  10.415  1.4905  0.6049 -0.9360
  310MOL0     H41834   2.267   6.262  10.299 -0.2572 -0.3015 -0.8571
  310MOL0     H41835   2.137   6.425  10.171 -2.2098 -0.3761 -1.3354
  310MOL0     H41836   2.197   6.696   8.517 -0.3771 -0.7393 -0.5692
  310MOL0     H41837   2.320   6.725   8.294  0.8180  1.1666  2.9941
  310MOL0     H41838   2.303   6.439   7.738 -1.5860 -1.0215  2.4622
  310MOL0     H41839   2.508   6.425   7.574 -0.0008 -3.3411  0.2315
  310MOL0     H41840   2.910   6.552   7.684  1.0158  0.2289  0.0036
  310MOL0     H41841   2.877   6.383   7.736 -2.1444 -1.0578 -1.1623
  310MOL0     H41842   2.905   6.315   7.501 -1.4448  1.0787 -2.7147
  310MOL0     H41843   3.052   6.369   7.575  1.3988  2.3431  0.4383
  310MOL0     H41844   2.966   6.615   7.461 -0.2854 -0.9273  0.2288
  310MOL0     H41845   2.858   6.522   7.379 -1.2741 -2.3237  0.6017
  310MOL0     H41846   3.055   6.360   7.315 -3.1904 -0.2372  1.9147
  310MOL0     H41847   3.150   6.514   7.336  0.4557  0.1651  0.4218
  310MOL0     H41848   2.895   6.538   6.979 -0.6700  1.5748  0.1516
  310MOL0     H41849   2.774   6.544   7.873  0.0374  1.3018  0.0049
  310MOL0     H41850   2.612   6.519   8.038  2.9279  2.6078 -1.5481
  311MOL0     O41851   2.540   5.475   4.958 -0.1847 -0.0072 -0.6828
  311MOL0     C41852   2.633   5.496   5.032 -0.4609  0.7413  0.2465
  311MOL0     O41853   2.754   5.567   4.998 -0.5476 -0.4085 -0.2553
  311MOL0     C41854   2.761   5.612   4.868  1.1964 -0.5322  0.2232
  311MOL0     C41855   2.666   5.709   4.819 -0.7971  0.3741 -0.6435
  311MOL0     C41856   2.680   5.758   4.690 -0.1124 -0.0255  0.8386
  311MOL0     C41857   2.786   5.698   4.612 -1.0274 -1.1707 -0.5186
  311MOL0     O41858   2.812   5.739   4.483  1.0536 -0.0158 -0.1657
  311MOL0     C41859   2.785   5.634   4.391  0.0918  0.1066 -0.0675
  311MOL0     C41860   2.807   5.673   4.246 -1.1942  0.3168 -0.3790
  311MOL0     C41861   2.707   5.794   4.213  0.0292  0.4914 -0.0873
  311MOL0     C41862   2.570   5.765   4.154 -0.8414 -0.0444 -0.4935
  311MOL0     C41863   2.486   5.894   4.122 -0.3262 -0.0669 -0.1458
  311MOL0     C41864   2.564   5.999   4.044  0.2438 -0.1313  0.5900
  311MOL0     C41865   2.481   6.113   3.980  0.1207  0.1632  0.5745
  311MOL0     C41866   2.536   6.173   3.846 -0.0401 -0.2032  0.5984
  311MOL0     N41867   2.480   6.304   3.823  0.1992 -0.4262 -0.3651
  311MOL0     C41868   2.352   6.339   3.775 -0.2167 -0.5335  0.6728
  311MOL0     C41869   2.336   6.477   3.785  0.2954  0.1842  0.1266
  311MOL0     C41870   2.216   6.554   3.748 -0.5971  0.0612  0.2263
  311MOL0     C41871   2.200   6.535   3.594  0.3192  0.4652  0.6650
  311MOL0     C41872   2.205   6.671   3.526 -0.6006  0.1559  0.2179
  311MOL0     C41873   2.216   6.652   3.370 -0.1138  0.1202 -0.3022
  311MOL0     O41874   2.174   6.774   3.303  0.9929 -0.0863 -0.3000
  311MOL0     C41875   2.045   6.817   3.325 -0.6072 -0.8097 -0.5118
  311MOL0     C41876   2.024   6.957   3.309  0.0641 -0.8147  0.2776
  311MOL0     C41877   1.905   7.024   3.342  0.4887  0.1861 -0.0636
  311MOL0     C41878   1.906   7.174   3.326 -1.0902  0.5688 -0.8221
  311MOL0     C41879   1.799   6.951   3.393  0.3623  0.0048 -0.0624
  311MOL0     C41880   1.665   7.000   3.425  0.1688 -0.9945  0.0070
  311MOL0     O41881   1.564   6.912   3.480 -0.1608  0.3142  0.8864
  311MOL0     C41882   1.453   6.976   3.529 -0.1644  0.5578 -0.6078
  311MOL0     C41883   1.444   7.018   3.664 -0.2734 -0.8938 -0.0873
  311MOL0     C41884   1.329   7.088   3.720 -0.7663 -0.0684 -0.0016
  311MOL0     C41885   1.224   7.106   3.645  0.4426  0.4809  0.0855
  311MOL0     O41886   1.116   7.167   3.699  0.2828  0.2675 -0.5529
  311MOL0     C41887   1.027   7.230   3.615 -1.0769  0.1120 -0.3100
  311MOL0     C41888   0.921   7.299   3.704  0.0589  0.1173 -0.1306
  311MOL0     C41889   0.796   7.360   3.634 -0.3674 -0.1723 -0.0413
  311MOL0     C41890   0.678   7.264   3.663 -0.9431  0.7514 -0.0409
  311MOL0     C41891   0.691   7.132   3.586  0.3203  0.3454  0.0465
  311MOL0     C41892   0.566   7.045   3.595  0.6211 -0.8832  1.0934
  311MOL0     C41893   0.595   6.915   3.511  1.0819  0.6204 -0.7509
  311MOL0     C41894   0.475   6.886   3.413 -1.1710 -0.3283 -0.2957
  311MOL0    Cl41895   0.511   6.742   3.312 -0.2080  0.9699  0.0157
  311MOL0     C41896   1.221   7.062   3.510 -0.7749  0.7288  0.3134
  311MOL0     C41897   1.337   7.003   3.457 -1.3028  0.0844  0.6924
  311MOL0     O41898   1.641   7.117   3.394  0.1646 -0.2456  0.4551
  311MOL0     C41899   1.813   6.806   3.396  0.3156 -0.2453  0.9415
  311MOL0     C41900   1.929   6.744   3.363  0.6398 -0.6791  1.4289
  311MOL0     N41901   2.458   6.513   3.838  0.6768  0.2710 -0.4024
  311MOL0     N41902   2.545   6.420   3.859  1.1890 -0.3797 -0.0942
  311MOL0     C41903   2.891   5.626   4.671  0.9364  0.8238  1.0448
  311MOL0     C41904   2.864   5.571   4.793 -0.1306 -0.2112 -0.8336
  311MOL0     C41905   2.619   5.449   5.168 -0.6269 -0.1868 -0.9419
  311MOL0     C41906   2.669   5.529   5.271  0.5344 -0.2376 -0.6722
  311MOL0     C41907   2.661   5.473   5.400 -0.1283  0.8971 -0.5325
  311MOL0     C41908   2.603   5.345   5.427 -0.6857  0.0588  0.5071
  311MOL0     O41909   2.604   5.289   5.551  0.0713 -0.3039  0.3405
  311MOL0     C41910   2.482   5.326   5.612 -0.3910 -1.5159 -0.6503
  311MOL0     C41911   2.496   5.273   5.747  0.4754  0.5577  0.5798
  311MOL0     C41912   2.616   5.325   5.829 -0.0185  0.1179  0.8702
  311MOL0     C41913   2.596   5.476   5.874 -0.2021  0.3248 -0.5151
  311MOL0     C41914   2.666   5.567   5.782 -0.1661  0.0058 -0.0567
  311MOL0     C41915   2.709   5.655   5.701  0.1114 -0.0658 -0.2064
  311MOL0     C41916   2.562   5.270   5.318 -0.3563 -0.6821  0.2245
  311MOL0     C41917   2.572   5.327   5.187  0.1750 -0.3833 -1.2671
  311MOL0     H41918   2.591   5.755   4.884  0.3126  1.5961 -0.1864
  311MOL0     H41919   2.614   5.829   4.640  0.7586 -0.0022 -0.3118
  311MOL0     H41920   2.849   5.549   4.413 -1.0326 -0.2561  2.0738
  311MOL0     H41921   2.693   5.577   4.403  0.8568 -1.0978  0.2573
  311MOL0     H41922   2.909   5.702   4.220 -0.8354 -0.5809  0.0163
  311MOL0     H41923   2.789   5.582   4.189  0.2098 -2.1726  2.8135
  311MOL0     H41924   2.694   5.854   4.303  4.0640 -1.0929  1.8047
  311MOL0     H41925   2.754   5.854   4.134 -0.7470  3.3968  1.5161
  311MOL0     H41926   2.569   5.716   4.057 -2.1180  3.7512 -2.6244
  311MOL0     H41927   2.532   5.696   4.230  3.1879 -1.0959  0.8237
  311MOL0     H41928   2.400   5.863   4.062 -0.6220 -0.4622  0.4702
  311MOL0     H41929   2.452   5.936   4.217  3.5031 -1.2450  1.9627
  311MOL0     H41930   2.639   6.055   4.101 -2.2565  2.7870  1.3341
  311MOL0     H41931   2.611   5.944   3.962 -0.5631  1.5429 -1.1026
  311MOL0     H41932   2.381   6.072   3.967 -0.1291  1.1029 -0.6877
  311MOL0     H41933   2.483   6.192   4.056  0.4696  0.4456  0.2772
  311MOL0     H41934   2.534   6.103   3.762  1.3818 -0.5765  0.8459
  311MOL0     H41935   2.642   6.190   3.869  0.3461  1.1620 -1.9099
  311MOL0     H41936   2.267   6.273   3.761 -0.7685 -1.1270  5.2494
  311MOL0     H41937   2.125   6.519   3.797  0.0646 -0.2129  1.2942
  311MOL0     H41938   2.233   6.657   3.782  1.3117  0.4286 -1.6483
  311MOL0     H41939   2.106   6.484   3.573  1.7141 -1.6984 -0.8480
  311MOL0     H41940   2.278   6.466   3.557 -1.4042 -1.0658 -0.2904
  311MOL0     H41941   2.294   6.724   3.562 -0.6031  1.7775 -1.9452
  311MOL0     H41942   2.111   6.719   3.556 -1.1776 -0.8679  0.1027
  311MOL0     H41943   2.150   6.568   3.350 -1.8007  1.2326  0.3708
  311MOL0     H41944   2.322   6.629   3.355 -0.5263 -2.6953  0.6093
  311MOL0     H41945   2.114   7.011   3.280  0.7758 -1.0795  1.8655
  311MOL0     H41946   1.894   7.236   3.415 -1.0475  1.1550 -1.2187
  311MOL0     H41947   2.004   7.200   3.285 -1.1984  2.1216 -0.1858
  311MOL0     H41948   1.837   7.190   3.243 -2.1117 -1.1034 -0.3348
  311MOL0     H41949   1.530   7.001   3.729 -0.9997 -0.0002  1.1686
  311MOL0     H41950   1.343   7.116   3.824 -0.4729 -1.0731  0.2441
  311MOL0     H41951   1.088   7.308   3.568 -0.9445  1.1277  1.4712
  311MOL0     H41952   0.980   7.157   3.548 -2.9712 -0.4442  1.4977
  311MOL0     H41953   0.886   7.231   3.782 -0.6175 -0.7766 -1.1661
  311MOL0     H41954   0.977   7.381   3.749 -0.2316  1.2663 -1.7800
  311MOL0     H41955   0.805   7.372   3.526 -0.9771  0.4417 -0.0313
  311MOL0     H41956   0.785   7.454   3.689  0.3650 -1.2106  1.9714
  311MOL0     H41957   0.665   7.249   3.771 -1.2533 -2.9917 -0.4607
  311MOL0     H41958   0.591   7.319   3.626 -1.6979  0.5678  1.3668
  311MOL0     H41959   0.777   7.079   3.626  1.5375  2.2437  0.0370
  311MOL0     H41960   0.715   7.151   3.481  0.7980 -0.7872 -0.0632
  311MOL0     H41961   0.549   7.027   3.701 -2.0546 -0.0219  0.8866
  311MOL0     H41962   0.473   7.095   3.564 -1.0983 -1.4585  4.7618
  311MOL0     H41963   0.623   6.832   3.577 -1.1636  2.5982  3.0587
  311MOL0     H41964   0.683   6.933   3.448  0.3383 -0.1613 -2.0446
  311MOL0     H41965   0.460   6.972   3.347 -1.2622 -2.2015 -2.8902
  311MOL0     H41966   0.389   6.844   3.465  0.2584 -1.9638  0.8563
  311MOL0     H41967   1.138   7.069   3.440 -0.3627  1.6433 -0.1014
  311MOL0     H41968   1.347   6.990   3.350  1.0657 -1.5309  1.0298
  311MOL0     H41969   1.728   6.741   3.412 -0.2043  0.5853  1.6909
  311MOL0     H41970   1.941   6.636   3.361  2.2766 -0.5485  2.6256
  311MOL0     H41971   2.976   5.592   4.613 -2.0627 -1.5849 -2.3944
  311MOL0     H41972   2.948   5.514   4.831  0.7737  2.0881  0.8367
  311MOL0     H41973   2.726   5.620   5.257 -1.9970  1.2178 -2.2995
  311MOL0     H41974   2.696   5.531   5.485 -2.3624 -0.8928  1.7636
  311MOL0     H41975   2.472   5.434   5.606 -0.9648 -1.5300 -0.1023
  311MOL0     H41976   2.390   5.292   5.564 -1.3912  1.4344 -0.9763
  311MOL0     H41977   2.495   5.164   5.737  0.6994  0.5390  0.7600
  311MOL0     H41978   2.402   5.299   5.797 -0.2876 -1.5665  0.3356
  311MOL0     H41979   2.710   5.304   5.776  0.7139 -0.6473  2.3840
  311MOL0     H41980   2.634   5.255   5.912 -0.8123 -1.4624 -0.2345
  311MOL0     H41981   2.620   5.497   5.978  2.2822  2.1903 -1.3397
  311MOL0     H41982   2.489   5.494   5.864  0.0013  1.7785 -0.2982
  311MOL0     H41983   2.737   5.715   5.617  0.8925 -3.6211 -2.7239
  311MOL0     H41984   2.530   5.171   5.345 -1.5807 -0.1184  0.8851
  311MOL0     H41985   2.533   5.260   5.112 -0.7410 -0.5695 -0.6396
  312MOL0     O41986   9.076   9.490   4.765 -0.6184 -0.1314 -0.2169
  312MOL0     C41987   9.105   9.405   4.846 -0.3679  0.3154 -0.7182
  312MOL0     O41988   9.071   9.268   4.838  0.7708  0.0139  0.0311
  312MOL0     C41989   8.980   9.231   4.743  0.8286  0.3140  0.3475
  312MOL0     C41990   9.008   9.166   4.623  0.5638  0.3364 -0.5746
  312MOL0     C41991   8.915   9.128   4.533  0.4354 -0.6079 -0.3604
  312MOL0     C41992   8.779   9.165   4.551  0.6360 -0.3556  0.8458
  312MOL0     O41993   8.684   9.141   4.455  0.1481  0.8247 -0.1888
  312MOL0     C41994   8.586   9.044   4.504 -0.3758 -0.3253  0.3190
  312MOL0     C41995   8.513   9.002   4.373  0.3905  0.3368 -1.1720
  312MOL0     C41996   8.376   8.933   4.408  0.9197  0.3713  0.5509
  312MOL0     C41997   8.297   8.865   4.282  0.5807 -0.8873  0.0438
  312MOL0     C41998   8.268   8.964   4.170  0.1491  0.2620 -0.8633
  312MOL0     C41999   8.220   8.906   4.045  0.5343 -0.0779  0.3888
  312MOL0     C42000   8.152   9.016   3.957  0.7152  0.6299  0.3560
  312MOL0     C42001   8.050   9.108   4.031  0.0110 -0.3958  0.5192
  312MOL0     N42002   7.994   9.195   3.931  0.7792  0.7053  0.2295
  312MOL0     C42003   8.038   9.207   3.797 -0.0742 -0.2964 -0.1981
  312MOL0     C42004   7.962   9.311   3.748  0.3700 -0.3970 -0.5632
  312MOL0     C42005   7.984   9.351   3.602 -0.5435  0.0981  0.7268
  312MOL0     C42006   7.958   9.500   3.560  1.2079  0.5194  0.8530
  312MOL0     C42007   7.955   9.517   3.405  0.3982  0.2123 -0.4126
  312MOL0     C42008   8.079   9.463   3.330  0.8181 -0.4663  0.4847
  312MOL0     O42009   8.083   9.520   3.200  0.1148  0.0035 -0.2924
  312MOL0     C42010   7.986   9.475   3.113  0.2994  0.3173  0.3002
  312MOL0     C42011   7.995   9.349   3.057  0.5780  0.0651  0.5221
  312MOL0     C42012   7.914   9.307   2.957  0.2269  0.4402  1.1217
  312MOL0     C42013   7.951   9.175   2.880 -0.2213 -0.1309  0.3762
  312MOL0     C42014   7.816   9.392   2.903  0.0219  0.1878  1.0086
  312MOL0     C42015   7.729   9.365   2.788  0.4129 -0.1895  0.0270
  312MOL0     O42016   7.688   9.240   2.776 -0.2586  0.2545  0.1856
  312MOL0     C42017   7.642   9.193   2.651  0.1722 -0.0287 -0.1403
  312MOL0     C42018   7.648   9.255   2.526 -0.2724 -0.1191  0.1912
  312MOL0     C42019   7.586   9.209   2.418  0.4640 -0.1141  0.1251
  312MOL0     C42020   7.507   9.094   2.437 -0.5836 -0.3556  1.7446
  312MOL0     O42021   7.425   9.043   2.340 -0.3719  0.5514  0.5732
  312MOL0     C42022   7.441   9.087   2.209 -0.5256  0.0360 -0.1676
  312MOL0     C42023   7.368   8.990   2.120  0.2150 -0.3378 -0.3728
  312MOL0     C42024   7.441   8.853   2.122  0.5340 -0.4101 -0.1232
  312MOL0     C42025   7.363   8.765   2.025 -0.3774 -0.0663 -0.1984
  312MOL0     C42026   7.448   8.640   1.982  0.1449 -0.5595  0.6728
  312MOL0     C42027   7.477   8.541   2.102  0.9750  0.4908 -0.4853
  312MOL0     C42028   7.531   8.414   2.039  0.5799 -0.2428 -0.2808
  312MOL0     C42029   7.683   8.417   1.978  0.0000  0.0411 -0.1766
  312MOL0    Cl42030   7.788   8.419   2.124  0.5007 -0.5661  0.0034
  312MOL0     C42031   7.502   9.025   2.552  0.8181 -0.6565 -0.3506
  312MOL0     C42032   7.562   9.077   2.667  0.8995 -0.3526  0.1467
  312MOL0     O42033   7.682   9.459   2.720 -0.5174 -0.7418 -0.0021
  312MOL0     C42034   7.804   9.527   2.960  0.5673  0.1333 -0.1959
  312MOL0     C42035   7.889   9.563   3.069  0.7645 -0.8334  0.5755
  312MOL0     N42036   7.864   9.342   3.839  0.7211 -0.0227  0.6862
  312MOL0     N42037   7.872   9.257   3.935 -0.2608 -0.0403 -0.2332
  312MOL0     C42038   8.736   9.222   4.673 -0.3166 -0.4766  0.0453
  312MOL0     C42039   8.843   9.252   4.771 -0.1802 -0.2428  0.6696
  312MOL0     C42040   9.195   9.434   4.955  0.2029  0.6435 -1.0073
  312MOL0     C42041   9.289   9.534   4.948 -0.9793 -1.1306 -0.0260
  312MOL0     C42042   9.378   9.554   5.049 -0.7323  0.0929  0.0331
  312MOL0     C42043   9.374   9.478   5.167  0.0907 -0.1913  0.4543
  312MOL0     O42044   9.453   9.494   5.278 -0.1138  0.3775  0.2113
  312MOL0     C42045   9.535   9.612   5.295 -0.0992 -0.0805 -0.1363
  312MOL0     C42046   9.616   9.580   5.421  0.7104 -0.0623  0.2090
  312MOL0     C42047   9.702   9.693   5.477  0.3312 -0.3636  0.3813
  312MOL0     C42048   9.627   9.794   5.575 -0.0213  0.2655 -0.3970
  312MOL0     C42049   9.506   9.748   5.638 -0.6099 -0.7064 -0.5534
  312MOL0     C42050   9.418   9.690   5.685  0.7731 -0.3857  0.0996
  312MOL0     C42051   9.289   9.371   5.174 -0.5317 -0.7122  0.2451
  312MOL0     C42052   9.206   9.339   5.066  0.5450 -0.7195 -0.0145
  312MOL0     H42053   9.111   9.143   4.599 -0.1028 -2.7255 -0.8719
  312MOL0     H42054   8.942   9.080   4.440 -1.8493 -0.5010 -1.1536
  312MOL0     H42055   8.625   8.952   4.550 -4.4326 -1.0204  2.8759
  312MOL0     H42056   8.513   9.090   4.571  0.5428  1.0605  0.4031
  312MOL0     H42057   8.488   9.093   4.318 -2.1642  1.2681  1.2496
  312MOL0     H42058   8.569   8.932   4.310  1.6278 -2.4419  2.6022
  312MOL0     H42059   8.380   8.844   4.472 -1.9608 -1.3167 -1.3426
  312MOL0     H42060   8.306   9.000   4.459 -2.9790 -1.2038 -2.1801
  312MOL0     H42061   8.348   8.776   4.245 -0.2210 -0.6064 -1.8797
  312MOL0     H42062   8.210   8.814   4.326 -0.3097  1.1621  0.7756
  312MOL0     H42063   8.190   9.021   4.222 -0.6663  0.0540 -1.8269
  312MOL0     H42064   8.358   9.023   4.155  1.4488 -1.4622 -0.2638
  312MOL0     H42065   8.290   8.847   3.985  0.4117  0.5672 -0.4053
  312MOL0     H42066   8.141   8.834   4.068  1.4785 -1.1799  0.2948
  312MOL0     H42067   8.241   9.073   3.927  1.3670 -0.6209 -0.1664
  312MOL0     H42068   8.103   8.972   3.870 -0.9096 -4.2761  3.3810
  312MOL0     H42069   8.106   9.170   4.102 -0.7215  0.8871  0.0015
  312MOL0     H42070   7.970   9.050   4.080 -0.7372  2.8380  3.5327
  312MOL0     H42071   8.121   9.153   3.753  4.3387  2.6178  3.5817
  312MOL0     H42072   8.089   9.332   3.577 -0.6101 -1.4490  1.5022
  312MOL0     H42073   7.920   9.284   3.544 -0.0601 -3.1955  3.6973
  312MOL0     H42074   8.034   9.568   3.598  2.6492  1.2323 -2.8806
  312MOL0     H42075   7.858   9.525   3.597 -0.2152 -1.5823 -1.3044
  312MOL0     H42076   7.943   9.625   3.392  4.4422  0.8975  0.4405
  312MOL0     H42077   7.872   9.458   3.363 -2.0108  2.2660  1.1675
  312MOL0     H42078   8.075   9.353   3.328  0.8912 -0.4845  0.9821
  312MOL0     H42079   8.173   9.488   3.382  0.5298  0.4009  0.6041
  312MOL0     H42080   8.082   9.286   3.070 -1.9599 -3.3549  3.0261
  312MOL0     H42081   7.903   9.086   2.922 -0.7102 -0.6854 -1.2869
  312MOL0     H42082   7.926   9.179   2.774 -4.0447 -1.1195  1.0737
  312MOL0     H42083   8.058   9.160   2.892 -0.2728  0.0113  1.0694
  312MOL0     H42084   7.716   9.339   2.512 -2.2947  1.4186 -0.7803
  312MOL0     H42085   7.580   9.282   2.338 -0.9034  1.5356  1.6588
  312MOL0     H42086   7.386   9.180   2.192 -3.0905 -1.3355  0.0349
  312MOL0     H42087   7.547   9.091   2.184  0.1255 -3.8799  1.1561
  312MOL0     H42088   7.262   8.976   2.143  0.4511 -2.6564 -0.4789
  312MOL0     H42089   7.375   9.031   2.019  1.2449  0.1149 -0.1254
  312MOL0     H42090   7.440   8.801   2.219  3.1494 -0.8634 -0.2419
  312MOL0     H42091   7.547   8.862   2.096  0.6458  1.6080  0.8571
  312MOL0     H42092   7.268   8.740   2.073  0.4749  0.7257  2.0303
  312MOL0     H42093   7.338   8.821   1.934  3.7669  0.8731 -0.9725
  312MOL0     H42094   7.543   8.677   1.941 -2.4810  4.3974 -1.7688
  312MOL0     H42095   7.384   8.603   1.902  0.2180  0.0005  0.3508
  312MOL0     H42096   7.551   8.587   2.169  1.8840  0.2535 -1.2917
  312MOL0     H42097   7.377   8.531   2.143 -0.6286  2.3040 -3.5720
  312MOL0     H42098   7.466   8.391   1.955  1.3931 -1.9949 -0.4746
  312MOL0     H42099   7.518   8.340   2.119  0.4146  3.2194  3.1833
  312MOL0     H42100   7.691   8.510   1.921 -0.8064  1.0458  1.2811
  312MOL0     H42101   7.709   8.331   1.916 -0.3899  1.5918 -2.6792
  312MOL0     H42102   7.429   8.945   2.553 -1.3748  1.2173  1.1178
  312MOL0     H42103   7.559   9.041   2.769  0.4160 -0.8482 -0.0371
  312MOL0     H42104   7.733   9.606   2.942  1.7545  1.8084  1.9481
  312MOL0     H42105   7.874   9.665   3.104  2.2205 -0.4859  0.2476
  312MOL0     H42106   8.630   9.228   4.698 -0.2914 -1.2829  0.3532
  312MOL0     H42107   8.811   9.288   4.868 -0.0128  0.9464  0.3094
  312MOL0     H42108   9.294   9.596   4.860 -0.0694 -0.3956  0.5207
  312MOL0     H42109   9.453   9.632   5.040  1.2618 -1.8587 -1.3035
  312MOL0     H42110   9.608   9.631   5.216 -2.1708  1.9057 -1.7004
  312MOL0     H42111   9.463   9.694   5.297  0.1366  0.1802 -1.4814
  312MOL0     H42112   9.672   9.488   5.402  0.0444  0.0781 -3.1496
  312MOL0     H42113   9.534   9.549   5.487 -0.4608  0.7246 -0.8269
  312MOL0     H42114   9.745   9.744   5.391  2.3318 -4.4087 -1.2707
  312MOL0     H42115   9.785   9.649   5.532  0.6707 -1.1518 -0.7260
  312MOL0     H42116   9.587   9.883   5.525 -1.4717 -0.9897 -1.5365
  312MOL0     H42117   9.692   9.819   5.659 -0.6059 -0.3804  0.2609
  312MOL0     H42118   9.353   9.626   5.741  1.4131  0.1056  1.4231
  312MOL0     H42119   9.298   9.313   5.266  0.6782  0.0848  0.6551
  312MOL0     H42120   9.143   9.251   5.078  0.1147 -0.2494  1.3319
  313MOL0     O42121  10.061   1.058   1.703 -0.8593 -0.7554 -0.4507
  313MOL0     C42122  10.181   1.089   1.708  0.4270 -1.0478  0.3631
  313MOL0     O42123  10.252   1.121   1.591 -0.7021 -0.5171 -0.1636
  313MOL0     C42124  10.186   1.156   1.476 -0.1733 -0.3871  0.3182
  313MOL0     C42125  10.134   1.069   1.386  0.1143 -0.5645  0.9252
  313MOL0     C42126  10.068   1.114   1.263 -0.0750 -0.5088 -0.1992
  313MOL0     C42127  10.034   1.248   1.248 -0.3762  0.5088  0.0926
  313MOL0     O42128   9.960   1.286   1.134 -0.0090  0.9914 -1.4350
  313MOL0     C42129   9.901   1.419   1.135  0.2753 -0.3720 -1.0097
  313MOL0     C42130   9.990   1.544   1.079 -0.6891 -0.3070 -0.3048
  313MOL0     C42131   9.921   1.681   1.100  0.1035 -0.3002  0.0582
  313MOL0     C42132  10.030   1.786   1.114 -0.7702  0.1463  0.2152
  313MOL0     C42133   9.980   1.915   1.061 -0.5128  0.2410 -0.4170
  313MOL0     C42134  10.085   2.022   1.087  0.2753 -0.2413  0.6607
  313MOL0     C42135  10.047   2.165   1.042  0.2513 -0.4603 -0.8549
  313MOL0     C42136  10.173   2.261   1.051  0.0943 -0.0364 -0.0413
  313MOL0     N42137  10.281   2.227   0.958 -0.5851  0.2734 -0.4137
  313MOL0     C42138  10.385   2.140   0.982  0.4681  0.4954  0.2936
  313MOL0     C42139  10.465   2.142   0.874  0.0660 -0.8622 -0.2541
  313MOL0     C42140  10.598   2.070   0.853  1.2116 -0.0743 -1.0907
  313MOL0     C42141  10.593   1.920   0.826  0.2343 -0.1626 -0.6504
  313MOL0     C42142  10.513   1.869   0.709 -0.0736  0.6087  0.5272
  313MOL0     C42143  10.367   1.848   0.743  0.1758 -1.1204 -0.0630
  313MOL0     O42144  10.296   1.807   0.624 -0.8173 -0.8527 -0.3611
  313MOL0     C42145  10.253   1.673   0.621 -0.2051 -0.0844 -0.7562
  313MOL0     C42146  10.333   1.567   0.574  0.1454  0.1703  0.0593
  313MOL0     C42147  10.292   1.437   0.588  0.6015 -0.6892  0.6754
  313MOL0     C42148  10.375   1.328   0.530  0.3431  0.2301 -0.0821
  313MOL0     C42149  10.161   1.405   0.643 -0.4523 -0.1238 -1.1674
  313MOL0     C42150  10.099   1.269   0.671  0.1622  1.1194 -0.1090
  313MOL0     O42151   9.961   1.259   0.668 -0.4282 -0.0789 -0.4161
  313MOL0     C42152   9.903   1.141   0.719 -1.0482 -0.0789  0.6533
  313MOL0     C42153   9.913   1.103   0.851  0.5100  0.4206  0.1653
  313MOL0     C42154   9.854   0.988   0.897 -0.5397  0.8655  0.2996
  313MOL0     C42155   9.785   0.903   0.808 -1.0873  0.8217 -0.4897
  313MOL0     O42156   9.722   0.798   0.867 -0.1475  0.2940  0.5015
  313MOL0     C42157   9.602   0.759   0.803 -1.4960 -0.3639  0.8558
  313MOL0     C42158   9.522   0.672   0.894  0.5847 -0.6168 -1.1597
  313MOL0     C42159   9.410   0.590   0.835 -0.3655  0.7173  0.2896
  313MOL0     C42160   9.285   0.664   0.782  0.0109 -0.0016 -0.6574
  313MOL0     C42161   9.182   0.567   0.727 -0.1624  1.2581  1.3617
  313MOL0     C42162   9.135   0.456   0.820  0.4343 -0.9003  0.3782
  313MOL0     C42163   9.009   0.396   0.762  0.5500 -0.4642  0.2865
  313MOL0     C42164   8.949   0.294   0.855  0.5832 -0.1727  0.4179
  313MOL0    Cl42165   9.039   0.139   0.848 -0.1461  0.3653  0.0218
  313MOL0     C42166   9.785   0.937   0.665 -0.9932  0.4095  0.2988
  313MOL0     C42167   9.852   1.051   0.624  0.2687 -0.4845  0.0532
  313MOL0     O42168  10.172   1.165   0.684 -0.0388 -0.2159 -0.5066
  313MOL0     C42169  10.075   1.515   0.672 -0.4073  0.4075  1.8270
  313MOL0     C42170  10.124   1.644   0.663  0.1550  0.5435 -0.0070
  313MOL0     N42171  10.404   2.224   0.782 -0.3673 -0.3745  0.2560
  313MOL0     N42172  10.294   2.280   0.832 -0.7089  0.1729  0.9983
  313MOL0     C42173  10.095   1.349   1.335 -0.5916  0.1347  0.6115
  313MOL0     C42174  10.179   1.297   1.442  0.2344  0.4136 -0.0560
  313MOL0     C42175  10.241   1.093   1.844 -0.1106 -0.0962  0.5771
  313MOL0     C42176  10.165   1.048   1.958  0.3590 -1.2120 -0.0259
  313MOL0     C42177  10.232   1.014   2.073 -0.0742 -0.0180  0.1330
  313MOL0     C42178  10.373   1.042   2.087  0.3737 -0.0952 -0.2941
  313MOL0     O42179  10.453   1.013   2.196  0.0482  0.0879 -0.7819
  313MOL0     C42180  10.389   0.965   2.317 -0.8846  0.2666  0.2997
  313MOL0     C42181  10.496   0.887   2.398  0.4404  0.0360  0.6555
  313MOL0     C42182  10.551   0.765   2.321  0.6180  0.4326  0.3790
  313MOL0     C42183  10.674   0.710   2.387 -0.0216  0.1183 -0.2152
  313MOL0     C42184  10.664   0.568   2.406  0.1815 -0.5007  0.4252
  313MOL0     C42185  10.667   0.446   2.421 -0.0078  0.5017 -0.5758
  313MOL0     C42186  10.441   1.097   1.978  0.0448  0.3023  1.2596
  313MOL0     C42187  10.377   1.114   1.856 -0.9423  0.4696  0.8768
  313MOL0     H42188  10.144   0.963   1.409 -0.2612 -0.5756  1.0430
  313MOL0     H42189  10.027   1.036   1.200 -1.0707  0.2395 -0.5086
  313MOL0     H42190   9.807   1.417   1.078 -1.3143  1.1993  1.3724
  313MOL0     H42191   9.871   1.442   1.237  3.5640 -0.7264  0.1406
  313MOL0     H42192  10.089   1.542   1.125 -0.3153 -3.8828 -0.9783
  313MOL0     H42193  10.014   1.538   0.972  2.2038  2.6938  0.0050
  313MOL0     H42194   9.852   1.703   1.018 -0.1368  1.0825  0.5943
  313MOL0     H42195   9.866   1.682   1.195  1.3301 -0.8253  0.7953
  313MOL0     H42196  10.048   1.798   1.221 -0.4536 -0.1589  0.1972
  313MOL0     H42197  10.118   1.747   1.063  0.3656 -1.2991  3.0319
  313MOL0     H42198   9.969   1.899   0.953 -1.4884  1.4514 -0.5203
  313MOL0     H42199   9.883   1.940   1.105  0.5004  2.3208  0.7538
  313MOL0     H42200  10.105   2.020   1.195  1.2216  0.6271  0.5184
  313MOL0     H42201  10.178   1.994   1.038 -1.2280 -0.0482 -2.5736
  313MOL0     H42202  10.025   2.175   0.935  1.0870  4.7132 -0.7970
  313MOL0     H42203   9.967   2.209   1.104 -1.2489 -1.4998 -1.9851
  313MOL0     H42204  10.224   2.250   1.147 -0.9819 -3.2910  0.2752
  313MOL0     H42205  10.135   2.362   1.035  0.5769  0.3269  1.0348
  313MOL0     H42206  10.406   2.080   1.070  2.4221  0.3349 -0.2250
  313MOL0     H42207  10.642   2.123   0.768 -0.2788 -1.4844 -2.8242
  313MOL0     H42208  10.656   2.085   0.944  2.0393  0.2617 -1.6634
  313MOL0     H42209  10.556   1.872   0.917 -1.9538  1.5831 -0.5338
  313MOL0     H42210  10.691   1.876   0.802  0.7073  0.6896 -0.3183
  313MOL0     H42211  10.556   1.771   0.684  1.3491  1.8144 -2.0578
  313MOL0     H42212  10.522   1.942   0.628 -2.6799  2.1877  1.5642
  313MOL0     H42213  10.313   1.936   0.779 -0.4403 -1.4545 -0.1634
  313MOL0     H42214  10.351   1.778   0.825 -0.0604 -1.5671 -0.4855
  313MOL0     H42215  10.434   1.589   0.542 -0.4246 -2.6997 -4.7125
  313MOL0     H42216  10.468   1.368   0.490  0.9645  0.9912  1.9966
  313MOL0     H42217  10.406   1.266   0.614 -1.5199 -1.8175 -0.8169
  313MOL0     H42218  10.323   1.280   0.446 -0.9969 -0.2287  0.9612
  313MOL0     H42219   9.970   1.168   0.917 -0.1982  1.5679 -0.3160
  313MOL0     H42220   9.862   0.956   1.001  2.2909 -5.9229 -1.4113
  313MOL0     H42221   9.551   0.852   0.777  0.4864  0.6426  0.3615
  313MOL0     H42222   9.616   0.691   0.717 -3.3458 -1.2069  1.1895
  313MOL0     H42223   9.588   0.599   0.942  2.0612  1.0009 -0.6084
  313MOL0     H42224   9.484   0.728   0.980 -0.9137 -2.3768 -0.6159
  313MOL0     H42225   9.385   0.531   0.923  1.7622 -3.3874 -1.5916
  313MOL0     H42226   9.451   0.523   0.759  0.8641  0.1041  1.4674
  313MOL0     H42227   9.236   0.719   0.862 -1.0002 -2.8469  0.8034
  313MOL0     H42228   9.329   0.731   0.707 -0.4211  0.2109 -0.7207
  313MOL0     H42229   9.218   0.510   0.640 -2.0027  0.9773  0.7463
  313MOL0     H42230   9.100   0.630   0.692  0.1248  1.4350  1.0033
  313MOL0     H42231   9.213   0.380   0.832  0.9917 -0.2441  1.0594
  313MOL0     H42232   9.110   0.498   0.918  1.2579  2.3271 -0.6540
  313MOL0     H42233   9.025   0.349   0.665  1.3682  1.1782 -0.4205
  313MOL0     H42234   8.934   0.474   0.744 -0.1030 -1.0054  0.6094
  313MOL0     H42235   8.846   0.280   0.822  0.1142 -1.9449  2.3722
  313MOL0     H42236   8.936   0.358   0.943  2.3335  2.8179 -1.3462
  313MOL0     H42237   9.762   0.864   0.588  1.2851  0.4931 -0.5490
  313MOL0     H42238   9.869   1.081   0.521 -1.8188  0.7515  0.0150
  313MOL0     H42239   9.976   1.503   0.717 -0.2517  2.5731  2.8743
  313MOL0     H42240  10.053   1.723   0.686  0.1209  0.7301 -0.7359
  313MOL0     H42241  10.081   1.456   1.325 -1.1204  0.0861  0.8039
  313MOL0     H42242  10.227   1.366   1.510 -0.1010  0.8379 -0.2472
  313MOL0     H42243  10.058   1.035   1.948  0.3084 -0.2411 -1.0088
  313MOL0     H42244  10.177   0.974   2.158  0.7608 -0.9793  0.2386
  313MOL0     H42245  10.356   1.055   2.370  1.2314  0.4752  1.3964
  313MOL0     H42246  10.299   0.904   2.304 -1.9899  2.1399 -1.2870
  313MOL0     H42247  10.448   0.842   2.487  0.8118 -0.7554  0.4672
  313MOL0     H42248  10.577   0.955   2.426  0.1895  1.2759 -1.4670
  313MOL0     H42249  10.572   0.775   2.215 -3.4350 -0.5757 -0.6859
  313MOL0     H42250  10.472   0.689   2.326 -0.2059  1.2553  0.1110
  313MOL0     H42251  10.700   0.764   2.479 -1.5282 -0.9601  0.8910
  313MOL0     H42252  10.761   0.729   2.323  0.3155 -0.3873  0.0858
  313MOL0     H42253  10.684   0.341   2.436 -3.0824 -0.0748 -0.4334
  313MOL0     H42254  10.544   1.130   1.988  0.1321  1.1622 -1.6231
  313MOL0     H42255  10.427   1.156   1.769 -1.1902 -1.1915 -0.1135
  314MOL0     O42256   0.243   7.860   7.747  0.0734 -0.2905  0.8333
  314MOL0     C42257   0.264   7.888   7.856 -0.2514 -0.7068 -0.9307
  314MOL0     O42258   0.232   8.008   7.925 -0.1171  0.6102 -0.0570
  314MOL0     C42259   0.188   8.121   7.851  0.7087 -0.9418 -0.6257
  314MOL0     C42260   0.207   8.249   7.906  0.9815  0.6539 -0.5190
  314MOL0     C42261   0.159   8.369   7.851 -0.2275 -0.1511  0.5543
  314MOL0     C42262   0.086   8.359   7.727 -0.0794 -0.1442 -0.8611
  314MOL0     O42263   0.042   8.457   7.647  0.8418 -0.2995  0.6833
  314MOL0     C42264   0.007   8.588   7.694 -0.2182 -0.5663 -0.0194
  314MOL0     C42265  -0.129   8.638   7.630 -0.6021  1.3690 -0.4639
  314MOL0     C42266  -0.230   8.519   7.592 -1.3830  0.0988 -0.0947
  314MOL0     C42267  -0.370   8.557   7.565 -0.2632  0.6795  0.2269
  314MOL0     C42268  -0.473   8.452   7.527 -0.0735  0.1955 -0.4177
  314MOL0     C42269  -0.631   8.497   7.524 -0.6347  0.7616  0.0007
  314MOL0     C42270  -0.664   8.612   7.431  0.4129 -0.1168  0.3425
  314MOL0     C42271  -0.677   8.560   7.282 -0.1799 -0.3993 -0.7610
  314MOL0     N42272  -0.696   8.675   7.189  0.2316 -0.6365  0.0769
  314MOL0     C42273  -0.774   8.660   7.076  0.1400 -0.6051 -1.3271
  314MOL0     C42274  -0.767   8.778   7.015 -0.6363  0.4571  0.4864
  314MOL0     C42275  -0.845   8.813   6.890 -0.1839 -0.5160 -0.3482
  314MOL0     C42276  -0.793   8.756   6.757  0.5850  1.2309  0.1714
  314MOL0     C42277  -0.852   8.794   6.622 -0.8157  0.7434 -0.6072
  314MOL0     C42278  -0.788   8.732   6.501 -0.4866 -0.2712 -0.8686
  314MOL0     O42279  -0.646   8.770   6.498 -0.1583  0.4870  0.9521
  314MOL0     C42280  -0.552   8.686   6.432  0.3652  0.0397  0.1222
  314MOL0     C42281  -0.417   8.719   6.425 -0.0535  0.5461  0.2443
  314MOL0     C42282  -0.324   8.646   6.348 -0.9216 -1.3337 -0.2494
  314MOL0     C42283  -0.182   8.694   6.350 -0.9452 -1.1374  0.5392
  314MOL0     C42284  -0.362   8.528   6.285 -0.6343  0.1258 -0.0201
  314MOL0     C42285  -0.272   8.442   6.201  0.8538 -0.4486  0.1355
  314MOL0     O42286  -0.332   8.369   6.093  0.0214  0.5389 -0.0205
  314MOL0     C42287  -0.248   8.275   6.035 -1.2534  0.6421  0.4766
  314MOL0     C42288  -0.284   8.140   6.046 -0.5678  0.3681 -0.2957
  314MOL0     C42289  -0.210   8.040   5.980 -0.6005 -0.0347  0.8946
  314MOL0     C42290  -0.090   8.073   5.920  0.5886 -0.4652 -0.7626
  314MOL0     O42291   0.003   7.974   5.890  0.0747 -0.2959  0.6113
  314MOL0     C42292   0.139   8.005   5.870 -0.9057  0.3008 -0.3219
  314MOL0     C42293   0.231   7.873   5.888  0.1650 -0.3976 -0.0895
  314MOL0     C42294   0.188   7.760   5.789  0.0660  0.6991 -0.8509
  314MOL0     C42295   0.272   7.630   5.801 -0.2177 -0.3854 -0.6355
  314MOL0     C42296   0.231   7.515   5.717 -0.0214  0.5126  0.9704
  314MOL0     C42297   0.257   7.369   5.764 -0.5317 -0.4742 -0.6467
  314MOL0     C42298   0.404   7.358   5.791  0.6983 -0.9063  0.1968
  314MOL0     C42299   0.452   7.227   5.840 -0.1322  0.4657 -0.1613
  314MOL0    Cl42300   0.415   7.184   6.002 -0.0934 -0.0729 -0.1376
  314MOL0     C42301  -0.062   8.210   5.894 -0.1203 -0.8196 -0.2743
  314MOL0     C42302  -0.137   8.307   5.953  0.8560 -0.0723  0.3362
  314MOL0     O42303  -0.153   8.439   6.218 -1.1171 -0.1888  0.1121
  314MOL0     C42304  -0.507   8.505   6.291 -0.1291  0.7314 -0.3163
  314MOL0     C42305  -0.600   8.584   6.362  0.2672  0.0964  0.3121
  314MOL0     N42306  -0.685   8.857   7.092  0.7374  0.0658 -1.0258
  314MOL0     N42307  -0.633   8.797   7.198  0.1418 -0.4729 -0.2188
  314MOL0     C42308   0.057   8.233   7.669 -0.0443 -0.7419 -0.6708
  314MOL0     C42309   0.110   8.116   7.731 -0.3937 -0.2294 -0.2608
  314MOL0     C42310   0.326   7.783   7.944 -0.5486  0.0038 -0.2823
  314MOL0     C42311   0.374   7.812   8.070 -1.2358 -0.2579 -0.5852
  314MOL0     C42312   0.441   7.721   8.150 -0.9833 -0.3514 -0.5455
  314MOL0     C42313   0.461   7.595   8.113  0.0057 -0.2504  0.3492
  314MOL0     O42314   0.529   7.512   8.200 -0.0577 -0.1433 -0.7122
  314MOL0     C42315   0.582   7.390   8.153 -0.7232  0.0569 -0.2409
  314MOL0     C42316   0.713   7.396   8.064  0.5643 -0.5686 -0.6738
  314MOL0     C42317   0.823   7.452   8.148 -0.2236 -0.4427  0.0623
  314MOL0     C42318   0.933   7.523   8.074 -0.7925 -0.2389  0.4530
  314MOL0     C42319   0.889   7.651   8.013  0.3085 -0.4847 -0.2991
  314MOL0     C42320   0.863   7.767   7.976 -0.8772  0.1082 -0.4639
  314MOL0     C42321   0.414   7.551   7.982 -0.8466 -0.1719  0.2382
  314MOL0     C42322   0.356   7.647   7.894  0.6739 -0.6946  0.1766
  314MOL0     H42323   0.263   8.248   7.999  0.0789  0.0171  0.0361
  314MOL0     H42324   0.174   8.460   7.907  0.1726  0.1757 -0.0794
  314MOL0     H42325   0.000   8.594   7.803 -1.1468 -1.9232  0.0129
  314MOL0     H42326   0.090   8.653   7.663  0.0384 -0.9064 -0.0471
  314MOL0     H42327  -0.180   8.718   7.686 -2.2264  1.2096 -1.6605
  314MOL0     H42328  -0.086   8.680   7.539  3.4047 -0.0979  0.5489
  314MOL0     H42329  -0.199   8.473   7.498 -2.0611 -1.2124  0.2971
  314MOL0     H42330  -0.225   8.442   7.670  2.1079  1.2335  0.9840
  314MOL0     H42331  -0.415   8.596   7.657 -1.5831 -2.9616  1.3330
  314MOL0     H42332  -0.364   8.631   7.485  0.5657  0.8097  0.3985
  314MOL0     H42333  -0.451   8.410   7.429  0.3004  0.2854 -0.3746
  314MOL0     H42334  -0.466   8.367   7.596 -0.3973  0.4084 -0.1162
  314MOL0     H42335  -0.686   8.403   7.520  2.7513 -1.3844 -0.0264
  314MOL0     H42336  -0.664   8.527   7.624 -1.0881 -1.7867  0.6813
  314MOL0     H42337  -0.765   8.649   7.448 -1.0194 -1.8511 -3.3635
  314MOL0     H42338  -0.587   8.690   7.439  2.8238 -2.4739  1.8701
  314MOL0     H42339  -0.748   8.477   7.288 -1.6095  0.6719 -1.9321
  314MOL0     H42340  -0.585   8.517   7.243 -0.4365 -0.8950 -0.8290
  314MOL0     H42341  -0.820   8.567   7.045 -1.2899 -0.8807  1.3270
  314MOL0     H42342  -0.948   8.784   6.914 -0.4002 -0.9312 -1.6738
  314MOL0     H42343  -0.838   8.921   6.881  2.5995 -0.4655  1.1159
  314MOL0     H42344  -0.794   8.646   6.761  3.8528  1.1275  2.9283
  314MOL0     H42345  -0.688   8.786   6.751  0.2311  2.4668 -0.0620
  314MOL0     H42346  -0.843   8.903   6.610 -2.1769  0.9670  0.2091
  314MOL0     H42347  -0.958   8.765   6.628 -0.8520  0.8584 -0.6815
  314MOL0     H42348  -0.839   8.760   6.409 -1.0673  2.3812  0.1524
  314MOL0     H42349  -0.801   8.626   6.524 -2.4117  0.1255  0.0864
  314MOL0     H42350  -0.392   8.802   6.490 -1.6305  0.8334  0.5230
  314MOL0     H42351  -0.120   8.623   6.405  1.0403  0.7379  0.8382
  314MOL0     H42352  -0.140   8.704   6.249 -1.7213  3.4736  0.4534
  314MOL0     H42353  -0.174   8.793   6.396 -4.6492  0.1835 -1.2266
  314MOL0     H42354  -0.366   8.111   6.112 -1.1157  1.2099 -0.5941
  314MOL0     H42355  -0.238   7.937   5.999 -0.5534  0.1297  1.9284
  314MOL0     H42356   0.168   8.037   5.770  0.6115 -2.4862 -0.8812
  314MOL0     H42357   0.181   8.084   5.933  0.8341 -0.0623 -0.9522
  314MOL0     H42358   0.337   7.893   5.873  0.5551 -0.7000  1.9499
  314MOL0     H42359   0.219   7.842   5.992 -2.5433 -0.6934 -0.4191
  314MOL0     H42360   0.188   7.789   5.683  1.1701 -1.0700 -1.3913
  314MOL0     H42361   0.087   7.736   5.823  0.4176  1.0981  0.5260
  314MOL0     H42362   0.376   7.662   5.788 -1.1818  3.9852  0.5535
  314MOL0     H42363   0.271   7.594   5.904  2.1244  0.2293 -0.3365
  314MOL0     H42364   0.280   7.531   5.620  1.7591 -1.6316  1.4500
  314MOL0     H42365   0.124   7.529   5.700  0.6059  0.8514 -4.6269
  314MOL0     H42366   0.204   7.342   5.855  2.1320  0.7384  1.3909
  314MOL0     H42367   0.229   7.297   5.686 -1.6596 -2.7491  1.7215
  314MOL0     H42368   0.437   7.435   5.861  0.7580  0.8164 -1.6510
  314MOL0     H42369   0.452   7.372   5.694 -0.6135 -0.8814 -0.4696
  314MOL0     H42370   0.561   7.230   5.836 -0.1877  2.2909 -1.6790
  314MOL0     H42371   0.417   7.147   5.774  1.7676 -0.1909 -0.4378
  314MOL0     H42372   0.019   8.241   5.830  0.9696 -0.5014  1.2058
  314MOL0     H42373  -0.110   8.410   5.933 -2.0030  0.1849 -3.1168
  314MOL0     H42374  -0.549   8.413   6.252 -0.8392  1.0341 -0.2743
  314MOL0     H42375  -0.705   8.567   6.338 -1.0885  2.7532  3.5559
  314MOL0     H42376  -0.011   8.234   7.584  0.5388  2.3471 -1.2103
  314MOL0     H42377   0.075   8.016   7.705 -1.3450 -0.8893  3.0352
  314MOL0     H42378   0.369   7.914   8.107  2.7525 -0.5511  1.2455
  314MOL0     H42379   0.477   7.744   8.250  1.8188 -2.4704 -0.9487
  314MOL0     H42380   0.612   7.332   8.240 -1.1624 -3.4837 -2.2863
  314MOL0     H42381   0.512   7.322   8.104 -0.5177 -1.2885  1.2577
  314MOL0     H42382   0.687   7.451   7.974 -0.5248  1.5685  0.8553
  314MOL0     H42383   0.739   7.295   8.029  0.2012 -0.4774 -1.2208
  314MOL0     H42384   0.872   7.365   8.195 -1.6540  0.3281  3.2801
  314MOL0     H42385   0.786   7.510   8.233 -0.6887 -0.9726  0.2283
  314MOL0     H42386   0.974   7.463   7.992  0.4112 -0.2556  1.0405
  314MOL0     H42387   1.011   7.531   8.151  2.1415  1.3559 -2.4612
  314MOL0     H42388   0.855   7.868   7.943  1.7147  1.8360  3.5091
  314MOL0     H42389   0.421   7.451   7.942 -0.2517 -0.1426  0.2613
  314MOL0     H42390   0.323   7.622   7.794 -0.5442 -4.8792  1.4195
  315MOL0     O42391   4.582   1.126   8.553  0.3799  0.4739 -0.1364
  315MOL0     C42392   4.469   1.184   8.561  0.0638 -0.0099  0.1370
  315MOL0     O42393   4.376   1.165   8.659 -0.2605  0.3773 -0.0153
  315MOL0     C42394   4.403   1.077   8.765 -1.1881 -0.2836 -0.1416
  315MOL0     C42395   4.480   1.124   8.873  0.6345 -0.8130 -0.1034
  315MOL0     C42396   4.509   1.041   8.979 -0.4404 -0.5033 -1.6410
  315MOL0     C42397   4.452   0.907   8.992 -0.0136 -0.4292  0.2247
  315MOL0     O42398   4.481   0.823   9.097  0.5510  0.0538  0.5549
  315MOL0     C42399   4.571   0.858   9.201  0.7279  0.6905  0.5047
  315MOL0     C42400   4.556   0.745   9.305  0.6737 -1.2005  0.2368
  315MOL0     C42401   4.633   0.766   9.444 -0.1595  1.2515  0.4884
  315MOL0     C42402   4.607   0.637   9.521 -0.2594  0.0469  0.0151
  315MOL0     C42403   4.655   0.647   9.670  0.0985  0.2030 -0.1633
  315MOL0     C42404   4.805   0.636   9.683 -0.4031 -0.4978 -0.0696
  315MOL0     C42405   4.888   0.754   9.634 -0.5372  0.0408  0.1746
  315MOL0     C42406   4.994   0.810   9.738  0.3379  0.6699  0.0646
  315MOL0     N42407   4.917   0.867   9.848 -1.0476 -0.4484 -0.5295
  315MOL0     C42408   4.942   0.826   9.975  0.0756 -0.3827  0.3592
  315MOL0     C42409   4.868   0.923  10.045 -0.5932 -0.9455  0.4097
  315MOL0     C42410   4.875   0.943  10.194 -0.0704 -0.6443 -0.1022
  315MOL0     C42411   4.974   0.845  10.257 -0.4049  0.4680 -0.3486
  315MOL0     C42412   5.011   0.872  10.400 -0.2459 -0.1677 -0.0622
  315MOL0     C42413   5.104   0.992  10.424 -0.4970  0.4819 -0.6432
  315MOL0     O42414   5.169   0.983  10.546 -0.4285  0.0275 -0.3129
  315MOL0     C42415   5.213   1.105  10.599  0.2854  0.2421  0.0126
  315MOL0     C42416   5.233   1.229  10.535  0.0566 -0.0016  1.3289
  315MOL0     C42417   5.263   1.344  10.603  0.0940 -0.5467 -1.3309
  315MOL0     C42418   5.303   1.473  10.524 -1.5317 -0.0722  0.1444
  315MOL0     C42419   5.290   1.332  10.744  0.0744  0.4034 -0.9495
  315MOL0     C42420   5.322   1.449  10.836 -0.2369  1.2651 -0.0161
  315MOL0     O42421   5.403   1.414  10.947 -1.0894  0.4773  0.0958
  315MOL0     C42422   5.416   1.505  11.048  0.0772  0.6476 -0.9395
  315MOL0     C42423   5.524   1.596  11.060 -0.2485  0.4950  0.7542
  315MOL0     C42424   5.541   1.693  11.152 -0.9561 -0.0609  0.5039
  315MOL0     C42425   5.437   1.708  11.251 -1.0388 -0.0212 -0.3475
  315MOL0     O42426   5.430   1.810  11.344 -0.1842  0.4402  0.0715
  315MOL0     C42427   5.534   1.906  11.345  0.0095 -0.5678 -0.0979
  315MOL0     C42428   5.481   2.023  11.437  1.1374 -0.0958  0.3047
  315MOL0     C42429   5.601   2.118  11.467  0.5108 -0.9031 -0.1181
  315MOL0     C42430   5.554   2.256  11.517  0.3160  0.2193  0.5732
  315MOL0     C42431   5.654   2.352  11.587  0.0841 -0.7903 -0.1616
  315MOL0     C42432   5.594   2.481  11.639  0.5292 -0.6429  0.6514
  315MOL0     C42433   5.531   2.472  11.784  0.1371  0.3078  0.3252
  315MOL0     C42434   5.413   2.568  11.800  0.3412 -0.5448 -0.7024
  315MOL0    Cl42435   5.463   2.739  11.770  0.2540  0.2775 -0.0686
  315MOL0     C42436   5.327   1.622  11.245  0.1347  0.3416  0.3520
  315MOL0     C42437   5.320   1.518  11.147 -0.3193 -0.7715 -0.4012
  315MOL0     O42438   5.281   1.557  10.800  0.0006  0.0575 -0.1025
  315MOL0     C42439   5.276   1.208  10.806 -0.0408  1.2299  0.4825
  315MOL0     C42440   5.246   1.096  10.731  0.4691 -0.6723  0.7634
  315MOL0     N42441   4.802   1.008   9.960  0.2656  0.7682 -0.2055
  315MOL0     N42442   4.833   0.975   9.841  0.0631  0.4507 -0.2745
  315MOL0     C42443   4.375   0.866   8.882  0.3152  1.0071 -0.3435
  315MOL0     C42444   4.348   0.952   8.774 -0.4414  0.2399 -0.6042
  315MOL0     C42445   4.440   1.293   8.450 -0.4713  0.2123  0.4327
  315MOL0     C42446   4.321   1.368   8.470  0.6107  0.1114  0.4311
  315MOL0     C42447   4.275   1.467   8.382  0.2397 -0.1734 -0.4979
  315MOL0     C42448   4.350   1.497   8.271  0.3962 -0.7437 -0.0381
  315MOL0     O42449   4.304   1.595   8.192  0.0288 -0.0707  0.2029
  315MOL0     C42450   4.389   1.703   8.169 -0.4960  0.2947  1.3801
  315MOL0     C42451   4.292   1.803   8.107 -0.0578 -1.0892  0.0021
  315MOL0     C42452   4.227   1.757   7.973 -0.2308 -0.1054 -0.2949
  315MOL0     C42453   4.159   1.868   7.893  0.2537  0.3896 -0.0292
  315MOL0     C42454   4.031   1.842   7.833 -0.0090  0.9375  0.8952
  315MOL0     C42455   3.926   1.850   7.779  0.5637 -0.2563  0.4767
  315MOL0     C42456   4.465   1.423   8.251  0.7454 -0.1930  0.8117
  315MOL0     C42457   4.512   1.319   8.334  0.5646 -0.3846  0.1790
  315MOL0     H42458   4.518   1.225   8.888 -2.2856  0.3211  0.3727
  315MOL0     H42459   4.578   1.065   9.060 -0.8270  2.6843 -2.1230
  315MOL0     H42460   4.670   0.871   9.156  1.9689 -0.1128  2.8393
  315MOL0     H42461   4.534   0.949   9.249 -2.5982  0.8009 -1.8760
  315MOL0     H42462   4.451   0.730   9.330  0.5411  2.6342  2.9711
  315MOL0     H42463   4.604   0.663   9.251  1.3971 -0.2792 -0.5587
  315MOL0     H42464   4.738   0.775   9.417  0.1744 -0.4923  1.0813
  315MOL0     H42465   4.591   0.850   9.500  0.6206  1.9360  0.0681
  315MOL0     H42466   4.498   0.639   9.524 -0.3287  0.8016 -1.9921
  315MOL0     H42467   4.649   0.551   9.469  0.7037  1.0059 -0.8430
  315MOL0     H42468   4.612   0.729   9.728 -3.4107 -2.7886  1.9549
  315MOL0     H42469   4.612   0.555   9.710  2.1357 -0.2872  1.0120
  315MOL0     H42470   4.826   0.626   9.790  0.4444 -0.9230 -0.2573
  315MOL0     H42471   4.842   0.549   9.626 -0.2155  2.2158 -4.5785
  315MOL0     H42472   4.945   0.727   9.545 -3.4796 -0.3295 -1.7192
  315MOL0     H42473   4.827   0.841   9.607  3.1695  2.2518 -1.8861
  315MOL0     H42474   5.063   0.883   9.694  1.1059 -1.2788 -2.1585
  315MOL0     H42475   5.057   0.731   9.780  3.4396  2.4417 -0.8742
  315MOL0     H42476   4.991   0.740  10.020  0.7099  1.5285  3.7084
  315MOL0     H42477   4.900   1.048  10.216 -0.1404 -0.7520  0.5167
  315MOL0     H42478   4.778   0.919  10.240 -0.4146 -0.4805 -0.7392
  315MOL0     H42479   5.072   0.852  10.208  0.7478  3.6889  2.0472
  315MOL0     H42480   4.938   0.743  10.244 -0.5139  0.7544 -2.7249
  315MOL0     H42481   5.074   0.785  10.423  2.1973  1.2621 -0.8927
  315MOL0     H42482   4.920   0.877  10.460  1.1628 -0.1588  2.2324
  315MOL0     H42483   5.039   1.078  10.406 -0.2348  1.0177  0.8247
  315MOL0     H42484   5.181   1.000  10.347 -0.7335  1.6132 -0.7784
  315MOL0     H42485   5.223   1.235  10.428  0.5055 -1.6826  1.1602
  315MOL0     H42486   5.409   1.495  10.537 -1.0548  0.5026 -3.4739
  315MOL0     H42487   5.282   1.468  10.416 -0.9019  0.8053 -0.0361
  315MOL0     H42488   5.254   1.563  10.561 -0.2952 -0.6672  3.5966
  315MOL0     H42489   5.597   1.591  10.980  0.6090 -0.1203  1.5634
  315MOL0     H42490   5.622   1.765  11.160 -0.6454 -0.0189 -2.1928
  315MOL0     H42491   5.628   1.859  11.373 -0.1677 -0.4157  0.7898
  315MOL0     H42492   5.548   1.962  11.252 -1.1538  0.4162  0.2785
  315MOL0     H42493   5.403   2.075  11.379 -0.0118  0.7204  2.4852
  315MOL0     H42494   5.436   1.991  11.531  1.3317  0.1685  0.4867
  315MOL0     H42495   5.661   2.136  11.377  3.2013  4.1215  2.2286
  315MOL0     H42496   5.671   2.076  11.540  2.7470  4.5180  1.3597
  315MOL0     H42497   5.512   2.318  11.438 -0.3555  0.5837  1.2106
  315MOL0     H42498   5.469   2.240  11.584  0.3986  1.2955  0.9552
  315MOL0     H42499   5.736   2.375  11.518 -1.9915  1.8625 -1.9250
  315MOL0     H42500   5.697   2.293  11.669 -2.1151  0.8224  2.2741
  315MOL0     H42501   5.665   2.564  11.625 -0.0150 -0.4841 -1.5746
  315MOL0     H42502   5.521   2.520  11.567  0.4850  0.8229  1.4442
  315MOL0     H42503   5.598   2.508  11.864 -0.7444  0.9101  0.8111
  315MOL0     H42504   5.500   2.368  11.801  2.3492 -0.9763 -2.6772
  315MOL0     H42505   5.355   2.554  11.891  2.2081 -2.3646  0.2722
  315MOL0     H42506   5.351   2.552  11.711  0.5436 -2.6870 -0.5023
  315MOL0     H42507   5.247   1.642  11.316 -1.5212 -0.9898 -1.0341
  315MOL0     H42508   5.227   1.465  11.131 -0.5187 -1.3592  2.2427
  315MOL0     H42509   5.278   1.195  10.914  0.1205 -0.8052  0.2782
  315MOL0     H42510   5.232   0.997  10.773 -3.0251 -1.5519 -2.0307
  315MOL0     H42511   4.353   0.759   8.887 -0.0041  1.1322  1.9589
  315MOL0     H42512   4.286   0.916   8.692  2.4934 -0.2522 -2.7769
  315MOL0     H42513   4.256   1.355   8.555  1.4930  0.2921  1.1454
  315MOL0     H42514   4.183   1.520   8.405 -0.3285 -1.9603  1.7057
  315MOL0     H42515   4.433   1.739   8.263 -1.6913 -0.8384  2.4105
  315MOL0     H42516   4.463   1.651   8.107 -3.6641 -1.8229 -0.8743
  315MOL0     H42517   4.345   1.898   8.090  2.4336 -2.2860  0.5578
  315MOL0     H42518   4.207   1.817   8.174  0.3002  1.1786  0.0855
  315MOL0     H42519   4.148   1.687   8.004  0.6949 -0.8635  0.3971
  315MOL0     H42520   4.298   1.704   7.909  0.2301 -1.1427  1.0483
  315MOL0     H42521   4.235   1.885   7.816  0.5432 -1.9775 -0.3278
  315MOL0     H42522   4.157   1.966   7.941  1.1094  0.0220  0.7963
  315MOL0     H42523   3.833   1.851   7.726 -0.7328  0.1950  2.6016
  315MOL0     H42524   4.500   1.446   8.151 -6.9753 -2.0319 -3.1457
  315MOL0     H42525   4.611   1.277   8.326  0.8799  0.3784  0.0162
  316MOL0     O42526   8.721   8.452   4.314  0.2230 -0.7356 -0.1084
  316MOL0     C42527   8.803   8.411   4.236 -0.1944  0.4311  0.1678
  316MOL0     O42528   8.779   8.389   4.103  0.1187  0.5761  0.2002
  316MOL0     C42529   8.662   8.405   4.039 -0.2071  0.2109  0.5145
  316MOL0     C42530   8.614   8.537   4.022 -0.6506 -0.5363  0.2024
  316MOL0     C42531   8.482   8.557   3.972  0.2948  0.6975 -0.4311
  316MOL0     C42532   8.408   8.449   3.914  0.1471  0.6212 -0.5764
  316MOL0     O42533   8.286   8.487   3.855  0.0827 -0.0288 -0.2478
  316MOL0     C42534   8.198   8.387   3.797  0.1207  0.9284 -0.2691
  316MOL0     C42535   8.064   8.471   3.760 -0.4213  0.6244 -0.2950
  316MOL0     C42536   7.950   8.372   3.716  0.7770  0.9573  0.1447
  316MOL0     C42537   7.833   8.468   3.667  0.7293 -0.2441 -1.0678
  316MOL0     C42538   7.730   8.396   3.581  0.6389 -0.1685  0.7282
  316MOL0     C42539   7.656   8.284   3.659 -0.2449  0.2258  0.4961
  316MOL0     C42540   7.604   8.312   3.805  0.6780 -0.3199  0.4700
  316MOL0     C42541   7.571   8.180   3.858 -0.3561 -0.6032 -0.0421
  316MOL0     N42542   7.445   8.118   3.809  0.1528  0.1477  0.1866
  316MOL0     C42543   7.323   8.143   3.864 -0.4085  0.2160 -0.0188
  316MOL0     C42544   7.234   8.083   3.783  0.0221 -1.1131 -0.4014
  316MOL0     C42545   7.084   8.106   3.811  0.1160 -0.8693  0.3136
  316MOL0     C42546   7.018   8.146   3.678  1.0790 -0.5961 -0.0041
  316MOL0     C42547   7.067   8.270   3.596  0.2876  0.6065  0.2536
  316MOL0     C42548   7.045   8.398   3.678 -0.2238  0.9373  0.6468
  316MOL0     O42549   7.016   8.510   3.590  0.0018 -0.1072 -0.0029
  316MOL0     C42550   7.115   8.573   3.512  0.0319 -0.0656 -0.6477
  316MOL0     C42551   7.068   8.653   3.404  0.4455  0.6850 -0.4969
  316MOL0     C42552   7.164   8.713   3.315 -0.1075 -0.6705 -0.1358
  316MOL0     C42553   7.122   8.815   3.215 -0.0706  0.2853  0.9396
  316MOL0     C42554   7.299   8.691   3.327  0.5621 -0.9096 -0.0342
  316MOL0     C42555   7.412   8.734   3.236  0.1139  0.9324  0.4710
  316MOL0     O42556   7.540   8.696   3.262 -0.0312  0.0136 -0.2537
  316MOL0     C42557   7.647   8.715   3.183  0.5399  0.9896 -0.5572
  316MOL0     C42558   7.764   8.658   3.232  0.2760  0.2792  0.4450
  316MOL0     C42559   7.884   8.656   3.159  0.0209 -0.2582 -0.3605
  316MOL0     C42560   7.901   8.713   3.036  0.5015  0.4837  0.8851
  316MOL0     O42561   8.023   8.702   2.987  0.3659  0.1674 -0.5491
  316MOL0     C42562   8.052   8.755   2.858  0.7780  0.3666 -0.2810
  316MOL0     C42563   8.189   8.695   2.811  0.2527  0.0400  0.0870
  316MOL0     C42564   8.314   8.774   2.853  0.5445 -0.2851 -1.0452
  316MOL0     C42565   8.310   8.812   3.005  0.3395  0.9735 -0.1173
  316MOL0     C42566   8.323   8.682   3.093 -0.3291 -0.4672 -0.4510
  316MOL0     C42567   8.468   8.629   3.104  0.6320  0.0731 -0.5507
  316MOL0     C42568   8.567   8.726   3.162 -0.3786  0.2422 -0.7777
  316MOL0     C42569   8.535   8.777   3.311  0.1991  0.0979  0.2598
  316MOL0    Cl42570   8.673   8.855   3.379  0.0526 -0.6682 -0.0743
  316MOL0     C42571   7.780   8.767   2.974  0.5782 -0.0668 -0.0380
  316MOL0     C42572   7.653   8.764   3.049 -1.0914  0.0523  0.2480
  316MOL0     O42573   7.386   8.827   3.155 -0.2805 -0.0649  0.3677
  316MOL0     C42574   7.337   8.613   3.434 -0.0593  0.2844  0.5319
  316MOL0     C42575   7.251   8.549   3.526  0.3501  0.0250 -0.2782
  316MOL0     N42576   7.310   8.027   3.679  0.2689  0.3323  0.1284
  316MOL0     N42577   7.438   8.046   3.694 -0.2750 -0.2632 -0.3335
  316MOL0     C42578   8.458   8.324   3.918 -0.5662  0.1030 -0.2982
  316MOL0     C42579   8.581   8.301   3.975 -0.6417  0.2985 -0.1820
  316MOL0     C42580   8.942   8.381   4.274 -0.7591 -0.1218 -0.0468
  316MOL0     C42581   8.969   8.334   4.407 -0.0489  0.0602 -0.4912
  316MOL0     C42582   9.099   8.302   4.443  0.6757 -1.2421  0.4314
  316MOL0     C42583   9.204   8.300   4.353 -0.3072 -0.1362  0.3787
  316MOL0     O42584   9.324   8.265   4.409 -0.9213  0.8058  0.0817
  316MOL0     C42585   9.408   8.191   4.322 -0.6072 -0.3338 -0.0699
  316MOL0     C42586   9.539   8.265   4.281  0.2336 -0.0121  0.0047
  316MOL0     C42587   9.635   8.290   4.394 -0.3757  0.7145 -0.0563
  316MOL0     C42588   9.769   8.329   4.341 -0.6401 -0.3067 -1.2035
  316MOL0     C42589   9.768   8.456   4.271 -0.0227 -0.6714 -0.1711
  316MOL0     C42590   9.771   8.566   4.237  0.0074 -0.3616  0.8308
  316MOL0     C42591   9.182   8.349   4.217  0.3099  0.2217  0.3272
  316MOL0     C42592   9.052   8.397   4.185 -1.4219 -0.0367  0.8225
  316MOL0     H42593   8.669   8.617   4.071  1.7493  0.1227 -3.1975
  316MOL0     H42594   8.437   8.656   3.969 -1.1062  0.2396  2.0996
  316MOL0     H42595   8.246   8.335   3.714  1.6394  0.8473  0.6354
  316MOL0     H42596   8.163   8.316   3.872 -2.2146 -0.4983 -2.5329
  316MOL0     H42597   8.028   8.530   3.844 -0.8420 -0.5932  0.4046
  316MOL0     H42598   8.093   8.535   3.676 -0.2741  0.7791 -0.1256
  316MOL0     H42599   7.978   8.301   3.638  1.0379  0.7270  0.4448
  316MOL0     H42600   7.899   8.322   3.800 -0.4605 -0.4604 -1.3891
  316MOL0     H42601   7.783   8.516   3.752 -4.3110 -0.5208 -3.4814
  316MOL0     H42602   7.883   8.536   3.598  2.4659  1.8785  2.0413
  316MOL0     H42603   7.647   8.465   3.563  1.3543  0.4420 -0.3714
  316MOL0     H42604   7.770   8.364   3.485 -3.2145 -0.6497 -0.9015
  316MOL0     H42605   7.566   8.257   3.603  0.6528  0.1332 -0.9340
  316MOL0     H42606   7.712   8.190   3.657 -1.0027 -0.3505  2.6635
  316MOL0     H42607   7.687   8.358   3.859  1.2644  0.8898 -1.3499
  316MOL0     H42608   7.516   8.376   3.808  0.7283 -0.2687  0.8160
  316MOL0     H42609   7.558   8.183   3.967  1.6834  1.3686  0.2321
  316MOL0     H42610   7.654   8.118   3.824  0.7327  0.7332  0.0974
  316MOL0     H42611   7.298   8.196   3.955  0.2450  1.0286 -0.3042
  316MOL0     H42612   7.028   8.029   3.865 -1.5068  1.9015  2.8709
  316MOL0     H42613   7.079   8.187   3.884 -1.2651 -1.2032  0.6252
  316MOL0     H42614   6.914   8.167   3.705  1.4958  1.4087  0.2112
  316MOL0     H42615   7.029   8.070   3.601  0.7728  1.9910 -2.7985
  316MOL0     H42616   7.008   8.275   3.505  2.7590  0.5989 -1.4481
  316MOL0     H42617   7.173   8.258   3.571 -0.2476 -3.4145 -0.8074
  316MOL0     H42618   7.136   8.416   3.737  0.5612 -1.4610  0.2894
  316MOL0     H42619   6.971   8.386   3.758  0.2005  0.9070  1.0424
  316MOL0     H42620   6.962   8.676   3.392 -0.4996 -3.9962 -4.1055
  316MOL0     H42621   7.016   8.840   3.228 -0.0592 -0.1999  2.0049
  316MOL0     H42622   7.172   8.909   3.239  2.3017 -1.1700  2.0983
  316MOL0     H42623   7.139   8.788   3.110  5.4542  1.3114  1.2846
  316MOL0     H42624   7.756   8.610   3.329 -3.4855  2.0859  1.2473
  316MOL0     H42625   7.964   8.592   3.194  0.0602 -1.9489 -3.1998
  316MOL0     H42626   7.977   8.736   2.781  2.4458  0.5994 -2.0579
  316MOL0     H42627   8.066   8.864   2.861  0.7645  0.3851  3.3291
  316MOL0     H42628   8.205   8.593   2.846  0.8820  1.1607  3.3821
  316MOL0     H42629   8.186   8.677   2.703  0.9337 -0.8377  0.2037
  316MOL0     H42630   8.306   8.869   2.800 -1.8424  1.9196  2.8356
  316MOL0     H42631   8.411   8.732   2.826  2.5098  2.3215  1.4141
  316MOL0     H42632   8.392   8.880   3.029  2.1288 -2.2015  4.0087
  316MOL0     H42633   8.221   8.863   3.042  1.0107  0.9705  1.5601
  316MOL0     H42634   8.257   8.609   3.046  0.0679 -0.6002 -0.8063
  316MOL0     H42635   8.292   8.695   3.197  1.2691 -4.2873  0.6579
  316MOL0     H42636   8.473   8.541   3.169  2.5106  0.9095  0.5217
  316MOL0     H42637   8.503   8.588   3.009  0.5707  2.0725 -1.4971
  316MOL0     H42638   8.589   8.812   3.099 -1.1318  2.1580  1.4242
  316MOL0     H42639   8.662   8.673   3.175  0.4921  2.2608  1.9626
  316MOL0     H42640   8.509   8.684   3.362 -0.0553  0.3935  0.6809
  316MOL0     H42641   8.449   8.843   3.295 -0.6861 -0.7235  1.4467
  316MOL0     H42642   7.781   8.822   2.881  2.2996 -0.5716 -0.3584
  316MOL0     H42643   7.571   8.818   3.003 -1.4089 -0.6749 -0.0637
  316MOL0     H42644   7.444   8.598   3.448  0.3452  1.5122 -0.9835
  316MOL0     H42645   7.289   8.486   3.606 -1.1116  0.7763  1.0598
  316MOL0     H42646   8.408   8.235   3.878 -0.2745  0.1665 -0.8085
  316MOL0     H42647   8.624   8.202   3.989 -2.8274 -0.9471 -1.6835
  316MOL0     H42648   8.890   8.327   4.482  2.5086 -2.7421  2.2801
  316MOL0     H42649   9.106   8.288   4.550  0.8228  0.5543  0.6958
  316MOL0     H42650   9.451   8.108   4.379 -1.1631 -1.1685 -0.8331
  316MOL0     H42651   9.346   8.145   4.245 -0.5578  0.1224 -0.3835
  316MOL0     H42652   9.506   8.357   4.231 -1.2644 -0.4797  0.1054
  316MOL0     H42653   9.579   8.195   4.207  2.5619 -0.6836  1.7787
  316MOL0     H42654   9.666   8.199   4.446  0.9904  0.4370 -1.3111
  316MOL0     H42655   9.599   8.369   4.461 -0.2754  1.7691 -1.2150
  316MOL0     H42656   9.794   8.250   4.269 -2.1610 -0.0994 -1.9902
  316MOL0     H42657   9.840   8.325   4.424 -0.8747 -2.8055 -1.0309
  316MOL0     H42658   9.763   8.668   4.202 -1.2802  0.9060  4.3661
  316MOL0     H42659   9.265   8.353   4.147  0.4331  1.1385  0.5082
  316MOL0     H42660   9.040   8.425   4.081 -0.9917 -2.4801  0.0428
  317MOL0     O42661   8.282   0.066   0.445  0.2051  0.4152 -0.4783
  317MOL0     C42662   8.381   0.006   0.404 -0.4239  0.3520 -0.2692
  317MOL0     O42663   8.384  -0.124   0.381 -1.0903  0.4351  0.3532
  317MOL0     C42664   8.281  -0.207   0.416 -0.1782  0.4074  0.3296
  317MOL0     C42665   8.206  -0.201   0.533 -0.0907 -0.0166 -0.2923
  317MOL0     C42666   8.120  -0.308   0.578 -0.2383 -0.4606 -0.4441
  317MOL0     C42667   8.114  -0.430   0.508 -0.4869 -0.7032  0.8952
  317MOL0     O42668   8.030  -0.530   0.549  0.7311 -0.6141 -1.1919
  317MOL0     C42669   8.102  -0.649   0.594 -0.2762  0.1673 -0.1981
  317MOL0     C42670   8.016  -0.774   0.562  0.6838  0.2626  0.3519
  317MOL0     C42671   8.061  -0.895   0.645 -0.0755  0.4842  1.1252
  317MOL0     C42672   7.951  -0.999   0.644 -0.4576 -0.6694 -0.0192
  317MOL0     C42673   8.015  -1.128   0.703 -0.4266 -0.5607 -0.2493
  317MOL0     C42674   7.914  -1.231   0.739  0.2503 -0.1589  0.3871
  317MOL0     C42675   7.865  -1.300   0.599 -0.0870 -0.4562 -0.1064
  317MOL0     C42676   7.732  -1.355   0.637 -0.0533  0.5388 -0.1422
  317MOL0     N42677   7.691  -1.453   0.537 -0.0076  0.2362 -0.0433
  317MOL0     C42678   7.666  -1.428   0.403 -0.2907 -0.2510  0.5737
  317MOL0     C42679   7.622  -1.545   0.357  0.3375 -0.7024  0.7406
  317MOL0     C42680   7.560  -1.574   0.226  0.9940 -0.1641  0.0860
  317MOL0     C42681   7.672  -1.579   0.136  0.4330 -0.4009  1.5033
  317MOL0     C42682   7.628  -1.619  -0.012 -0.0079 -0.1165 -1.1314
  317MOL0     C42683   7.637  -1.771  -0.035  0.0779  0.2827 -0.2895
  317MOL0     O42684   7.588  -1.795  -0.169 -0.7618 -0.5661  0.0135
  317MOL0     C42685   7.592  -1.922  -0.215  0.0971  0.4212 -0.1177
  317MOL0     C42686   7.631  -2.035  -0.137 -0.2664 -0.2235  0.5380
  317MOL0     C42687   7.640  -2.163  -0.199  0.0018 -0.4811  0.0349
  317MOL0     C42688   7.682  -2.269  -0.103 -0.5850 -0.3368 -0.1473
  317MOL0     C42689   7.595  -2.170  -0.330  0.0368  0.7334 -0.5965
  317MOL0     C42690   7.584  -2.312  -0.401  0.2447 -0.7463 -0.3023
  317MOL0     O42691   7.532  -2.407  -0.337  0.4214  0.2506 -0.0140
  317MOL0     C42692   7.511  -2.524  -0.410  1.0078 -0.1727  0.4265
  317MOL0     C42693   7.400  -2.520  -0.495 -0.3582 -0.3757  0.0273
  317MOL0     C42694   7.368  -2.626  -0.586 -0.1739 -0.8424  0.3629
  317MOL0     C42695   7.436  -2.749  -0.564  0.1390 -0.5303 -0.1344
  317MOL0     O42696   7.411  -2.874  -0.626 -0.7628 -1.0600 -0.2125
  317MOL0     C42697   7.337  -2.853  -0.740 -0.1367 -0.3946  0.2504
  317MOL0     C42698   7.331  -2.986  -0.802 -0.6543  0.4712  0.2307
  317MOL0     C42699   7.246  -2.986  -0.932  0.5053 -0.2491  0.8624
  317MOL0     C42700   7.211  -3.123  -0.987  0.4566 -0.0248 -0.5728
  317MOL0     C42701   7.099  -3.179  -0.901  0.2174 -0.0235  0.3611
  317MOL0     C42702   7.031  -3.294  -0.972  0.7083 -0.5259  1.0905
  317MOL0     C42703   6.960  -3.372  -0.857  1.3885  0.3469  0.2756
  317MOL0     C42704   7.041  -3.491  -0.815 -0.8452  0.4226  0.1905
  317MOL0    Cl42705   6.954  -3.582  -0.688 -0.1042 -0.3190  0.0980
  317MOL0     C42706   7.539  -2.750  -0.474 -0.5852 -0.2561 -0.5328
  317MOL0     C42707   7.580  -2.642  -0.392  0.1506  0.6813 -0.2328
  317MOL0     O42708   7.631  -2.310  -0.517 -0.2015  0.1825 -0.4528
  317MOL0     C42709   7.550  -2.060  -0.396 -0.1418 -0.4772  0.1154
  317MOL0     C42710   7.554  -1.936  -0.343  0.7637  0.3775 -0.6474
  317MOL0     N42711   7.595  -1.624   0.462  0.0532 -0.7515  0.1289
  317MOL0     N42712   7.643  -1.580   0.570 -0.3385  0.0846  0.4763
  317MOL0     C42713   8.188  -0.436   0.389 -0.4186  0.4919  0.8936
  317MOL0     C42714   8.270  -0.327   0.350  1.0563  0.1107 -1.0529
  317MOL0     C42715   8.511   0.071   0.392 -0.0380  0.0550 -0.2704
  317MOL0     C42716   8.616   0.028   0.301  0.6251 -0.6132  1.1827
  317MOL0     C42717   8.738   0.089   0.299  0.3053 -0.6858  0.2477
  317MOL0     C42718   8.770   0.197   0.386 -0.4157  0.1526 -0.2807
  317MOL0     O42719   8.887   0.270   0.395  0.4487  0.1896  0.1492
  317MOL0     C42720   8.970   0.265   0.282 -0.7490  0.6119  0.1571
  317MOL0     C42721   9.067   0.142   0.294 -0.0398  1.2295  0.3016
  317MOL0     C42722   9.180   0.168   0.402 -0.7910  0.0394  0.6320
  317MOL0     C42723   9.291   0.057   0.396 -0.2111 -0.3418  0.4474
  317MOL0     C42724   9.266  -0.086   0.436 -0.0728 -1.1506 -0.4102
  317MOL0     C42725   9.230  -0.198   0.453  1.1009  0.8321 -0.2231
  317MOL0     C42726   8.666   0.228   0.483 -0.1631 -1.0635 -0.2736
  317MOL0     C42727   8.533   0.179   0.477  0.0364 -0.9640 -0.0666
  317MOL0     H42728   8.235  -0.128   0.608 -1.7051  1.9704 -1.5099
  317MOL0     H42729   8.086  -0.308   0.681  1.9209  0.4096  0.3357
  317MOL0     H42730   8.197  -0.667   0.542 -0.0352 -4.0687  1.3370
  317MOL0     H42731   8.127  -0.643   0.700  3.2923 -2.3690 -0.7199
  317MOL0     H42732   7.916  -0.752   0.601  0.9402 -1.0196  1.8192
  317MOL0     H42733   8.021  -0.809   0.458  2.6730  0.4927  0.3462
  317MOL0     H42734   8.159  -0.925   0.606 -0.2563  1.8662 -0.5580
  317MOL0     H42735   8.078  -0.860   0.748 -1.8107  1.1490  1.2176
  317MOL0     H42736   7.864  -0.959   0.697  1.0422 -0.5172  2.4671
  317MOL0     H42737   7.914  -1.009   0.541 -2.8406  3.4262  0.2307
  317MOL0     H42738   8.091  -1.155   0.630  0.7839 -0.6444  0.9947
  317MOL0     H42739   8.055  -1.100   0.801 -0.4090 -0.9729 -0.1350
  317MOL0     H42740   7.956  -1.300   0.813  2.1762 -3.4401 -3.3430
  317MOL0     H42741   7.832  -1.178   0.788 -1.3921 -3.9225  2.1356
  317MOL0     H42742   7.860  -1.231   0.514 -1.4268 -0.2381  0.1332
  317MOL0     H42743   7.932  -1.383   0.574 -2.1437 -1.6238 -2.1044
  317MOL0     H42744   7.651  -1.282   0.645 -1.2406 -0.6839 -0.6414
  317MOL0     H42745   7.737  -1.407   0.733  1.2748  0.8986 -0.0034
  317MOL0     H42746   7.681  -1.335   0.348  1.3118 -3.1885 -4.6732
  317MOL0     H42747   7.503  -1.667   0.222 -0.5304  0.7879 -2.0992
  317MOL0     H42748   7.499  -1.492   0.187  0.2418 -1.7826 -2.3710
  317MOL0     H42749   7.741  -1.648   0.185 -0.0290 -0.4251  2.1296
  317MOL0     H42750   7.724  -1.483   0.126 -0.6246 -0.0316 -1.3673
  317MOL0     H42751   7.686  -1.589  -0.100  1.5202 -4.9370 -2.0700
  317MOL0     H42752   7.531  -1.573  -0.032  0.9739  2.1583 -0.9717
  317MOL0     H42753   7.572  -1.826   0.033  4.0610 -1.7440  2.2301
  317MOL0     H42754   7.734  -1.817  -0.016  0.6612  0.5393 -2.3826
  317MOL0     H42755   7.674  -2.019  -0.039  1.1720  2.6244 -0.4206
  317MOL0     H42756   7.707  -2.365  -0.150  2.0713 -0.9852  2.3324
  317MOL0     H42757   7.777  -2.232  -0.065 -0.4968 -0.4676 -0.2352
  317MOL0     H42758   7.616  -2.292  -0.019 -1.2692  1.5462 -0.1327
  317MOL0     H42759   7.344  -2.427  -0.504 -2.5496 -1.4772  1.2927
  317MOL0     H42760   7.278  -2.605  -0.644 -2.0711 -2.6686  2.4146
  317MOL0     H42761   7.238  -2.814  -0.717  0.2917 -0.2692  2.0597
  317MOL0     H42762   7.399  -2.792  -0.806  1.1842 -1.4604  0.4646
  317MOL0     H42763   7.428  -3.027  -0.831  0.5508  2.4515  1.2160
  317MOL0     H42764   7.300  -3.061  -0.729  1.9989 -0.0532  0.8987
  317MOL0     H42765   7.301  -2.927  -1.008 -1.8746  0.8804 -0.0795
  317MOL0     H42766   7.155  -2.928  -0.916  0.6967  0.0697  0.8135
  317MOL0     H42767   7.176  -3.112  -1.090 -2.7699  2.0358  0.5806
  317MOL0     H42768   7.297  -3.191  -0.987 -1.1178 -2.1706  1.0677
  317MOL0     H42769   7.019  -3.106  -0.888  0.4252  0.4531 -0.8653
  317MOL0     H42770   7.127  -3.197  -0.797  1.8154  1.8069  0.3167
  317MOL0     H42771   6.968  -3.243  -1.046  1.2798  0.1508  1.0701
  317MOL0     H42772   7.095  -3.363  -1.028  0.1187 -2.3869  2.6136
  317MOL0     H42773   6.864  -3.411  -0.892  0.6662 -0.1325  2.5888
  317MOL0     H42774   6.935  -3.310  -0.770  0.8920 -1.4394  1.4655
  317MOL0     H42775   7.136  -3.458  -0.773  0.3514 -1.3537 -0.9426
  317MOL0     H42776   7.056  -3.561  -0.898 -1.0345 -0.5049  0.9210
  317MOL0     H42777   7.580  -2.849  -0.459 -1.1076 -0.3958 -0.0066
  317MOL0     H42778   7.655  -2.635  -0.314 -3.3446  1.5952  3.3698
  317MOL0     H42779   7.522  -2.080  -0.499 -1.3919 -0.2137  0.3842
  317MOL0     H42780   7.516  -1.848  -0.394 -2.2424  0.0144  0.7344
  317MOL0     H42781   8.194  -0.523   0.325  3.8410  0.9063  0.4095
  317MOL0     H42782   8.323  -0.343   0.257  2.4962  3.9519 -1.0716
  317MOL0     H42783   8.602  -0.053   0.231 -0.5972  0.9681 -0.5022
  317MOL0     H42784   8.796   0.053   0.215 -1.5538  2.3077 -2.5553
  317MOL0     H42785   8.920   0.259   0.185  0.9433 -0.5020 -0.7045
  317MOL0     H42786   9.030   0.357   0.282 -1.5010  1.1101  0.6216
  317MOL0     H42787   9.112   0.119   0.197  0.2899  0.6907  0.5799
  317MOL0     H42788   9.012   0.050   0.312 -2.2715  2.3461 -0.4004
  317MOL0     H42789   9.144   0.153   0.504 -0.2057 -0.1425  0.8193
  317MOL0     H42790   9.224   0.269   0.399  0.2760 -0.4297 -0.8602
  317MOL0     H42791   9.361   0.102   0.467 -2.0289  2.3952  0.6698
  317MOL0     H42792   9.329   0.054   0.293 -0.6183 -3.8440  0.2871
  317MOL0     H42793   9.191  -0.292   0.487  0.0740  1.9737  1.9768
  317MOL0     H42794   8.687   0.311   0.549  1.4028 -0.3091 -1.6149
  317MOL0     H42795   8.452   0.214   0.539 -0.2278 -1.1946 -0.2784
  318MOL0     O42796   8.891   0.194   6.721  0.0534  0.2396 -0.1232
  318MOL0     C42797   8.843   0.230   6.825 -0.4028 -0.6848  0.7038
  318MOL0     O42798   8.900   0.308   6.913 -0.0431 -0.1352  0.1672
  318MOL0     C42799   9.003   0.381   6.875 -0.4793 -0.6659 -0.1388
  318MOL0     C42800   9.116   0.400   6.953  0.0765 -0.6168 -0.2532
  318MOL0     C42801   9.210   0.499   6.919 -0.0671 -1.2904  0.2678
  318MOL0     C42802   9.211   0.565   6.797 -0.6718  0.1079 -0.1472
  318MOL0     O42803   9.314   0.650   6.757 -0.5454 -0.1867  0.2281
  318MOL0     C42804   9.409   0.679   6.855  0.2562 -0.7915 -0.7345
  318MOL0     C42805   9.536   0.745   6.780 -0.3692  0.5459 -0.0206
  318MOL0     C42806   9.658   0.785   6.875  0.5698  0.4155  0.7585
  318MOL0     C42807   9.763   0.869   6.801 -0.1150  0.3987  0.2357
  318MOL0     C42808   9.867   0.926   6.888  0.1640 -0.5801  0.2513
  318MOL0     C42809   9.967   0.838   6.960 -0.6238  0.4967  0.7146
  318MOL0     C42810  10.080   0.790   6.871 -0.5408  0.2136 -0.4364
  318MOL0     C42811  10.161   0.663   6.935 -0.1651 -0.9028 -0.0101
  318MOL0     N42812  10.295   0.710   6.976  0.4870  0.0419 -0.5124
  318MOL0     C42813  10.321   0.759   7.098  1.1600  0.2694 -0.2035
  318MOL0     C42814  10.453   0.779   7.111 -1.7833  0.1742  0.1360
  318MOL0     C42815  10.532   0.806   7.226  0.1256  0.3216 -0.9178
  318MOL0     C42816  10.456   0.797   7.368  1.3397 -0.8937  0.1532
  318MOL0     C42817  10.464   0.650   7.427 -0.4522 -0.1868  1.3478
  318MOL0     C42818  10.342   0.602   7.520 -0.5001  0.3731 -0.0259
  318MOL0     O42819  10.406   0.508   7.603 -0.1508  0.3043  0.3535
  318MOL0     C42820  10.327   0.459   7.701  0.4919 -0.2255 -0.1274
  318MOL0     C42821  10.187   0.467   7.707 -0.0330 -0.8661 -0.1834
  318MOL0     C42822  10.120   0.432   7.831 -0.9404 -0.2133 -0.0222
  318MOL0     C42823   9.982   0.463   7.849  0.3572 -0.0811  1.0636
  318MOL0     C42824  10.189   0.371   7.935 -0.2295  0.1364  0.6089
  318MOL0     C42825  10.130   0.341   8.058  0.1027  0.2120 -0.5070
  318MOL0     O42826  10.186   0.404   8.168 -0.6721 -0.0471 -0.5714
  318MOL0     C42827  10.146   0.369   8.289 -0.6717  0.2514 -0.1703
  318MOL0     C42828  10.012   0.376   8.329 -0.1976  0.2776  0.3233
  318MOL0     C42829   9.979   0.349   8.459 -0.4832 -0.2016  0.4461
  318MOL0     C42830  10.067   0.301   8.539 -0.3384  1.7474 -1.1105
  318MOL0     O42831  10.022   0.261   8.663 -0.6675 -0.3209 -0.0385
  318MOL0     C42832   9.947   0.142   8.674  0.1005  0.7447 -0.2262
  318MOL0     C42833   9.815   0.168   8.746  0.4959  0.1431  0.2321
  318MOL0     C42834   9.726   0.046   8.756 -0.3722  0.9535 -0.2411
  318MOL0     C42835   9.586   0.086   8.803 -0.3053 -0.4360 -0.2366
  318MOL0     C42836   9.475  -0.017   8.753 -0.0290 -0.2805 -0.1141
  318MOL0     C42837   9.336  -0.004   8.807  0.4183 -0.5995 -1.1264
  318MOL0     C42838   9.347  -0.003   8.961  0.6960  0.8721 -0.3400
  318MOL0     C42839   9.215  -0.000   9.029  0.1808  0.4978  0.3962
  318MOL0    Cl42840   9.148  -0.164   9.032 -0.0455  0.1090  0.2328
  318MOL0     C42841  10.199   0.278   8.494 -1.0221 -0.8073  0.6987
  318MOL0     C42842  10.246   0.321   8.364 -0.6125  0.2690 -1.0151
  318MOL0     O42843  10.036   0.265   8.060 -0.4432  0.1499 -0.5688
  318MOL0     C42844  10.328   0.358   7.926  0.4812 -0.6301  0.1574
  318MOL0     C42845  10.393   0.396   7.800  0.0397  0.2523 -0.8547
  318MOL0     N42846  10.501   0.729   6.993  0.1763  0.5348  0.1554
  318MOL0     N42847  10.409   0.693   6.908  0.5048  0.4403 -0.7469
  318MOL0     C42848   9.103   0.544   6.712  0.1831 -0.0381  0.3355
  318MOL0     C42849   8.996   0.464   6.756 -0.0798 -0.5399  0.1650
  318MOL0     C42850   8.712   0.180   6.864  0.0881 -0.7473 -0.4413
  318MOL0     C42851   8.667   0.206   6.993  0.6361  0.5066  0.7506
  318MOL0     C42852   8.539   0.159   7.027  0.5421  0.3639  0.7961
  318MOL0     C42853   8.450   0.119   6.929 -0.4012  0.5017  0.6467
  318MOL0     O42854   8.329   0.081   6.968 -0.3930  0.4328  0.1081
  318MOL0     C42855   8.233   0.038   6.869  0.3134  0.2250 -1.0242
  318MOL0     C42856   8.098   0.017   6.938  0.6411 -0.3184 -0.2983
  318MOL0     C42857   8.084  -0.117   7.012  0.4326  0.1876 -0.3992
  318MOL0     C42858   7.961  -0.138   7.101  0.2113 -0.2179 -0.5305
  318MOL0     C42859   7.849  -0.160   7.019  1.0878  0.0408  0.4713
  318MOL0     C42860   7.762  -0.190   6.942  0.1550 -0.1259  1.0832
  318MOL0     C42861   8.497   0.105   6.794 -0.3503  0.5848 -0.3362
  318MOL0     C42862   8.628   0.135   6.763 -0.0249 -0.5279 -0.1253
  318MOL0     H42863   9.113   0.348   7.049  1.1154  3.1416  2.0282
  318MOL0     H42864   9.283   0.526   6.995 -1.4514 -0.7196  1.4466
  318MOL0     H42865   9.368   0.752   6.924  0.7675  1.9282 -3.1123
  318MOL0     H42866   9.455   0.597   6.911  1.7598  0.5545  0.0975
  318MOL0     H42867   9.590   0.681   6.710  2.1346  1.3404  1.0555
  318MOL0     H42868   9.500   0.830   6.722 -1.0321 -1.2942 -2.4394
  318MOL0     H42869   9.619   0.841   6.961 -1.3768 -1.6266  1.3125
  318MOL0     H42870   9.695   0.690   6.916 -0.2365  0.7200  2.2814
  318MOL0     H42871   9.810   0.819   6.717  1.6414  3.2737 -0.6242
  318MOL0     H42872   9.700   0.950   6.762 -0.1777  0.1216 -0.2437
  318MOL0     H42873   9.926   0.999   6.832 -1.5860  0.3336 -0.4810
  318MOL0     H42874   9.812   0.985   6.962  1.6370  1.5480 -0.2865
  318MOL0     H42875  10.018   0.887   7.044  1.6449 -0.1086 -0.2439
  318MOL0     H42876   9.902   0.757   6.992  1.2642 -0.9179  1.1228
  318MOL0     H42877  10.054   0.759   6.770  0.0018  1.1491 -0.8815
  318MOL0     H42878  10.152   0.871   6.854 -0.7796  0.3297 -0.8931
  318MOL0     H42879  10.172   0.590   6.854 -1.2819 -0.5234 -0.5217
  318MOL0     H42880  10.114   0.612   7.020 -0.2050 -3.0663 -1.2781
  318MOL0     H42881  10.247   0.780   7.174  2.3079  0.3923  0.9179
  318MOL0     H42882  10.623   0.745   7.232 -1.8320 -2.6608  2.5642
  318MOL0     H42883  10.555   0.913   7.224 -0.4229  0.4643 -0.2267
  318MOL0     H42884  10.357   0.843   7.359  2.7585  1.9272 -3.7142
  318MOL0     H42885  10.521   0.856   7.432  0.4617  2.3096 -1.7054
  318MOL0     H42886  10.551   0.632   7.489 -0.5900 -2.6951  0.9242
  318MOL0     H42887  10.487   0.578   7.348  0.2046 -0.2382  1.5882
  318MOL0     H42888  10.265   0.549   7.463 -1.8532 -1.0044  2.8498
  318MOL0     H42889  10.299   0.686   7.575  0.2026  0.7088  0.0172
  318MOL0     H42890  10.130   0.522   7.634 -1.5566  3.7989  3.9722
  318MOL0     H42891   9.921   0.381   7.810  1.6756 -0.5288 -0.1438
  318MOL0     H42892   9.949   0.487   7.950  0.9304  1.8560  0.8254
  318MOL0     H42893   9.961   0.556   7.796  3.2873  0.2655  0.3358
  318MOL0     H42894   9.938   0.410   8.257 -1.2768 -1.3382  0.6163
  318MOL0     H42895   9.884   0.387   8.497 -0.4620 -1.5838  1.9933
  318MOL0     H42896   9.916   0.104   8.576  0.0218 -2.3287  0.9001
  318MOL0     H42897   9.992   0.060   8.731 -1.3020  0.0908 -0.0234
  318MOL0     H42898   9.823   0.227   8.838 -1.9588  1.3427 -0.2542
  318MOL0     H42899   9.764   0.237   8.677 -1.0922 -0.6747  0.5538
  318MOL0     H42900   9.773  -0.027   8.822  2.4025 -0.2526 -3.2866
  318MOL0     H42901   9.721  -0.002   8.657  2.0316  1.4096 -0.6473
  318MOL0     H42902   9.578   0.087   8.912 -1.7000 -0.7452 -0.3163
  318MOL0     H42903   9.571   0.188   8.765  1.5713  0.5475  1.4594
  318MOL0     H42904   9.496  -0.123   8.770 -2.7898 -0.9807 -0.5651
  318MOL0     H42905   9.464  -0.018   8.644  1.4262  2.8572 -0.3964
  318MOL0     H42906   9.293   0.083   8.757 -1.0328 -0.7875 -0.2689
  318MOL0     H42907   9.282  -0.096   8.782 -0.0157  0.3843 -4.1739
  318MOL0     H42908   9.393   0.089   8.998 -0.8044  1.0213  1.3128
  318MOL0     H42909   9.402  -0.090   8.998 -1.3870 -0.3294  0.0419
  318MOL0     H42910   9.153   0.077   8.982  1.5244  1.1476 -0.3454
  318MOL0     H42911   9.235   0.030   9.133  2.3558 -2.3521  0.9135
  318MOL0     H42912  10.273   0.235   8.560 -1.8938 -0.7389  1.7446
  318MOL0     H42913  10.347   0.303   8.329 -0.5472 -0.3456 -0.5138
  318MOL0     H42914  10.386   0.321   8.010 -0.8523 -0.8768  1.0059
  318MOL0     H42915  10.498   0.372   7.806 -0.3255 -2.1041 -2.6464
  318MOL0     H42916   9.102   0.586   6.612  1.3286 -0.0015  0.3187
  318MOL0     H42917   8.910   0.461   6.689 -2.3054 -2.8711  2.8805
  318MOL0     H42918   8.733   0.251   7.066 -0.8234 -0.2940  2.6525
  318MOL0     H42919   8.515   0.168   7.133  0.5945  1.8793  0.6993
  318MOL0     H42920   8.225   0.116   6.793  0.0603  1.0158 -0.2118
  318MOL0     H42921   8.263  -0.057   6.825  0.1178 -0.2168 -0.2223
  318MOL0     H42922   8.025   0.016   6.856  0.1086  2.7773  0.0072
  318MOL0     H42923   8.070   0.102   7.001 -3.5769 -3.0770  2.0046
  318MOL0     H42924   8.179  -0.123   7.066  0.3297  4.8155  0.6893
  318MOL0     H42925   8.093  -0.202   6.943  2.7833 -0.2999  0.3860
  318MOL0     H42926   7.944  -0.053   7.169  3.8985  0.6234 -0.4361
  318MOL0     H42927   7.971  -0.225   7.167  2.5073  1.2094  1.1773
  318MOL0     H42928   7.704  -0.239   6.867  0.8230 -1.4733  1.4055
  318MOL0     H42929   8.441   0.078   6.705  3.7023  1.5624 -3.4773
  318MOL0     H42930   8.663   0.136   6.661 -0.6617  3.6395 -0.4667
  319MOL0     O42931   1.918   0.611   5.183 -0.2237 -0.1603 -0.4313
  319MOL0     C42932   1.861   0.512   5.224  0.5169 -0.5733 -0.8009
  319MOL0     O42933   1.753   0.499   5.307  0.4120  0.0501  0.4943
  319MOL0     C42934   1.676   0.603   5.348  0.2209  0.4708 -0.6920
  319MOL0     C42935   1.725   0.727   5.364  0.7639  0.4010  0.6537
  319MOL0     C42936   1.643   0.832   5.401 -0.7707 -0.5769  0.8629
  319MOL0     C42937   1.511   0.808   5.427 -0.2736 -0.1382 -0.6812
  319MOL0     O42938   1.431   0.904   5.468  0.4933 -0.7475 -0.8039
  319MOL0     C42939   1.353   0.905   5.591 -0.8605  0.5512  1.0539
  319MOL0     C42940   1.455   0.931   5.704  0.1255  0.3003  0.3446
  319MOL0     C42941   1.497   0.800   5.766 -0.0841  0.8782  0.7604
  319MOL0     C42942   1.586   0.806   5.889 -0.7282  0.3220  0.1496
  319MOL0     C42943   1.609   0.670   5.960 -0.0497  0.4007 -0.2467
  319MOL0     C42944   1.692   0.676   6.086 -0.1578 -0.1633  0.7121
  319MOL0     C42945   1.841   0.690   6.050  0.3860  0.7152  0.0018
  319MOL0     C42946   1.934   0.700   6.174 -0.7852  0.3344  0.4885
  319MOL0     N42947   2.073   0.701   6.121 -0.1147  0.5116  0.3403
  319MOL0     C42948   2.138   0.812   6.066 -1.7657  0.4113  0.1848
  319MOL0     C42949   2.236   0.772   5.984 -0.1443 -0.2656  0.6134
  319MOL0     C42950   2.303   0.862   5.898 -0.1849  0.2111  0.2864
  319MOL0     C42951   2.400   0.971   5.962 -0.2415 -0.0914 -0.1165
  319MOL0     C42952   2.421   1.102   5.876 -0.5514 -0.4975 -0.1316
  319MOL0     C42953   2.501   1.193   5.966 -0.4706 -0.0890  0.5229
  319MOL0     O42954   2.465   1.335   5.963  0.9508  0.2342  0.8883
  319MOL0     C42955   2.529   1.414   6.057  0.3989 -0.3854  1.0363
  319MOL0     C42956   2.664   1.389   6.093  0.3234 -0.1415 -0.7230
  319MOL0     C42957   2.722   1.475   6.189  0.0450  0.8638  0.0184
  319MOL0     C42958   2.864   1.445   6.237  0.4899  0.4266 -0.0446
  319MOL0     C42959   2.648   1.578   6.240 -0.1994  1.0470  0.2582
  319MOL0     C42960   2.709   1.683   6.326  0.0937  0.0468 -0.0329
  319MOL0     O42961   2.626   1.773   6.387 -0.4815  0.9305  0.3747
  319MOL0     C42962   2.687   1.889   6.417  0.5199 -0.3545 -0.6064
  319MOL0     C42963   2.676   1.997   6.330 -0.5147  0.3503  0.7401
  319MOL0     C42964   2.719   2.126   6.364  0.0590 -0.4464 -0.3335
  319MOL0     C42965   2.791   2.143   6.484 -0.6716 -0.5486 -0.0490
  319MOL0     O42966   2.844   2.265   6.511 -0.3164  0.5611 -0.8425
  319MOL0     C42967   2.953   2.283   6.605  0.5087  0.1566 -0.0930
  319MOL0     C42968   3.002   2.426   6.600  0.3869  0.3425  0.0011
  319MOL0     C42969   3.106   2.466   6.712 -0.2188 -0.6049  0.7000
  319MOL0     C42970   3.155   2.608   6.675  0.1108 -1.1918 -0.1032
  319MOL0     C42971   3.251   2.677   6.779 -0.3887 -0.2740  0.2827
  319MOL0     C42972   3.389   2.628   6.764 -0.3389 -0.2240  0.8427
  319MOL0     C42973   3.463   2.605   6.901 -0.3675 -0.1464  0.6130
  319MOL0     C42974   3.410   2.480   6.976  0.4296 -0.0106 -0.0609
  319MOL0    Cl42975   3.434   2.522   7.145  0.1412  0.6140  0.6310
  319MOL0     C42976   2.827   2.032   6.555 -0.0207 -0.6949 -0.1842
  319MOL0     C42977   2.779   1.904   6.524  0.4456 -0.5199  0.9505
  319MOL0     O42978   2.829   1.698   6.305 -0.1228  0.3903  0.0094
  319MOL0     C42979   2.511   1.582   6.220 -0.9455  0.8738  0.7730
  319MOL0     C42980   2.456   1.511   6.119  0.0201  0.5869  0.1529
  319MOL0     N42981   2.232   0.639   5.990 -0.1404  0.9327  0.6391
  319MOL0     N42982   2.150   0.595   6.081  0.2952  0.2367  0.3875
  319MOL0     C42983   1.457   0.684   5.415 -0.9166 -0.7184  0.6667
  319MOL0     C42984   1.541   0.580   5.383 -0.3436  0.6542 -0.3838
  319MOL0     C42985   1.905   0.383   5.172  0.3552  0.0525 -1.4315
  319MOL0     C42986   1.862   0.257   5.230  0.6551 -0.2765 -0.3680
  319MOL0     C42987   1.909   0.139   5.175 -0.5749  0.2126  0.3613
  319MOL0     C42988   1.991   0.137   5.062 -0.2219 -1.0955 -0.3474
  319MOL0     O42989   2.055   0.027   5.005 -1.2233  0.1955  0.0306
  319MOL0     C42990   2.063  -0.108   5.072  0.7396 -0.6079 -0.0139
  319MOL0     C42991   1.986  -0.206   4.989 -0.0203 -0.0478  0.7548
  319MOL0     C42992   2.000  -0.352   5.042  0.0213 -0.2288 -0.2159
  319MOL0     C42993   2.135  -0.405   5.035  0.6414  0.8774  0.2791
  319MOL0     C42994   2.189  -0.405   4.894  0.7934 -0.1104 -0.4630
  319MOL0     C42995   2.231  -0.398   4.780 -0.0540  0.3407  0.4146
  319MOL0     C42996   2.035   0.258   5.003 -0.1978  0.1572  0.6378
  319MOL0     C42997   1.978   0.376   5.054  0.2096  0.2240  0.4742
  319MOL0     H42998   1.830   0.753   5.363  1.4164 -2.0183 -0.1047
  319MOL0     H42999   1.696   0.925   5.419 -2.7416  0.6431  0.7490
  319MOL0     H43000   1.281   0.987   5.591 -0.6575  0.7859  3.4858
  319MOL0     H43001   1.298   0.813   5.614  2.2765 -1.6657  0.3986
  319MOL0     H43002   1.532   0.999   5.667 -0.0052  0.2639  0.0086
  319MOL0     H43003   1.390   0.985   5.773  1.4308  1.4727  0.7202
  319MOL0     H43004   1.414   0.733   5.790  1.8136 -2.0071 -0.0642
  319MOL0     H43005   1.551   0.749   5.685  0.7184 -1.6125  2.7165
  319MOL0     H43006   1.683   0.851   5.865  0.0771 -0.9368  0.9069
  319MOL0     H43007   1.539   0.877   5.958 -2.0448 -1.2687  0.9434
  319MOL0     H43008   1.514   0.630   5.997  2.2375 -3.8305  1.7552
  319MOL0     H43009   1.648   0.599   5.887 -0.7456  1.7066 -1.9584
  319MOL0     H43010   1.662   0.760   6.149 -1.9275  1.2934 -1.8823
  319MOL0     H43011   1.681   0.583   6.142  2.6498 -0.8220  0.3603
  319MOL0     H43012   1.870   0.607   5.985  0.1171  1.4442 -1.0580
  319MOL0     H43013   1.866   0.778   5.991  0.6269 -1.2553 -3.0443
  319MOL0     H43014   1.928   0.611   6.237  2.5570 -0.6166 -0.3507
  319MOL0     H43015   1.916   0.798   6.219  1.4653  0.3920  1.3895
  319MOL0     H43016   2.113   0.917   6.080  0.8324  0.8273  2.5802
  319MOL0     H43017   2.356   0.807   5.819  3.2304 -0.5111  2.8580
  319MOL0     H43018   2.224   0.927   5.861 -0.5056  2.0949  3.8659
  319MOL0     H43019   2.491   0.914   5.986 -1.2408 -1.5912  0.2380
  319MOL0     H43020   2.365   0.992   6.063  1.3668 -1.4663  0.7797
  319MOL0     H43021   2.326   1.150   5.849 -1.0854 -2.3058 -1.6550
  319MOL0     H43022   2.482   1.087   5.787  0.6373  0.7433  0.4433
  319MOL0     H43023   2.604   1.187   5.931 -0.1693 -1.7504  1.5856
  319MOL0     H43024   2.504   1.164   6.071 -0.0302  2.5889  1.2969
  319MOL0     H43025   2.727   1.306   6.064  1.4556  0.0970  0.9668
  319MOL0     H43026   2.903   1.347   6.211  1.2357  0.2256  1.7373
  319MOL0     H43027   2.937   1.517   6.199  0.4409  0.4647 -0.0665
  319MOL0     H43028   2.857   1.453   6.346 -0.7436  3.3411 -0.2384
  319MOL0     H43029   2.630   1.993   6.232 -1.4615 -1.3356  1.2122
  319MOL0     H43030   2.720   2.201   6.286  0.8376 -0.6120 -0.4873
  319MOL0     H43031   2.938   2.246   6.707  0.6908  1.9170  0.5951
  319MOL0     H43032   3.039   2.229   6.563  2.0768  2.1041  0.4562
  319MOL0     H43033   3.049   2.440   6.502 -1.6574 -0.4889 -1.1555
  319MOL0     H43034   2.918   2.496   6.603 -0.9899 -1.2504  2.4573
  319MOL0     H43035   3.190   2.396   6.711 -2.0565 -2.9526 -0.3188
  319MOL0     H43036   3.064   2.470   6.813 -0.0586 -0.8519  0.7789
  319MOL0     H43037   3.199   2.605   6.575 -4.1927  0.7846 -2.3307
  319MOL0     H43038   3.068   2.674   6.668  1.8868  1.1664 -1.1326
  319MOL0     H43039   3.214   2.666   6.881 -0.2135  2.9534  0.8060
  319MOL0     H43040   3.250   2.785   6.759 -0.0389  0.0423  1.8532
  319MOL0     H43041   3.400   2.545   6.693 -1.0436  0.1203  0.3231
  319MOL0     H43042   3.439   2.712   6.715  1.0995 -1.9548 -0.7946
  319MOL0     H43043   3.451   2.688   6.971 -3.0329 -1.7783  2.2691
  319MOL0     H43044   3.570   2.592   6.884 -0.4666 -2.7686  1.5714
  319MOL0     H43045   3.461   2.394   6.932 -0.5341 -0.2302 -0.7957
  319MOL0     H43046   3.302   2.463   6.972  0.4541  0.1091 -2.8741
  319MOL0     H43047   2.877   2.033   6.651  0.2162 -1.6621 -0.2842
  319MOL0     H43048   2.814   1.818   6.581  1.3488 -1.1495 -0.5063
  319MOL0     H43049   2.449   1.652   6.275 -0.2257  0.4383  2.1771
  319MOL0     H43050   2.351   1.522   6.096  0.3631  2.5322 -0.6338
  319MOL0     H43051   1.352   0.681   5.444 -1.4829  1.2037 -0.9378
  319MOL0     H43052   1.508   0.476   5.379  0.7711  0.2870 -0.2680
  319MOL0     H43053   1.809   0.253   5.325  1.9163  0.2402  0.3790
  319MOL0     H43054   1.889   0.042   5.220 -1.6389 -0.4855 -1.5075
  319MOL0     H43055   2.165  -0.146   5.085  0.7605 -0.8713 -0.8823
  319MOL0     H43056   2.025  -0.099   5.174  0.4854  0.3095 -0.1844
  319MOL0     H43057   2.033  -0.202   4.890  1.1194  0.6486  1.2940
  319MOL0     H43058   1.881  -0.181   4.978 -0.0437  0.2120  1.5351
  319MOL0     H43059   1.929  -0.416   4.988 -1.0812 -0.7806  1.7773
  319MOL0     H43060   1.962  -0.357   5.144  1.5467 -0.8816  0.3463
  319MOL0     H43061   2.116  -0.507   5.069 -1.2135  1.4694  1.1358
  319MOL0     H43062   2.206  -0.360   5.105  1.4935 -3.0492  2.2282
  319MOL0     H43063   2.274  -0.393   4.682 -0.1717 -1.5520  0.2243
  319MOL0     H43064   2.090   0.272   4.910 -0.3920 -1.1805  0.2872
  319MOL0     H43065   2.005   0.465   4.998  0.6014 -2.3642 -3.8868
  320MOL0     O43066   2.018   6.022   1.122  0.4443  0.4010 -0.6071
  320MOL0     C43067   2.008   6.124   1.192  0.3573  0.3040 -0.6949
  320MOL0     O43068   1.943   6.129   1.310  0.5364  0.4219  0.0843
  320MOL0     C43069   1.873   6.027   1.373 -0.0636 -0.1253  0.5546
  320MOL0     C43070   1.925   5.892   1.383 -0.1633  0.4789 -0.3396
  320MOL0     C43071   1.848   5.799   1.454  0.7338  0.3573 -0.0226
  320MOL0     C43072   1.720   5.824   1.509 -0.6696  0.1776 -1.3286
  320MOL0     O43073   1.642   5.734   1.567  0.0800  0.2954 -0.0408
  320MOL0     C43074   1.686   5.657   1.677  0.2420 -0.3786  0.2793
  320MOL0     C43075   1.571   5.590   1.759  0.3723 -0.6218  0.8151
  320MOL0     C43076   1.502   5.482   1.678  0.7001  1.0299  0.2319
  320MOL0     C43077   1.364   5.456   1.728 -0.4026 -0.3330 -0.4919
  320MOL0     C43078   1.295   5.339   1.653  0.1734  0.3730  0.2224
  320MOL0     C43079   1.150   5.307   1.701 -0.7130 -0.8015  0.3453
  320MOL0     C43080   1.143   5.240   1.832 -0.7154  1.2438 -1.0899
  320MOL0     C43081   1.056   5.311   1.939 -0.2999  0.6221  0.0357
  320MOL0     N43082   1.073   5.251   2.070 -0.1248  0.0873 -0.2501
  320MOL0     C43083   1.060   5.124   2.108  0.7737 -0.3185  0.7152
  320MOL0     C43084   1.053   5.125   2.242  0.1715 -0.1511 -0.2848
  320MOL0     C43085   1.002   5.013   2.329 -0.7903  0.0695  0.3157
  320MOL0     C43086   0.854   5.038   2.359  0.3393  0.1284  1.1651
  320MOL0     C43087   0.808   4.948   2.476 -0.7354  0.1100  0.5023
  320MOL0     C43088   0.721   5.027   2.578  0.3408  0.9157  0.1489
  320MOL0     O43089   0.608   5.086   2.504 -0.5427  0.3059 -0.3113
  320MOL0     C43090   0.535   5.196   2.554  0.1274 -0.4075  0.1232
  320MOL0     C43091   0.437   5.250   2.466  0.3669  0.3982  0.3951
  320MOL0     C43092   0.355   5.354   2.505 -0.1764  0.0387 -0.1575
  320MOL0     C43093   0.230   5.385   2.418  0.3256 -0.0749  0.8549
  320MOL0     C43094   0.377   5.416   2.629  0.0137  1.0091  0.0202
  320MOL0     C43095   0.290   5.527   2.689  0.3105 -0.0444 -0.2452
  320MOL0     O43096   0.158   5.548   2.646  0.0032 -0.1907  0.4051
  320MOL0     C43097   0.096   5.664   2.693  0.1110  0.2994 -0.0014
  320MOL0     C43098  -0.010   5.673   2.790  0.5988  0.5026  0.2917
  320MOL0     C43099  -0.066   5.794   2.808  0.5313  1.4823 -0.0745
  320MOL0     C43100  -0.026   5.903   2.739  0.1247 -1.3014 -0.0810
  320MOL0     O43101  -0.109   6.010   2.759  0.7845 -0.1754  0.2741
  320MOL0     C43102  -0.094   6.155   2.745 -0.2833  1.2172  0.6658
  320MOL0     C43103   0.002   6.202   2.847 -0.0983  1.0071 -0.3162
  320MOL0     C43104  -0.052   6.194   2.986  0.3567 -0.0037  0.3611
  320MOL0     C43105   0.029   6.290   3.072 -0.5962 -0.8650 -0.2944
  320MOL0     C43106   0.185   6.245   3.079  0.3438  0.0627 -0.1119
  320MOL0     C43107   0.258   6.320   3.193  0.7505 -0.0790  0.2421
  320MOL0     C43108   0.408   6.289   3.197  0.0606  0.1649  1.1284
  320MOL0     C43109   0.474   6.385   3.303 -0.8625  0.4375  0.1189
  320MOL0    Cl43110   0.416   6.336   3.469  0.1128  0.0056 -0.6970
  320MOL0     C43111   0.078   5.898   2.653  0.3816  0.3058  0.1300
  320MOL0     C43112   0.142   5.779   2.627 -0.8510 -0.4236 -0.0142
  320MOL0     O43113   0.334   5.582   2.789 -0.4433 -0.0305 -0.1500
  320MOL0     C43114   0.492   5.371   2.712  0.4748 -0.1213 -0.1386
  320MOL0     C43115   0.562   5.256   2.674  0.0893 -0.6742  0.0786
  320MOL0     N43116   1.088   5.249   2.284 -0.4139  0.3661 -0.0971
  320MOL0     N43117   1.096   5.329   2.178  0.5519 -0.9749 -0.1382
  320MOL0     C43118   1.682   5.959   1.518  0.2195  0.5679 -0.5626
  320MOL0     C43119   1.756   6.056   1.447  0.1536  0.0042  0.2331
  320MOL0     C43120   2.088   6.244   1.157 -0.8396 -0.0822  0.9927
  320MOL0     C43121   2.204   6.229   1.081  0.0698 -0.4479 -0.2173
  320MOL0     C43122   2.278   6.333   1.035 -0.0963  0.3440 -0.4189
  320MOL0     C43123   2.247   6.460   1.073 -0.4032 -0.4925 -0.3681
  320MOL0     O43124   2.312   6.571   1.015 -0.0222  0.5240 -0.1984
  320MOL0     C43125   2.366   6.564   0.889  0.0650  0.2302 -0.2632
  320MOL0     C43126   2.421   6.695   0.835  0.2517  0.4682  0.2743
  320MOL0     C43127   2.545   6.712   0.915  0.7241  0.1491 -0.1742
  320MOL0     C43128   2.602   6.855   0.897 -0.7178  0.5857  0.9808
  320MOL0     C43129   2.656   6.876   0.761  0.7754  0.0101 -1.1665
  320MOL0     C43130   2.677   6.915   0.650  0.0855 -0.9964 -0.5534
  320MOL0     C43131   2.132   6.488   1.151  0.0542  0.3609  0.0525
  320MOL0     C43132   2.046   6.380   1.189 -0.3512 -0.1423 -0.6844
  320MOL0     H43133   2.012   5.868   1.323 -0.9085 -0.0856 -1.2318
  320MOL0     H43134   1.880   5.695   1.461  0.6267  0.2802 -0.6656
  320MOL0     H43135   1.751   5.575   1.645 -0.3296 -1.2098  1.1919
  320MOL0     H43136   1.753   5.714   1.742  0.0251 -0.2814  0.4192
  320MOL0     H43137   1.613   5.532   1.842 -1.9222 -1.3983  1.5014
  320MOL0     H43138   1.509   5.670   1.799  0.7220 -0.4053  0.9291
  320MOL0     H43139   1.520   5.510   1.573  3.3766 -1.2133 -0.0418
  320MOL0     H43140   1.553   5.386   1.668  2.6842  2.2286 -2.9982
  320MOL0     H43141   1.370   5.427   1.834  0.3631 -2.5635 -1.0909
  320MOL0     H43142   1.296   5.540   1.710 -1.0477 -0.8798 -0.6577
  320MOL0     H43143   1.301   5.371   1.548 -0.2832  1.0037  0.3780
  320MOL0     H43144   1.364   5.256   1.668 -0.0590 -0.0162 -0.7532
  320MOL0     H43145   1.096   5.402   1.701  1.3711  0.4330  0.2293
  320MOL0     H43146   1.109   5.257   1.613  0.1374  0.1343 -0.5991
  320MOL0     H43147   1.095   5.141   1.828  1.3798 -0.2126  3.4632
  320MOL0     H43148   1.239   5.241   1.883 -3.0086 -0.9564  4.0185
  320MOL0     H43149   0.953   5.301   1.905  0.0557 -0.7972 -0.7236
  320MOL0     H43150   1.079   5.418   1.943 -0.7086  0.7601 -0.9919
  320MOL0     H43151   1.043   5.031   2.053  0.8204  1.0455 -1.7193
  320MOL0     H43152   1.019   4.923   2.268 -0.1447  1.0246 -0.9705
  320MOL0     H43153   1.065   5.017   2.418  1.1766 -1.1196 -0.9646
  320MOL0     H43154   0.795   5.010   2.272  0.4929 -3.0251  1.9262
  320MOL0     H43155   0.834   5.139   2.394  2.1162  0.5456  1.0852
  320MOL0     H43156   0.898   4.911   2.526  1.3790  2.4656 -1.2805
  320MOL0     H43157   0.753   4.864   2.433 -0.4279  0.8852 -1.5106
  320MOL0     H43158   0.785   5.101   2.626 -2.7466  1.8339  3.2832
  320MOL0     H43159   0.690   4.957   2.656 -2.3657  0.8368 -0.8594
  320MOL0     H43160   0.424   5.187   2.379 -1.9088 -0.7050  1.4530
  320MOL0     H43161   0.140   5.360   2.475 -0.6387 -0.2668 -0.6619
  320MOL0     H43162   0.241   5.493   2.409 -0.4670 -0.1687 -4.1602
  320MOL0     H43163   0.225   5.333   2.321 -1.4863  1.6863 -0.0675
  320MOL0     H43164  -0.032   5.586   2.850  1.5970 -1.0613 -1.5127
  320MOL0     H43165  -0.150   5.815   2.873 -0.6200  3.2662 -2.0321
  320MOL0     H43166  -0.086   6.194   2.643 -3.3522  1.5865  0.4881
  320MOL0     H43167  -0.191   6.200   2.765 -1.4890 -1.2552  0.6702
  320MOL0     H43168   0.097   6.147   2.851  0.5264  2.0967  0.4380
  320MOL0     H43169   0.033   6.304   2.820  1.0703  1.0907  1.2082
  320MOL0     H43170  -0.045   6.094   3.031 -0.1183  0.5838  1.8050
  320MOL0     H43171  -0.160   6.216   2.984  0.0176 -1.4063  1.5243
  320MOL0     H43172   0.024   6.389   3.026  0.1768 -0.3338  0.7415
  320MOL0     H43173  -0.017   6.286   3.171 -0.8622 -1.5990 -0.4408
  320MOL0     H43174   0.222   6.266   2.978 -2.0822  0.3358 -1.0118
  320MOL0     H43175   0.191   6.137   3.095  2.3673 -0.0746 -1.4133
  320MOL0     H43176   0.240   6.428   3.188 -0.6994 -0.2850  0.4666
  320MOL0     H43177   0.218   6.272   3.284  2.1195 -1.2713  0.2514
  320MOL0     H43178   0.453   6.321   3.103 -0.5857 -1.7092  0.1248
  320MOL0     H43179   0.435   6.186   3.223 -0.1520 -0.4792 -1.0504
  320MOL0     H43180   0.440   6.488   3.285 -1.7603  0.8088  3.3091
  320MOL0     H43181   0.581   6.377   3.283 -0.4173  0.3985  2.2775
  320MOL0     H43182   0.112   5.987   2.603 -2.9445  1.1437 -0.8922
  320MOL0     H43183   0.213   5.778   2.544 -1.5244  4.0743 -0.8979
  320MOL0     H43184   0.498   5.401   2.816 -1.7826 -5.5147  1.9001
  320MOL0     H43185   0.647   5.227   2.736  1.4751  0.5339 -1.1690
  320MOL0     H43186   1.595   5.989   1.575  1.1744 -0.4072  1.5199
  320MOL0     H43187   1.716   6.156   1.440 -0.5859 -0.3050 -0.0846
  320MOL0     H43188   2.222   6.124   1.063 -0.7107 -0.7153  0.4981
  320MOL0     H43189   2.362   6.309   0.971  0.2713 -2.9410  1.0933
  320MOL0     H43190   2.438   6.485   0.870  0.0885  0.9690 -3.9532
  320MOL0     H43191   2.283   6.528   0.828 -0.3461 -2.0589  1.4886
  320MOL0     H43192   2.354   6.778   0.857 -2.2425 -1.9240  2.5408
  320MOL0     H43193   2.443   6.689   0.728  2.3586 -0.5756  0.7056
  320MOL0     H43194   2.621   6.640   0.882  2.5992  0.7258  2.5171
  320MOL0     H43195   2.523   6.689   1.019  3.2233  1.0371  0.6238
  320MOL0     H43196   2.674   6.879   0.976  0.7719  0.1788 -0.2044
  320MOL0     H43197   2.522   6.929   0.906  0.4341  1.9092  0.6240
  320MOL0     H43198   2.685   6.968   0.558 -2.1590  1.8109  0.7181
  320MOL0     H43199   2.100   6.591   1.167  0.0048  0.7812 -2.4049
  320MOL0     H43200   1.960   6.410   1.248  0.6825 -0.4107  1.0064
  321MOL0     O43201   1.545   6.403   8.675  0.5375  0.2865  1.0947
  321MOL0     C43202   1.432   6.348   8.680  0.4283 -0.3377  1.3457
  321MOL0     O43203   1.329   6.345   8.583 -0.2678 -0.5949 -0.0041
  321MOL0     C43204   1.311   6.465   8.513 -0.4931  0.8140 -0.1806
  321MOL0     C43205   1.380   6.475   8.391  0.0293  0.1477 -0.2744
  321MOL0     C43206   1.357   6.597   8.325 -0.2987  0.9125 -0.0766
  321MOL0     C43207   1.266   6.688   8.359  0.2790 -0.8340 -0.4753
  321MOL0     O43208   1.223   6.806   8.285  0.1784 -0.0257  0.0658
  321MOL0     C43209   1.231   6.817   8.144  0.1191  0.2332  0.1180
  321MOL0     C43210   1.347   6.910   8.092 -0.3140 -0.1620  0.0552
  321MOL0     C43211   1.321   7.061   8.123 -0.9392 -0.5921 -0.1819
  321MOL0     C43212   1.204   7.118   8.045  0.8856 -0.1347 -1.0965
  321MOL0     C43213   1.234   7.144   7.896 -0.5194 -0.8248 -0.3570
  321MOL0     C43214   1.110   7.200   7.824 -1.3504  0.5213 -0.6031
  321MOL0     C43215   1.148   7.239   7.680 -1.0250  0.4204  0.3381
  321MOL0     C43216   1.048   7.329   7.600 -0.3834  0.5940 -0.5413
  321MOL0     N43217   0.949   7.237   7.552 -0.0542  0.6027 -0.2778
  321MOL0     C43218   0.948   7.166   7.435  0.7425 -0.0106  0.3561
  321MOL0     C43219   0.829   7.093   7.431 -0.3702  0.5688  0.2471
  321MOL0     C43220   0.778   6.989   7.333 -0.1217  0.3531 -0.9367
  321MOL0     C43221   0.668   7.042   7.236  0.3742  0.2033 -0.1327
  321MOL0     C43222   0.542   7.099   7.302 -0.1776 -0.3701  0.1982
  321MOL0     C43223   0.427   7.153   7.219 -0.4020  0.3332  0.4197
  321MOL0     O43224   0.360   7.056   7.136 -0.7162 -0.5671 -0.1252
  321MOL0     C43225   0.278   6.958   7.186 -0.6174  0.6551 -0.8773
  321MOL0     C43226   0.227   6.966   7.318 -0.4496  0.1079  0.1527
  321MOL0     C43227   0.124   6.878   7.363 -0.2966 -0.0409 -0.1605
  321MOL0     C43228   0.054   6.908   7.494  0.0830  0.3745 -0.1793
  321MOL0     C43229   0.077   6.779   7.269  0.1972  0.8922  0.3071
  321MOL0     C43230  -0.032   6.679   7.303 -0.2452  0.1911 -0.4250
  321MOL0     O43231  -0.127   6.665   7.203  0.2926 -0.1801 -0.6923
  321MOL0     C43232  -0.217   6.566   7.223 -0.4194 -0.1736  0.4581
  321MOL0     C43233  -0.181   6.432   7.218  0.0033 -0.4381  0.0246
  321MOL0     C43234  -0.281   6.339   7.235  0.4777  0.9083 -0.9771
  321MOL0     C43235  -0.418   6.369   7.266  0.1773 -0.3647 -0.3658
  321MOL0     O43236  -0.504   6.253   7.270  0.2748  0.0987  0.3187
  321MOL0     C43237  -0.650   6.280   7.294 -0.4408  0.5110 -0.7795
  321MOL0     C43238  -0.680   6.276   7.447  0.0861  0.1958  0.2591
  321MOL0     C43239  -0.637   6.406   7.521 -0.2459  0.3712 -1.3935
  321MOL0     C43240  -0.676   6.404   7.670 -0.4960 -0.8214  0.3885
  321MOL0     C43241  -0.823   6.433   7.697  1.1074 -0.3259 -0.5521
  321MOL0     C43242  -0.891   6.554   7.628 -0.3496 -0.1521 -0.0204
  321MOL0     C43243  -1.002   6.599   7.719 -0.7725  0.2162  0.4886
  321MOL0     C43244  -1.080   6.715   7.657  0.5551  0.3244  0.3907
  321MOL0    Cl43245  -1.164   6.794   7.795  0.3313  0.0330 -0.3103
  321MOL0     C43246  -0.457   6.508   7.267  0.1411 -0.2142 -0.2321
  321MOL0     C43247  -0.353   6.601   7.234 -0.2936 -0.5104  0.7756
  321MOL0     O43248  -0.022   6.616   7.411 -0.6713 -0.1549 -0.4863
  321MOL0     C43249   0.132   6.774   7.139  0.0011 -0.8386  1.5069
  321MOL0     C43250   0.230   6.860   7.100  0.0597  0.1181 -0.1025
  321MOL0     N43251   0.768   7.122   7.548 -0.5030 -0.6796 -0.8419
  321MOL0     N43252   0.829   7.204   7.614 -0.1166 -0.6014  0.6433
  321MOL0     C43253   1.199   6.662   8.474 -0.4313 -0.4396 -0.4669
  321MOL0     C43254   1.214   6.554   8.556  0.7052 -0.1519 -0.7879
  321MOL0     C43255   1.392   6.278   8.806  0.5045 -0.0758  0.0890
  321MOL0     C43256   1.476   6.264   8.922  0.8621 -0.1731  1.0045
  321MOL0     C43257   1.444   6.178   9.030 -0.4770  0.2024  0.4991
  321MOL0     C43258   1.324   6.105   9.028  0.2104 -0.4205 -0.6830
  321MOL0     O43259   1.282   6.010   9.120 -0.2889 -0.1199  0.0596
  321MOL0     C43260   1.352   6.020   9.249 -0.4308 -0.2733 -0.5282
  321MOL0     C43261   1.260   5.960   9.343 -0.2832  0.0914  0.2611
  321MOL0     C43262   1.316   5.907   9.486 -0.3358  0.6996  0.3236
  321MOL0     C43263   1.396   6.015   9.554  0.9083 -0.4756 -0.1930
  321MOL0     C43264   1.301   6.112   9.599 -0.0003 -1.3646 -0.4302
  321MOL0     C43265   1.215   6.182   9.639  0.1023 -0.3044  0.5625
  321MOL0     C43266   1.240   6.126   8.920 -0.2890 -0.8095  0.5213
  321MOL0     C43267   1.267   6.208   8.811  0.3289 -1.1225  0.5824
  321MOL0     H43268   1.439   6.401   8.339 -3.2054 -1.9324 -1.2795
  321MOL0     H43269   1.404   6.611   8.228  2.4283  0.9864  1.1587
  321MOL0     H43270   1.255   6.720   8.101  2.0596 -0.4018  2.4336
  321MOL0     H43271   1.134   6.864   8.125  0.6903  1.1778 -0.5982
  321MOL0     H43272   1.430   6.872   8.151  1.2473  2.2201 -0.4702
  321MOL0     H43273   1.354   6.895   7.984 -2.0839 -0.7179 -0.0238
  321MOL0     H43274   1.302   7.070   8.231  2.1877  0.9356  0.3302
  321MOL0     H43275   1.408   7.116   8.089 -0.0693 -1.1581  1.0333
  321MOL0     H43276   1.117   7.053   8.057 -1.4583  3.2085  2.7126
  321MOL0     H43277   1.179   7.209   8.101  2.1390 -0.7841  0.5866
  321MOL0     H43278   1.313   7.220   7.891  0.4835 -1.7419  0.8296
  321MOL0     H43279   1.255   7.049   7.847  1.3450 -0.2036 -0.8480
  321MOL0     H43280   1.021   7.137   7.837  0.9125 -2.6483  0.7201
  321MOL0     H43281   1.083   7.294   7.872  0.2206  0.4572  0.4534
  321MOL0     H43282   1.234   7.305   7.699 -0.7754 -0.1165  1.1469
  321MOL0     H43283   1.182   7.150   7.628  2.7703 -2.0441  5.9959
  321MOL0     H43284   1.094   7.376   7.513  1.9611 -2.1313 -0.9556
  321MOL0     H43285   1.010   7.400   7.674  2.0828  2.0214 -0.5702
  321MOL0     H43286   1.017   7.170   7.352  1.0973  1.4448  0.6943
  321MOL0     H43287   0.857   6.941   7.276 -0.5296 -1.5372  0.0123
  321MOL0     H43288   0.743   6.913   7.404  2.6899 -2.5002 -2.4067
  321MOL0     H43289   0.625   6.962   7.175 -0.4833  0.1053  0.5795
  321MOL0     H43290   0.715   7.118   7.172  4.6985 -0.9407  1.3447
  321MOL0     H43291   0.571   7.187   7.360 -4.0988  1.6165 -0.5061
  321MOL0     H43292   0.504   7.025   7.373  0.2216  0.6988  1.5801
  321MOL0     H43293   0.463   7.230   7.150  2.3246 -0.6351  0.6590
  321MOL0     H43294   0.360   7.209   7.284  0.9728  0.3623  1.8496
  321MOL0     H43295   0.264   7.042   7.386 -0.2172  0.2373 -0.1197
  321MOL0     H43296  -0.000   7.001   7.479 -2.0795 -1.1917 -3.1217
  321MOL0     H43297  -0.014   6.824   7.509  1.3120 -1.6020 -4.1638
  321MOL0     H43298   0.123   6.915   7.579  0.3515  0.4726 -0.4060
  321MOL0     H43299  -0.079   6.396   7.207  0.4529  0.4392  1.1185
  321MOL0     H43300  -0.262   6.232   7.233 -5.1105 -0.4435  1.4428
  321MOL0     H43301  -0.684   6.373   7.248 -2.2201  0.7239  0.8120
  321MOL0     H43302  -0.716   6.210   7.242  2.5530 -2.4056 -0.9735
  321MOL0     H43303  -0.788   6.281   7.465 -0.1833 -0.5848 -0.9637
  321MOL0     H43304  -0.636   6.183   7.484 -2.8046 -1.9977 -1.3745
  321MOL0     H43305  -0.674   6.499   7.478 -1.8132 -0.0106 -0.9524
  321MOL0     H43306  -0.528   6.414   7.525  0.0030 -2.4797  0.2664
  321MOL0     H43307  -0.658   6.301   7.702 -2.3435 -1.0778  0.7310
  321MOL0     H43308  -0.619   6.475   7.730  0.1684 -1.1860  0.1944
  321MOL0     H43309  -0.825   6.455   7.804 -3.9183 -3.1379  0.2538
  321MOL0     H43310  -0.897   6.352   7.700 -0.6025  1.1142  3.2733
  321MOL0     H43311  -0.829   6.642   7.610 -2.6324  1.7694  0.9553
  321MOL0     H43312  -0.931   6.511   7.535 -0.6357 -2.2717  1.0052
  321MOL0     H43313  -0.953   6.632   7.812  4.2497 -0.6410 -1.5424
  321MOL0     H43314  -1.066   6.512   7.737 -1.1030 -0.6226 -3.7059
  321MOL0     H43315  -1.150   6.679   7.581 -2.9054 -0.8487  3.7989
  321MOL0     H43316  -1.004   6.772   7.602  2.1287  0.6899  2.7825
  321MOL0     H43317  -0.560   6.543   7.271  0.3142  0.3096 -0.2623
  321MOL0     H43318  -0.389   6.703   7.224 -1.3705 -1.0612 -1.8285
  321MOL0     H43319   0.107   6.704   7.060  0.1514  0.8891 -0.1241
  321MOL0     H43320   0.274   6.844   7.003  0.0872 -1.2934  0.1201
  321MOL0     H43321   1.136   6.744   8.507 -1.4882 -1.1475 -0.6627
  321MOL0     H43322   1.158   6.534   8.646  0.1953 -0.5458 -1.1855
  321MOL0     H43323   1.574   6.311   8.921  0.9573 -0.3404  1.7733
  321MOL0     H43324   1.526   6.168   9.100  1.2137 -3.6758 -1.6673
  321MOL0     H43325   1.454   5.981   9.256  1.5552  4.2574 -0.4539
  321MOL0     H43326   1.368   6.126   9.272  1.0046  0.5140 -4.3483
  321MOL0     H43327   1.212   5.875   9.293 -0.8602 -0.9544  2.4420
  321MOL0     H43328   1.189   6.039   9.369 -0.3724 -0.8085  3.1527
  321MOL0     H43329   1.381   5.822   9.461 -0.6494 -0.0455  1.9253
  321MOL0     H43330   1.235   5.869   9.548  0.5698 -2.1152 -0.0685
  321MOL0     H43331   1.466   6.064   9.486  0.4220 -0.7806 -0.9335
  321MOL0     H43332   1.462   5.972   9.630  0.3597 -1.9266 -0.5063
  321MOL0     H43333   1.149   6.259   9.674  1.5005  0.9859  0.5067
  321MOL0     H43334   1.148   6.069   8.922  0.4016 -2.0260  3.0350
  321MOL0     H43335   1.196   6.205   8.730  2.0776 -0.3660 -1.0563
  322MOL0     O43336  11.018  10.944  10.112  0.1839  0.6156 -0.0794
  322MOL0     C43337  11.020  11.065  10.089 -0.0945  0.5345 -0.5659
  322MOL0     O43338  10.926  11.160  10.117 -0.2817 -0.3208  0.3560
  322MOL0     C43339  10.794  11.118  10.125 -0.5125  0.8909 -0.5752
  322MOL0     C43340  10.743  11.032  10.026 -0.3744  0.3368 -0.2346
  322MOL0     C43341  10.607  11.002  10.029  0.1493  0.6001  1.0534
  322MOL0     C43342  10.521  11.062  10.115  0.4609  1.3449 -0.3523
  322MOL0     O43343  10.390  11.026  10.108  0.3378 -0.3473 -0.3562
  322MOL0     C43344  10.297  11.118  10.169 -0.0773 -0.8787  0.0466
  322MOL0     C43345  10.161  11.057  10.148 -0.0173  0.1931  0.4011
  322MOL0     C43346  10.125  11.063   9.997  0.8062 -0.1875  0.0483
  322MOL0     C43347  10.008  10.970   9.968 -0.0218  0.3962 -0.8398
  322MOL0     C43348   9.970  11.006   9.825 -0.3392 -0.6684 -0.0923
  322MOL0     C43349   9.858  10.916   9.768 -0.1300  0.2810  0.3697
  322MOL0     C43350   9.734  10.961   9.840  0.8625 -0.4228  0.3508
  322MOL0     C43351   9.616  10.874   9.795 -0.7846 -0.0070 -0.6164
  322MOL0     N43352   9.567  10.927   9.668 -0.8441  0.6761  0.0177
  322MOL0     C43353   9.583  10.861   9.550 -0.0627  0.9635  0.7995
  322MOL0     C43354   9.522  10.935   9.453  0.1544 -0.3038 -0.1830
  322MOL0     C43355   9.527  10.902   9.306 -0.6192 -0.6563  0.4275
  322MOL0     C43356   9.483  11.010   9.216 -0.0165 -0.5752 -0.4086
  322MOL0     C43357   9.463  10.956   9.081 -0.2306  0.0397  0.0669
  322MOL0     C43358   9.467  11.067   8.982  1.0926 -0.0382  0.1999
  322MOL0     O43359   9.386  11.026   8.864  0.7416  0.6081 -0.2028
  322MOL0     C43360   9.441  10.963   8.755 -0.7783 -0.7347 -0.6520
  322MOL0     C43361   9.576  10.925   8.744  0.8334  0.1911  0.9043
  322MOL0     C43362   9.614  10.843   8.637 -0.2791  0.0553  0.8497
  322MOL0     C43363   9.768  10.826   8.623  0.8340 -0.2422  0.2456
  322MOL0     C43364   9.523  10.825   8.529 -0.9797 -0.1275 -0.3462
  322MOL0     C43365   9.550  10.736   8.419  0.0321 -0.0577  0.5059
  322MOL0     O43366   9.501  10.771   8.295 -0.8386 -0.6507  0.2273
  322MOL0     C43367   9.554  10.698   8.190 -0.0404  0.7959  0.1836
  322MOL0     C43368   9.490  10.587   8.141  0.9098  0.5411 -0.1426
  322MOL0     C43369   9.558  10.511   8.041 -0.5266  0.4905  0.2535
  322MOL0     C43370   9.670  10.551   7.986 -0.1690 -0.8697  1.1372
  322MOL0     O43371   9.705  10.471   7.886  0.3684  0.5843  0.3211
  322MOL0     C43372   9.852  10.444   7.873  0.0545  0.1106  0.5067
  322MOL0     C43373   9.877  10.312   7.786  0.4633 -0.5745 -0.2747
  322MOL0     C43374   9.870  10.334   7.636  0.7499  0.1554 -0.7714
  322MOL0     C43375   9.815  10.214   7.565  0.8118  0.1149  0.6605
  322MOL0     C43376   9.789  10.239   7.415 -0.7434  0.9587 -0.3082
  322MOL0     C43377   9.733  10.108   7.350 -1.1736  0.6291 -1.1467
  322MOL0     C43378   9.860  10.018   7.324 -0.3896 -0.2902 -0.4592
  322MOL0     C43379   9.813   9.879   7.285 -0.8876  0.2596 -0.5975
  322MOL0    Cl43380   9.734   9.883   7.121  0.0465  0.5437 -0.0508
  322MOL0     C43381   9.737  10.663   8.029 -0.0551 -0.1660 -0.4538
  322MOL0     C43382   9.678  10.738   8.140 -0.3223  0.5756  0.4045
  322MOL0     O43383   9.610  10.634   8.442  0.1430 -0.0060  0.1717
  322MOL0     C43384   9.394  10.872   8.544  0.7945  0.1378  0.5849
  322MOL0     C43385   9.351  10.937   8.654  0.6713 -0.1178 -0.3153
  322MOL0     N43386   9.458  11.050   9.518 -1.2187  0.1997  0.0579
  322MOL0     N43387   9.496  11.040   9.645 -0.0026  0.0821 -0.0933
  322MOL0     C43388  10.565  11.140  10.219 -0.5325 -0.0055  0.4750
  322MOL0     C43389  10.704  11.176  10.223 -1.0423  0.3877  0.0479
  322MOL0     C43390  11.138  11.107  10.013  1.0647  0.0436 -0.3667
  322MOL0     C43391  11.246  11.020   9.995 -0.7591 -0.1999 -0.7075
  322MOL0     C43392  11.356  11.058   9.918 -0.1296  1.0207  0.4662
  322MOL0     C43393  11.365  11.182   9.869 -0.3475  0.3026 -0.5668
  322MOL0     O43394  11.470  11.219   9.788 -0.5013  0.5890  0.1916
  322MOL0     C43395  11.503  11.348   9.741 -0.0499 -0.5707  0.9834
  322MOL0     C43396  11.401  11.404   9.642  0.1240 -0.8666  0.1762
  322MOL0     C43397  11.375  11.559   9.661  0.2239 -0.1949  0.2306
  322MOL0     C43398  11.497  11.636   9.601 -1.2467  0.1765 -0.3866
  322MOL0     C43399  11.493  11.623   9.457 -0.4793  0.1113  0.9499
  322MOL0     C43400  11.494  11.626   9.336 -0.0890  1.0712  0.8734
  322MOL0     C43401  11.276  11.284   9.906 -0.0733  0.1738 -0.5967
  322MOL0     C43402  11.158  11.243   9.980 -0.2443 -1.0525 -0.3508
  322MOL0     H43403  10.804  10.984   9.949  2.3591  0.8632  1.4706
  322MOL0     H43404  10.577  10.936   9.949  0.8459  2.7406 -1.0847
  322MOL0     H43405  10.302  11.130  10.278  0.4920 -0.7007 -0.0002
  322MOL0     H43406  10.308  11.215  10.121 -1.3959  0.9482  3.1041
  322MOL0     H43407  10.156  10.952  10.179 -2.7941 -0.3220 -1.4229
  322MOL0     H43408  10.094  11.125  10.201  1.1629  1.5366  0.2086
  322MOL0     H43409  10.106  11.170   9.979 -0.8047 -0.8861 -2.9972
  322MOL0     H43410  10.208  11.039   9.930  2.1539  0.1051  1.5545
  322MOL0     H43411  10.049  10.869   9.974 -1.6143 -0.2119  1.6638
  322MOL0     H43412   9.922  10.968  10.036 -0.8229  1.3991 -1.7757
  322MOL0     H43413   9.931  11.108   9.820  2.4901  0.5604  0.7924
  322MOL0     H43414  10.061  11.000   9.765 -1.9890 -0.2481 -2.7823
  322MOL0     H43415   9.833  10.934   9.663  1.5363 -2.7444 -0.6416
  322MOL0     H43416   9.879  10.810   9.782 -2.3067 -0.0952  1.3304
  322MOL0     H43417   9.733  10.943   9.948 -0.4942  2.3788  0.8811
  322MOL0     H43418   9.717  11.066   9.815  3.0128 -0.1976 -0.3721
  322MOL0     H43419   9.538  10.884   9.871 -0.9658  0.6427 -0.8785
  322MOL0     H43420   9.635  10.767   9.789  1.9274  0.3932 -0.1808
  322MOL0     H43421   9.645  10.774   9.530  0.1890  1.5904 -1.4488
  322MOL0     H43422   9.635  10.902   9.289 -0.6798 -1.4007 -0.0106
  322MOL0     H43423   9.486  10.803   9.285  0.1826 -1.2751  1.6693
  322MOL0     H43424   9.541  11.102   9.231 -4.3370  2.1295  2.1490
  322MOL0     H43425   9.387  11.046   9.255  1.6514  1.3846  2.2608
  322MOL0     H43426   9.364  10.909   9.084  0.8990 -2.8355 -2.6085
  322MOL0     H43427   9.528  10.875   9.049 -1.5190 -1.6704  1.5669
  322MOL0     H43428   9.572  11.083   8.957  0.7743 -0.1004 -1.2594
  322MOL0     H43429   9.439  11.168   9.014  1.4405 -0.6728  2.6767
  322MOL0     H43430   9.647  10.918   8.826 -1.8666 -1.2792  3.3399
  322MOL0     H43431   9.815  10.905   8.564 -0.0465 -1.4512 -2.2057
  322MOL0     H43432   9.811  10.817   8.723  2.9874  1.3612 -0.4569
  322MOL0     H43433   9.778  10.726   8.579 -0.2499  0.2519 -1.1903
  322MOL0     H43434   9.397  10.561   8.190  0.0466  1.3971 -1.2655
  322MOL0     H43435   9.519  10.414   8.013  2.9146 -0.9077 -0.3088
  322MOL0     H43436   9.905  10.532   7.837  0.0754 -1.0473 -2.6095
  322MOL0     H43437   9.889  10.417   7.973  0.4432  1.1404  0.6496
  322MOL0     H43438   9.966  10.258   7.821  0.0197  0.2315  2.3366
  322MOL0     H43439   9.791  10.250   7.810 -1.3271  0.7361 -2.8309
  322MOL0     H43440   9.971  10.355   7.598 -0.0584 -2.0408 -4.7531
  322MOL0     H43441   9.809  10.422   7.616  1.1468  0.5431 -0.2836
  322MOL0     H43442   9.882  10.129   7.579 -2.0439 -1.9569  3.3156
  322MOL0     H43443   9.721  10.179   7.610  0.1364 -2.3301 -2.3628
  322MOL0     H43444   9.868  10.285   7.354 -1.0892  1.5522 -0.3207
  322MOL0     H43445   9.709  10.313   7.420 -0.7553  0.8832  1.3194
  322MOL0     H43446   9.668  10.061   7.424  1.8195 -1.5354  0.2564
  322MOL0     H43447   9.688  10.143   7.256  1.0023  1.9358 -1.7740
  322MOL0     H43448   9.925  10.008   7.411 -0.2212 -4.4452 -0.8522
  322MOL0     H43449   9.928  10.064   7.251  1.4180 -1.7155  0.2537
  322MOL0     H43450   9.737   9.833   7.349  0.1634 -2.2388 -1.0140
  322MOL0     H43451   9.896   9.807   7.278  1.6090  2.7869  0.7677
  322MOL0     H43452   9.828  10.684   7.974 -0.1732  1.0460 -0.2215
  322MOL0     H43453   9.724  10.823   8.189  0.5079  0.3282  0.0889
  322MOL0     H43454   9.321  10.847   8.467  1.2984 -1.4495  0.5898
  322MOL0     H43455   9.246  10.963   8.663  0.6084 -1.0255  2.4457
  322MOL0     H43456  10.491  11.167  10.293 -0.9584  1.1027 -0.3297
  322MOL0     H43457  10.740  11.245  10.299 -2.9291  0.0415  1.3430
  322MOL0     H43458  11.237  10.924  10.043 -3.8251 -1.5701 -3.6049
  322MOL0     H43459  11.427  10.979   9.894 -2.7213 -0.4345 -3.3492
  322MOL0     H43460  11.517  11.408   9.831 -2.0715 -1.9870  2.3063
  322MOL0     H43461  11.601  11.355   9.693  0.8495  2.9697  2.9755
  322MOL0     H43462  11.304  11.356   9.654 -1.2266  2.0537  1.9223
  322MOL0     H43463  11.441  11.383   9.542  0.0262  1.1200 -0.3164
  322MOL0     H43464  11.367  11.570   9.769  5.0557 -3.6847  1.3124
  322MOL0     H43465  11.284  11.571   9.601  1.7149 -2.7689 -2.9389
  322MOL0     H43466  11.591  11.594   9.638 -2.0461 -0.8932  0.4933
  322MOL0     H43467  11.494  11.735   9.647 -2.0893 -0.1783  0.3392
  322MOL0     H43468  11.502  11.621   9.229  1.2075 -0.0661  1.0084
  322MOL0     H43469  11.288  11.390   9.885  1.0696  0.6349  2.0644
  322MOL0     H43470  11.069  11.302  10.000  0.9819  0.2286  1.7754
  323MOL0     O43471   4.956   9.466  11.310 -0.5622 -0.4320  0.3472
  323MOL0     C43472   5.007   9.361  11.353 -0.1247  0.8645  0.1993
  323MOL0     O43473   5.102   9.294  11.289 -0.2765  0.3000  0.5466
  323MOL0     C43474   5.134   9.309  11.157  1.1491 -1.3423 -0.2985
  323MOL0     C43475   5.044   9.284  11.055 -0.3240 -0.2709 -0.3194
  323MOL0     C43476   5.075   9.313  10.918  0.9661  0.7785  0.6438
  323MOL0     C43477   5.195   9.368  10.878 -0.6474  1.1953  0.8480
  323MOL0     O43478   5.213   9.412  10.745 -0.7206 -0.1446  0.0248
  323MOL0     C43479   5.193   9.319  10.644  0.9216 -0.0157  1.0546
  323MOL0     C43480   5.261   9.369  10.524 -0.5698  0.2178 -0.1445
  323MOL0     C43481   5.232   9.277  10.409  0.4733 -0.7566  0.0638
  323MOL0     C43482   5.334   9.264  10.295  0.2180  0.3603  0.0163
  323MOL0     C43483   5.285   9.182  10.170  0.5170  0.2030 -0.1282
  323MOL0     C43484   5.374   9.173  10.047 -1.5683 -0.6496  0.0195
  323MOL0     C43485   5.303   9.134   9.911 -0.1675  0.0644  0.3747
  323MOL0     C43486   5.403   9.132   9.790 -1.1030 -0.2529 -0.4052
  323MOL0     N43487   5.464   8.999   9.782  0.2475 -0.5172 -0.5971
  323MOL0     C43488   5.562   8.938   9.861  0.5059  0.3071 -1.1417
  323MOL0     C43489   5.591   8.818   9.792  0.0361  0.1006  0.2682
  323MOL0     C43490   5.691   8.704   9.816  0.1193  1.1359 -0.8864
  323MOL0     C43491   5.771   8.664   9.688 -0.2660  0.1180 -0.1492
  323MOL0     C43492   5.879   8.556   9.721  0.8881 -0.4570  0.5851
  323MOL0     C43493   5.821   8.415   9.701  0.0456  0.4748  0.0337
  323MOL0     O43494   5.920   8.311   9.712 -0.8706 -0.7346  0.2818
  323MOL0     C43495   5.891   8.181   9.708 -0.1404  1.0445 -0.4786
  323MOL0     C43496   5.763   8.131   9.671  0.5789 -0.6055 -0.3245
  323MOL0     C43497   5.736   7.993   9.648 -0.8142 -0.0169 -0.4902
  323MOL0     C43498   5.596   7.949   9.620 -0.7182 -0.4364  0.0962
  323MOL0     C43499   5.843   7.902   9.672  0.3761  0.9683  0.0202
  323MOL0     C43500   5.828   7.750   9.667 -0.4508  0.7494 -0.8136
  323MOL0     O43501   5.944   7.666   9.669  0.4314 -0.7637  0.8145
  323MOL0     C43502   5.921   7.529   9.660 -0.1444  0.5659 -1.0912
  323MOL0     C43503   5.952   7.452   9.551 -0.2181  0.1652  1.0973
  323MOL0     C43504   5.921   7.316   9.552  0.4576 -0.7102  0.4754
  323MOL0     C43505   5.855   7.260   9.660  0.0206 -0.8030  0.0640
  323MOL0     O43506   5.810   7.134   9.636 -0.2261 -0.2391 -0.1921
  323MOL0     C43507   5.689   7.087   9.703 -0.9188 -1.4806  0.6893
  323MOL0     C43508   5.675   6.935   9.688 -0.0254 -0.8389 -0.1298
  323MOL0     C43509   5.582   6.861   9.787 -0.0528 -1.3888 -0.6950
  323MOL0     C43510   5.443   6.927   9.798 -0.5368 -0.2265  0.1894
  323MOL0     C43511   5.347   6.880   9.915 -0.3118 -0.6760  0.1526
  323MOL0     C43512   5.284   6.740   9.916 -0.1656 -0.7114  0.5996
  323MOL0     C43513   5.176   6.713   9.810 -0.0709 -0.0661 -0.2505
  323MOL0     C43514   5.045   6.764   9.863  0.1046 -0.5738  0.2393
  323MOL0    Cl43515   4.999   6.650   9.988 -0.4264  0.0239 -0.1755
  323MOL0     C43516   5.857   7.337   9.775 -0.3408 -0.8556 -1.0986
  323MOL0     C43517   5.866   7.473   9.771 -0.0131 -0.1762  0.8981
  323MOL0     O43518   5.708   7.699   9.669 -0.7785  0.0437 -0.1936
  323MOL0     C43519   5.966   7.944   9.715 -0.0325  0.4462 -0.6845
  323MOL0     C43520   5.991   8.085   9.728 -0.3244 -0.0762  0.0456
  323MOL0     N43521   5.501   8.823   9.683 -0.6101  0.1403 -0.3026
  323MOL0     N43522   5.423   8.913   9.685 -1.2187 -0.0626  0.4260
  323MOL0     C43523   5.283   9.400  10.986 -0.4149  0.4712 -0.0183
  323MOL0     C43524   5.257   9.364  11.117 -0.4004 -0.2683 -0.6406
  323MOL0     C43525   4.992   9.323  11.496 -0.8183 -0.2313 -0.2427
  323MOL0     C43526   5.021   9.188  11.543  0.2500 -0.1936 -0.3027
  323MOL0     C43527   5.002   9.168  11.678 -0.3576 -0.2780  0.3483
  323MOL0     C43528   4.959   9.261  11.770 -0.2011 -1.0714 -0.4046
  323MOL0     O43529   4.964   9.227  11.905 -0.7740  0.9676  0.3004
  323MOL0     C43530   4.942   9.332  11.999 -0.0939 -0.2617  0.0064
  323MOL0     C43531   4.945   9.281  12.143 -2.0349  0.1323  0.4519
  323MOL0     C43532   4.856   9.166  12.181  0.4164 -0.8500  0.5634
  323MOL0     C43533   4.709   9.188  12.189  0.7433 -0.5850  0.5987
  323MOL0     C43534   4.689   9.303  12.274 -0.5907  0.5200  0.4353
  323MOL0     C43535   4.678   9.402  12.341  0.6113 -0.1957  0.9122
  323MOL0     C43536   4.937   9.387  11.719  0.4032 -0.0234 -1.1298
  323MOL0     C43537   4.954   9.427  11.583  0.1740 -0.6165  0.5537
  323MOL0     H43538   4.951   9.239  11.088  0.4105 -0.7201  1.2517
  323MOL0     H43539   5.000   9.285  10.845 -0.3502  0.2777  2.1280
  323MOL0     H43540   5.231   9.222  10.678  0.2188 -0.5941  0.2473
  323MOL0     H43541   5.086   9.320  10.622  0.5127  2.6131  2.6876
  323MOL0     H43542   5.235   9.473  10.502  0.2341  0.9894  2.2509
  323MOL0     H43543   5.366   9.369  10.552 -0.1438 -0.5737 -1.6243
  323MOL0     H43544   5.217   9.177  10.450 -0.4831 -1.9181 -2.8472
  323MOL0     H43545   5.143   9.322  10.363  1.0746 -0.8800 -1.2721
  323MOL0     H43546   5.365   9.363  10.261  1.9111  1.0345  3.1133
  323MOL0     H43547   5.428   9.220  10.329  0.6381 -0.7989 -2.4217
  323MOL0     H43548   5.256   9.081  10.200  1.8595 -0.2279 -0.2418
  323MOL0     H43549   5.197   9.236  10.133  0.8101 -0.2215 -1.4952
  323MOL0     H43550   5.423   9.270  10.030  0.7214 -2.3159 -4.3995
  323MOL0     H43551   5.456   9.103  10.065 -0.9853  0.2623  1.0547
  323MOL0     H43552   5.274   9.030   9.929  1.5887 -0.4892  0.1483
  323MOL0     H43553   5.213   9.198   9.911 -0.9591 -1.0215  0.0564
  323MOL0     H43554   5.488   9.200   9.798 -0.1395 -0.9749 -3.2093
  323MOL0     H43555   5.361   9.176   9.699  0.6600 -0.7689 -1.5200
  323MOL0     H43556   5.603   8.967   9.957  0.9792 -0.0159 -1.2418
  323MOL0     H43557   5.762   8.742   9.891 -1.2225  1.4028  0.2914
  323MOL0     H43558   5.640   8.616   9.855  1.7439 -0.6092 -2.5102
  323MOL0     H43559   5.813   8.758   9.652 -0.4913  0.1778 -0.2590
  323MOL0     H43560   5.701   8.635   9.608 -3.1466  0.8846  1.9124
  323MOL0     H43561   5.927   8.567   9.819  3.3124  2.5295 -0.7597
  323MOL0     H43562   5.962   8.568   9.650  2.8677 -1.4729  2.5903
  323MOL0     H43563   5.774   8.404   9.603 -0.1729  0.1077  0.1791
  323MOL0     H43564   5.743   8.400   9.776  1.2255  0.0291  1.2211
  323MOL0     H43565   5.675   8.194   9.682  1.7462  0.8056  1.4217
  323MOL0     H43566   5.576   7.871   9.545 -0.6022 -0.3765  0.0020
  323MOL0     H43567   5.546   7.914   9.711 -4.6449 -4.0776 -2.9869
  323MOL0     H43568   5.545   8.034   9.574 -0.7862 -0.8806 -0.6855
  323MOL0     H43569   5.996   7.505   9.467  1.2439 -1.2477  0.9283
  323MOL0     H43570   5.952   7.269   9.459 -1.6472  0.8393 -1.0852
  323MOL0     H43571   5.693   7.118   9.807  2.1163  3.8081 -0.6600
  323MOL0     H43572   5.600   7.133   9.659 -0.7652 -2.1046 -0.3322
  323MOL0     H43573   5.632   6.921   9.589 -1.5550  2.5346 -0.0606
  323MOL0     H43574   5.773   6.888   9.678  0.3958  0.2060 -1.0070
  323MOL0     H43575   5.623   6.858   9.888  1.5339  2.7521 -1.0264
  323MOL0     H43576   5.556   6.761   9.753 -0.7890 -1.1559 -0.8415
  323MOL0     H43577   5.456   7.034   9.818 -1.2104  0.0177 -0.6077
  323MOL0     H43578   5.386   6.907   9.707 -0.2024 -3.0095  0.4889
  323MOL0     H43579   5.262   6.949   9.924 -0.5872 -1.1185  1.0525
  323MOL0     H43580   5.404   6.891  10.007 -0.7517  0.1806  0.3304
  323MOL0     H43581   5.364   6.675   9.881 -0.1299  1.3327 -3.7418
  323MOL0     H43582   5.250   6.702  10.013 -0.9851 -0.5970  0.3694
  323MOL0     H43583   5.170   6.605   9.798  0.3719  0.1177 -2.6265
  323MOL0     H43584   5.193   6.762   9.714  1.3506 -1.7892 -0.9278
  323MOL0     H43585   4.971   6.761   9.783  1.3016 -0.0371 -0.9410
  323MOL0     H43586   5.052   6.867   9.900  2.2763 -0.3905 -0.5174
  323MOL0     H43587   5.820   7.301   9.870 -2.3619  0.0059 -1.4903
  323MOL0     H43588   5.852   7.551   9.845 -0.6456  0.6854 -0.0837
  323MOL0     H43589   6.041   7.873   9.749 -0.9494  0.4575  1.5357
  323MOL0     H43590   6.090   8.122   9.753 -1.0129  2.6739 -0.9896
  323MOL0     H43591   5.384   9.424  10.952 -0.0014  0.0770  0.8944
  323MOL0     H43592   5.318   9.395  11.201 -2.6264  2.2925  0.1513
  323MOL0     H43593   5.056   9.108  11.479 -0.5770 -1.4965  0.8131
  323MOL0     H43594   5.015   9.067  11.715  0.3940 -0.4880 -0.4624
  323MOL0     H43595   5.021   9.408  11.992  0.9000 -0.7659  3.6548
  323MOL0     H43596   4.845   9.377  11.975 -0.6011 -1.1878  0.2694
  323MOL0     H43597   4.941   9.364  12.214 -1.0205  0.3928  0.2081
  323MOL0     H43598   5.044   9.236  12.149 -1.1179  1.7296 -1.5589
  323MOL0     H43599   4.893   9.131  12.277  0.4554 -1.4189  0.3470
  323MOL0     H43600   4.869   9.079  12.115 -1.7728 -0.1421 -0.8987
  323MOL0     H43601   4.653   9.107  12.237 -2.4501  0.9828 -0.2199
  323MOL0     H43602   4.663   9.197  12.090 -2.4133 -2.0272  1.7968
  323MOL0     H43603   4.663   9.490  12.401 -1.6021  0.3257 -0.3040
  323MOL0     H43604   4.909   9.459  11.795  3.4557 -0.8157  0.9255
  323MOL0     H43605   4.960   9.530  11.550  1.3615 -1.6039 -2.6881
  324MOL0     O43606   1.796   0.682   7.118  0.2590 -0.1529 -0.4800
  324MOL0     C43607   1.909   0.634   7.133  0.1184 -0.2681  1.0928
  324MOL0     O43608   1.951   0.520   7.087 -0.4592  0.2570  0.4280
  324MOL0     C43609   1.875   0.408   7.046 -0.7395 -0.0091  0.2754
  324MOL0     C43610   1.925   0.319   6.950  0.8239 -0.2599  0.2361
  324MOL0     C43611   1.846   0.204   6.913 -0.3625 -1.3015 -0.6949
  324MOL0     C43612   1.731   0.174   6.980  0.1786 -0.6398 -0.2293
  324MOL0     O43613   1.664   0.055   6.965  0.3735  0.4621 -0.3529
  324MOL0     C43614   1.753  -0.059   6.965 -0.4186  0.2279 -0.3479
  324MOL0     C43615   1.702  -0.157   7.080 -0.3016 -0.1834  0.0971
  324MOL0     C43616   1.711  -0.097   7.222 -0.6399 -0.4178  0.1848
  324MOL0     C43617   1.618  -0.162   7.326 -0.0965 -0.1395 -0.5257
  324MOL0     C43618   1.592  -0.055   7.432 -0.2655  0.4952  0.2309
  324MOL0     C43619   1.707   0.015   7.495  0.1384 -0.2636 -0.4435
  324MOL0     C43620   1.660   0.069   7.631  0.3793 -0.1468  0.8044
  324MOL0     C43621   1.736   0.198   7.670 -0.7096 -0.3761  1.0304
  324MOL0     N43622   1.684   0.311   7.581  0.3209  0.2411  0.0785
  324MOL0     C43623   1.573   0.377   7.607  0.0118 -0.4248 -0.0152
  324MOL0     C43624   1.563   0.476   7.516  0.7171  0.1595  0.3971
  324MOL0     C43625   1.458   0.587   7.514 -1.2613  0.2262  0.7933
  324MOL0     C43626   1.509   0.729   7.508 -0.1642  0.5829 -0.0127
  324MOL0     C43627   1.594   0.756   7.628  0.0253 -0.1241 -0.2895
  324MOL0     C43628   1.667   0.895   7.616 -0.1425  0.6227  0.1775
  324MOL0     O43629   1.562   0.996   7.625  0.1295 -0.8685  0.7383
  324MOL0     C43630   1.531   1.052   7.748  0.4805 -0.9334  0.1602
  324MOL0     C43631   1.599   1.031   7.870  0.1906 -0.2846  0.3745
  324MOL0     C43632   1.545   1.080   7.990  0.1898 -1.1334  0.7512
  324MOL0     C43633   1.618   1.055   8.112 -0.3973 -0.0747  0.6517
  324MOL0     C43634   1.431   1.163   7.991 -0.3214  0.1893  0.1174
  324MOL0     C43635   1.368   1.220   8.113 -0.0919 -0.0902 -0.5021
  324MOL0     O43636   1.409   1.178   8.231  0.6594 -0.4138 -0.8474
  324MOL0     C43637   1.428   1.254   8.346  0.4240  0.0576 -0.0424
  324MOL0     C43638   1.378   1.384   8.357 -0.3785  0.6729  0.7298
  324MOL0     C43639   1.411   1.460   8.468 -0.2491 -1.3464 -0.2051
  324MOL0     C43640   1.487   1.406   8.575  0.2378  0.0555 -0.6743
  324MOL0     O43641   1.524   1.469   8.689 -0.7817  0.2726 -0.7010
  324MOL0     C43642   1.497   1.609   8.695 -0.1030  0.5529 -0.3325
  324MOL0     C43643   1.575   1.681   8.811 -0.0283 -0.5415 -0.0086
  324MOL0     C43644   1.492   1.812   8.860  0.6936 -0.2061  0.0072
  324MOL0     C43645   1.594   1.904   8.924 -0.0117  0.4340  0.3047
  324MOL0     C43646   1.508   2.006   9.002  0.1117 -0.1202  0.0225
  324MOL0     C43647   1.593   2.105   9.079 -0.4128 -0.4913  0.0462
  324MOL0     C43648   1.509   2.215   9.154  0.1310 -0.1076  0.1090
  324MOL0     C43649   1.429   2.325   9.070  0.3197 -0.4512 -0.0316
  324MOL0    Cl43650   1.348   2.429   9.200 -0.3866 -0.5396 -0.0686
  324MOL0     C43651   1.521   1.277   8.568  0.1502 -0.4632 -0.2820
  324MOL0     C43652   1.488   1.195   8.458  0.3818 -1.0162 -0.4845
  324MOL0     O43653   1.278   1.302   8.094 -0.5527  0.7864 -0.5230
  324MOL0     C43654   1.372   1.195   7.861  0.3842  0.1916 -0.2555
  324MOL0     C43655   1.430   1.144   7.743  0.0363  0.7216 -0.3920
  324MOL0     N43656   1.679   0.477   7.436  0.2634  0.2630 -0.8496
  324MOL0     N43657   1.744   0.364   7.465 -0.3456 -0.4880 -0.1203
  324MOL0     C43658   1.677   0.270   7.067  0.1962 -0.7596 -1.0699
  324MOL0     C43659   1.745   0.382   7.097 -0.1727 -0.4332  0.3977
  324MOL0     C43660   2.014   0.727   7.176 -0.4088 -0.2690  0.6728
  324MOL0     C43661   1.980   0.843   7.242  0.2054 -0.6191  0.9993
  324MOL0     C43662   2.084   0.936   7.277 -0.2210 -0.1879 -0.5728
  324MOL0     C43663   2.214   0.910   7.255 -0.9729 -0.6878 -0.3042
  324MOL0     O43664   2.313   0.994   7.292  0.3046 -0.1328 -0.0094
  324MOL0     C43665   2.288   1.126   7.348  0.6325  0.3701 -0.7295
  324MOL0     C43666   2.414   1.211   7.369 -0.1596  1.6251 -0.6250
  324MOL0     C43667   2.377   1.359   7.357 -0.9411 -0.2303 -0.6453
  324MOL0     C43668   2.497   1.444   7.389  0.2928 -0.1263 -1.0323
  324MOL0     C43669   2.578   1.480   7.279 -0.2619  0.1162  1.1116
  324MOL0     C43670   2.655   1.505   7.191 -0.4381  0.2683 -0.1415
  324MOL0     C43671   2.251   0.782   7.206  0.2660 -0.2117  0.8160
  324MOL0     C43672   2.154   0.697   7.147  0.0527  0.7905 -0.0339
  324MOL0     H43673   2.028   0.335   6.921  0.3873  0.7886 -0.8293
  324MOL0     H43674   1.896   0.132   6.849 -1.4140 -0.9947 -1.8949
  324MOL0     H43675   1.760  -0.112   6.870  1.4903 -2.0565  0.9431
  324MOL0     H43676   1.851  -0.039   7.009 -1.1242  0.4778  1.2097
  324MOL0     H43677   1.597  -0.180   7.059  0.1959 -1.1176 -1.5238
  324MOL0     H43678   1.758  -0.251   7.079  1.8845  1.0507  0.6414
  324MOL0     H43679   1.814  -0.106   7.257 -0.6440 -2.0117 -0.1112
  324MOL0     H43680   1.687   0.009   7.220  1.1774  0.2797  4.6708
  324MOL0     H43681   1.525  -0.190   7.276 -0.7283  0.7053  0.1411
  324MOL0     H43682   1.659  -0.256   7.363  0.1975 -1.7667 -4.5512
  324MOL0     H43683   1.529   0.024   7.390  0.1452  0.8841  0.3383
  324MOL0     H43684   1.523  -0.102   7.503 -1.2532  1.7146  0.1254
  324MOL0     H43685   1.794  -0.051   7.493 -0.9988 -1.9000  0.9442
  324MOL0     H43686   1.727   0.095   7.423 -1.5454  0.7155  0.1183
  324MOL0     H43687   1.556   0.102   7.626  0.4053 -0.1517  0.2118
  324MOL0     H43688   1.664  -0.014   7.703  1.0258  2.1526  3.5821
  324MOL0     H43689   1.842   0.177   7.649 -0.9258 -0.6207  0.1345
  324MOL0     H43690   1.737   0.225   7.776 -0.7483  1.9798  0.4689
  324MOL0     H43691   1.505   0.365   7.690 -1.0207  2.6488 -0.2800
  324MOL0     H43692   1.408   0.575   7.417 -0.0975  0.1205  0.1834
  324MOL0     H43693   1.384   0.576   7.594 -0.8211 -2.1437  0.9571
  324MOL0     H43694   1.432   0.806   7.494 -1.4942 -0.9391 -1.4416
  324MOL0     H43695   1.579   0.729   7.423  2.3526 -1.1293  1.8867
  324MOL0     H43696   1.676   0.685   7.640 -0.1782 -0.2708  0.2754
  324MOL0     H43697   1.540   0.762   7.723 -0.5936  0.7126 -0.6811
  324MOL0     H43698   1.711   0.896   7.515 -0.0269 -1.7076  0.1563
  324MOL0     H43699   1.749   0.905   7.687 -1.4951  0.8360  1.7570
  324MOL0     H43700   1.686   0.967   7.878  1.1783  1.0338  0.4659
  324MOL0     H43701   1.552   1.007   8.185 -0.4491 -3.6130 -1.4810
  324MOL0     H43702   1.710   1.002   8.086  0.5605  1.7899  0.1059
  324MOL0     H43703   1.640   1.152   8.156  3.0161  0.5442 -1.9865
  324MOL0     H43704   1.318   1.422   8.276  0.2118  0.1511  0.0312
  324MOL0     H43705   1.374   1.562   8.469  1.9580 -0.4857  1.2885
  324MOL0     H43706   1.507   1.668   8.603  0.5955 -0.0110 -0.6252
  324MOL0     H43707   1.392   1.614   8.724 -0.6470  0.1900 -2.0979
  324MOL0     H43708   1.595   1.609   8.890  0.9316  0.4260  0.6509
  324MOL0     H43709   1.675   1.708   8.775 -0.1296 -1.4227 -1.0007
  324MOL0     H43710   1.417   1.784   8.935  1.0856  0.0711  0.5081
  324MOL0     H43711   1.438   1.860   8.777 -1.9638  1.6514  2.5765
  324MOL0     H43712   1.646   1.841   8.998  0.8549 -0.2353 -0.8369
  324MOL0     H43713   1.666   1.942   8.850 -1.0264 -0.2956 -1.1057
  324MOL0     H43714   1.426   1.966   9.063  1.0611 -0.9695  0.7895
  324MOL0     H43715   1.462   2.071   8.928  1.0885  4.5534  3.1044
  324MOL0     H43716   1.657   2.060   9.155 -0.6702 -0.4342  0.3014
  324MOL0     H43717   1.668   2.145   9.010  0.6712 -0.1638  1.3658
  324MOL0     H43718   1.575   2.262   9.227 -0.6707 -2.3197  2.4298
  324MOL0     H43719   1.439   2.157   9.215  0.8877 -0.0335  1.0666
  324MOL0     H43720   1.356   2.279   9.003  1.5992 -1.4703 -0.7682
  324MOL0     H43721   1.502   2.374   9.004  1.5448 -3.5849 -1.1697
  324MOL0     H43722   1.577   1.228   8.646  0.5356 -1.7780 -1.3475
  324MOL0     H43723   1.522   1.093   8.448 -0.4826 -1.3842  0.2269
  324MOL0     H43724   1.273   1.238   7.851 -1.4072 -3.9349 -2.2995
  324MOL0     H43725   1.371   1.150   7.652  0.3164  2.2920 -0.4850
  324MOL0     H43726   1.583   0.256   7.120 -0.1453  0.3757 -1.3587
  324MOL0     H43727   1.715   0.454   7.173 -1.2139 -2.7706  2.3262
  324MOL0     H43728   1.874   0.865   7.257 -0.2313 -2.2143  0.4502
  324MOL0     H43729   2.048   1.022   7.333  4.1586  0.0366  2.4551
  324MOL0     H43730   2.228   1.180   7.274  1.1602  1.2699 -0.5200
  324MOL0     H43731   2.220   1.120   7.433 -0.8346  1.3387 -1.7929
  324MOL0     H43732   2.489   1.196   7.290 -1.6721 -0.7515 -1.7322
  324MOL0     H43733   2.459   1.179   7.463  3.7233 -0.6091 -2.9504
  324MOL0     H43734   2.306   1.385   7.436  0.0250  0.5426 -0.0038
  324MOL0     H43735   2.338   1.372   7.255  1.4907 -0.2539 -1.6415
  324MOL0     H43736   2.565   1.393   7.458 -0.5203 -1.2739 -1.0303
  324MOL0     H43737   2.465   1.531   7.447 -0.4674 -1.1582  0.1658
  324MOL0     H43738   2.724   1.544   7.118 -0.2753 -1.4329 -0.9592
  324MOL0     H43739   2.356   0.775   7.183  0.1435 -0.1596  0.2048
  324MOL0     H43740   2.206   0.625   7.086  2.0756  0.1590  2.2640
  325MOL0     O43741   6.103   9.307   0.669  0.3182  0.5550  0.5145
  325MOL0     C43742   6.184   9.260   0.743  0.4665  0.1596 -0.5314
  325MOL0     O43743   6.166   9.227   0.871  0.1984 -0.4700  0.1875
  325MOL0     C43744   6.026   9.225   0.900 -0.4720 -0.4423 -0.6196
  325MOL0     C43745   5.948   9.115   0.902  0.5834 -0.2019  0.2144
  325MOL0     C43746   5.805   9.121   0.909  0.9624 -0.0411 -0.2855
  325MOL0     C43747   5.738   9.250   0.928 -0.1889  0.1624  0.7613
  325MOL0     O43748   5.612   9.262   0.937  0.1421  0.4722 -0.3337
  325MOL0     C43749   5.521   9.158   0.879 -0.6543  0.6737 -0.0431
  325MOL0     C43750   5.523   9.163   0.728  0.7746 -0.6566 -0.4020
  325MOL0     C43751   5.623   9.074   0.648 -0.9134 -0.8976 -0.0165
  325MOL0     C43752   5.570   9.000   0.523  1.1262 -0.7496  0.2631
  325MOL0     C43753   5.658   8.908   0.447  0.4689  0.1562 -0.1398
  325MOL0     C43754   5.768   8.972   0.374 -0.4389  1.0173 -0.1679
  325MOL0     C43755   5.824   8.870   0.283  0.2652 -0.1848  1.1767
  325MOL0     C43756   5.925   8.928   0.189  0.4542  0.3608 -0.5106
  325MOL0     N43757   5.976   8.823   0.100 -0.6519 -0.1651 -0.5024
  325MOL0     C43758   6.091   8.765   0.129 -0.1463  0.2867  0.5442
  325MOL0     C43759   6.131   8.715   0.005 -0.4945 -0.3347  0.1477
  325MOL0     C43760   6.252   8.636  -0.015  0.5652 -0.1827 -0.0803
  325MOL0     C43761   6.244   8.494   0.047 -0.4270 -0.2265  0.0705
  325MOL0     C43762   6.251   8.473   0.204  0.2361 -0.0223  0.2314
  325MOL0     C43763   6.387   8.530   0.273  0.2705 -1.0905  0.0220
  325MOL0     O43764   6.356   8.561   0.408  0.0006  0.2482 -0.8449
  325MOL0     C43765   6.451   8.637   0.481  0.3210  0.0641  0.6428
  325MOL0     C43766   6.553   8.710   0.426 -0.6545 -0.2147 -0.5497
  325MOL0     C43767   6.640   8.766   0.520  0.4966  0.4971 -1.0551
  325MOL0     C43768   6.750   8.864   0.468 -0.0255  0.1659  0.3621
  325MOL0     C43769   6.631   8.748   0.664 -0.1537  0.3067  0.8306
  325MOL0     C43770   6.713   8.806   0.768 -0.3056 -0.6335 -0.4148
  325MOL0     O43771   6.667   8.812   0.891 -0.2422 -0.0400  0.2258
  325MOL0     C43772   6.742   8.778   1.000 -0.0374  0.7851 -1.0296
  325MOL0     C43773   6.676   8.795   1.122 -0.4999  0.4732 -0.1938
  325MOL0     C43774   6.738   8.764   1.241 -0.0337  0.2122 -0.2373
  325MOL0     C43775   6.871   8.725   1.244 -0.6154  0.5900  0.6317
  325MOL0     O43776   6.933   8.697   1.364 -0.0678  0.1968  1.1590
  325MOL0     C43777   7.074   8.713   1.374 -0.1123  1.0576  0.5399
  325MOL0     C43778   7.123   8.682   1.516  0.0457 -0.6135 -0.5080
  325MOL0     C43779   7.145   8.529   1.535  0.4342 -1.5596 -0.6820
  325MOL0     C43780   7.202   8.505   1.673  0.3145  0.1006 -0.0831
  325MOL0     C43781   7.214   8.368   1.719  0.1079  0.9241 -0.1887
  325MOL0     C43782   7.272   8.277   1.607 -0.1666 -0.1351  0.3203
  325MOL0     C43783   7.306   8.140   1.661  0.5896  0.5170 -0.3788
  325MOL0     C43784   7.385   8.035   1.589 -0.2024 -1.1639 -0.0785
  325MOL0    Cl43785   7.538   8.117   1.533 -0.1434  0.3418  0.2555
  325MOL0     C43786   6.936   8.700   1.125  0.5124 -0.2744  0.2475
  325MOL0     C43787   6.870   8.724   1.000  0.5672 -0.0113  0.3652
  325MOL0     O43788   6.827   8.847   0.737  0.3444 -0.2106 -0.2848
  325MOL0     C43789   6.520   8.672   0.707  0.7316  0.3125 -0.1293
  325MOL0     C43790   6.430   8.616   0.609  0.1967  0.1638 -0.4035
  325MOL0     N43791   6.025   8.732  -0.086 -0.5602 -0.3024 -0.3260
  325MOL0     N43792   5.941   8.815  -0.032  0.7278 -0.0898  0.0975
  325MOL0     C43793   5.820   9.356   0.942  0.8707 -0.8214  0.5008
  325MOL0     C43794   5.964   9.345   0.921 -0.7234 -0.2141  0.9267
  325MOL0     C43795   6.321   9.253   0.691  0.1696  0.2960 -0.0385
  325MOL0     C43796   6.369   9.334   0.593 -0.0892 -0.2766 -0.3340
  325MOL0     C43797   6.501   9.325   0.547  0.4795 -0.5256  0.4495
  325MOL0     C43798   6.593   9.247   0.618  0.3271  0.6859 -0.6185
  325MOL0     O43799   6.725   9.232   0.595  0.4264 -0.1125 -0.0265
  325MOL0     C43800   6.774   9.272   0.464  0.9056  0.0533 -1.1099
  325MOL0     C43801   6.932   9.268   0.451 -0.5134  0.6683 -0.1785
  325MOL0     C43802   6.990   9.129   0.479 -0.7307 -0.6189  0.3514
  325MOL0     C43803   7.147   9.126   0.459  0.5830  0.7738 -0.2455
  325MOL0     C43804   7.220   9.186   0.564 -0.1380 -0.1975 -0.1247
  325MOL0     C43805   7.274   9.225   0.667 -0.4573  0.0306 -0.3753
  325MOL0     C43806   6.545   9.159   0.712 -0.0531 -0.2175  0.3764
  325MOL0     C43807   6.406   9.158   0.739 -0.2693 -0.5539  0.0066
  325MOL0     H43808   5.998   9.018   0.907 -1.7550 -1.4763  0.3250
  325MOL0     H43809   5.757   9.025   0.893  1.7982 -0.6432  0.6764
  325MOL0     H43810   5.541   9.058   0.919  0.6457  1.2571  0.8462
  325MOL0     H43811   5.421   9.194   0.904 -1.9646 -2.4858 -0.1629
  325MOL0     H43812   5.420   9.137   0.702  0.6347  0.6771 -1.2737
  325MOL0     H43813   5.522   9.266   0.690  1.9356 -0.8954 -1.1199
  325MOL0     H43814   5.704   9.143   0.622 -1.5714  0.0389  0.3680
  325MOL0     H43815   5.665   8.997   0.712  3.2660 -1.5571 -3.1355
  325MOL0     H43816   5.485   8.945   0.566  1.3296 -3.3391 -2.3834
  325MOL0     H43817   5.532   9.072   0.450 -0.2228 -0.5169  1.1558
  325MOL0     H43818   5.709   8.855   0.529  0.6044  1.5709  0.7213
  325MOL0     H43819   5.601   8.841   0.383  0.3602 -1.8486  1.9085
  325MOL0     H43820   5.729   9.058   0.318 -1.2816  0.1148 -1.0124
  325MOL0     H43821   5.849   9.005   0.440 -0.8417  0.1505  0.7912
  325MOL0     H43822   5.863   8.782   0.335  1.8268 -0.4824 -0.4113
  325MOL0     H43823   5.743   8.830   0.222  2.2418 -1.4310 -0.7739
  325MOL0     H43824   6.013   8.981   0.226  0.2445  1.3654 -1.4236
  325MOL0     H43825   5.875   9.001   0.125 -1.7414 -1.7121 -1.3121
  325MOL0     H43826   6.137   8.751   0.227 -3.0485 -2.9168  1.6799
  325MOL0     H43827   6.262   8.629  -0.123 -2.2311 -0.4785 -0.4098
  325MOL0     H43828   6.332   8.698   0.027  0.5526 -1.4266  1.9061
  325MOL0     H43829   6.335   8.442   0.014 -0.2343  0.6384 -0.7877
  325MOL0     H43830   6.158   8.449  -0.001 -1.7737  2.1708  0.0945
  325MOL0     H43831   6.234   8.367   0.225  1.4727 -0.3319 -0.2202
  325MOL0     H43832   6.170   8.523   0.258  1.0402  0.7347  0.7654
  325MOL0     H43833   6.421   8.623   0.227  0.5165 -0.4996  1.3269
  325MOL0     H43834   6.457   8.446   0.267 -0.9255 -2.0136 -2.4304
  325MOL0     H43835   6.552   8.739   0.321 -0.5340  1.3790 -0.1351
  325MOL0     H43836   6.853   8.834   0.491  0.0947 -3.9869 -3.8638
  325MOL0     H43837   6.753   8.869   0.359 -0.9628  0.7851  0.3564
  325MOL0     H43838   6.718   8.961   0.507  1.2188  0.3413  1.0235
  325MOL0     H43839   6.573   8.830   1.116 -0.8624 -0.7726 -1.7867
  325MOL0     H43840   6.683   8.793   1.331  0.5818 -0.2899  0.3165
  325MOL0     H43841   7.136   8.648   1.310  1.1915  0.9213  1.8935
  325MOL0     H43842   7.110   8.816   1.364 -1.2493  1.4537  0.4606
  325MOL0     H43843   7.215   8.738   1.536  0.6486 -2.2813  1.7560
  325MOL0     H43844   7.049   8.730   1.581 -0.7357 -1.9358 -0.3816
  325MOL0     H43845   7.219   8.491   1.464  1.1013 -3.0209  0.7304
  325MOL0     H43846   7.045   8.485   1.532 -1.3277  1.4285  3.5930
  325MOL0     H43847   7.297   8.557   1.687 -0.2629  0.4658  3.2046
  325MOL0     H43848   7.133   8.559   1.738 -0.2845 -1.0588  0.2693
  325MOL0     H43849   7.111   8.339   1.739  0.0995  0.8183 -0.3816
  325MOL0     H43850   7.278   8.365   1.808  0.8480  2.1067 -0.6542
  325MOL0     H43851   7.205   8.263   1.522  1.8805 -1.9892 -1.0968
  325MOL0     H43852   7.355   8.331   1.561 -1.8270 -1.6316 -5.1762
  325MOL0     H43853   7.211   8.093   1.688  1.4193 -1.1098 -0.1623
  325MOL0     H43854   7.353   8.154   1.759 -0.5535 -1.2296  0.4681
  325MOL0     H43855   7.323   8.002   1.505 -0.7117 -3.7223  1.2057
  325MOL0     H43856   7.408   7.952   1.656  0.3209 -0.8402  0.1511
  325MOL0     H43857   7.032   8.650   1.127 -0.3033 -1.9603 -0.7776
  325MOL0     H43858   6.925   8.711   0.907 -0.0382 -1.9153  0.2299
  325MOL0     H43859   6.496   8.657   0.811 -0.4631  2.3042 -0.0580
  325MOL0     H43860   6.344   8.556   0.639  1.4006 -1.7639 -0.6137
  325MOL0     H43861   5.766   9.449   0.955  0.6307 -1.1090  1.7054
  325MOL0     H43862   6.021   9.436   0.937 -1.0795 -0.0330  1.1776
  325MOL0     H43863   6.294   9.398   0.547  1.7009  0.3445 -2.5317
  325MOL0     H43864   6.525   9.393   0.466  0.9947 -2.2570 -0.9087
  325MOL0     H43865   6.721   9.217   0.385  1.0612 -1.4900 -0.1894
  325MOL0     H43866   6.747   9.374   0.438  1.0781 -0.4592 -3.5680
  325MOL0     H43867   6.983   9.335   0.521 -1.1156  0.8601  0.0873
  325MOL0     H43868   6.956   9.293   0.348 -1.7858  3.0995  0.0499
  325MOL0     H43869   6.950   9.061   0.404 -0.0253 -1.9500  1.1546
  325MOL0     H43870   6.961   9.082   0.573  0.8461 -4.4061 -0.8753
  325MOL0     H43871   7.167   9.167   0.359 -2.1877 -1.5883 -1.9581
  325MOL0     H43872   7.172   9.020   0.458 -0.2306  0.5723 -0.9342
  325MOL0     H43873   7.329   9.270   0.748 -0.3210 -0.8002  0.0030
  325MOL0     H43874   6.618   9.081   0.730 -0.3256 -2.1099 -4.9395
  325MOL0     H43875   6.365   9.080   0.802 -3.1460 -0.7150 -1.8887
  326MOL0     O43876   6.004   1.424  10.040  1.0047  0.4684 -0.9255
  326MOL0     C43877   5.908   1.482   9.983 -0.3500  0.0314 -0.1371
  326MOL0     O43878   5.869   1.605  10.016  0.3315  0.2148  0.7089
  326MOL0     C43879   5.955   1.686  10.096 -0.0491  0.2800  0.6890
  326MOL0     C43880   5.972   1.665  10.230 -0.6025 -0.7543 -0.5654
  326MOL0     C43881   6.048   1.746  10.311  0.7863  1.5345 -0.5836
  326MOL0     C43882   6.098   1.868  10.252 -0.1337  0.2498 -0.1566
  326MOL0     O43883   6.167   1.960  10.328  0.4111 -0.5969 -0.9573
  326MOL0     C43884   6.292   2.000  10.287  0.0469 -0.0313 -0.6950
  326MOL0     C43885   6.315   2.148  10.320  1.1920 -0.5218  0.0415
  326MOL0     C43886   6.221   2.238  10.234 -0.0523 -0.4851 -0.7571
  326MOL0     C43887   6.232   2.386  10.252 -0.5762 -0.1449 -0.0404
  326MOL0     C43888   6.152   2.457  10.135 -0.3674  0.3452  0.3094
  326MOL0     C43889   6.001   2.428  10.146  0.0653 -0.7112  0.8450
  326MOL0     C43890   5.939   2.498  10.028 -0.1937  0.9713 -0.4532
  326MOL0     C43891   5.796   2.451  10.007 -0.1669 -0.2978  0.5567
  326MOL0     N43892   5.787   2.319   9.948  0.3220  0.4065 -0.6373
  326MOL0     C43893   5.784   2.291   9.812 -0.2814  0.4645  0.6440
  326MOL0     C43894   5.816   2.163   9.785  0.5798  0.2823 -0.2131
  326MOL0     C43895   5.835   2.104   9.653  0.2391  0.3296 -1.3709
  326MOL0     C43896   5.882   1.958   9.663  0.7493 -1.1499 -0.6691
  326MOL0     C43897   5.901   1.897   9.523  0.8563  0.9318  0.6134
  326MOL0     C43898   5.917   1.745   9.528  0.6339  0.9195 -0.1452
  326MOL0     O43899   6.033   1.710   9.595 -0.5561  0.2317  0.2595
  326MOL0     C43900   6.065   1.574   9.624  0.2932 -0.9514  0.5663
  326MOL0     C43901   6.023   1.470   9.547 -0.7717  0.3165 -1.5186
  326MOL0     C43902   6.068   1.335   9.574  0.7797 -0.0331 -0.3037
  326MOL0     C43903   6.005   1.229   9.488  0.4745  0.8160  0.9673
  326MOL0     C43904   6.162   1.311   9.675  0.4900  0.1586  0.0465
  326MOL0     C43905   6.206   1.175   9.713 -1.0843  0.7021  0.2588
  326MOL0     O43906   6.166   1.140   9.839  0.1741  0.8884 -0.3261
  326MOL0     C43907   6.216   1.026   9.905 -0.4213  0.8633  0.2873
  326MOL0     C43908   6.239   1.040  10.045  0.3801  0.5920 -0.0823
  326MOL0     C43909   6.300   0.934  10.118  0.1320 -0.2425 -0.2897
  326MOL0     C43910   6.350   0.821  10.051  0.6920  1.7512 -0.0222
  326MOL0     O43911   6.416   0.712  10.112  0.6943  0.1592 -0.2845
  326MOL0     C43912   6.471   0.722  10.243 -0.6690  0.6407  0.6106
  326MOL0     C43913   6.527   0.575  10.278 -0.5224 -0.4780  0.0337
  326MOL0     C43914   6.404   0.474  10.308 -0.2744  0.0130 -1.1035
  326MOL0     C43915   6.456   0.333  10.339  0.8007 -0.9178  0.7247
  326MOL0     C43916   6.474   0.296  10.482 -0.8984 -0.7656 -0.7725
  326MOL0     C43917   6.340   0.302  10.559  0.8273  0.5185  0.0982
  326MOL0     C43918   6.371   0.253  10.702  0.2600  0.5050 -0.2270
  326MOL0     C43919   6.469   0.337  10.783  0.6588 -0.6549 -0.1721
  326MOL0    Cl43920   6.503   0.265  10.938 -0.2654 -0.4249  0.3916
  326MOL0     C43921   6.329   0.802   9.914  0.0409  0.3414  0.3280
  326MOL0     C43922   6.268   0.904   9.839 -0.2759 -0.0165 -0.1029
  326MOL0     O43923   6.285   1.115   9.637  0.1671 -0.6664  0.5034
  326MOL0     C43924   6.201   1.412   9.752 -0.3317 -0.7479 -0.6558
  326MOL0     C43925   6.149   1.538   9.728  0.0281  0.1009 -0.1544
  326MOL0     N43926   5.824   2.107   9.911 -0.9018  0.3700  0.4241
  326MOL0     N43927   5.805   2.196  10.005 -0.2084  0.3698  1.3081
  326MOL0     C43928   6.066   1.896  10.121  0.2850 -0.3613 -0.3724
  326MOL0     C43929   5.998   1.813  10.043  0.5858  0.2665 -0.1851
  326MOL0     C43930   5.841   1.419   9.877 -0.2428 -0.4637 -0.2578
  326MOL0     C43931   5.735   1.476   9.801 -0.7128 -0.6443 -0.1473
  326MOL0     C43932   5.674   1.397   9.702 -0.3144 -1.0816  0.2816
  326MOL0     C43933   5.687   1.261   9.706 -0.0745 -0.6280  1.1889
  326MOL0     O43934   5.597   1.197   9.623 -0.2199  0.3465 -0.8955
  326MOL0     C43935   5.590   1.047   9.610  0.1022  0.5774 -0.6649
  326MOL0     C43936   5.666   0.993   9.488  0.2375 -0.3751  0.1922
  326MOL0     C43937   5.620   1.088   9.375  0.6984 -0.7046  1.0378
  326MOL0     C43938   5.658   1.050   9.226 -0.2290 -0.1171  0.5045
  326MOL0     C43939   5.614   0.918   9.192  0.0606 -0.4168 -0.1479
  326MOL0     C43940   5.570   0.812   9.152  0.6515  0.7024 -1.4655
  326MOL0     C43941   5.786   1.202   9.778 -0.9473  0.1922  0.3013
  326MOL0     C43942   5.863   1.281   9.860 -0.4838 -0.6461  0.6157
  326MOL0     H43943   5.930   1.571  10.265 -2.0803 -0.1087 -0.5445
  326MOL0     H43944   6.067   1.701  10.408 -1.3234 -0.6183 -1.0673
  326MOL0     H43945   6.363   1.938  10.341 -1.7625 -1.4058  0.2254
  326MOL0     H43946   6.307   1.976  10.181  0.5796 -0.9976 -0.4046
  326MOL0     H43947   6.314   2.174  10.426  1.3825  0.0594 -0.0937
  326MOL0     H43948   6.413   2.182  10.287  0.2299  3.4580  0.6930
  326MOL0     H43949   6.253   2.231  10.129  2.8585 -1.1115  0.0817
  326MOL0     H43950   6.118   2.202  10.246 -1.2346  3.0738  0.8411
  326MOL0     H43951   6.197   2.412  10.352  1.1182  0.3912  0.4548
  326MOL0     H43952   6.336   2.417  10.242 -1.2453  1.6194 -2.2710
  326MOL0     H43953   6.164   2.565  10.148 -1.9195  0.4979  0.6991
  326MOL0     H43954   6.196   2.431  10.038 -1.8583  1.0485 -0.5982
  326MOL0     H43955   5.979   2.321  10.134  1.7643 -1.1195  1.1407
  326MOL0     H43956   5.968   2.478  10.237 -1.0179  0.5972 -0.2256
  326MOL0     H43957   5.949   2.607  10.028 -2.1802  1.3222 -4.4009
  326MOL0     H43958   5.982   2.469   9.932 -3.3095  0.5387 -1.8127
  326MOL0     H43959   5.755   2.518   9.931  1.6127  0.2050  0.0086
  326MOL0     H43960   5.736   2.455  10.099  1.2813  3.3908  1.5178
  326MOL0     H43961   5.769   2.366   9.734 -0.0226 -0.2103 -0.0609
  326MOL0     H43962   5.746   2.110   9.589 -1.4055 -3.6406  0.2665
  326MOL0     H43963   5.919   2.147   9.597 -1.0260  1.5689 -2.4116
  326MOL0     H43964   5.815   1.901   9.729  0.6776 -0.3154  0.0046
  326MOL0     H43965   5.981   1.963   9.709  0.7410  0.2687 -0.7546
  326MOL0     H43966   5.993   1.932   9.475  0.6638  0.2361 -0.2898
  326MOL0     H43967   5.819   1.918   9.454 -0.1311  0.0211  1.4828
  326MOL0     H43968   5.928   1.714   9.424 -3.1986  0.0659 -0.4583
  326MOL0     H43969   5.831   1.688   9.563  1.2003  0.8917  1.2609
  326MOL0     H43970   5.947   1.476   9.470 -2.6910 -1.1569  0.1246
  326MOL0     H43971   5.899   1.215   9.514  0.2885 -3.6711 -1.2606
  326MOL0     H43972   6.019   1.266   9.386  1.2515  2.0113  1.4892
  326MOL0     H43973   6.055   1.133   9.505 -1.3702 -0.5262 -0.7395
  326MOL0     H43974   6.228   1.134  10.097  1.4448  0.0334  1.2216
  326MOL0     H43975   6.322   0.951  10.223 -3.9663  2.7758  0.3349
  326MOL0     H43976   6.559   0.787  10.251 -0.6493  0.7506 -0.3745
  326MOL0     H43977   6.393   0.743  10.317  0.3637 -1.1962  2.3295
  326MOL0     H43978   6.594   0.527  10.206  1.8771  0.8494  1.2572
  326MOL0     H43979   6.587   0.586  10.369 -1.3397  1.2956  0.4041
  326MOL0     H43980   6.335   0.459  10.224  0.6318 -0.1881 -1.8221
  326MOL0     H43981   6.342   0.517  10.388 -0.0625  0.4930 -1.1973
  326MOL0     H43982   6.388   0.267  10.285  1.1042 -2.7903  2.4951
  326MOL0     H43983   6.558   0.315  10.304  0.1777 -0.9487 -1.1407
  326MOL0     H43984   6.558   0.354  10.519  1.1218 -0.8371 -4.7129
  326MOL0     H43985   6.513   0.193  10.481 -1.1004 -0.8424 -0.8955
  326MOL0     H43986   6.294   0.401  10.569  0.2391  0.4319 -1.4083
  326MOL0     H43987   6.267   0.226  10.530 -0.3827  0.9502  1.8433
  326MOL0     H43988   6.419   0.155  10.701 -2.0920 -0.7986  2.2734
  326MOL0     H43989   6.281   0.247  10.765  1.4039  0.5864  1.4947
  326MOL0     H43990   6.424   0.436  10.795  2.2643 -0.1034  1.9922
  326MOL0     H43991   6.564   0.348  10.732  0.8807  0.5621  0.4674
  326MOL0     H43992   6.357   0.714   9.856 -0.5096  1.2443 -1.3861
  326MOL0     H43993   6.234   0.877   9.739 -1.0675 -0.0875  0.1823
  326MOL0     H43994   6.266   1.404   9.839 -2.7416  0.8800  1.4618
  326MOL0     H43995   6.190   1.617   9.790 -1.0560 -0.5941  1.5260
  326MOL0     H43996   6.089   1.999  10.097 -1.2638  0.1214  0.0823
  326MOL0     H43997   5.979   1.856   9.945 -2.4414  0.2445  0.3085
  326MOL0     H43998   5.707   1.580   9.816  0.0173 -0.0373 -2.4162
  326MOL0     H43999   5.600   1.441   9.635  0.5384 -3.6848 -2.6260
  326MOL0     H44000   5.621   1.001   9.704 -1.3771  0.4878 -0.2008
  326MOL0     H44001   5.483   1.028   9.594 -0.6007  4.3520 -1.4334
  326MOL0     H44002   5.646   0.886   9.474 -0.5394 -0.5210  2.1620
  326MOL0     H44003   5.770   1.015   9.513 -0.7461  4.0289  1.2256
  326MOL0     H44004   5.660   1.188   9.395 -0.2997 -0.5718  2.5893
  326MOL0     H44005   5.510   1.087   9.376  0.6991 -1.0034  0.8482
  326MOL0     H44006   5.767   1.056   9.216  0.4255 -5.8675  1.0231
  326MOL0     H44007   5.612   1.116   9.152 -2.4432 -0.5225  1.4645
  326MOL0     H44008   5.528   0.723   9.109 -0.7855  1.4331 -1.6505
  326MOL0     H44009   5.799   1.095   9.766 -0.3896  0.2945 -0.0416
  326MOL0     H44010   5.940   1.230   9.918 -1.5273 -4.6707 -1.1554
  327MOL0     O44011   1.945   7.876  10.028  0.0849  0.1812 -0.0872
  327MOL0     C44012   2.064   7.851  10.020  0.5245  0.6296  0.0366
  327MOL0     O44013   2.137   7.872   9.915 -0.9817 -0.9799 -0.0726
  327MOL0     C44014   2.090   7.918   9.794 -1.4000 -0.8003  0.5402
  327MOL0     C44015   2.183   7.983   9.705 -0.4498  0.1923 -0.1568
  327MOL0     C44016   2.146   8.056   9.596 -0.9215  0.7570 -0.3552
  327MOL0     C44017   2.018   8.045   9.548 -0.1370  1.2609  0.0970
  327MOL0     O44018   2.000   8.109   9.431 -0.0556  0.6013 -0.0006
  327MOL0     C44019   1.882   8.087   9.345  0.2839 -1.0817 -0.0789
  327MOL0     C44020   1.880   8.157   9.215 -0.0526  0.6007 -0.3265
  327MOL0     C44021   1.891   8.306   9.229  0.0051 -1.2419 -0.0678
  327MOL0     C44022   1.884   8.370   9.093 -0.0067 -0.0313 -0.1196
  327MOL0     C44023   1.931   8.518   9.103  0.5733  0.2699 -0.3363
  327MOL0     C44024   1.911   8.603   8.975 -0.3812  0.2649  0.2806
  327MOL0     C44025   1.937   8.747   9.013 -0.2503 -0.0649  0.0113
  327MOL0     C44026   1.920   8.845   8.897 -0.4102  0.7747 -0.3434
  327MOL0     N44027   2.030   8.809   8.799  0.0371  1.3169  0.2302
  327MOL0     C44028   2.143   8.877   8.824  0.0720 -0.2986 -0.1152
  327MOL0     C44029   2.210   8.903   8.710 -0.3177  1.1242 -0.0822
  327MOL0     C44030   2.344   8.957   8.694 -0.5513  0.3748  0.1071
  327MOL0     C44031   2.441   8.876   8.781  0.2724 -0.2668 -0.0466
  327MOL0     C44032   2.587   8.932   8.775 -0.5616  0.0429 -0.6514
  327MOL0     C44033   2.688   8.839   8.848  0.0883 -1.2312  0.6002
  327MOL0     O44034   2.669   8.704   8.811  0.5090  0.4731 -0.6939
  327MOL0     C44035   2.700   8.615   8.910  0.9271  0.1150  0.2609
  327MOL0     C44036   2.788   8.634   9.015 -1.0911 -0.9837  0.0156
  327MOL0     C44037   2.841   8.522   9.083 -0.0438 -0.0545 -1.0892
  327MOL0     C44038   2.952   8.553   9.187 -0.9727 -0.6185 -0.3937
  327MOL0     C44039   2.808   8.392   9.039 -0.2380 -0.1675  0.1955
  327MOL0     C44040   2.862   8.269   9.093  0.2205 -0.5784 -0.4557
  327MOL0     O44041   2.869   8.154   9.018 -0.0973 -1.1358  0.7155
  327MOL0     C44042   2.863   8.041   9.085 -0.5105  0.4931  0.0061
  327MOL0     C44043   2.757   7.963   9.074 -0.4049  0.2996 -0.1441
  327MOL0     C44044   2.748   7.838   9.134  0.1003  1.1030 -0.0420
  327MOL0     C44045   2.853   7.784   9.213 -0.2015  0.7485  0.6131
  327MOL0     O44046   2.833   7.654   9.264 -0.2783  0.5043  0.0856
  327MOL0     C44047   2.951   7.567   9.287 -1.0417 -1.3160 -0.4812
  327MOL0     C44048   2.897   7.424   9.315  1.0372 -0.1889  0.6321
  327MOL0     C44049   2.906   7.381   9.450 -0.5500  1.1299 -0.3291
  327MOL0     C44050   3.058   7.365   9.510  0.1861  0.1746  0.2102
  327MOL0     C44051   3.069   7.366   9.668  0.8270  0.6765 -0.8651
  327MOL0     C44052   3.007   7.246   9.744  0.4390 -0.5707  0.0429
  327MOL0     C44053   2.990   7.264   9.894 -0.1683 -0.6421  1.5914
  327MOL0     C44054   2.883   7.364   9.929  0.0093  0.1014 -0.1794
  327MOL0    Cl44055   2.881   7.388  10.099 -0.0836  0.2920 -0.0956
  327MOL0     C44056   2.969   7.867   9.222  0.0712  0.0723 -0.9731
  327MOL0     C44057   2.967   7.994   9.169 -0.0401  0.4688  0.5286
  327MOL0     O44058   2.886   8.276   9.214  0.3242 -0.2557  0.4411
  327MOL0     C44059   2.709   8.374   8.947 -0.5373  0.2615  0.3012
  327MOL0     C44060   2.659   8.486   8.879  0.9047 -1.4090 -0.6875
  327MOL0     N44061   2.118   8.848   8.616 -0.7301  0.3480  0.5831
  327MOL0     N44062   2.018   8.797   8.671  0.0416  0.6776  0.4076
  327MOL0     C44063   1.930   7.961   9.618 -0.7256 -0.0545  1.0597
  327MOL0     C44064   1.965   7.901   9.740 -0.0265  1.3416  0.3312
  327MOL0     C44065   2.131   7.797  10.140  0.3262 -0.3200 -1.3483
  327MOL0     C44066   2.076   7.700  10.215  0.0539 -0.0582 -0.3449
  327MOL0     C44067   2.145   7.651  10.323 -0.9102  0.4634 -0.4193
  327MOL0     C44068   2.276   7.699  10.359  0.5700  0.0767  0.4054
  327MOL0     O44069   2.328   7.649  10.470 -0.2672  0.8139 -1.1410
  327MOL0     C44070   2.453   7.680  10.525 -0.0984 -0.1035 -0.4759
  327MOL0     C44071   2.446   7.676  10.678 -0.0553  0.3729 -0.8389
  327MOL0     C44072   2.579   7.681  10.760  0.4793 -0.1058 -1.0486
  327MOL0     C44073   2.650   7.544  10.745 -0.5003  0.1083  0.8104
  327MOL0     C44074   2.750   7.528  10.854 -0.4790  0.5650 -0.3305
  327MOL0     C44075   2.829   7.534  10.951  0.2482  0.3385  0.5959
  327MOL0     C44076   2.327   7.801  10.289 -0.7214 -1.1728 -0.3934
  327MOL0     C44077   2.262   7.851  10.177 -0.5512  0.3783 -0.0046
  327MOL0     H44078   2.286   7.988   9.740  0.1626 -3.3975 -0.9981
  327MOL0     H44079   2.222   8.114   9.545 -0.2156 -0.1696 -0.3856
  327MOL0     H44080   1.871   7.980   9.331 -5.9091 -1.1091  2.2487
  327MOL0     H44081   1.788   8.117   9.391 -0.5892 -0.2894 -2.2457
  327MOL0     H44082   1.967   8.118   9.161 -1.4415 -2.5369 -0.5043
  327MOL0     H44083   1.788   8.129   9.163 -1.9890  1.1446  2.5911
  327MOL0     H44084   1.805   8.326   9.294  1.0777 -3.1334  2.0882
  327MOL0     H44085   1.989   8.324   9.275 -0.1404  2.4856 -0.9178
  327MOL0     H44086   1.951   8.315   9.027 -2.6121 -2.7015 -0.7687
  327MOL0     H44087   1.783   8.359   9.052  0.0175 -2.5611  0.3305
  327MOL0     H44088   1.887   8.571   9.188 -0.1723 -1.6203  0.5062
  327MOL0     H44089   2.039   8.524   9.121  0.5724 -3.3154  1.8948
  327MOL0     H44090   1.995   8.570   8.913  1.7580 -0.3585  3.3210
  327MOL0     H44091   1.813   8.589   8.929 -0.0330 -2.6300  0.2347
  327MOL0     H44092   1.853   8.767   9.082 -0.9194 -2.9506  0.1550
  327MOL0     H44093   2.031   8.775   9.062 -0.2648 -0.3120  0.1826
  327MOL0     H44094   1.933   8.943   8.943  1.6698 -0.2346  1.3603
  327MOL0     H44095   1.827   8.841   8.840 -1.0056 -1.7939  0.6550
  327MOL0     H44096   2.158   8.898   8.930 -1.0533  0.6496 -0.1172
  327MOL0     H44097   2.367   8.950   8.588 -3.4903  1.0432 -0.6541
  327MOL0     H44098   2.348   9.060   8.731  0.8838 -0.4190  2.3777
  327MOL0     H44099   2.433   8.775   8.741  0.8317  0.3784 -1.8945
  327MOL0     H44100   2.395   8.887   8.880  0.3663  2.8078 -0.2204
  327MOL0     H44101   2.592   9.031   8.820  1.8652 -0.4939  0.4546
  327MOL0     H44102   2.619   8.936   8.671 -0.0550  0.0675 -0.4986
  327MOL0     H44103   2.674   8.852   8.956 -0.1302 -1.8426  0.6488
  327MOL0     H44104   2.790   8.874   8.834  0.8265 -2.6526  2.1216
  327MOL0     H44105   2.834   8.728   9.045  3.3669 -2.8244 -0.1915
  327MOL0     H44106   2.938   8.491   9.276 -2.3606  0.9985  0.5784
  327MOL0     H44107   3.048   8.522   9.144  0.0574 -1.9483  2.6210
  327MOL0     H44108   2.967   8.652   9.230  1.1724 -1.9693  2.3098
  327MOL0     H44109   2.688   7.998   8.998  1.1021  1.2661 -1.1268
  327MOL0     H44110   2.654   7.784   9.133  0.9992 -0.5338 -0.7979
  327MOL0     H44111   3.011   7.555   9.196  1.9467 -0.3267  1.2274
  327MOL0     H44112   3.024   7.602   9.360  0.9991 -0.5415 -2.7269
  327MOL0     H44113   2.790   7.432   9.294  1.0419 -0.2332  0.5944
  327MOL0     H44114   2.939   7.347   9.251 -1.7045 -1.3261  0.0480
  327MOL0     H44115   2.875   7.276   9.456  0.7288  0.8013  0.7876
  327MOL0     H44116   2.845   7.432   9.525 -1.5536 -2.0797  1.2554
  327MOL0     H44117   3.102   7.271   9.474  4.1440  1.5878  0.7790
  327MOL0     H44118   3.121   7.441   9.462 -0.2231  0.4852  0.1617
  327MOL0     H44119   3.008   7.455   9.688 -2.5001 -1.9531  2.0413
  327MOL0     H44120   3.167   7.380   9.715  1.0314 -0.5140 -0.8978
  327MOL0     H44121   2.906   7.230   9.704  0.1918 -1.0548  0.8324
  327MOL0     H44122   3.069   7.158   9.730  1.4804  0.4627 -2.2431
  327MOL0     H44123   3.084   7.303   9.935  0.4927  0.1787 -0.5832
  327MOL0     H44124   2.945   7.173   9.935 -4.7301 -1.3298 -3.7834
  327MOL0     H44125   2.784   7.330   9.898  0.8536 -1.8478 -0.9515
  327MOL0     H44126   2.916   7.457   9.884 -1.6106 -0.3694 -2.5170
  327MOL0     H44127   3.055   7.843   9.283 -0.6786  0.2273  0.1727
  327MOL0     H44128   3.063   8.043   9.171 -1.1504  3.0112 -1.7628
  327MOL0     H44129   2.672   8.273   8.936 -1.5518  0.5699  0.7295
  327MOL0     H44130   2.578   8.485   8.806  0.8827  0.0772 -0.7220
  327MOL0     H44131   1.827   7.955   9.583 -0.7621  0.4038  1.0922
  327MOL0     H44132   1.888   7.849   9.796 -2.2457  1.6563 -2.2240
  327MOL0     H44133   1.973   7.678  10.189 -1.5835  2.5985  3.1500
  327MOL0     H44134   2.102   7.562  10.368 -2.8944  1.6112  0.0948
  327MOL0     H44135   2.526   7.611  10.481 -1.4358 -1.2198 -1.0260
  327MOL0     H44136   2.478   7.784  10.503  3.4140  0.9809  6.2036
  327MOL0     H44137   2.386   7.587  10.702  0.2117  0.1214 -1.1017
  327MOL0     H44138   2.396   7.771  10.698 -2.1568 -0.5987 -1.2205
  327MOL0     H44139   2.579   7.691  10.869  0.9293 -2.1134 -0.8331
  327MOL0     H44140   2.653   7.755  10.726  2.1987  0.4316  3.2312
  327MOL0     H44141   2.699   7.547  10.647  1.3370  1.2135  1.7157
  327MOL0     H44142   2.571   7.469  10.737 -1.8173  1.5708 -0.6292
  327MOL0     H44143   2.905   7.549  11.025  0.1324  2.9830  0.2788
  327MOL0     H44144   2.422   7.846  10.315 -0.4989 -1.7191 -0.2446
  327MOL0     H44145   2.311   7.926  10.116 -1.4386 -2.1344 -4.1811
  328MOL0     O44146   1.892   4.489   0.610  0.2043 -0.2011 -0.5306
  328MOL0     C44147   1.998   4.519   0.665  0.3237  0.7395 -0.5620
  328MOL0     O44148   2.008   4.535   0.801 -0.2717 -0.5849  0.9278
  328MOL0     C44149   1.905   4.553   0.886 -0.3466 -0.4173  0.5922
  328MOL0     C44150   1.787   4.617   0.846 -0.8338 -0.0326 -0.0805
  328MOL0     C44151   1.680   4.620   0.927 -0.4526 -0.1709  1.6568
  328MOL0     C44152   1.687   4.582   1.061  0.7581  0.6970 -0.7419
  328MOL0     O44153   1.590   4.609   1.147  0.2864  0.6185  0.4813
  328MOL0     C44154   1.486   4.514   1.111  0.6318 -0.4556 -0.1719
  328MOL0     C44155   1.355   4.537   1.185 -1.2989  0.0198  0.2875
  328MOL0     C44156   1.341   4.680   1.245 -0.0710  0.0822  0.7548
  328MOL0     C44157   1.245   4.685   1.362  0.1180  0.6397  1.6450
  328MOL0     C44158   1.186   4.822   1.372  0.9189  0.0653  0.3482
  328MOL0     C44159   1.095   4.879   1.253  0.6414  0.0990 -0.4269
  328MOL0     C44160   1.017   4.990   1.314  0.6786  0.3832  0.1945
  328MOL0     C44161   0.874   4.957   1.372 -0.5071 -0.6900 -0.3912
  328MOL0     N44162   0.820   5.055   1.464  0.2930  0.1923 -1.2837
  328MOL0     C44163   0.733   5.159   1.445  0.3119 -0.5663 -0.3533
  328MOL0     C44164   0.707   5.226   1.567  0.1744 -0.3666 -0.4855
  328MOL0     C44165   0.625   5.350   1.590  1.2556 -0.2177 -0.2741
  328MOL0     C44166   0.663   5.470   1.505 -0.0638 -0.5740 -0.3246
  328MOL0     C44167   0.803   5.514   1.529 -0.0507  0.0865  0.2181
  328MOL0     C44168   0.868   5.563   1.399 -0.0393  1.2621 -1.0723
  328MOL0     O44169   0.989   5.623   1.449 -0.5918 -0.0990 -0.3861
  328MOL0     C44170   1.063   5.685   1.353  1.0861  0.2329 -0.0700
  328MOL0     C44171   1.028   5.705   1.218  0.5011 -0.1089  0.1753
  328MOL0     C44172   1.109   5.770   1.126  0.0774  0.3853  0.1204
  328MOL0     C44173   1.059   5.783   0.977  0.0149  0.1119  0.1811
  328MOL0     C44174   1.234   5.825   1.174  0.4448 -1.2388  0.4567
  328MOL0     C44175   1.338   5.892   1.092 -0.1983  0.2327 -0.2089
  328MOL0     O44176   1.412   5.989   1.145 -0.1286 -0.0452  0.9105
  328MOL0     C44177   1.478   6.071   1.059  0.2286 -0.1157 -0.9439
  328MOL0     C44178   1.616   6.044   1.054 -0.5188 -0.1710  0.5830
  328MOL0     C44179   1.692   6.132   0.980  0.0133 -1.2369 -0.2771
  328MOL0     C44180   1.642   6.252   0.921  0.0006 -0.3434  0.4615
  328MOL0     O44181   1.719   6.343   0.861 -0.1156 -0.2062 -0.0542
  328MOL0     C44182   1.862   6.342   0.894 -0.2681  0.9327  0.0495
  328MOL0     C44183   1.922   6.474   0.837  0.5868  0.5665  0.0974
  328MOL0     C44184   1.907   6.497   0.690 -0.2117  0.5982 -1.0239
  328MOL0     C44185   1.968   6.626   0.643  0.5725  0.4739  0.9205
  328MOL0     C44186   2.107   6.598   0.595  0.7292 -0.6308 -0.1366
  328MOL0     C44187   2.188   6.727   0.571 -0.3872  0.2004 -0.5863
  328MOL0     C44188   2.138   6.807   0.451 -0.6424  0.4260 -0.2486
  328MOL0     C44189   2.188   6.946   0.431 -0.1521  0.3879  0.6081
  328MOL0    Cl44190   2.368   6.943   0.451 -0.0080  0.3602  0.5371
  328MOL0     C44191   1.505   6.279   0.932 -0.2195  0.3909  0.4223
  328MOL0     C44192   1.428   6.183   1.000  0.4563 -1.1001 -0.1651
  328MOL0     O44193   1.352   5.856   0.974 -0.3114 -0.0476  0.1272
  328MOL0     C44194   1.258   5.825   1.307 -0.4584  0.0222 -0.0950
  328MOL0     C44195   1.175   5.756   1.396 -0.5281 -0.3533  0.4902
  328MOL0     N44196   0.784   5.157   1.664  0.0657  0.1144  1.1116
  328MOL0     N44197   0.847   5.064   1.607 -0.6368  1.4314 -0.6108
  328MOL0     C44198   1.807   4.530   1.095  0.3045 -0.3756 -0.6874
  328MOL0     C44199   1.922   4.518   1.014 -0.3296  0.3658 -0.0104
  328MOL0     C44200   2.112   4.503   0.585 -0.5558 -0.2058  0.0253
  328MOL0     C44201   2.232   4.557   0.630 -0.1940  0.0266  0.3276
  328MOL0     C44202   2.348   4.518   0.567  0.2412  0.4611  0.9469
  328MOL0     C44203   2.348   4.450   0.444 -0.2856  0.5158 -0.8922
  328MOL0     O44204   2.467   4.437   0.384 -0.0368  0.5855  0.9513
  328MOL0     C44205   2.519   4.297   0.402  0.1779 -0.3128  0.4801
  328MOL0     C44206   2.555   4.265   0.554  0.5057  0.2225  0.1164
  328MOL0     C44207   2.600   4.122   0.570 -0.3208  0.6451 -0.3659
  328MOL0     C44208   2.751   4.107   0.537  0.5135  0.3272 -0.3746
  328MOL0     C44209   2.773   4.083   0.391 -1.0732 -0.2422  0.0397
  328MOL0     C44210   2.794   4.042   0.274 -0.6049  0.4406 -0.4464
  328MOL0     C44211   2.234   4.406   0.391  0.8217 -0.6767 -0.5510
  328MOL0     C44212   2.112   4.436   0.463  0.0911  0.4193 -0.4912
  328MOL0     H44213   1.782   4.674   0.754  0.8930 -1.1167 -0.9005
  328MOL0     H44214   1.585   4.660   0.892  0.0560  0.7984  1.3423
  328MOL0     H44215   1.458   4.525   1.006  0.1998  1.6014  0.1044
  328MOL0     H44216   1.507   4.409   1.131 -0.4453 -0.9166 -1.3443
  328MOL0     H44217   1.268   4.523   1.120 -2.9796  1.2596  2.1546
  328MOL0     H44218   1.346   4.458   1.260 -0.8967 -0.6442 -0.3372
  328MOL0     H44219   1.432   4.726   1.284 -0.6652  1.2695  0.7739
  328MOL0     H44220   1.305   4.744   1.165  0.9491  0.9160  0.9506
  328MOL0     H44221   1.174   4.602   1.349  0.6069  0.4961 -0.5168
  328MOL0     H44222   1.304   4.667   1.452  1.5615  1.2417  0.8579
  328MOL0     H44223   1.122   4.818   1.461  0.1523 -1.5260 -0.2223
  328MOL0     H44224   1.273   4.888   1.380  2.1665 -1.1913 -1.8955
  328MOL0     H44225   1.149   4.918   1.166 -0.0803  1.8686 -0.1238
  328MOL0     H44226   1.025   4.806   1.211 -1.9688  0.6051  2.6957
  328MOL0     H44227   1.071   5.051   1.387  0.2145  2.8735 -1.4184
  328MOL0     H44228   1.005   5.061   1.232  2.3461  0.3183 -0.1475
  328MOL0     H44229   0.889   4.866   1.432  0.1384 -0.8855 -0.8356
  328MOL0     H44230   0.809   4.928   1.289 -1.7615 -1.2551  0.7507
  328MOL0     H44231   0.673   5.175   1.357  0.0401 -1.6992 -0.3822
  328MOL0     H44232   0.523   5.325   1.559  1.2902 -2.3346  1.0918
  328MOL0     H44233   0.625   5.378   1.696 -2.4774 -0.7081 -0.0167
  328MOL0     H44234   0.601   5.558   1.524  2.2006  1.4616 -1.7979
  328MOL0     H44235   0.650   5.456   1.398 -2.1077  2.1026 -0.5295
  328MOL0     H44236   0.856   5.431   1.576 -0.5610  1.1374  2.8219
  328MOL0     H44237   0.810   5.598   1.599 -0.4794 -0.4017  0.8619
  328MOL0     H44238   0.793   5.619   1.343  0.5239  2.1727 -0.9408
  328MOL0     H44239   0.897   5.484   1.329 -0.5789  0.5537 -0.5213
  328MOL0     H44240   0.935   5.662   1.183  1.4987 -1.3005 -1.1479
  328MOL0     H44241   1.047   5.889   0.951 -0.4850 -0.4739 -2.1847
  328MOL0     H44242   1.123   5.741   0.899 -1.0374  1.2156 -1.3343
  328MOL0     H44243   0.963   5.733   0.958  1.8557 -2.6427 -2.9280
  328MOL0     H44244   1.648   5.945   1.084 -0.8361 -0.5152 -0.1717
  328MOL0     H44245   1.796   6.105   0.971  0.1923 -1.1184  1.1396
  328MOL0     H44246   1.880   6.345   1.001  1.4125 -0.6692 -0.1261
  328MOL0     H44247   1.914   6.259   0.845 -0.5169  0.0013  1.3196
  328MOL0     H44248   1.887   6.563   0.890  0.2105  0.7679 -0.4779
  328MOL0     H44249   2.029   6.465   0.857  0.1806 -2.2276  1.3647
  328MOL0     H44250   1.800   6.487   0.669 -0.6640 -2.9152  1.9027
  328MOL0     H44251   1.965   6.416   0.645  2.2645 -1.1034  4.3829
  328MOL0     H44252   1.907   6.667   0.562  0.1735 -2.5469 -0.4599
  328MOL0     H44253   1.979   6.707   0.716  1.0540  1.1797  0.0813
  328MOL0     H44254   2.101   6.546   0.498 -0.2017 -1.4473  0.3378
  328MOL0     H44255   2.144   6.525   0.668 -2.8102 -3.8273 -1.2080
  328MOL0     H44256   2.199   6.796   0.655  0.1501  0.5246 -0.9187
  328MOL0     H44257   2.290   6.692   0.549 -0.2682  0.4457 -0.4300
  328MOL0     H44258   2.029   6.812   0.444 -0.6822  1.5166  0.7770
  328MOL0     H44259   2.173   6.755   0.361  0.8722 -2.0286  1.6365
  328MOL0     H44260   2.143   7.009   0.508 -0.3323 -1.2485  1.8944
  328MOL0     H44261   2.157   6.994   0.338 -2.8303  0.5332  1.4840
  328MOL0     H44262   1.463   6.369   0.889  2.2775  0.7404 -1.5193
  328MOL0     H44263   1.325   6.214   1.016  0.9637  1.2203 -0.9554
  328MOL0     H44264   1.342   5.871   1.359 -0.5315  2.5783 -2.0210
  328MOL0     H44265   1.204   5.766   1.500 -2.1655  2.3801  0.7875
  328MOL0     H44266   1.830   4.492   1.194 -2.2294 -1.6987 -0.5281
  328MOL0     H44267   2.011   4.468   1.051 -0.7992 -0.0102  0.6420
  328MOL0     H44268   2.246   4.628   0.711 -1.0562  5.0386 -3.4778
  328MOL0     H44269   2.444   4.557   0.599  2.4499 -4.8804  1.8343
  328MOL0     H44270   2.454   4.217   0.366  2.0620 -0.4408 -3.0508
  328MOL0     H44271   2.610   4.287   0.342 -0.7755 -2.2835 -0.7373
  328MOL0     H44272   2.464   4.277   0.614 -0.0202  1.8693 -0.9285
  328MOL0     H44273   2.638   4.327   0.592  3.8087 -3.0167 -1.2161
  328MOL0     H44274   2.529   4.052   0.524  1.1062 -2.2396  1.5502
  328MOL0     H44275   2.599   4.093   0.675 -2.9720  0.4558 -0.3605
  328MOL0     H44276   2.787   4.017   0.587 -0.4919 -0.5502 -1.1674
  328MOL0     H44277   2.801   4.195   0.576 -0.6511 -0.1600  2.4742
  328MOL0     H44278   2.819   4.027   0.171  2.7735  3.8317 -0.3104
  328MOL0     H44279   2.222   4.374   0.289 -0.1237 -0.7294 -0.4289
  328MOL0     H44280   2.018   4.396   0.425 -1.6658  2.6694  1.1801
  329MOL0     O44281  10.200   7.046   3.832 -0.6929 -0.4548 -0.2402
  329MOL0     C44282  10.229   7.157   3.874  0.1958 -0.7818  0.4368
  329MOL0     O44283  10.221   7.193   4.008 -1.0811  0.7509  0.6731
  329MOL0     C44284  10.147   7.126   4.093  0.4079 -0.4447 -0.1760
  329MOL0     C44285  10.195   7.062   4.203  0.9635 -0.5094 -0.7192
  329MOL0     C44286  10.107   7.004   4.302  0.5380 -0.1004  1.1213
  329MOL0     C44287   9.975   7.032   4.285  0.2899 -0.1187  0.7057
  329MOL0     O44288   9.883   7.000   4.383  0.0740 -0.0072 -0.0949
  329MOL0     C44289   9.867   6.861   4.406  0.1741 -0.1004  0.4121
  329MOL0     C44290   9.883   6.841   4.560  0.5294 -0.0422  0.5116
  329MOL0     C44291   9.935   6.702   4.583  0.2479  0.6232 -0.3095
  329MOL0     C44292   9.979   6.683   4.733 -0.2320 -0.0708  0.1196
  329MOL0     C44293  10.015   6.535   4.763 -0.0434 -0.5361  0.6687
  329MOL0     C44294  10.050   6.514   4.906 -0.1008  0.1424 -0.6620
  329MOL0     C44295  10.175   6.581   4.946 -0.0209  0.4537  0.6912
  329MOL0     C44296  10.246   6.512   5.067  0.0772  0.0556  0.4463
  329MOL0     N44297  10.159   6.526   5.190 -0.5711 -0.0796 -0.7750
  329MOL0     C44298  10.126   6.645   5.259  0.7858 -0.0563  0.7502
  329MOL0     C44299  10.033   6.603   5.350 -0.4192  0.2052  0.5109
  329MOL0     C44300   9.985   6.700   5.461  0.3613  0.0835  0.2113
  329MOL0     C44301   9.836   6.727   5.458  0.0201 -0.1647 -0.5710
  329MOL0     C44302   9.783   6.799   5.341  0.6795 -0.3181  0.8554
  329MOL0     C44303   9.630   6.802   5.348  0.0757  0.2658  0.4472
  329MOL0     O44304   9.567   6.876   5.247 -0.1757 -0.0020  0.2392
  329MOL0     C44305   9.603   7.009   5.242 -0.8919 -0.7228  0.2305
  329MOL0     C44306   9.572   7.105   5.333  0.5648  0.2278 -0.4068
  329MOL0     C44307   9.627   7.238   5.326  1.2728  0.2803  0.9275
  329MOL0     C44308   9.582   7.330   5.433  0.4817 -0.2795 -1.1361
  329MOL0     C44309   9.712   7.275   5.216 -0.4972  0.2375 -0.6935
  329MOL0     C44310   9.792   7.403   5.211 -0.4957  0.3823 -0.0940
  329MOL0     O44311   9.875   7.409   5.104 -0.0734 -0.0634  0.3001
  329MOL0     C44312   9.899   7.537   5.059 -0.9725  0.4929  0.7497
  329MOL0     C44313   9.793   7.623   5.045 -0.3892  1.0265 -0.3187
  329MOL0     C44314   9.815   7.755   5.015  0.1320  0.3383  0.0605
  329MOL0     C44315   9.947   7.810   5.001 -0.4250  0.3785  0.8462
  329MOL0     O44316   9.953   7.940   4.967  1.0322  0.3002  0.2640
  329MOL0     C44317  10.084   7.998   4.953  0.4373  0.4566 -0.0644
  329MOL0     C44318  10.080   8.155   4.956  0.2584 -0.4204  0.3911
  329MOL0     C44319  10.019   8.220   4.828  0.0794 -0.1776 -0.5426
  329MOL0     C44320  10.009   8.374   4.832  0.1499  0.1874 -0.6935
  329MOL0     C44321   9.993   8.426   4.694  0.6406  0.6379  0.5471
  329MOL0     C44322   9.978   8.574   4.696 -0.2855 -0.3930 -0.7728
  329MOL0     C44323   9.828   8.610   4.730 -0.5698  0.0708  0.7768
  329MOL0     C44324   9.782   8.756   4.723 -0.3696 -0.3589 -0.4621
  329MOL0    Cl44325   9.768   8.807   4.549  0.1836 -0.5706  0.2127
  329MOL0     C44326  10.058   7.724   5.024 -0.2287  0.1990  1.2329
  329MOL0     C44327  10.029   7.590   5.048 -0.4008  0.8840  0.7597
  329MOL0     O44328   9.756   7.486   5.293 -0.7923  0.2582  0.4476
  329MOL0     C44329   9.714   7.179   5.114 -0.5145  0.6210  0.7585
  329MOL0     C44330   9.661   7.052   5.124  0.4107 -0.4394 -0.3743
  329MOL0     N44331  10.014   6.469   5.336 -0.1373 -0.0429  0.0005
  329MOL0     N44332  10.089   6.420   5.249 -0.2071  0.1460 -0.0000
  329MOL0     C44333   9.922   7.096   4.174  0.1651 -0.3694  0.6516
  329MOL0     C44334  10.004   7.150   4.080 -0.1512 -0.2826  0.4158
  329MOL0     C44335  10.276   7.257   3.781 -0.7514 -0.1361  0.5873
  329MOL0     C44336  10.265   7.395   3.818  0.2033  0.0784  0.3066
  329MOL0     C44337  10.314   7.497   3.736 -0.2417 -0.7797 -0.6438
  329MOL0     C44338  10.357   7.475   3.611  0.1306  0.0984  0.3475
  329MOL0     O44339  10.409   7.574   3.529  0.6447  0.5661 -0.0798
  329MOL0     C44340  10.447   7.706   3.588  1.5343  0.7724  0.4984
  329MOL0     C44341  10.584   7.695   3.663  0.4476  0.2601  0.7892
  329MOL0     C44342  10.675   7.578   3.611  0.5218 -1.4465 -0.0716
  329MOL0     C44343  10.826   7.620   3.630 -0.7327 -0.2104 -0.0004
  329MOL0     C44344  10.850   7.622   3.776  0.1666 -0.4428 -0.3304
  329MOL0     C44345  10.866   7.636   3.896 -0.0192  0.7664 -0.0390
  329MOL0     C44346  10.362   7.343   3.570  0.3455  1.3277 -0.3131
  329MOL0     C44347  10.322   7.230   3.650  0.6892 -0.0339  0.1818
  329MOL0     H44348  10.303   7.058   4.213  0.9861  1.3142  0.0712
  329MOL0     H44349  10.148   6.954   4.389  2.0032  0.9815  1.0935
  329MOL0     H44350   9.769   6.824   4.373  0.5380  0.5241 -1.5115
  329MOL0     H44351   9.941   6.806   4.348  1.3323 -0.8187  2.4601
  329MOL0     H44352   9.962   6.904   4.603 -0.5764  1.5238  0.3052
  329MOL0     H44353   9.789   6.860   4.611 -0.2071 -0.1102 -0.7668
  329MOL0     H44354   9.856   6.627   4.574  0.7551  0.2276 -1.8642
  329MOL0     H44355  10.025   6.675   4.528 -0.7447 -1.8212 -0.8490
  329MOL0     H44356  10.063   6.748   4.757 -0.8596  0.8064 -0.0390
  329MOL0     H44357   9.892   6.710   4.793 -3.2591 -1.7183 -3.1856
  329MOL0     H44358   9.934   6.474   4.721  0.4367 -0.8896  0.2554
  329MOL0     H44359  10.101   6.503   4.704 -0.4940  1.5817 -1.3181
  329MOL0     H44360   9.972   6.553   4.973  0.5625  0.4059 -0.0280
  329MOL0     H44361  10.067   6.406   4.916  2.2140  0.4936 -0.1882
  329MOL0     H44362  10.243   6.569   4.861 -2.2686 -2.9395 -0.8179
  329MOL0     H44363  10.170   6.688   4.968  1.1031  0.6673 -0.0008
  329MOL0     H44364  10.343   6.558   5.085  1.2760 -2.4672  0.8066
  329MOL0     H44365  10.270   6.410   5.035 -3.2719  0.2351 -3.3561
  329MOL0     H44366  10.145   6.751   5.252 -2.4182  0.4981 -1.8551
  329MOL0     H44367  10.008   6.661   5.561  2.8034  2.1638  0.5659
  329MOL0     H44368  10.034   6.797   5.469  1.3896 -0.5551  2.6250
  329MOL0     H44369   9.804   6.785   5.544 -0.5778  0.6686 -1.3340
  329MOL0     H44370   9.787   6.629   5.455 -1.9165  0.6675  1.2076
  329MOL0     H44371   9.813   6.745   5.251  1.8970  0.7641  0.5871
  329MOL0     H44372   9.830   6.897   5.329 -2.6602  1.2702 -0.5821
  329MOL0     H44373   9.610   6.838   5.449 -1.0843  0.4125  0.1823
  329MOL0     H44374   9.595   6.698   5.352  1.1554 -0.1818 -0.9279
  329MOL0     H44375   9.512   7.065   5.414 -1.0547 -0.2491 -1.7636
  329MOL0     H44376   9.670   7.367   5.486 -1.1529 -0.7808  2.2027
  329MOL0     H44377   9.508   7.401   5.396  0.9136  0.5655 -0.3999
  329MOL0     H44378   9.528   7.270   5.507  0.6782 -0.0892 -0.8392
  329MOL0     H44379   9.688   7.595   5.046 -0.9325  2.6876 -2.3845
  329MOL0     H44380   9.734   7.819   4.982 -0.9965 -1.8849 -1.7988
  329MOL0     H44381  10.144   7.955   5.033  1.4745  2.4783  0.3105
  329MOL0     H44382  10.124   7.956   4.860 -3.4674 -2.2901 -0.7912
  329MOL0     H44383  10.029   8.193   5.045  2.1071  1.9076  0.5424
  329MOL0     H44384  10.182   8.193   4.960 -0.1134  0.5093  1.3376
  329MOL0     H44385   9.915   8.187   4.836 -0.7122  2.3282  0.9224
  329MOL0     H44386  10.080   8.188   4.743 -1.5152  0.7696 -2.0994
  329MOL0     H44387   9.922   8.401   4.893  0.0411  2.3740 -1.7314
  329MOL0     H44388  10.102   8.408   4.877  1.1020 -1.1732 -1.5371
  329MOL0     H44389   9.903   8.387   4.645  1.4374 -0.1568 -0.3257
  329MOL0     H44390  10.084   8.401   4.639 -0.0356  0.5852 -0.5693
  329MOL0     H44391  10.056   8.617   4.760 -1.7255 -2.4570  2.7223
  329MOL0     H44392   9.986   8.619   4.597  1.2456 -0.5706 -0.7503
  329MOL0     H44393   9.808   8.575   4.832  0.0068 -0.0687  0.8480
  329MOL0     H44394   9.773   8.550   4.658  1.0158 -1.3476  0.6872
  329MOL0     H44395   9.851   8.826   4.771  1.3593 -1.8587 -0.6574
  329MOL0     H44396   9.689   8.771   4.779  1.3672 -0.8308  2.7728
  329MOL0     H44397  10.160   7.754   5.005  1.3626 -4.3510  1.4417
  329MOL0     H44398  10.106   7.515   5.065 -1.9647 -1.8064 -2.6111
  329MOL0     H44399   9.764   7.203   5.020  1.0851 -5.2415 -0.2684
  329MOL0     H44400   9.664   6.975   5.049  1.2115  1.5303 -2.4792
  329MOL0     H44401   9.818   7.126   4.184  0.7603  1.9115  0.6019
  329MOL0     H44402   9.961   7.195   3.992  2.9849  2.0649 -0.0763
  329MOL0     H44403  10.220   7.422   3.913  1.1290  0.0425  0.7726
  329MOL0     H44404  10.305   7.600   3.771  1.9013  0.1045 -2.4411
  329MOL0     H44405  10.480   7.778   3.513  3.6452  0.0471  0.6642
  329MOL0     H44406  10.372   7.750   3.655  0.7004 -1.6566  1.2805
  329MOL0     H44407  10.571   7.693   3.771 -1.0373  1.4429  0.6681
  329MOL0     H44408  10.626   7.794   3.647 -2.0775  1.1812 -0.8102
  329MOL0     H44409  10.657   7.568   3.504 -2.8597 -1.5218  0.3971
  329MOL0     H44410  10.657   7.479   3.654  0.0815 -1.1120  0.5307
  329MOL0     H44411  10.851   7.722   3.601  4.2346 -1.2862 -0.4027
  329MOL0     H44412  10.882   7.550   3.567 -0.7679  1.9096 -2.6175
  329MOL0     H44413  10.871   7.661   4.000  0.0759  1.3135 -0.1709
  329MOL0     H44414  10.402   7.320   3.472 -1.4349  0.8946 -0.9593
  329MOL0     H44415  10.345   7.129   3.619 -1.8114 -0.5636 -0.1149
  330MOL0     O44416  11.373   6.436   9.907 -0.0103 -0.1942 -0.1922
  330MOL0     C44417  11.346   6.528   9.987 -0.2428 -0.2376  1.5498
  330MOL0     O44418  11.435   6.588  10.062  0.4836 -0.2121  0.9365
  330MOL0     C44419  11.560   6.530  10.079 -0.0192 -0.4253  0.6463
  330MOL0     C44420  11.601   6.501  10.208 -0.3146 -0.3380  0.5801
  330MOL0     C44421  11.728   6.436  10.226 -0.0172 -0.0778  0.1413
  330MOL0     C44422  11.819   6.417  10.120  0.2369 -0.2017 -0.0690
  330MOL0     O44423  11.943   6.367  10.144 -0.7773  0.3256  0.1383
  330MOL0     C44424  12.007   6.413  10.261  0.0593 -0.7523  0.5126
  330MOL0     C44425  12.015   6.305  10.366  1.1130 -0.0871  0.0327
  330MOL0     C44426  12.030   6.374  10.509  0.3520  0.1495  0.1247
  330MOL0     C44427  12.148   6.468  10.531  0.2784 -0.3439 -0.7974
  330MOL0     C44428  12.150   6.525  10.674  0.5787 -0.0651 -0.2683
  330MOL0     C44429  12.278   6.597  10.690 -0.6414 -0.5106 -0.9667
  330MOL0     C44430  12.278   6.690  10.823  0.2207 -1.1573 -0.8331
  330MOL0     C44431  12.198   6.825  10.799  0.5942  0.1004  0.0958
  330MOL0     N44432  12.285   6.926  10.734 -0.1374  0.0163  0.4377
  330MOL0     C44433  12.389   6.981  10.791  0.1510  0.3267 -0.3150
  330MOL0     C44434  12.436   7.075  10.711  0.5428  0.7239  0.1995
  330MOL0     C44435  12.556   7.171  10.750  0.0413  0.3741 -0.3757
  330MOL0     C44436  12.500   7.316  10.763 -0.8916  0.5206 -0.2029
  330MOL0     C44437  12.604   7.435  10.786 -0.0436  0.3484  0.4276
  330MOL0     C44438  12.701   7.419  10.894 -0.4862  0.0340 -0.5685
  330MOL0     O44439  12.755   7.549  10.928  0.1002 -0.2345 -0.7198
  330MOL0     C44440  12.858   7.558  11.012  0.3826 -0.2329  0.7923
  330MOL0     C44441  12.857   7.651  11.113  0.3296  0.2800  0.2121
  330MOL0     C44442  12.966   7.660  11.202 -0.2133 -0.5226 -0.2393
  330MOL0     C44443  12.950   7.756  11.315  0.5403  0.6084 -0.2670
  330MOL0     C44444  13.079   7.571  11.184  0.1153 -0.5388 -0.5482
  330MOL0     C44445  13.204   7.566  11.262 -0.8563  0.0385  1.1304
  330MOL0     O44446  13.321   7.601  11.195  0.3749  0.2211 -0.2576
  330MOL0     C44447  13.439   7.553  11.252 -0.7172  0.8489 -0.4785
  330MOL0     C44448  13.511   7.450  11.194  0.3742  0.4246 -0.0575
  330MOL0     C44449  13.622   7.392  11.247  0.2646 -0.7110  0.3798
  330MOL0     C44450  13.681   7.442  11.364 -0.3700 -0.1165  1.2537
  330MOL0     O44451  13.794   7.375  11.403  0.3853  0.4221  0.0098
  330MOL0     C44452  13.851   7.404  11.537  0.0763 -0.0599 -0.2847
  330MOL0     C44453  13.999   7.416  11.504  0.1915 -0.0897 -0.4217
  330MOL0     C44454  14.047   7.296  11.431  0.9636 -0.6907 -0.0305
  330MOL0     C44455  14.195   7.297  11.432 -0.4116 -0.0350 -0.0570
  330MOL0     C44456  14.265   7.187  11.342  1.2967 -0.4856 -0.4901
  330MOL0     C44457  14.366   7.253  11.239  0.1486  0.5759 -0.5632
  330MOL0     C44458  14.417   7.166  11.126 -0.2326  0.4373 -0.0646
  330MOL0     C44459  14.507   7.043  11.159  0.0178  0.3032 -0.9344
  330MOL0    Cl44460  14.671   7.121  11.214 -0.0364 -0.2581 -0.3904
  330MOL0     C44461  13.613   7.548  11.427 -0.4494  0.5475  0.2676
  330MOL0     C44462  13.496   7.594  11.374  0.3630  0.2746 -0.2279
  330MOL0     O44463  13.198   7.513  11.371 -0.1124  0.9663 -0.4978
  330MOL0     C44464  13.076   7.482  11.078 -0.0681  0.6314 -0.0143
  330MOL0     C44465  12.973   7.485  10.987 -0.0908  0.7296  0.3724
  330MOL0     N44466  12.357   7.083  10.597 -0.5431 -0.0263 -0.1649
  330MOL0     N44467  12.268   6.987  10.615 -0.2612 -0.7679  0.3766
  330MOL0     C44468  11.780   6.457   9.992  0.5236  0.8786 -0.7284
  330MOL0     C44469  11.653   6.508   9.973 -0.2822  1.0340 -0.5592
  330MOL0     C44470  11.203   6.574   9.997  0.3319 -0.5478 -0.2348
  330MOL0     C44471  11.098   6.523   9.909 -0.0472 -0.1505 -0.4697
  330MOL0     C44472  10.969   6.574   9.924  0.0796 -0.8597 -0.0289
  330MOL0     C44473  10.940   6.678  10.009 -0.0451  1.6108 -0.1461
  330MOL0     O44474  10.817   6.734  10.045 -0.4198  0.0232 -0.3124
  330MOL0     C44475  10.696   6.674  10.007 -0.6255 -0.4362  0.1833
  330MOL0     C44476  10.572   6.745  10.078  0.3725  0.2977  0.9331
  330MOL0     C44477  10.444   6.679  10.027  0.8712  0.7401 -0.3385
  330MOL0     C44478  10.325   6.771  10.033 -0.3429 -0.2538  0.0305
  330MOL0     C44479  10.209   6.705   9.977 -0.0432  0.0846 -0.0112
  330MOL0     C44480  10.098   6.662   9.946 -0.6634  0.0320  0.8774
  330MOL0     C44481  11.047   6.732  10.080  0.2958 -1.1799  0.2483
  330MOL0     C44482  11.176   6.683  10.083 -0.1825  0.7958 -0.5210
  330MOL0     H44483  11.529   6.527  10.286 -3.7730 -0.4604 -2.3231
  330MOL0     H44484  11.758   6.419  10.329  2.8010  1.2491 -0.3700
  330MOL0     H44485  12.110   6.436  10.232  0.1405 -0.5266  0.9724
  330MOL0     H44486  11.981   6.511  10.300  2.0741  0.7220 -1.6153
  330MOL0     H44487  11.924   6.244  10.377  2.5805 -2.5477 -0.7369
  330MOL0     H44488  12.101   6.239  10.352  1.8247  1.2835 -2.5567
  330MOL0     H44489  11.933   6.416  10.538  1.4775  1.1289  2.8500
  330MOL0     H44490  12.044   6.294  10.582  0.0847  1.9383  2.2423
  330MOL0     H44491  12.243   6.423  10.502  1.2925  3.9194 -5.4304
  330MOL0     H44492  12.145   6.558  10.470  1.2849  1.7391  2.0265
  330MOL0     H44493  12.074   6.600  10.694  2.6016  1.4556  2.3005
  330MOL0     H44494  12.143   6.450  10.753  1.7222  1.6815  1.5656
  330MOL0     H44495  12.362   6.531  10.715 -0.8124  0.9548  4.9518
  330MOL0     H44496  12.313   6.651  10.601  2.6162 -1.0028 -0.1007
  330MOL0     H44497  12.241   6.648  10.917 -1.1011  2.6042  0.5330
  330MOL0     H44498  12.383   6.703  10.851 -0.3772  0.0716  1.0347
  330MOL0     H44499  12.165   6.871  10.892 -0.2021  2.2513 -1.1893
  330MOL0     H44500  12.109   6.809  10.738  0.2212  4.8800 -0.9712
  330MOL0     H44501  12.431   6.950  10.887 -0.5738  0.5153  0.0713
  330MOL0     H44502  12.579   7.142  10.853 -3.4208  0.6030  0.5858
  330MOL0     H44503  12.644   7.159  10.686  1.5243 -1.5033  1.8220
  330MOL0     H44504  12.431   7.316  10.847 -2.3810 -4.5121 -1.0726
  330MOL0     H44505  12.441   7.340  10.674 -0.2962  0.4811 -0.6161
  330MOL0     H44506  12.531   7.514  10.804 -2.6645 -1.6024 -0.8621
  330MOL0     H44507  12.646   7.461  10.688 -0.6892 -3.1594 -0.9493
  330MOL0     H44508  12.783   7.358  10.855  0.7262  1.8560 -0.9923
  330MOL0     H44509  12.666   7.365  10.983 -0.9434  1.0484 -0.1242
  330MOL0     H44510  12.775   7.722  11.120  0.5152  0.5145 -0.0210
  330MOL0     H44511  12.844   7.756  11.342  0.4434  3.2198 -0.3833
  330MOL0     H44512  12.997   7.710  11.403  0.0021  0.5155 -0.0249
  330MOL0     H44513  12.969   7.864  11.307 -0.8908  0.9852  0.9702
  330MOL0     H44514  13.482   7.419  11.094 -3.7297 -2.5436  1.7151
  330MOL0     H44515  13.668   7.318  11.182  0.3059  1.8160 -2.7048
  330MOL0     H44516  13.813   7.499  11.577 -2.9771 -2.5325  3.4272
  330MOL0     H44517  13.839   7.326  11.613 -0.7294 -1.5534 -1.8922
  330MOL0     H44518  14.020   7.514  11.462  3.9919  0.5602  2.4210
  330MOL0     H44519  14.065   7.405  11.591 -1.2054 -2.0265  0.4632
  330MOL0     H44520  14.017   7.307  11.327  3.4907 -0.7752 -0.8318
  330MOL0     H44521  14.017   7.198  11.471 -0.2691  0.6329  2.5112
  330MOL0     H44522  14.243   7.392  11.407  0.7484 -0.4324  0.5918
  330MOL0     H44523  14.221   7.276  11.536  0.5647  1.0174 -0.0749
  330MOL0     H44524  14.189   7.124  11.296  1.2808 -0.1435 -0.9434
  330MOL0     H44525  14.325   7.122  11.406 -0.8308 -3.8222 -1.6121
  330MOL0     H44526  14.313   7.336  11.191  0.2296  1.3236  0.5958
  330MOL0     H44527  14.453   7.288  11.294 -0.2564 -1.1584  1.2917
  330MOL0     H44528  14.470   7.231  11.056  0.9491 -0.1697  0.2478
  330MOL0     H44529  14.335   7.126  11.065  0.0393 -0.9548  0.4410
  330MOL0     H44530  14.514   6.985  11.067 -0.4650 -1.0594 -0.1283
  330MOL0     H44531  14.460   6.986  11.240 -0.3432 -3.0112 -3.2838
  330MOL0     H44532  13.641   7.602  11.517 -3.6784 -0.3793  2.0082
  330MOL0     H44533  13.455   7.684  11.418  0.5005 -0.4344  1.4172
  330MOL0     H44534  13.164   7.423  11.055 -0.0442 -0.1313  1.8197
  330MOL0     H44535  12.978   7.425  10.897  1.1636 -1.3422  1.7366
  330MOL0     H44536  11.839   6.418   9.909 -0.0037 -1.3022 -0.1468
  330MOL0     H44537  11.616   6.521   9.872  1.8102  2.0427 -1.2394
  330MOL0     H44538  11.130   6.446   9.839 -1.8169 -0.5978 -0.8309
  330MOL0     H44539  10.890   6.536   9.860 -1.3049  2.0988 -0.2269
  330MOL0     H44540  10.672   6.671   9.901 -1.3406 -0.7817  0.3470
  330MOL0     H44541  10.705   6.573  10.048  0.1766  0.9573  3.8444
  330MOL0     H44542  10.563   6.849  10.047 -5.1016 -0.6444 -1.7785
  330MOL0     H44543  10.579   6.739  10.187 -2.1677  0.3515  1.1540
  330MOL0     H44544  10.411   6.595  10.089 -4.2891  2.2377 -0.5762
  330MOL0     H44545  10.454   6.642   9.924 -3.9220  1.2816 -1.2563
  330MOL0     H44546  10.350   6.859   9.973  1.9543 -1.3879 -0.8189
  330MOL0     H44547  10.305   6.805  10.135  1.4490  1.8886 -0.2411
  330MOL0     H44548  10.000   6.627   9.923 -0.2702 -0.0977 -0.6853
  330MOL0     H44549  11.018   6.808  10.152  1.2993 -1.4002  0.9025
  330MOL0     H44550  11.249   6.732  10.146 -0.3149 -1.8231  1.8899
  331MOL0     O44551   0.012   2.949   6.848 -0.1097  0.4840  0.4642
  331MOL0     C44552  -0.063   2.903   6.941 -0.9804  0.5887  0.4691
  331MOL0     O44553  -0.148   2.797   6.918 -0.1034  0.9987 -0.1421
  331MOL0     C44554  -0.190   2.761   6.795 -0.6979  0.3139 -1.0732
  331MOL0     C44555  -0.207   2.620   6.783  0.8590 -0.8821  0.0966
  331MOL0     C44556  -0.237   2.559   6.661 -0.3495  0.7469  1.0508
  331MOL0     C44557  -0.232   2.638   6.545 -1.0445  0.3289 -1.1857
  331MOL0     O44558  -0.249   2.586   6.420 -0.1386  0.1824  0.2544
  331MOL0     C44559  -0.246   2.447   6.396 -0.2067 -0.5899 -0.4757
  331MOL0     C44560  -0.205   2.421   6.248  0.6648  0.2170  0.2151
  331MOL0     C44561  -0.316   2.459   6.149  0.0888  0.0444 -0.5291
  331MOL0     C44562  -0.268   2.428   6.002 -0.0931 -0.8397  0.3029
  331MOL0     C44563  -0.274   2.279   5.957 -0.2346  0.9959 -0.1764
  331MOL0     C44564  -0.239   2.248   5.799 -0.5184  0.1222  0.2451
  331MOL0     C44565  -0.343   2.319   5.717 -0.1715 -0.1537  0.2027
  331MOL0     C44566  -0.297   2.448   5.653  0.1734  0.6049  0.2474
  331MOL0     N44567  -0.276   2.453   5.510  0.4259 -0.3042  0.0537
  331MOL0     C44568  -0.233   2.351   5.433 -0.5836 -0.3102 -0.2835
  331MOL0     C44569  -0.231   2.415   5.308  0.7430  0.2255 -0.5698
  331MOL0     C44570  -0.188   2.353   5.179 -0.4728 -0.0390 -0.0682
  331MOL0     C44571  -0.294   2.254   5.127 -0.9812 -0.9470 -0.0261
  331MOL0     C44572  -0.286   2.126   5.203 -0.0393 -0.6364  0.1820
  331MOL0     C44573  -0.367   2.013   5.148  0.1001  0.8413  0.2841
  331MOL0     O44574  -0.295   1.948   5.038  0.5032  0.3724  0.1302
  331MOL0     C44575  -0.355   1.930   4.916 -0.1407  0.3975  0.5455
  331MOL0     C44576  -0.273   1.919   4.803 -0.3624  1.4946  0.3617
  331MOL0     C44577  -0.323   1.907   4.670 -0.0394  2.0318 -0.7849
  331MOL0     C44578  -0.218   1.928   4.564  0.7183 -0.5520 -0.3312
  331MOL0     C44579  -0.463   1.890   4.644  0.1484  0.3465  1.1463
  331MOL0     C44580  -0.516   1.878   4.503 -0.3449 -0.2720 -0.6688
  331MOL0     O44581  -0.649   1.907   4.487 -0.0002  0.7633  0.3138
  331MOL0     C44582  -0.690   1.946   4.361  0.3767  0.1297 -0.1841
  331MOL0     C44583  -0.627   2.050   4.298 -0.3103 -0.8370 -0.5592
  331MOL0     C44584  -0.674   2.095   4.183 -0.6157  1.1783  0.6405
  331MOL0     C44585  -0.780   2.046   4.117 -0.1360  0.4806  0.2453
  331MOL0     O44586  -0.817   2.102   4.001  0.0518 -0.1822 -0.3523
  331MOL0     C44587  -0.863   2.013   3.895  0.2565 -0.4279 -0.1783
  331MOL0     C44588  -0.965   2.086   3.797 -0.5170 -0.1164 -0.4644
  331MOL0     C44589  -0.899   2.215   3.736 -0.8242 -0.1526  0.2246
  331MOL0     C44590  -0.992   2.309   3.653  0.4858  0.0196 -0.2295
  331MOL0     C44591  -0.905   2.408   3.592  0.0320 -0.6455  0.4424
  331MOL0     C44592  -0.976   2.539   3.551 -0.6477 -0.3479 -0.3173
  331MOL0     C44593  -1.107   2.526   3.463 -0.0581 -0.4842 -0.0678
  331MOL0     C44594  -1.165   2.664   3.431 -0.1966  0.0328  0.2105
  331MOL0    Cl44595  -1.294   2.637   3.306  0.3222  0.4546  0.2997
  331MOL0     C44596  -0.849   1.941   4.181  0.1103  0.1299  0.1770
  331MOL0     C44597  -0.808   1.890   4.298 -0.7469 -0.2160  0.7125
  331MOL0     O44598  -0.443   1.846   4.415 -0.0088  0.3945  0.5285
  331MOL0     C44599  -0.546   1.903   4.762 -1.3901  0.6202  0.5623
  331MOL0     C44600  -0.490   1.924   4.886  0.1181 -0.9780  0.9990
  331MOL0     N44601  -0.282   2.537   5.312 -0.8259  0.1291  0.8537
  331MOL0     N44602  -0.312   2.563   5.429 -0.4055  0.0701 -0.4696
  331MOL0     C44603  -0.233   2.780   6.564  0.3175 -0.3622  0.2640
  331MOL0     C44604  -0.209   2.835   6.690 -0.5773 -0.5743 -0.4249
  331MOL0     C44605  -0.031   2.945   7.079  0.3445 -0.1902  0.5131
  331MOL0     C44606  -0.100   2.894   7.196  0.3686  0.6136  1.2723
  331MOL0     C44607  -0.082   2.949   7.315  0.0765 -0.7988  0.2071
  331MOL0     C44608   0.020   3.044   7.342 -0.0078 -0.7290  0.0271
  331MOL0     O44609   0.041   3.096   7.472 -0.0836 -0.1767 -0.3607
  331MOL0     C44610  -0.058   3.074   7.574  0.8450  0.1577  1.0845
  331MOL0     C44611   0.003   3.146   7.702  0.0881 -0.9936  0.5288
  331MOL0     C44612  -0.093   3.267   7.723  0.2402  0.3332 -0.3542
  331MOL0     C44613  -0.060   3.324   7.861 -0.4464  0.0871 -0.0079
  331MOL0     C44614   0.080   3.371   7.884  0.5291  0.0446  0.3675
  331MOL0     C44615   0.197   3.391   7.898  0.4833 -0.4177 -0.3853
  331MOL0     C44616   0.097   3.085   7.234 -0.3531  1.1240  0.4374
  331MOL0     C44617   0.070   3.034   7.107 -0.8030 -0.0681  0.0223
  331MOL0     H44618  -0.200   2.557   6.871 -2.5268  1.6184  2.4527
  331MOL0     H44619  -0.249   2.451   6.660  1.7974  0.4086 -2.0934
  331MOL0     H44620  -0.165   2.402   6.455  0.4689 -1.4513 -1.9856
  331MOL0     H44621  -0.344   2.411   6.426 -1.0163  2.4729  0.9656
  331MOL0     H44622  -0.118   2.483   6.224  0.0333  0.4904 -1.5103
  331MOL0     H44623  -0.188   2.315   6.227  0.5583  0.8177 -3.6363
  331MOL0     H44624  -0.412   2.410   6.168  1.1340 -2.6705 -1.7918
  331MOL0     H44625  -0.335   2.567   6.153  0.7147  0.1816 -1.0883
  331MOL0     H44626  -0.335   2.480   5.933 -1.5688 -3.3244 -0.2695
  331MOL0     H44627  -0.172   2.469   5.969 -0.0112 -1.4902 -0.3080
  331MOL0     H44628  -0.204   2.220   6.017 -2.6604 -2.7415 -0.6705
  331MOL0     H44629  -0.367   2.235   5.993  0.2576 -1.1061 -1.2706
  331MOL0     H44630  -0.135   2.267   5.769 -0.3616 -1.2704 -0.1373
  331MOL0     H44631  -0.249   2.140   5.786  2.6189 -0.2746  0.1819
  331MOL0     H44632  -0.361   2.254   5.631 -0.2869  0.7576 -0.4724
  331MOL0     H44633  -0.435   2.346   5.769  1.4144  2.3973  1.9085
  331MOL0     H44634  -0.203   2.473   5.703  0.1304  3.7999 -1.0583
  331MOL0     H44635  -0.355   2.534   5.689 -1.6091 -1.7744  3.7275
  331MOL0     H44636  -0.192   2.254   5.459  0.8695  0.3114 -0.1727
  331MOL0     H44637  -0.163   2.431   5.106  1.3465 -2.0118 -1.6882
  331MOL0     H44638  -0.090   2.308   5.199 -2.1293 -4.4212 -0.6181
  331MOL0     H44639  -0.283   2.236   5.020  6.5012  0.7131 -0.0996
  331MOL0     H44640  -0.398   2.284   5.146 -0.1058  0.8329  2.4612
  331MOL0     H44641  -0.317   2.162   5.302  1.9033  2.4345 -0.1994
  331MOL0     H44642  -0.183   2.092   5.217  0.5268  1.0026  0.1837
  331MOL0     H44643  -0.468   2.049   5.126 -0.2463  0.5343  1.2993
  331MOL0     H44644  -0.368   1.940   5.229 -2.8590  1.0325  0.5176
  331MOL0     H44645  -0.166   1.927   4.821  0.0628  2.5060 -2.2585
  331MOL0     H44646  -0.118   1.951   4.603  1.6790  0.5553 -3.1598
  331MOL0     H44647  -0.205   1.835   4.508 -0.9694 -1.1588  0.2074
  331MOL0     H44648  -0.251   2.001   4.490 -2.9582 -1.7257 -0.0397
  331MOL0     H44649  -0.539   2.099   4.340  0.7320 -0.5871 -2.8335
  331MOL0     H44650  -0.624   2.176   4.130 -0.1768 -0.4275 -1.5596
  331MOL0     H44651  -0.769   1.978   3.851 -0.9107 -1.5514 -1.9053
  331MOL0     H44652  -0.911   1.920   3.926 -0.1455  0.4985  2.1879
  331MOL0     H44653  -0.988   2.017   3.715 -1.7173 -1.8290  1.2396
  331MOL0     H44654  -1.050   2.125   3.853 -1.3706 -2.6793  0.1586
  331MOL0     H44655  -0.819   2.162   3.684 -0.9899 -1.6154  1.3968
  331MOL0     H44656  -0.853   2.276   3.814 -0.3306 -2.2999  1.7197
  331MOL0     H44657  -1.048   2.259   3.574 -1.1238  4.3582 -2.1608
  331MOL0     H44658  -1.066   2.356   3.719  0.3218 -2.3794  1.4177
  331MOL0     H44659  -0.844   2.366   3.513  2.2298  1.6479  0.8114
  331MOL0     H44660  -0.836   2.442   3.670 -0.9493 -0.6541  1.3389
  331MOL0     H44661  -1.012   2.577   3.647  2.9979  1.9117  0.3646
  331MOL0     H44662  -0.920   2.621   3.505 -3.9925  2.6062  0.4267
  331MOL0     H44663  -1.184   2.470   3.518 -0.0999  2.5108  3.2573
  331MOL0     H44664  -1.076   2.478   3.370 -1.0844  1.9857 -1.7907
  331MOL0     H44665  -1.096   2.731   3.378 -1.2722 -0.5107 -1.9724
  331MOL0     H44666  -1.215   2.707   3.518 -1.0360  1.5100 -0.9430
  331MOL0     H44667  -0.943   1.905   4.141 -0.2238  1.5643 -0.4013
  331MOL0     H44668  -0.861   1.819   4.360 -0.3095  1.7309  3.4465
  331MOL0     H44669  -0.653   1.885   4.761 -0.9667 -2.4039  0.0925
  331MOL0     H44670  -0.555   1.923   4.973  0.4396  1.5061  1.3493
  331MOL0     H44671  -0.255   2.841   6.477 -0.0778  1.5884  1.6525
  331MOL0     H44672  -0.201   2.942   6.702 -2.6339  0.2066 -4.2644
  331MOL0     H44673  -0.185   2.827   7.188  0.2314  0.9980 -4.0654
  331MOL0     H44674  -0.167   2.917   7.375 -2.3464 -0.0314 -2.5594
  331MOL0     H44675  -0.156   3.114   7.546 -0.3211 -4.3616 -2.6503
  331MOL0     H44676  -0.079   2.968   7.591  5.4762 -1.9981 -3.7579
  331MOL0     H44677   0.106   3.166   7.672 -0.4339  1.2101  0.0537
  331MOL0     H44678   0.000   3.073   7.784 -1.3285 -1.9785 -0.3396
  331MOL0     H44679  -0.197   3.231   7.726  0.3500  0.0691  0.6425
  331MOL0     H44680  -0.084   3.339   7.641 -0.8097  0.5480 -0.2988
  331MOL0     H44681  -0.069   3.246   7.937 -1.4286  2.0452  1.9763
  331MOL0     H44682  -0.137   3.399   7.878 -1.0606 -0.4346 -0.4206
  331MOL0     H44683   0.302   3.408   7.899  0.2977  0.8177 -0.7529
  331MOL0     H44684   0.182   3.152   7.247 -0.4751  1.0257  1.9048
  331MOL0     H44685   0.121   3.081   7.023 -4.4320  3.5572 -0.4544
  332MOL0     O44686   3.031   1.406   2.253 -0.2864 -0.1760  0.0749
  332MOL0     C44687   3.031   1.282   2.236  0.5434 -0.9122  1.3493
  332MOL0     O44688   3.120   1.218   2.157  0.0773  0.3593  0.5570
  332MOL0     C44689   3.202   1.274   2.063  0.9347  0.0821 -0.5612
  332MOL0     C44690   3.319   1.203   2.030 -0.5961  1.0436 -0.4035
  332MOL0     C44691   3.398   1.258   1.929  0.3745  1.2369  0.3444
  332MOL0     C44692   3.365   1.377   1.871 -0.3478 -0.1435 -0.6069
  332MOL0     O44693   3.449   1.434   1.774  0.1803 -0.2879 -0.1385
  332MOL0     C44694   3.593   1.444   1.807  0.4285  0.7724 -0.2765
  332MOL0     C44695   3.626   1.584   1.837  0.1389  0.1040 -0.9688
  332MOL0     C44696   3.781   1.613   1.842 -0.5785  0.7548 -0.2281
  332MOL0     C44697   3.811   1.762   1.868  0.1385 -0.4149  0.1239
  332MOL0     C44698   3.955   1.813   1.861 -0.3785  0.5690 -0.9686
  332MOL0     C44699   4.027   1.799   1.732  0.3545 -0.6441  0.4640
  332MOL0     C44700   4.166   1.836   1.768 -0.5096  0.3023 -0.9737
  332MOL0     C44701   4.260   1.851   1.652  1.2251 -0.5740  0.3467
  332MOL0     N44702   4.400   1.851   1.683 -0.0879 -0.1666  0.0869
  332MOL0     C44703   4.468   1.746   1.745  0.6042  0.0781 -0.8367
  332MOL0     C44704   4.594   1.791   1.763  0.3580  0.4546  0.2263
  332MOL0     C44705   4.725   1.726   1.801 -1.0287 -0.2346 -0.3720
  332MOL0     C44706   4.797   1.653   1.684 -0.4075 -0.5969  0.4013
  332MOL0     C44707   4.709   1.561   1.605  0.5139 -0.1851 -0.0353
  332MOL0     C44708   4.797   1.460   1.535 -0.3170  0.0976 -0.5436
  332MOL0     O44709   4.718   1.359   1.470 -0.1485 -0.3952  0.0941
  332MOL0     C44710   4.640   1.391   1.364 -0.1049  0.6165 -0.7160
  332MOL0     C44711   4.662   1.497   1.291 -0.4496 -1.0632 -0.2629
  332MOL0     C44712   4.581   1.524   1.182  0.5587 -0.0190 -0.3312
  332MOL0     C44713   4.597   1.660   1.110  0.4889 -0.1566 -0.1624
  332MOL0     C44714   4.476   1.433   1.154  0.4151 -1.0011  0.7942
  332MOL0     C44715   4.375   1.459   1.052  0.5072 -0.2435 -0.6663
  332MOL0     O44716   4.346   1.589   1.013 -0.1080  0.2192 -0.2602
  332MOL0     C44717   4.267   1.611   0.905  0.9703 -0.6767  0.4011
  332MOL0     C44718   4.154   1.533   0.871 -0.3946  0.3888  0.2809
  332MOL0     C44719   4.069   1.571   0.757 -0.6723  0.1344 -0.1770
  332MOL0     C44720   4.106   1.682   0.681 -0.5336  0.0551  0.2267
  332MOL0     O44721   4.042   1.716   0.563 -0.6616 -0.0640 -0.4158
  332MOL0     C44722   3.909   1.661   0.550 -0.8590  1.1980 -0.1531
  332MOL0     C44723   3.837   1.737   0.441 -0.6220 -0.0211 -1.0008
  332MOL0     C44724   3.888   1.703   0.301  0.1797  0.9280 -0.7399
  332MOL0     C44725   3.778   1.736   0.194  0.5960  0.1062 -0.5244
  332MOL0     C44726   3.838   1.696   0.063  0.1579  0.0460 -0.3703
  332MOL0     C44727   3.754   1.754  -0.042 -0.1350 -0.4278  0.4767
  332MOL0     C44728   3.807   1.710  -0.189  0.0377  0.8304  0.0846
  332MOL0     C44729   3.805   1.558  -0.211 -0.6155 -0.3018  0.0945
  332MOL0    Cl44730   3.634   1.508  -0.165 -0.1625  0.2601 -0.0562
  332MOL0     C44731   4.223   1.751   0.711  1.3613 -0.4009  0.3449
  332MOL0     C44732   4.289   1.722   0.831  0.9846  0.2350  0.5460
  332MOL0     O44733   4.335   1.355   0.994 -0.2262  0.2954  0.0689
  332MOL0     C44734   4.468   1.319   1.229 -0.0162  0.2538  0.3086
  332MOL0     C44735   4.552   1.289   1.327 -0.1465  0.0278 -0.3642
  332MOL0     N44736   4.603   1.917   1.705 -0.3379  0.0303 -0.2434
  332MOL0     N44737   4.491   1.952   1.670  0.6836 -0.4164 -0.9656
  332MOL0     C44738   3.252   1.448   1.897  0.6804  0.1978 -0.7346
  332MOL0     C44739   3.173   1.400   2.005 -0.6637  0.8477  0.1267
  332MOL0     C44740   2.958   1.217   2.342  0.1639 -0.2459 -0.0237
  332MOL0     C44741   2.856   1.275   2.412 -0.0050 -0.0866 -0.1984
  332MOL0     C44742   2.792   1.217   2.523  0.0385  0.1749  1.3575
  332MOL0     C44743   2.829   1.084   2.558 -0.5283  0.0571  0.0098
  332MOL0     O44744   2.782   1.031   2.677  0.0045 -0.1079  0.2809
  332MOL0     C44745   2.659   1.078   2.741 -0.4850  0.1389  0.8229
  332MOL0     C44746   2.541   1.042   2.657  0.5046  0.0599 -0.1611
  332MOL0     C44747   2.532   0.891   2.633 -0.1292  0.2493 -0.1062
  332MOL0     C44748   2.513   0.818   2.766  0.2193 -0.2877  0.5398
  332MOL0     C44749   2.495   0.673   2.740  0.5714  0.2374 -0.2234
  332MOL0     C44750   2.503   0.557   2.711  0.6837  0.4073 -0.5663
  332MOL0     C44751   2.919   1.021   2.481  0.1158 -0.1394  0.3195
  332MOL0     C44752   2.985   1.084   2.377 -0.7639 -0.0054  0.1889
  332MOL0     H44753   3.360   1.118   2.084 -1.0515 -1.4509 -3.7092
  332MOL0     H44754   3.490   1.205   1.906  0.6816  2.0879 -0.4258
  332MOL0     H44755   3.616   1.378   1.892 -0.7560 -1.1064 -1.3430
  332MOL0     H44756   3.646   1.406   1.719 -0.2735 -0.9984  0.0220
  332MOL0     H44757   3.579   1.644   1.759 -3.2785 -1.4992 -0.3041
  332MOL0     H44758   3.587   1.609   1.936 -0.9360  0.9438 -1.5875
  332MOL0     H44759   3.836   1.543   1.906 -0.8756 -1.5562 -2.3217
  332MOL0     H44760   3.812   1.591   1.740 -3.3831  0.2181 -1.0579
  332MOL0     H44761   3.755   1.821   1.794  2.0113  1.4457  0.1075
  332MOL0     H44762   3.771   1.796   1.964  4.6305  3.4111  0.9560
  332MOL0     H44763   3.943   1.915   1.899  3.0136  0.5251  0.6121
  332MOL0     H44764   4.001   1.754   1.942  3.3503  3.6213 -0.5578
  332MOL0     H44765   4.027   1.700   1.686  1.9290  0.5962 -2.4798
  332MOL0     H44766   3.994   1.867   1.652  1.1997  0.2983  0.8903
  332MOL0     H44767   4.162   1.929   1.826 -0.6361 -0.4865  0.3380
  332MOL0     H44768   4.198   1.753   1.833  0.6830  1.0618 -0.5595
  332MOL0     H44769   4.224   1.938   1.596  0.0665 -1.4382 -0.2991
  332MOL0     H44770   4.242   1.772   1.578 -2.1024 -0.4160  0.8536
  332MOL0     H44771   4.437   1.644   1.761  0.7799  0.2860  1.0911
  332MOL0     H44772   4.794   1.799   1.844  2.6738 -1.5748 -3.4012
  332MOL0     H44773   4.705   1.647   1.874 -0.3491 -0.4809 -0.4403
  332MOL0     H44774   4.879   1.601   1.734 -2.9840 -3.3589  2.0966
  332MOL0     H44775   4.830   1.736   1.621  0.3904 -1.5110 -0.4141
  332MOL0     H44776   4.643   1.616   1.538  2.2754  2.3623  0.1541
  332MOL0     H44777   4.636   1.513   1.670 -3.0104  1.1305 -2.7155
  332MOL0     H44778   4.850   1.401   1.611 -0.3188  0.4259 -0.2872
  332MOL0     H44779   4.864   1.507   1.462  0.2717  0.1849  0.0437
  332MOL0     H44780   4.740   1.571   1.307 -3.5357  2.1730  1.2760
  332MOL0     H44781   4.691   1.708   1.137  1.9868 -2.4635 -0.9745
  332MOL0     H44782   4.590   1.647   1.001  1.2700 -1.7498 -0.0503
  332MOL0     H44783   4.513   1.723   1.140  1.1619  0.4128  0.5513
  332MOL0     H44784   4.118   1.459   0.941 -1.3633 -0.2215 -0.8428
  332MOL0     H44785   3.977   1.518   0.734 -1.7054  1.4704  0.7587
  332MOL0     H44786   3.923   1.554   0.540  2.0950  1.1070  3.2056
  332MOL0     H44787   3.845   1.677   0.637 -2.7743 -3.1671 -0.4931
  332MOL0     H44788   3.728   1.734   0.447 -0.7931  2.1947 -1.9327
  332MOL0     H44789   3.847   1.843   0.467 -2.6250 -0.4245  2.0360
  332MOL0     H44790   3.912   1.596   0.292  1.7729  1.3806 -2.6492
  332MOL0     H44791   3.988   1.747   0.290  2.9590 -3.5116  2.7989
  332MOL0     H44792   3.688   1.681   0.222  0.6167  0.8216  1.0996
  332MOL0     H44793   3.760   1.843   0.212  2.6546  0.3087  0.6084
  332MOL0     H44794   3.838   1.587   0.071 -1.3295  0.1573  2.2819
  332MOL0     H44795   3.937   1.743   0.059 -0.3698  1.2285 -0.0879
  332MOL0     H44796   3.653   1.717  -0.027  0.1625 -1.8731 -0.8383
  332MOL0     H44797   3.745   1.863  -0.031 -0.1488 -0.6670  4.3152
  332MOL0     H44798   3.914   1.732  -0.199  0.7042 -2.2492 -0.8563
  332MOL0     H44799   3.761   1.755  -0.277 -2.0909 -2.4297 -0.6715
  332MOL0     H44800   3.872   1.517  -0.135 -0.8849 -1.4190 -0.2453
  332MOL0     H44801   3.832   1.523  -0.312  1.3390  0.7560  0.2031
  332MOL0     H44802   4.258   1.829   0.645 -0.8213 -0.6806 -1.2154
  332MOL0     H44803   4.376   1.778   0.862 -0.1785  1.5102  1.6741
  332MOL0     H44804   4.387   1.251   1.206 -3.6157  4.5478 -1.2201
  332MOL0     H44805   4.535   1.194   1.378 -0.5802 -1.2409 -2.7348
  332MOL0     H44806   3.224   1.537   1.842  0.9363 -0.1843 -1.4938
  332MOL0     H44807   3.085   1.459   2.028 -0.2032  0.9707  1.6674
  332MOL0     H44808   2.812   1.369   2.378 -1.2494 -0.3973  0.4656
  332MOL0     H44809   2.720   1.277   2.578  2.0316  1.2787  2.8901
  332MOL0     H44810   2.655   1.037   2.842 -1.0975  2.5154  1.8296
  332MOL0     H44811   2.673   1.184   2.764  5.5417  0.2738 -1.5628
  332MOL0     H44812   2.557   1.095   2.563  2.2012 -0.3054 -0.1141
  332MOL0     H44813   2.450   1.082   2.703  1.0071  1.7516 -0.5514
  332MOL0     H44814   2.626   0.857   2.589 -0.4366 -0.1405 -0.4646
  332MOL0     H44815   2.449   0.878   2.563 -0.2623  2.8425 -0.5456
  332MOL0     H44816   2.420   0.846   2.817  0.4540  0.4938  0.5637
  332MOL0     H44817   2.600   0.830   2.831 -1.0504  1.1669  2.0841
  332MOL0     H44818   2.509   0.455   2.680  0.6920  0.4936 -0.8612
  332MOL0     H44819   2.941   0.916   2.496 -1.5404 -1.5206 -4.7316
  332MOL0     H44820   3.067   1.037   2.323 -0.3295  0.7162  0.2028
  333MOL0     O44821   6.654   6.704   9.074  0.4373  0.8867  0.2652
  333MOL0     C44822   6.739   6.632   9.010  1.1819 -0.7359 -0.9377
  333MOL0     O44823   6.717   6.499   8.979  0.7045 -0.5916 -0.0459
  333MOL0     C44824   6.588   6.449   8.995 -0.1702 -0.8654 -0.5223
  333MOL0     C44825   6.504   6.461   9.107 -0.7524 -1.0869  0.6629
  333MOL0     C44826   6.381   6.403   9.101 -0.6742  1.1477 -0.6239
  333MOL0     C44827   6.329   6.329   8.998 -0.2582  0.3584  0.1481
  333MOL0     O44828   6.203   6.276   9.003  0.9042  0.3785  0.0017
  333MOL0     C44829   6.126   6.260   8.882 -0.2769  0.3127 -0.6280
  333MOL0     C44830   5.991   6.193   8.908  0.0578 -0.6386 -0.8797
  333MOL0     C44831   5.896   6.286   8.983  0.5667 -0.4338  0.0562
  333MOL0     C44832   5.854   6.401   8.883  0.5471  0.6576 -0.3382
  333MOL0     C44833   5.703   6.408   8.865  0.1754  0.6251 -0.0392
  333MOL0     C44834   5.637   6.469   8.994 -0.5673  0.4362  0.0076
  333MOL0     C44835   5.487   6.452   8.975 -0.6256  0.8099 -0.0805
  333MOL0     C44836   5.430   6.539   8.865  0.4689  0.1670 -0.1320
  333MOL0     N44837   5.282   6.558   8.891  0.1147  0.4057  0.9013
  333MOL0     C44838   5.181   6.504   8.811  0.3141  0.0149 -0.2355
  333MOL0     C44839   5.071   6.565   8.851  0.3723  0.4468 -0.2215
  333MOL0     C44840   4.927   6.522   8.827  0.6632 -0.0423  0.2447
  333MOL0     C44841   4.908   6.362   8.841  0.0139  0.1489  0.8704
  333MOL0     C44842   4.899   6.295   8.973 -0.5037 -1.0525 -0.0158
  333MOL0     C44843   5.023   6.306   9.072 -0.0322 -0.1212 -0.0261
  333MOL0     O44844   5.017   6.202   9.165  1.0257  0.9263 -0.5032
  333MOL0     C44845   5.116   6.182   9.253 -0.0216  0.1332  0.1539
  333MOL0     C44846   5.210   6.279   9.290 -0.8044  0.4052  0.5027
  333MOL0     C44847   5.329   6.254   9.354 -0.3886 -0.1884  0.3581
  333MOL0     C44848   5.427   6.371   9.369 -0.4495 -0.5797  0.4472
  333MOL0     C44849   5.359   6.121   9.386 -0.4902  1.0095  0.4797
  333MOL0     C44850   5.491   6.084   9.458 -1.1460 -0.1950 -0.6521
  333MOL0     O44851   5.508   5.956   9.470  0.7631 -0.3671  0.3388
  333MOL0     C44852   5.587   5.914   9.576  0.2680  0.1675  0.6036
  333MOL0     C44853   5.725   5.951   9.595  0.7019 -0.1320  0.8964
  333MOL0     C44854   5.805   5.898   9.684 -0.8273 -0.4046 -0.0922
  333MOL0     C44855   5.770   5.796   9.775  0.4666  0.1250  0.2757
  333MOL0     O44856   5.857   5.724   9.837  0.8199 -0.6862  0.2043
  333MOL0     C44857   5.838   5.591   9.891  0.2130 -1.2746 -0.2120
  333MOL0     C44858   5.962   5.540   9.966  0.2994 -0.0821  0.3754
  333MOL0     C44859   5.974   5.621  10.099  0.2568 -0.1740  0.0203
  333MOL0     C44860   6.081   5.550  10.175  0.0437  0.4557  0.1032
  333MOL0     C44861   6.116   5.626  10.302 -0.1808  0.7287  0.2511
  333MOL0     C44862   6.214   5.552  10.384  0.1018  0.6461  0.1820
  333MOL0     C44863   6.147   5.511  10.510 -0.9934 -0.3654 -0.1163
  333MOL0     C44864   6.242   5.427  10.588 -0.3676 -0.8410 -1.2161
  333MOL0    Cl44865   6.380   5.532  10.653 -0.2664 -0.6998  0.3711
  333MOL0     C44866   5.640   5.761   9.769  0.0893  0.1542  0.2074
  333MOL0     C44867   5.541   5.822   9.663 -0.5754  0.9351 -0.5734
  333MOL0     O44868   5.548   6.164   9.537  0.6327 -0.1177 -0.2751
  333MOL0     C44869   5.257   6.020   9.368 -0.0737  0.2765 -0.1004
  333MOL0     C44870   5.137   6.053   9.301 -0.1469 -0.8357 -0.1815
  333MOL0     N44871   5.108   6.651   8.952 -0.5189 -0.0231 -1.1393
  333MOL0     N44872   5.234   6.645   8.978  0.4870 -0.4680  0.5972
  333MOL0     C44873   6.416   6.327   8.887 -0.2536  1.1904  0.1363
  333MOL0     C44874   6.538   6.385   8.888  0.6893 -0.0831 -0.4706
  333MOL0     C44875   6.870   6.686   8.982  0.4774  0.7150 -0.5012
  333MOL0     C44876   6.923   6.802   9.048 -0.1435  0.1562  0.7471
  333MOL0     C44877   7.048   6.843   9.004 -0.4555  0.3484  0.3488
  333MOL0     C44878   7.120   6.779   8.904  0.3399 -0.6895 -0.2647
  333MOL0     O44879   7.245   6.827   8.877 -0.2338  0.6607 -0.3318
  333MOL0     C44880   7.291   6.822   8.742 -0.6489  0.4032  0.2848
  333MOL0     C44881   7.334   6.970   8.711  0.1752  0.4970 -0.0398
  333MOL0     C44882   7.222   7.049   8.641 -0.2000  0.3137  0.3487
  333MOL0     C44883   7.093   7.067   8.732  1.3631 -0.4056 -0.1520
  333MOL0     C44884   7.022   7.190   8.687 -0.7503 -0.2477 -0.5897
  333MOL0     C44885   6.966   7.298   8.676  0.1009  0.3444  0.2588
  333MOL0     C44886   7.064   6.674   8.842  0.2875  0.8754  0.3807
  333MOL0     C44887   6.941   6.624   8.879  0.3911  0.4712 -0.6002
  333MOL0     H44888   6.541   6.521   9.190 -0.7025  2.6150 -1.8015
  333MOL0     H44889   6.319   6.413   9.190  1.4005  0.1750  1.0111
  333MOL0     H44890   6.110   6.363   8.848  0.9808  0.3923 -1.0235
  333MOL0     H44891   6.176   6.207   8.801 -3.0836 -0.2841 -2.0911
  333MOL0     H44892   5.949   6.152   8.815 -0.5176  0.1499 -0.9737
  333MOL0     H44893   6.013   6.104   8.968  4.1281 -0.7071 -2.1147
  333MOL0     H44894   5.809   6.227   9.014  1.2096 -0.3348  2.1972
  333MOL0     H44895   5.942   6.317   9.077  0.1223 -1.5842  0.6685
  333MOL0     H44896   5.894   6.497   8.917  0.1207  0.4400  0.8433
  333MOL0     H44897   5.889   6.378   8.782  0.5980 -0.5468 -0.0616
  333MOL0     H44898   5.679   6.469   8.778  0.8471  0.3126 -0.4484
  333MOL0     H44899   5.667   6.307   8.843  0.7994  0.6120 -1.0543
  333MOL0     H44900   5.661   6.414   9.085 -3.9237 -2.3187 -0.5032
  333MOL0     H44901   5.678   6.569   9.004 -0.1227  0.0895  2.0280
  333MOL0     H44902   5.465   6.346   8.964 -0.2369  0.6825  0.3312
  333MOL0     H44903   5.446   6.502   9.063 -0.1140 -0.5581  0.9678
  333MOL0     H44904   5.436   6.487   8.769 -3.0460 -1.5282  0.4185
  333MOL0     H44905   5.483   6.635   8.865  1.7181 -0.4953  1.6380
  333MOL0     H44906   5.205   6.438   8.729  0.3108 -2.1428  1.4166
  333MOL0     H44907   4.872   6.572   8.907  2.4905  1.4311  0.6716
  333MOL0     H44908   4.879   6.568   8.740 -0.8477 -0.0624  1.0361
  333MOL0     H44909   4.992   6.312   8.792 -0.1597 -1.4526  2.1289
  333MOL0     H44910   4.815   6.341   8.786  0.2423  2.6661 -0.6642
  333MOL0     H44911   4.874   6.189   8.966 -3.3995 -0.5148  0.9206
  333MOL0     H44912   4.805   6.337   9.009  1.6859  1.8074  2.9830
  333MOL0     H44913   5.034   6.405   9.115  0.9681  1.5577 -3.7357
  333MOL0     H44914   5.108   6.282   9.007  0.2760  3.1777 -1.0314
  333MOL0     H44915   5.182   6.378   9.257  1.1699  0.4634 -1.2183
  333MOL0     H44916   5.468   6.398   9.467 -2.1384  0.3029  0.9588
  333MOL0     H44917   5.513   6.335   9.312 -0.7352 -0.9946  0.2735
  333MOL0     H44918   5.396   6.459   9.313 -1.5830  1.5243  4.0256
  333MOL0     H44919   5.758   6.025   9.524  0.3453 -2.2352 -1.6167
  333MOL0     H44920   5.908   5.930   9.673 -1.1445  0.7236  0.0792
  333MOL0     H44921   5.750   5.587   9.957 -0.1909 -1.7287 -0.7671
  333MOL0     H44922   5.827   5.518   9.811 -2.7570  0.0528 -1.1786
  333MOL0     H44923   5.947   5.436   9.996 -3.1117  0.1884  0.0381
  333MOL0     H44924   6.052   5.549   9.905 -0.4757  0.7668 -0.6779
  333MOL0     H44925   5.878   5.606  10.149  1.2881 -1.9565  1.6061
  333MOL0     H44926   5.999   5.726  10.080 -0.8856 -0.2301 -2.1704
  333MOL0     H44927   6.041   5.451  10.197 -1.0062 -0.2795 -4.2390
  333MOL0     H44928   6.170   5.535  10.112 -0.7561  0.8084 -1.1510
  333MOL0     H44929   6.028   5.668  10.352 -0.2658  1.1307 -0.2276
  333MOL0     H44930   6.161   5.721  10.274 -1.6267  2.0384  2.1203
  333MOL0     H44931   6.252   5.461  10.335 -1.6238 -1.6426  2.8028
  333MOL0     H44932   6.305   5.611  10.395  0.9336 -0.9439  2.6316
  333MOL0     H44933   6.058   5.453  10.483 -0.4856 -0.5961 -1.3487
  333MOL0     H44934   6.112   5.596  10.570 -1.9959 -1.8874  1.5743
  333MOL0     H44935   6.272   5.352  10.515  3.4685  1.0795 -1.8829
  333MOL0     H44936   6.193   5.388  10.678  0.2944 -3.3280 -1.8564
  333MOL0     H44937   5.601   5.701   9.850 -2.9417  1.1757 -0.3584
  333MOL0     H44938   5.434   5.804   9.654 -0.8232  1.7863  0.5507
  333MOL0     H44939   5.271   5.920   9.409 -2.3467  0.1839  0.5698
  333MOL0     H44940   5.066   5.971   9.299 -0.3202 -0.8166  2.1028
  333MOL0     H44941   6.401   6.272   8.794 -1.2945  0.0704  0.9197
  333MOL0     H44942   6.601   6.382   8.800 -4.0977  0.7666 -4.4015
  333MOL0     H44943   6.878   6.858   9.129  0.4515 -0.1315  1.2775
  333MOL0     H44944   7.087   6.932   9.052  2.8389 -0.4335 -0.6504
  333MOL0     H44945   7.377   6.755   8.733 -0.6253  0.5650 -0.8209
  333MOL0     H44946   7.217   6.798   8.665 -0.4601  3.4066 -0.9795
  333MOL0     H44947   7.417   6.963   8.640 -0.3353  0.1773 -0.6220
  333MOL0     H44948   7.370   7.015   8.803  1.2534  0.0141 -0.2139
  333MOL0     H44949   7.204   7.002   8.545 -0.5844  0.6822  0.2354
  333MOL0     H44950   7.264   7.147   8.616  2.0706  0.2992  3.3885
  333MOL0     H44951   7.124   7.067   8.837 -0.0040  0.0801  0.2688
  333MOL0     H44952   7.027   6.981   8.715 -2.5234  2.3421 -0.2337
  333MOL0     H44953   6.897   7.379   8.663  1.6012  1.3397 -2.3852
  333MOL0     H44954   7.122   6.639   8.757  0.2048  0.7276  0.3831
  333MOL0     H44955   6.917   6.538   8.818  0.5336 -0.7898  1.0621
  334MOL0     O44956   0.857  10.596   6.991  0.4920  0.5492 -0.4622
  334MOL0     C44957   0.952  10.670   7.021 -0.6324 -0.0227 -0.2673
  334MOL0     O44958   1.026  10.760   6.943  0.9381  0.7328 -0.4879
  334MOL0     C44959   0.987  10.767   6.813  0.0179 -0.0743 -0.2809
  334MOL0     C44960   0.924  10.885   6.756  0.0118  0.2442  0.6909
  334MOL0     C44961   0.892  10.889   6.623  0.0697 -0.7015 -0.0404
  334MOL0     C44962   0.923  10.780   6.545  0.5057 -0.6136 -0.0375
  334MOL0     O44963   0.892  10.778   6.412  0.3286  0.0983 -0.0248
  334MOL0     C44964   0.860  10.894   6.347  0.1981 -0.2104 -0.7651
  334MOL0     C44965   0.825  10.872   6.204  0.0015  0.4125  0.4915
  334MOL0     C44966   0.679  10.870   6.171  0.3603  0.6104  0.4483
  334MOL0     C44967   0.591  10.767   6.250  0.4150 -0.7218  0.7108
  334MOL0     C44968   0.470  10.716   6.166 -0.1439  0.6418  0.4507
  334MOL0     C44969   0.374  10.830   6.133  0.4808  0.5078  0.0501
  334MOL0     C44970   0.252  10.788   6.054  0.1904  0.9194 -0.5946
  334MOL0     C44971   0.119  10.771   6.141  0.5005  0.7260  0.2638
  334MOL0     N44972   0.077  10.901   6.202 -0.5431 -0.5788  0.3021
  334MOL0     C44973  -0.021  10.922   6.294  0.6507  0.1593 -0.1481
  334MOL0     C44974  -0.043  11.057   6.300 -0.5088  0.4401  0.0568
  334MOL0     C44975  -0.158  11.118   6.384 -0.7089 -0.8217  0.3202
  334MOL0     C44976  -0.161  11.075   6.528  0.2084  0.5982 -0.1098
  334MOL0     C44977  -0.272  11.142   6.606  0.1421  0.2814 -1.1572
  334MOL0     C44978  -0.251  11.101   6.753 -0.4135 -0.3889 -0.5516
  334MOL0     O44979  -0.126  11.150   6.812  0.4357  0.3727  0.5809
  334MOL0     C44980  -0.102  11.109   6.937  0.9066  0.5422 -0.0745
  334MOL0     C44981  -0.124  11.194   7.049 -0.1258 -0.2068  0.2824
  334MOL0     C44982  -0.093  11.142   7.181  0.0380 -0.7693  0.6701
  334MOL0     C44983  -0.113  11.244   7.296  0.6083 -2.2573 -0.3387
  334MOL0     C44984  -0.036  11.013   7.194 -0.1332 -0.2798 -0.3708
  334MOL0     C44985  -0.004  10.960   7.324  0.2715  0.4097 -0.1475
  334MOL0     O44986  -0.105  10.956   7.416  0.3424  0.3710  0.7624
  334MOL0     C44987  -0.078  10.884   7.534 -0.6758  0.5130  0.7791
  334MOL0     C44988  -0.084  10.745   7.528 -0.4426 -0.7469  0.3886
  334MOL0     C44989  -0.050  10.667   7.630 -0.1357  0.4126 -0.2315
  334MOL0     C44990  -0.015  10.722   7.754  0.1117  0.1041 -0.0275
  334MOL0     O44991  -0.004  10.623   7.852 -0.5389 -0.7626  0.1969
  334MOL0     C44992   0.112  10.636   7.929 -0.4131 -0.0730  0.2934
  334MOL0     C44993   0.138  10.502   7.981 -0.1867 -0.6607 -0.0810
  334MOL0     C44994   0.285  10.490   8.034  0.8826 -0.6396 -0.9795
  334MOL0     C44995   0.290  10.519   8.183  0.0959 -0.1601  0.0932
  334MOL0     C44996   0.440  10.533   8.237 -0.2243  0.1475 -0.4663
  334MOL0     C44997   0.504  10.658   8.182 -0.0994  0.1521  0.1506
  334MOL0     C44998   0.614  10.706   8.280 -0.3718 -0.2102 -0.3677
  334MOL0     C44999   0.753  10.672   8.249  0.6793 -0.1328  0.0370
  334MOL0    Cl45000   0.803  10.501   8.280  0.1242  0.0383  0.2117
  334MOL0     C45001  -0.009  10.864   7.769 -0.2717 -0.5119  0.2410
  334MOL0     C45002  -0.035  10.942   7.659  0.2291 -0.6114  0.9954
  334MOL0     O45003   0.107  10.912   7.343  0.0814 -0.1310 -0.0722
  334MOL0     C45004  -0.006  10.942   7.076 -0.5427  0.0106 -0.8779
  334MOL0     C45005  -0.050  10.980   6.948  0.0420 -0.2048  0.4632
  334MOL0     N45006   0.036  11.122   6.203 -0.7413  0.6191  0.7578
  334MOL0     N45007   0.101  11.022   6.153  0.5742 -0.8397  0.7824
  334MOL0     C45008   0.984  10.666   6.598 -0.3015  0.2421  0.4325
  334MOL0     C45009   1.014  10.660   6.726  0.2824 -0.9143  0.3970
  334MOL0     C45010   0.983  10.671   7.169  0.8698  0.2492 -0.2412
  334MOL0     C45011   0.914  10.582   7.257  0.3522 -0.1187  0.7382
  334MOL0     C45012   0.929  10.586   7.392 -0.9320 -1.1399 -0.3537
  334MOL0     C45013   1.013  10.683   7.456 -1.0155  0.2661  0.3517
  334MOL0     O45014   1.012  10.685   7.592  0.0320 -0.4229 -0.5863
  334MOL0     C45015   1.096  10.780   7.666 -0.2874  0.6249 -0.0910
  334MOL0     C45016   1.091  10.742   7.814  0.2312 -0.0036 -0.0947
  334MOL0     C45017   1.000  10.842   7.897 -0.8222  0.1849  0.1139
  334MOL0     C45018   0.850  10.837   7.864 -0.3335 -0.3852  1.1600
  334MOL0     C45019   0.779  10.707   7.890  0.1611  0.3703  0.0404
  334MOL0     C45020   0.729  10.599   7.897 -0.2779  0.4167  0.2424
  334MOL0     C45021   1.089  10.771   7.365  0.7190  0.1576 -0.5417
  334MOL0     C45022   1.072  10.764   7.228 -0.7628  0.0730  0.5757
  334MOL0     H45023   0.902  10.978   6.808  2.6494  2.2094 -1.3881
  334MOL0     H45024   0.837  10.976   6.587  0.5265 -1.7876 -3.7951
  334MOL0     H45025   0.774  10.942   6.395  0.2334 -1.5175  0.6853
  334MOL0     H45026   0.939  10.967   6.334 -1.5301  1.5354 -2.1351
  334MOL0     H45027   0.858  10.955   6.142  0.5621 -0.3617 -0.2697
  334MOL0     H45028   0.877  10.784   6.167 -0.4371 -1.4180  3.8013
  334MOL0     H45029   0.639  10.969   6.193  1.1276  0.3781  3.3234
  334MOL0     H45030   0.676  10.841   6.066  0.1919  1.7546  0.1240
  334MOL0     H45031   0.655  10.685   6.287  2.0767  0.8549  1.5116
  334MOL0     H45032   0.556  10.809   6.345 -0.2943 -2.2938  1.1808
  334MOL0     H45033   0.502  10.669   6.072 -1.2651 -0.6159  0.6727
  334MOL0     H45034   0.419  10.632   6.214  4.6392 -1.6869  2.1427
  334MOL0     H45035   0.337  10.855   6.233  2.0712  1.7940  0.3617
  334MOL0     H45036   0.419  10.915   6.082  0.8973 -0.6658 -1.6164
  334MOL0     H45037   0.228  10.864   5.980  0.3587  0.4673 -1.1232
  334MOL0     H45038   0.263  10.695   5.998 -2.7208  0.0397  0.1292
  334MOL0     H45039   0.141  10.705   6.226  0.1946  1.0147  0.5712
  334MOL0     H45040   0.043  10.727   6.077 -2.0319 -1.0696  4.1233
  334MOL0     H45041  -0.068  10.839   6.347  0.5743  0.4144  0.1919
  334MOL0     H45042  -0.133  11.224   6.388 -0.2423 -0.8531 -1.2057
  334MOL0     H45043  -0.254  11.109   6.333 -2.3999  1.7410  2.8168
  334MOL0     H45044  -0.069  11.116   6.571  0.8714  0.7622 -1.6238
  334MOL0     H45045  -0.153  10.967   6.536  0.4507  0.6254  0.0358
  334MOL0     H45046  -0.376  11.116   6.587 -0.0435 -1.8402  1.9819
  334MOL0     H45047  -0.262  11.251   6.601  2.1332  0.5042  3.0055
  334MOL0     H45048  -0.260  10.992   6.764 -0.8927 -0.0346  4.4079
  334MOL0     H45049  -0.330  11.145   6.815  1.0029  0.5736  0.6141
  334MOL0     H45050  -0.180  11.287   7.039  2.0098  1.1526  0.2222
  334MOL0     H45051  -0.105  11.346   7.257  0.4621 -1.8599  0.6476
  334MOL0     H45052  -0.210  11.222   7.341 -0.5286  2.4671  0.0352
  334MOL0     H45053  -0.040  11.232   7.377  1.4366 -1.3970 -0.9422
  334MOL0     H45054  -0.114  10.707   7.431 -0.1050 -0.2119  0.0705
  334MOL0     H45055  -0.049  10.560   7.615  0.5564  0.3480  0.2444
  334MOL0     H45056   0.186  10.672   7.856 -1.6962  1.1146 -0.4733
  334MOL0     H45057   0.091  10.712   8.004  0.6014  0.7612 -0.2268
  334MOL0     H45058   0.068  10.471   8.059  0.3152 -1.9490 -0.1127
  334MOL0     H45059   0.131  10.430   7.899  1.2372  0.4979 -1.2573
  334MOL0     H45060   0.346  10.540   7.959 -0.9801 -0.1571 -2.2458
  334MOL0     H45061   0.313  10.385   8.047 -0.3774 -0.8772  0.1020
  334MOL0     H45062   0.246  10.615   8.210 -1.1517 -0.8975  0.7558
  334MOL0     H45063   0.241  10.443   8.244  0.6399 -0.4078  0.2283
  334MOL0     H45064   0.492  10.439   8.213 -0.8267  0.0557 -1.4509
  334MOL0     H45065   0.441  10.546   8.345  0.1137  1.3239 -0.5995
  334MOL0     H45066   0.538  10.651   8.078 -0.2976 -1.9257  0.1949
  334MOL0     H45067   0.430  10.738   8.194 -2.3581 -1.6328 -0.9392
  334MOL0     H45068   0.592  10.676   8.383 -1.1022 -1.4962 -0.8724
  334MOL0     H45069   0.606  10.815   8.280 -0.6960 -0.2309 -0.0398
  334MOL0     H45070   0.825  10.727   8.309  0.3367  0.1851  0.1570
  334MOL0     H45071   0.776  10.693   8.144  0.3652 -1.3145 -0.2933
  334MOL0     H45072   0.019  10.905   7.865  0.3111 -1.4097  0.4721
  334MOL0     H45073  -0.023  11.050   7.653 -3.3896 -0.1429 -0.5481
  334MOL0     H45074   0.028  10.839   7.077 -1.4313 -0.3461 -2.8103
  334MOL0     H45075  -0.016  10.915   6.868  2.2279  1.0915  0.2567
  334MOL0     H45076   1.011  10.589   6.527 -0.5569  1.1759 -0.6941
  334MOL0     H45077   1.081  10.582   6.761  1.8718  0.0572 -0.3711
  334MOL0     H45078   0.839  10.514   7.220 -1.4950  0.9256  2.3581
  334MOL0     H45079   0.880  10.520   7.464 -0.2396 -0.8114  0.4308
  334MOL0     H45080   1.193  10.755   7.623 -0.7512 -1.3908 -0.0946
  334MOL0     H45081   1.065  10.884   7.649 -0.3506  1.7651  5.2019
  334MOL0     H45082   1.194  10.749   7.852  2.0841  2.2946 -4.7159
  334MOL0     H45083   1.045  10.644   7.823  0.0309  0.0990  0.0076
  334MOL0     H45084   1.042  10.942   7.882  2.1179 -1.3493 -3.3821
  334MOL0     H45085   1.019  10.820   8.002  1.7478  0.9620 -0.1175
  334MOL0     H45086   0.844  10.841   7.755  0.8758 -2.3857  0.9757
  334MOL0     H45087   0.802  10.928   7.903 -4.3237 -0.4924 -2.7708
  334MOL0     H45088   0.687  10.504   7.923  1.9064  0.6169  5.8368
  334MOL0     H45089   1.170  10.831   7.404 -1.6482  1.8180  2.2922
  334MOL0     H45090   1.119  10.833   7.158 -1.3229 -0.5527 -0.4419
  335MOL0     O45091   7.639   6.649   2.332  0.2849  0.1517 -0.0790
  335MOL0     C45092   7.603   6.618   2.442 -0.6315  0.2199 -0.5018
  335MOL0     O45093   7.674   6.526   2.523  0.4832 -0.6904 -0.7241
  335MOL0     C45094   7.806   6.490   2.503 -0.4655  0.7909  0.9087
  335MOL0     C45095   7.844   6.357   2.532 -0.2748 -1.1525 -0.1827
  335MOL0     C45096   7.975   6.312   2.519 -0.1570 -0.6823  0.9687
  335MOL0     C45097   8.072   6.399   2.467 -0.2374 -0.8662 -0.2273
  335MOL0     O45098   8.198   6.344   2.458  0.1273  0.2051 -0.4051
  335MOL0     C45099   8.312   6.428   2.471 -0.1228  0.1112 -0.2372
  335MOL0     C45100   8.436   6.336   2.461 -0.7851 -0.4152  0.8031
  335MOL0     C45101   8.473   6.266   2.592 -0.1766 -0.2850 -0.4150
  335MOL0     C45102   8.389   6.133   2.623  0.8251  0.0190  0.8493
  335MOL0     C45103   8.408   6.077   2.760  0.0536  0.5568 -0.4461
  335MOL0     C45104   8.557   6.046   2.786  0.0421 -0.9803  0.1633
  335MOL0     C45105   8.556   5.983   2.928  0.1386  0.2479  0.1966
  335MOL0     C45106   8.695   5.960   2.980  0.8196  0.8523 -0.1077
  335MOL0     N45107   8.689   5.856   3.091  0.3533  0.6974 -0.1233
  335MOL0     C45108   8.737   5.724   3.059  0.0920  0.1069  0.0244
  335MOL0     C45109   8.767   5.679   3.183  0.2689  0.6430  0.8370
  335MOL0     C45110   8.841   5.547   3.194  0.0377  0.6592 -0.3622
  335MOL0     C45111   8.767   5.443   3.276  0.2140  0.5662  0.4754
  335MOL0     C45112   8.778   5.449   3.429 -0.0601 -0.2573 -0.1570
  335MOL0     C45113   8.741   5.312   3.482 -0.6474 -0.2972 -0.2371
  335MOL0     O45114   8.850   5.211   3.470 -0.3278  0.0478  0.6300
  335MOL0     C45115   8.917   5.169   3.575  0.0363 -0.1772 -0.1783
  335MOL0     C45116   8.970   5.045   3.557  0.8106 -0.3279  0.8078
  335MOL0     C45117   9.052   4.991   3.659 -0.0154 -0.2289 -0.9373
  335MOL0     C45118   9.134   4.864   3.635 -0.2809 -0.0723 -0.8695
  335MOL0     C45119   9.060   5.058   3.785 -0.2673  0.2580  0.5326
  335MOL0     C45120   9.152   5.012   3.890 -0.6642 -0.0675  0.0353
  335MOL0     O45121   9.132   4.896   3.946  0.1339  0.8892 -0.4766
  335MOL0     C45122   9.222   4.862   4.051  0.5872 -0.0550  0.1315
  335MOL0     C45123   9.298   4.746   4.040 -0.2214  0.4358 -0.7875
  335MOL0     C45124   9.353   4.696   4.161 -0.4140  0.6360  0.4038
  335MOL0     C45125   9.332   4.763   4.287 -0.5071  0.0916 -0.3174
  335MOL0     O45126   9.365   4.711   4.406 -0.3882 -0.4866  0.3979
  335MOL0     C45127   9.479   4.624   4.404  0.2073  0.3394 -0.9031
  335MOL0     C45128   9.529   4.586   4.543  0.6031 -0.0160  0.0800
  335MOL0     C45129   9.431   4.485   4.599 -0.7219  0.6008 -0.4846
  335MOL0     C45130   9.461   4.441   4.738  0.1719 -0.0270  0.2897
  335MOL0     C45131   9.605   4.391   4.751 -0.5831  0.5126 -0.4686
  335MOL0     C45132   9.629   4.324   4.894  1.3501 -0.1286  0.2103
  335MOL0     C45133   9.781   4.281   4.890 -0.5484  0.4847 -0.4170
  335MOL0     C45134   9.803   4.145   4.822  0.4131 -0.4407  0.2480
  335MOL0    Cl45135   9.857   4.152   4.649 -0.2637  0.2153  0.2563
  335MOL0     C45136   9.253   4.883   4.290 -0.6912  0.9040  0.6234
  335MOL0     C45137   9.200   4.929   4.169  0.2221 -0.2234 -0.5474
  335MOL0     O45138   9.254   5.088   3.906  0.5663  0.3089 -0.2248
  335MOL0     C45139   9.014   5.193   3.800 -0.9868  0.4926 -0.1753
  335MOL0     C45140   8.930   5.246   3.694  0.0438  0.4899  0.4389
  335MOL0     N45141   8.716   5.760   3.282  0.4113 -1.1696  0.0676
  335MOL0     N45142   8.696   5.874   3.228  0.6021  0.1434  0.1994
  335MOL0     C45143   8.036   6.530   2.440 -0.3704  0.8821  0.8689
  335MOL0     C45144   7.905   6.581   2.467 -0.9162  0.2323 -0.3360
  335MOL0     C45145   7.477   6.671   2.490  0.1860  0.3629  0.6999
  335MOL0     C45146   7.423   6.629   2.611  0.2554 -0.5483 -0.3650
  335MOL0     C45147   7.294   6.663   2.645 -0.0735 -0.2082 -0.7290
  335MOL0     C45148   7.219   6.743   2.561  0.4710 -0.3823 -0.7350
  335MOL0     O45149   7.090   6.783   2.589  0.0246 -0.4413 -0.1780
  335MOL0     C45150   7.051   6.795   2.726 -0.8621  0.4236 -0.3467
  335MOL0     C45151   6.931   6.892   2.741  0.1202  0.4032  0.4608
  335MOL0     C45152   6.973   7.029   2.693  0.6390 -0.4425  1.1679
  335MOL0     C45153   6.849   7.130   2.705 -0.4796 -0.2330 -0.3546
  335MOL0     C45154   6.757   7.108   2.592 -0.9898  0.0575  0.3773
  335MOL0     C45155   6.687   7.085   2.496 -0.0165 -0.1292  0.8833
  335MOL0     C45156   7.271   6.794   2.444 -0.0180  1.2776 -0.2440
  335MOL0     C45157   7.405   6.760   2.409  0.4183 -0.7318 -0.2186
  335MOL0     H45158   7.766   6.291   2.569  0.2659 -1.5576  0.2527
  335MOL0     H45159   7.987   6.204   2.519 -2.9509 -1.0691  2.2234
  335MOL0     H45160   8.315   6.482   2.376  0.5049 -0.4835 -0.5628
  335MOL0     H45161   8.313   6.490   2.562 -3.7679 -0.9764  0.7252
  335MOL0     H45162   8.408   6.263   2.384 -0.3248 -1.2596  1.4257
  335MOL0     H45163   8.521   6.393   2.424 -0.6086  1.2154  3.4375
  335MOL0     H45164   8.578   6.234   2.597  0.1283  0.8503  2.4908
  335MOL0     H45165   8.454   6.330   2.678  0.5600 -0.8507  0.1843
  335MOL0     H45166   8.282   6.156   2.618  1.3426  2.5814 -2.3108
  335MOL0     H45167   8.410   6.062   2.543  2.1504 -1.0521  2.0966
  335MOL0     H45168   8.376   6.141   2.843 -3.5493 -2.3076  0.5919
  335MOL0     H45169   8.342   5.991   2.769 -0.6118  1.0152 -0.8877
  335MOL0     H45170   8.599   5.989   2.703  0.8169  2.7620 -2.2249
  335MOL0     H45171   8.606   6.142   2.803 -1.3667  0.1000 -1.5570
  335MOL0     H45172   8.510   6.042   3.008  3.9770  0.4625  2.5260
  335MOL0     H45173   8.490   5.897   2.913 -0.7989  1.4095 -3.2679
  335MOL0     H45174   8.736   6.053   3.019  0.8674  0.7448  0.0939
  335MOL0     H45175   8.752   5.921   2.895  0.7836  1.8399 -0.5993
  335MOL0     H45176   8.762   5.685   2.961 -0.3164  3.3763 -1.5245
  335MOL0     H45177   8.860   5.512   3.092 -0.3285  2.1871 -0.9871
  335MOL0     H45178   8.939   5.562   3.239  0.7832 -2.7020 -0.6411
  335MOL0     H45179   8.813   5.354   3.230  1.3344  1.6292 -0.5309
  335MOL0     H45180   8.659   5.447   3.258  0.2472  1.1875  0.4038
  335MOL0     H45181   8.695   5.514   3.458 -0.2603 -1.2992  1.7724
  335MOL0     H45182   8.879   5.472   3.462  1.0794 -2.7488 -1.5644
  335MOL0     H45183   8.656   5.270   3.428 -1.3638  0.8157 -0.0035
  335MOL0     H45184   8.706   5.342   3.581  0.7638  3.2923 -0.6614
  335MOL0     H45185   8.966   5.000   3.458  0.5296  0.3212  0.5176
  335MOL0     H45186   9.210   4.848   3.711 -2.5556  0.2941  1.6017
  335MOL0     H45187   9.068   4.777   3.624 -1.7253  0.6814  1.2793
  335MOL0     H45188   9.191   4.881   3.543 -0.5459  3.1723 -0.5575
  335MOL0     H45189   9.300   4.672   3.961  2.1619 -1.9140  1.2736
  335MOL0     H45190   9.424   4.615   4.148 -0.1219  1.0008 -0.3390
  335MOL0     H45191   9.469   4.536   4.339 -2.8059  1.8106 -2.6453
  335MOL0     H45192   9.566   4.674   4.361  2.8786 -2.3559  0.9743
  335MOL0     H45193   9.633   4.564   4.521  0.1034 -0.7660 -1.7823
  335MOL0     H45194   9.518   4.675   4.607 -1.5473 -0.3811  0.3101
  335MOL0     H45195   9.421   4.392   4.543 -2.0853 -0.3849  1.2741
  335MOL0     H45196   9.333   4.531   4.614  0.0337  1.7366  1.3888
  335MOL0     H45197   9.453   4.522   4.811  1.7294 -1.6659  2.4065
  335MOL0     H45198   9.380   4.370   4.759 -0.7376  1.6944  2.9957
  335MOL0     H45199   9.674   4.475   4.743  1.2637 -1.0588 -1.8033
  335MOL0     H45200   9.620   4.313   4.676 -0.5368  0.0562  0.0054
  335MOL0     H45201   9.612   4.398   4.972 -3.2474 -2.1554  1.4603
  335MOL0     H45202   9.567   4.236   4.914 -1.8160  0.6832 -4.3203
  335MOL0     H45203   9.801   4.272   4.997 -1.3628  2.0545 -0.1094
  335MOL0     H45204   9.841   4.361   4.845 -0.9985  2.3790  2.1548
  335MOL0     H45205   9.707   4.093   4.822  1.9616 -3.5534 -1.2810
  335MOL0     H45206   9.863   4.072   4.877 -0.7756 -0.9714  0.8837
  335MOL0     H45207   9.244   4.935   4.384  2.8142  1.0038  1.0224
  335MOL0     H45208   9.132   5.014   4.174  1.2742  0.5801  1.2464
  335MOL0     H45209   9.025   5.242   3.896 -0.2133  1.9367 -0.9665
  335MOL0     H45210   8.898   5.347   3.716 -0.4598  0.3473  0.3764
  335MOL0     H45211   8.108   6.600   2.400  1.0047  1.1733  3.7001
  335MOL0     H45212   7.875   6.685   2.457 -2.0373 -0.0312  0.0674
  335MOL0     H45213   7.482   6.567   2.678  1.1135  0.2921 -0.3253
  335MOL0     H45214   7.250   6.630   2.738 -1.7428 -0.0831 -1.4448
  335MOL0     H45215   7.036   6.700   2.779 -2.2423  1.3076  0.9128
  335MOL0     H45216   7.129   6.843   2.786 -0.3540  1.1061 -1.5278
  335MOL0     H45217   6.896   6.887   2.844 -1.6729 -0.4615 -0.1358
  335MOL0     H45218   6.848   6.849   2.683 -0.2043 -0.0914  1.2749
  335MOL0     H45219   7.013   7.011   2.592 -0.9587 -4.4755  1.1040
  335MOL0     H45220   7.051   7.070   2.757  1.4726 -1.9255  1.1450
  335MOL0     H45221   6.878   7.234   2.685 -1.4113  0.1227  0.0735
  335MOL0     H45222   6.801   7.119   2.803  0.2080  3.1540  0.4957
  335MOL0     H45223   6.601   7.054   2.439 -0.3297 -2.2609  2.4223
  335MOL0     H45224   7.227   6.857   2.368  2.0321  1.5376 -1.2982
  335MOL0     H45225   7.444   6.799   2.316 -2.0697  2.1354 -0.2013
  336MOL0     O45226   9.218   8.701   6.170 -0.4915 -0.0309 -0.4544
  336MOL0     C45227   9.263   8.625   6.083 -0.0334  0.0667  0.1238
  336MOL0     O45228   9.359   8.671   5.985 -0.3860  0.3753 -1.0688
  336MOL0     C45229   9.383   8.799   5.981 -0.5629  0.3239 -0.0816
  336MOL0     C45230   9.506   8.842   6.038 -0.2434 -0.5313 -0.2101
  336MOL0     C45231   9.544   8.976   6.019 -0.1794  0.2840 -0.9659
  336MOL0     C45232   9.468   9.072   5.959 -0.5987 -0.2024  0.4489
  336MOL0     O45233   9.480   9.212   5.957  0.4972 -0.4073 -0.0465
  336MOL0     C45234   9.610   9.281   5.984 -0.0391  0.3815  0.5647
  336MOL0     C45235   9.586   9.417   5.919 -0.4685  0.5278  0.2300
  336MOL0     C45236   9.722   9.472   5.898  0.3981 -0.5637  0.2240
  336MOL0     C45237   9.740   9.626   5.941 -0.3657  0.8169 -0.6087
  336MOL0     C45238   9.886   9.663   5.942  0.8581 -0.0194 -0.0884
  336MOL0     C45239   9.888   9.806   6.001 -0.6936 -0.8523 -0.4742
  336MOL0     C45240  10.026   9.868   5.983 -1.0356 -0.5683  0.5544
  336MOL0     C45241  10.072   9.935   6.111 -0.2916  0.0007  0.0300
  336MOL0     N45242  10.207   9.987   6.087 -0.1687 -0.6229  0.2249
  336MOL0     C45243  10.231  10.107   6.031 -0.1657 -1.1539  0.8814
  336MOL0     C45244  10.360  10.110   6.012  0.0546 -0.6768 -0.2901
  336MOL0     C45245  10.433  10.228   5.953  0.0492  0.9574 -0.4383
  336MOL0     C45246  10.408  10.211   5.797  0.5090 -0.4267 -0.0397
  336MOL0     C45247  10.418  10.350   5.730 -0.3702  0.2206 -0.0894
  336MOL0     C45248  10.561  10.378   5.674  0.0080 -0.2473  0.4619
  336MOL0     O45249  10.597  10.275   5.574 -0.0522  0.4383  0.1122
  336MOL0     C45250  10.674  10.309   5.470 -0.2408  0.7300 -0.4491
  336MOL0     C45251  10.630  10.258   5.347 -0.4040 -0.8274  0.6149
  336MOL0     C45252  10.726  10.265   5.237  1.1965 -0.8732  0.6389
  336MOL0     C45253  10.674  10.204   5.103  0.0846  0.5021 -0.2720
  336MOL0     C45254  10.843  10.345   5.247 -0.3966 -1.4426 -0.0091
  336MOL0     C45255  10.926  10.388   5.134 -0.1701 -0.0129 -0.1757
  336MOL0     O45256  10.936  10.524   5.119  0.8645 -0.3011  0.4205
  336MOL0     C45257  11.001  10.585   5.013 -0.3209  0.3235 -0.7650
  336MOL0     C45258  10.958  10.685   4.925  0.1550 -0.4792 -0.4199
  336MOL0     C45259  11.044  10.731   4.826 -0.1924  0.1414 -0.4243
  336MOL0     C45260  11.175  10.677   4.798 -0.8634  0.2506  0.1473
  336MOL0     O45261  11.245  10.716   4.689 -0.4015 -0.3582 -0.3780
  336MOL0     C45262  11.316  10.844   4.717 -0.0820  0.1830  0.2554
  336MOL0     C45263  11.424  10.866   4.611 -0.5266  0.0470 -0.5564
  336MOL0     C45264  11.536  10.763   4.616 -0.3034 -0.2214  0.3479
  336MOL0     C45265  11.595  10.708   4.740  0.1389  0.4681  0.4652
  336MOL0     C45266  11.725  10.627   4.701  1.0304  0.3675 -0.2153
  336MOL0     C45267  11.791  10.569   4.821 -1.1299 -0.1264 -0.0517
  336MOL0     C45268  11.907  10.486   4.772  0.3607 -0.7026 -0.4316
  336MOL0     C45269  12.031  10.513   4.855 -0.3725 -0.3862  0.4741
  336MOL0    Cl45270  11.982  10.477   5.026  0.1557 -0.0228 -0.3528
  336MOL0     C45271  11.220  10.585   4.883 -0.0175 -0.8444 -0.6299
  336MOL0     C45272  11.141  10.546   4.998 -0.6073  0.4621 -0.7647
  336MOL0     O45273  10.970  10.301   5.056  0.1288  0.5287 -0.2380
  336MOL0     C45274  10.872  10.398   5.377 -0.5291  0.4360 -0.3584
  336MOL0     C45275  10.788  10.375   5.489  0.2891 -0.2432  0.0817
  336MOL0     N45276  10.414   9.990   6.048  0.4882 -1.0850 -0.0428
  336MOL0     N45277  10.324   9.916   6.093  0.6140  0.5200  0.5839
  336MOL0     C45278   9.341   9.026   5.917  0.1148  0.8388  0.1119
  336MOL0     C45279   9.300   8.892   5.922  0.2169 -0.1053 -0.6256
  336MOL0     C45280   9.213   8.483   6.062  0.0304  0.0402  0.8928
  336MOL0     C45281   9.123   8.432   6.158  0.2091  0.1700  0.6959
  336MOL0     C45282   9.066   8.305   6.140  0.2275  0.4864 -0.6075
  336MOL0     C45283   9.101   8.222   6.030 -0.6339 -0.0159  0.0762
  336MOL0     O45284   9.038   8.091   6.028 -0.2577  0.7671  0.1617
  336MOL0     C45285   8.916   8.093   5.966  0.0457 -0.4533  0.1348
  336MOL0     C45286   8.807   8.053   6.066  0.1820  0.4554 -0.6650
  336MOL0     C45287   8.824   7.922   6.149  0.1546 -0.1923  0.0983
  336MOL0     C45288   8.684   7.893   6.223  0.1481  0.7098  0.0856
  336MOL0     C45289   8.719   7.796   6.331 -0.8788  0.3406 -0.6283
  336MOL0     C45290   8.743   7.708   6.399 -0.7227  1.2236 -0.7947
  336MOL0     C45291   9.191   8.266   5.935 -0.7069 -0.0364  1.4628
  336MOL0     C45292   9.245   8.404   5.949 -0.7780  0.4993  0.6115
  336MOL0     H45293   9.562   8.767   6.093 -2.6511 -1.0375  1.7720
  336MOL0     H45294   9.642   9.001   6.060 -0.4632  0.7346 -0.5540
  336MOL0     H45295   9.627   9.297   6.091  0.8258  0.1178  0.4707
  336MOL0     H45296   9.683   9.219   5.932 -0.2033 -0.0112  0.7960
  336MOL0     H45297   9.527   9.411   5.827  1.0471 -2.3866 -0.6851
  336MOL0     H45298   9.542   9.487   5.990  1.9304 -0.0615  2.4758
  336MOL0     H45299   9.791   9.407   5.952 -0.0460 -1.5124 -0.3199
  336MOL0     H45300   9.733   9.460   5.790  2.7606  0.5068  0.2916
  336MOL0     H45301   9.683   9.679   5.863 -0.4491 -0.8165 -1.7057
  336MOL0     H45302   9.702   9.643   6.042 -0.5760  1.4893 -0.7929
  336MOL0     H45303   9.940   9.599   6.012 -1.0950 -0.1923  1.3636
  336MOL0     H45304   9.925   9.653   5.841  1.5490  0.4812  0.1197
  336MOL0     H45305   9.817   9.875   5.956  0.6796  0.1712 -1.1650
  336MOL0     H45306   9.854   9.797   6.104  0.4913  1.1718  0.1525
  336MOL0     H45307  10.102   9.792   5.960 -0.4064 -0.0822  0.9731
  336MOL0     H45308  10.011   9.944   5.906 -1.7319 -2.5392 -1.3531
  336MOL0     H45309  10.082   9.868   6.198 -2.8540  0.9877  1.1918
  336MOL0     H45310  10.005  10.016   6.140 -3.0105 -2.4639  1.1897
  336MOL0     H45311  10.150  10.175   6.006  1.1926 -0.0683 -0.7531
  336MOL0     H45312  10.389  10.317   5.999 -2.4125  0.9864 -2.6279
  336MOL0     H45313  10.541  10.224   5.969  0.1091  1.2643 -0.7760
  336MOL0     H45314  10.305  10.181   5.775  0.3242 -0.8369  1.2701
  336MOL0     H45315  10.479  10.135   5.765 -1.6669 -2.6702  0.1188
  336MOL0     H45316  10.365  10.428   5.786 -2.9229  0.5368 -2.7028
  336MOL0     H45317  10.356  10.346   5.640  1.5200  0.3821 -1.4685
  336MOL0     H45318  10.639  10.389   5.751 -1.1272  2.8724  1.3082
  336MOL0     H45319  10.550  10.474   5.623 -2.7260 -0.3551  0.7114
  336MOL0     H45320  10.534  10.209   5.333 -0.6334  0.1746 -1.7970
  336MOL0     H45321  10.582  10.257   5.079 -2.3071 -2.7657  0.9419
  336MOL0     H45322  10.746  10.204   5.021  0.9863  1.4368  0.4765
  336MOL0     H45323  10.636  10.104   5.125  1.2377 -0.0667 -0.8195
  336MOL0     H45324  10.859  10.730   4.936 -0.0036 -0.9758  0.2229
  336MOL0     H45325  11.009  10.815   4.766  0.2289 -2.6630 -5.1499
  336MOL0     H45326  11.252  10.933   4.723  0.6734  0.7315  0.3669
  336MOL0     H45327  11.354  10.845   4.820 -0.3633  0.7735  0.3596
  336MOL0     H45328  11.373  10.863   4.514  1.0496  1.8540 -1.5139
  336MOL0     H45329  11.459  10.969   4.626 -0.0056  0.4065 -3.6720
  336MOL0     H45330  11.628  10.811   4.580  0.3168 -0.7562  1.1638
  336MOL0     H45331  11.509  10.680   4.550 -2.6499 -0.9139  2.0497
  336MOL0     H45332  11.610  10.787   4.814 -0.0336  1.3779 -0.4513
  336MOL0     H45333  11.526  10.638   4.788  4.0566 -1.1886  4.4282
  336MOL0     H45334  11.801  10.683   4.646  1.0423 -0.7620 -1.4014
  336MOL0     H45335  11.681  10.549   4.638 -2.0871  2.0937 -0.3768
  336MOL0     H45336  11.831  10.644   4.889 -0.7100 -0.0169 -0.4204
  336MOL0     H45337  11.730  10.499   4.880 -0.0668  0.2022  1.4846
  336MOL0     H45338  11.926  10.514   4.668 -0.0350  1.7686  0.1042
  336MOL0     H45339  11.873  10.382   4.782 -0.4635 -0.4534 -0.5446
  336MOL0     H45340  12.074  10.612   4.837  3.9052 -1.7902  1.7479
  336MOL0     H45341  12.112  10.450   4.818 -2.4134 -2.0512 -1.5274
  336MOL0     H45342  11.316  10.544   4.852  0.8085  0.2799  0.3225
  336MOL0     H45343  11.189  10.467   5.054 -0.7397  0.7820 -0.1966
  336MOL0     H45344  10.967  10.447   5.394 -0.1302 -0.6551  0.6981
  336MOL0     H45345  10.824  10.403   5.587  0.5478 -2.4280  0.6456
  336MOL0     H45346   9.269   9.089   5.865  1.4421  1.6905 -0.7653
  336MOL0     H45347   9.207   8.848   5.888  0.5181 -2.2520  1.1285
  336MOL0     H45348   9.095   8.500   6.238 -1.5212  0.4847 -0.1017
  336MOL0     H45349   9.001   8.274   6.221  0.1023 -0.9704 -1.2367
  336MOL0     H45350   8.870   8.186   5.929 -1.3561 -2.1466 -2.7067
  336MOL0     H45351   8.922   8.010   5.895 -1.9460 -0.8061  0.3297
  336MOL0     H45352   8.712   8.037   6.013 -0.0326 -2.7352  0.4290
  336MOL0     H45353   8.795   8.140   6.131 -5.4450 -0.5031  0.1448
  336MOL0     H45354   8.903   7.947   6.221  1.7453 -3.1108 -0.4861
  336MOL0     H45355   8.862   7.837   6.092 -1.0432  0.0621 -1.1391
  336MOL0     H45356   8.600   7.853   6.166  1.7805  0.0102 -1.9554
  336MOL0     H45357   8.653   7.993   6.254 -1.0107  0.3863  0.0233
  336MOL0     H45358   8.792   7.635   6.460 -1.8314 -2.1254 -3.6285
  336MOL0     H45359   9.214   8.190   5.861 -1.9445  1.1798 -0.2409
  336MOL0     H45360   9.325   8.438   5.884  1.1751 -3.1218  0.8432
  337MOL0     O45361   4.949   9.873   6.899 -0.1550  0.3373  1.0062
  337MOL0     C45362   5.015   9.871   6.793  0.5774  0.3768 -0.4190
  337MOL0     O45363   4.975   9.927   6.677  0.3397  0.6208 -0.2681
  337MOL0     C45364   4.839   9.967   6.676 -0.0319  0.4430  0.6306
  337MOL0     C45365   4.724   9.900   6.719  0.5103 -0.5405 -0.2674
  337MOL0     C45366   4.590   9.961   6.691  0.1243  0.3034  0.6700
  337MOL0     C45367   4.585  10.070   6.606  0.3403 -0.7214 -0.5341
  337MOL0     O45368   4.476  10.118   6.551  0.1938 -0.7279  0.3780
  337MOL0     C45369   4.354  10.048   6.575  0.8591  0.0294  0.5318
  337MOL0     C45370   4.229  10.124   6.514 -0.1768  0.4526 -0.2076
  337MOL0     C45371   4.199  10.248   6.592  0.1183 -0.0948  0.5821
  337MOL0     C45372   4.058  10.300   6.557 -0.2756 -0.3516  0.5069
  337MOL0     C45373   4.034  10.459   6.587 -0.0063 -0.0205  0.4210
  337MOL0     C45374   3.896  10.494   6.536  0.2910 -0.1217  0.0864
  337MOL0     C45375   3.897  10.552   6.388  0.6905 -0.4970  1.0402
  337MOL0     C45376   3.789  10.649   6.353 -0.9400 -0.6118 -1.0988
  337MOL0     N45377   3.662  10.577   6.330 -0.5890 -1.0350  2.0037
  337MOL0     C45378   3.554  10.562   6.415 -0.1056  0.4977 -0.3370
  337MOL0     C45379   3.455  10.504   6.342 -0.0228  0.1802  0.1017
  337MOL0     C45380   3.326  10.493   6.410  0.1600 -0.3099 -0.0761
  337MOL0     C45381   3.244  10.373   6.367 -0.2883 -0.1627  0.1250
  337MOL0     C45382   3.327  10.245   6.399  1.2027  0.9318 -0.7515
  337MOL0     C45383   3.393  10.240   6.535  0.3936 -0.8205  0.7735
  337MOL0     O45384   3.438  10.106   6.557  0.7492  0.3321  0.1876
  337MOL0     C45385   3.495  10.095   6.679 -0.1413  1.0106 -0.1526
  337MOL0     C45386   3.415  10.061   6.787 -0.4973  0.0301 -0.4989
  337MOL0     C45387   3.471  10.046   6.915 -0.0291  0.0431  0.7149
  337MOL0     C45388   3.370  10.021   7.032 -0.5738  0.6527  0.3819
  337MOL0     C45389   3.610  10.056   6.940 -0.3196 -0.2503  0.0867
  337MOL0     C45390   3.684  10.034   7.068  0.0831  0.8748  0.2700
  337MOL0     O45391   3.826  10.040   7.057 -0.0933  0.4548 -0.4109
  337MOL0     C45392   3.906  10.027   7.170 -0.0576  0.3350  0.6846
  337MOL0     C45393   3.968   9.904   7.201 -0.7882 -0.5904 -0.0559
  337MOL0     C45394   4.050   9.894   7.315 -0.2263  0.0151  0.6140
  337MOL0     C45395   4.076  10.001   7.399 -0.3035  1.2069  0.2727
  337MOL0     O45396   4.159   9.982   7.510 -0.3656 -0.0145  0.3151
  337MOL0     C45397   4.201  10.088   7.587 -0.6619 -0.0315 -0.6198
  337MOL0     C45398   4.302  10.185   7.519  0.1518 -0.9179  0.2744
  337MOL0     C45399   4.368  10.274   7.630  0.7201  0.0789 -0.0566
  337MOL0     C45400   4.494  10.358   7.591 -0.2703  0.0283 -0.7007
  337MOL0     C45401   4.618  10.276   7.616  0.2005  0.2804 -0.6903
  337MOL0     C45402   4.754  10.336   7.590 -0.6558 -0.2824 -0.0772
  337MOL0     C45403   4.771  10.353   7.437 -0.6383  0.3462 -0.5415
  337MOL0     C45404   4.909  10.421   7.414 -0.4465  0.2821  0.5980
  337MOL0    Cl45405   5.050  10.319   7.469  0.1963 -0.1866 -0.1254
  337MOL0     C45406   4.010  10.125   7.360 -0.4647  0.0687 -0.2310
  337MOL0     C45407   3.923  10.133   7.250  0.9829  0.0271  0.7350
  337MOL0     O45408   3.627  10.001   7.168 -0.1746  0.2937 -0.1071
  337MOL0     C45409   3.680  10.112   6.829  0.0088 -0.3136 -0.2615
  337MOL0     C45410   3.631  10.133   6.699  0.3957 -0.6997 -0.5048
  337MOL0     N45411   3.499  10.481   6.209  0.0771  0.1961 -1.8052
  337MOL0     N45412   3.620  10.529   6.208  0.3361  0.3891  0.2060
  337MOL0     C45413   4.698  10.129   6.560  0.0471  0.1206  0.0900
  337MOL0     C45414   4.825  10.082   6.595 -0.8115  0.0934 -0.4403
  337MOL0     C45415   5.146   9.820   6.789 -0.7035 -0.0712  0.9584
  337MOL0     C45416   5.200   9.750   6.897  0.4878  0.1639  0.4304
  337MOL0     C45417   5.325   9.687   6.888 -0.4243 -0.5563 -0.1323
  337MOL0     C45418   5.398   9.684   6.769 -0.0125 -0.3934  0.7938
  337MOL0     O45419   5.518   9.621   6.760 -0.2473 -0.6649 -0.8574
  337MOL0     C45420   5.618   9.676   6.669 -0.4439  0.2079 -0.1927
  337MOL0     C45421   5.721   9.559   6.671 -0.0974 -0.4362  0.0364
  337MOL0     C45422   5.840   9.589   6.578 -0.5477  0.7403  0.1367
  337MOL0     C45423   5.950   9.490   6.588 -0.6875 -0.0321  0.4589
  337MOL0     C45424   6.019   9.486   6.721  0.0207  0.0916  0.4149
  337MOL0     C45425   6.069   9.486   6.833 -0.0425 -0.7509  0.2831
  337MOL0     C45426   5.342   9.755   6.653  1.1190 -0.5787 -0.3802
  337MOL0     C45427   5.213   9.814   6.658 -1.3281  0.5093 -1.4281
  337MOL0     H45428   4.718   9.806   6.773  2.3454 -0.1383  0.6981
  337MOL0     H45429   4.506   9.910   6.738 -0.3955  2.3546  2.1385
  337MOL0     H45430   4.348   9.953   6.520  1.9169  1.4539 -2.2317
  337MOL0     H45431   4.333  10.008   6.674  4.8159  2.8607  2.7728
  337MOL0     H45432   4.241  10.146   6.408  3.5282 -1.2566 -0.3212
  337MOL0     H45433   4.140  10.061   6.523 -0.5017  1.0435  0.9704
  337MOL0     H45434   4.204  10.241   6.701  1.0133 -2.1225  0.4544
  337MOL0     H45435   4.268  10.323   6.554 -1.0505  0.0426 -1.4182
  337MOL0     H45436   4.049  10.294   6.448 -2.4216  1.4787  0.5201
  337MOL0     H45437   3.984  10.231   6.599  1.2055 -2.1502  0.3066
  337MOL0     H45438   4.033  10.480   6.694  1.1264  0.7183  0.3074
  337MOL0     H45439   4.109  10.518   6.532  0.1409  0.7436  1.4310
  337MOL0     H45440   3.833  10.405   6.533  0.3352 -0.1243 -1.3927
  337MOL0     H45441   3.848  10.568   6.601 -0.4426  0.3852 -0.9957
  337MOL0     H45442   3.991  10.607   6.374  2.2694 -2.8226  1.8767
  337MOL0     H45443   3.900  10.478   6.307  3.1898  0.9611 -0.3400
  337MOL0     H45444   3.799  10.702   6.258 -1.4179  0.4129 -0.5946
  337MOL0     H45445   3.786  10.719   6.437 -1.0755  0.1130 -1.6943
  337MOL0     H45446   3.555  10.593   6.519  1.0777 -1.1983  0.2091
  337MOL0     H45447   3.337  10.483   6.519  0.0071 -1.0728 -0.1242
  337MOL0     H45448   3.270  10.586   6.396  0.3726  0.0589  1.3552
  337MOL0     H45449   3.239  10.379   6.258  0.2919  0.6634  0.1332
  337MOL0     H45450   3.143  10.378   6.409  0.6346 -1.5209  2.7028
  337MOL0     H45451   3.398  10.218   6.320 -2.7586 -2.3558 -3.6189
  337MOL0     H45452   3.268  10.152   6.399  2.3240  0.1885  0.0245
  337MOL0     H45453   3.314  10.268   6.605 -0.7047  0.3093 -0.8552
  337MOL0     H45454   3.478  10.309   6.535  0.8521 -1.3792  0.9235
  337MOL0     H45455   3.309  10.044   6.769 -0.7323 -1.0868  1.6657
  337MOL0     H45456   3.350   9.915   7.050 -1.2899  0.9042  1.0911
  337MOL0     H45457   3.407  10.061   7.126 -0.6810 -0.1181  0.7596
  337MOL0     H45458   3.276  10.070   7.006 -0.6601 -0.4878 -1.6610
  337MOL0     H45459   3.964   9.829   7.122  3.1264 -1.4410  0.3609
  337MOL0     H45460   4.090   9.795   7.336 -1.6982 -0.0788  3.6077
  337MOL0     H45461   4.119  10.144   7.632  1.2395  1.7907  0.7938
  337MOL0     H45462   4.249  10.047   7.676 -1.1651 -0.3169 -0.4805
  337MOL0     H45463   4.386  10.137   7.469  2.5707  0.6103  2.5751
  337MOL0     H45464   4.258  10.254   7.446  1.5738  0.1380  0.3657
  337MOL0     H45465   4.401  10.217   7.717 -0.9508  0.0426  0.5894
  337MOL0     H45466   4.289  10.334   7.675  2.1743 -0.2887  3.3371
  337MOL0     H45467   4.480  10.377   7.485 -2.4104  0.9033 -0.3267
  337MOL0     H45468   4.508  10.454   7.642  0.1779 -1.8682  3.1750
  337MOL0     H45469   4.612  10.186   7.554 -0.2169 -0.1872  0.0163
  337MOL0     H45470   4.609  10.239   7.719  1.7523 -2.5619 -1.4540
  337MOL0     H45471   4.760  10.441   7.620  2.9143 -0.2924 -0.3313
  337MOL0     H45472   4.841  10.282   7.629  0.1471 -1.8713 -3.6594
  337MOL0     H45473   4.683  10.399   7.392 -0.2639  1.3521 -0.2860
  337MOL0     H45474   4.769  10.253   7.394 -1.0036  0.5740 -1.0607
  337MOL0     H45475   4.931  10.517   7.461  2.3339  1.0749 -1.9952
  337MOL0     H45476   4.915  10.433   7.306 -2.8037 -0.0397  0.3650
  337MOL0     H45477   4.029  10.207   7.428  3.4139 -0.4492 -0.4691
  337MOL0     H45478   3.865  10.224   7.241 -0.2986 -0.5744  2.3643
  337MOL0     H45479   3.787  10.129   6.829 -0.0253  0.3631  2.0540
  337MOL0     H45480   3.692  10.179   6.622  0.7834 -1.2518 -0.5318
  337MOL0     H45481   4.694  10.215   6.494 -0.0600  1.7252  2.0882
  337MOL0     H45482   4.918  10.112   6.549 -0.6385 -1.0551 -0.8474
  337MOL0     H45483   5.155   9.768   6.994  1.8266 -0.0276  1.1087
  337MOL0     H45484   5.356   9.642   6.982 -0.6221 -0.8719 -0.2154
  337MOL0     H45485   5.576   9.682   6.569 -0.8613  0.6942  0.0005
  337MOL0     H45486   5.663   9.774   6.692 -0.9819  0.7258 -1.2828
  337MOL0     H45487   5.668   9.472   6.631 -3.1301  1.2263  0.1477
  337MOL0     H45488   5.754   9.535   6.773 -0.3597 -2.1854 -0.2579
  337MOL0     H45489   5.875   9.689   6.602  1.8715 -0.2124  0.8571
  337MOL0     H45490   5.803   9.584   6.475 -2.1863 -2.0485  0.7374
  337MOL0     H45491   6.023   9.528   6.515  0.1177  2.1475  2.2572
  337MOL0     H45492   5.930   9.387   6.558  2.4317 -0.2612 -1.3144
  337MOL0     H45493   6.129   9.483   6.921 -0.1430 -1.9689  0.3203
  337MOL0     H45494   5.392   9.758   6.557 -0.1131 -1.5108 -1.0716
  337MOL0     H45495   5.175   9.873   6.575 -0.1404  2.7166 -0.5062
  338MOL0     O45496   4.054   0.174   1.042 -0.3552  0.9056 -0.2864
  338MOL0     C45497   3.967   0.180   1.126  0.2253  0.5904  0.4615
  338MOL0     O45498   3.987   0.200   1.260 -0.5373  0.2413  0.1411
  338MOL0     C45499   4.117   0.186   1.308 -0.0958 -0.5222  0.7933
  338MOL0     C45500   4.201   0.304   1.319  0.5223  0.4409 -0.6826
  338MOL0     C45501   4.331   0.284   1.369  0.4870 -0.3070  0.2898
  338MOL0     C45502   4.382   0.161   1.409 -0.1338  0.3030 -0.1648
  338MOL0     O45503   4.516   0.158   1.435 -0.2423  0.2028 -0.0708
  338MOL0     C45504   4.568   0.046   1.499 -0.5819  0.1458 -1.2517
  338MOL0     C45505   4.716   0.088   1.514 -0.3596 -0.2042  1.0289
  338MOL0     C45506   4.739   0.190   1.626 -0.1782 -0.4595 -0.2308
  338MOL0     C45507   4.897   0.243   1.618  0.1568 -0.7917  0.2751
  338MOL0     C45508   4.920   0.344   1.736  0.4172 -0.1364  0.0858
  338MOL0     C45509   4.951   0.271   1.866  0.4074 -1.1222 -0.3728
  338MOL0     C45510   4.903   0.361   1.985 -0.3624  0.7867  0.6331
  338MOL0     C45511   4.913   0.290   2.122  0.5614 -0.2226 -0.3202
  338MOL0     N45512   4.837   0.373   2.213  0.0898  1.7667 -0.0452
  338MOL0     C45513   4.886   0.465   2.295 -0.3911  0.2997 -0.5268
  338MOL0     C45514   4.780   0.507   2.367  0.6564  0.7781  0.0800
  338MOL0     C45515   4.762   0.601   2.481 -0.1561  0.4671  0.2193
  338MOL0     C45516   4.742   0.747   2.444 -0.8217 -0.4250 -0.3116
  338MOL0     C45517   4.705   0.827   2.564  0.4968 -0.0820  0.0261
  338MOL0     C45518   4.555   0.829   2.590  0.5949 -0.6597  0.0215
  338MOL0     O45519   4.496   0.863   2.460 -0.6337  0.2127 -0.2024
  338MOL0     C45520   4.405   0.772   2.410  0.8583 -0.0569 -0.2654
  338MOL0     C45521   4.345   0.829   2.294 -0.3892 -0.4011 -0.2549
  338MOL0     C45522   4.252   0.753   2.219  0.0525 -0.0966  0.0200
  338MOL0     C45523   4.202   0.823   2.092 -0.6599 -0.7078 -0.4018
  338MOL0     C45524   4.217   0.623   2.265 -0.6300  0.6530 -0.3937
  338MOL0     C45525   4.122   0.537   2.191 -0.5616  0.2308 -0.3945
  338MOL0     O45526   4.055   0.446   2.263  0.3306 -0.1482 -0.5048
  338MOL0     C45527   3.947   0.383   2.221  0.5024 -0.1046  1.5134
  338MOL0     C45528   3.963   0.260   2.154  0.3009 -0.6217  0.2595
  338MOL0     C45529   3.852   0.192   2.093  0.2058 -0.6217 -0.1149
  338MOL0     C45530   3.718   0.240   2.119 -0.4663 -0.3925  1.4519
  338MOL0     O45531   3.609   0.195   2.051  0.2123 -0.2031  0.6046
  338MOL0     C45532   3.625   0.092   1.952 -0.9574  0.0003  0.0346
  338MOL0     C45533   3.642   0.159   1.806 -2.0739 -0.4902 -0.5077
  338MOL0     C45534   3.533   0.247   1.763  0.6258 -0.3582  0.5186
  338MOL0     C45535   3.399   0.178   1.733 -0.3000 -0.4117  0.1738
  338MOL0     C45536   3.305   0.277   1.675  0.4631 -1.1515  0.4483
  338MOL0     C45537   3.174   0.214   1.624  0.7313 -0.0293 -0.4974
  338MOL0     C45538   3.188   0.130   1.495 -0.6138 -0.2480 -0.5497
  338MOL0     C45539   3.168   0.223   1.377  0.8285  0.3125  0.8145
  338MOL0    Cl45540   3.008   0.182   1.322 -0.5604 -0.6106  0.1124
  338MOL0     C45541   3.701   0.344   2.207 -0.1553 -0.1394  0.4934
  338MOL0     C45542   3.813   0.424   2.253 -0.2625 -0.3260  0.0911
  338MOL0     O45543   4.128   0.535   2.069 -0.4322 -0.0138  0.3539
  338MOL0     C45544   4.286   0.567   2.374  0.0838 -0.0509  0.1722
  338MOL0     C45545   4.378   0.638   2.450 -0.2992 -0.6270  0.0233
  338MOL0     N45546   4.666   0.431   2.325  0.8221 -0.4843 -0.3170
  338MOL0     N45547   4.698   0.355   2.224  0.7060 -0.0496  0.2090
  338MOL0     C45548   4.299   0.048   1.404 -0.3082 -0.3681 -0.2109
  338MOL0     C45549   4.169   0.065   1.351 -0.0929 -0.1479  0.5781
  338MOL0     C45550   3.830   0.193   1.075 -0.3665  0.2445  0.0817
  338MOL0     C45551   3.794   0.161   0.947 -0.2015  0.2085 -0.8000
  338MOL0     C45552   3.666   0.182   0.903  0.1900  0.6008  0.4489
  338MOL0     C45553   3.557   0.203   0.992 -0.1321 -0.8281  0.5910
  338MOL0     O45554   3.426   0.184   0.946 -0.4704  0.0892  0.1290
  338MOL0     C45555   3.319   0.179   1.046  0.2168 -1.1894  0.4037
  338MOL0     C45556   3.187   0.141   0.972  1.0298  0.0172 -0.8567
  338MOL0     C45557   3.158  -0.008   0.955 -0.4366 -1.0691 -0.6326
  338MOL0     C45558   3.262  -0.076   0.864  0.0820 -0.4830  1.2608
  338MOL0     C45559   3.277  -0.020   0.721  0.2335  0.9991  0.0596
  338MOL0     C45560   3.282   0.023   0.604 -0.2205  0.1460 -0.2246
  338MOL0     C45561   3.601   0.219   1.128  0.5547  0.7727  0.0883
  338MOL0     C45562   3.728   0.207   1.171  0.0673 -0.1073 -0.5366
  338MOL0     H45563   4.162   0.403   1.297 -2.1815  0.3289  2.7774
  338MOL0     H45564   4.389   0.374   1.386 -1.5062  1.4166 -1.4353
  338MOL0     H45565   4.529   0.025   1.599  3.5448 -1.8404  0.1404
  338MOL0     H45566   4.561  -0.040   1.432  0.8478 -2.2707  1.4713
  338MOL0     H45567   4.760  -0.006   1.551  0.3759  0.5519  2.1352
  338MOL0     H45568   4.768   0.120   1.423 -1.9713 -1.0144 -0.2228
  338MOL0     H45569   4.676   0.279   1.625  0.5242  0.0515  0.1117
  338MOL0     H45570   4.725   0.142   1.724 -2.0820 -0.8526 -0.6454
  338MOL0     H45571   4.957   0.152   1.627 -0.8023 -1.2354  3.1693
  338MOL0     H45572   4.904   0.299   1.524  2.0301  0.0069  0.8379
  338MOL0     H45573   5.004   0.411   1.715  0.0776  1.1772  2.5794
  338MOL0     H45574   4.827   0.402   1.737  0.8741  0.6874 -1.7387
  338MOL0     H45575   4.897   0.176   1.874 -0.4450 -0.5732  0.7498
  338MOL0     H45576   5.058   0.251   1.878  0.3034 -0.8897  1.0511
  338MOL0     H45577   4.969   0.448   1.995  1.0173 -0.2461  0.9199
  338MOL0     H45578   4.800   0.394   1.972 -0.2687  0.4658 -1.1391
  338MOL0     H45579   5.013   0.266   2.159 -0.6646 -4.1362  0.9459
  338MOL0     H45580   4.859   0.195   2.120 -0.1666  0.0530  2.1767
  338MOL0     H45581   4.989   0.489   2.321 -0.7018 -1.9748  3.6308
  338MOL0     H45582   4.670   0.571   2.531  0.4236 -3.3195 -0.6672
  338MOL0     H45583   4.848   0.580   2.546 -0.7825 -2.4967  0.2057
  338MOL0     H45584   4.670   0.750   2.362 -0.5682  1.1330 -0.5083
  338MOL0     H45585   4.838   0.787   2.410  0.0961 -2.5011 -0.2854
  338MOL0     H45586   4.753   0.925   2.558  0.3560 -0.1087 -2.9682
  338MOL0     H45587   4.738   0.774   2.654  1.1138 -0.5496 -0.4658
  338MOL0     H45588   4.530   0.910   2.658  1.8019  1.2490 -1.7005
  338MOL0     H45589   4.525   0.730   2.626 -0.0625 -0.9043 -1.1640
  338MOL0     H45590   4.378   0.926   2.260 -0.0532 -0.8358 -1.1996
  338MOL0     H45591   4.257   0.916   2.076 -3.4242  0.8250 -1.8891
  338MOL0     H45592   4.221   0.761   2.004  1.0411  0.8011 -1.1527
  338MOL0     H45593   4.096   0.846   2.109 -0.0567  3.8796 -1.6039
  338MOL0     H45594   4.059   0.223   2.121 -0.9790 -2.7785 -1.3481
  338MOL0     H45595   3.877   0.109   2.028  4.5848  0.5095 -0.1981
  338MOL0     H45596   3.696   0.017   1.988 -1.9449  0.3183  2.9538
  338MOL0     H45597   3.530   0.037   1.945 -0.3775 -0.9685 -0.3956
  338MOL0     H45598   3.738   0.211   1.811 -1.4028 -1.8185  3.2846
  338MOL0     H45599   3.655   0.080   1.731  1.2688  0.1530 -0.7507
  338MOL0     H45600   3.567   0.305   1.677 -3.4955  3.7209  1.2523
  338MOL0     H45601   3.510   0.323   1.838 -2.8755 -0.5432 -0.2211
  338MOL0     H45602   3.422   0.100   1.660  2.6853 -0.5257  1.1065
  338MOL0     H45603   3.360   0.124   1.820 -0.6666  0.7848  0.7695
  338MOL0     H45604   3.357   0.335   1.598 -0.4847  2.6157  2.3657
  338MOL0     H45605   3.282   0.349   1.754 -2.5468 -0.7153 -0.6652
  338MOL0     H45606   3.132   0.150   1.703 -1.2987  2.3429  0.4953
  338MOL0     H45607   3.098   0.293   1.621  0.9049  0.1242 -0.8344
  338MOL0     H45608   3.121   0.043   1.497  2.2591 -2.6038  1.7737
  338MOL0     H45609   3.289   0.088   1.491  0.2867  1.6223  1.0239
  338MOL0     H45610   3.235   0.203   1.292 -3.2180 -3.3423 -2.0106
  338MOL0     H45611   3.181   0.329   1.400 -0.5342  0.4503  1.0632
  338MOL0     H45612   3.601   0.376   2.233  0.0188  0.1700  0.7867
  338MOL0     H45613   3.794   0.501   2.327  1.1398  1.4319 -1.2973
  338MOL0     H45614   4.258   0.469   2.412 -0.8127  1.4057  3.7057
  338MOL0     H45615   4.439   0.587   2.523 -0.6264 -3.2967 -1.4667
  338MOL0     H45616   4.342  -0.044   1.443  2.8812  1.5943  1.2707
  338MOL0     H45617   4.123  -0.026   1.314  4.4675 -1.7647 -1.8199
  338MOL0     H45618   3.862   0.116   0.875 -0.7364 -3.9379  1.0315
  338MOL0     H45619   3.633   0.182   0.799 -6.0924 -2.0012  1.9413
  338MOL0     H45620   3.343   0.114   1.131 -0.1434 -2.1076 -0.1701
  338MOL0     H45621   3.304   0.276   1.094 -2.8421 -1.9269  1.1505
  338MOL0     H45622   3.190   0.197   0.878  0.9368 -0.2206 -1.0022
  338MOL0     H45623   3.103   0.183   1.029  0.8417 -1.5245  0.0524
  338MOL0     H45624   3.065  -0.027   0.901 -1.2200 -0.6374  0.5434
  338MOL0     H45625   3.150  -0.047   1.057 -2.4574  0.9847  0.0773
  338MOL0     H45626   3.240  -0.179   0.834 -0.0933  0.2172 -1.2583
  338MOL0     H45627   3.361  -0.079   0.910  2.8905  2.4080 -3.7201
  338MOL0     H45628   3.290   0.042   0.498 -0.0357 -1.4215 -0.5231
  338MOL0     H45629   3.523   0.211   1.203 -0.7454  0.2989 -1.2595
  338MOL0     H45630   3.750   0.222   1.276  2.1925  0.3882 -1.0134
  339MOL0     O45631   6.441   6.634   5.634  0.7136  0.3823 -0.0397
  339MOL0     C45632   6.546   6.610   5.685 -0.5215  0.5857  0.0853
  339MOL0     O45633   6.646   6.699   5.706 -0.0242  0.2374 -0.5819
  339MOL0     C45634   6.635   6.835   5.677  0.5572  0.1161  0.5939
  339MOL0     C45635   6.526   6.917   5.690  0.2434 -0.3293  0.2234
  339MOL0     C45636   6.535   7.051   5.675 -0.2366  0.6996  0.3335
  339MOL0     C45637   6.656   7.114   5.643 -0.5004  0.8346 -0.5591
  339MOL0     O45638   6.674   7.250   5.642 -0.5934 -0.2122 -0.4656
  339MOL0     C45639   6.580   7.336   5.703 -0.1866  0.7747  0.8560
  339MOL0     C45640   6.654   7.463   5.753 -0.1918  0.0750 -0.6746
  339MOL0     C45641   6.562   7.570   5.806  0.7104  0.6889  0.3102
  339MOL0     C45642   6.599   7.699   5.866  0.3208 -0.1476  0.3650
  339MOL0     C45643   6.727   7.757   5.817 -0.2905  0.0978 -0.1000
  339MOL0     C45644   6.728   7.800   5.667  0.2766 -0.1552 -1.0352
  339MOL0     C45645   6.854   7.887   5.630 -0.3132  0.5131 -0.7429
  339MOL0     C45646   6.872   8.009   5.718 -0.2300  0.1768  0.1077
  339MOL0     N45647   6.989   7.980   5.806  0.5068  0.0824  0.5652
  339MOL0     C45648   6.986   7.942   5.939  0.2445 -0.2791  0.2640
  339MOL0     C45649   7.112   7.905   5.964 -0.2710  0.3499 -0.6285
  339MOL0     C45650   7.151   7.860   6.094  0.3528 -0.3224 -0.5272
  339MOL0     C45651   7.088   7.717   6.128  0.0198 -0.3552  0.2019
  339MOL0     C45652   7.162   7.672   6.257  0.3759 -0.2749 -0.4952
  339MOL0     C45653   7.103   7.538   6.307 -1.0613 -0.8209 -0.0290
  339MOL0     O45654   7.147   7.516   6.439  0.0905 -0.4875 -0.0842
  339MOL0     C45655   7.086   7.411   6.510  0.4358 -0.0943 -0.2766
  339MOL0     C45656   7.000   7.310   6.459 -0.1474 -0.5484  0.5582
  339MOL0     C45657   6.951   7.194   6.529 -0.8621 -0.4316 -0.1842
  339MOL0     C45658   6.891   7.080   6.447 -0.9314 -0.6066 -0.2802
  339MOL0     C45659   6.979   7.184   6.668 -0.2949  0.3292  0.9985
  339MOL0     C45660   6.920   7.089   6.763 -0.2051  0.5185 -0.1893
  339MOL0     O45661   6.910   7.144   6.889 -0.3967 -0.1409 -0.6057
  339MOL0     C45662   6.877   7.090   7.011  0.0709 -0.3928 -0.1901
  339MOL0     C45663   6.757   7.017   7.017  0.3996  0.3683 -0.1681
  339MOL0     C45664   6.732   6.939   7.129 -0.1133 -0.0093 -0.0105
  339MOL0     C45665   6.810   6.958   7.247  0.8036  0.8691 -1.0982
  339MOL0     O45666   6.752   6.893   7.346  0.2403 -0.7973 -0.1111
  339MOL0     C45667   6.773   6.935   7.474 -0.3277 -0.1294 -0.6335
  339MOL0     C45668   6.836   6.824   7.562  0.1130  0.2564 -0.8755
  339MOL0     C45669   6.868   6.877   7.700  0.2317  0.0363  0.0393
  339MOL0     C45670   6.964   6.777   7.772  0.1641 -0.0207 -0.5341
  339MOL0     C45671   6.986   6.814   7.920 -0.0900  0.0015  0.5079
  339MOL0     C45672   6.858   6.806   8.010  0.0006  0.0376 -0.2381
  339MOL0     C45673   6.852   6.669   8.066 -0.1115 -0.1322 -0.5499
  339MOL0     C45674   6.722   6.644   8.150  0.4625 -0.6085 -1.2538
  339MOL0    Cl45675   6.733   6.714   8.310  0.2686  0.1052 -0.1405
  339MOL0     C45676   6.924   7.043   7.243  0.2940 -1.0433 -0.4234
  339MOL0     C45677   6.965   7.095   7.121  0.2222 -0.0976  0.0902
  339MOL0     O45678   6.898   6.975   6.735 -0.2456  0.7393  0.6628
  339MOL0     C45679   7.055   7.302   6.717 -0.7244 -0.1357  0.8141
  339MOL0     C45680   7.117   7.406   6.642  1.2912 -1.0772  0.1639
  339MOL0     N45681   7.186   7.947   5.851  0.2024  0.7448  0.5867
  339MOL0     N45682   7.109   7.987   5.756 -0.5133  0.2112 -0.2180
  339MOL0     C45683   6.768   7.037   5.633  0.3407 -0.0333 -0.3080
  339MOL0     C45684   6.758   6.899   5.655 -0.1981  0.5953 -0.1652
  339MOL0     C45685   6.567   6.473   5.737  0.8148  0.7954  0.1209
  339MOL0     C45686   6.474   6.373   5.686 -0.3791 -0.2792 -0.1489
  339MOL0     C45687   6.494   6.234   5.728  1.3731 -1.0389 -0.4056
  339MOL0     C45688   6.602   6.204   5.815 -0.9812  0.2501  0.1477
  339MOL0     O45689   6.599   6.068   5.853 -0.6105 -0.4196 -0.1875
  339MOL0     C45690   6.706   6.029   5.937 -0.3594 -0.3790 -0.5951
  339MOL0     C45691   6.683   5.890   5.989  0.6972  0.0979 -0.3904
  339MOL0     C45692   6.814   5.821   6.024 -0.1497 -0.1297  0.3616
  339MOL0     C45693   6.808   5.706   6.130  0.0661  0.9614 -0.2779
  339MOL0     C45694   6.705   5.602   6.096  0.2546 -1.0529  0.7526
  339MOL0     C45695   6.621   5.519   6.051  0.1022  0.4033 -0.4020
  339MOL0     C45696   6.689   6.299   5.857  0.1223 -0.4654  1.6517
  339MOL0     C45697   6.670   6.430   5.816 -0.7558 -0.0253  0.1238
  339MOL0     H45698   6.433   6.876   5.730  1.5593 -3.7015  0.1311
  339MOL0     H45699   6.443   7.105   5.694 -0.1289  0.7889  0.6119
  339MOL0     H45700   6.502   7.368   5.634  0.8674  1.4332 -0.0545
  339MOL0     H45701   6.537   7.299   5.797  0.2766  2.5828  1.8406
  339MOL0     H45702   6.732   7.429   5.821 -1.0264 -0.1278  0.2088
  339MOL0     H45703   6.708   7.509   5.670  0.0797  1.5248  0.2821
  339MOL0     H45704   6.490   7.593   5.727  0.2644 -3.5126 -0.7713
  339MOL0     H45705   6.506   7.514   5.882  1.3369  1.1838  1.1541
  339MOL0     H45706   6.528   7.779   5.845 -0.6113 -0.9268  0.4842
  339MOL0     H45707   6.606   7.691   5.975  2.0588  2.3046  0.5161
  339MOL0     H45708   6.749   7.843   5.882  1.2705 -0.6370  0.4019
  339MOL0     H45709   6.804   7.682   5.835 -0.9841 -0.7780 -0.7338
  339MOL0     H45710   6.707   7.714   5.602 -0.9079 -3.5947  3.4063
  339MOL0     H45711   6.644   7.870   5.653  1.6292  1.6036 -0.6668
  339MOL0     H45712   6.944   7.824   5.627 -2.5793 -3.1400  0.4462
  339MOL0     H45713   6.850   7.925   5.528 -0.4651 -2.1073 -1.7953
  339MOL0     H45714   6.788   8.031   5.784 -0.0639 -3.2662  1.6819
  339MOL0     H45715   6.903   8.087   5.648 -1.3426  0.7284  0.2196
  339MOL0     H45716   6.899   7.931   6.003  1.1952  1.2532  1.9233
  339MOL0     H45717   7.259   7.858   6.111  0.6267  2.7046 -1.3111
  339MOL0     H45718   7.099   7.926   6.165  1.3787 -0.7433  0.6631
  339MOL0     H45719   7.119   7.646   6.051  1.3071 -1.4646  1.6698
  339MOL0     H45720   6.979   7.712   6.131 -0.0996  1.2922 -0.2274
  339MOL0     H45721   7.141   7.754   6.326  1.7072  0.6812 -1.1818
  339MOL0     H45722   7.270   7.671   6.240  0.7699  0.1715  1.7096
  339MOL0     H45723   7.134   7.457   6.240 -0.5577 -1.4775  0.9705
  339MOL0     H45724   6.993   7.544   6.308 -0.9984  1.3410  1.2799
  339MOL0     H45725   6.981   7.311   6.352  2.6302  1.9132 -0.0647
  339MOL0     H45726   6.853   7.112   6.350 -0.2928 -1.9527 -0.9883
  339MOL0     H45727   6.963   7.000   6.430  0.2692  0.1676  0.9589
  339MOL0     H45728   6.803   7.040   6.499 -0.0924 -4.2581 -1.4067
  339MOL0     H45729   6.710   6.990   6.924  0.4010 -2.6362  0.6081
  339MOL0     H45730   6.637   6.887   7.138 -1.2109  2.1493  2.7596
  339MOL0     H45731   6.824   7.031   7.480 -0.5976 -0.0596  1.2611
  339MOL0     H45732   6.677   6.962   7.519 -0.2907  1.1265 -1.2677
  339MOL0     H45733   6.761   6.745   7.567  0.8255 -0.4965 -1.7581
  339MOL0     H45734   6.931   6.783   7.526  1.2019 -0.4215  2.3946
  339MOL0     H45735   6.774   6.873   7.757 -0.8976 -0.6914 -1.7883
  339MOL0     H45736   6.920   6.974   7.705 -3.4852  2.2590 -0.6691
  339MOL0     H45737   6.908   6.684   7.760 -0.4422 -0.3280  3.4620
  339MOL0     H45738   7.059   6.780   7.718 -0.8800 -0.3737 -2.4994
  339MOL0     H45739   7.023   6.917   7.923  1.2958 -0.4639  3.8726
  339MOL0     H45740   7.069   6.756   7.961  2.2096  3.4816  1.2088
  339MOL0     H45741   6.861   6.873   8.097 -1.5963 -0.2327  0.0482
  339MOL0     H45742   6.763   6.827   7.960  0.4253  3.0762  0.0126
  339MOL0     H45743   6.945   6.645   8.119 -0.9527  2.0381  2.1128
  339MOL0     H45744   6.847   6.595   7.985 -1.2673 -3.1084  2.0607
  339MOL0     H45745   6.692   6.540   8.165 -4.8415  0.9738  2.1686
  339MOL0     H45746   6.645   6.702   8.100  1.9569  2.6456 -0.0849
  339MOL0     H45747   6.978   7.077   7.331  1.9173  0.0786 -1.7976
  339MOL0     H45748   7.053   7.158   7.130 -0.6884  0.8833  4.3017
  339MOL0     H45749   7.065   7.301   6.825 -1.0217  0.4796  0.8499
  339MOL0     H45750   7.185   7.480   6.682 -0.7953  1.3614 -0.5280
  339MOL0     H45751   6.864   7.078   5.600  1.7060 -2.2023  0.7352
  339MOL0     H45752   6.851   6.846   5.633  0.6080  2.9081 -2.9964
  339MOL0     H45753   6.387   6.388   5.624  0.6672  0.3798 -1.4988
  339MOL0     H45754   6.426   6.158   5.691 -2.1299  2.3395 -1.6100
  339MOL0     H45755   6.801   6.046   5.885  0.2823 -1.6403  0.1246
  339MOL0     H45756   6.710   6.096   6.023 -0.9563 -1.0257 -0.0502
  339MOL0     H45757   6.633   5.836   5.908 -3.3671 -0.3575  2.1286
  339MOL0     H45758   6.618   5.893   6.077 -0.8071  2.3364 -1.4687
  339MOL0     H45759   6.877   5.903   6.057 -0.9689  0.1367  1.3428
  339MOL0     H45760   6.864   5.795   5.931  3.4945  1.9439  1.5436
  339MOL0     H45761   6.804   5.745   6.232  2.4794  2.0964 -0.5452
  339MOL0     H45762   6.905   5.656   6.118 -1.1566 -1.0817 -2.7626
  339MOL0     H45763   6.552   5.441   6.029 -0.0910 -0.4499  2.7584
  339MOL0     H45764   6.780   6.280   5.912 -0.5877 -1.2489  2.5959
  339MOL0     H45765   6.758   6.488   5.840 -1.1305  1.4773 -1.8482
  340MOL0     O45766   8.975   0.006   3.520  0.7700  0.1026 -0.4614
  340MOL0     C45767   8.865   0.065   3.518  0.3014 -0.3414 -0.3236
  340MOL0     O45768   8.742   0.031   3.584 -0.5942 -0.2121 -0.3025
  340MOL0     C45769   8.750  -0.096   3.627 -0.5605  0.7076  0.1018
  340MOL0     C45770   8.834  -0.142   3.736 -0.4040  0.4231  0.6122
  340MOL0     C45771   8.824  -0.280   3.775  0.7945 -0.5241 -0.1384
  340MOL0     C45772   8.735  -0.364   3.715  0.0741  1.3817 -0.1864
  340MOL0     O45773   8.723  -0.490   3.767  0.1597 -0.7469  0.1234
  340MOL0     C45774   8.650  -0.596   3.702 -0.2408 -1.0823  0.0410
  340MOL0     C45775   8.703  -0.642   3.561 -0.5213  0.5083 -0.4732
  340MOL0     C45776   8.830  -0.728   3.577 -0.3478 -0.1515 -0.1425
  340MOL0     C45777   8.844  -0.819   3.450 -0.6675 -0.2663  0.2994
  340MOL0     C45778   8.938  -0.936   3.479 -0.2918  0.3261  0.1955
  340MOL0     C45779   8.930  -1.060   3.390  0.3662 -0.2167 -0.2646
  340MOL0     C45780   8.791  -1.118   3.390 -0.6224  0.2894 -0.1913
  340MOL0     C45781   8.766  -1.228   3.295 -0.1493 -0.0881 -0.1995
  340MOL0     N45782   8.780  -1.185   3.157  0.4460 -0.2233 -0.8464
  340MOL0     C45783   8.895  -1.188   3.082  0.6419  0.2770 -0.1854
  340MOL0     C45784   8.870  -1.105   2.980  0.1109 -0.4969  0.6479
  340MOL0     C45785   8.960  -1.079   2.867 -0.2015  0.2348  0.5304
  340MOL0     C45786   8.920  -1.141   2.728 -0.3127  0.2079 -0.4637
  340MOL0     C45787   9.026  -1.128   2.615 -0.8148 -0.9600 -0.0438
  340MOL0     C45788   9.134  -1.228   2.626 -0.5970 -0.1110 -0.6217
  340MOL0     O45789   9.221  -1.219   2.737 -0.6899 -0.6588 -0.6690
  340MOL0     C45790   9.257  -1.342   2.783  0.0330  0.9394 -0.6371
  340MOL0     C45791   9.372  -1.409   2.726  0.4810 -0.2500  0.8249
  340MOL0     C45792   9.400  -1.540   2.760  0.6183  0.1962 -0.6312
  340MOL0     C45793   9.519  -1.604   2.690  1.4282 -0.7992  0.0964
  340MOL0     C45794   9.327  -1.606   2.872  0.5227  0.2920 -0.3443
  340MOL0     C45795   9.360  -1.740   2.930 -0.8708 -0.4968 -0.0675
  340MOL0     O45796   9.484  -1.786   2.945  0.9524  0.3542  0.0761
  340MOL0     C45797   9.522  -1.906   3.002 -0.5176 -0.4621  0.2744
  340MOL0     C45798   9.603  -1.899   3.109  0.4034  0.7065  0.6008
  340MOL0     C45799   9.654  -2.018   3.166 -0.1247  0.1272  0.4457
  340MOL0     C45800   9.637  -2.141   3.102  0.3594  1.2023  0.1468
  340MOL0     O45801   9.660  -2.266   3.160 -0.6143 -0.4636 -0.1852
  340MOL0     C45802   9.734  -2.270   3.278 -0.0520  0.1310  0.4327
  340MOL0     C45803   9.778  -2.409   3.315 -0.3498  0.0883  0.3861
  340MOL0     C45804   9.859  -2.472   3.199 -0.3644 -0.9364 -0.4767
  340MOL0     C45805   9.919  -2.615   3.229  1.5241  0.7249 -0.3006
  340MOL0     C45806  10.042  -2.654   3.149 -0.1798 -0.2580  0.0932
  340MOL0     C45807  10.000  -2.692   3.011  0.2483  0.1255  0.2384
  340MOL0     C45808  10.122  -2.705   2.923  0.0682 -0.7067 -0.2192
  340MOL0     C45809  10.098  -2.783   2.794 -0.7094 -0.5689 -0.5130
  340MOL0    Cl45810  10.001  -2.938   2.826  0.1759  0.2230  0.1884
  340MOL0     C45811   9.546  -2.143   2.989 -0.8154  0.1590 -0.4384
  340MOL0     C45812   9.491  -2.026   2.941 -0.5886 -0.4639 -1.2678
  340MOL0     O45813   9.264  -1.793   2.979  0.0886  0.0775 -0.1264
  340MOL0     C45814   9.210  -1.534   2.925 -0.0754 -0.0900  0.5095
  340MOL0     C45815   9.179  -1.406   2.872 -0.4880  0.0454  0.2489
  340MOL0     N45816   8.739  -1.062   2.982 -0.8225  0.4153  0.4099
  340MOL0     N45817   8.687  -1.114   3.092  0.3426 -0.5727 -0.6867
  340MOL0     C45818   8.656  -0.328   3.614 -0.3226 -0.6504  0.1153
  340MOL0     C45819   8.654  -0.192   3.579 -0.0493 -0.2278  0.3076
  340MOL0     C45820   8.865   0.186   3.454 -0.6372 -1.0313 -0.2450
  340MOL0     C45821   8.843   0.301   3.535  0.8729  0.6038  0.4346
  340MOL0     C45822   8.855   0.427   3.483  0.0749 -0.1569 -0.4951
  340MOL0     C45823   8.895   0.443   3.348  0.7703  0.4323  0.0642
  340MOL0     O45824   8.929   0.566   3.289  1.0184  0.9086 -0.1306
  340MOL0     C45825   8.939   0.681   3.370 -0.4531  1.5682  0.4620
  340MOL0     C45826   8.820   0.773   3.362  0.3534 -0.2774  0.3032
  340MOL0     C45827   8.821   0.886   3.259  0.2758 -0.4070  0.8503
  340MOL0     C45828   8.754   1.011   3.307  0.1642 -0.0703  0.5030
  340MOL0     C45829   8.735   1.117   3.212 -1.1174 -0.6683 -0.2930
  340MOL0     C45830   8.727   1.206   3.129 -0.0602  0.3065  0.5164
  340MOL0     C45831   8.915   0.332   3.263  0.2023 -0.6765 -0.3569
  340MOL0     C45832   8.906   0.206   3.318  0.3171  0.2721  0.4780
  340MOL0     H45833   8.909  -0.073   3.773  0.0345 -0.6893  1.9149
  340MOL0     H45834   8.883  -0.311   3.860 -0.7847 -2.0044  0.4888
  340MOL0     H45835   8.644  -0.682   3.769  0.0049 -0.4845  0.8484
  340MOL0     H45836   8.549  -0.556   3.687 -0.1599 -0.6231  0.6480
  340MOL0     H45837   8.621  -0.705   3.525 -1.3570  2.0125 -1.3084
  340MOL0     H45838   8.720  -0.556   3.495  0.7257  0.8044  0.2070
  340MOL0     H45839   8.925  -0.674   3.586 -0.3546 -0.3950  1.9274
  340MOL0     H45840   8.835  -0.793   3.665  3.6003  1.6227  1.1625
  340MOL0     H45841   8.744  -0.865   3.447  0.0922 -2.0175  0.9523
  340MOL0     H45842   8.880  -0.759   3.366  0.9280  0.2673  1.3241
  340MOL0     H45843   9.043  -0.906   3.484  0.3007 -1.2774 -1.3096
  340MOL0     H45844   8.912  -0.967   3.581  0.8801  1.1924  0.7838
  340MOL0     H45845   8.962  -1.038   3.288 -1.8042  1.9455 -0.5560
  340MOL0     H45846   8.992  -1.135   3.441  0.5207 -0.9564 -1.4782
  340MOL0     H45847   8.774  -1.155   3.492  3.8282  1.2957  1.1321
  340MOL0     H45848   8.713  -1.046   3.364 -1.6112 -1.0601 -1.1057
  340MOL0     H45849   8.669  -1.275   3.312 -0.4400  0.0348 -1.4393
  340MOL0     H45850   8.841  -1.305   3.315 -0.8648 -0.7938 -0.1642
  340MOL0     H45851   8.981  -1.254   3.090 -0.3947 -1.0810  0.2452
  340MOL0     H45852   8.950  -0.971   2.853 -2.7688 -0.1456 -1.2735
  340MOL0     H45853   9.062  -1.095   2.903 -0.3323 -0.8657  0.4652
  340MOL0     H45854   8.828  -1.094   2.692 -0.5373 -0.2695 -0.5166
  340MOL0     H45855   8.906  -1.249   2.733  0.8728 -0.0244 -1.6999
  340MOL0     H45856   9.058  -1.024   2.624  0.7168 -1.1367 -2.4500
  340MOL0     H45857   8.977  -1.142   2.518 -0.9153 -0.3599 -0.0835
  340MOL0     H45858   9.196  -1.218   2.537  1.0281  0.7103  0.5565
  340MOL0     H45859   9.087  -1.327   2.634 -1.7810  0.3527 -1.6695
  340MOL0     H45860   9.430  -1.365   2.645 -0.4818 -1.0657 -0.3448
  340MOL0     H45861   9.502  -1.711   2.672 -0.5079 -0.4852 -0.1303
  340MOL0     H45862   9.535  -1.564   2.590 -2.3370  0.5248 -0.1434
  340MOL0     H45863   9.603  -1.594   2.760  1.6443  2.3779 -0.4725
  340MOL0     H45864   9.609  -1.806   3.164  3.2007  1.0718 -0.1513
  340MOL0     H45865   9.698  -2.025   3.265 -0.8029  2.5160  1.0012
  340MOL0     H45866   9.828  -2.217   3.260  0.8694 -2.0369 -1.6888
  340MOL0     H45867   9.679  -2.216   3.356  0.8504  0.1097  1.1002
  340MOL0     H45868   9.831  -2.420   3.410 -0.9697 -1.5910  0.5700
  340MOL0     H45869   9.691  -2.472   3.335  0.8485 -1.5626  0.5252
  340MOL0     H45870   9.939  -2.406   3.162  0.3102 -2.1367 -1.2314
  340MOL0     H45871   9.789  -2.486   3.116  1.2189 -1.4917 -1.7692
  340MOL0     H45872   9.949  -2.620   3.334  1.0985  2.4512 -0.0774
  340MOL0     H45873   9.835  -2.684   3.217  0.6401  1.8422 -0.6740
  340MOL0     H45874  10.083  -2.747   3.188 -0.2919  0.5269  2.2144
  340MOL0     H45875  10.119  -2.576   3.145 -1.1719  0.8122  1.0106
  340MOL0     H45876   9.940  -2.783   3.016  3.3644 -2.2259 -1.6792
  340MOL0     H45877   9.950  -2.610   2.959  0.4827  0.0659 -0.0858
  340MOL0     H45878  10.195  -2.767   2.976 -1.5230 -1.5821  1.0728
  340MOL0     H45879  10.156  -2.602   2.912 -1.4745 -0.1123  0.2407
  340MOL0     H45880  10.194  -2.803   2.747 -0.6384 -0.3111 -0.4770
  340MOL0     H45881  10.050  -2.713   2.724 -1.8470 -0.7369  0.0662
  340MOL0     H45882   9.535  -2.234   2.931  2.4283  0.0812 -1.1039
  340MOL0     H45883   9.424  -2.021   2.856 -1.8379  0.2868 -0.2726
  340MOL0     H45884   9.159  -1.571   3.013 -0.1218  2.7842  1.8122
  340MOL0     H45885   9.086  -1.351   2.886 -1.6908 -1.5354 -1.1970
  340MOL0     H45886   8.578  -0.390   3.572 -0.8768 -1.9197  2.7863
  340MOL0     H45887   8.595  -0.141   3.504 -0.4639  0.2354  0.9457
  340MOL0     H45888   8.816   0.287   3.639  3.6328 -0.4275  1.1076
  340MOL0     H45889   8.831   0.505   3.555 -0.6679  0.3754 -1.2984
  340MOL0     H45890   8.963   0.661   3.475  1.9024 -0.7268 -0.4052
  340MOL0     H45891   9.028   0.739   3.343  0.2253  0.8612  1.1103
  340MOL0     H45892   8.808   0.812   3.464 -1.0938  1.6112 -0.5205
  340MOL0     H45893   8.726   0.719   3.345  1.3106 -2.2991  1.1941
  340MOL0     H45894   8.782   0.852   3.162  3.3381 -4.0588  0.6362
  340MOL0     H45895   8.929   0.900   3.244  0.3067 -0.4383  1.0420
  340MOL0     H45896   8.824   1.049   3.382 -1.8156  0.9012  1.9492
  340MOL0     H45897   8.656   0.976   3.343 -1.3312 -0.1398 -3.2418
  340MOL0     H45898   8.713   1.292   3.067 -2.4461 -0.3265  0.0808
  340MOL0     H45899   8.929   0.332   3.155 -1.6411  1.1334 -0.6568
  340MOL0     H45900   8.914   0.115   3.259  2.3215  0.0265  1.0639
  341MOL0     O45901   3.325   9.504   4.573  0.7999  0.4919  0.0213
  341MOL0     C45902   3.224   9.467   4.633 -0.1924 -0.1719 -0.5168
  341MOL0     O45903   3.159   9.524   4.735  0.0258 -0.6753  0.5168
  341MOL0     C45904   3.205   9.645   4.783 -0.6779  0.2977 -0.5484
  341MOL0     C45905   3.108   9.737   4.813 -0.7835 -0.4882  0.3010
  341MOL0     C45906   3.151   9.863   4.854 -0.3175 -0.9153 -0.9113
  341MOL0     C45907   3.284   9.901   4.873 -0.4457  0.1210  0.5753
  341MOL0     O45908   3.315  10.030   4.892 -0.0812  0.3324 -0.0208
  341MOL0     C45909   3.340  10.093   4.766  0.3495  0.5068  0.1719
  341MOL0     C45910   3.286  10.235   4.777 -0.2493  0.4762  0.5269
  341MOL0     C45911   3.350  10.319   4.672  0.7028  0.3012 -0.3077
  341MOL0     C45912   3.308  10.463   4.696  1.4155 -0.6292 -0.3358
  341MOL0     C45913   3.404  10.554   4.614 -0.0588 -0.5450 -0.0268
  341MOL0     C45914   3.375  10.706   4.641  0.1382 -0.0826 -0.6602
  341MOL0     C45915   3.480  10.786   4.568 -0.0859 -0.3616  0.0686
  341MOL0     C45916   3.492  10.931   4.626 -0.1919 -0.1110 -0.4748
  341MOL0     N45917   3.590  11.014   4.554 -0.2417  0.6634  0.3391
  341MOL0     C45918   3.709  10.969   4.499  0.0434 -0.1750 -0.1014
  341MOL0     C45919   3.768  11.087   4.465  0.0002  0.2774 -0.3393
  341MOL0     C45920   3.903  11.102   4.400 -0.0177  0.1010  0.3585
  341MOL0     C45921   3.979  11.229   4.436 -0.6065 -0.3336  0.5715
  341MOL0     C45922   4.118  11.249   4.356 -0.2195 -0.2598  0.6369
  341MOL0     C45923   4.199  11.365   4.414 -1.2174 -0.3485 -0.2119
  341MOL0     O45924   4.316  11.420   4.349  0.5274 -0.0685  0.3908
  341MOL0     C45925   4.437  11.346   4.362  0.2083 -0.1356  1.0479
  341MOL0     C45926   4.485  11.295   4.480  0.0046 -0.1046 -0.9584
  341MOL0     C45927   4.606  11.227   4.491 -0.3999  0.0514  0.2404
  341MOL0     C45928   4.654  11.181   4.623  0.4726  0.6649  0.4467
  341MOL0     C45929   4.680  11.196   4.368  0.3790  0.4330  0.4126
  341MOL0     C45930   4.809  11.127   4.364 -1.0471 -0.8796  0.5436
  341MOL0     O45931   4.845  11.030   4.461  0.4965 -0.0991 -0.4708
  341MOL0     C45932   4.974  10.983   4.465 -0.0564  0.5038 -0.6343
  341MOL0     C45933   5.082  11.077   4.465  0.0127  0.1219 -0.0832
  341MOL0     C45934   5.202  11.020   4.477 -0.6976  0.8918  0.3343
  341MOL0     C45935   5.223  10.879   4.477  0.8021 -0.5304  0.4313
  341MOL0     O45936   5.341  10.813   4.496 -0.2882 -0.0852  0.2791
  341MOL0     C45937   5.385  10.806   4.635 -0.7085 -0.3446 -0.0207
  341MOL0     C45938   5.445  10.672   4.657 -0.1309  0.5324 -0.0451
  341MOL0     C45939   5.551  10.662   4.763  0.0485  0.2132 -0.1504
  341MOL0     C45940   5.578  10.514   4.802  0.5811 -0.0819  0.0240
  341MOL0     C45941   5.673  10.489   4.928  0.1987 -1.3236 -0.4485
  341MOL0     C45942   5.616  10.561   5.047 -0.3074 -0.3843 -0.0137
  341MOL0     C45943   5.476  10.499   5.091  0.1538 -0.6242  0.0715
  341MOL0     C45944   5.443  10.549   5.234  0.0419 -0.1600 -0.1977
  341MOL0    Cl45945   5.442  10.733   5.251  0.5804 -0.1308  0.9179
  341MOL0     C45946   5.119  10.788   4.462  0.1655  0.6746  0.1643
  341MOL0     C45947   4.990  10.838   4.466  0.0846 -0.3716  0.2353
  341MOL0     O45948   4.879  11.139   4.266  1.3955  0.1356  0.6628
  341MOL0     C45949   4.632  11.245   4.249  0.3115 -0.3275  1.0869
  341MOL0     C45950   4.508  11.322   4.243 -0.0605 -0.1123 -0.5176
  341MOL0     N45951   3.691  11.188   4.509 -0.2254  0.3715 -0.2497
  341MOL0     N45952   3.582  11.145   4.552 -1.2309  1.0311  0.3237
  341MOL0     C45953   3.386   9.802   4.845 -0.5960  0.4235 -0.5363
  341MOL0     C45954   3.344   9.673   4.815  0.5295 -0.3169 -0.8111
  341MOL0     C45955   3.153   9.349   4.575 -0.0429 -0.4139  0.0367
  341MOL0     C45956   3.042   9.290   4.637 -0.8560 -0.5271  0.6893
  341MOL0     C45957   2.976   9.187   4.578  0.4869 -0.1282  0.7730
  341MOL0     C45958   3.022   9.130   4.464 -0.7375 -1.0264 -0.2274
  341MOL0     O45959   2.951   9.020   4.412  0.5346 -0.5914  0.1580
  341MOL0     C45960   2.986   8.935   4.301 -0.5909 -0.0684 -0.2688
  341MOL0     C45961   2.888   8.824   4.280  0.1565 -0.5890  0.6610
  341MOL0     C45962   2.886   8.729   4.400 -0.4205  0.7853 -0.4742
  341MOL0     C45963   2.818   8.593   4.363  0.1700  0.2687 -0.0925
  341MOL0     C45964   2.683   8.624   4.319  0.8622 -0.0450 -0.3903
  341MOL0     C45965   2.566   8.655   4.267  0.2248 -0.4766 -0.7701
  341MOL0     C45966   3.142   9.178   4.403  0.1163  0.4374 -0.0083
  341MOL0     C45967   3.210   9.286   4.457  0.6385 -0.4536 -0.5223
  341MOL0     H45968   3.001   9.717   4.806 -0.3798 -2.9554  0.2516
  341MOL0     H45969   3.087   9.950   4.866  2.4786  0.9218  3.2825
  341MOL0     H45970   3.447  10.089   4.742  0.3970 -2.4383  0.4722
  341MOL0     H45971   3.298  10.037   4.682  0.1724 -0.7261  1.0437
  341MOL0     H45972   3.177  10.241   4.772 -0.3271  1.5956  2.4684
  341MOL0     H45973   3.300  10.267   4.881 -2.0484  1.3130  0.5460
  341MOL0     H45974   3.459  10.323   4.661  1.0527  0.8133  2.5145
  341MOL0     H45975   3.310  10.283   4.577 -2.1130  2.5412 -0.1326
  341MOL0     H45976   3.215  10.492   4.645  0.9764 -0.9628  0.2666
  341MOL0     H45977   3.298  10.489   4.802 -1.4602 -2.3900 -0.0550
  341MOL0     H45978   3.506  10.529   4.646 -1.0577 -0.8858  3.2495
  341MOL0     H45979   3.386  10.539   4.507 -3.7759  2.5319 -0.0439
  341MOL0     H45980   3.274  10.741   4.618 -1.3132 -3.2681  0.3488
  341MOL0     H45981   3.390  10.720   4.748  0.3306 -2.6855 -0.2744
  341MOL0     H45982   3.571  10.728   4.589 -1.6639 -2.1983  2.5693
  341MOL0     H45983   3.469  10.794   4.460  0.6524 -1.5043 -0.1118
  341MOL0     H45984   3.524  10.913   4.729 -1.5384 -0.2270 -0.0542
  341MOL0     H45985   3.395  10.981   4.623  0.2123  0.7736  0.4591
  341MOL0     H45986   3.747  10.868   4.486 -0.7381 -0.4511 -0.2778
  341MOL0     H45987   3.967  11.014   4.414 -0.7392 -0.1549  2.3862
  341MOL0     H45988   3.872  11.114   4.296  0.8009  1.8062  0.2824
  341MOL0     H45989   3.996  11.217   4.543  3.0106 -0.6274  0.0936
  341MOL0     H45990   3.916  11.319   4.429 -1.6482 -1.0894  0.0468
  341MOL0     H45991   4.105  11.250   4.247 -0.6642 -1.3737  0.6574
  341MOL0     H45992   4.178  11.159   4.372 -1.0970 -1.0728 -0.4897
  341MOL0     H45993   4.226  11.347   4.518 -4.5342  2.8482  1.3940
  341MOL0     H45994   4.131  11.449   4.429 -0.2156  0.4126  0.1664
  341MOL0     H45995   4.431  11.325   4.569  0.9040  0.5591 -0.6304
  341MOL0     H45996   4.618  11.251   4.699  0.7797 -0.0381  1.2512
  341MOL0     H45997   4.608  11.089   4.659 -0.8609  0.7382 -0.9843
  341MOL0     H45998   4.764  11.183   4.623  0.6432 -1.8704 -2.2033
  341MOL0     H45999   5.059  11.183   4.463  0.3609  0.2220  0.7464
  341MOL0     H46000   5.283  11.092   4.487 -0.8930  1.3978 -1.3705
  341MOL0     H46001   5.460  10.884   4.649  1.5691 -2.4291  0.0376
  341MOL0     H46002   5.316  10.808   4.719  1.8838 -5.1515  2.6715
  341MOL0     H46003   5.367  10.596   4.660  0.0665  0.2181 -1.8124
  341MOL0     H46004   5.506  10.660   4.567 -0.9403  2.1757 -0.8563
  341MOL0     H46005   5.503  10.703   4.853  1.5969  2.4987 -0.2921
  341MOL0     H46006   5.649  10.706   4.746  1.7648 -2.6982  1.5181
  341MOL0     H46007   5.480  10.470   4.822 -0.3312  2.6942  2.2351
  341MOL0     H46008   5.611  10.473   4.706 -5.1774  0.2717 -2.4940
  341MOL0     H46009   5.762  10.543   4.894 -0.0914 -1.2930 -1.1826
  341MOL0     H46010   5.701  10.383   4.938  4.6017 -0.2169  1.3589
  341MOL0     H46011   5.680  10.560   5.136 -0.9383  2.0022  0.5415
  341MOL0     H46012   5.601  10.667   5.024 -2.4970 -0.6591 -0.0982
  341MOL0     H46013   5.473  10.389   5.089 -0.0462 -0.6932  2.1090
  341MOL0     H46014   5.402  10.531   5.017 -0.4174 -1.8447  0.0868
  341MOL0     H46015   5.520  10.510   5.301  0.7097  0.6320 -0.4994
  341MOL0     H46016   5.349  10.509   5.275  0.2217 -0.5749 -0.1789
  341MOL0     H46017   5.132  10.681   4.455 -1.8675  0.5150 -3.4362
  341MOL0     H46018   4.900  10.779   4.456  0.5589 -0.8834 -1.4938
  341MOL0     H46019   4.682  11.225   4.155 -3.1871  2.5061 -1.6698
  341MOL0     H46020   4.478  11.373   4.152  3.2606  1.7373 -0.7474
  341MOL0     H46021   3.490   9.831   4.859  0.4663 -3.8825  2.3086
  341MOL0     H46022   3.400   9.580   4.820  0.6314 -0.2012  1.0611
  341MOL0     H46023   2.998   9.328   4.728 -1.4423  1.1740 -0.2670
  341MOL0     H46024   2.886   9.146   4.623  0.8568 -0.8494  0.8759
  341MOL0     H46025   2.995   8.996   4.210 -0.6704 -2.7938 -2.2201
  341MOL0     H46026   3.087   8.896   4.320  1.2725  3.5277 -1.6699
  341MOL0     H46027   2.916   8.773   4.187 -1.2860 -1.6462  0.7718
  341MOL0     H46028   2.789   8.864   4.260  1.5229  0.7835 -4.9061
  341MOL0     H46029   2.822   8.772   4.477 -1.3701  0.3478 -0.9977
  341MOL0     H46030   2.986   8.702   4.435 -0.5394 -0.2842 -0.9271
  341MOL0     H46031   2.793   8.543   4.457 -3.9853  3.1285  0.6103
  341MOL0     H46032   2.878   8.542   4.287  0.5381 -0.1226  0.4570
  341MOL0     H46033   2.467   8.661   4.226  0.5352 -0.8003 -1.5996
  341MOL0     H46034   3.175   9.129   4.312  0.7753  2.1184 -0.7180
  341MOL0     H46035   3.296   9.328   4.406 -0.5037  1.5078 -0.9461
  342MOL0     O46036   3.082   8.897   5.739  0.0843 -0.1699  0.4073
  342MOL0     C46037   2.998   8.953   5.667 -0.4469 -0.4753  0.1024
  342MOL0     O46038   2.991   8.944   5.531  0.4873  0.1334 -0.5368
  342MOL0     C46039   3.077   8.861   5.460 -0.3771  0.1018 -0.9019
  342MOL0     C46040   3.027   8.743   5.396 -0.4731  0.3131 -0.0195
  342MOL0     C46041   3.122   8.646   5.344 -0.2977 -0.0687  0.5760
  342MOL0     C46042   3.250   8.686   5.326 -0.4211  0.2788  0.3632
  342MOL0     O46043   3.339   8.620   5.250 -0.0156 -0.2442 -0.0789
  342MOL0     C46044   3.309   8.493   5.182  0.7018 -0.0091 -0.6460
  342MOL0     C46045   3.425   8.437   5.113 -0.1287 -0.2610  0.2101
  342MOL0     C46046   3.476   8.518   4.992 -0.4726 -0.5930  0.3927
  342MOL0     C46047   3.624   8.476   4.963  1.4924 -0.3217 -0.0214
  342MOL0     C46048   3.684   8.605   4.900  0.1932 -0.6734  0.1666
  342MOL0     C46049   3.633   8.623   4.756 -0.1477  1.0650 -0.6132
  342MOL0     C46050   3.724   8.705   4.665 -0.0744  0.5357  0.1852
  342MOL0     C46051   3.875   8.677   4.657 -0.4953 -0.0708 -0.7186
  342MOL0     N46052   3.933   8.736   4.531  0.6456  0.2954 -0.4743
  342MOL0     C46053   3.990   8.661   4.427  1.0346  0.5347 -0.0424
  342MOL0     C46054   4.016   8.752   4.329  0.1751  0.7778 -0.1423
  342MOL0     C46055   4.082   8.730   4.196  0.3586 -0.1197  0.3223
  342MOL0     C46056   3.979   8.666   4.109  0.1252  0.4890 -0.0483
  342MOL0     C46057   3.918   8.767   4.013  0.3019 -0.6703 -0.1297
  342MOL0     C46058   3.861   8.689   3.881 -0.6718  0.9750  0.2438
  342MOL0     O46059   3.826   8.794   3.785 -0.2635  0.3932 -0.5837
  342MOL0     C46060   3.920   8.864   3.719 -0.5794 -1.3595 -0.1003
  342MOL0     C46061   3.893   9.001   3.683 -0.6934 -0.1860 -0.4646
  342MOL0     C46062   3.985   9.088   3.622 -1.2539  1.0098 -0.0717
  342MOL0     C46063   3.946   9.227   3.600  0.3700  1.2099 -0.1541
  342MOL0     C46064   4.115   9.040   3.600  0.0181  0.3172 -0.3282
  342MOL0     C46065   4.229   9.131   3.552  0.1907  0.2025 -0.0422
  342MOL0     O46066   4.280   9.076   3.437  0.0647 -0.3211  0.2502
  342MOL0     C46067   4.374   9.157   3.371  0.7082  0.5672 -0.5229
  342MOL0     C46068   4.326   9.266   3.308  0.0228 -0.1570  0.2230
  342MOL0     C46069   4.407   9.349   3.235 -0.0994 -0.2742  0.5899
  342MOL0     C46070   4.540   9.321   3.219 -0.5033  0.1617  0.0408
  342MOL0     O46071   4.626   9.413   3.160 -0.0502  0.2631 -0.0783
  342MOL0     C46072   4.594   9.554   3.138  0.2054  0.8893 -0.1926
  342MOL0     C46073   4.718   9.633   3.088  0.5920  0.8667  0.8478
  342MOL0     C46074   4.818   9.656   3.204 -1.1957 -0.6001  0.2137
  342MOL0     C46075   4.924   9.753   3.165 -0.3536 -0.7576 -0.2825
  342MOL0     C46076   5.031   9.766   3.282 -0.0832 -0.0247 -0.3264
  342MOL0     C46077   4.975   9.850   3.400  0.2696  0.2374  0.6731
  342MOL0     C46078   5.086   9.884   3.500 -1.1376 -0.9122  0.1510
  342MOL0     C46079   5.035   9.905   3.637  0.4911  1.1465 -0.1884
  342MOL0    Cl46080   5.160   9.891   3.769  0.1490  0.1548 -0.4600
  342MOL0     C46081   4.588   9.204   3.275 -0.5536 -0.0473 -0.0627
  342MOL0     C46082   4.503   9.120   3.350  0.3459 -0.2977 -0.3777
  342MOL0     O46083   4.260   9.239   3.602  0.3712 -0.2060  0.5080
  342MOL0     C46084   4.149   8.901   3.629 -0.1637 -1.4034 -0.6959
  342MOL0     C46085   4.047   8.817   3.685 -0.7352 -0.1251  0.2312
  342MOL0     N46086   3.976   8.878   4.373 -0.6319  0.2627 -0.2461
  342MOL0     N46087   3.937   8.870   4.499 -0.6594  1.0016 -0.2413
  342MOL0     C46088   3.303   8.801   5.380  0.1768  0.1281 -0.2352
  342MOL0     C46089   3.215   8.882   5.455 -0.6156 -0.6878 -0.3562
  342MOL0     C46090   2.884   9.015   5.744  0.6505 -0.0558 -0.2304
  342MOL0     C46091   2.761   9.016   5.683  1.2428 -0.2577  0.1439
  342MOL0     C46092   2.642   9.067   5.747  0.0881  0.3643 -0.2914
  342MOL0     C46093   2.656   9.111   5.879  0.5635  0.4405 -0.6201
  342MOL0     O46094   2.539   9.144   5.950 -0.8669  0.0895  0.0202
  342MOL0     C46095   2.546   9.167   6.092  0.2877 -0.2293 -0.1724
  342MOL0     C46096   2.406   9.150   6.151  0.5525 -0.7091 -1.3532
  342MOL0     C46097   2.303   9.235   6.094 -0.0685  0.2626  0.4409
  342MOL0     C46098   2.171   9.222   6.154 -0.0890 -0.1039  0.3669
  342MOL0     C46099   2.086   9.339   6.125  0.5711 -0.6196  0.2355
  342MOL0     C46100   2.010   9.438   6.098 -0.6498  0.5161 -0.5845
  342MOL0     C46101   2.782   9.096   5.941 -1.4546  0.4312 -0.3316
  342MOL0     C46102   2.895   9.047   5.883  0.2595 -0.3706  0.7096
  342MOL0     H46103   2.921   8.720   5.389  0.0074 -1.8903 -0.8743
  342MOL0     H46104   3.087   8.556   5.294 -2.1339  0.6326  0.5192
  342MOL0     H46105   3.284   8.421   5.261 -2.4355  0.4838 -1.0756
  342MOL0     H46106   3.221   8.500   5.117 -0.4775  1.6977  1.0342
  342MOL0     H46107   3.504   8.431   5.188  0.9266 -0.8061 -0.9104
  342MOL0     H46108   3.400   8.338   5.072 -1.4174  0.5878 -1.1453
  342MOL0     H46109   3.405   8.518   4.908 -0.5582 -0.6226  0.4649
  342MOL0     H46110   3.471   8.623   5.021  1.3008  0.3201 -2.2559
  342MOL0     H46111   3.681   8.454   5.054  1.7533 -2.3642 -0.6272
  342MOL0     H46112   3.631   8.380   4.911  1.3736 -0.7662  0.7650
  342MOL0     H46113   3.663   8.697   4.956 -2.0560 -1.5678  0.8907
  342MOL0     H46114   3.792   8.597   4.880  0.6980  4.3428 -0.5765
  342MOL0     H46115   3.631   8.521   4.717 -0.2050  0.7820  0.1062
  342MOL0     H46116   3.533   8.667   4.759 -1.5569 -1.5000 -3.8762
  342MOL0     H46117   3.679   8.685   4.567  1.6898 -1.1104 -0.3610
  342MOL0     H46118   3.700   8.810   4.685  0.0487  1.3266 -3.2894
  342MOL0     H46119   3.889   8.569   4.645  2.6702  0.2562 -0.8128
  342MOL0     H46120   3.923   8.725   4.743  1.4798 -1.8535 -0.7310
  342MOL0     H46121   4.001   8.553   4.421 -1.3760  0.3063 -3.1839
  342MOL0     H46122   4.113   8.830   4.165  1.7423 -1.2312 -2.2856
  342MOL0     H46123   4.173   8.670   4.203  0.6716  0.1822 -0.8629
  342MOL0     H46124   3.901   8.617   4.168  1.3202 -0.0721  1.1075
  342MOL0     H46125   4.030   8.586   4.054 -0.5883 -2.7352  3.5695
  342MOL0     H46126   3.997   8.837   3.983 -0.0335 -0.2205  0.0256
  342MOL0     H46127   3.838   8.824   4.061  1.0633 -0.1644  0.5621
  342MOL0     H46128   3.781   8.617   3.900 -1.6289  1.0643 -2.8736
  342MOL0     H46129   3.940   8.627   3.836 -1.0814 -0.0555  0.8951
  342MOL0     H46130   3.789   9.026   3.699 -0.7943 -0.9499  0.1492
  342MOL0     H46131   3.922   9.235   3.493 -3.4890  0.6079  0.5322
  342MOL0     H46132   3.871   9.263   3.671  1.0593  0.2780  1.0774
  342MOL0     H46133   4.038   9.281   3.624  0.3039  1.4940 -0.5203
  342MOL0     H46134   4.220   9.279   3.291  0.4604 -0.8649 -4.1793
  342MOL0     H46135   4.366   9.432   3.178 -0.9555 -0.9253  0.2272
  342MOL0     H46136   4.513   9.561   3.065 -0.0809  2.5859  0.2302
  342MOL0     H46137   4.565   9.615   3.224  1.9648  0.9343  0.4254
  342MOL0     H46138   4.765   9.575   3.008 -0.3851 -0.3474  1.1315
  342MOL0     H46139   4.684   9.724   3.039  0.3418  0.6581  0.6298
  342MOL0     H46140   4.858   9.560   3.240 -1.8591 -0.5540  1.1161
  342MOL0     H46141   4.760   9.699   3.286 -0.5811 -2.6738  1.8564
  342MOL0     H46142   4.972   9.738   3.067 -0.4844 -2.8097 -0.0903
  342MOL0     H46143   4.875   9.850   3.155 -0.7039 -1.0320 -1.3618
  342MOL0     H46144   5.119   9.818   3.242  2.7088 -2.2234  2.3994
  342MOL0     H46145   5.074   9.669   3.308  0.3820 -0.2351 -1.7717
  342MOL0     H46146   4.929   9.946   3.376 -1.9536 -1.1675 -1.1108
  342MOL0     H46147   4.896   9.802   3.460  0.7110 -2.2368 -0.6065
  342MOL0     H46148   5.143   9.969   3.462 -0.9026 -1.3992 -0.6223
  342MOL0     H46149   5.161   9.805   3.513 -1.0769 -0.4799  3.2574
  342MOL0     H46150   4.971   9.822   3.669  2.3843  0.4384  2.0773
  342MOL0     H46151   4.968   9.991   3.637 -2.1964 -0.8321 -0.2245
  342MOL0     H46152   4.690   9.169   3.266 -0.9471 -2.8287  3.5954
  342MOL0     H46153   4.536   9.030   3.400 -0.7675  0.2318  1.4100
  342MOL0     H46154   4.249   8.859   3.617 -1.1100 -3.1882 -3.1492
  342MOL0     H46155   4.074   8.712   3.698  0.6791  0.2382  0.3566
  342MOL0     H46156   3.405   8.834   5.364  0.6991 -0.6987  1.2390
  342MOL0     H46157   3.255   8.968   5.509  1.4470 -2.7744  1.7237
  342MOL0     H46158   2.754   8.966   5.587 -1.1810  0.7299 -0.2651
  342MOL0     H46159   2.545   9.068   5.699 -2.2398 -1.7956  3.7848
  342MOL0     H46160   2.616   9.099   6.142 -1.1224 -1.0478  0.7578
  342MOL0     H46161   2.589   9.267   6.104 -0.5504  0.2732 -1.1645
  342MOL0     H46162   2.407   9.173   6.258  0.9916  0.3894 -1.5703
  342MOL0     H46163   2.383   9.043   6.148  2.1734 -1.3773  3.0313
  342MOL0     H46164   2.299   9.224   5.986 -0.4800  4.3489 -0.1395
  342MOL0     H46165   2.342   9.337   6.108 -0.4352  0.3924  0.5650
  342MOL0     H46166   2.186   9.209   6.262 -2.0921 -2.6593  0.4484
  342MOL0     H46167   2.138   9.125   6.114  1.6498  0.6626 -3.3104
  342MOL0     H46168   1.951   9.526   6.081 -1.0904  0.1752 -0.8106
  342MOL0     H46169   2.808   9.135   6.038  1.3290  0.3243 -0.9521
  342MOL0     H46170   2.992   9.051   5.932  0.8841 -0.2536 -0.5068
  343MOL0     O46171   4.319   4.310   5.042  0.9872  0.8768 -0.7543
  343MOL0     C46172   4.438   4.273   5.044 -0.9179  0.2845 -0.0280
  343MOL0     O46173   4.528   4.298   5.145  0.1167  0.1853 -0.0204
  343MOL0     C46174   4.498   4.329   5.274  0.7383 -0.0207  0.9112
  343MOL0     C46175   4.544   4.255   5.382 -0.2432 -0.1772 -0.5204
  343MOL0     C46176   4.501   4.294   5.506  1.5090 -0.4421  0.1164
  343MOL0     C46177   4.420   4.406   5.520 -0.0531 -0.1855 -0.7392
  343MOL0     O46178   4.368   4.466   5.631  1.1175  0.3449 -0.6259
  343MOL0     C46179   4.381   4.397   5.751  0.0630 -0.0886  0.5859
  343MOL0     C46180   4.313   4.472   5.861  0.4238  0.6548  0.5830
  343MOL0     C46181   4.358   4.417   6.000 -0.0566 -1.0254  0.2425
  343MOL0     C46182   4.311   4.499   6.114 -0.1727 -0.2435 -0.5317
  343MOL0     C46183   4.376   4.454   6.251 -0.5807  0.5797  0.6595
  343MOL0     C46184   4.263   4.382   6.333  0.2097 -0.3915  0.8477
  343MOL0     C46185   4.324   4.331   6.461 -0.3515 -0.2387 -0.0177
  343MOL0     C46186   4.212   4.282   6.551 -0.3474  0.3422  0.6638
  343MOL0     N46187   4.287   4.263   6.674 -0.3054 -0.3921  0.4739
  343MOL0     C46188   4.346   4.142   6.704  0.5561  1.3560 -0.3716
  343MOL0     C46189   4.432   4.173   6.807 -0.3067 -0.6020  0.3023
  343MOL0     C46190   4.541   4.103   6.872  0.3909  0.6732 -0.3920
  343MOL0     C46191   4.505   4.053   7.012  0.2773 -0.1406  0.4237
  343MOL0     C46192   4.622   3.981   7.067 -0.2569  0.9609 -0.5288
  343MOL0     C46193   4.597   3.921   7.201  0.8878 -0.1858 -0.7345
  343MOL0     O46194   4.548   4.018   7.292  0.2736 -0.5842 -0.0069
  343MOL0     C46195   4.417   4.025   7.326  0.8246  0.0218 -0.7668
  343MOL0     C46196   4.380   4.105   7.435  0.3171  0.6352 -1.6611
  343MOL0     C46197   4.247   4.118   7.476 -0.6482  1.0856  0.1181
  343MOL0     C46198   4.218   4.178   7.611  0.0564 -0.3837  0.1214
  343MOL0     C46199   4.152   4.057   7.401  0.0098  0.2761 -0.7216
  343MOL0     C46200   4.008   4.054   7.445  0.3382 -0.0102  0.0344
  343MOL0     O46201   3.964   4.155   7.524  0.5400  0.4556  0.2153
  343MOL0     C46202   3.837   4.153   7.566 -0.7738 -0.5068  0.5215
  343MOL0     C46203   3.727   4.189   7.486  0.4399 -0.7461  1.0110
  343MOL0     C46204   3.597   4.180   7.531 -0.1134  0.1608  0.8179
  343MOL0     C46205   3.583   4.127   7.666  0.0350 -0.8413  0.5435
  343MOL0     O46206   3.458   4.118   7.714 -0.0092 -0.7485  0.7490
  343MOL0     C46207   3.422   4.030   7.815  0.0894  0.3162 -0.6051
  343MOL0     C46208   3.400   3.892   7.752 -0.6274 -0.5007  0.5427
  343MOL0     C46209   3.322   3.796   7.841 -0.2923  0.0271  0.3733
  343MOL0     C46210   3.297   3.664   7.761 -0.1489 -0.1095 -0.0485
  343MOL0     C46211   3.213   3.569   7.848  0.2156 -0.0494  0.0431
  343MOL0     C46212   3.172   3.436   7.775  0.3875  0.2731 -0.8345
  343MOL0     C46213   3.120   3.331   7.875 -0.2614 -0.8479 -0.2349
  343MOL0     C46214   3.236   3.252   7.950  0.4594  0.4438 -0.2405
  343MOL0    Cl46215   3.306   3.337   8.089  0.2853  0.0556 -0.0353
  343MOL0     C46216   3.696   4.090   7.740 -0.2909  0.7327 -0.1820
  343MOL0     C46217   3.822   4.104   7.694  0.1050  0.5477  0.1409
  343MOL0     O46218   3.943   3.953   7.413 -0.3461 -0.7327 -0.2384
  343MOL0     C46219   4.189   3.974   7.290  0.4252  0.8143 -0.7977
  343MOL0     C46220   4.318   3.959   7.260 -0.3584  0.5914  0.7175
  343MOL0     N46221   4.421   4.305   6.838  0.3330 -0.0490 -1.3609
  343MOL0     N46222   4.332   4.356   6.766  0.0868  0.4180 -0.2496
  343MOL0     C46223   4.383   4.482   5.410  0.2023  0.6768  0.0205
  343MOL0     C46224   4.427   4.445   5.283 -0.2474 -0.7097 -1.0173
  343MOL0     C46225   4.480   4.203   4.915  1.1310  0.0552 -0.8306
  343MOL0     C46226   4.382   4.181   4.803  0.1004  0.0579  0.3110
  343MOL0     C46227   4.425   4.128   4.685 -1.0279 -0.0908 -0.7420
  343MOL0     C46228   4.560   4.086   4.677 -0.2216  0.2414  0.3805
  343MOL0     O46229   4.602   4.031   4.558 -0.1597 -0.1218  1.0168
  343MOL0     C46230   4.742   4.001   4.540 -0.5992  1.0357 -0.6633
  343MOL0     C46231   4.818   4.129   4.541  0.0568 -0.3871 -0.6229
  343MOL0     C46232   4.863   4.172   4.405 -0.3314 -0.3026 -0.5861
  343MOL0     C46233   4.878   4.327   4.403  0.7297 -0.1040 -1.0042
  343MOL0     C46234   4.922   4.374   4.269 -0.4338  0.7598  0.2420
  343MOL0     C46235   4.964   4.408   4.163  0.0554 -0.1016  0.0605
  343MOL0     C46236   4.642   4.088   4.791 -0.2300 -0.4396 -0.1069
  343MOL0     C46237   4.605   4.141   4.908 -0.6272 -0.4969 -0.3086
  343MOL0     H46238   4.610   4.170   5.378  0.6219  0.4276  0.2550
  343MOL0     H46239   4.530   4.241   5.596  3.4233  0.1577 -0.0991
  343MOL0     H46240   4.350   4.292   5.749 -0.2810  0.0174 -1.0719
  343MOL0     H46241   4.485   4.399   5.785  0.0728  1.5422  0.5383
  343MOL0     H46242   4.326   4.580   5.850 -0.7679  0.5191 -3.9373
  343MOL0     H46243   4.205   4.458   5.866  0.2515  2.0522  4.9824
  343MOL0     H46244   4.310   4.319   5.999 -0.1456 -0.9778 -0.9811
  343MOL0     H46245   4.467   4.409   5.997 -0.1043 -2.2319 -3.4193
  343MOL0     H46246   4.353   4.600   6.112 -0.4138 -0.0858  0.8825
  343MOL0     H46247   4.203   4.486   6.129  0.0631 -4.7953 -1.1973
  343MOL0     H46248   4.464   4.390   6.243 -1.5967 -1.0914  2.0803
  343MOL0     H46249   4.405   4.537   6.316  3.0888 -0.8939  1.1162
  343MOL0     H46250   4.184   4.456   6.350  3.0452  3.6386 -1.7925
  343MOL0     H46251   4.227   4.293   6.280 -2.0256  0.8033  0.2552
  343MOL0     H46252   4.408   4.264   6.439  1.6875  1.2046  2.7945
  343MOL0     H46253   4.382   4.408   6.512  1.0447 -1.6219  0.5914
  343MOL0     H46254   4.166   4.190   6.515  1.6359 -0.2082 -0.5880
  343MOL0     H46255   4.141   4.363   6.569  0.1672  0.8120  0.6221
  343MOL0     H46256   4.340   4.042   6.662  2.3218  1.0579 -0.0047
  343MOL0     H46257   4.582   4.024   6.809 -0.8374 -0.6167  0.3726
  343MOL0     H46258   4.611   4.187   6.879 -1.7295  2.4237  2.0537
  343MOL0     H46259   4.416   3.989   7.004  0.1944  0.1078 -0.8295
  343MOL0     H46260   4.488   4.143   7.073  0.9618  0.2436  0.0504
  343MOL0     H46261   4.706   4.051   7.078 -0.3861  1.2801 -1.4653
  343MOL0     H46262   4.645   3.902   6.996 -0.1400 -0.8587  1.4305
  343MOL0     H46263   4.690   3.887   7.247 -0.0489 -0.8103  0.7947
  343MOL0     H46264   4.534   3.832   7.202  4.4450 -3.0250 -2.8815
  343MOL0     H46265   4.462   4.141   7.497  1.1199 -1.2024 -1.6182
  343MOL0     H46266   4.315   4.213   7.648 -0.1406  1.4362 -0.9421
  343MOL0     H46267   4.147   4.261   7.617  1.8871  1.1805  1.3874
  343MOL0     H46268   4.183   4.098   7.678 -0.4734 -2.4410 -2.4583
  343MOL0     H46269   3.744   4.228   7.386 -1.4239 -1.5548  0.3226
  343MOL0     H46270   3.515   4.198   7.463 -0.8268 -0.1976  1.5670
  343MOL0     H46271   3.495   4.036   7.896  1.5924 -0.4220 -1.8655
  343MOL0     H46272   3.332   4.057   7.872 -0.0602  0.4604 -0.9069
  343MOL0     H46273   3.355   3.910   7.653 -0.4233  1.3652  0.7569
  343MOL0     H46274   3.500   3.853   7.732 -0.7744 -1.3831  1.4425
  343MOL0     H46275   3.226   3.839   7.869  0.6865  1.0369  2.3680
  343MOL0     H46276   3.373   3.765   7.932  0.2482 -0.4965 -0.0930
  343MOL0     H46277   3.238   3.684   7.671 -1.3895 -1.4026  0.4378
  343MOL0     H46278   3.392   3.618   7.734  0.1351 -0.5560  1.5857
  343MOL0     H46279   3.116   3.614   7.870  0.9724  2.1796 -0.9039
  343MOL0     H46280   3.270   3.557   7.941  2.8763  1.7256 -1.2407
  343MOL0     H46281   3.097   3.476   7.707 -0.5359 -0.0661 -0.0400
  343MOL0     H46282   3.265   3.392   7.738 -0.6968 -1.6800 -1.3919
  343MOL0     H46283   3.075   3.257   7.807  1.9995 -2.1153 -0.4428
  343MOL0     H46284   3.044   3.375   7.940  0.8961  1.0551 -0.1106
  343MOL0     H46285   3.323   3.227   7.889  2.0955  2.1651  1.2493
  343MOL0     H46286   3.203   3.158   7.995  2.2556  0.8651  2.1854
  343MOL0     H46287   3.692   4.055   7.843  0.6862 -1.3162 -0.8041
  343MOL0     H46288   3.905   4.078   7.759  0.3609 -3.6739 -1.5515
  343MOL0     H46289   4.111   3.921   7.236  0.2129  0.7103 -0.3957
  343MOL0     H46290   4.328   3.884   7.183  2.1426  1.6993 -0.1255
  343MOL0     H46291   4.328   4.571   5.439  2.7039  2.2343  0.1858
  343MOL0     H46292   4.397   4.513   5.203 -3.5679  1.5476  1.8244
  343MOL0     H46293   4.280   4.219   4.812  0.3786  0.6741  1.0365
  343MOL0     H46294   4.379   4.139   4.588  1.1361 -1.2150 -1.9862
  343MOL0     H46295   4.776   3.929   4.615 -3.2979 -0.8617 -1.1042
  343MOL0     H46296   4.753   3.948   4.445  1.7447  1.2706 -0.5880
  343MOL0     H46297   4.907   4.109   4.601  0.0603  0.0624 -0.4751
  343MOL0     H46298   4.749   4.202   4.584  0.0328 -1.7573  1.8203
  343MOL0     H46299   4.782   4.154   4.333 -1.3337 -0.4741  0.5457
  343MOL0     H46300   4.959   4.122   4.390  0.1420  0.5000 -0.3224
  343MOL0     H46301   4.949   4.349   4.483  0.3645 -1.2072 -0.3726
  343MOL0     H46302   4.784   4.377   4.429  0.2831 -1.5670  0.2809
  343MOL0     H46303   5.000   4.446   4.069 -0.8199  1.1546  0.2135
  343MOL0     H46304   4.744   4.051   4.789 -0.5141 -1.2123 -1.0460
  343MOL0     H46305   4.666   4.156   4.996 -0.8003  0.9835 -0.4122
  344MOL0     O46306  11.317   6.588   8.059 -0.7632  0.8764  0.1298
  344MOL0     C46307  11.421   6.639   8.112  0.0745 -0.8392  0.0231
  344MOL0     O46308  11.491   6.752   8.063  0.0861 -0.4469 -0.5105
  344MOL0     C46309  11.427   6.798   7.953 -0.1243 -0.0245  0.1298
  344MOL0     C46310  11.380   6.931   7.953  0.7155  0.5110 -0.2413
  344MOL0     C46311  11.301   6.981   7.845 -0.5048 -0.9342  0.2392
  344MOL0     C46312  11.284   6.902   7.722 -0.1649  0.3453  0.1100
  344MOL0     O46313  11.193   6.953   7.629  1.1172 -0.7417  0.0235
  344MOL0     C46314  11.117   6.871   7.535  0.0055 -0.5376  0.0009
  344MOL0     C46315  10.994   6.814   7.605  0.0515  0.6146 -0.2064
  344MOL0     C46316  10.900   6.932   7.641 -0.2306 -0.2795  0.3519
  344MOL0     C46317  10.794   6.893   7.743 -0.8307 -0.6647 -0.5027
  344MOL0     C46318  10.801   6.984   7.857 -0.0739 -0.3125  0.2451
  344MOL0     C46319  10.680   6.953   7.942 -0.1968  0.5633  0.4754
  344MOL0     C46320  10.675   7.062   8.056  0.6650  0.1316  0.4120
  344MOL0     C46321  10.538   7.073   8.123 -0.4479 -0.2274  0.4525
  344MOL0     N46322  10.531   7.168   8.235 -0.6756 -0.0292  0.2815
  344MOL0     C46323  10.538   7.300   8.213 -0.0228  0.1133  0.4736
  344MOL0     C46324  10.507   7.360   8.336  0.1389 -0.1293  0.6062
  344MOL0     C46325  10.489   7.514   8.357 -0.3105  0.0444 -0.4919
  344MOL0     C46326  10.407   7.593   8.257 -0.6563  0.0207  0.4486
  344MOL0     C46327  10.272   7.545   8.215 -0.2510 -0.1356 -0.1037
  344MOL0     C46328  10.212   7.647   8.120  0.8786 -0.0242  0.2894
  344MOL0     O46329  10.087   7.587   8.087 -0.4675 -0.4154 -0.2561
  344MOL0     C46330  10.011   7.647   7.988 -0.4852  0.1894 -2.0373
  344MOL0     C46331  10.063   7.736   7.889 -0.4644  0.5236  0.0227
  344MOL0     C46332   9.988   7.799   7.791 -0.4132 -0.1069 -0.2996
  344MOL0     C46333  10.066   7.868   7.687 -0.5056 -0.6086 -0.4174
  344MOL0     C46334   9.853   7.799   7.802 -0.7909  0.4417 -0.0203
  344MOL0     C46335   9.764   7.861   7.693  0.8250  0.9302 -0.4907
  344MOL0     O46336   9.635   7.815   7.706  0.1609  0.3551  0.2866
  344MOL0     C46337   9.528   7.866   7.630  0.1594  0.6686  1.0191
  344MOL0     C46338   9.519   7.992   7.567  0.4115 -0.1382 -1.0973
  344MOL0     C46339   9.404   8.041   7.508  0.4861 -0.9046  0.1435
  344MOL0     C46340   9.281   7.976   7.523  0.7112 -0.1532  0.1503
  344MOL0     O46341   9.165   8.022   7.472 -0.4668 -0.1742 -1.0473
  344MOL0     C46342   9.161   8.131   7.376 -0.8366  1.2308 -0.3378
  344MOL0     C46343   9.019   8.133   7.323  0.9968 -0.4017 -0.1615
  344MOL0     C46344   8.998   8.054   7.188 -0.0286 -0.0680  0.2548
  344MOL0     C46345   8.855   8.081   7.126  0.7418 -1.0287  0.5243
  344MOL0     C46346   8.732   8.007   7.187  0.4901  0.0387  0.1261
  344MOL0     C46347   8.749   7.852   7.194  0.5880 -0.8875  0.1307
  344MOL0     C46348   8.636   7.781   7.263 -0.3922 -0.2588 -1.0962
  344MOL0     C46349   8.663   7.633   7.288 -0.1971  0.2337  0.1618
  344MOL0    Cl46350   8.804   7.602   7.398  0.0434  0.1371 -0.5253
  344MOL0     C46351   9.285   7.844   7.579  0.3342 -0.1051  0.7726
  344MOL0     C46352   9.412   7.787   7.618 -0.1731 -0.6709  0.5648
  344MOL0     O46353   9.812   7.928   7.599  0.0690 -0.2421 -0.0246
  344MOL0     C46354   9.797   7.711   7.897 -0.0891  0.3866 -0.3507
  344MOL0     C46355   9.869   7.628   7.987 -0.3512 -1.2841  0.2766
  344MOL0     N46356  10.495   7.256   8.428  0.4310  0.2560  0.4285
  344MOL0     N46357  10.516   7.140   8.372 -0.1353  0.0919 -0.4265
  344MOL0     C46358  11.331   6.766   7.726  0.0241 -0.0058  0.3459
  344MOL0     C46359  11.415   6.723   7.831 -0.0419 -0.2126 -0.2209
  344MOL0     C46360  11.467   6.583   8.239 -1.1517 -0.3006  0.3901
  344MOL0     C46361  11.597   6.606   8.279 -1.4942 -0.8140  0.0060
  344MOL0     C46362  11.648   6.551   8.395  0.3422  0.3167 -0.7056
  344MOL0     C46363  11.567   6.470   8.479 -0.4473  0.2640 -0.1825
  344MOL0     O46364  11.635   6.421   8.587  0.0882 -0.9068 -0.5512
  344MOL0     C46365  11.556   6.379   8.693 -0.3300  0.3058 -0.7296
  344MOL0     C46366  11.637   6.364   8.819 -0.9626  0.2017 -1.3567
  344MOL0     C46367  11.727   6.488   8.854 -0.2888  0.1874  0.5186
  344MOL0     C46368  11.635   6.599   8.900  0.6873 -0.2453 -0.1622
  344MOL0     C46369  11.714   6.711   8.957  0.2193  0.5325 -0.8748
  344MOL0     C46370  11.776   6.800   9.006  1.3276 -0.0708  0.3472
  344MOL0     C46371  11.434   6.461   8.452 -0.3274 -0.0501 -0.9834
  344MOL0     C46372  11.387   6.512   8.336 -1.1669  0.2400 -0.9118
  344MOL0     H46373  11.397   6.999   8.036  3.1004 -2.7997  2.2670
  344MOL0     H46374  11.253   7.078   7.854  2.3893  0.3907  3.8884
  344MOL0     H46375  11.082   6.937   7.455 -0.0540  0.5043  0.8502
  344MOL0     H46376  11.178   6.788   7.500  3.2323  2.2689 -1.6594
  344MOL0     H46377  10.948   6.749   7.530  3.0801  0.2280 -1.9221
  344MOL0     H46378  11.024   6.759   7.694  0.0310  0.0122 -0.5686
  344MOL0     H46379  10.968   7.008   7.682 -1.5983  0.8685  0.5731
  344MOL0     H46380  10.844   6.966   7.554  0.7047  0.6004  0.0694
  344MOL0     H46381  10.700   6.910   7.690  0.9104 -0.3821 -3.7497
  344MOL0     H46382  10.807   6.790   7.776 -1.1197 -0.3420  0.6660
  344MOL0     H46383  10.887   6.968   7.923 -2.5374 -1.6124  3.4082
  344MOL0     H46384  10.796   7.089   7.829 -1.6259  0.3434  2.7139
  344MOL0     H46385  10.598   6.967   7.871  1.1082 -3.4388 -2.0879
  344MOL0     H46386  10.671   6.847   7.967  0.2127  0.5164  0.4268
  344MOL0     H46387  10.735   7.021   8.137 -0.2210 -2.1216 -0.0024
  344MOL0     H46388  10.713   7.160   8.024 -1.1709  1.8388  3.0676
  344MOL0     H46389  10.513   6.971   8.151  0.2832 -0.5564 -0.0649
  344MOL0     H46390  10.472   7.114   8.046  0.8141  0.8651 -0.1073
  344MOL0     H46391  10.559   7.350   8.119  0.4971  0.7912  0.9419
  344MOL0     H46392  10.442   7.534   8.454  0.8521  2.0326 -0.2880
  344MOL0     H46393  10.590   7.557   8.353 -0.2276  0.2201  1.9662
  344MOL0     H46394  10.477   7.609   8.175 -1.4360  1.9622  0.1145
  344MOL0     H46395  10.391   7.695   8.293 -1.3406  0.1381 -0.1601
  344MOL0     H46396  10.207   7.514   8.297  1.4071  1.5702  1.9360
  344MOL0     H46397  10.277   7.446   8.167  0.9179 -0.5737  0.8798
  344MOL0     H46398  10.293   7.657   8.047 -0.5266 -1.8926 -1.6334
  344MOL0     H46399  10.190   7.744   8.166  1.4489 -0.1871  0.9205
  344MOL0     H46400  10.170   7.746   7.873 -0.8326 -0.1190 -3.8011
  344MOL0     H46401  10.045   7.976   7.690 -2.3156 -0.9179 -0.7750
  344MOL0     H46402  10.175   7.862   7.701 -0.6022  1.9537  2.4615
  344MOL0     H46403  10.038   7.834   7.587 -0.8024  0.4555 -0.7104
  344MOL0     H46404   9.603   8.057   7.546 -0.0008  0.0383 -2.2566
  344MOL0     H46405   9.422   8.139   7.465  3.1719  0.4599  3.8294
  344MOL0     H46406   9.190   8.219   7.435  2.1243 -0.6722  1.3284
  344MOL0     H46407   9.233   8.115   7.295 -2.2358 -4.6393 -0.8351
  344MOL0     H46408   8.940   8.103   7.392 -0.9997  1.3211 -1.5582
  344MOL0     H46409   8.993   8.235   7.291 -1.8765 -0.9314  0.2141
  344MOL0     H46410   9.017   7.947   7.207  0.4354  0.0795  0.6593
  344MOL0     H46411   9.074   8.087   7.117 -0.9100 -0.5956 -0.9602
  344MOL0     H46412   8.837   8.189   7.132  2.0192 -0.6765 -1.1711
  344MOL0     H46413   8.858   8.048   7.022  2.5892  2.1389 -0.5829
  344MOL0     H46414   8.643   8.022   7.125  2.0062 -2.8085 -3.0981
  344MOL0     H46415   8.709   8.043   7.287 -0.4807 -1.6471  0.5601
  344MOL0     H46416   8.752   7.820   7.089 -0.2632 -0.8425  0.0854
  344MOL0     H46417   8.844   7.824   7.242  0.6347 -0.2451  0.4247
  344MOL0     H46418   8.550   7.792   7.196 -0.0221 -0.0151 -1.5387
  344MOL0     H46419   8.605   7.821   7.360 -0.6964  2.9920 -2.3844
  344MOL0     H46420   8.686   7.588   7.192  0.6221  2.9447 -1.0198
  344MOL0     H46421   8.584   7.577   7.339  1.5589 -0.4871  2.2326
  344MOL0     H46422   9.199   7.779   7.564  1.4753 -0.8938 -3.8407
  344MOL0     H46423   9.406   7.686   7.659 -3.6296 -1.4589 -1.4559
  344MOL0     H46424   9.689   7.707   7.905  0.0549  0.6715  3.2440
  344MOL0     H46425   9.826   7.554   8.053 -0.4428 -1.0309  0.4982
  344MOL0     H46426  11.335   6.699   7.641  3.1346 -2.0237  1.8823
  344MOL0     H46427  11.467   6.628   7.825 -1.3940 -0.8878 -3.7989
  344MOL0     H46428  11.667   6.655   8.213 -2.2118 -0.8278 -0.7762
  344MOL0     H46429  11.750   6.576   8.422  0.1569  0.0112  0.3315
  344MOL0     H46430  11.492   6.464   8.720 -0.4816 -0.2606  0.7782
  344MOL0     H46431  11.510   6.284   8.666 -1.7586  0.4272  1.0446
  344MOL0     H46432  11.704   6.278   8.813 -0.3770  0.3341  1.7007
  344MOL0     H46433  11.569   6.344   8.902 -1.5663  1.6390 -1.4693
  344MOL0     H46434  11.791   6.524   8.773  0.2413 -1.1705  0.2927
  344MOL0     H46435  11.795   6.473   8.938 -0.5920  2.1561  1.1608
  344MOL0     H46436  11.561   6.572   8.976 -1.3250  0.3961 -1.8108
  344MOL0     H46437  11.574   6.642   8.821 -0.0465 -2.0674 -0.6213
  344MOL0     H46438  11.827   6.888   9.041 -0.3730  1.0378  0.1980
  344MOL0     H46439  11.367   6.397   8.508 -0.5953  0.0216 -1.2236
  344MOL0     H46440  11.289   6.486   8.297 -3.0576  4.5458  0.3840
  345MOL0     O46441   5.012   5.155   4.117  0.2176  1.2261 -0.3738
  345MOL0     C46442   4.910   5.154   4.186 -0.6175  0.2218 -0.9138
  345MOL0     O46443   4.907   5.165   4.324 -0.8115  0.5583  0.4951
  345MOL0     C46444   5.013   5.184   4.410  0.5557  0.6701 -0.5496
  345MOL0     C46445   5.152   5.149   4.395 -0.7174 -0.7509 -0.0581
  345MOL0     C46446   5.241   5.186   4.498 -0.5342  1.2478 -0.3183
  345MOL0     C46447   5.200   5.232   4.627 -0.1286 -0.4761  0.3902
  345MOL0     O46448   5.285   5.247   4.734 -0.8284 -0.2160 -0.4834
  345MOL0     C46449   5.255   5.176   4.855 -0.0022  0.8305 -0.6242
  345MOL0     C46450   5.372   5.105   4.921  0.6743  0.1349  0.4027
  345MOL0     C46451   5.437   5.009   4.822 -0.3522 -0.2080  0.4124
  345MOL0     C46452   5.574   4.957   4.875 -0.3928  0.5276  0.3942
  345MOL0     C46453   5.626   4.843   4.789 -0.6245  0.0320  0.7043
  345MOL0     C46454   5.785   4.829   4.807 -0.2283 -0.0822  0.5372
  345MOL0     C46455   5.838   4.829   4.952 -0.1594 -1.3630  0.5079
  345MOL0     C46456   5.980   4.781   4.957  0.5878  0.8154  0.0348
  345MOL0     N46457   6.036   4.786   5.092 -0.0679  0.5135  0.0105
  345MOL0     C46458   6.107   4.902   5.142  0.1148 -0.1110  0.0032
  345MOL0     C46459   6.113   4.877   5.275  0.2728 -0.2647  0.4119
  345MOL0     C46460   6.187   4.964   5.369 -0.9032  0.1350  0.5453
  345MOL0     C46461   6.124   4.968   5.504 -0.3818 -0.5889  0.0540
  345MOL0     C46462   6.185   5.084   5.581 -0.3202  0.0197  0.5905
  345MOL0     C46463   6.132   5.065   5.725 -0.0483  0.0811  0.0095
  345MOL0     O46464   6.224   4.985   5.804  0.8163  0.3425  0.0333
  345MOL0     C46465   6.174   4.957   5.935  0.3259  0.2310  0.5005
  345MOL0     C46466   6.071   5.031   5.997 -0.9212  0.3941 -0.3000
  345MOL0     C46467   6.018   4.983   6.115 -0.9939  0.1235 -0.3926
  345MOL0     C46468   5.901   5.061   6.156 -1.2527  0.7401 -0.1115
  345MOL0     C46469   6.081   4.881   6.196  0.5299 -0.3521 -1.2207
  345MOL0     C46470   6.046   4.835   6.338 -0.7817 -1.6164  0.7802
  345MOL0     O46471   6.077   4.709   6.373  0.2767 -0.3952  0.5817
  345MOL0     C46472   6.024   4.672   6.495 -0.2443 -0.2404  0.8690
  345MOL0     C46473   5.901   4.623   6.483  0.2375 -0.3760 -0.0903
  345MOL0     C46474   5.824   4.590   6.594 -0.3959  0.0436  1.1335
  345MOL0     C46475   5.874   4.630   6.715  0.4011  0.2592  0.6489
  345MOL0     O46476   5.802   4.606   6.831 -0.0346 -0.5573 -0.4670
  345MOL0     C46477   5.712   4.708   6.855  0.1095  0.2692 -0.1541
  345MOL0     C46478   5.576   4.657   6.877 -0.3024 -0.2177  0.2017
  345MOL0     C46479   5.474   4.769   6.917 -0.2194  0.1843 -0.4268
  345MOL0     C46480   5.330   4.735   6.870 -0.9085  0.6356 -0.6990
  345MOL0     C46481   5.221   4.810   6.939 -0.4108 -0.0169 -0.1953
  345MOL0     C46482   5.087   4.790   6.873 -0.3626  0.4163  0.2294
  345MOL0     C46483   4.971   4.843   6.946  0.3204 -0.0839 -0.0605
  345MOL0     C46484   4.919   4.746   7.052  0.4137 -0.2740  0.4405
  345MOL0    Cl46485   4.832   4.833   7.186 -0.2530 -0.0539  0.2615
  345MOL0     C46486   6.004   4.681   6.736  0.4717 -0.4132  0.4842
  345MOL0     C46487   6.075   4.705   6.619 -0.2992 -0.5035  0.4076
  345MOL0     O46488   6.012   4.923   6.414  0.5250  0.0830  0.4286
  345MOL0     C46489   6.188   4.825   6.141 -0.4551  0.7866 -0.6910
  345MOL0     C46490   6.240   4.859   6.014 -1.0007  0.2257 -0.0313
  345MOL0     N46491   6.053   4.750   5.305 -0.1061  0.1495 -0.0804
  345MOL0     N46492   6.017   4.694   5.195  0.5981  0.5916  0.2500
  345MOL0     C46493   5.063   5.258   4.640  0.8645 -0.5852  0.2366
  345MOL0     C46494   4.968   5.232   4.536  0.2244  0.3968  1.3550
  345MOL0     C46495   4.783   5.168   4.122  0.3967 -0.8688 -0.6546
  345MOL0     C46496   4.771   5.217   3.994  0.3215 -0.0121  1.3776
  345MOL0     C46497   4.646   5.257   3.935 -0.6621 -0.4985  0.3467
  345MOL0     C46498   4.534   5.262   4.024 -0.6325  0.9693  0.6023
  345MOL0     O46499   4.419   5.309   3.966 -0.1789  0.2976 -1.2264
  345MOL0     C46500   4.293   5.311   4.031 -0.2640  0.7399  0.2797
  345MOL0     C46501   4.260   5.439   4.098 -0.1107  0.7598 -0.3271
  345MOL0     C46502   4.260   5.553   3.996  0.6438 -0.6545 -0.8948
  345MOL0     C46503   4.192   5.671   4.076  0.0404  0.1289  0.6089
  345MOL0     C46504   4.185   5.788   3.983  0.4935  0.3291 -0.4074
  345MOL0     C46505   4.192   5.895   3.925 -0.4479 -0.3736 -0.1553
  345MOL0     C46506   4.545   5.211   4.153  0.1100 -0.1867 -0.0454
  345MOL0     C46507   4.668   5.171   4.203  0.5297  0.5856  0.4011
  345MOL0     H46508   5.194   5.116   4.300 -0.7130 -0.2297 -0.2400
  345MOL0     H46509   5.344   5.159   4.476 -0.3658  1.6116  0.0170
  345MOL0     H46510   5.200   5.234   4.930  0.7115 -1.3655  1.7739
  345MOL0     H46511   5.201   5.084   4.829 -0.5731  0.5009  1.5239
  345MOL0     H46512   5.447   5.172   4.964  0.5678  1.0465 -0.7948
  345MOL0     H46513   5.334   5.042   5.003 -0.5129  1.7847  1.1775
  345MOL0     H46514   5.371   4.923   4.806 -0.6838  0.0214  0.5337
  345MOL0     H46515   5.456   5.058   4.726 -0.6871  0.2925  0.5996
  345MOL0     H46516   5.635   5.046   4.887 -0.6454  1.0209 -1.6628
  345MOL0     H46517   5.554   4.916   4.975  2.6396  0.4946  1.0712
  345MOL0     H46518   5.567   4.752   4.803 -2.5055  1.1234  0.1907
  345MOL0     H46519   5.612   4.862   4.683 -2.2905  0.2420  0.9388
  345MOL0     H46520   5.808   4.736   4.754  3.1077  1.5234 -1.1328
  345MOL0     H46521   5.831   4.914   4.757  0.5147 -2.6776 -3.7456
  345MOL0     H46522   5.807   4.923   5.000 -1.1623 -1.0735 -0.6488
  345MOL0     H46523   5.777   4.761   5.013 -2.2781 -0.0743 -0.0739
  345MOL0     H46524   6.050   4.841   4.898  0.1829  1.8406  0.5546
  345MOL0     H46525   5.983   4.677   4.923 -0.5228 -0.0663  2.4206
  345MOL0     H46526   6.146   4.992   5.095 -3.6410  3.2734  2.6458
  345MOL0     H46527   6.291   4.930   5.368 -0.8848  0.1348 -1.2225
  345MOL0     H46528   6.190   5.064   5.325  0.0123 -0.5899 -1.1621
  345MOL0     H46529   6.147   4.883   5.569  1.3983  1.5033  2.3607
  345MOL0     H46530   6.015   4.980   5.505 -0.2987  0.3039 -0.5087
  345MOL0     H46531   6.137   5.170   5.533 -1.9507 -0.7363  0.7767
  345MOL0     H46532   6.293   5.093   5.569 -0.6689  1.8895 -2.2081
  345MOL0     H46533   6.033   5.021   5.738  1.0954 -2.3232  1.3357
  345MOL0     H46534   6.136   5.169   5.758  0.0865  0.3471 -0.8360
  345MOL0     H46535   6.013   5.109   5.949 -1.5493  0.8771  1.2051
  345MOL0     H46536   5.857   5.129   6.082 -1.1002  0.5640 -0.3648
  345MOL0     H46537   5.827   4.988   6.189  2.0926 -1.5385  3.2864
  345MOL0     H46538   5.938   5.120   6.241  1.3521 -0.9082  0.0008
  345MOL0     H46539   5.861   4.610   6.383  1.7803  0.9034 -0.9271
  345MOL0     H46540   5.721   4.554   6.595  0.7676 -3.9011  3.5522
  345MOL0     H46541   5.746   4.758   6.946  1.4203 -0.7229 -0.0673
  345MOL0     H46542   5.707   4.774   6.768  0.3067  0.7697  0.2098
  345MOL0     H46543   5.549   4.597   6.789  1.1946  0.4101 -0.7178
  345MOL0     H46544   5.577   4.588   6.962  1.7277  1.1431  1.3619
  345MOL0     H46545   5.505   4.858   6.861 -1.3799 -0.8668 -2.9085
  345MOL0     H46546   5.473   4.785   7.025  0.9753  0.8538 -0.4970
  345MOL0     H46547   5.336   4.769   6.766  1.3812  4.0779  0.3570
  345MOL0     H46548   5.314   4.627   6.874  1.9392  0.1442 -0.4449
  345MOL0     H46549   5.248   4.916   6.930  1.1081 -0.5432 -2.5692
  345MOL0     H46550   5.222   4.764   7.038  0.9609 -0.6183 -0.4674
  345MOL0     H46551   5.096   4.846   6.780  2.5580 -1.5167 -0.8026
  345MOL0     H46552   5.075   4.687   6.837 -1.5082  0.4968  0.3380
  345MOL0     H46553   4.894   4.861   6.870  1.1952 -0.4641 -1.0589
  345MOL0     H46554   4.997   4.936   6.998 -1.7133  0.0721  0.8068
  345MOL0     H46555   5.001   4.685   7.092  0.2511  1.8503  4.4420
  345MOL0     H46556   4.852   4.680   6.995 -3.8413  2.2935  2.0489
  345MOL0     H46557   6.037   4.711   6.835 -3.5135  1.7279  1.3365
  345MOL0     H46558   6.174   4.750   6.624 -1.3443  3.0468 -4.1100
  345MOL0     H46559   6.237   4.745   6.194 -0.6916  1.6768  0.9259
  345MOL0     H46560   6.325   4.802   5.978 -1.4515  0.2045 -1.1134
  345MOL0     H46561   5.038   5.295   4.739 -2.7682  0.7354 -1.0291
  345MOL0     H46562   4.862   5.246   4.557 -0.0941 -0.1738  0.2158
  345MOL0     H46563   4.863   5.243   3.943 -1.1128  1.4489 -0.5986
  345MOL0     H46564   4.642   5.291   3.832  6.1571  2.5212  0.5107
  345MOL0     H46565   4.212   5.287   3.962  0.1486 -2.3495  0.7379
  345MOL0     H46566   4.298   5.233   4.108 -0.1143  0.8195  0.3493
  345MOL0     H46567   4.335   5.465   4.173  0.0596 -0.6820  0.0155
  345MOL0     H46568   4.171   5.416   4.157 -0.0413 -0.5268 -0.6966
  345MOL0     H46569   4.208   5.528   3.903  1.3996 -0.4539 -1.3847
  345MOL0     H46570   4.365   5.568   3.968  0.8657  0.3986  0.3825
  345MOL0     H46571   4.246   5.708   4.164  0.3252 -1.4157  1.1204
  345MOL0     H46572   4.089   5.642   4.098 -0.6022  1.0301 -1.0709
  345MOL0     H46573   4.202   5.988   3.872 -1.5290  0.1408  0.5192
  345MOL0     H46574   4.464   5.223   4.223  0.1771  1.8908 -0.2783
  345MOL0     H46575   4.671   5.131   4.304  0.3292 -2.2384 -0.6205
  346MOL0     O46576   2.813   8.849  10.032 -0.2206 -0.2684  0.1872
  346MOL0     C46577   2.732   8.872  10.121  0.6912 -0.2712  0.6192
  346MOL0     O46578   2.682   8.778  10.213 -0.0147 -0.0555  0.7959
  346MOL0     C46579   2.758   8.672  10.253  0.5723  0.1560 -0.5641
  346MOL0     C46580   2.737   8.637  10.383 -0.4238  1.8619 -0.5208
  346MOL0     C46581   2.800   8.516  10.428  1.4610 -0.3026  0.2921
  346MOL0     C46582   2.871   8.438  10.345  0.6744  0.4819 -0.2316
  346MOL0     O46583   2.923   8.322  10.401  0.0151  1.1449  0.0054
  346MOL0     C46584   3.031   8.257  10.330  0.2104  1.1278 -0.3404
  346MOL0     C46585   3.067   8.134  10.406  0.1503 -0.5618 -0.4205
  346MOL0     C46586   2.958   8.034  10.408 -0.2052  0.1250 -0.4944
  346MOL0     C46587   2.984   7.936  10.530  0.6436  0.4574  1.1955
  346MOL0     C46588   2.930   7.964  10.664  0.4813 -0.1020  0.1132
  346MOL0     C46589   2.974   7.845  10.762  0.8170 -0.0503 -0.7147
  346MOL0     C46590   2.906   7.866  10.899  0.5501  1.1408 -0.4447
  346MOL0     C46591   2.946   8.001  10.977  0.1385 -0.0255  0.3750
  346MOL0     N46592   3.090   8.007  10.997 -0.6642  0.2448 -0.0672
  346MOL0     C46593   3.182   7.900  11.017  0.0951  1.1008 -1.0176
  346MOL0     C46594   3.300   7.949  10.992  0.7193 -0.2334  0.1885
  346MOL0     C46595   3.438   7.892  10.991  0.0183  0.0858 -0.0425
  346MOL0     C46596   3.535   7.927  11.100  0.2216 -0.4040 -0.0804
  346MOL0     C46597   3.674   7.862  11.090  0.9178 -0.5092  0.9621
  346MOL0     C46598   3.780   7.899  11.202  0.0187  0.1479  0.3693
  346MOL0     O46599   3.761   7.827  11.324 -0.2389 -0.4997  0.2010
  346MOL0     C46600   3.852   7.837  11.425 -1.1946 -0.0645  0.7718
  346MOL0     C46601   3.982   7.882  11.395 -0.3234 -0.4759 -0.4872
  346MOL0     C46602   4.090   7.890  11.492  0.3413 -1.0671  0.0676
  346MOL0     C46603   4.224   7.946  11.467 -0.8130 -0.7462  0.1502
  346MOL0     C46604   4.056   7.847  11.620 -0.3649 -0.1105 -0.7188
  346MOL0     C46605   4.157   7.846  11.736  0.8006  0.1841  0.1617
  346MOL0     O46606   4.163   7.725  11.798  0.1133  0.0771 -0.1176
  346MOL0     C46607   4.258   7.708  11.891 -1.1765 -0.9165 -1.1697
  346MOL0     C46608   4.395   7.726  11.864 -1.0338 -0.0883  0.0880
  346MOL0     C46609   4.487   7.709  11.964  0.3095  0.5383  0.5584
  346MOL0     C46610   4.442   7.665  12.096 -0.0367 -0.6356  0.1671
  346MOL0     O46611   4.520   7.649  12.207 -0.7881  0.2527  0.3194
  346MOL0     C46612   4.597   7.764  12.251 -0.0781  1.0991  0.4427
  346MOL0     C46613   4.526   7.835  12.365 -0.6940 -0.3259  0.1995
  346MOL0     C46614   4.568   7.779  12.496  0.3150  0.1093  0.5248
  346MOL0     C46615   4.461   7.801  12.601 -0.3076  0.7466 -0.1281
  346MOL0     C46616   4.526   7.787  12.749  0.2951 -0.0686 -0.4602
  346MOL0     C46617   4.593   7.653  12.779  0.5519  0.3018  0.3618
  346MOL0     C46618   4.662   7.630  12.912 -0.2277 -0.7463 -1.1862
  346MOL0     C46619   4.765   7.737  12.956  0.1190 -0.1804  0.5068
  346MOL0    Cl46620   4.830   7.693  13.106  0.6409  0.1304 -0.3173
  346MOL0     C46621   4.306   7.643  12.117  1.1113 -0.3246  0.2041
  346MOL0     C46622   4.213   7.675  12.021  0.1731  0.0687  0.1127
  346MOL0     O46623   4.224   7.942  11.762 -0.3321 -0.0804  0.2301
  346MOL0     C46624   3.928   7.798  11.655  1.1366  0.1031 -0.6980
  346MOL0     C46625   3.827   7.784  11.554 -0.4288 -0.7575 -0.4258
  346MOL0     N46626   3.283   8.075  10.950  0.3010  0.5894 -0.6525
  346MOL0     N46627   3.166   8.115  10.967  0.5624 -0.6359 -0.5842
  346MOL0     C46628   2.874   8.464  10.205  0.1211 -0.0095  1.3441
  346MOL0     C46629   2.804   8.578  10.161 -0.2636 -0.0442  0.1261
  346MOL0     C46630   2.662   9.006  10.115 -0.5993  0.5720  0.4964
  346MOL0     C46631   2.696   9.107  10.024 -0.1738 -0.1054  0.4447
  346MOL0     C46632   2.618   9.225  10.008  0.6984 -0.0215  0.5033
  346MOL0     C46633   2.497   9.242  10.082  0.4189  0.4631  0.0065
  346MOL0     O46634   2.429   9.364  10.076  0.0452 -1.2711 -0.7330
  346MOL0     C46635   2.297   9.389  10.141 -0.1126  0.6297  0.0713
  346MOL0     C46636   2.182   9.321  10.068 -0.3684 -0.1908 -0.9659
  346MOL0     C46637   2.153   9.370   9.935 -0.3967 -0.1814  0.7682
  346MOL0     C46638   2.076   9.503   9.947  0.0170 -0.6380  0.9717
  346MOL0     C46639   2.052   9.549   9.805  0.3469  0.3234 -0.4887
  346MOL0     C46640   2.033   9.606   9.698 -0.2037  1.1187 -0.3006
  346MOL0     C46641   2.465   9.151  10.183 -0.0438  0.6647  0.0829
  346MOL0     C46642   2.549   9.037  10.194  0.4265  0.2665 -0.3504
  346MOL0     H46643   2.683   8.698  10.454 -0.8735  0.4338  0.4041
  346MOL0     H46644   2.787   8.484  10.531  1.7419 -0.6210  0.2328
  346MOL0     H46645   2.997   8.224  10.232 -1.3686 -3.1337  1.3913
  346MOL0     H46646   3.116   8.324  10.315  0.7345  0.1627 -1.8428
  346MOL0     H46647   3.163   8.094  10.370  0.4238  0.2506 -0.6223
  346MOL0     H46648   3.092   8.156  10.510  0.5442 -4.5252  0.5068
  346MOL0     H46649   2.859   8.079  10.422 -0.3461 -0.6982  1.6331
  346MOL0     H46650   2.966   7.985  10.311 -0.0563  0.8690 -0.8695
  346MOL0     H46651   2.937   7.842  10.500  1.3427  0.1916  0.8913
  346MOL0     H46652   3.088   7.903  10.526  0.3058 -0.5330 -1.4128
  346MOL0     H46653   2.970   8.061  10.694 -2.2551  0.0319  4.1542
  346MOL0     H46654   2.821   7.966  10.659  0.5316  1.1134 -3.5139
  346MOL0     H46655   2.934   7.748  10.729 -2.1214 -1.4746  5.5496
  346MOL0     H46656   3.083   7.844  10.762  0.8763  2.0298 -1.6504
  346MOL0     H46657   2.802   7.879  10.870  0.3366  1.1303  0.3004
  346MOL0     H46658   2.922   7.776  10.959 -2.1283 -0.6876 -2.3014
  346MOL0     H46659   2.894   8.012  11.072  2.1420  0.5441  1.4650
  346MOL0     H46660   2.914   8.090  10.923 -4.4970 -0.9669  1.1361
  346MOL0     H46661   3.161   7.802  11.059  1.7054  2.0663  2.4993
  346MOL0     H46662   3.438   7.785  10.966  1.8737  0.0100  0.0897
  346MOL0     H46663   3.487   7.927  10.900  1.4173  1.7186  1.2663
  346MOL0     H46664   3.509   7.895  11.202  0.8476  0.3848  0.3403
  346MOL0     H46665   3.543   8.035  11.113 -0.9083 -0.5112  1.9970
  346MOL0     H46666   3.713   7.898  10.995 -1.4952 -0.8949 -0.2455
  346MOL0     H46667   3.679   7.753  11.082  1.2371 -0.6005  2.1384
  346MOL0     H46668   3.777   8.007  11.215 -0.5511  0.2068 -0.2256
  346MOL0     H46669   3.880   7.881  11.161  0.0878 -0.3859  0.7654
  346MOL0     H46670   4.016   7.906  11.295  0.6085  0.0403 -0.0640
  346MOL0     H46671   4.247   8.023  11.542  0.6255  0.0399 -1.0244
  346MOL0     H46672   4.302   7.870  11.478  0.2129  0.3534  0.6987
  346MOL0     H46673   4.235   7.987  11.366  1.1684  1.6761  1.2149
  346MOL0     H46674   4.422   7.777  11.772  0.4214  2.8246  1.9704
  346MOL0     H46675   4.591   7.724  11.938  1.0600 -2.7267  1.2459
  346MOL0     H46676   4.693   7.722  12.283 -0.0971  0.2584 -0.5498
  346MOL0     H46677   4.609   7.838  12.171 -1.5426  2.0143  1.0341
  346MOL0     H46678   4.576   7.933  12.363  3.6150 -2.3085 -1.4690
  346MOL0     H46679   4.417   7.839  12.355 -0.6182 -0.4624 -0.8513
  346MOL0     H46680   4.661   7.825  12.530 -1.2091  3.2657  0.8092
  346MOL0     H46681   4.577   7.671  12.483  0.5767  0.1581  0.3027
  346MOL0     H46682   4.427   7.905  12.591 -1.3687  0.6447  1.8643
  346MOL0     H46683   4.367   7.746  12.596 -0.2783  0.4602  1.8020
  346MOL0     H46684   4.448   7.793  12.825  1.8495  2.3446  1.0888
  346MOL0     H46685   4.602   7.865  12.760  1.7589 -1.2284 -1.8561
  346MOL0     H46686   4.522   7.571  12.768  0.5084  0.2912  0.7051
  346MOL0     H46687   4.668   7.625  12.705  0.2594 -2.4237  1.0049
  346MOL0     H46688   4.700   7.528  12.920  1.1256 -0.2710 -1.3518
  346MOL0     H46689   4.593   7.624  12.996 -0.9937  0.6602 -1.6886
  346MOL0     H46690   4.703   7.828  12.962 -0.0646 -0.1388 -1.3234
  346MOL0     H46691   4.839   7.734  12.875  0.1297 -1.8426  0.5598
  346MOL0     H46692   4.264   7.613  12.212 -0.3958  4.1930  1.2563
  346MOL0     H46693   4.105   7.660  12.018 -0.3219  3.1612 -2.0544
  346MOL0     H46694   3.909   7.771  11.758 -2.8825  0.3749 -1.2288
  346MOL0     H46695   3.736   7.732  11.584 -1.9231  3.1567  2.6716
  346MOL0     H46696   2.913   8.393  10.133 -0.5031  0.4978  0.4971
  346MOL0     H46697   2.779   8.598  10.057  0.1620  1.1943  0.2454
  346MOL0     H46698   2.773   9.095   9.949  0.1117 -0.0888  0.7319
  346MOL0     H46699   2.636   9.310   9.943 -1.3990 -2.5369 -3.8449
  346MOL0     H46700   2.286   9.359  10.245 -0.6550  3.4388  0.9006
  346MOL0     H46701   2.281   9.497  10.141  1.7457  0.9398 -0.0450
  346MOL0     H46702   2.096   9.309  10.134  0.6514  1.4904  0.7597
  346MOL0     H46703   2.220   9.219  10.059 -0.9832 -0.5255  0.0425
  346MOL0     H46704   2.093   9.295   9.884 -0.8562  0.2801  0.6191
  346MOL0     H46705   2.252   9.383   9.889  1.3721 -2.9903  3.3944
  346MOL0     H46706   2.147   9.572   9.994  1.1390 -0.4437 -0.9137
  346MOL0     H46707   1.988   9.501  10.012 -0.4483  3.2207  0.7027
  346MOL0     H46708   2.032   9.655   9.603  4.1163  1.0747 -0.5734
  346MOL0     H46709   2.384   9.159  10.255 -1.2364  0.3943 -1.1827
  346MOL0     H46710   2.503   8.975  10.270 -0.5976  0.0143 -1.1489
  347MOL0     O46711   7.165  10.186   2.565  0.0281  0.7405  0.0032
  347MOL0     C46712   7.183  10.275   2.644  0.1295 -0.1326 -0.0539
  347MOL0     O46713   7.085  10.353   2.699  0.2380 -0.4667 -0.0261
  347MOL0     C46714   6.951  10.346   2.667 -0.6735 -0.1468 -0.1693
  347MOL0     C46715   6.883  10.473   2.679  0.0991  0.1533  0.5719
  347MOL0     C46716   6.745  10.480   2.654 -0.6913  0.2533  0.3484
  347MOL0     C46717   6.681  10.360   2.630  0.7266  0.9185  0.1285
  347MOL0     O46718   6.549  10.362   2.602 -0.0992  0.0546  0.0769
  347MOL0     C46719   6.480  10.475   2.546 -0.0664  0.3879  0.0366
  347MOL0     C46720   6.335  10.427   2.519 -0.4129 -0.1734 -0.5437
  347MOL0     C46721   6.249  10.538   2.455 -0.9857 -0.4588 -0.1521
  347MOL0     C46722   6.104  10.513   2.484  0.1176 -0.0605 -0.0583
  347MOL0     C46723   6.026  10.627   2.397  0.0013 -0.0412  0.1992
  347MOL0     C46724   5.879  10.644   2.445  0.0509  0.0337  0.4783
  347MOL0     C46725   5.814  10.759   2.367  0.6133  0.4909 -0.4432
  347MOL0     C46726   5.876  10.899   2.381 -0.0449 -0.0946 -0.5184
  347MOL0     N46727   5.772  10.994   2.328 -0.7298 -0.4953 -0.1690
  347MOL0     C46728   5.737  10.994   2.195  0.0751 -0.6017  0.3357
  347MOL0     C46729   5.616  11.070   2.195 -0.3132  0.0065 -0.3447
  347MOL0     C46730   5.540  11.105   2.083  0.7164  0.1014  0.4464
  347MOL0     C46731   5.432  11.011   2.026  0.1044  0.5293 -0.4134
  347MOL0     C46732   5.312  11.068   1.939  0.5640  0.1865 -0.5301
  347MOL0     C46733   5.202  10.970   1.884  0.6305  0.7886 -0.2732
  347MOL0     O46734   5.273  10.884   1.790  0.5985 -0.5487 -1.4090
  347MOL0     C46735   5.229  10.754   1.794 -1.2403 -0.6374 -0.9293
  347MOL0     C46736   5.100  10.707   1.833 -0.2558  1.0155 -0.4314
  347MOL0     C46737   5.059  10.570   1.812  0.9072  0.6271  0.6380
  347MOL0     C46738   4.929  10.538   1.867  0.0353  1.0085 -0.3148
  347MOL0     C46739   5.150  10.473   1.758  0.0264  0.2333  0.0031
  347MOL0     C46740   5.130  10.326   1.775  0.0705  0.6542 -0.1361
  347MOL0     O46741   5.019  10.264   1.831 -0.2417 -0.7486 -0.2631
  347MOL0     C46742   5.021  10.131   1.879 -0.1353 -0.2495  0.0030
  347MOL0     C46743   5.019  10.012   1.804 -0.5444 -0.1805 -0.1915
  347MOL0     C46744   5.037   9.887   1.864  0.3689 -0.6357  0.4411
  347MOL0     C46745   5.043   9.871   1.997 -0.2132 -0.3808 -0.0024
  347MOL0     O46746   5.077   9.758   2.066 -0.4796 -0.7155 -0.2890
  347MOL0     C46747   5.189   9.703   2.004  0.4196 -0.2708 -0.1385
  347MOL0     C46748   5.278   9.625   2.102  0.8491 -0.1685  0.3569
  347MOL0     C46749   5.343   9.727   2.196  0.6617  0.5278 -0.8259
  347MOL0     C46750   5.441   9.646   2.277 -1.0385 -0.3155 -0.1542
  347MOL0     C46751   5.504   9.730   2.387  0.6928  0.1262 -0.1716
  347MOL0     C46752   5.596   9.638   2.477  0.6688 -0.4204  0.3770
  347MOL0     C46753   5.678   9.723   2.564 -0.5526 -0.6246  0.2793
  347MOL0     C46754   5.786   9.641   2.640  0.3252 -0.3297  0.9730
  347MOL0    Cl46755   5.906   9.739   2.731 -0.2269 -0.0506  0.2260
  347MOL0     C46756   5.055   9.987   2.071  0.1945 -0.3962 -0.1090
  347MOL0     C46757   5.033  10.111   2.014  0.3307  0.4084  0.2111
  347MOL0     O46758   5.227  10.268   1.729 -0.0682 -0.6452 -0.7566
  347MOL0     C46759   5.279  10.530   1.711  0.1669 -0.0048 -0.1313
  347MOL0     C46760   5.320  10.668   1.731  0.6228  0.1311 -0.6967
  347MOL0     N46761   5.611  11.129   2.325  0.5192 -0.3637 -0.0925
  347MOL0     N46762   5.699  11.083   2.398 -0.2460  0.0420 -0.1916
  347MOL0     C46763   6.752  10.238   2.627 -0.1175 -0.3390  0.3668
  347MOL0     C46764   6.882  10.227   2.653  0.5311  0.1282  0.1889
  347MOL0     C46765   7.320  10.300   2.676 -0.2932  0.4963  0.2834
  347MOL0     C46766   7.354  10.373   2.788 -0.6255 -0.0828  0.1414
  347MOL0     C46767   7.489  10.397   2.807 -0.3503 -1.5360 -0.3896
  347MOL0     C46768   7.595  10.370   2.713  0.7901  0.0270 -0.1033
  347MOL0     O46769   7.730  10.394   2.726 -0.1896 -0.0031 -0.0626
  347MOL0     C46770   7.780  10.447   2.848  0.7231  0.9499 -0.6593
  347MOL0     C46771   7.752  10.601   2.840  0.3825  0.6964 -0.8453
  347MOL0     C46772   7.804  10.676   2.964 -0.7935  0.7254  0.2802
  347MOL0     C46773   7.941  10.632   3.011  0.1365 -0.6038  0.2785
  347MOL0     C46774   7.995  10.728   3.111  0.8725  0.5348 -0.0662
  347MOL0     C46775   8.036  10.812   3.193  0.0713  0.6702 -0.6408
  347MOL0     C46776   7.553  10.293   2.600  0.8223 -0.0698 -0.6152
  347MOL0     C46777   7.417  10.255   2.591 -0.2808  1.7382  0.2427
  347MOL0     H46778   6.944  10.558   2.706  0.8897 -0.5808  1.1228
  347MOL0     H46779   6.700  10.575   2.628  0.9954  0.5392 -1.7660
  347MOL0     H46780   6.483  10.553   2.623 -0.0968 -0.2773  0.7229
  347MOL0     H46781   6.535  10.499   2.455  3.0414 -0.3722  1.5458
  347MOL0     H46782   6.352  10.345   2.448  1.9106  1.4544 -2.0317
  347MOL0     H46783   6.290  10.388   2.611 -3.3703 -1.3386 -2.3180
  347MOL0     H46784   6.282  10.636   2.490 -4.4963  0.9376 -0.3376
  347MOL0     H46785   6.273  10.533   2.348  0.7563 -2.9008  0.2578
  347MOL0     H46786   6.072  10.415   2.448  0.6706 -0.4065  0.3886
  347MOL0     H46787   6.073  10.518   2.589  0.4689 -3.2892  0.3022
  347MOL0     H46788   6.080  10.722   2.398 -1.5092  0.8451  0.6052
  347MOL0     H46789   6.028  10.582   2.298  0.5028  0.3225  0.0419
  347MOL0     H46790   5.811  10.560   2.428  0.4955  0.2386 -2.9566
  347MOL0     H46791   5.874  10.667   2.552 -0.7311 -2.1647  0.9700
  347MOL0     H46792   5.804  10.732   2.262 -5.6725  4.7824 -1.4642
  347MOL0     H46793   5.719  10.769   2.420  1.5889  3.7859  0.9942
  347MOL0     H46794   5.962  10.905   2.314 -0.6563  0.3193 -1.2734
  347MOL0     H46795   5.910  10.926   2.482 -0.5965 -0.0132 -0.3528
  347MOL0     H46796   5.781  10.947   2.107 -1.6924 -1.0809 -0.3236
  347MOL0     H46797   5.500  11.206   2.100 -0.9621 -0.9385  3.4658
  347MOL0     H46798   5.612  11.125   2.004 -0.8050  0.3906 -0.9209
  347MOL0     H46799   5.386  10.963   2.113  2.5627  1.4516  1.4940
  347MOL0     H46800   5.484  10.935   1.967 -0.3621 -1.1123  1.1899
  347MOL0     H46801   5.353  11.118   1.851 -0.0823  0.8272 -0.4720
  347MOL0     H46802   5.254  11.132   2.006  2.2684 -0.8003  2.0305
  347MOL0     H46803   5.119  11.031   1.847 -0.5583  0.5856  1.8602
  347MOL0     H46804   5.162  10.918   1.971 -0.2355  0.0558 -1.0958
  347MOL0     H46805   5.034  10.775   1.886 -3.1145 -2.7769  1.3325
  347MOL0     H46806   4.859  10.484   1.803  0.2767 -0.7468  0.8301
  347MOL0     H46807   4.948  10.482   1.959 -3.0047 -0.8587 -0.7022
  347MOL0     H46808   4.868  10.624   1.897  0.8850  1.5994 -0.2274
  347MOL0     H46809   5.027  10.028   1.697  0.5299  2.8219  0.2237
  347MOL0     H46810   5.041   9.801   1.798 -1.0376 -1.9008  1.8979
  347MOL0     H46811   5.161   9.633   1.926  1.8859 -0.3389 -0.6340
  347MOL0     H46812   5.243   9.780   1.947 -1.0066  0.6006 -0.3646
  347MOL0     H46813   5.229   9.536   2.142 -0.3353  0.2633 -0.0999
  347MOL0     H46814   5.347   9.580   2.030 -0.9969  0.9498 -2.2837
  347MOL0     H46815   5.271   9.764   2.269  0.1583  0.5072 -1.3062
  347MOL0     H46816   5.393   9.805   2.139  0.5949  0.9674 -0.2905
  347MOL0     H46817   5.386   9.564   2.323 -2.9020  1.3907  0.8190
  347MOL0     H46818   5.525   9.606   2.220  1.0586 -0.0914  2.5382
  347MOL0     H46819   5.433   9.779   2.454  1.6414  3.8630 -1.6770
  347MOL0     H46820   5.556   9.809   2.333 -1.8420  1.2582 -1.0782
  347MOL0     H46821   5.544   9.556   2.528  2.4456 -1.9093 -0.0836
  347MOL0     H46822   5.668   9.582   2.417  0.0498 -0.4386 -0.3606
  347MOL0     H46823   5.609   9.765   2.638 -0.6292 -2.9594  1.6490
  347MOL0     H46824   5.727   9.795   2.499  2.3403 -2.5737  0.1103
  347MOL0     H46825   5.843   9.585   2.565 -1.4834 -0.0530 -0.6991
  347MOL0     H46826   5.731   9.587   2.717  2.3388  0.2092  2.8874
  347MOL0     H46827   5.067   9.985   2.179  0.6735  4.4136  0.1260
  347MOL0     H46828   5.048  10.201   2.073 -1.9560  2.0601 -1.5327
  347MOL0     H46829   5.353  10.465   1.668  2.3388  2.0610  0.2830
  347MOL0     H46830   5.420  10.688   1.693 -0.0968 -0.1688 -2.9073
  347MOL0     H46831   6.705  10.141   2.616 -3.5159  0.7473  3.0985
  347MOL0     H46832   6.937  10.134   2.669  0.9533 -0.0412 -2.0039
  347MOL0     H46833   7.286  10.401   2.868 -1.6430 -0.8281 -0.4305
  347MOL0     H46834   7.502  10.438   2.906  0.0719 -2.4369 -0.0589
  347MOL0     H46835   7.734  10.405   2.938  2.7422 -1.0650 -0.4731
  347MOL0     H46836   7.886  10.420   2.850  0.3741 -0.5411  1.5801
  347MOL0     H46837   7.645  10.614   2.820 -0.5261 -4.0823 -0.3607
  347MOL0     H46838   7.810  10.634   2.753  1.6575 -0.5941 -0.5321
  347MOL0     H46839   7.739  10.651   3.049  0.8740 -0.5397  1.2432
  347MOL0     H46840   7.807  10.781   2.933  0.1584  1.2919  2.1579
  347MOL0     H46841   8.007  10.643   2.925 -2.8403  1.3728 -1.9588
  347MOL0     H46842   7.943  10.528   3.043 -0.3349 -1.1586 -1.4224
  347MOL0     H46843   8.053  10.881   3.274  2.4617 -0.1195 -0.4159
  347MOL0     H46844   7.633  10.252   2.539  0.4740 -1.5291 -0.1172
  347MOL0     H46845   7.392  10.194   2.504 -1.8469  1.4725  0.8495
  348MOL0     O46846   5.207   2.659   2.012  0.4219 -0.1694 -0.4252
  348MOL0     C46847   5.148   2.568   2.078  0.1911 -0.4029 -0.0367
  348MOL0     O46848   5.015   2.543   2.096  0.4608  0.7845  0.5552
  348MOL0     C46849   4.928   2.614   2.017 -0.0515 -0.1353 -0.5421
  348MOL0     C46850   4.888   2.566   1.897  0.0763  0.7469 -0.2935
  348MOL0     C46851   4.788   2.643   1.820 -0.8683  0.2417 -0.1631
  348MOL0     C46852   4.742   2.771   1.864 -1.0353  0.1234  0.5110
  348MOL0     O46853   4.652   2.837   1.794 -0.4072  0.4470 -0.0329
  348MOL0     C46854   4.699   2.955   1.726 -0.0173  0.4383  0.5407
  348MOL0     C46855   4.576   3.009   1.648 -0.2833 -0.1774 -0.2076
  348MOL0     C46856   4.600   3.152   1.580 -0.1710  0.3144 -0.9566
  348MOL0     C46857   4.480   3.184   1.489 -0.8738  0.1476  0.8510
  348MOL0     C46858   4.369   3.252   1.572 -0.0573 -0.1032  0.7693
  348MOL0     C46859   4.236   3.268   1.488  1.3059 -0.1769  0.3026
  348MOL0     C46860   4.134   3.332   1.586 -0.0060  0.6167  0.7869
  348MOL0     C46861   4.005   3.374   1.515 -0.8127  0.3299  0.2451
  348MOL0     N46862   3.948   3.243   1.461 -0.4814 -0.5571 -0.2447
  348MOL0     C46863   3.874   3.157   1.541  0.9624 -0.1933  0.1109
  348MOL0     C46864   3.839   3.054   1.455 -0.0791 -0.0965 -0.7974
  348MOL0     C46865   3.729   2.944   1.490  0.0222 -0.2479 -0.2530
  348MOL0     C46866   3.747   2.807   1.401  0.7963  0.1978 -1.3511
  348MOL0     C46867   3.629   2.713   1.406  0.0221 -0.2736  0.9976
  348MOL0     C46868   3.512   2.764   1.320 -0.0557  0.1577  0.3370
  348MOL0     O46869   3.395   2.687   1.349  0.1760 -0.1438 -0.0640
  348MOL0     C46870   3.277   2.732   1.291  0.7341  0.4724 -0.0497
  348MOL0     C46871   3.259   2.854   1.224 -0.0237  0.2137 -0.7016
  348MOL0     C46872   3.132   2.899   1.178 -0.8812  0.4870 -0.3300
  348MOL0     C46873   3.111   3.035   1.107  0.1209 -0.0187  0.1962
  348MOL0     C46874   3.020   2.819   1.211 -0.2051 -0.7506  0.3128
  348MOL0     C46875   2.878   2.862   1.190 -0.0220  0.4790 -0.2438
  348MOL0     O46876   2.793   2.806   1.274  0.3000 -0.8396 -0.6347
  348MOL0     C46877   2.652   2.801   1.258 -0.1159 -0.3347 -0.3765
  348MOL0     C46878   2.570   2.873   1.168  0.2585  0.0306  0.5713
  348MOL0     C46879   2.433   2.847   1.160  0.7143 -0.0886  0.1264
  348MOL0     C46880   2.372   2.754   1.241 -0.1293  0.3474  0.3377
  348MOL0     O46881   2.235   2.721   1.222 -0.2870 -1.5186 -0.4961
  348MOL0     C46882   2.165   2.685   1.336 -0.0308 -0.3822  0.2692
  348MOL0     C46883   2.024   2.689   1.286 -0.6117  0.3160 -0.7291
  348MOL0     C46884   1.994   2.588   1.175  0.2827  0.6505  0.4552
  348MOL0     C46885   1.923   2.661   1.060 -0.2407  0.7751 -0.0798
  348MOL0     C46886   1.901   2.569   0.940  0.1204  0.3850 -0.1761
  348MOL0     C46887   1.866   2.654   0.821 -0.2260 -0.1776  0.7267
  348MOL0     C46888   1.786   2.570   0.725  0.3556 -0.3044 -0.1831
  348MOL0     C46889   1.811   2.612   0.583 -0.5351 -0.7580  0.6986
  348MOL0    Cl46890   1.699   2.526   0.474 -0.4313 -0.1182 -0.3074
  348MOL0     C46891   2.450   2.688   1.340 -0.0698  0.2200  0.1935
  348MOL0     C46892   2.588   2.704   1.345 -0.2274  0.9378 -0.2636
  348MOL0     O46893   2.846   2.925   1.089 -0.9330 -0.0013 -0.4102
  348MOL0     C46894   3.044   2.697   1.282 -0.4360 -0.5958 -0.2130
  348MOL0     C46895   3.172   2.648   1.312 -0.3496 -0.5519 -0.7511
  348MOL0     N46896   3.892   3.082   1.326 -0.2112  0.3102 -0.1379
  348MOL0     N46897   3.951   3.190   1.329 -0.6460 -0.1714  0.6671
  348MOL0     C46898   4.787   2.817   1.990 -0.4659  0.1181  0.0584
  348MOL0     C46899   4.881   2.739   2.062 -0.5826  0.2854 -0.6841
  348MOL0     C46900   5.226   2.465   2.144  0.4971  0.2754 -1.2392
  348MOL0     C46901   5.170   2.380   2.240  0.3349  0.5429  0.2497
  348MOL0     C46902   5.248   2.298   2.329  0.2937  0.3686 -0.4682
  348MOL0     C46903   5.387   2.304   2.339  1.1778 -0.0831  0.5912
  348MOL0     O46904   5.477   2.248   2.420 -0.2172 -0.1214 -0.5158
  348MOL0     C46905   5.428   2.144   2.516  0.1619 -0.3743 -0.0635
  348MOL0     C46906   5.427   2.007   2.450  0.4104 -0.4295  0.1409
  348MOL0     C46907   5.459   1.889   2.548  0.3162 -0.4218 -0.0313
  348MOL0     C46908   5.344   1.840   2.632 -0.4592  0.5170 -0.3343
  348MOL0     C46909   5.392   1.736   2.725  0.0964  0.1271 -0.2446
  348MOL0     C46910   5.445   1.643   2.788  0.2004 -0.4792 -0.2789
  348MOL0     C46911   5.445   2.380   2.231  0.2438  1.2030  0.3666
  348MOL0     C46912   5.362   2.454   2.142 -0.2039  1.2701 -0.5620
  348MOL0     H46913   4.920   2.463   1.878 -2.0041 -0.0378  0.1761
  348MOL0     H46914   4.765   2.595   1.725  0.0988  1.6192 -1.1351
  348MOL0     H46915   4.740   3.033   1.792  0.0877  1.4807 -0.7163
  348MOL0     H46916   4.788   2.934   1.666 -0.0834  1.6780 -0.0217
  348MOL0     H46917   4.539   2.938   1.573  1.1946 -0.8895 -0.3022
  348MOL0     H46918   4.500   3.021   1.725 -0.8707 -1.3160 -0.5965
  348MOL0     H46919   4.610   3.218   1.666 -0.1080 -0.8176 -0.0696
  348MOL0     H46920   4.686   3.158   1.512  0.4060  0.7675 -0.1978
  348MOL0     H46921   4.520   3.258   1.418  0.7238 -0.4954  1.0440
  348MOL0     H46922   4.444   3.098   1.432 -2.5698  1.3789 -0.0376
  348MOL0     H46923   4.345   3.184   1.654 -0.5785  0.3826  1.0218
  348MOL0     H46924   4.410   3.347   1.606  0.5891 -0.8651  2.2341
  348MOL0     H46925   4.252   3.336   1.405  3.1137 -1.2821 -0.3304
  348MOL0     H46926   4.201   3.173   1.447  4.2824 -0.3061 -2.2743
  348MOL0     H46927   4.106   3.259   1.663 -0.4384  1.5134  1.4998
  348MOL0     H46928   4.174   3.418   1.640 -1.3379  2.8048 -1.4762
  348MOL0     H46929   4.025   3.449   1.438 -0.2828 -1.0318 -0.9831
  348MOL0     H46930   3.938   3.416   1.591  1.4954  0.1864  2.5199
  348MOL0     H46931   3.844   3.174   1.644  1.0779  2.1410 -0.1853
  348MOL0     H46932   3.733   2.920   1.597 -2.1095  1.9785  0.4254
  348MOL0     H46933   3.640   3.001   1.460  1.2260  0.5734 -2.5120
  348MOL0     H46934   3.823   2.745   1.449  2.7188  2.6890 -0.9632
  348MOL0     H46935   3.766   2.830   1.295  0.1003 -0.1586 -1.5584
  348MOL0     H46936   3.583   2.709   1.506 -1.2052  1.9901  0.6014
  348MOL0     H46937   3.670   2.618   1.371 -0.3035  0.1833 -0.6756
  348MOL0     H46938   3.533   2.761   1.213  5.7577 -2.9714  1.1512
  348MOL0     H46939   3.494   2.872   1.332 -2.0161 -0.1157  0.2514
  348MOL0     H46940   3.343   2.922   1.215  0.3427  0.1937  1.9440
  348MOL0     H46941   3.019   3.089   1.129 -2.0158 -1.5650 -3.8576
  348MOL0     H46942   3.201   3.098   1.112  1.4553 -1.7835 -0.4139
  348MOL0     H46943   3.100   3.009   1.001 -4.5824  0.7312  0.2852
  348MOL0     H46944   2.610   2.953   1.106 -2.1182 -0.3046 -1.6003
  348MOL0     H46945   2.366   2.897   1.091  1.3505  1.0335  0.2914
  348MOL0     H46946   2.194   2.582   1.358  1.0867 -0.0910  0.2199
  348MOL0     H46947   2.190   2.750   1.421 -1.2939  1.3175 -0.5963
  348MOL0     H46948   1.956   2.670   1.369 -2.7064  1.4935 -2.0701
  348MOL0     H46949   2.003   2.790   1.250  2.5618  1.7010  1.0034
  348MOL0     H46950   1.925   2.508   1.203  1.3929 -0.5720 -0.1808
  348MOL0     H46951   2.091   2.555   1.138  0.9689  1.6374  1.3101
  348MOL0     H46952   1.828   2.695   1.102 -0.5307 -0.0028 -0.0906
  348MOL0     H46953   1.986   2.746   1.032 -0.6791  1.2440  0.3520
  348MOL0     H46954   1.815   2.502   0.956  0.1895  0.7127  1.7056
  348MOL0     H46955   1.993   2.512   0.926  0.9222  1.3486  1.0029
  348MOL0     H46956   1.812   2.744   0.852  2.6570  1.5335  1.0968
  348MOL0     H46957   1.958   2.691   0.775 -0.9245 -1.0012 -1.4869
  348MOL0     H46958   1.681   2.570   0.755  0.3120  0.8650 -0.2929
  348MOL0     H46959   1.817   2.466   0.744 -2.1983 -0.9146  1.0014
  348MOL0     H46960   1.913   2.598   0.547 -1.3870 -0.7060 -1.9784
  348MOL0     H46961   1.779   2.714   0.562  2.9898 -0.2971 -3.9275
  348MOL0     H46962   2.404   2.620   1.411  0.6487  1.6734  2.1409
  348MOL0     H46963   2.643   2.657   1.426  0.8445  1.6094 -0.5801
  348MOL0     H46964   2.966   2.631   1.317 -1.0093  1.2765  2.3436
  348MOL0     H46965   3.191   2.549   1.353  2.7889  1.2086  2.5921
  348MOL0     H46966   4.755   2.905   2.044 -2.9704 -1.0640  0.6211
  348MOL0     H46967   4.939   2.778   2.145  1.9029 -1.3789 -1.5169
  348MOL0     H46968   5.062   2.382   2.253  0.2504  1.5631 -0.5060
  348MOL0     H46969   5.192   2.240   2.401 -1.9369 -0.3108 -2.6167
  348MOL0     H46970   5.484   2.145   2.610  0.8317  1.5382 -0.4419
  348MOL0     H46971   5.331   2.163   2.564  0.1634 -1.4790  0.4168
  348MOL0     H46972   5.507   2.016   2.376  1.0061  2.4498  0.9837
  348MOL0     H46973   5.336   1.994   2.390  0.0572  1.5142  0.1706
  348MOL0     H46974   5.539   1.920   2.616  0.6530  0.3338 -0.7493
  348MOL0     H46975   5.488   1.797   2.496 -3.0189 -1.4430 -0.3021
  348MOL0     H46976   5.261   1.802   2.572 -0.8051  1.2221 -0.3134
  348MOL0     H46977   5.309   1.921   2.697  0.7804 -2.5033  4.7204
  348MOL0     H46978   5.480   1.551   2.829  2.1580  0.5113  0.3759
  348MOL0     H46979   5.553   2.379   2.221  0.1451  1.7569 -0.9711
  348MOL0     H46980   5.415   2.519   2.073  3.4714  2.6650  3.0892
  349MOL0     O46981   9.145   3.127  10.787 -0.5812  0.0322 -1.1467
  349MOL0     C46982   9.156   3.228  10.849 -0.8234 -0.4290 -0.3171
  349MOL0     O46983   9.163   3.236  10.987 -0.3973  0.5432  0.5625
  349MOL0     C46984   9.116   3.143  11.075 -0.6234  0.3826  0.4610
  349MOL0     C46985   9.183   3.143  11.192  0.5538 -0.4831 -0.1110
  349MOL0     C46986   9.150   3.053  11.291  0.3073  0.1773  0.1308
  349MOL0     C46987   9.040   2.971  11.273 -0.1326  0.5899 -0.3342
  349MOL0     O46988   8.996   2.889  11.377  0.5843 -0.3011  0.7352
  349MOL0     C46989   9.104   2.828  11.462  0.5036 -0.3118  0.0767
  349MOL0     C46990   9.032   2.743  11.559  0.3197  0.7674  0.4886
  349MOL0     C46991   9.018   2.587  11.526 -0.2112 -0.1601  0.0111
  349MOL0     C46992   9.137   2.498  11.559  0.3763  0.2005  0.3044
  349MOL0     C46993   9.123   2.361  11.489  0.6892 -0.4615 -0.7357
  349MOL0     C46994   9.224   2.371  11.368  0.1400  0.1966 -0.3601
  349MOL0     C46995   9.240   2.242  11.305 -0.4873 -0.4040 -0.3292
  349MOL0     C46996   9.115   2.175  11.237 -0.0597 -0.3165 -0.0050
  349MOL0     N46997   9.054   2.067  11.313 -0.6881 -0.5051 -0.1666
  349MOL0     C46998   9.054   1.936  11.275  0.3415 -0.1672 -0.1261
  349MOL0     C46999   8.942   1.881  11.323  0.0815 -0.5149 -0.2030
  349MOL0     C47000   8.899   1.739  11.320  0.3414 -0.3806 -0.9128
  349MOL0     C47001   8.875   1.679  11.460  0.0445 -0.6834 -0.3270
  349MOL0     C47002   8.725   1.656  11.503  0.0969  0.5045  0.6290
  349MOL0     C47003   8.721   1.598  11.640  0.4068  0.4470  0.3216
  349MOL0     O47004   8.586   1.588  11.690 -0.0156  0.2483 -0.0638
  349MOL0     C47005   8.566   1.676  11.795 -0.4274  0.4483 -0.3769
  349MOL0     C47006   8.510   1.807  11.774  0.3371  0.3620  1.3444
  349MOL0     C47007   8.470   1.890  11.874  0.0035 -0.8164 -0.0896
  349MOL0     C47008   8.425   2.030  11.824 -0.0037 -0.4742  0.7486
  349MOL0     C47009   8.497   1.851  12.009  0.2335 -0.0221  0.1110
  349MOL0     C47010   8.488   1.943  12.127 -0.9669  0.7378 -0.3803
  349MOL0     O47011   8.522   1.898  12.242  0.4571  0.1158 -1.1079
  349MOL0     C47012   8.456   1.956  12.353 -0.4527  0.3952  0.3268
  349MOL0     C47013   8.316   2.000  12.351 -0.0211  0.2192  0.3982
  349MOL0     C47014   8.263   2.074  12.459 -0.7816  0.7627 -0.2152
  349MOL0     C47015   8.342   2.118  12.557 -0.6619  0.3834 -0.5052
  349MOL0     O47016   8.285   2.203  12.645 -0.4591  0.0425  0.7662
  349MOL0     C47017   8.372   2.297  12.718 -0.5337  0.1203  0.5468
  349MOL0     C47018   8.359   2.263  12.861 -1.3257 -0.0756 -0.4021
  349MOL0     C47019   8.218   2.267  12.903 -0.0513 -0.2338 -0.4746
  349MOL0     C47020   8.202   2.283  13.060 -0.9748  0.3261  0.3157
  349MOL0     C47021   8.055   2.253  13.096 -0.5663  0.4729  0.4402
  349MOL0     C47022   8.044   2.234  13.253 -0.1798 -0.3440  0.0310
  349MOL0     C47023   8.036   2.091  13.309  0.6817  0.2052  0.1308
  349MOL0     C47024   8.016   2.093  13.456 -0.5641 -0.6474 -0.4272
  349MOL0    Cl47025   8.017   1.926  13.513  0.2928 -0.2533 -0.1244
  349MOL0     C47026   8.479   2.079  12.560 -0.1261 -0.1670 -0.4490
  349MOL0     C47027   8.541   2.003  12.459 -0.6668 -0.5309  0.1161
  349MOL0     O47028   8.454   2.059  12.113  1.1730 -0.3584 -0.4467
  349MOL0     C47029   8.532   1.718  12.030  0.0632 -0.6581 -0.2611
  349MOL0     C47030   8.576   1.633  11.927  0.2206 -0.6140 -0.7188
  349MOL0     N47031   8.879   1.976  11.402  0.5459  0.3329  0.1352
  349MOL0     N47032   8.938   2.092  11.388 -0.4986  0.7873 -0.4450
  349MOL0     C47033   8.979   2.968  11.150  0.5024  0.9518  0.1206
  349MOL0     C47034   9.013   3.048  11.053 -0.3136 -0.2303  0.3083
  349MOL0     C47035   9.170   3.353  10.768 -0.0409  0.3718 -0.5517
  349MOL0     C47036   9.148   3.483  10.831 -0.6134 -0.6936 -0.2446
  349MOL0     C47037   9.167   3.603  10.766  0.2443  0.4960 -1.1534
  349MOL0     C47038   9.212   3.608  10.639  0.2810  0.6585  0.1134
  349MOL0     O47039   9.223   3.725  10.570 -0.5844 -0.6994  0.4605
  349MOL0     C47040   9.215   3.726  10.423 -0.3353 -0.2359 -0.3894
  349MOL0     C47041   9.222   3.870  10.382 -0.3384  0.3006  0.9236
  349MOL0     C47042   9.098   3.925  10.327 -0.0029  0.1424 -0.6130
  349MOL0     C47043   9.112   4.076  10.302 -0.1012  0.5820 -0.8574
  349MOL0     C47044   8.987   4.127  10.244 -0.5160  0.5093  0.2674
  349MOL0     C47045   8.881   4.137  10.183 -0.2250 -0.8033  0.0997
  349MOL0     C47046   9.246   3.484  10.578 -0.3765  0.7581  0.4648
  349MOL0     C47047   9.214   3.361  10.636 -0.1827  0.9198 -1.2291
  349MOL0     H47048   9.264   3.213  11.206  2.0369 -2.0379 -0.4719
  349MOL0     H47049   9.196   3.061  11.389 -1.5005 -1.5450  1.1968
  349MOL0     H47050   9.184   2.779  11.406  1.8393  1.1108  0.6603
  349MOL0     H47051   9.147   2.910  11.521  0.1836 -0.6527  0.7998
  349MOL0     H47052   9.080   2.762  11.656  3.0662 -3.0109  0.0676
  349MOL0     H47053   8.926   2.770  11.566 -0.2894 -1.3472  0.1849
  349MOL0     H47054   8.932   2.546  11.580 -1.9025  1.4785 -1.3333
  349MOL0     H47055   8.993   2.575  11.421 -3.7779 -1.4643  0.8657
  349MOL0     H47056   9.230   2.550  11.534 -1.4078  2.1825 -2.9608
  349MOL0     H47057   9.129   2.469  11.664 -0.1131 -3.5064 -0.6312
  349MOL0     H47058   9.169   2.289  11.558  1.0006  1.2545  0.9184
  349MOL0     H47059   9.019   2.330  11.476  0.1458 -0.3434  2.5651
  349MOL0     H47060   9.176   2.444  11.302  1.6299  1.1854 -0.4098
  349MOL0     H47061   9.316   2.405  11.417 -0.8790  0.8156  1.2110
  349MOL0     H47062   9.318   2.247  11.229  0.3145  0.5571  0.5252
  349MOL0     H47063   9.269   2.178  11.389 -1.4016 -1.3946 -0.7549
  349MOL0     H47064   9.125   2.156  11.130 -1.8515  0.3757 -0.3251
  349MOL0     H47065   9.032   2.246  11.236  1.3692  1.4440 -1.1217
  349MOL0     H47066   9.127   1.877  11.220  0.1044 -1.4795  0.9255
  349MOL0     H47067   8.801   1.738  11.271 -0.8905  2.5682  1.1888
  349MOL0     H47068   8.968   1.687  11.254  0.1667  1.2373 -2.4418
  349MOL0     H47069   8.934   1.742  11.527  1.0416 -0.1147 -1.6881
  349MOL0     H47070   8.931   1.585  11.466  1.2911 -0.1027 -1.9700
  349MOL0     H47071   8.673   1.587  11.437  0.5488  0.3378  0.4458
  349MOL0     H47072   8.670   1.748  11.524  1.7084  1.0018  3.1485
  349MOL0     H47073   8.786   1.656  11.706  0.3200 -0.2284  1.0168
  349MOL0     H47074   8.755   1.494  11.637 -2.2674 -0.4785 -1.6523
  349MOL0     H47075   8.498   1.854  11.677  3.2485  1.0627  1.2417
  349MOL0     H47076   8.519   2.085  11.809  0.3400 -0.6840  1.9931
  349MOL0     H47077   8.368   2.035  11.731  1.2685  1.9149  0.0043
  349MOL0     H47078   8.352   2.078  11.890 -0.5980  0.7053 -0.7166
  349MOL0     H47079   8.261   1.961  12.266 -0.9138 -0.6883  1.3646
  349MOL0     H47080   8.171   2.128  12.437  0.5134  3.6427  0.8399
  349MOL0     H47081   8.478   2.299  12.688 -0.9235 -1.1508 -1.0613
  349MOL0     H47082   8.334   2.398  12.700  2.1046  0.7803 -2.2335
  349MOL0     H47083   8.394   2.168  12.904 -0.9477  1.0290  1.9306
  349MOL0     H47084   8.422   2.338  12.910 -1.5246 -0.2436  0.1197
  349MOL0     H47085   8.162   2.183  12.862 -1.8558  0.7535 -0.1037
  349MOL0     H47086   8.177   2.361  12.864 -2.3500  0.4588  3.1633
  349MOL0     H47087   8.272   2.219  13.114 -3.4411 -0.3779  2.8711
  349MOL0     H47088   8.230   2.383  13.094  0.5676  0.2970 -0.7646
  349MOL0     H47089   8.014   2.169  13.040 -1.9195  1.4832 -0.1555
  349MOL0     H47090   7.988   2.335  13.067  1.0794  1.4638 -0.7806
  349MOL0     H47091   8.114   2.300  13.304  0.4034 -0.6814 -0.3260
  349MOL0     H47092   7.953   2.280  13.293  0.3377 -0.0764  0.9243
  349MOL0     H47093   8.133   2.045  13.290  0.5025 -0.2348  0.2739
  349MOL0     H47094   7.950   2.039  13.268 -1.0807  3.1174 -0.1580
  349MOL0     H47095   7.918   2.134  13.482 -0.3302  0.6191 -1.4694
  349MOL0     H47096   8.094   2.154  13.503  0.2695 -0.8724 -1.4841
  349MOL0     H47097   8.551   2.113  12.635 -1.5937  2.4776 -0.1292
  349MOL0     H47098   8.647   1.989  12.443 -0.8581 -0.2301 -1.5484
  349MOL0     H47099   8.537   1.675  12.129 -1.1926  0.6553  0.3960
  349MOL0     H47100   8.604   1.531  11.951  2.6582 -0.2587 -1.7178
  349MOL0     H47101   8.899   2.899  11.125  0.1106  1.5913 -0.4135
  349MOL0     H47102   8.973   3.037  10.952  0.2378 -1.9571  0.2437
  349MOL0     H47103   9.112   3.488  10.933 -3.1824  1.3704 -1.1497
  349MOL0     H47104   9.143   3.686  10.832  0.1045 -0.9177  0.6386
  349MOL0     H47105   9.303   3.678  10.379 -1.0146  0.3904 -2.5774
  349MOL0     H47106   9.121   3.683  10.385 -0.7127 -0.6132  0.9267
  349MOL0     H47107   9.303   3.878  10.309 -0.0411 -1.1385  1.0717
  349MOL0     H47108   9.243   3.930  10.471  0.6316  1.0843  0.1882
  349MOL0     H47109   9.022   3.909  10.405 -0.9397 -0.1126 -1.5472
  349MOL0     H47110   9.062   3.874  10.237  2.8343 -3.3457  0.0332
  349MOL0     H47111   9.197   4.075  10.233 -0.3683  1.0770 -1.1926
  349MOL0     H47112   9.133   4.124  10.398 -1.8147  3.4809 -1.7943
  349MOL0     H47113   8.792   4.139  10.122 -0.0057 -3.1542 -0.3683
  349MOL0     H47114   9.293   3.472  10.480 -2.4178  3.8340 -1.0453
  349MOL0     H47115   9.249   3.270  10.588 -1.3241  0.3087 -0.9244
  350MOL0     O47116   7.153   8.708   7.985 -0.3656  0.3618 -0.4028
  350MOL0     C47117   7.058   8.780   7.945 -0.2831  0.7653 -0.7438
  350MOL0     O47118   6.976   8.838   8.033  0.3322  0.1856 -0.3090
  350MOL0     C47119   6.992   8.827   8.169  0.0233 -0.0614  0.1877
  350MOL0     C47120   6.879   8.810   8.247 -0.3246  0.5966  0.2072
  350MOL0     C47121   6.899   8.802   8.382 -0.0761  0.1780  0.4268
  350MOL0     C47122   7.024   8.803   8.448  0.0779 -0.0967  0.0431
  350MOL0     O47123   7.036   8.810   8.587  0.4368  0.7231 -0.0644
  350MOL0     C47124   6.971   8.708   8.659  0.1780 -0.5701 -0.8581
  350MOL0     C47125   6.888   8.765   8.778  0.8431 -0.5207 -0.7550
  350MOL0     C47126   6.811   8.652   8.850  0.1628 -0.4186  0.4039
  350MOL0     C47127   6.788   8.698   8.993  0.2167 -0.2954  0.4219
  350MOL0     C47128   6.700   8.606   9.074  0.9391  0.7027  0.6549
  350MOL0     C47129   6.562   8.557   9.024  0.3403  0.0430 -0.5719
  350MOL0     C47130   6.474   8.660   8.956 -0.5461  0.2285  0.1795
  350MOL0     C47131   6.353   8.603   8.888  0.4058 -0.5972 -0.2821
  350MOL0     N47132   6.259   8.547   8.987 -0.4926 -0.0620 -0.5615
  350MOL0     C47133   6.206   8.596   9.101 -0.0432  0.6759 -0.3323
  350MOL0     C47134   6.151   8.497   9.169  0.6341 -0.7516 -0.0582
  350MOL0     C47135   6.088   8.511   9.308 -0.3562  1.1731 -0.3516
  350MOL0     C47136   6.009   8.390   9.355 -0.7997  0.8136  0.1004
  350MOL0     C47137   6.092   8.266   9.398 -0.4378  0.2456 -0.4059
  350MOL0     C47138   5.997   8.140   9.383 -0.6914 -0.7367  0.0076
  350MOL0     O47139   5.994   8.127   9.242 -0.4811 -0.1512  0.5140
  350MOL0     C47140   5.947   8.010   9.188  0.2712  0.5371  0.0728
  350MOL0     C47141   5.893   7.901   9.260 -0.5210 -0.6449  0.2112
  350MOL0     C47142   5.870   7.784   9.204  0.4434  0.0718  0.5688
  350MOL0     C47143   5.794   7.682   9.291 -0.4715  0.4969  0.0584
  350MOL0     C47144   5.877   7.767   9.061  0.8224  0.5349  0.1055
  350MOL0     C47145   5.837   7.638   8.986 -0.4909 -0.2391 -0.7470
  350MOL0     O47146   5.811   7.651   8.853 -0.1255 -0.5522 -0.6780
  350MOL0     C47147   5.800   7.548   8.761  0.0639  0.7477  0.4738
  350MOL0     C47148   5.749   7.594   8.639 -0.5546 -0.0632  0.0977
  350MOL0     C47149   5.752   7.504   8.526 -1.2332  0.0599  0.1753
  350MOL0     C47150   5.807   7.374   8.529 -0.3328 -0.8531 -0.4965
  350MOL0     O47151   5.795   7.295   8.413 -0.2355 -0.2896 -0.4620
  350MOL0     C47152   5.890   7.179   8.401 -0.6156 -0.0414  1.4040
  350MOL0     C47153   5.861   7.082   8.284  0.4462  0.5930 -0.2986
  350MOL0     C47154   5.881   7.148   8.153 -0.8036  0.5784  0.2903
  350MOL0     C47155   5.923   7.045   8.050 -0.2390 -0.6162 -0.9781
  350MOL0     C47156   5.892   7.062   7.906  0.5192 -0.2280  0.4764
  350MOL0     C47157   5.940   7.198   7.851 -0.6466 -0.6970 -0.1418
  350MOL0     C47158   5.919   7.227   7.702 -0.1275  0.4671 -1.0828
  350MOL0     C47159   5.995   7.353   7.656  0.0610  0.4611  0.0856
  350MOL0    Cl47160   5.939   7.409   7.498  0.1987  0.1985  0.1808
  350MOL0     C47161   5.870   7.340   8.652 -0.1227  0.0943  0.4242
  350MOL0     C47162   5.869   7.424   8.759 -0.0586 -0.9381 -0.6469
  350MOL0     O47163   5.849   7.531   9.043  0.2436 -0.4501 -1.0050
  350MOL0     C47164   5.930   7.866   8.979  0.2189 -0.4291 -0.7952
  350MOL0     C47165   5.972   7.984   9.051 -0.3551 -0.2520  0.0506
  350MOL0     N47166   6.166   8.383   9.086  0.9519 -0.2899 -0.2978
  350MOL0     N47167   6.227   8.416   8.972 -0.1892 -0.2388  0.2890
  350MOL0     C47168   7.137   8.846   8.371 -0.3267 -0.9975  0.6529
  350MOL0     C47169   7.121   8.852   8.230 -0.0526 -0.4578  0.4699
  350MOL0     C47170   7.029   8.772   7.802 -0.5183 -1.1479  0.2943
  350MOL0     C47171   6.949   8.864   7.737  0.2261 -0.0958  0.1039
  350MOL0     C47172   6.930   8.854   7.599 -0.1379  0.0180 -1.1822
  350MOL0     C47173   6.971   8.747   7.522 -0.0314  0.5694 -0.6809
  350MOL0     O47174   6.928   8.718   7.393  0.6476 -0.5070 -0.1765
  350MOL0     C47175   6.831   8.804   7.327 -0.6376  0.3462 -0.1240
  350MOL0     C47176   6.895   8.918   7.252  1.3681  0.1490 -0.1090
  350MOL0     C47177   6.991   8.884   7.140  0.5241 -0.2103  0.6440
  350MOL0     C47178   7.029   9.005   7.059 -0.3097 -0.9109  0.9577
  350MOL0     C47179   7.116   8.958   6.949  0.1641  0.3045  0.2176
  350MOL0     C47180   7.168   8.910   6.854 -0.0683 -0.3131  0.4341
  350MOL0     C47181   7.051   8.653   7.589  0.7216  1.1432  0.4790
  350MOL0     C47182   7.081   8.672   7.726  0.0140  0.5235  1.0693
  350MOL0     H47183   6.778   8.798   8.207 -0.8842  2.1643  1.0489
  350MOL0     H47184   6.819   8.797   8.455  2.4243  1.4482  3.4993
  350MOL0     H47185   6.901   8.660   8.590  0.7922 -1.4355 -0.8980
  350MOL0     H47186   7.043   8.631   8.688 -1.4565 -1.8148  0.0827
  350MOL0     H47187   6.955   8.811   8.852 -1.4558 -0.8836  1.7272
  350MOL0     H47188   6.819   8.844   8.747  1.9041 -0.2518 -2.5290
  350MOL0     H47189   6.723   8.613   8.799  0.8646 -3.1437  1.1191
  350MOL0     H47190   6.882   8.569   8.860 -1.9457 -2.5102 -0.9278
  350MOL0     H47191   6.878   8.716   9.052  0.0892  0.8346  0.2934
  350MOL0     H47192   6.736   8.794   8.984 -0.1603 -0.1779  3.0573
  350MOL0     H47193   6.754   8.513   9.091 -0.9730 -0.6045 -0.1374
  350MOL0     H47194   6.686   8.649   9.174 -0.1692  2.4702 -0.2093
  350MOL0     H47195   6.574   8.468   8.961  0.9650 -0.5487  0.3579
  350MOL0     H47196   6.496   8.516   9.102 -3.3306 -0.6968 -3.7518
  350MOL0     H47197   6.437   8.741   9.020 -1.8303  2.3680 -2.9996
  350MOL0     H47198   6.523   8.711   8.872 -4.0036  2.7132 -0.5815
  350MOL0     H47199   6.395   8.526   8.824  0.7879 -1.3825  0.8894
  350MOL0     H47200   6.294   8.683   8.842  2.5753  0.9598 -0.4851
  350MOL0     H47201   6.205   8.701   9.128  0.3513  1.7185 -3.8598
  350MOL0     H47202   6.157   8.532   9.391 -0.9140  0.6802  0.2479
  350MOL0     H47203   6.023   8.598   9.320 -0.7167  1.0004 -1.0182
  350MOL0     H47204   5.948   8.366   9.268 -0.8480  1.4250 -0.0364
  350MOL0     H47205   5.950   8.434   9.436 -0.1857  1.4250  0.2307
  350MOL0     H47206   6.115   8.279   9.504 -0.3047 -2.0117 -0.0960
  350MOL0     H47207   6.179   8.251   9.333 -1.0345  0.3182 -1.2329
  350MOL0     H47208   5.901   8.141   9.436  0.9331 -1.2496  3.1928
  350MOL0     H47209   6.037   8.045   9.420 -1.6662 -0.3159  2.3529
  350MOL0     H47210   5.870   7.918   9.364  0.8460  3.0462  0.0462
  350MOL0     H47211   5.798   7.711   9.396 -1.1915  0.5682  0.0717
  350MOL0     H47212   5.693   7.662   9.253  0.1443 -0.8070 -0.9941
  350MOL0     H47213   5.851   7.589   9.286  0.3877  0.8355  2.3198
  350MOL0     H47214   5.707   7.694   8.639 -2.4239 -0.7801 -1.5113
  350MOL0     H47215   5.712   7.542   8.433  0.8512  2.4629  0.1552
  350MOL0     H47216   5.992   7.217   8.396 -0.6023 -0.2058  0.2004
  350MOL0     H47217   5.899   7.124   8.496 -2.7617 -1.3968  0.8931
  350MOL0     H47218   5.944   7.011   8.274  0.9987  1.5564 -5.2695
  350MOL0     H47219   5.765   7.035   8.307 -0.3953  2.8504  1.2057
  350MOL0     H47220   5.952   7.232   8.145 -1.2316  0.9082 -0.1492
  350MOL0     H47221   5.790   7.200   8.121 -2.2535 -0.3868  2.6491
  350MOL0     H47222   6.030   7.047   8.071 -0.6006 -2.8206  1.6664
  350MOL0     H47223   5.887   6.947   8.082 -0.0915  0.1428  1.7516
  350MOL0     H47224   5.786   7.057   7.878  0.5448  2.0378 -0.2212
  350MOL0     H47225   5.929   6.978   7.846  1.1073  1.2208 -1.2737
  350MOL0     H47226   5.901   7.279   7.913  2.6613 -0.3091  1.7011
  350MOL0     H47227   6.048   7.211   7.860 -0.8448  0.1452  1.1809
  350MOL0     H47228   5.814   7.235   7.674 -1.5853 -0.3344  3.3000
  350MOL0     H47229   5.967   7.143   7.651 -1.7735 -1.2938  0.1170
  350MOL0     H47230   6.102   7.335   7.656 -0.1533 -1.1775  1.9110
  350MOL0     H47231   5.991   7.428   7.736  3.5539 -0.1239  0.9639
  350MOL0     H47232   5.924   7.249   8.677 -0.2770  0.0982  0.7696
  350MOL0     H47233   5.933   7.390   8.840 -1.9589 -0.1258  1.2820
  350MOL0     H47234   5.938   7.858   8.871 -0.4599 -1.4137 -0.7764
  350MOL0     H47235   6.036   8.062   9.010 -0.6428  1.0727  1.9757
  350MOL0     H47236   7.234   8.855   8.418  0.7873 -2.5122 -1.2162
  350MOL0     H47237   7.194   8.871   8.152 -0.4867 -0.6892 -0.0010
  350MOL0     H47238   6.893   8.944   7.785 -1.6809 -1.0818 -0.4214
  350MOL0     H47239   6.876   8.936   7.554 -0.5627 -0.0555 -0.8216
  350MOL0     H47240   6.774   8.755   7.247 -1.7407 -0.9525  1.3865
  350MOL0     H47241   6.758   8.849   7.396 -0.3669  1.8397 -0.7710
  350MOL0     H47242   6.948   8.974   7.329  2.2824 -0.8811  0.0376
  350MOL0     H47243   6.809   8.978   7.219 -0.5858 -1.1495  2.2973
  350MOL0     H47244   6.952   8.804   7.077  1.6523  0.6957 -1.2851
  350MOL0     H47245   7.081   8.838   7.182 -1.1233 -5.0224 -0.4913
  350MOL0     H47246   7.086   9.076   7.119 -0.3274 -1.1482  1.2584
  350MOL0     H47247   6.937   9.049   7.019  0.5998  0.3435  0.1684
  350MOL0     H47248   7.226   8.890   6.767  0.6562 -0.1434  0.8694
  350MOL0     H47249   7.086   8.570   7.529  0.5111  2.0262 -0.9159
  350MOL0     H47250   7.146   8.594   7.763  0.6259  0.2905 -0.4090
  351MOL0     O47251   1.430   3.240   9.541  0.3494 -0.6179  0.3780
  351MOL0     C47252   1.391   3.354   9.515 -0.4547 -0.1799  0.5246
  351MOL0     O47253   1.355   3.450   9.602  0.2289  0.8318 -0.2105
  351MOL0     C47254   1.391   3.432   9.733  0.9847 -0.9741 -0.7366
  351MOL0     C47255   1.523   3.437   9.768  0.5277  1.0664 -0.2526
  351MOL0     C47256   1.571   3.429   9.893  0.2515  0.6770  0.0715
  351MOL0     C47257   1.482   3.389   9.994  0.2728  1.1733  0.6543
  351MOL0     O47258   1.545   3.375  10.118  0.3434  0.4659  0.1043
  351MOL0     C47259   1.473   3.444  10.222  0.1923  0.7362 -0.8750
  351MOL0     C47260   1.451   3.596  10.204 -0.6471 -0.0514 -0.6660
  351MOL0     C47261   1.353   3.646  10.317  0.7096  1.4767 -0.3323
  351MOL0     C47262   1.351   3.792  10.336  0.0566  0.1103  0.1688
  351MOL0     C47263   1.257   3.838  10.454 -0.4340 -0.6882 -0.3950
  351MOL0     C47264   1.125   3.764  10.456 -0.0962 -0.7745 -0.4730
  351MOL0     C47265   1.043   3.824  10.570 -0.2192 -0.1540  0.0499
  351MOL0     C47266   0.964   3.945  10.532  0.4310 -0.5153 -0.3606
  351MOL0     N47267   0.855   3.916  10.442  0.0097 -0.0154 -1.1397
  351MOL0     C47268   0.742   3.856  10.488  0.0697  0.3974 -0.1947
  351MOL0     C47269   0.657   3.850  10.372  0.1927  0.0779  0.1073
  351MOL0     C47270   0.514   3.808  10.365  0.3289  0.0666  0.0551
  351MOL0     C47271   0.464   3.762  10.496  0.0490  0.1602 -0.4519
  351MOL0     C47272   0.343   3.675  10.471  0.2943 -0.5018 -0.9419
  351MOL0     C47273   0.281   3.614  10.609  0.4981 -0.0837  0.1073
  351MOL0     O47274   0.176   3.515  10.566  0.4995 -0.4395 -0.1275
  351MOL0     C47275   0.069   3.481  10.654 -0.0378  0.4287  0.0017
  351MOL0     C47276   0.057   3.525  10.787  0.1265 -0.0302  0.3650
  351MOL0     C47277  -0.047   3.488  10.868  0.2416 -0.1521  0.0705
  351MOL0     C47278  -0.033   3.523  11.013 -1.0358  0.1043  0.1767
  351MOL0     C47279  -0.148   3.412  10.803 -0.1716 -0.1815  0.5843
  351MOL0     C47280  -0.269   3.367  10.881 -0.4794 -0.5693 -0.7630
  351MOL0     O47281  -0.318   3.453  10.978  0.7791 -0.0949 -0.1940
  351MOL0     C47282  -0.421   3.421  11.064 -0.0835 -0.2276  0.0292
  351MOL0     C47283  -0.552   3.447  11.019 -0.0755 -0.3712 -0.7159
  351MOL0     C47284  -0.653   3.444  11.115 -0.4525 -0.5802 -0.1790
  351MOL0     C47285  -0.635   3.411  11.244 -0.2349 -0.2342  0.2025
  351MOL0     O47286  -0.741   3.426  11.329 -0.0236  0.3637 -0.1062
  351MOL0     C47287  -0.735   3.342  11.444 -0.1911  0.1457  0.5535
  351MOL0     C47288  -0.865   3.368  11.527 -0.3578  0.4907 -0.0528
  351MOL0     C47289  -0.871   3.480  11.634 -0.4860 -0.5918 -0.3571
  351MOL0     C47290  -1.001   3.490  11.717  0.3199 -0.3855 -0.8392
  351MOL0     C47291  -1.128   3.519  11.642 -0.2381 -0.1768  0.0838
  351MOL0     C47292  -1.250   3.566  11.729 -0.2337 -0.7582  0.6695
  351MOL0     C47293  -1.268   3.500  11.855 -0.1590 -0.4760 -0.4852
  351MOL0     C47294  -1.310   3.349  11.833  0.4991 -1.1033  0.1402
  351MOL0    Cl47295  -1.376   3.267  11.973 -0.0746 -0.1063  0.0934
  351MOL0     C47296  -0.502   3.382  11.282 -0.2416 -0.3809 -0.4268
  351MOL0     C47297  -0.394   3.395  11.191 -0.4665 -0.0776 -0.7928
  351MOL0     O47298  -0.329   3.267  10.840  0.0206  0.6216  0.0319
  351MOL0     C47299  -0.142   3.361  10.672  0.4454 -0.1053 -0.4333
  351MOL0     C47300  -0.036   3.408  10.595 -0.5412 -0.3867  0.1164
  351MOL0     N47301   0.721   3.918  10.271 -0.2371 -0.3593  0.3141
  351MOL0     N47302   0.844   3.955  10.314 -0.2598 -0.0540 -0.4107
  351MOL0     C47303   1.348   3.375   9.969 -0.0119 -0.0250  0.2568
  351MOL0     C47304   1.300   3.408   9.843 -0.0576 -0.6324  0.0115
  351MOL0     C47305   1.364   3.372   9.366 -0.5250 -0.0996  0.6759
  351MOL0     C47306   1.351   3.495   9.305  0.4795  0.4186  0.3626
  351MOL0     C47307   1.332   3.518   9.164 -0.6576 -0.3824  0.4176
  351MOL0     C47308   1.317   3.406   9.090 -0.6498  0.6405 -0.7033
  351MOL0     O47309   1.281   3.434   8.961  0.1448 -0.4608 -0.2843
  351MOL0     C47310   1.286   3.333   8.856 -0.0256 -1.0671 -0.6282
  351MOL0     C47311   1.428   3.327   8.787 -0.4836  0.0421 -0.5689
  351MOL0     C47312   1.421   3.239   8.662 -0.1828  0.1148  1.8432
  351MOL0     C47313   1.545   3.204   8.576 -1.0938  0.4904  0.4887
  351MOL0     C47314   1.603   3.336   8.538 -0.8799  0.0624 -0.3766
  351MOL0     C47315   1.658   3.437   8.512  0.8953 -0.3729 -0.1052
  351MOL0     C47316   1.341   3.276   9.140 -0.1707  0.2652 -0.4796
  351MOL0     C47317   1.371   3.263   9.278 -0.4555  0.6264 -0.0304
  351MOL0     H47318   1.599   3.456   9.693 -1.1586  3.9829 -1.4121
  351MOL0     H47319   1.677   3.439   9.916  0.3493  1.4491 -0.6983
  351MOL0     H47320   1.376   3.395  10.227  0.8955 -1.2208 -3.7690
  351MOL0     H47321   1.522   3.422  10.318 -0.5982 -2.2621 -1.0616
  351MOL0     H47322   1.548   3.644  10.220 -0.9797 -0.2489  2.6765
  351MOL0     H47323   1.408   3.619  10.106  2.6931  0.4040 -2.1724
  351MOL0     H47324   1.253   3.606  10.300  0.6893 -0.9395  4.0684
  351MOL0     H47325   1.396   3.607  10.410 -0.0967  0.9397 -0.1769
  351MOL0     H47326   1.448   3.837  10.358 -0.0872  0.4214  0.1711
  351MOL0     H47327   1.312   3.838  10.245  0.4967 -0.3305 -0.2493
  351MOL0     H47328   1.320   3.804  10.536  2.9658  0.5071 -2.2799
  351MOL0     H47329   1.250   3.946  10.473 -0.4814 -0.4106 -1.8783
  351MOL0     H47330   1.074   3.768  10.359 -1.5490 -1.7369  0.2058
  351MOL0     H47331   1.137   3.656  10.470 -1.3522 -0.9031 -0.2434
  351MOL0     H47332   0.975   3.749  10.609 -0.6218 -0.1568 -0.6321
  351MOL0     H47333   1.116   3.850  10.647  0.7563  0.1248 -0.9283
  351MOL0     H47334   1.045   3.996  10.479  0.6051  1.1485  1.4081
  351MOL0     H47335   0.932   4.002  10.620 -1.3334 -2.6106  0.4544
  351MOL0     H47336   0.736   3.816  10.588 -0.3676 -0.7278 -0.6546
  351MOL0     H47337   0.448   3.888  10.330  1.0187  0.6241  0.0037
  351MOL0     H47338   0.532   3.723  10.298  1.1631 -0.3736  0.8154
  351MOL0     H47339   0.448   3.858  10.546 -1.3181  0.3103 -1.1238
  351MOL0     H47340   0.537   3.701  10.550  0.4068  0.3756 -0.6884
  351MOL0     H47341   0.373   3.596  10.402  3.0838  0.5340 -1.0588
  351MOL0     H47342   0.265   3.742  10.433  0.8318 -0.1599 -1.4791
  351MOL0     H47343   0.238   3.696  10.667 -1.3112 -0.0901 -1.1256
  351MOL0     H47344   0.366   3.578  10.667  0.1921  2.6568  2.4966
  351MOL0     H47345   0.133   3.585  10.837 -0.8648  0.5346  1.2349
  351MOL0     H47346   0.071   3.499  11.036 -1.3968  1.2648  3.6166
  351MOL0     H47347  -0.054   3.628  11.033 -1.5378 -0.0478  0.4713
  351MOL0     H47348  -0.093   3.461  11.081  0.1860  0.3365  1.5154
  351MOL0     H47349  -0.569   3.487  10.920 -3.4881  2.3312  0.7443
  351MOL0     H47350  -0.752   3.481  11.092  0.1215  2.6354  1.9171
  351MOL0     H47351  -0.743   3.239  11.409  1.4813  0.3970 -0.6645
  351MOL0     H47352  -0.646   3.356  11.506 -0.8094 -1.2866  1.8410
  351MOL0     H47353  -0.949   3.381  11.458 -1.4228  1.5092  1.3743
  351MOL0     H47354  -0.883   3.274  11.581  0.1387 -0.9495 -2.2755
  351MOL0     H47355  -0.844   3.576  11.589  2.7706 -0.7413  1.0412
  351MOL0     H47356  -0.791   3.457  11.704  1.1166 -0.5098 -2.0787
  351MOL0     H47357  -1.004   3.395  11.770 -0.5991  0.2663  0.3284
  351MOL0     H47358  -0.977   3.570  11.788  1.1883 -1.0686 -0.3547
  351MOL0     H47359  -1.165   3.431  11.588 -0.8020 -0.4241  0.8528
  351MOL0     H47360  -1.103   3.603  11.575 -0.1856 -1.3648 -1.4576
  351MOL0     H47361  -1.229   3.671  11.747 -0.6912 -0.3312 -1.0344
  351MOL0     H47362  -1.346   3.574  11.676 -1.4242  1.8829  2.9808
  351MOL0     H47363  -1.353   3.547  11.906 -2.8060 -2.8901 -2.3182
  351MOL0     H47364  -1.180   3.510  11.919 -0.8327  1.4208  0.2239
  351MOL0     H47365  -1.228   3.284  11.798  2.7865  2.1535 -1.0820
  351MOL0     H47366  -1.388   3.354  11.757 -0.7728  2.9175  1.4821
  351MOL0     H47367  -0.478   3.365  11.386 -2.0125  2.3446  0.5326
  351MOL0     H47368  -0.297   3.386  11.238 -2.0221 -2.8129  2.3339
  351MOL0     H47369  -0.218   3.295  10.630  0.8592 -1.9751  1.6004
  351MOL0     H47370  -0.036   3.377  10.491 -1.0685 -1.8395  0.5234
  351MOL0     H47371   1.272   3.355  10.044 -0.1495 -1.6217 -0.2511
  351MOL0     H47372   1.192   3.395   9.838 -0.3401 -0.2276  3.1237
  351MOL0     H47373   1.362   3.588   9.360 -3.7927  1.8141 -0.7155
  351MOL0     H47374   1.311   3.620   9.131 -2.3318 -1.1942 -1.1878
  351MOL0     H47375   1.266   3.230   8.887 -0.7390 -0.2706  1.8163
  351MOL0     H47376   1.207   3.359   8.786 -0.6799 -1.1760  0.0551
  351MOL0     H47377   1.496   3.273   8.854  2.0189  1.5867 -1.7089
  351MOL0     H47378   1.462   3.430   8.770  1.8138 -0.4232  0.6904
  351MOL0     H47379   1.345   3.285   8.599  1.4345  1.6011  0.8983
  351MOL0     H47380   1.382   3.144   8.699 -0.7054 -1.5293 -2.3953
  351MOL0     H47381   1.528   3.145   8.486  1.0718 -3.2754  2.2822
  351MOL0     H47382   1.611   3.150   8.644 -0.4817  0.9755  0.2820
  351MOL0     H47383   1.704   3.533   8.501  0.4618 -0.0352  0.9574
  351MOL0     H47384   1.353   3.187   9.080  0.0912  0.0750 -0.1445
  351MOL0     H47385   1.405   3.166   9.314 -0.1579  0.0381 -1.7684
  352MOL0     O47386  11.252   5.833   1.094 -0.1833  0.1290 -0.6903
  352MOL0     C47387  11.314   5.937   1.079 -0.4267  0.0796 -0.1711
  352MOL0     O47388  11.276   6.041   0.987 -0.2667  0.4496 -0.3869
  352MOL0     C47389  11.223   6.015   0.862  0.2051  0.4631 -0.8042
  352MOL0     C47390  11.223   5.887   0.805 -0.2669 -0.2737  0.5860
  352MOL0     C47391  11.150   5.850   0.685  1.7274  1.3287 -0.4873
  352MOL0     C47392  11.064   5.949   0.633 -0.2941  0.7928 -0.5577
  352MOL0     O47393  10.986   5.909   0.527  1.3340 -0.0254  0.5494
  352MOL0     C47394  11.024   5.976   0.396  0.3032 -0.0791 -0.3141
  352MOL0     C47395  10.931   5.931   0.283  0.4011 -0.0990  0.0411
  352MOL0     C47396  10.787   5.976   0.295 -1.4549  0.2438 -0.5405
  352MOL0     C47397  10.700   5.945   0.176  0.4620 -0.6565 -0.1589
  352MOL0     C47398  10.543   5.985   0.200 -0.2303  0.2864 -0.3981
  352MOL0     C47399  10.477   6.063   0.084  0.0295 -0.3073 -0.9329
  352MOL0     C47400  10.338   6.102   0.132 -1.2626 -0.6661 -0.6919
  352MOL0     C47401  10.266   6.176   0.018 -0.2381 -0.2477 -0.4719
  352MOL0     N47402  10.134   6.223   0.062 -0.2709  0.2592 -0.1179
  352MOL0     C47403  10.096   6.340   0.124 -0.9068  0.6512  0.3193
  352MOL0     C47404   9.971   6.321   0.176  0.2913  0.2336 -0.7087
  352MOL0     C47405   9.882   6.401   0.274 -1.0671  0.2218 -0.2015
  352MOL0     C47406   9.902   6.553   0.274 -0.2538 -0.2008  0.5414
  352MOL0     C47407   9.827   6.627   0.378 -0.3330  0.1929 -0.2244
  352MOL0     C47408   9.685   6.657   0.351  0.2540 -0.0122  1.2911
  352MOL0     O47409   9.626   6.697   0.474  0.4234 -0.6416  0.2188
  352MOL0     C47410   9.497   6.740   0.470  0.5940 -0.4717  0.5068
  352MOL0     C47411   9.419   6.717   0.583 -1.1086  0.0921  0.0794
  352MOL0     C47412   9.280   6.728   0.586  0.2011 -1.4620  0.9067
  352MOL0     C47413   9.204   6.708   0.715 -0.5313 -0.0925  0.0509
  352MOL0     C47414   9.215   6.783   0.473 -0.1834 -0.6299 -0.1060
  352MOL0     C47415   9.065   6.808   0.470 -0.4661  0.3385 -0.2873
  352MOL0     O47416   9.024   6.914   0.397  0.4235 -0.1088  0.2705
  352MOL0     C47417   8.890   6.937   0.370 -0.6279 -0.1901 -0.6456
  352MOL0     C47418   8.788   6.916   0.467 -0.1151 -0.8242 -0.0847
  352MOL0     C47419   8.663   6.963   0.438 -0.6522 -0.2785 -1.5490
  352MOL0     C47420   8.636   7.037   0.322  0.7217  0.2455 -0.3844
  352MOL0     O47421   8.506   7.072   0.301 -0.1252  0.1702  0.9391
  352MOL0     C47422   8.438   6.961   0.230  0.1668  0.5048 -0.6799
  352MOL0     C47423   8.323   6.909   0.326 -0.7033  0.3561 -0.2244
  352MOL0     C47424   8.231   7.033   0.362 -0.3993 -0.2356  0.0475
  352MOL0     C47425   8.262   7.101   0.497  0.0293 -0.2546 -0.0278
  352MOL0     C47426   8.153   7.201   0.533  0.5984  0.2788  0.6938
  352MOL0     C47427   8.170   7.268   0.665 -0.0482  0.5561 -0.3771
  352MOL0     C47428   8.184   7.164   0.780  0.5593  0.4898 -0.5490
  352MOL0     C47429   8.137   7.228   0.914 -0.1409 -0.3985  0.8459
  352MOL0    Cl47430   8.242   7.369   0.955  0.2236 -0.4942  0.0115
  352MOL0     C47431   8.735   7.056   0.231  0.2803 -0.4648  0.5617
  352MOL0     C47432   8.871   7.012   0.245  0.1049 -0.1680  0.5356
  352MOL0     O47433   8.999   6.724   0.527  0.0168 -0.3025  0.6286
  352MOL0     C47434   9.288   6.819   0.360  0.4440  1.2755  1.1585
  352MOL0     C47435   9.426   6.786   0.364  0.6934 -0.4183 -0.1336
  352MOL0     N47436   9.934   6.187   0.149  0.2366 -0.0305  0.1290
  352MOL0     N47437  10.025   6.133   0.080  0.4743 -0.0879  0.5747
  352MOL0     C47438  11.061   6.081   0.693 -0.3148 -0.7754  0.2197
  352MOL0     C47439  11.138   6.112   0.808  0.2061 -0.4199 -0.3938
  352MOL0     C47440  11.420   5.967   1.172 -0.4544 -0.2814  0.0030
  352MOL0     C47441  11.463   5.873   1.275 -0.2089  0.3770  0.0104
  352MOL0     C47442  11.561   5.915   1.364 -0.4910 -0.5610  0.4332
  352MOL0     C47443  11.617   6.034   1.355 -0.3883  0.4886 -0.2844
  352MOL0     O47444  11.695   6.073   1.463 -0.1554  0.8637 -0.5303
  352MOL0     C47445  11.818   5.995   1.470  0.8570  0.3361  0.2409
  352MOL0     C47446  11.935   6.079   1.414 -1.0205  0.1722 -0.2884
  352MOL0     C47447  11.933   6.234   1.459 -0.7463  0.5231 -0.1510
  352MOL0     C47448  12.032   6.311   1.381  0.0709  0.9658 -0.4848
  352MOL0     C47449  12.072   6.432   1.449  0.8163  0.1420 -0.4840
  352MOL0     C47450  12.104   6.541   1.494  0.6838  0.6492  0.1084
  352MOL0     C47451  11.586   6.121   1.256  0.1743 -0.9729  0.4684
  352MOL0     C47452  11.482   6.094   1.163  0.3963 -0.7891  0.0375
  352MOL0     H47453  11.293   5.811   0.839  2.9606  1.4746 -1.6212
  352MOL0     H47454  11.149   5.749   0.644 -2.5431  1.3191 -0.8888
  352MOL0     H47455  11.021   6.085   0.393  0.2122 -0.0508  0.4756
  352MOL0     H47456  11.129   5.953   0.376  1.1804  1.9109  1.6852
  352MOL0     H47457  10.965   5.966   0.185 -0.2199  1.3945  0.3164
  352MOL0     H47458  10.936   5.822   0.290  1.1473  0.0405  3.1657
  352MOL0     H47459  10.742   5.934   0.386  2.0013  1.8456  2.1293
  352MOL0     H47460  10.786   6.084   0.312 -1.4440 -0.0893  1.8616
  352MOL0     H47461  10.733   6.006   0.091 -3.4127  1.5915 -0.3215
  352MOL0     H47462  10.704   5.841   0.144  2.1887 -0.9676  0.9664
  352MOL0     H47463  10.492   5.889   0.215 -0.1322  0.3859  0.6803
  352MOL0     H47464  10.546   6.054   0.285 -2.3775 -1.3902  1.1474
  352MOL0     H47465  10.539   6.148   0.055  0.5170 -0.7493 -1.2107
  352MOL0     H47466  10.483   6.006  -0.009  3.0694 -1.9993  0.1301
  352MOL0     H47467  10.274   6.018   0.160 -0.6261 -0.1919  2.7007
  352MOL0     H47468  10.336   6.167   0.220 -1.8864 -0.1424 -1.0822
  352MOL0     H47469  10.251   6.105  -0.064  2.3111  1.0547 -2.2134
  352MOL0     H47470  10.324   6.255  -0.031 -0.5905  1.0947  1.1846
  352MOL0     H47471  10.149   6.433   0.136  0.4780 -0.3184  2.0173
  352MOL0     H47472   9.788   6.353   0.244 -0.1132 -1.3617 -0.8048
  352MOL0     H47473   9.904   6.369   0.377 -0.5468  1.2579  0.0217
  352MOL0     H47474   9.891   6.585   0.170 -1.5274  0.5639  0.8879
  352MOL0     H47475  10.009   6.558   0.296 -0.6456 -1.2782  3.1395
  352MOL0     H47476   9.877   6.724   0.377 -3.9821  2.2889 -2.4219
  352MOL0     H47477   9.830   6.580   0.477  0.0137 -0.3120 -0.4695
  352MOL0     H47478   9.630   6.567   0.320 -1.6310  1.3551  0.3998
  352MOL0     H47479   9.675   6.732   0.272  1.1340 -1.7912 -0.5933
  352MOL0     H47480   9.469   6.691   0.676  1.0911  1.5315 -0.6387
  352MOL0     H47481   9.133   6.789   0.730 -1.2335 -0.8624  1.0531
  352MOL0     H47482   9.147   6.614   0.717 -0.1561 -0.3174  0.5294
  352MOL0     H47483   9.279   6.716   0.795 -2.0874 -2.3449  1.8554
  352MOL0     H47484   8.803   6.872   0.565  0.3920  0.5673  0.4868
  352MOL0     H47485   8.577   6.951   0.503  0.5725 -3.3875 -0.3196
  352MOL0     H47486   8.396   7.001   0.138 -2.1840 -1.6800 -0.6836
  352MOL0     H47487   8.505   6.877   0.209  2.1014  1.9488 -0.5678
  352MOL0     H47488   8.277   6.841   0.254  2.5418 -1.2827 -0.9017
  352MOL0     H47489   8.358   6.861   0.417 -1.4181 -0.3579 -0.3098
  352MOL0     H47490   8.136   6.980   0.370  0.8999 -2.7255  0.0980
  352MOL0     H47491   8.225   7.105   0.280  0.8987 -0.7428 -0.5257
  352MOL0     H47492   8.267   7.024   0.574 -0.7269 -1.3034 -0.9947
  352MOL0     H47493   8.357   7.156   0.495 -0.7908  1.1716 -0.5812
  352MOL0     H47494   8.064   7.138   0.525  0.4862  0.4641  0.4681
  352MOL0     H47495   8.147   7.277   0.454  1.0963 -0.5239 -0.1357
  352MOL0     H47496   8.263   7.324   0.678  0.8341 -1.0427  0.5765
  352MOL0     H47497   8.094   7.344   0.689 -0.9765  0.2750 -2.2775
  352MOL0     H47498   8.281   7.120   0.800 -0.7928 -1.8176  1.4098
  352MOL0     H47499   8.119   7.078   0.759 -0.2154  0.7797  0.5449
  352MOL0     H47500   8.130   7.154   0.995 -6.5071 -2.8810 -1.3315
  352MOL0     H47501   8.038   7.273   0.904  0.3507  1.4724  3.3122
  352MOL0     H47502   8.723   7.103   0.134  0.0773 -1.2619  0.1891
  352MOL0     H47503   8.958   7.024   0.180 -0.3486  0.4772  0.0328
  352MOL0     H47504   9.255   6.871   0.271  2.4762  0.4351 -0.1494
  352MOL0     H47505   9.484   6.812   0.275 -2.9307  2.9280 -1.8617
  352MOL0     H47506  10.993   6.147   0.641 -2.8007 -2.4987  1.0848
  352MOL0     H47507  11.126   6.204   0.865  0.5653 -1.8354  2.1001
  352MOL0     H47508  11.424   5.773   1.281  0.0533  0.3416  1.6138
  352MOL0     H47509  11.599   5.851   1.443  4.2111  2.0979  0.7389
  352MOL0     H47510  11.839   5.952   1.569  0.0161 -0.6071  0.0303
  352MOL0     H47511  11.801   5.902   1.416  0.3359  1.4291 -1.5465
  352MOL0     H47512  11.928   6.082   1.305  0.8412  2.1380 -0.4263
  352MOL0     H47513  12.024   6.028   1.453  0.0262  2.0128 -0.1630
  352MOL0     H47514  11.964   6.232   1.564  0.3709  0.3359 -0.4634
  352MOL0     H47515  11.833   6.276   1.453 -0.4745  1.1255 -0.5937
  352MOL0     H47516  11.989   6.345   1.286  2.4842  1.5020 -1.4643
  352MOL0     H47517  12.118   6.245   1.368 -1.6042 -1.3195 -0.6641
  352MOL0     H47518  12.139   6.636   1.530 -1.4202  0.4949  2.8253
  352MOL0     H47519  11.637   6.216   1.273  1.8059 -2.1946  3.1153
  352MOL0     H47520  11.473   6.171   1.087  1.4765 -1.8590 -1.2157
  353MOL0     O47521   5.095   7.695   1.367 -0.2447  0.5994 -0.2592
  353MOL0     C47522   5.103   7.575   1.359  0.1543  1.2135 -0.0128
  353MOL0     O47523   5.202   7.500   1.401  0.1224  0.2295 -0.4926
  353MOL0     C47524   5.303   7.561   1.473  0.0484  0.1823  0.3910
  353MOL0     C47525   5.287   7.617   1.599  0.1434  0.0873 -0.3444
  353MOL0     C47526   5.398   7.671   1.670  0.8767  0.2154 -0.7600
  353MOL0     C47527   5.523   7.674   1.619 -0.8187 -0.5162 -0.1252
  353MOL0     O47528   5.636   7.710   1.679  0.2156  0.1825  0.3063
  353MOL0     C47529   5.624   7.764   1.812 -0.0048 -0.6313  0.2089
  353MOL0     C47530   5.763   7.794   1.865  0.4238  0.2605 -1.0892
  353MOL0     C47531   5.761   7.831   2.007 -0.2251  0.2266  0.2209
  353MOL0     C47532   5.905   7.843   2.053 -0.1340 -0.5657  0.0845
  353MOL0     C47533   5.942   7.940   2.170  0.7839  0.5227 -0.1292
  353MOL0     C47534   5.842   7.943   2.292  0.3100  0.0386 -0.1186
  353MOL0     C47535   5.836   7.806   2.355  0.7061  0.3009  0.1324
  353MOL0     C47536   5.963   7.748   2.409  0.0813 -1.0652  0.2972
  353MOL0     N47537   5.992   7.812   2.547 -0.8391 -0.8942  0.1262
  353MOL0     C47538   5.893   7.820   2.654  0.4908  0.5317 -0.1691
  353MOL0     C47539   5.957   7.891   2.752  0.3097 -0.4857  0.8461
  353MOL0     C47540   5.909   7.917   2.896 -0.8881  0.6057  0.4164
  353MOL0     C47541   5.823   7.811   2.951 -0.4673 -0.2947 -0.5994
  353MOL0     C47542   5.810   7.810   3.109 -0.1415 -0.1029 -0.1470
  353MOL0     C47543   5.745   7.940   3.170 -0.1116  0.0238  0.7383
  353MOL0     O47544   5.852   8.038   3.185  0.6416 -0.0020 -0.7442
  353MOL0     C47545   5.938   8.019   3.289  0.1712 -0.3152  0.1268
  353MOL0     C47546   5.928   7.920   3.389  0.3686  0.6826  0.1448
  353MOL0     C47547   6.012   7.910   3.504  0.1595  0.9699 -0.2284
  353MOL0     C47548   6.008   7.789   3.595  0.5913  0.4318 -0.3724
  353MOL0     C47549   6.113   8.015   3.516 -0.9158  0.1745 -0.5413
  353MOL0     C47550   6.204   8.025   3.628 -1.0278  0.3246  0.5708
  353MOL0     O47551   6.339   8.060   3.605  0.4640  0.0417  0.7974
  353MOL0     C47552   6.432   8.049   3.706  0.0241 -0.0427 -0.5608
  353MOL0     C47553   6.550   7.982   3.689  0.5554  0.0288  0.0305
  353MOL0     C47554   6.639   7.956   3.795 -0.3420 -0.8783  0.6991
  353MOL0     C47555   6.620   8.017   3.914 -0.2557  0.1623  0.4623
  353MOL0     O47556   6.718   8.005   4.003 -0.4764 -0.1399  0.2373
  353MOL0     C47557   6.744   8.124   4.069  0.4901  0.0227  0.4175
  353MOL0     C47558   6.862   8.105   4.160  0.8760  0.6775 -0.0532
  353MOL0     C47559   6.942   8.234   4.184  0.2716  0.3131 -0.1446
  353MOL0     C47560   6.998   8.247   4.333 -0.3258 -0.3664  0.1082
  353MOL0     C47561   7.054   8.382   4.355 -0.1485  0.0101 -0.6813
  353MOL0     C47562   7.106   8.401   4.501 -0.0002  0.1768 -0.5764
  353MOL0     C47563   7.217   8.504   4.513  0.5419 -0.4463 -0.2731
  353MOL0     C47564   7.249   8.517   4.658 -0.0885  0.6662  0.2727
  353MOL0    Cl47565   7.121   8.574   4.756  0.5788 -0.2223 -0.0807
  353MOL0     C47566   6.503   8.089   3.940  0.0761  0.1936 -0.5136
  353MOL0     C47567   6.415   8.103   3.840  0.1112 -0.0909 -0.3426
  353MOL0     O47568   6.163   7.992   3.743 -0.1184  0.1772 -0.4786
  353MOL0     C47569   6.111   8.122   3.429 -0.5755  0.2755  0.6817
  353MOL0     C47570   6.029   8.114   3.318  0.1938  0.2881  0.0959
  353MOL0     N47571   6.078   7.947   2.694  0.9984 -0.0572 -0.3396
  353MOL0     N47572   6.090   7.904   2.573  0.7661 -0.5937 -0.0882
  353MOL0     C47573   5.543   7.611   1.498  0.1986 -0.0659  0.4133
  353MOL0     C47574   5.433   7.552   1.430 -0.1589 -0.1784  0.4914
  353MOL0     C47575   4.982   7.516   1.283  0.7644 -0.1992  0.1786
  353MOL0     C47576   4.937   7.391   1.301  1.0437  0.4199  0.8643
  353MOL0     C47577   4.848   7.338   1.205  1.4322 -0.1734  0.1819
  353MOL0     C47578   4.797   7.414   1.098  0.0163  0.4022 -0.5333
  353MOL0     O47579   4.696   7.373   1.007 -0.4413 -1.0581  0.1971
  353MOL0     C47580   4.583   7.311   1.067  0.0226  0.9361  0.5267
  353MOL0     C47581   4.462   7.356   0.997 -1.7574 -0.4202  0.8817
  353MOL0     C47582   4.341   7.302   1.069  0.7638 -1.2361  0.8401
  353MOL0     C47583   4.218   7.339   0.993  0.4711  0.6023  0.4530
  353MOL0     C47584   4.191   7.478   1.006  0.3075 -0.2698 -0.0503
  353MOL0     C47585   4.150   7.587   1.012 -0.3693  1.2152  0.1385
  353MOL0     C47586   4.855   7.535   1.084  0.3626 -0.4278 -0.1632
  353MOL0     C47587   4.944   7.586   1.167 -0.3087 -0.2256 -0.4815
  353MOL0     H47588   5.193   7.623   1.653  0.3891  0.1501  0.0836
  353MOL0     H47589   5.376   7.697   1.773  0.1589  1.2640 -1.1677
  353MOL0     H47590   5.565   7.856   1.812  1.1881  0.1527  0.3463
  353MOL0     H47591   5.591   7.690   1.885  0.7794 -1.8102 -0.5749
  353MOL0     H47592   5.819   7.700   1.855  0.8459  0.5426 -1.4238
  353MOL0     H47593   5.816   7.869   1.806 -1.4056  4.0189  1.5883
  353MOL0     H47594   5.710   7.927   2.018  0.5241  0.4947  1.6197
  353MOL0     H47595   5.710   7.752   2.065 -1.5120  0.3800 -0.6595
  353MOL0     H47596   5.936   7.749   2.099 -3.1209 -0.0968  3.4387
  353MOL0     H47597   5.968   7.860   1.965  0.9793  0.9461  1.1177
  353MOL0     H47598   6.046   7.929   2.201  0.1918 -2.5257  1.1952
  353MOL0     H47599   5.942   8.041   2.127  4.5260  0.4252 -0.6905
  353MOL0     H47600   5.857   8.019   2.369  1.1866 -0.9483  0.7183
  353MOL0     H47601   5.742   7.958   2.250  0.1387 -2.9186 -1.0103
  353MOL0     H47602   5.768   7.809   2.441 -0.5714 -1.0110 -0.7770
  353MOL0     H47603   5.791   7.731   2.289 -1.6651  0.5410  1.3451
  353MOL0     H47604   6.054   7.767   2.351  0.0575  2.7869  1.2043
  353MOL0     H47605   5.951   7.640   2.410  0.6833 -1.1725  2.4369
  353MOL0     H47606   5.801   7.763   2.663  2.0423 -2.3872 -1.4655
  353MOL0     H47607   6.005   7.926   2.948  0.3871 -1.1685 -1.4708
  353MOL0     H47608   5.863   8.015   2.909  1.1744  1.6081  0.6203
  353MOL0     H47609   5.865   7.715   2.917  1.4589  1.2874 -3.0436
  353MOL0     H47610   5.726   7.816   2.901 -0.5301  0.1851 -0.4288
  353MOL0     H47611   5.915   7.811   3.140 -0.3430  1.3125  0.5841
  353MOL0     H47612   5.761   7.722   3.152  0.9280 -2.7021 -3.7448
  353MOL0     H47613   5.694   7.922   3.265 -1.2258  1.1287  0.3706
  353MOL0     H47614   5.668   7.984   3.106  0.7933 -1.3515 -1.4034
  353MOL0     H47615   5.852   7.843   3.387 -0.9948  1.9384 -2.8988
  353MOL0     H47616   6.075   7.793   3.682 -0.3630  0.8342  0.3691
  353MOL0     H47617   5.908   7.786   3.639  0.9365  0.3258  0.4386
  353MOL0     H47618   6.037   7.696   3.545  0.9079 -0.6482  1.7108
  353MOL0     H47619   6.570   7.938   3.593  1.2152 -1.2868  0.7445
  353MOL0     H47620   6.737   7.909   3.789 -0.1248 -0.2510 -3.3951
  353MOL0     H47621   6.767   8.197   3.992 -2.9121  1.0129  0.2129
  353MOL0     H47622   6.668   8.161   4.138  0.3704 -0.7671  0.7256
  353MOL0     H47623   6.811   8.054   4.242 -2.4534  0.9954 -1.7730
  353MOL0     H47624   6.939   8.039   4.118  0.8801  1.5337 -1.4587
  353MOL0     H47625   6.872   8.318   4.171 -1.5390 -1.3684 -1.8329
  353MOL0     H47626   7.023   8.230   4.111  0.8652 -3.6272  0.4951
  353MOL0     H47627   6.922   8.230   4.410  0.1894 -0.9139  0.5046
  353MOL0     H47628   7.068   8.163   4.345 -0.1139  0.0094  1.7560
  353MOL0     H47629   6.983   8.461   4.330 -0.6948 -0.0124  0.7330
  353MOL0     H47630   7.131   8.403   4.280  0.0312  1.8364 -0.0226
  353MOL0     H47631   7.016   8.423   4.560 -0.2268 -0.9815 -0.4727
  353MOL0     H47632   7.145   8.304   4.530 -1.5081 -0.1601  0.4261
  353MOL0     H47633   7.164   8.594   4.479 -0.8850 -1.7677 -1.7642
  353MOL0     H47634   7.307   8.480   4.457  1.3476  0.4299  0.6184
  353MOL0     H47635   7.345   8.570   4.667  0.9290 -0.0964 -3.9517
  353MOL0     H47636   7.279   8.418   4.693 -2.6129  0.0775  0.9712
  353MOL0     H47637   6.482   8.130   4.038 -0.6425 -2.5986  0.5951
  353MOL0     H47638   6.324   8.160   3.858  0.2957  0.0199  0.2544
  353MOL0     H47639   6.180   8.206   3.425  0.3790 -0.4667  1.0668
  353MOL0     H47640   6.026   8.186   3.236 -0.1601 -3.1783 -3.1889
  353MOL0     H47641   5.641   7.617   1.452  1.2771 -0.7035  2.5201
  353MOL0     H47642   5.445   7.505   1.333 -1.2056  1.6691 -0.5871
  353MOL0     H47643   4.982   7.325   1.375 -0.5921 -0.6676  0.9314
  353MOL0     H47644   4.816   7.236   1.221 -3.0840  1.3081  2.1341
  353MOL0     H47645   4.594   7.202   1.059  0.2069  1.0975 -3.8221
  353MOL0     H47646   4.577   7.335   1.173 -0.4221  2.5563  0.1621
  353MOL0     H47647   4.453   7.326   0.892 -3.2434  4.4478 -0.6809
  353MOL0     H47648   4.461   7.465   0.993 -1.8085 -0.4435 -0.1415
  353MOL0     H47649   4.324   7.336   1.171 -1.6297  3.5113 -0.8528
  353MOL0     H47650   4.344   7.193   1.065  1.3492 -1.1820 -1.5372
  353MOL0     H47651   4.137   7.283   1.040  2.8287 -2.0046  1.7585
  353MOL0     H47652   4.233   7.326   0.886  1.3666  2.5729  0.2968
  353MOL0     H47653   4.100   7.678   1.039 -0.4548  1.5358 -1.0325
  353MOL0     H47654   4.822   7.595   1.000 -2.3891 -0.9930  0.4092
  353MOL0     H47655   4.987   7.681   1.136  0.2752 -0.5777 -0.7817
  354MOL0     O47656   6.074   3.422   2.797  0.6874 -0.3815  0.2628
  354MOL0     C47657   6.198   3.435   2.772  0.1362  0.2671  0.7848
  354MOL0     O47658   6.270   3.556   2.765 -0.5707 -0.0556  0.0593
  354MOL0     C47659   6.188   3.666   2.781 -1.0658  0.3767 -0.1737
  354MOL0     C47660   6.188   3.762   2.683 -0.6826  0.4570  0.3453
  354MOL0     C47661   6.156   3.895   2.712  0.3709 -0.5694 -0.0934
  354MOL0     C47662   6.101   3.936   2.840  0.6521  0.2286 -0.4475
  354MOL0     O47663   6.060   4.066   2.875 -0.5136  0.0375 -0.2295
  354MOL0     C47664   6.001   4.116   3.000  0.7599  0.7200  0.8181
  354MOL0     C47665   5.948   4.255   2.979 -0.0409  0.1387  0.8745
  354MOL0     C47666   5.905   4.307   3.113  0.2333 -0.0828  0.3302
  354MOL0     C47667   5.827   4.440   3.099  0.6204  0.1486  0.3343
  354MOL0     C47668   5.790   4.479   3.244 -0.8169 -0.3934 -0.0104
  354MOL0     C47669   5.691   4.598   3.256 -0.7282 -0.5231  0.3911
  354MOL0     C47670   5.670   4.643   3.394  0.7023  0.6457 -0.5397
  354MOL0     C47671   5.784   4.732   3.444  0.4154 -0.0170 -1.0519
  354MOL0     N47672   5.785   4.873   3.405 -0.7641  0.4275  0.4713
  354MOL0     C47673   5.771   4.975   3.490  0.5769  0.5472 -0.6210
  354MOL0     C47674   5.783   5.089   3.418  0.4595  0.0539 -0.2828
  354MOL0     C47675   5.766   5.225   3.456  0.0324 -0.5111  0.3532
  354MOL0     C47676   5.652   5.297   3.388  0.2795 -0.2407 -0.0707
  354MOL0     C47677   5.514   5.238   3.423 -0.3495  0.1479 -0.0195
  354MOL0     C47678   5.398   5.307   3.343 -0.4616 -0.2614 -0.4296
  354MOL0     O47679   5.383   5.442   3.397  0.4730 -0.5254 -0.2504
  354MOL0     C47680   5.264   5.512   3.372  0.2139  0.2254  0.2649
  354MOL0     C47681   5.226   5.610   3.466 -0.1446 -0.3118  0.7131
  354MOL0     C47682   5.105   5.684   3.439 -0.7580  1.1244 -1.2402
  354MOL0     C47683   5.061   5.776   3.549 -0.1820  1.1137  0.1904
  354MOL0     C47684   5.051   5.678   3.313  1.4744  0.1949 -0.3308
  354MOL0     C47685   4.943   5.774   3.265  0.4855  0.3183  0.5102
  354MOL0     O47686   4.845   5.726   3.174 -0.0814  0.1987  0.2185
  354MOL0     C47687   4.789   5.818   3.087 -0.7234  0.7041 -0.3892
  354MOL0     C47688   4.659   5.870   3.107  0.1809 -0.0876  0.1848
  354MOL0     C47689   4.611   5.968   3.018  0.4323  0.0047 -0.3922
  354MOL0     C47690   4.684   5.994   2.903  0.7437 -0.2352  0.7107
  354MOL0     O47691   4.640   6.059   2.790 -0.0501  0.2337 -0.2021
  354MOL0     C47692   4.503   6.082   2.771 -0.2951 -1.0574  0.0367
  354MOL0     C47693   4.501   6.113   2.619  0.1000 -1.2455 -0.0117
  354MOL0     C47694   4.352   6.142   2.576  0.0155 -0.4663  0.8819
  354MOL0     C47695   4.262   6.223   2.665 -0.6430 -0.0680 -0.0359
  354MOL0     C47696   4.146   6.272   2.581 -0.2846 -0.4854 -0.3359
  354MOL0     C47697   4.056   6.366   2.648  0.7381  0.7483  0.8418
  354MOL0     C47698   3.977   6.300   2.762  0.3003  0.5833  0.3427
  354MOL0     C47699   3.863   6.384   2.819 -0.0142 -1.1692  0.7003
  354MOL0    Cl47700   3.920   6.539   2.882 -0.8372 -0.1787 -0.2064
  354MOL0     C47701   4.812   5.946   2.889 -1.1092  0.7964 -0.5393
  354MOL0     C47702   4.870   5.857   2.979  0.1454 -0.5783  0.6517
  354MOL0     O47703   4.945   5.888   3.303 -0.1397  0.1804 -0.0369
  354MOL0     C47704   5.081   5.579   3.228  0.1257 -0.0319  1.4547
  354MOL0     C47705   5.182   5.493   3.260  0.1337  0.5790  0.3801
  354MOL0     N47706   5.804   5.052   3.296  0.0638 -0.1347  0.6786
  354MOL0     N47707   5.808   4.925   3.281 -0.5509  0.4170  0.6367
  354MOL0     C47708   6.084   3.829   2.936  0.1921  0.2718  0.0532
  354MOL0     C47709   6.129   3.698   2.904 -0.0112 -0.2441 -0.7969
  354MOL0     C47710   6.293   3.319   2.757 -0.1649  0.7437  0.4895
  354MOL0     C47711   6.279   3.214   2.843 -0.1569 -0.1084  0.0400
  354MOL0     C47712   6.361   3.095   2.823  0.7152 -0.0709 -0.1212
  354MOL0     C47713   6.452   3.084   2.720  0.4302 -0.4872  0.5460
  354MOL0     O47714   6.515   2.966   2.719  0.2459 -0.2028 -0.5077
  354MOL0     C47715   6.647   2.956   2.658  1.0868  1.1867  0.2446
  354MOL0     C47716   6.754   3.037   2.737 -0.5586 -1.2683  0.1569
  354MOL0     C47717   6.882   2.974   2.718  1.0694 -0.3935 -0.1982
  354MOL0     C47718   6.989   3.042   2.806  0.0728 -0.4326 -0.9330
  354MOL0     C47719   7.073   3.138   2.737  1.3578 -0.1746  0.2127
  354MOL0     C47720   7.121   3.226   2.664 -0.3144  0.1810 -0.1744
  354MOL0     C47721   6.460   3.191   2.630  0.7386 -0.4607  0.0341
  354MOL0     C47722   6.384   3.312   2.644  0.7930  0.4296 -0.0593
  354MOL0     H47723   6.221   3.734   2.583 -3.1233  3.5979 -1.5574
  354MOL0     H47724   6.170   3.976   2.641 -0.3390 -1.6966 -1.5623
  354MOL0     H47725   5.922   4.056   3.046 -0.4012  1.4087 -0.2315
  354MOL0     H47726   6.087   4.115   3.068  0.5999 -3.8159  1.2681
  354MOL0     H47727   6.032   4.318   2.946 -2.3821  3.8821  1.3855
  354MOL0     H47728   5.862   4.264   2.912 -0.8062  0.3945  1.8518
  354MOL0     H47729   5.840   4.233   3.162 -0.8750 -0.8540 -2.1000
  354MOL0     H47730   5.999   4.321   3.166  0.9355  0.0092 -0.8935
  354MOL0     H47731   5.883   4.525   3.061 -1.7490  1.8443  0.4159
  354MOL0     H47732   5.737   4.435   3.037  0.0068 -2.3021  1.2800
  354MOL0     H47733   5.742   4.395   3.295  1.0440 -0.9308  0.9407
  354MOL0     H47734   5.879   4.511   3.300 -2.0012 -0.8282  2.2653
  354MOL0     H47735   5.729   4.675   3.189 -0.2750 -0.4031  0.7759
  354MOL0     H47736   5.602   4.559   3.207 -3.2556  3.7206  1.0526
  354MOL0     H47737   5.580   4.704   3.401  1.7559  2.1940  0.3427
  354MOL0     H47738   5.654   4.562   3.465  1.3448  0.0007 -1.1230
  354MOL0     H47739   5.883   4.690   3.424  1.6975  2.3997 -0.1737
  354MOL0     H47740   5.790   4.719   3.552  1.9211 -0.7561 -1.1935
  354MOL0     H47741   5.744   4.989   3.594 -3.2831  0.7323 -1.4761
  354MOL0     H47742   5.748   5.220   3.564  0.5195 -1.1182  0.4155
  354MOL0     H47743   5.861   5.278   3.443 -1.2897  2.1570  0.9098
  354MOL0     H47744   5.677   5.292   3.281  2.6428  1.2173  0.3440
  354MOL0     H47745   5.641   5.401   3.419 -0.5741 -1.0240  2.5165
  354MOL0     H47746   5.491   5.258   3.528  1.5758 -0.2581  0.5361
  354MOL0     H47747   5.521   5.129   3.408 -2.7559 -0.0893  0.2283
  354MOL0     H47748   5.297   5.267   3.354 -2.4987  3.9545 -1.7085
  354MOL0     H47749   5.423   5.313   3.237  1.4018  0.5560  0.0187
  354MOL0     H47750   5.303   5.626   3.540  2.0405 -3.7884 -0.5487
  354MOL0     H47751   4.951   5.780   3.543 -0.3653 -1.7764 -0.0380
  354MOL0     H47752   5.079   5.723   3.643 -2.0601 -2.4945 -1.2577
  354MOL0     H47753   5.109   5.873   3.561  1.0105  0.5779 -0.1549
  354MOL0     H47754   4.609   5.838   3.198  0.7388  1.5772  1.1222
  354MOL0     H47755   4.518   6.018   3.042  2.3387  2.0358  3.7241
  354MOL0     H47756   4.451   5.986   2.778 -1.0791 -0.7739 -1.6209
  354MOL0     H47757   4.460   6.157   2.839  2.2622  0.3252  0.2387
  354MOL0     H47758   4.559   6.204   2.600 -3.3879  1.5246  1.3836
  354MOL0     H47759   4.542   6.034   2.557  2.2931  0.2662 -0.5969
  354MOL0     H47760   4.305   6.045   2.556 -1.2043  0.2641  0.0802
  354MOL0     H47761   4.365   6.207   2.489 -1.8394 -0.0206  0.8905
  354MOL0     H47762   4.216   6.174   2.751 -1.1483  0.6227  0.0925
  354MOL0     H47763   4.324   6.305   2.701 -1.1389  0.5558 -0.5783
  354MOL0     H47764   4.092   6.187   2.538 -1.4167 -1.6055  3.0239
  354MOL0     H47765   4.179   6.330   2.494 -0.6415  1.5825  0.8422
  354MOL0     H47766   4.099   6.458   2.689 -2.6844  1.4929  3.2687
  354MOL0     H47767   4.000   6.397   2.559 -0.2773  2.7675  2.1118
  354MOL0     H47768   4.051   6.276   2.839  0.9361  1.6141  0.0656
  354MOL0     H47769   3.940   6.208   2.716 -0.7144  0.6574  0.9911
  354MOL0     H47770   3.813   6.322   2.894 -0.5249 -1.1767  0.3586
  354MOL0     H47771   3.792   6.410   2.740 -0.4453 -1.1667  1.0844
  354MOL0     H47772   4.864   5.987   2.803 -0.4553  4.4275  1.3471
  354MOL0     H47773   4.963   5.808   2.953  1.1116  2.2026 -1.6103
  354MOL0     H47774   5.012   5.552   3.148  0.0011 -2.7539  2.3865
  354MOL0     H47775   5.215   5.412   3.196 -3.2251  1.1316 -2.2988
  354MOL0     H47776   6.056   3.854   3.038  2.0777  1.4835  0.3125
  354MOL0     H47777   6.139   3.619   2.977  4.1477 -1.6337 -2.6036
  354MOL0     H47778   6.208   3.234   2.923 -0.2859  1.2315 -0.3869
  354MOL0     H47779   6.345   3.006   2.884  2.2222 -1.6145 -1.8668
  354MOL0     H47780   6.678   2.851   2.660 -0.0231  0.8347 -0.2442
  354MOL0     H47781   6.634   2.987   2.554  1.9017 -2.5463 -1.1127
  354MOL0     H47782   6.732   3.033   2.844  3.5910  1.6449  1.3675
  354MOL0     H47783   6.762   3.143   2.711 -0.4688 -1.0058  1.2326
  354MOL0     H47784   6.907   2.965   2.612  0.8343 -0.7032 -0.2318
  354MOL0     H47785   6.876   2.874   2.762  1.3197 -0.1799  0.3297
  354MOL0     H47786   7.049   2.956   2.838 -2.1215 -1.0872  1.8158
  354MOL0     H47787   6.945   3.088   2.895 -1.4875  1.1333 -2.4196
  354MOL0     H47788   7.172   3.313   2.626 -0.9763  1.0220  0.7997
  354MOL0     H47789   6.533   3.191   2.550 -2.6228  1.6966 -3.3969
  354MOL0     H47790   6.373   3.396   2.576 -3.5962 -0.9187 -1.3621
  355MOL0     O47791   7.584   6.676  10.370 -0.2052  0.1123 -0.4812
  355MOL0     C47792   7.691   6.675  10.320 -0.6967 -0.8907 -0.0759
  355MOL0     O47793   7.804   6.740  10.370  0.5663  0.6007 -0.7729
  355MOL0     C47794   7.793   6.789  10.502 -0.2972  0.0589  0.1222
  355MOL0     C47795   7.806   6.714  10.615 -0.6969 -0.2305  0.3254
  355MOL0     C47796   7.802   6.775  10.747 -0.7434  0.1457  0.2258
  355MOL0     C47797   7.768   6.908  10.755  0.0444 -0.6187 -0.0150
  355MOL0     O47798   7.763   6.983  10.868  0.2854 -0.7121 -0.7635
  355MOL0     C47799   7.760   6.923  10.991  0.2278 -0.1584 -0.2284
  355MOL0     C47800   7.765   7.034  11.095 -0.1519 -0.3814  0.9263
  355MOL0     C47801   7.693   7.158  11.045 -0.0085 -0.2923  0.0646
  355MOL0     C47802   7.704   7.263  11.154 -0.7069  0.9955  0.1682
  355MOL0     C47803   7.632   7.233  11.287 -0.6742 -0.4155 -1.2603
  355MOL0     C47804   7.679   7.340  11.389  0.4554 -0.4249  0.0889
  355MOL0     C47805   7.620   7.475  11.364 -0.9759 -0.6412  0.2843
  355MOL0     C47806   7.677   7.593  11.434 -0.4980 -0.5097 -0.4447
  355MOL0     N47807   7.818   7.613  11.383  0.4942  0.4278  0.7526
  355MOL0     C47808   7.872   7.629  11.252 -0.2456  0.1325 -1.1295
  355MOL0     C47809   8.008   7.633  11.270 -0.6384  0.3664 -0.4398
  355MOL0     C47810   8.110   7.669  11.167  0.5842 -0.2109 -0.3138
  355MOL0     C47811   8.253   7.623  11.196 -0.2092 -0.1356 -0.2113
  355MOL0     C47812   8.373   7.673  11.113  0.4680  0.5777 -0.1771
  355MOL0     C47813   8.384   7.588  10.986 -0.2919  0.3148 -0.6817
  355MOL0     O47814   8.432   7.456  11.021 -0.2532  0.9080  0.8720
  355MOL0     C47815   8.466   7.358  10.931  0.0917 -0.0778 -0.2807
  355MOL0     C47816   8.456   7.395  10.788  0.0379  0.1401  1.4009
  355MOL0     C47817   8.500   7.302  10.691 -0.6427  0.0284  0.1479
  355MOL0     C47818   8.497   7.343  10.541 -0.0622 -1.8776  0.2459
  355MOL0     C47819   8.552   7.175  10.725 -0.6529  0.5151  0.7234
  355MOL0     C47820   8.601   7.067  10.630 -0.2976  0.2527  1.7121
  355MOL0     O47821   8.619   6.951  10.685 -0.0907  0.3941  0.1048
  355MOL0     C47822   8.665   6.847  10.603 -0.4339 -0.2414  0.0689
  355MOL0     C47823   8.807   6.834  10.590  0.9026  0.4616 -0.7819
  355MOL0     C47824   8.860   6.729  10.513  0.6773  0.1679 -0.4930
  355MOL0     C47825   8.783   6.627  10.453  0.3128 -0.3387  0.5615
  355MOL0     O47826   8.827   6.518  10.387  0.6259  0.8816 -0.2132
  355MOL0     C47827   8.759   6.389  10.417  0.2964 -0.3260 -0.1352
  355MOL0     C47828   8.866   6.281  10.390  0.8223  0.3731  0.9498
  355MOL0     C47829   8.875   6.247  10.238 -0.1753  0.5087  0.4177
  355MOL0     C47830   8.963   6.129  10.222 -1.3197  0.9332 -0.5740
  355MOL0     C47831   8.931   6.041  10.093 -0.0211  0.1548  0.7565
  355MOL0     C47832   8.960   6.111   9.961  0.0574  0.2649 -0.2026
  355MOL0     C47833   8.932   6.027   9.832  0.7815 -0.6822 -0.1326
  355MOL0     C47834   8.793   5.966   9.828  0.0740 -1.3017  0.2509
  355MOL0    Cl47835   8.678   6.102   9.803  0.0601 -0.5395 -0.8336
  355MOL0     C47836   8.645   6.640  10.471 -0.1609  0.1817 -0.5219
  355MOL0     C47837   8.581   6.747  10.541 -0.5583  0.0418  0.2146
  355MOL0     O47838   8.633   7.094  10.509  0.5929 -0.3035  0.2384
  355MOL0     C47839   8.542   7.138  10.862 -0.1492  0.6393  0.3575
  355MOL0     C47840   8.499   7.228  10.967  0.0267 -0.4016  0.6314
  355MOL0     N47841   8.033   7.601  11.409  0.4449  0.9619  1.0056
  355MOL0     N47842   7.919   7.596  11.465 -0.0793 -0.1758 -0.4476
  355MOL0     C47843   7.754   6.985  10.633  0.8852 -0.1219 -0.1339
  355MOL0     C47844   7.763   6.921  10.511 -0.2924 -0.2107  0.1202
  355MOL0     C47845   7.695   6.599  10.190  0.1263 -0.8470  1.0010
  355MOL0     C47846   7.612   6.492  10.164 -0.4597 -0.2447  1.1412
  355MOL0     C47847   7.618   6.435  10.042 -0.5275  0.4377  0.0198
  355MOL0     C47848   7.715   6.476   9.946  0.5378  0.0891 -1.0402
  355MOL0     O47849   7.681   6.421   9.830  0.1922  0.1472  0.2975
  355MOL0     C47850   7.751   6.472   9.722 -0.2219  0.5894  0.0150
  355MOL0     C47851   7.673   6.450   9.592 -0.4133 -0.1676 -0.7940
  355MOL0     C47852   7.752   6.464   9.470  0.4665 -0.5109  0.1097
  355MOL0     C47853   7.799   6.610   9.439 -0.3458  0.6900 -0.0221
  355MOL0     C47854   7.877   6.604   9.310  0.4633 -0.7462  0.0799
  355MOL0     C47855   7.950   6.600   9.215 -0.1598 -0.9416  0.5394
  355MOL0     C47856   7.818   6.560   9.977 -0.5016 -0.2161  1.0275
  355MOL0     C47857   7.802   6.628  10.099 -0.6179 -0.6343  0.0700
  355MOL0     H47858   7.844   6.612  10.616  1.2824  0.4027  3.2692
  355MOL0     H47859   7.836   6.720  10.835 -1.4969 -0.6017  0.0597
  355MOL0     H47860   7.665   6.871  11.007 -1.3365  2.0634 -1.6681
  355MOL0     H47861   7.847   6.858  11.003  1.7502  1.0932 -3.4024
  355MOL0     H47862   7.720   6.994  11.186  1.2507  0.4734  2.0487
  355MOL0     H47863   7.868   7.068  11.111 -0.7650  1.1739  1.7472
  355MOL0     H47864   7.747   7.196  10.958 -0.7288  1.8669  0.4864
  355MOL0     H47865   7.588   7.131  11.030 -0.8455  0.5130  3.5027
  355MOL0     H47866   7.808   7.291  11.171 -0.1038 -1.5933  1.3062
  355MOL0     H47867   7.647   7.347  11.112 -3.2403 -0.7502 -0.1209
  355MOL0     H47868   7.522   7.233  11.281 -0.6088  1.6248 -3.9212
  355MOL0     H47869   7.651   7.131  11.322  0.8880 -0.3446 -1.8376
  355MOL0     H47870   7.635   7.303  11.481  0.5192 -3.1243 -0.8819
  355MOL0     H47871   7.788   7.347  11.393  0.5038  1.1342 -2.1637
  355MOL0     H47872   7.648   7.493  11.259  0.8274  1.0843  1.0088
  355MOL0     H47873   7.511   7.468  11.365 -1.1350  1.1005 -0.3208
  355MOL0     H47874   7.678   7.592  11.544 -1.8424  2.4349 -0.3114
  355MOL0     H47875   7.620   7.681  11.403  0.3034 -0.5101 -2.0019
  355MOL0     H47876   7.822   7.648  11.157  3.1334 -0.7642 -3.2650
  355MOL0     H47877   8.079   7.622  11.073  2.6858  1.4839 -1.9752
  355MOL0     H47878   8.124   7.776  11.150  0.5133  0.0089  0.9289
  355MOL0     H47879   8.231   7.519  11.172 -1.5510  0.3509 -1.2136
  355MOL0     H47880   8.267   7.644  11.303 -2.4771  0.5036  0.0143
  355MOL0     H47881   8.466   7.659  11.168 -0.3295 -4.4550  0.3595
  355MOL0     H47882   8.354   7.778  11.086 -1.6629  0.1735 -0.4281
  355MOL0     H47883   8.434   7.641  10.904  1.4558 -0.5150 -0.1870
  355MOL0     H47884   8.283   7.587  10.944 -1.0854 -0.9393  1.1626
  355MOL0     H47885   8.409   7.484  10.748  0.8043 -1.2708 -3.2606
  355MOL0     H47886   8.442   7.269  10.482 -0.1089 -0.3351 -1.7021
  355MOL0     H47887   8.451   7.442  10.538  1.5823 -1.0447  1.2466
  355MOL0     H47888   8.592   7.364  10.492 -0.1055  3.1074  1.8187
  355MOL0     H47889   8.878   6.907  10.629 -2.8125  5.4349 -2.2472
  355MOL0     H47890   8.966   6.712  10.502  0.2319 -2.2254 -1.6724
  355MOL0     H47891   8.726   6.405  10.520  0.5578  3.8593 -0.5516
  355MOL0     H47892   8.669   6.368  10.358 -0.6900 -1.1804  1.5872
  355MOL0     H47893   8.962   6.321  10.423  1.2671 -1.1670  1.6278
  355MOL0     H47894   8.848   6.192  10.451  1.2192  0.4443  1.1780
  355MOL0     H47895   8.899   6.338  10.183  2.0234  1.4731  2.7503
  355MOL0     H47896   8.775   6.219  10.204  0.4981  1.0035 -2.1663
  355MOL0     H47897   9.070   6.150  10.216 -1.3253  1.5192  0.9158
  355MOL0     H47898   8.953   6.066  10.312  1.4200  4.3860  2.4253
  355MOL0     H47899   8.825   6.014  10.090  0.2609 -0.9813 -2.2092
  355MOL0     H47900   8.989   5.950  10.106 -0.2545  0.1529  1.9697
  355MOL0     H47901   8.894   6.198   9.966 -1.3270 -0.7941  0.9872
  355MOL0     H47902   9.065   6.140   9.949 -0.1462  0.7291 -0.9234
  355MOL0     H47903   9.004   5.945   9.820 -1.3435 -2.6198 -0.4077
  355MOL0     H47904   8.940   6.099   9.751  0.9357 -2.0097 -1.3454
  355MOL0     H47905   8.772   5.911   9.920  1.0165 -2.9130 -0.4465
  355MOL0     H47906   8.782   5.887   9.752 -2.3381  0.8297 -1.8327
  355MOL0     H47907   8.591   6.559  10.423 -1.8430  1.2458 -0.4656
  355MOL0     H47908   8.473   6.738  10.548 -0.6973  0.4711 -1.1260
  355MOL0     H47909   8.557   7.034  10.888 -2.2926 -0.0821 -1.0408
  355MOL0     H47910   8.516   7.200  11.070  2.2835 -0.9803  0.1620
  355MOL0     H47911   7.721   7.088  10.644 -1.0025 -0.8160  1.1116
  355MOL0     H47912   7.733   6.968  10.418  0.5295 -1.2414 -0.6890
  355MOL0     H47913   7.526   6.460  10.223 -0.3647 -2.4198  0.1836
  355MOL0     H47914   7.538   6.366  10.017  1.1954 -2.4753  1.9047
  355MOL0     H47915   7.764   6.580   9.730 -0.0982  0.6512 -0.9604
  355MOL0     H47916   7.850   6.426   9.714 -0.8900 -1.0945  0.9190
  355MOL0     H47917   7.589   6.521   9.589  1.8447  2.7297 -0.0727
  355MOL0     H47918   7.635   6.349   9.603 -2.0211  0.5342  0.4922
  355MOL0     H47919   7.677   6.441   9.394  0.3927  0.5629 -0.1582
  355MOL0     H47920   7.834   6.391   9.468 -0.2995 -1.3880  0.1317
  355MOL0     H47921   7.864   6.640   9.521  0.0435 -0.9176  0.2865
  355MOL0     H47922   7.717   6.682   9.434 -0.6910  0.3054  0.0583
  355MOL0     H47923   7.999   6.596   9.120 -2.9271 -2.0352 -0.9645
  355MOL0     H47924   7.891   6.570   9.898  0.3999 -5.0462  0.9327
  355MOL0     H47925   7.882   6.699  10.117 -0.3831 -0.0150 -2.9536
  356MOL0     O47926   3.628   7.362   8.356  0.2734  0.1036 -0.3633
  356MOL0     C47927   3.672   7.373   8.473  0.2482 -0.4136  0.2095
  356MOL0     O47928   3.596   7.350   8.587  1.0202  0.5510  0.2866
  356MOL0     C47929   3.472   7.299   8.575  0.1171  0.1068  0.1727
  356MOL0     C47930   3.355   7.374   8.558  0.8866 -0.3354 -0.8641
  356MOL0     C47931   3.220   7.316   8.550  0.4131  0.1919  0.5201
  356MOL0     C47932   3.210   7.187   8.595  0.7996  0.0424 -0.2795
  356MOL0     O47933   3.072   7.144   8.615  0.3015  0.3276 -0.2564
  356MOL0     C47934   3.058   7.025   8.695  0.4781 -0.4343  0.0695
  356MOL0     C47935   2.910   6.994   8.695  0.0462 -0.2171  0.8188
  356MOL0     C47936   2.873   6.876   8.786  0.3913 -0.3973 -0.0718
  356MOL0     C47937   2.716   6.852   8.781 -1.0739 -0.0268 -0.4800
  356MOL0     C47938   2.670   6.713   8.826 -0.0866 -0.1191 -0.3333
  356MOL0     C47939   2.693   6.681   8.975  0.2781 -0.7943 -0.7530
  356MOL0     C47940   2.663   6.535   9.008  0.1293 -0.2510 -0.1682
  356MOL0     C47941   2.784   6.435   8.972 -0.0494 -0.1187 -0.3684
  356MOL0     N47942   2.890   6.442   9.072  0.2049  0.6851 -0.0183
  356MOL0     C47943   2.878   6.473   9.205 -0.3319  0.0679 -0.1140
  356MOL0     C47944   3.008   6.468   9.244 -0.1198  1.5046  0.3225
  356MOL0     C47945   3.061   6.471   9.382 -0.2434  0.0960 -0.3833
  356MOL0     C47946   3.038   6.605   9.449 -0.3848  0.3812  0.4955
  356MOL0     C47947   3.088   6.734   9.376 -1.2782  0.2903 -0.1209
  356MOL0     C47948   2.983   6.839   9.331  0.5382 -0.7566  0.0244
  356MOL0     O47949   3.040   6.912   9.226  0.2295  0.2107 -0.1803
  356MOL0     C47950   2.967   7.005   9.155  0.1089 -1.4685 -0.7603
  356MOL0     C47951   3.025   7.119   9.098 -0.5633 -0.3912  1.0399
  356MOL0     C47952   2.967   7.218   9.026  0.7550  0.2103 -0.4302
  356MOL0     C47953   3.058   7.331   8.972  0.3489  0.4835 -0.0031
  356MOL0     C47954   2.827   7.219   9.027 -0.7015  0.4345  0.4489
  356MOL0     C47955   2.739   7.343   8.998 -0.4234 -1.0802 -0.9456
  356MOL0     O47956   2.605   7.329   9.029  1.0906  0.1227  1.0703
  356MOL0     C47957   2.513   7.433   9.012 -0.1663  0.7447 -0.3920
  356MOL0     C47958   2.545   7.566   9.005 -0.1431  0.5110 -0.0398
  356MOL0     C47959   2.452   7.664   8.994  0.3270 -0.0614 -0.0437
  356MOL0     C47960   2.318   7.635   8.956  0.0368  0.2532 -1.0027
  356MOL0     O47961   2.224   7.725   8.915 -0.1476 -0.4995 -0.0083
  356MOL0     C47962   2.265   7.860   8.901  0.3369  0.1721 -0.3390
  356MOL0     C47963   2.140   7.954   8.863  0.7100  0.8419  0.2511
  356MOL0     C47964   2.188   8.096   8.834 -0.5267  0.0728 -0.1928
  356MOL0     C47965   2.265   8.111   8.701  1.1375 -0.0608 -0.0268
  356MOL0     C47966   2.273   8.241   8.646 -0.3055 -0.4319 -0.2131
  356MOL0     C47967   2.144   8.307   8.597 -0.0669 -0.1969 -0.1156
  356MOL0     C47968   2.163   8.447   8.541  0.0825  0.9367  0.5593
  356MOL0     C47969   2.035   8.518   8.499  1.5841 -0.4886 -0.5679
  356MOL0    Cl47970   1.909   8.502   8.633 -0.4034 -0.7404  0.6568
  356MOL0     C47971   2.291   7.502   8.952 -0.1694  0.6059  0.2842
  356MOL0     C47972   2.382   7.398   8.990  0.8788 -0.1535 -0.6876
  356MOL0     O47973   2.790   7.435   8.931 -0.3270 -0.1061  0.3768
  356MOL0     C47974   2.755   7.105   9.079 -0.4084  0.2568 -0.2238
  356MOL0     C47975   2.830   6.998   9.140  0.1987 -0.2987  0.0764
  356MOL0     N47976   3.090   6.454   9.138 -0.7119  0.2645  0.6977
  356MOL0     N47977   3.015   6.436   9.037  0.0232  1.1451 -0.0238
  356MOL0     C47978   3.321   7.108   8.619  0.5527 -0.1770 -0.2556
  356MOL0     C47979   3.452   7.160   8.612  0.0329 -0.1155 -0.9248
  356MOL0     C47980   3.821   7.395   8.489 -0.4416  0.2637  0.7674
  356MOL0     C47981   3.898   7.420   8.376 -0.5972  0.3894  0.6031
  356MOL0     C47982   4.040   7.430   8.391 -0.3910  0.5196 -0.3687
  356MOL0     C47983   4.103   7.423   8.517  0.4218 -0.7224  0.2004
  356MOL0     O47984   4.239   7.426   8.525  0.2534 -0.4295 -0.2560
  356MOL0     C47985   4.304   7.451   8.655 -0.3380 -0.0943  1.1540
  356MOL0     C47986   4.449   7.463   8.628  0.8469  0.1674 -0.6966
  356MOL0     C47987   4.525   7.336   8.579 -0.1658  0.2857 -0.3775
  356MOL0     C47988   4.453   7.227   8.498 -0.0376  0.5735 -0.2241
  356MOL0     C47989   4.428   7.265   8.363  0.1231  0.0695  0.3395
  356MOL0     C47990   4.415   7.315   8.255 -1.0976  0.7322  0.5475
  356MOL0     C47991   4.022   7.412   8.635 -0.2391 -0.1810 -0.2305
  356MOL0     C47992   3.880   7.391   8.618 -0.3198 -1.0496  0.4440
  356MOL0     H47993   3.362   7.480   8.540 -0.7158 -0.0445  0.0709
  356MOL0     H47994   3.129   7.365   8.519  0.6834 -1.5636 -3.5905
  356MOL0     H47995   3.110   6.937   8.656  2.2046 -1.4398  4.1214
  356MOL0     H47996   3.093   7.040   8.798  0.4582  0.9040 -0.1004
  356MOL0     H47997   2.863   7.088   8.726  1.4614  0.4568  1.0191
  356MOL0     H47998   2.885   6.968   8.591 -0.0166 -2.3441  1.3198
  356MOL0     H47999   2.919   6.786   8.745  0.3194 -0.0965 -0.8249
  356MOL0     H48000   2.908   6.887   8.889 -3.1811  1.5672  1.1012
  356MOL0     H48001   2.676   6.925   8.853 -0.3935 -0.4482  0.3510
  356MOL0     H48002   2.674   6.872   8.682 -2.9397 -0.8029  0.1251
  356MOL0     H48003   2.565   6.691   8.802  0.6258 -2.9335 -1.2388
  356MOL0     H48004   2.732   6.640   8.774  0.7983  0.0025  0.5354
  356MOL0     H48005   2.798   6.702   8.993 -0.4268  1.2538  1.5118
  356MOL0     H48006   2.632   6.736   9.048  3.6467 -2.0340  3.4252
  356MOL0     H48007   2.643   6.538   9.116  0.8004  3.0830 -0.0087
  356MOL0     H48008   2.573   6.498   8.958 -0.2382 -0.8581  0.9093
  356MOL0     H48009   2.826   6.460   8.874 -0.7654 -1.7888 -1.1398
  356MOL0     H48010   2.753   6.331   8.961 -1.5119  0.0588  1.5457
  356MOL0     H48011   2.789   6.504   9.259  0.0540  2.7471 -0.8818
  356MOL0     H48012   3.014   6.389   9.437  1.0498 -2.3808 -2.7137
  356MOL0     H48013   3.166   6.444   9.379  0.2951  2.0094 -0.1099
  356MOL0     H48014   3.095   6.588   9.540  1.1490  3.4401  0.2499
  356MOL0     H48015   2.931   6.627   9.458 -0.8568 -1.5626  0.0948
  356MOL0     H48016   3.160   6.704   9.299 -1.7557 -1.2067 -0.0161
  356MOL0     H48017   3.150   6.781   9.452 -1.6765  0.0605  0.3486
  356MOL0     H48018   2.964   6.907   9.414 -0.2320 -0.3325 -0.4980
  356MOL0     H48019   2.888   6.790   9.307  0.3047 -0.9950  1.3509
  356MOL0     H48020   3.132   7.110   9.109 -0.3534 -2.5104 -1.6390
  356MOL0     H48021   3.020   7.423   9.018 -1.7073 -0.8370  1.0960
  356MOL0     H48022   3.162   7.318   9.006  1.1544  2.1329 -1.6549
  356MOL0     H48023   3.064   7.318   8.864 -1.2473 -2.5134  0.1609
  356MOL0     H48024   2.647   7.596   9.026 -0.3246  2.9683 -2.1352
  356MOL0     H48025   2.471   7.771   8.992  0.1521 -0.0360 -0.7242
  356MOL0     H48026   2.301   7.898   8.997 -2.0688  3.0970 -0.4682
  356MOL0     H48027   2.347   7.856   8.828 -0.0643 -3.4511 -0.7877
  356MOL0     H48028   2.084   7.919   8.776  0.7005  1.2327  0.0994
  356MOL0     H48029   2.070   7.956   8.947  1.8707 -1.0357  1.3363
  356MOL0     H48030   2.244   8.128   8.922  0.3149  1.1869 -1.1089
  356MOL0     H48031   2.098   8.158   8.841 -0.1400  0.6217 -0.0377
  356MOL0     H48032   2.361   8.060   8.714  1.4774  0.1329 -1.5590
  356MOL0     H48033   2.209   8.050   8.629 -2.1389  0.8647  1.5757
  356MOL0     H48034   2.343   8.244   8.562 -1.0718  2.1360 -0.8415
  356MOL0     H48035   2.327   8.303   8.718  1.7338 -0.0538 -1.9655
  356MOL0     H48036   2.098   8.250   8.515 -0.7163 -0.0101  0.1110
  356MOL0     H48037   2.091   8.301   8.693  0.0864  2.0090  0.1452
  356MOL0     H48038   2.225   8.437   8.452  0.4680  0.6075  0.8608
  356MOL0     H48039   2.205   8.513   8.618  1.0609  1.0459 -0.0609
  356MOL0     H48040   2.001   8.482   8.401 -1.4293  0.8589 -0.1352
  356MOL0     H48041   2.063   8.623   8.485 -2.4159  0.9538  0.9427
  356MOL0     H48042   2.194   7.466   8.918  0.9155 -0.4798 -1.8820
  356MOL0     H48043   2.357   7.294   9.005 -0.9835  0.3985  0.3063
  356MOL0     H48044   2.649   7.083   9.077 -0.2683 -0.4175 -0.4911
  356MOL0     H48045   2.783   6.902   9.160  2.4737 -1.4139  0.4312
  356MOL0     H48046   3.320   7.000   8.628  2.2732 -0.3182 -1.4125
  356MOL0     H48047   3.545   7.107   8.630  0.2572  0.1193 -1.3770
  356MOL0     H48048   3.858   7.436   8.276 -0.5184 -1.8565  0.1559
  356MOL0     H48049   4.109   7.441   8.308  0.4045 -0.3208  0.1666
  356MOL0     H48050   4.271   7.546   8.698  1.3988  0.8625  0.4483
  356MOL0     H48051   4.296   7.364   8.721 -0.2520 -3.5012 -2.9358
  356MOL0     H48052   4.486   7.496   8.725 -1.0451  2.3414 -0.6286
  356MOL0     H48053   4.466   7.547   8.560  2.4948  0.4257 -0.0086
  356MOL0     H48054   4.578   7.290   8.662  0.9313  1.2751 -0.5019
  356MOL0     H48055   4.608   7.377   8.521  0.9364 -0.4024  0.6841
  356MOL0     H48056   4.359   7.203   8.548  0.4897  3.3089  2.3776
  356MOL0     H48057   4.514   7.136   8.493  1.1207  1.3884 -2.5831
  356MOL0     H48058   4.402   7.365   8.161 -2.4482  0.7960  0.7529
  356MOL0     H48059   4.058   7.407   8.738  1.6864 -2.1029 -0.9366
  356MOL0     H48060   3.814   7.378   8.703  0.0937 -0.0965  0.9232
  357MOL0     O48061   0.296   7.077   9.713  0.8795  0.2310 -0.1952
  357MOL0     C48062   0.218   7.172   9.712 -0.6199 -0.4688 -0.3403
  357MOL0     O48063   0.147   7.218   9.599 -0.2361 -0.1040 -0.0799
  357MOL0     C48064   0.113   7.138   9.491 -0.0824  0.7201 -0.4137
  357MOL0     C48065   0.192   7.040   9.424 -0.2817  0.3740 -0.4711
  357MOL0     C48066   0.136   6.958   9.327 -0.0823 -0.3033  0.6644
  357MOL0     C48067   0.005   6.959   9.294 -0.1357  0.7538 -0.2599
  357MOL0     O48068  -0.039   6.873   9.205  0.2609 -0.2298  0.9014
  357MOL0     C48069  -0.074   6.938   9.076  0.3705 -0.6465  0.2046
  357MOL0     C48070  -0.199   6.873   9.014 -0.3406 -0.3032  0.6167
  357MOL0     C48071  -0.328   6.891   9.100 -0.1683  0.1972  0.4544
  357MOL0     C48072  -0.439   6.822   9.019  0.2638  0.5655  0.8102
  357MOL0     C48073  -0.577   6.845   9.092  0.5054  0.6471  0.8457
  357MOL0     C48074  -0.683   6.791   8.999 -0.2991  0.2430 -0.9773
  357MOL0     C48075  -0.820   6.807   9.062 -0.1743 -0.4477 -0.2847
  357MOL0     C48076  -0.913   6.705   8.999 -0.7375 -0.1760  0.3883
  357MOL0     N48077  -0.937   6.731   8.857  0.1943  0.4027  0.4620
  357MOL0     C48078  -1.028   6.813   8.801  0.5919  0.3214  0.7353
  357MOL0     C48079  -0.990   6.817   8.674  0.4251 -1.3037  0.2007
  357MOL0     C48080  -1.057   6.893   8.566 -0.3051 -0.6693 -0.0522
  357MOL0     C48081  -1.207   6.880   8.557  0.8281  0.0856  0.0995
  357MOL0     C48082  -1.269   6.969   8.448  0.1806 -1.1427  1.4258
  357MOL0     C48083  -1.420   6.971   8.452 -0.5584 -0.6558  0.0874
  357MOL0     O48084  -1.483   6.862   8.379 -0.0503  0.2717  0.3925
  357MOL0     C48085  -1.487   6.881   8.239  1.1173  0.3240  0.1236
  357MOL0     C48086  -1.422   6.986   8.173 -0.2128 -0.0872  0.4636
  357MOL0     C48087  -1.442   7.017   8.035  0.7571 -0.5874 -0.6616
  357MOL0     C48088  -1.363   7.128   7.963  0.1367  0.8730  0.3090
  357MOL0     C48089  -1.524   6.926   7.955  0.2453  0.4301 -0.7442
  357MOL0     C48090  -1.534   6.929   7.803 -0.0182 -0.0098  0.7740
  357MOL0     O48091  -1.510   6.810   7.733 -0.3703 -0.2030 -0.0886
  357MOL0     C48092  -1.566   6.793   7.615  0.2528 -0.5129 -0.4419
  357MOL0     C48093  -1.699   6.833   7.586 -1.7369  0.2577 -0.3465
  357MOL0     C48094  -1.754   6.807   7.458 -0.7187  0.9280  0.1526
  357MOL0     C48095  -1.674   6.734   7.364  0.1162 -0.0282  0.5426
  357MOL0     O48096  -1.726   6.705   7.243  0.8977  0.5319 -0.6588
  357MOL0     C48097  -1.634   6.717   7.128  0.3697 -0.0933 -0.2487
  357MOL0     C48098  -1.703   6.738   6.994 -0.3077 -0.4424 -0.5320
  357MOL0     C48099  -1.746   6.881   6.971  0.0851  0.2422  0.0521
  357MOL0     C48100  -1.797   6.897   6.825  0.7292 -1.7615 -0.3546
  357MOL0     C48101  -1.865   7.038   6.806 -0.6663 -0.8103  0.7019
  357MOL0     C48102  -1.757   7.141   6.800 -0.2598  0.2405 -0.8425
  357MOL0     C48103  -1.809   7.276   6.787  0.0260 -0.2541  0.1216
  357MOL0     C48104  -1.860   7.327   6.649 -0.5240  0.5882 -0.1422
  357MOL0    Cl48105  -1.946   7.483   6.686  0.0588  0.3831 -0.4073
  357MOL0     C48106  -1.547   6.683   7.399  0.3745 -0.1752  0.7412
  357MOL0     C48107  -1.500   6.717   7.530 -0.8193  0.3314  0.0214
  357MOL0     O48108  -1.561   7.038   7.756  0.1164 -0.3246 -0.2531
  357MOL0     C48109  -1.582   6.816   8.028  0.1017 -0.1982  0.1083
  357MOL0     C48110  -1.564   6.801   8.163 -0.0582  0.4179  0.6258
  357MOL0     N48111  -0.875   6.740   8.654 -0.2715 -0.0551  0.3504
  357MOL0     N48112  -0.855   6.678   8.760 -0.3762 -0.2700  0.1139
  357MOL0     C48113  -0.075   7.069   9.348  0.3152  0.1922 -0.7516
  357MOL0     C48114  -0.014   7.152   9.444  0.5474 -0.6022  0.7858
  357MOL0     C48115   0.216   7.244   9.837 -0.7269 -0.9867 -0.6088
  357MOL0     C48116   0.100   7.310   9.881  0.6627 -0.8027  0.4210
  357MOL0     C48117   0.095   7.387   9.994  0.3097 -0.5673  0.2629
  357MOL0     C48118   0.208   7.410  10.070 -0.1475  0.7731  0.4613
  357MOL0     O48119   0.202   7.488  10.179 -0.8795 -0.7134 -0.4968
  357MOL0     C48120   0.077   7.514  10.245  0.0451  0.4572  0.0834
  357MOL0     C48121   0.109   7.549  10.389  0.4600 -0.1722  0.9724
  357MOL0     C48122   0.234   7.485  10.462  0.1608 -0.8889 -0.5732
  357MOL0     C48123   0.234   7.523  10.610  0.2973  0.2861  1.0793
  357MOL0     C48124   0.296   7.649  10.625  0.4493 -0.2033  0.1861
  357MOL0     C48125   0.350   7.758  10.623  0.2578  0.3967 -0.3796
  357MOL0     C48126   0.332   7.343  10.038  0.9893  0.8907  0.5827
  357MOL0     C48127   0.334   7.261   9.918  0.2703 -0.5119 -0.5817
  357MOL0     H48128   0.296   7.044   9.453 -0.6662 -0.3894  1.1268
  357MOL0     H48129   0.204   6.884   9.287  1.7705  0.7240  1.7373
  357MOL0     H48130  -0.085   7.046   9.085 -2.3527 -0.8984  0.8266
  357MOL0     H48131   0.012   6.915   9.012  0.8439 -0.7936  0.8848
  357MOL0     H48132  -0.215   6.920   8.917 -3.3138 -2.2282  0.0503
  357MOL0     H48133  -0.178   6.768   8.994  1.2495 -0.0414  0.7755
  357MOL0     H48134  -0.325   6.845   9.200  2.0415 -1.3114 -0.2434
  357MOL0     H48135  -0.339   6.999   9.114  2.2722  0.3373  1.8180
  357MOL0     H48136  -0.440   6.859   8.916  2.8217 -2.7917 -0.5802
  357MOL0     H48137  -0.407   6.718   9.008 -1.9748  0.0380 -1.7631
  357MOL0     H48138  -0.583   6.787   9.185  0.2428 -2.3544 -0.9241
  357MOL0     H48139  -0.586   6.953   9.109  0.5108  1.1187 -1.7174
  357MOL0     H48140  -0.681   6.843   8.903 -0.9381  0.8148 -0.6875
  357MOL0     H48141  -0.667   6.683   8.990 -2.6058 -0.0785 -1.9821
  357MOL0     H48142  -0.821   6.775   9.167 -0.6171  2.6365  0.7279
  357MOL0     H48143  -0.859   6.909   9.060 -3.8983 -1.7016  0.2240
  357MOL0     H48144  -1.012   6.699   9.043 -0.0659 -2.2956  1.7713
  357MOL0     H48145  -0.874   6.603   9.003 -2.6596 -0.9504  0.1649
  357MOL0     H48146  -1.121   6.851   8.843 -0.1908  1.1895 -1.6075
  357MOL0     H48147  -1.044   7.001   8.583 -2.2524 -0.7447  2.4527
  357MOL0     H48148  -1.014   6.861   8.471 -2.6225  0.2194 -1.5018
  357MOL0     H48149  -1.266   6.892   8.649 -0.7045  1.5568 -1.0101
  357MOL0     H48150  -1.227   6.779   8.520  1.2487  0.0225  0.0395
  357MOL0     H48151  -1.228   6.945   8.350 -1.0136 -0.8266  0.8399
  357MOL0     H48152  -1.229   7.066   8.481 -0.0518 -0.7183  0.4953
  357MOL0     H48153  -1.464   7.068   8.425 -0.4389 -0.7968 -0.6294
  357MOL0     H48154  -1.454   6.966   8.556 -1.5497 -0.8394 -0.2337
  357MOL0     H48155  -1.359   7.059   8.222 -0.7998 -0.4352  1.7705
  357MOL0     H48156  -1.264   7.135   8.008  0.3209  0.6020 -0.0473
  357MOL0     H48157  -1.353   7.100   7.857 -0.5062  0.6643  0.2994
  357MOL0     H48158  -1.411   7.225   7.981  1.1634  1.2876  0.8789
  357MOL0     H48159  -1.759   6.889   7.657 -1.6571 -1.1427  0.8738
  357MOL0     H48160  -1.859   6.832   7.444 -0.5841  1.1190 -0.5438
  357MOL0     H48161  -1.575   6.805   7.153  1.2390 -0.4174 -1.1261
  357MOL0     H48162  -1.558   6.639   7.117  0.7501 -0.4276  3.4438
  357MOL0     H48163  -1.631   6.706   6.917 -2.1189 -3.6641 -1.0607
  357MOL0     H48164  -1.785   6.668   6.976  0.9082 -1.9008 -0.6103
  357MOL0     H48165  -1.658   6.940   6.998  1.3540 -2.0344  1.2229
  357MOL0     H48166  -1.835   6.898   7.032  1.4671 -0.2660  2.3364
  357MOL0     H48167  -1.721   6.881   6.748  0.1949  1.6957 -1.7983
  357MOL0     H48168  -1.876   6.822   6.810 -0.0903 -1.1114  0.5955
  357MOL0     H48169  -1.937   7.057   6.886 -0.3554  0.9500  0.5989
  357MOL0     H48170  -1.920   7.047   6.712 -1.4255  4.0985  1.3604
  357MOL0     H48171  -1.706   7.148   6.896 -1.6051  2.5248 -0.2113
  357MOL0     H48172  -1.676   7.115   6.731  1.1724 -2.0156  1.5181
  357MOL0     H48173  -1.732   7.349   6.814 -1.9396  2.1894 -0.4958
  357MOL0     H48174  -1.890   7.286   6.860  0.1724  0.6693  0.1707
  357MOL0     H48175  -1.934   7.257   6.610  0.7013 -0.9256  0.1289
  357MOL0     H48176  -1.783   7.345   6.573 -1.9665  1.1393 -1.5223
  357MOL0     H48177  -1.501   6.614   7.327 -1.8640 -3.0060  1.8397
  357MOL0     H48178  -1.409   6.669   7.566 -1.0671 -1.3082 -1.3951
  357MOL0     H48179  -1.645   6.743   7.978  0.3697 -1.9497  2.1871
  357MOL0     H48180  -1.608   6.712   8.206 -1.4502  0.0645 -1.3741
  357MOL0     H48181  -0.173   7.101   9.312  0.8698  0.1909 -2.3647
  357MOL0     H48182  -0.059   7.242   9.484 -1.4113 -0.4888 -1.4597
  357MOL0     H48183   0.012   7.283   9.823  2.7131  2.2463 -4.8956
  357MOL0     H48184  -0.005   7.428  10.009  0.6054  1.0057 -1.7232
  357MOL0     H48185   0.017   7.585  10.187  0.7790 -1.6206 -3.5790
  357MOL0     H48186   0.020   7.420  10.238 -0.0963  0.4845  0.8625
  357MOL0     H48187   0.013   7.531  10.439  1.6903 -6.3362  1.9069
  357MOL0     H48188   0.128   7.657  10.386 -0.4190  0.0076  1.4390
  357MOL0     H48189   0.325   7.515  10.411  0.4607 -1.8912 -0.6512
  357MOL0     H48190   0.229   7.376  10.454 -0.0127 -0.8277 -1.3361
  357MOL0     H48191   0.273   7.446  10.677  1.7749 -0.0122 -0.0802
  357MOL0     H48192   0.136   7.529  10.660  0.1089 -0.1900  0.7743
  357MOL0     H48193   0.415   7.842  10.618  1.2337 -0.4008 -3.4685
  357MOL0     H48194   0.414   7.354  10.109  1.2931 -2.6324  0.9698
  357MOL0     H48195   0.426   7.219   9.879  0.1514  0.2873 -1.7529
  358MOL0     O48196   6.903   8.257   8.951  0.0810 -0.4842 -1.2244
  358MOL0     C48197   6.968   8.196   9.041  0.1224  0.4829  0.2654
  358MOL0     O48198   7.087   8.234   9.090  0.0501  1.0999 -0.0992
  358MOL0     C48199   7.147   8.339   9.035 -0.2632 -0.3859 -0.8002
  358MOL0     C48200   7.256   8.339   8.952  0.5057 -0.2976  0.0036
  358MOL0     C48201   7.326   8.454   8.903 -0.3435 -0.7522  0.1034
  358MOL0     C48202   7.280   8.579   8.952 -0.8305 -0.3292  0.1693
  358MOL0     O48203   7.342   8.697   8.918 -0.3075  0.0673 -0.7404
  358MOL0     C48204   7.433   8.697   8.809 -0.1920 -0.2254 -0.2838
  358MOL0     C48205   7.493   8.829   8.783 -0.5595 -0.4085  0.8821
  358MOL0     C48206   7.542   8.836   8.637  0.0716  0.5942  0.4511
  358MOL0     C48207   7.647   8.722   8.609 -0.3287  0.2024  0.4524
  358MOL0     C48208   7.713   8.742   8.469  0.8041 -0.1677 -0.6255
  358MOL0     C48209   7.836   8.646   8.436  0.4479 -0.3835 -0.8465
  358MOL0     C48210   7.907   8.692   8.310 -0.1835 -0.5034 -0.3974
  358MOL0     C48211   8.025   8.614   8.277 -0.5574  0.6575 -0.0620
  358MOL0     N48212   8.001   8.465   8.261  0.1610 -0.5920 -0.4057
  358MOL0     C48213   7.957   8.426   8.130  0.7828  0.7012  0.2122
  358MOL0     C48214   7.988   8.290   8.122 -0.6627 -0.6512 -0.8429
  358MOL0     C48215   7.992   8.212   7.997 -0.9716  0.0558 -0.5330
  358MOL0     C48216   7.899   8.093   7.981 -0.3010  0.7129 -0.0081
  358MOL0     C48217   7.757   8.123   8.035 -0.4813 -0.2752  0.0526
  358MOL0     C48218   7.686   7.997   8.063  0.8080  0.3655  0.7907
  358MOL0     O48219   7.671   7.903   7.951  0.2882 -0.4814  0.3542
  358MOL0     C48220   7.618   7.781   7.989 -0.1208  0.0584 -0.2685
  358MOL0     C48221   7.594   7.735   8.122 -0.0854 -0.1224  0.4271
  358MOL0     C48222   7.559   7.604   8.151 -0.1645  0.0910 -0.2727
  358MOL0     C48223   7.520   7.574   8.296 -0.5170  0.8147 -0.1515
  358MOL0     C48224   7.534   7.514   8.046 -0.3871  0.0306  0.7604
  358MOL0     C48225   7.507   7.371   8.066 -0.1744 -0.4793  0.0261
  358MOL0     O48226   7.500   7.313   8.193 -0.0130 -0.2078  0.4786
  358MOL0     C48227   7.544   7.189   8.229  0.2298 -0.0685 -0.4786
  358MOL0     C48228   7.631   7.117   8.140  0.4635  0.0067  0.5084
  358MOL0     C48229   7.707   7.014   8.187 -0.6747 -0.1253 -0.3960
  358MOL0     C48230   7.675   6.951   8.307  0.1690  0.8166  0.7297
  358MOL0     O48231   7.729   6.822   8.318 -0.4912  0.2714 -0.2566
  358MOL0     C48232   7.687   6.744   8.433 -0.2199 -0.7627 -0.1127
  358MOL0     C48233   7.772   6.621   8.425  0.0497  0.5214 -1.3480
  358MOL0     C48234   7.756   6.544   8.565 -0.0031 -0.4811  0.6353
  358MOL0     C48235   7.616   6.535   8.625 -0.4808  0.8388 -0.0366
  358MOL0     C48236   7.625   6.450   8.749  0.0932 -0.9503  0.5153
  358MOL0     C48237   7.486   6.403   8.785  0.5093  0.6246  0.5834
  358MOL0     C48238   7.484   6.308   8.901 -0.0295  0.3189  0.0501
  358MOL0     C48239   7.559   6.366   9.023 -0.5483  0.7559 -0.1636
  358MOL0    Cl48240   7.716   6.297   9.036 -0.0931 -0.3474 -0.2539
  358MOL0     C48241   7.572   7.005   8.390  0.1760  0.0438 -0.6102
  358MOL0     C48242   7.519   7.131   8.355  0.0164  0.6429  0.6501
  358MOL0     O48243   7.493   7.314   7.959  0.1051 -0.3300  0.4222
  358MOL0     C48244   7.549   7.564   7.913 -0.3147  0.0328  0.4188
  358MOL0     C48245   7.580   7.696   7.894 -0.3213  0.3139  0.2502
  358MOL0     N48246   8.048   8.257   8.242 -0.0929  0.3052  0.0041
  358MOL0     N48247   8.045   8.360   8.328  0.4518  1.2371 -0.5456
  358MOL0     C48248   7.170   8.585   9.040  0.7267  1.0763 -0.0313
  358MOL0     C48249   7.108   8.466   9.094  0.3814  0.0148  1.4951
  358MOL0     C48250   6.903   8.084   9.119  0.4677 -0.3988  0.4572
  358MOL0     C48251   6.809   8.000   9.066  0.3918 -1.0898  0.4225
  358MOL0     C48252   6.755   7.895   9.135  0.1337 -0.3632  1.2202
  358MOL0     C48253   6.779   7.881   9.270  0.5275 -0.3467  0.4681
  358MOL0     O48254   6.735   7.772   9.353 -0.0964 -0.1745  0.5317
  358MOL0     C48255   6.685   7.652   9.301 -0.6720  0.1440  0.8593
  358MOL0     C48256   6.736   7.530   9.374  0.0386 -0.5711  0.3602
  358MOL0     C48257   6.686   7.538   9.518  0.0035 -1.0974  0.0146
  358MOL0     C48258   6.712   7.409   9.594  0.0883  0.4950  1.0248
  358MOL0     C48259   6.662   7.407   9.732 -0.1971 -0.2884 -0.4742
  358MOL0     C48260   6.624   7.378   9.840 -0.4379 -0.8300  0.2090
  358MOL0     C48261   6.859   7.972   9.331 -0.5990 -0.4697 -0.7327
  358MOL0     C48262   6.921   8.075   9.257 -0.1132 -0.3902 -0.9581
  358MOL0     H48263   7.294   8.248   8.908 -3.4277 -1.1814 -1.9582
  358MOL0     H48264   7.413   8.443   8.839 -0.7011 -1.4844 -0.2636
  358MOL0     H48265   7.523   8.636   8.822  2.9236  3.2676 -3.1161
  358MOL0     H48266   7.372   8.661   8.725 -1.1589 -1.1355  0.7779
  358MOL0     H48267   7.421   8.910   8.796 -1.7098 -1.3384  0.4896
  358MOL0     H48268   7.575   8.840   8.854 -0.3358 -0.8824  0.7004
  358MOL0     H48269   7.465   8.818   8.561  1.2332 -1.7527 -0.2758
  358MOL0     H48270   7.591   8.932   8.616 -0.3824  0.5431 -0.9868
  358MOL0     H48271   7.722   8.726   8.689  1.3234 -0.3911 -0.9994
  358MOL0     H48272   7.607   8.621   8.608 -2.9329  1.1533 -0.6864
  358MOL0     H48273   7.632   8.724   8.397  1.2420 -1.3503 -0.8488
  358MOL0     H48274   7.742   8.847   8.458 -4.2851  1.4867 -0.8421
  358MOL0     H48275   7.911   8.653   8.515 -0.5339 -0.7747  0.1394
  358MOL0     H48276   7.802   8.543   8.428 -0.6909 -0.3822  2.5370
  358MOL0     H48277   7.827   8.684   8.235 -2.4719 -1.6343  1.9709
  358MOL0     H48278   7.944   8.794   8.314 -2.2155  0.3148 -0.9864
  358MOL0     H48279   8.092   8.618   8.364  1.4677 -1.4266 -1.4105
  358MOL0     H48280   8.078   8.666   8.197 -1.0713  1.2929  0.0043
  358MOL0     H48281   7.919   8.493   8.054 -1.8263  0.6811  1.3690
  358MOL0     H48282   7.955   8.288   7.927 -2.7209  1.5619  1.8791
  358MOL0     H48283   8.098   8.188   7.985 -0.4365  1.9942 -0.0614
  358MOL0     H48284   7.947   8.020   8.046  3.2765  1.3452 -1.6924
  358MOL0     H48285   7.898   8.051   7.880 -2.2929  1.7808 -0.4969
  358MOL0     H48286   7.699   8.186   7.967  0.5166  0.8335  0.1994
  358MOL0     H48287   7.762   8.174   8.132 -0.0920 -1.6838  0.8015
  358MOL0     H48288   7.583   8.021   8.093  0.9769  1.7775  0.3098
  358MOL0     H48289   7.744   7.954   8.144  0.3889  0.2937  1.0546
  358MOL0     H48290   7.600   7.813   8.198 -1.6948  0.3557  0.1030
  358MOL0     H48291   7.577   7.494   8.344 -1.5217  0.2821  0.1866
  358MOL0     H48292   7.534   7.659   8.364  1.2614  0.9653 -0.6599
  358MOL0     H48293   7.415   7.546   8.285  0.1775 -2.0496 -0.3701
  358MOL0     H48294   7.633   7.166   8.043 -1.7624 -2.0462 -0.6596
  358MOL0     H48295   7.771   6.958   8.119 -0.5631 -1.6817  0.9533
  358MOL0     H48296   7.701   6.789   8.532 -1.9315 -0.8083  0.1861
  358MOL0     H48297   7.588   6.698   8.436 -0.0484 -1.1365  2.7730
  358MOL0     H48298   7.731   6.554   8.348  0.0333 -0.8729 -0.1666
  358MOL0     H48299   7.880   6.632   8.416  0.4594 -0.1740  1.7301
  358MOL0     H48300   7.825   6.586   8.639 -2.7198  2.4123  1.7954
  358MOL0     H48301   7.794   6.446   8.534  3.0125  0.7068  0.2325
  358MOL0     H48302   7.571   6.626   8.667 -1.7740 -0.3397  1.2361
  358MOL0     H48303   7.546   6.491   8.554  1.6496 -0.1768 -1.5654
  358MOL0     H48304   7.663   6.515   8.828 -1.5960  2.2127 -1.0854
  358MOL0     H48305   7.690   6.365   8.724  0.9466  0.4172 -2.5552
  358MOL0     H48306   7.427   6.487   8.823 -0.1209 -0.6556  2.6242
  358MOL0     H48307   7.437   6.366   8.694  0.3331  0.7025  0.6455
  358MOL0     H48308   7.529   6.211   8.879  1.8466  1.1339  0.0502
  358MOL0     H48309   7.379   6.292   8.927  0.2239  1.9551  2.4597
  358MOL0     H48310   7.503   6.343   9.114  1.2052 -1.7453  0.3815
  358MOL0     H48311   7.548   6.475   9.018 -0.7336  0.6628 -2.8968
  358MOL0     H48312   7.539   6.958   8.483 -0.6602  2.4856  0.4167
  358MOL0     H48313   7.454   7.190   8.419 -1.6482  4.7388 -4.1374
  358MOL0     H48314   7.516   7.512   7.824 -2.0251 -0.4896  1.3141
  358MOL0     H48315   7.565   7.737   7.794 -3.0295  0.1867  0.5261
  358MOL0     H48316   7.117   8.678   9.060 -1.5092  0.0299 -0.7127
  358MOL0     H48317   7.020   8.474   9.157 -0.0647  0.1941  0.8688
  358MOL0     H48318   6.792   7.998   8.959 -2.0113  0.8174  0.6827
  358MOL0     H48319   6.694   7.829   9.073 -0.3758  0.9353  0.3027
  358MOL0     H48320   6.575   7.650   9.299 -0.8532  3.8124  0.5138
  358MOL0     H48321   6.716   7.646   9.197 -0.5571 -1.0772  0.9492
  358MOL0     H48322   6.845   7.523   9.368 -0.0353 -1.5709  0.0457
  358MOL0     H48323   6.687   7.446   9.324  0.1123  0.5741 -1.7667
  358MOL0     H48324   6.580   7.566   9.516  0.3369  0.5315  1.9322
  358MOL0     H48325   6.736   7.621   9.569 -0.1238  0.5001 -2.3059
  358MOL0     H48326   6.821   7.403   9.602  0.6697  2.1941 -2.9063
  358MOL0     H48327   6.683   7.323   9.533  0.8669  1.0090 -0.1070
  358MOL0     H48328   6.586   7.348   9.937  0.0013 -0.0607  0.6235
  358MOL0     H48329   6.867   7.978   9.439 -1.6901 -1.0390 -0.6013
  358MOL0     H48330   6.984   8.146   9.309 -0.7195 -1.2727  1.0719
  359MOL0     O48331   7.916   5.900   1.043 -0.5627  0.6692  0.5503
  359MOL0     C48332   7.965   5.881   1.154 -0.6015  0.7182  0.0295
  359MOL0     O48333   8.043   5.775   1.186  0.4484  0.2122 -0.4515
  359MOL0     C48334   8.070   5.667   1.101 -0.8679  0.2626  1.0354
  359MOL0     C48335   8.088   5.678   0.966 -1.0178 -0.0368  0.5749
  359MOL0     C48336   8.149   5.571   0.894 -0.1432 -0.4743  0.1156
  359MOL0     C48337   8.165   5.441   0.956 -1.1687 -0.5679 -0.2387
  359MOL0     O48338   8.200   5.329   0.891 -0.3679  0.2299  0.3647
  359MOL0     C48339   8.226   5.327   0.747  0.4155 -0.1908 -0.9066
  359MOL0     C48340   8.284   5.191   0.706 -0.5190  0.1243  0.0471
  359MOL0     C48341   8.433   5.184   0.730  0.5217  0.1727 -0.0932
  359MOL0     C48342   8.517   5.088   0.649 -0.1223 -0.1161 -1.0158
  359MOL0     C48343   8.670   5.111   0.662  0.2049  0.0623  0.2065
  359MOL0     C48344   8.732   5.224   0.588  0.2352 -0.1105  0.2945
  359MOL0     C48345   8.866   5.259   0.658 -0.7747  0.5387  0.4732
  359MOL0     C48346   8.984   5.180   0.603  0.3493  0.1522 -0.5382
  359MOL0     N48347   9.014   5.208   0.465 -0.3468 -1.0958  0.4366
  359MOL0     C48348   8.999   5.128   0.350 -0.0146  0.7058 -0.9385
  359MOL0     C48349   9.037   5.202   0.242  0.5337  0.0981 -0.8921
  359MOL0     C48350   9.049   5.171   0.103  0.7866 -0.5456 -0.1023
  359MOL0     C48351   9.184   5.206   0.027  0.3204  1.0663 -0.9246
  359MOL0     C48352   9.285   5.083   0.025  0.0254 -0.4558  0.2566
  359MOL0     C48353   9.329   5.059   0.171 -0.5143 -0.1270  0.1292
  359MOL0     O48354   9.443   4.979   0.160 -0.3251  0.1122  0.2052
  359MOL0     C48355   9.528   4.956   0.265  0.6791  0.1926  0.1887
  359MOL0     C48356   9.610   4.846   0.261 -0.2342  0.3619  1.3031
  359MOL0     C48357   9.705   4.818   0.358  0.5958  0.0054 -0.3467
  359MOL0     C48358   9.793   4.700   0.335 -0.3080 -0.2662 -0.0859
  359MOL0     C48359   9.699   4.883   0.484  0.3115  0.6443 -0.0429
  359MOL0     C48360   9.789   4.853   0.595 -0.9529 -0.8205 -0.3696
  359MOL0     O48361   9.849   4.729   0.609 -0.2031 -0.6121  0.7628
  359MOL0     C48362   9.963   4.726   0.684 -0.6275  0.3481  0.2921
  359MOL0     C48363   9.969   4.620   0.778 -0.4581  0.6136  0.6358
  359MOL0     C48364  10.081   4.599   0.850  1.4966  0.8617 -0.2603
  359MOL0     C48365  10.202   4.663   0.829  1.2642 -0.8798 -0.9761
  359MOL0     O48366  10.305   4.663   0.925  0.5485  0.4557  0.2951
  359MOL0     C48367  10.323   4.535   0.984 -0.8630 -0.4555  0.6729
  359MOL0     C48368  10.381   4.558   1.137  0.3130 -0.4506  0.6823
  359MOL0     C48369  10.255   4.584   1.235  0.5519 -0.0829  0.0788
  359MOL0     C48370  10.189   4.450   1.266 -0.8772  0.3646  0.1132
  359MOL0     C48371  10.077   4.464   1.373  0.0245 -0.2782  0.0236
  359MOL0     C48372   9.964   4.547   1.314 -0.5239  0.1301  1.3465
  359MOL0     C48373   9.841   4.530   1.407  0.1998 -0.0233 -0.6304
  359MOL0     C48374   9.721   4.597   1.350 -0.5024 -0.6826  0.1105
  359MOL0    Cl48375   9.663   4.518   1.210 -0.1403  0.1555  0.1845
  359MOL0     C48376  10.195   4.765   0.741  0.1074 -0.4250  0.5301
  359MOL0     C48377  10.081   4.809   0.665  0.7701  1.8364  0.2917
  359MOL0     O48378   9.801   4.949   0.677  0.4759  0.1389  0.1929
  359MOL0     C48379   9.611   4.989   0.495  0.5867  0.7148  0.1705
  359MOL0     C48380   9.533   5.027   0.385 -0.6068 -1.6397 -0.6029
  359MOL0     N48381   9.077   5.328   0.291 -0.0477  0.4016  0.2904
  359MOL0     N48382   9.062   5.329   0.417  0.4856 -0.3550  0.2801
  359MOL0     C48383   8.133   5.435   1.088  0.0404  0.2060 -0.6757
  359MOL0     C48384   8.091   5.545   1.161 -0.1261  0.7463 -0.1468
  359MOL0     C48385   7.973   5.994   1.249  0.2827 -0.2559 -1.1457
  359MOL0     C48386   7.939   6.128   1.202 -0.6515  0.1165 -0.6421
  359MOL0     C48387   7.923   6.231   1.296  0.1708 -0.3804 -0.1026
  359MOL0     C48388   7.936   6.209   1.434 -0.5667  0.2069  0.7376
  359MOL0     O48389   7.905   6.299   1.522  0.1846 -0.1570  0.2616
  359MOL0     C48390   8.005   6.391   1.565 -0.7336  0.1365  0.2328
  359MOL0     C48391   7.973   6.422   1.709  0.8085  0.4119  0.4321
  359MOL0     C48392   7.827   6.467   1.715  0.2941  0.1071  0.2726
  359MOL0     C48393   7.799   6.541   1.833  0.2104  0.8863 -1.4478
  359MOL0     C48394   7.804   6.459   1.953  0.1530 -0.4226  0.0322
  359MOL0     C48395   7.797   6.398   2.054 -0.1474 -0.3899  0.1358
  359MOL0     C48396   7.969   6.080   1.474  0.2200  0.9079 -0.7200
  359MOL0     C48397   7.990   5.970   1.386  0.2443  0.1087  0.4163
  359MOL0     H48398   8.073   5.768   0.906 -4.7375  1.0021  2.7501
  359MOL0     H48399   8.155   5.592   0.787 -2.1860 -3.2380 -0.6617
  359MOL0     H48400   8.124   5.340   0.707 -1.1162 -2.2294  1.9906
  359MOL0     H48401   8.283   5.413   0.710  2.1299 -0.9170 -0.0228
  359MOL0     H48402   8.227   5.106   0.744  1.7622 -1.4885  0.1082
  359MOL0     H48403   8.274   5.178   0.598 -0.1758 -0.2052  0.0517
  359MOL0     H48404   8.482   5.282   0.729 -2.7890  1.9883  1.0350
  359MOL0     H48405   8.454   5.152   0.833 -1.3593 -0.2079  0.2158
  359MOL0     H48406   8.489   4.987   0.680  3.9734  0.0612  4.9537
  359MOL0     H48407   8.499   5.104   0.542 -1.4528  1.3279 -0.6135
  359MOL0     H48408   8.692   5.121   0.769  0.3551 -1.1092  0.2955
  359MOL0     H48409   8.711   5.015   0.630  1.7208  1.3054 -1.9049
  359MOL0     H48410   8.746   5.206   0.481 -2.2380  0.4236 -0.1959
  359MOL0     H48411   8.664   5.309   0.601  0.9114  0.6963 -1.0914
  359MOL0     H48412   8.891   5.365   0.641 -0.9428  0.6707  1.0178
  359MOL0     H48413   8.868   5.236   0.765  0.5192 -1.2790  0.0920
  359MOL0     H48414   8.967   5.074   0.621 -1.7542  0.1966 -1.8970
  359MOL0     H48415   9.075   5.216   0.651  0.4856 -1.7617  0.7023
  359MOL0     H48416   8.974   5.022   0.354  0.6184  0.4348 -2.9275
  359MOL0     H48417   9.013   5.068   0.097 -2.7817  0.3959  2.1392
  359MOL0     H48418   8.980   5.244   0.059  0.2854 -0.1961  1.2101
  359MOL0     H48419   9.230   5.296   0.068 -0.2163 -0.1394  2.7741
  359MOL0     H48420   9.172   5.217  -0.081  1.9279  2.0953 -1.0327
  359MOL0     H48421   9.366   5.115  -0.040 -0.9900 -0.4508 -1.0598
  359MOL0     H48422   9.230   5.005  -0.030 -2.3243  0.9719  0.4512
  359MOL0     H48423   9.258   4.993   0.222 -1.2628  0.1511 -0.5315
  359MOL0     H48424   9.345   5.153   0.224 -0.3031 -0.7703  1.2663
  359MOL0     H48425   9.597   4.788   0.170 -3.7174 -1.5591  2.8555
  359MOL0     H48426   9.784   4.669   0.230  0.2988 -2.1887  0.3875
  359MOL0     H48427   9.894   4.731   0.362 -0.5774 -0.5696  1.3445
  359MOL0     H48428   9.763   4.610   0.389  3.9791 -1.8424  0.0018
  359MOL0     H48429   9.889   4.547   0.779  0.6222 -0.6061  0.3457
  359MOL0     H48430  10.066   4.524   0.927 -0.8033  1.8164  0.3077
  359MOL0     H48431  10.239   4.466   0.989 -0.7741 -0.7017 -0.6762
  359MOL0     H48432  10.396   4.484   0.920 -0.9050  1.2161 -0.8122
  359MOL0     H48433  10.436   4.469   1.167  1.6826  0.2875  0.4485
  359MOL0     H48434  10.451   4.642   1.150  1.1479 -1.4489  3.2627
  359MOL0     H48435  10.176   4.648   1.193 -0.1882 -2.0667 -1.6904
  359MOL0     H48436  10.305   4.623   1.324  3.0589 -2.6119 -0.1040
  359MOL0     H48437  10.154   4.403   1.174 -2.3694  1.5173  0.0648
  359MOL0     H48438  10.270   4.384   1.298 -1.4991 -1.5997 -2.0502
  359MOL0     H48439  10.114   4.512   1.464  0.9810 -1.7080  0.4201
  359MOL0     H48440  10.045   4.362   1.397 -0.8783 -0.7908 -2.9954
  359MOL0     H48441   9.989   4.652   1.297  1.9284 -0.9163 -2.8970
  359MOL0     H48442   9.941   4.509   1.215 -2.0287 -0.1706  1.7930
  359MOL0     H48443   9.864   4.582   1.500 -1.1837 -0.0949 -0.2315
  359MOL0     H48444   9.802   4.430   1.429 -3.4387  1.3754 -0.0831
  359MOL0     H48445   9.737   4.703   1.325 -1.0772 -1.0363 -1.9608
  359MOL0     H48446   9.639   4.589   1.423  0.4559 -0.8911  1.1892
  359MOL0     H48447  10.286   4.824   0.732 -1.0445  1.3615  0.1454
  359MOL0     H48448  10.082   4.902   0.609 -0.6964 -0.5104 -4.1092
  359MOL0     H48449   9.600   5.044   0.587  1.3583  2.2149 -0.5840
  359MOL0     H48450   9.481   5.122   0.388 -0.0041 -1.0069 -4.6442
  359MOL0     H48451   8.158   5.342   1.137  2.8999  1.8960  1.4545
  359MOL0     H48452   8.074   5.540   1.268 -0.5550  1.9419 -0.1505
  359MOL0     H48453   7.920   6.160   1.100 -2.6152  0.4070 -0.2277
  359MOL0     H48454   7.888   6.329   1.265  1.7486  1.1274  2.5254
  359MOL0     H48455   8.108   6.353   1.564 -0.6115  0.2030  2.9673
  359MOL0     H48456   8.010   6.476   1.496  2.6817 -0.4239 -0.4320
  359MOL0     H48457   8.035   6.501   1.752  1.1148  1.4754 -1.8266
  359MOL0     H48458   7.987   6.335   1.774  2.5910 -0.2558 -0.7917
  359MOL0     H48459   7.757   6.383   1.710  2.3485 -1.9242  2.7930
  359MOL0     H48460   7.809   6.533   1.630  3.2064 -0.1807 -0.6749
  359MOL0     H48461   7.700   6.587   1.817  0.5733  2.0060 -0.6456
  359MOL0     H48462   7.873   6.622   1.835  0.0680  1.0142 -0.4838
  359MOL0     H48463   7.782   6.344   2.145  2.9939 -0.1987  0.9088
  359MOL0     H48464   7.974   6.069   1.582  2.2801  0.1977 -0.8354
  359MOL0     H48465   8.013   5.869   1.420  0.9925  0.5188  1.1732
  360MOL0     O48466   2.731   8.464  10.765  0.0368 -0.3599 -0.6232
  360MOL0     C48467   2.817   8.379  10.792  0.3366  0.9162  0.1373
  360MOL0     O48468   2.794   8.240  10.796 -0.5076  0.5009  0.5318
  360MOL0     C48469   2.662   8.206  10.758  0.2190 -0.0201  0.0610
  360MOL0     C48470   2.599   8.123  10.858 -0.4128 -0.0653 -0.3260
  360MOL0     C48471   2.470   8.065  10.840  0.1304 -0.0053  0.1828
  360MOL0     C48472   2.406   8.084  10.716 -0.4303  0.2593 -0.1953
  360MOL0     O48473   2.281   8.033  10.702  0.8831 -0.4401  0.2063
  360MOL0     C48474   2.217   8.053  10.574 -0.2760  0.1214  0.4750
  360MOL0     C48475   2.093   7.970  10.570 -0.1890 -0.2992 -0.5218
  360MOL0     C48476   2.008   7.992  10.446  0.4536 -0.6376 -0.1456
  360MOL0     C48477   1.908   8.101  10.464 -0.2219  0.1661  0.0265
  360MOL0     C48478   1.850   8.132  10.323  0.0959 -0.6773 -0.4876
  360MOL0     C48479   1.707   8.209  10.343 -0.4092  0.0565  0.5260
  360MOL0     C48480   1.584   8.123  10.370  0.4599  0.7937  0.2813
  360MOL0     C48481   1.450   8.185  10.349 -0.1408  0.1172 -0.8562
  360MOL0     N48482   1.432   8.307  10.438  0.8917  0.1976  0.1662
  360MOL0     C48483   1.448   8.315  10.571  0.1241 -0.3432  0.3401
  360MOL0     C48484   1.410   8.443  10.607  0.0621  0.4583  0.0153
  360MOL0     C48485   1.425   8.502  10.748 -0.8258 -0.2535 -0.5278
  360MOL0     C48486   1.567   8.551  10.772  0.1848  0.7060  0.4198
  360MOL0     C48487   1.585   8.675  10.864 -0.6493  0.6428 -0.0206
  360MOL0     C48488   1.721   8.694  10.925  0.1029 -0.2103  0.7934
  360MOL0     O48489   1.724   8.781  11.041  0.3085 -0.0628 -0.2338
  360MOL0     C48490   1.821   8.764  11.146  0.2405  0.1869 -0.4906
  360MOL0     C48491   1.934   8.676  11.136  0.0660 -0.3927  0.6704
  360MOL0     C48492   2.031   8.673  11.237  0.1419 -0.2474  1.2480
  360MOL0     C48493   2.157   8.597  11.206 -0.5365 -1.3791  0.1098
  360MOL0     C48494   2.021   8.758  11.346 -0.2090 -0.4695 -0.5468
  360MOL0     C48495   2.119   8.769  11.460  0.1593 -0.0128  0.3502
  360MOL0     O48496   2.109   8.874  11.549 -0.1949  0.5833  0.2399
  360MOL0     C48497   2.147   8.855  11.683 -0.9169  1.2194 -0.6020
  360MOL0     C48498   2.056   8.896  11.786  0.1975  0.8910 -0.4244
  360MOL0     C48499   2.085   8.876  11.923 -0.0763  0.3408  0.0160
  360MOL0     C48500   2.210   8.817  11.954 -1.0367  0.4471  0.1218
  360MOL0     O48501   2.244   8.810  12.086  0.8123  0.1429  0.3483
  360MOL0     C48502   2.316   8.695  12.132  0.3682  0.7403 -0.1507
  360MOL0     C48503   2.228   8.638  12.252  0.7099  0.7669  0.2104
  360MOL0     C48504   2.263   8.721  12.380 -0.2512 -0.1209  0.6690
  360MOL0     C48505   2.212   8.657  12.509 -0.2681 -0.8061 -0.0453
  360MOL0     C48506   2.277   8.724  12.627  0.6531  0.2765 -0.1975
  360MOL0     C48507   2.225   8.682  12.760 -0.8407  0.3120 -0.1800
  360MOL0     C48508   2.077   8.684  12.777  0.6268  0.0305 -0.4259
  360MOL0     C48509   2.024   8.829  12.786 -0.3399  1.1092  0.7934
  360MOL0    Cl48510   2.129   8.951  12.861 -0.4152  0.2605 -0.3172
  360MOL0     C48511   2.304   8.786  11.851 -0.2394  0.3562 -0.0722
  360MOL0     C48512   2.272   8.811  11.722  0.0590  1.2580  0.3642
  360MOL0     O48513   2.202   8.674  11.480 -0.7792  0.1502  0.2400
  360MOL0     C48514   1.916   8.849  11.354 -0.3808 -0.1774 -1.1245
  360MOL0     C48515   1.815   8.846  11.259  0.0552  0.2644  0.1544
  360MOL0     N48516   1.390   8.517  10.488  0.1080 -0.7112 -0.2729
  360MOL0     N48517   1.397   8.432  10.390  0.3881  0.1034 -0.3028
  360MOL0     C48518   2.471   8.169  10.626 -0.1119 -0.7591  0.1092
  360MOL0     C48519   2.597   8.233  10.639  0.7277 -0.2554  0.1292
  360MOL0     C48520   2.965   8.432  10.809 -0.7838  1.3223  0.3041
  360MOL0     C48521   3.070   8.353  10.773  0.0718 -0.8473  0.1959
  360MOL0     C48522   3.204   8.391  10.767  0.5272 -0.4153  0.1564
  360MOL0     C48523   3.225   8.526  10.800 -0.8796 -0.6717  0.4416
  360MOL0     O48524   3.361   8.560  10.801  0.9268 -0.4063 -0.0840
  360MOL0     C48525   3.396   8.674  10.875 -0.5028  0.7650 -1.2646
  360MOL0     C48526   3.542   8.701  10.866  0.0472  0.0938  0.6916
  360MOL0     C48527   3.637   8.582  10.901  0.1153 -0.2563  0.0119
  360MOL0     C48528   3.776   8.648  10.899 -0.4750 -0.8031  0.3035
  360MOL0     C48529   3.807   8.692  10.761  0.8868 -0.8699  0.2523
  360MOL0     C48530   3.826   8.738  10.648 -0.2916  0.1854  0.5284
  360MOL0     C48531   3.121   8.612  10.824  0.2135  0.2674 -0.3050
  360MOL0     C48532   2.989   8.567  10.829 -0.3649 -0.6465  0.6925
  360MOL0     H48533   2.641   8.116  10.957 -1.5595 -3.2729  0.0352
  360MOL0     H48534   2.422   8.005  10.917 -1.4782  0.4671 -0.4113
  360MOL0     H48535   2.199   8.159  10.553 -0.5581 -0.1289 -0.6520
  360MOL0     H48536   2.288   8.005  10.507 -0.3284 -2.1567  1.9511
  360MOL0     H48537   2.114   7.864  10.586  0.0546  0.2013  3.5295
  360MOL0     H48538   2.036   7.998  10.659  2.0008 -0.8714  1.1478
  360MOL0     H48539   2.074   8.009  10.360 -0.1468 -0.6461 -0.6138
  360MOL0     H48540   1.940   7.908  10.432 -1.3256  1.0523 -2.5819
  360MOL0     H48541   1.825   8.062  10.525 -0.2075  1.3831  0.8741
  360MOL0     H48542   1.939   8.193  10.514  0.5530 -1.3500  2.5747
  360MOL0     H48543   1.918   8.194  10.264  2.5832 -4.0259 -1.4486
  360MOL0     H48544   1.844   8.041  10.262  0.0539 -0.2466 -1.1399
  360MOL0     H48545   1.721   8.281  10.424  0.7999 -0.2716  0.6275
  360MOL0     H48546   1.685   8.275  10.259  2.8852  2.7478  1.5223
  360MOL0     H48547   1.590   8.035  10.305  1.6349  1.0090  0.0763
  360MOL0     H48548   1.594   8.086  10.472  1.6132  0.1544 -0.0428
  360MOL0     H48549   1.378   8.111  10.383  1.6641 -0.6030  1.6744
  360MOL0     H48550   1.431   8.209  10.244 -5.4568 -1.0770 -0.4241
  360MOL0     H48551   1.466   8.227  10.632 -2.4369 -2.0376 -1.1467
  360MOL0     H48552   1.368   8.596  10.753  0.7081  1.1737 -4.8253
  360MOL0     H48553   1.392   8.424  10.817  0.2338 -0.6895 -0.4934
  360MOL0     H48554   1.609   8.569  10.672  1.0825 -1.3730  0.3867
  360MOL0     H48555   1.612   8.470  10.830 -1.5428  0.1370  1.0211
  360MOL0     H48556   1.518   8.659  10.948  2.2050 -0.1014  2.2907
  360MOL0     H48557   1.546   8.767  10.821 -0.6370  0.8682  0.4489
  360MOL0     H48558   1.788   8.739  10.851  0.4601 -0.4470  0.9708
  360MOL0     H48559   1.761   8.601  10.966  1.0092  0.5003  1.5638
  360MOL0     H48560   1.959   8.613  11.051  2.0392  2.1076 -0.7265
  360MOL0     H48561   2.141   8.496  11.245  0.3853 -1.0173  1.4714
  360MOL0     H48562   2.177   8.608  11.099 -2.6758  1.2550 -0.1298
  360MOL0     H48563   2.244   8.641  11.255 -1.0976 -3.1652  2.9029
  360MOL0     H48564   1.953   8.931  11.777  0.0169  1.2564  2.2846
  360MOL0     H48565   2.015   8.898  12.003  2.2171  1.3855  1.8539
  360MOL0     H48566   2.315   8.621  12.051 -0.0812  1.9103 -1.2453
  360MOL0     H48567   2.419   8.717  12.160  2.0886 -2.9947 -2.7580
  360MOL0     H48568   2.126   8.644  12.214  0.5662  0.1333  0.4865
  360MOL0     H48569   2.253   8.534  12.276  1.2551  1.0826  1.0693
  360MOL0     H48570   2.230   8.825  12.368  0.0579  0.0006  0.8460
  360MOL0     H48571   2.372   8.731  12.387 -0.4428  1.8098  1.7166
  360MOL0     H48572   2.103   8.662  12.502 -0.1526  4.1777 -2.8998
  360MOL0     H48573   2.237   8.550  12.512 -1.0040 -0.9702  1.7204
  360MOL0     H48574   2.251   8.831  12.622 -1.0053 -0.0933  0.0184
  360MOL0     H48575   2.386   8.717  12.619  0.7824 -0.2342  1.5918
  360MOL0     H48576   2.269   8.582  12.767  1.0874  1.1627  0.4199
  360MOL0     H48577   2.287   8.731  12.835 -0.5499  1.7894 -1.3405
  360MOL0     H48578   2.060   8.630  12.871  2.3799  1.7927  0.9937
  360MOL0     H48579   2.032   8.629  12.695 -1.9057  0.6528  0.4569
  360MOL0     H48580   1.927   8.823  12.836 -0.6362 -0.2343  0.0827
  360MOL0     H48581   2.011   8.873  12.687  2.3950  1.1478  0.3594
  360MOL0     H48582   2.401   8.753  11.887 -1.5112 -3.3210  0.3992
  360MOL0     H48583   2.347   8.801  11.644 -1.9013 -0.3803 -1.4125
  360MOL0     H48584   1.907   8.911  11.442  0.2889 -2.4352  0.6155
  360MOL0     H48585   1.735   8.918  11.243 -1.9657 -2.1914 -1.6269
  360MOL0     H48586   2.428   8.192  10.528  3.9299  2.8107 -1.1465
  360MOL0     H48587   2.647   8.291  10.562  0.9386  0.3809  0.7291
  360MOL0     H48588   3.054   8.247  10.757 -0.8789 -0.7800  0.6078
  360MOL0     H48589   3.279   8.313  10.756  1.3027  0.1413  1.2939
  360MOL0     H48590   3.341   8.762  10.841  0.8454  1.1274 -2.6167
  360MOL0     H48591   3.375   8.666  10.982  2.0806 -1.1128 -0.8034
  360MOL0     H48592   3.562   8.790  10.927 -2.9484  0.4640  1.2793
  360MOL0     H48593   3.558   8.723  10.760 -0.7931 -2.4451 -0.0174
  360MOL0     H48594   3.635   8.511  10.818 -1.9670 -0.6568  0.3439
  360MOL0     H48595   3.611   8.535  10.996  2.1269  0.7124  1.0880
  360MOL0     H48596   3.850   8.575  10.933 -0.6301 -0.2655  1.8716
  360MOL0     H48597   3.787   8.730  10.971  1.5582 -0.5835 -0.2151
  360MOL0     H48598   3.845   8.775  10.549  2.0674 -0.6683  0.5994
  360MOL0     H48599   3.153   8.714  10.839  0.0038  0.1473  1.1334
  360MOL0     H48600   2.906   8.633  10.850  0.3583  0.5143  0.0664
  361MOL0     O48601  10.841   4.659   2.783  0.9365 -0.9644  0.6277
  361MOL0     C48602  10.947   4.612   2.746  0.0520 -0.4609  0.1842
  361MOL0     O48603  10.969   4.510   2.643  0.2451 -0.1371 -0.0044
  361MOL0     C48604  10.863   4.486   2.559  0.9724  0.1213 -0.2976
  361MOL0     C48605  10.852   4.563   2.450  0.7650 -0.0182  1.2455
  361MOL0     C48606  10.752   4.540   2.358  0.5008 -0.4684  0.3615
  361MOL0     C48607  10.657   4.433   2.386  0.2987 -0.7634 -0.0080
  361MOL0     O48608  10.542   4.406   2.307 -0.2904 -0.6931 -0.5716
  361MOL0     C48609  10.490   4.498   2.219  0.2023 -0.1448  0.1162
  361MOL0     C48610  10.342   4.494   2.215  0.3164 -0.3314 -0.2421
  361MOL0     C48611  10.283   4.525   2.353  0.0140  0.1179  0.9343
  361MOL0     C48612  10.125   4.511   2.344  0.7826  0.6844 -0.3984
  361MOL0     C48613  10.032   4.558   2.459  0.9477  0.2456 -0.7871
  361MOL0     C48614  10.032   4.463   2.581  0.2983  0.4870  0.2414
  361MOL0     C48615   9.889   4.415   2.609  0.1562  0.1441 -0.7815
  361MOL0     C48616   9.856   4.353   2.741 -0.6280  0.0144  0.5056
  361MOL0     N48617   9.881   4.448   2.851 -0.8654 -0.3243 -0.0433
  361MOL0     C48618   9.999   4.463   2.931  0.1749 -0.3685  0.7244
  361MOL0     C48619   9.973   4.556   3.030 -0.2360  0.2245 -0.3337
  361MOL0     C48620  10.063   4.595   3.145  0.2892 -0.2589 -0.2196
  361MOL0     C48621  10.017   4.525   3.274 -0.8826  0.2307  0.5929
  361MOL0     C48622  10.088   4.393   3.302  0.0881 -0.5871  0.5207
  361MOL0     C48623  10.243   4.420   3.327 -0.1031 -0.0966 -0.0166
  361MOL0     O48624  10.301   4.314   3.407  0.1500  0.5249 -0.0396
  361MOL0     C48625  10.387   4.229   3.345  0.8834  0.4031 -1.0223
  361MOL0     C48626  10.377   4.194   3.211  0.0801 -0.0908 -0.1345
  361MOL0     C48627  10.456   4.096   3.150 -0.6049  0.0585  0.5125
  361MOL0     C48628  10.409   4.050   3.021  0.5083  0.0283  0.0246
  361MOL0     C48629  10.556   4.028   3.223  0.0847  0.2477 -0.0897
  361MOL0     C48630  10.643   3.921   3.166 -0.5585  0.2765 -0.0311
  361MOL0     O48631  10.753   3.890   3.241  0.0621  0.1156 -0.5634
  361MOL0     C48632  10.842   3.798   3.194  0.7268 -0.1274  0.2157
  361MOL0     C48633  10.821   3.656   3.197 -0.1828 -0.6512 -0.7599
  361MOL0     C48634  10.925   3.575   3.148  0.7703  0.5701  0.3432
  361MOL0     C48635  11.045   3.624   3.103 -0.7591 -0.0476  0.2264
  361MOL0     O48636  11.150   3.540   3.072 -1.0519 -0.0374  0.4326
  361MOL0     C48637  11.099   3.429   2.996 -0.0953 -0.4347 -0.5695
  361MOL0     C48638  11.218   3.375   2.916  0.4141 -0.1474  0.6330
  361MOL0     C48639  11.193   3.244   2.830 -0.2749 -0.1381  0.4390
  361MOL0     C48640  11.066   3.260   2.742 -0.1212  0.3563  0.5048
  361MOL0     C48641  11.062   3.161   2.631 -0.5966  0.9909  1.0255
  361MOL0     C48642  11.161   3.201   2.518  0.0734  0.5325  0.8841
  361MOL0     C48643  11.149   3.080   2.428  0.0747  0.4118  0.2481
  361MOL0     C48644  11.251   3.087   2.309  0.1942  0.8445  0.1464
  361MOL0    Cl48645  11.317   2.914   2.288 -0.7385 -0.3228  0.3566
  361MOL0     C48646  11.050   3.767   3.096  0.1972 -0.4376  0.8124
  361MOL0     C48647  10.955   3.855   3.140 -0.2894  0.4716 -0.6971
  361MOL0     O48648  10.630   3.883   3.051  0.1894 -1.1077  0.4747
  361MOL0     C48649  10.570   4.065   3.361  0.7396 -0.1073  0.1635
  361MOL0     C48650  10.488   4.160   3.422  0.5782 -0.1252  0.2082
  361MOL0     N48651   9.845   4.603   3.004  1.0529  0.1158 -0.0467
  361MOL0     N48652   9.798   4.548   2.891 -0.8581 -0.3342  0.4556
  361MOL0     C48653  10.671   4.362   2.504  0.5032 -0.8916 -0.0809
  361MOL0     C48654  10.776   4.383   2.591  0.6010  0.1824 -0.5132
  361MOL0     C48655  11.069   4.654   2.823 -0.0245 -0.5786  0.4093
  361MOL0     C48656  11.194   4.649   2.751  0.0079  0.1742  0.5619
  361MOL0     C48657  11.311   4.697   2.811  0.3169  0.1153 -0.2870
  361MOL0     C48658  11.304   4.755   2.942  0.2892  0.1309 -0.1944
  361MOL0     O48659  11.428   4.790   2.991  0.3996  0.6751 -0.3994
  361MOL0     C48660  11.438   4.845   3.131  0.2036  0.6146  0.8285
  361MOL0     C48661  11.411   5.000   3.134  0.2496  0.2890  0.8904
  361MOL0     C48662  11.511   5.075   3.221 -0.1158  0.3566  0.4653
  361MOL0     C48663  11.483   5.037   3.373  0.0519 -0.1146  0.5893
  361MOL0     C48664  11.347   5.065   3.407 -0.4979  0.0039  1.2596
  361MOL0     C48665  11.227   5.080   3.432  0.1253  0.1684  0.7814
  361MOL0     C48666  11.183   4.751   3.007  0.4083  0.7473 -0.3594
  361MOL0     C48667  11.064   4.708   2.949 -0.6227 -0.0470  0.4554
  361MOL0     H48668  10.918   4.645   2.422  1.4113 -1.0182 -0.3042
  361MOL0     H48669  10.756   4.593   2.263  1.0846 -0.1954  0.5302
  361MOL0     H48670  10.512   4.601   2.248 -1.9104  0.3638  0.0712
  361MOL0     H48671  10.524   4.481   2.116 -3.5735 -3.6472 -0.8369
  361MOL0     H48672  10.307   4.575   2.150  0.3123  0.3755  0.6299
  361MOL0     H48673  10.290   4.401   2.188 -1.3270  0.2300  0.8079
  361MOL0     H48674  10.326   4.459   2.429  2.5920  1.6251  0.8840
  361MOL0     H48675  10.316   4.628   2.370  0.7366  0.3471 -1.4647
  361MOL0     H48676  10.096   4.569   2.256 -2.8931  0.0990  0.2716
  361MOL0     H48677  10.098   4.406   2.326 -0.3886  0.8123  0.5063
  361MOL0     H48678  10.039   4.665   2.481 -2.8013  0.1936  1.4563
  361MOL0     H48679   9.932   4.554   2.413  0.0837 -1.5068  1.0784
  361MOL0     H48680  10.095   4.374   2.573  0.7938  0.8325  0.2758
  361MOL0     H48681  10.090   4.509   2.661  0.3925  2.2905 -0.7970
  361MOL0     H48682   9.818   4.498   2.608 -0.9787 -0.7278  1.4414
  361MOL0     H48683   9.862   4.347   2.528 -0.2536 -1.4739  0.6680
  361MOL0     H48684   9.915   4.263   2.757  0.1738 -0.0151 -2.1126
  361MOL0     H48685   9.750   4.325   2.733 -0.0837 -2.3786  0.9028
  361MOL0     H48686  10.088   4.401   2.928  1.3949  1.2588  1.5334
  361MOL0     H48687  10.170   4.586   3.125  0.7675  0.4365  1.7163
  361MOL0     H48688  10.045   4.702   3.158 -3.6807 -0.6672 -1.1207
  361MOL0     H48689   9.910   4.507   3.268 -0.9287  0.7798 -0.5810
  361MOL0     H48690  10.037   4.601   3.350 -1.2114  0.8716  0.0485
  361MOL0     H48691  10.082   4.336   3.209  1.2324  2.7296 -1.7819
  361MOL0     H48692  10.034   4.341   3.381 -0.4652  1.5430  1.6294
  361MOL0     H48693  10.254   4.516   3.378  2.6744  1.2965 -2.9017
  361MOL0     H48694  10.297   4.438   3.233 -1.1180  2.3369 -0.2256
  361MOL0     H48695  10.292   4.230   3.155  1.6732  0.6891 -2.1818
  361MOL0     H48696  10.476   4.066   2.937 -3.4591 -0.2463 -3.5635
  361MOL0     H48697  10.390   3.942   3.025 -0.4338  0.2242  2.2147
  361MOL0     H48698  10.313   4.102   3.008 -0.3236 -0.8130  2.2629
  361MOL0     H48699  10.735   3.614   3.249 -1.8348  0.7513 -2.2132
  361MOL0     H48700  10.909   3.468   3.156  2.6372  0.2976  1.1595
  361MOL0     H48701  11.066   3.357   3.071  1.1415 -1.7441 -1.2145
  361MOL0     H48702  11.024   3.462   2.924  0.1669 -0.4951 -0.8769
  361MOL0     H48703  11.250   3.457   2.852  2.6062 -0.3737  1.3676
  361MOL0     H48704  11.300   3.358   2.987  0.1030 -1.3288  0.7378
  361MOL0     H48705  11.182   3.160   2.899  1.5867  0.0171  0.9745
  361MOL0     H48706  11.285   3.223   2.774 -1.2792  0.6248 -1.6096
  361MOL0     H48707  10.981   3.258   2.811  0.9387  0.3128  1.8450
  361MOL0     H48708  11.073   3.357   2.692  3.9071  0.1272  0.2661
  361MOL0     H48709  10.963   3.160   2.585  1.1319 -0.8482 -3.1584
  361MOL0     H48710  11.071   3.062   2.677 -1.0434  0.7758  0.6577
  361MOL0     H48711  11.133   3.299   2.479  2.1380  2.0311  2.9300
  361MOL0     H48712  11.264   3.213   2.552  0.7414 -0.5445 -0.6323
  361MOL0     H48713  11.048   3.078   2.386  0.7889 -0.5829 -1.5885
  361MOL0     H48714  11.158   2.987   2.484 -0.3086  0.2597  0.0547
  361MOL0     H48715  11.327   3.162   2.334 -0.0690  2.6501 -3.6842
  361MOL0     H48716  11.205   3.131   2.220  3.8087  2.5657 -1.0541
  361MOL0     H48717  11.145   3.817   3.076  0.9787 -1.1015  2.6585
  361MOL0     H48718  10.975   3.962   3.138 -1.4276  0.8216  2.0317
  361MOL0     H48719  10.632   4.000   3.422  1.3611 -2.7959 -3.0400
  361MOL0     H48720  10.502   4.186   3.526 -0.2770  0.4357  0.2040
  361MOL0     H48721  10.601   4.285   2.533  3.0054 -2.8834  1.0638
  361MOL0     H48722  10.788   4.328   2.683 -0.4758 -0.1919 -0.5821
  361MOL0     H48723  11.194   4.619   2.647  0.3051 -1.1089  0.9170
  361MOL0     H48724  11.408   4.697   2.762  0.2769  0.6587 -0.3685
  361MOL0     H48725  11.375   4.791   3.202  0.6961 -2.2576 -0.7663
  361MOL0     H48726  11.543   4.826   3.153  0.7074  4.2890  2.2648
  361MOL0     H48727  11.306   5.025   3.153  0.1411  0.2382  0.3628
  361MOL0     H48728  11.433   5.042   3.036  1.8780  0.6554  1.3745
  361MOL0     H48729  11.503   5.183   3.207 -0.1247  0.3620  0.5149
  361MOL0     H48730  11.609   5.035   3.196 -1.6283 -2.8423 -0.8731
  361MOL0     H48731  11.553   5.073   3.449  1.4472 -2.4078  0.5145
  361MOL0     H48732  11.500   4.929   3.366  2.6552  0.2951 -1.1009
  361MOL0     H48733  11.121   5.083   3.450 -0.3247 -1.0933 -1.3065
  361MOL0     H48734  11.174   4.789   3.108  1.4197  1.2108 -0.4310
  361MOL0     H48735  10.966   4.719   2.995 -0.8979  1.8641 -0.4952
  362MOL0     O48736   4.445   0.686   7.041  0.4983  0.6773  0.0926
  362MOL0     C48737   4.422   0.715   6.922 -0.2771  0.1685 -0.1437
  362MOL0     O48738   4.508   0.713   6.833 -0.6295  0.3786  0.1135
  362MOL0     C48739   4.635   0.644   6.850 -0.5824  0.4563  0.0102
  362MOL0     C48740   4.726   0.654   6.957  0.1639  0.0729  0.2559
  362MOL0     C48741   4.849   0.580   6.966  0.2256 -0.3259 -0.0873
  362MOL0     C48742   4.884   0.502   6.853 -0.4083  0.5707  0.9753
  362MOL0     O48743   4.993   0.428   6.841 -0.0257 -0.2948 -0.0295
  362MOL0     C48744   5.067   0.404   6.960 -0.3834  0.0618 -1.2690
  362MOL0     C48745   5.153   0.270   6.947  0.1682  0.6827  0.6545
  362MOL0     C48746   5.249   0.272   7.061 -0.9079  0.1228  0.0340
  362MOL0     C48747   5.328   0.140   7.062 -0.5804 -1.0796 -0.4306
  362MOL0     C48748   5.447   0.146   6.971 -0.4041  0.2099  1.0251
  362MOL0     C48749   5.528   0.014   6.972  0.3807 -0.5016 -0.3762
  362MOL0     C48750   5.588  -0.046   7.106  0.6815 -0.7553 -0.6253
  362MOL0     C48751   5.717   0.021   7.163 -0.2991 -0.8274 -0.0359
  362MOL0     N48752   5.706   0.159   7.202  0.0462 -0.4350 -0.8329
  362MOL0     C48753   5.815   0.248   7.198 -0.4159  0.2079  0.1997
  362MOL0     C48754   5.777   0.347   7.283 -0.2262 -0.8244  0.4929
  362MOL0     C48755   5.856   0.466   7.320 -0.1407 -0.5709  0.2190
  362MOL0     C48756   5.857   0.576   7.208  0.6504  0.5696  0.0449
  362MOL0     C48757   5.909   0.532   7.074 -0.2657 -0.4335 -0.3637
  362MOL0     C48758   5.989   0.647   7.004 -0.9849  1.2920  0.3991
  362MOL0     O48759   5.913   0.768   7.012  0.3215  0.7460 -0.4643
  362MOL0     C48760   5.965   0.901   7.026  0.4424  0.1526 -0.1324
  362MOL0     C48761   6.100   0.935   7.006 -0.0685 -0.0011  0.7145
  362MOL0     C48762   6.139   1.066   7.016 -0.3883 -0.4124 -1.0785
  362MOL0     C48763   6.291   1.101   7.026 -0.5895 -0.9075 -0.7250
  362MOL0     C48764   6.039   1.160   7.062  0.0439  0.1675 -0.5932
  362MOL0     C48765   6.078   1.297   7.109  0.2359  0.2793 -0.7262
  362MOL0     O48766   6.031   1.334   7.237 -0.3603 -0.2607 -0.5063
  362MOL0     C48767   6.037   1.463   7.277 -0.2737 -0.4692  0.0968
  362MOL0     C48768   6.157   1.509   7.339 -0.1158  0.0618  0.3477
  362MOL0     C48769   6.155   1.637   7.388  0.5077 -1.3949  0.3889
  362MOL0     C48770   6.042   1.714   7.380  0.1496 -0.0748 -0.2259
  362MOL0     O48771   6.052   1.837   7.427  0.2601  0.9638 -1.1642
  362MOL0     C48772   5.939   1.928   7.433  1.2805  0.6028  0.2385
  362MOL0     C48773   5.837   1.898   7.543 -0.1646  0.1666  0.4049
  362MOL0     C48774   5.854   1.971   7.677 -0.3812  1.3027 -0.6696
  362MOL0     C48775   5.768   2.099   7.674 -0.1663 -0.3464 -0.9417
  362MOL0     C48776   5.814   2.188   7.788 -0.3833 -0.3462  0.5676
  362MOL0     C48777   5.706   2.298   7.805  0.4572  0.2474 -0.3047
  362MOL0     C48778   5.752   2.386   7.920 -0.3659 -0.1882  0.4025
  362MOL0     C48779   5.641   2.462   7.981  0.0195 -0.8483 -0.5645
  362MOL0    Cl48780   5.523   2.354   8.060 -0.0442 -0.0684  0.5873
  362MOL0     C48781   5.919   1.661   7.333 -0.2155 -1.4219  0.7799
  362MOL0     C48782   5.918   1.535   7.278  0.4990  0.0830  0.5141
  362MOL0     O48783   6.140   1.369   7.036 -0.1656 -0.9077  0.2953
  362MOL0     C48784   5.910   1.126   7.076  0.3383 -0.2371 -0.0370
  362MOL0     C48785   5.880   0.995   7.053  1.5326  0.1378 -0.9311
  362MOL0     N48786   5.662   0.308   7.346  0.3925  0.5213  0.1513
  362MOL0     N48787   5.620   0.199   7.301  0.0494  0.4768  0.7136
  362MOL0     C48788   4.794   0.499   6.747 -0.6405  0.0719 -1.0650
  362MOL0     C48789   4.680   0.575   6.740  1.3226  0.0460 -0.8698
  362MOL0     C48790   4.287   0.773   6.883 -0.3397  0.9339 -0.2621
  362MOL0     C48791   4.180   0.773   6.961  0.6013 -0.0323 -0.2646
  362MOL0     C48792   4.059   0.827   6.926 -0.5805  0.7394  0.5430
  362MOL0     C48793   4.057   0.886   6.801 -0.0086 -0.0516 -0.4668
  362MOL0     O48794   3.931   0.929   6.773  1.0872 -0.3781 -0.4919
  362MOL0     C48795   3.908   1.002   6.652 -1.5617  0.3312  0.4450
  362MOL0     C48796   3.788   1.091   6.642  0.4189  0.2755 -0.4783
  362MOL0     C48797   3.757   1.120   6.495  0.1111 -0.0722 -0.0526
  362MOL0     C48798   3.852   1.223   6.436 -0.2209 -0.6695 -0.4793
  362MOL0     C48799   3.985   1.172   6.405  0.1477  0.1221 -0.3356
  362MOL0     C48800   4.094   1.120   6.392  0.4398 -0.8761 -0.2264
  362MOL0     C48801   4.162   0.888   6.708  0.7249 -1.3808 -0.1274
  362MOL0     C48802   4.275   0.826   6.749  0.0721  0.0168  0.2130
  362MOL0     H48803   4.701   0.725   7.036 -1.1901 -0.4769  0.3444
  362MOL0     H48804   4.921   0.593   7.047 -0.3024  1.3615  0.1513
  362MOL0     H48805   5.136   0.488   6.965 -0.9511  0.5733 -1.7813
  362MOL0     H48806   5.007   0.401   7.051 -0.3892  0.3377 -1.2632
  362MOL0     H48807   5.086   0.186   6.970  2.1023 -1.0312  0.3099
  362MOL0     H48808   5.198   0.268   6.847 -0.0521  2.8081  0.4610
  362MOL0     H48809   5.316   0.352   7.029  1.3338 -2.0405 -1.0135
  362MOL0     H48810   5.191   0.286   7.152 -2.1052  0.5322 -0.7681
  362MOL0     H48811   5.352   0.141   7.168 -0.4329  1.9177 -0.4254
  362MOL0     H48812   5.265   0.056   7.027 -2.0281  0.1330 -0.8497
  362MOL0     H48813   5.409   0.159   6.869  0.5057 -1.4478  0.4365
  362MOL0     H48814   5.507   0.229   7.010  0.1400  1.1299 -1.6228
  362MOL0     H48815   5.467  -0.063   6.923 -1.1326  0.9072 -0.7807
  362MOL0     H48816   5.611   0.030   6.902  0.9288 -1.1817  0.0914
  362MOL0     H48817   5.506  -0.039   7.177  0.3020 -0.2403 -1.1064
  362MOL0     H48818   5.620  -0.150   7.089  1.8705 -0.1678 -2.2368
  362MOL0     H48819   5.789   0.021   7.081  0.1044  0.4223  0.2931
  362MOL0     H48820   5.761  -0.037   7.245 -0.5746 -0.0098  0.6994
  362MOL0     H48821   5.911   0.243   7.149 -0.9677 -0.7317 -0.8251
  362MOL0     H48822   5.822   0.522   7.408  0.3394  1.0947 -0.6058
  362MOL0     H48823   5.960   0.436   7.339  0.7150  0.5525 -2.2550
  362MOL0     H48824   5.910   0.663   7.247 -0.1927  1.7478 -1.3620
  362MOL0     H48825   5.755   0.616   7.203  0.4017 -0.1337 -0.8833
  362MOL0     H48826   5.816   0.504   7.023 -0.9143  3.0104 -1.3317
  362MOL0     H48827   5.976   0.446   7.084  2.9473  1.5705 -2.8401
  362MOL0     H48828   6.009   0.619   6.901  4.4828  0.2645  1.4645
  362MOL0     H48829   6.085   0.664   7.052 -0.4429  0.6235 -0.4320
  362MOL0     H48830   6.166   0.850   6.993  0.5170  0.2277  2.0183
  362MOL0     H48831   6.320   1.067   7.126  2.0482 -1.0186 -1.4495
  362MOL0     H48832   6.353   1.045   6.956  1.0073  1.3318 -1.2270
  362MOL0     H48833   6.314   1.208   7.021  2.3406 -1.2504  2.1222
  362MOL0     H48834   6.249   1.455   7.362 -1.2535 -1.5621  1.2791
  362MOL0     H48835   6.240   1.678   7.443 -1.3684  2.3319  0.8188
  362MOL0     H48836   5.985   2.027   7.442  1.8787  0.3556 -0.0659
  362MOL0     H48837   5.885   1.929   7.339 -1.2082  1.5690  1.5834
  362MOL0     H48838   5.732   1.915   7.515  0.1153  2.6118  0.5549
  362MOL0     H48839   5.848   1.791   7.558 -0.9945  0.0003 -0.1080
  362MOL0     H48840   5.958   1.988   7.706 -0.4127 -0.3670  0.5762
  362MOL0     H48841   5.812   1.906   7.754 -1.7829  1.2648 -1.4375
  362MOL0     H48842   5.780   2.142   7.574 -1.2863 -0.2135 -1.0284
  362MOL0     H48843   5.663   2.071   7.687  0.1383 -2.5838 -2.6259
  362MOL0     H48844   5.906   2.239   7.757  0.0668 -1.0927  0.6551
  362MOL0     H48845   5.842   2.135   7.879 -1.8094 -2.7952 -0.3295
  362MOL0     H48846   5.705   2.355   7.712  0.7982  0.3463 -0.2500
  362MOL0     H48847   5.612   2.251   7.834  1.9569 -2.5415  0.3814
  362MOL0     H48848   5.837   2.451   7.895 -1.5730  1.4765  0.4663
  362MOL0     H48849   5.785   2.321   8.001 -0.6850  0.6006  1.1844
  362MOL0     H48850   5.598   2.519   7.898 -2.1433 -1.8679 -0.2362
  362MOL0     H48851   5.673   2.543   8.047 -3.5710  2.7555 -2.8085
  362MOL0     H48852   5.828   1.721   7.323 -0.2714 -1.5487  0.5189
  362MOL0     H48853   5.833   1.495   7.224 -2.1744  1.1290  3.6311
  362MOL0     H48854   5.830   1.195   7.102 -0.8793 -0.9727 -1.6395
  362MOL0     H48855   5.775   0.972   7.071  1.3084  2.2546  0.8659
  362MOL0     H48856   4.813   0.436   6.661 -1.0164 -1.2729 -0.1823
  362MOL0     H48857   4.627   0.545   6.650 -0.5982  0.1032  0.1884
  362MOL0     H48858   4.185   0.721   7.056  2.6345  2.3005  1.0275
  362MOL0     H48859   3.979   0.825   7.000 -0.0673 -1.3545  1.1009
  362MOL0     H48860   3.997   1.061   6.631  1.0485 -1.9939  3.8956
  362MOL0     H48861   3.908   0.939   6.562  0.9427  0.7914  0.0532
  362MOL0     H48862   3.802   1.185   6.696  3.6512 -0.1661 -0.3447
  362MOL0     H48863   3.698   1.042   6.680 -0.3557  1.3910 -0.8179
  362MOL0     H48864   3.651   1.147   6.484 -0.0847 -0.7907  0.0384
  362MOL0     H48865   3.755   1.029   6.434 -2.9505 -1.3799  1.7425
  362MOL0     H48866   3.847   1.305   6.508 -3.3374 -1.7086  0.6614
  362MOL0     H48867   3.810   1.257   6.340  2.6110 -1.0607 -1.9513
  362MOL0     H48868   4.190   1.073   6.387  2.8884  3.6675 -3.8526
  362MOL0     H48869   4.145   0.938   6.613 -1.0468  0.3113  1.0052
  362MOL0     H48870   4.357   0.825   6.677 -2.5764 -0.3147 -3.0245
  363MOL0     O48871   0.756   9.321   3.297 -0.3529  0.7261 -0.1896
  363MOL0     C48872   0.766   9.200   3.270 -0.5274 -0.1120 -0.5212
  363MOL0     O48873   0.761   9.103   3.372  0.3982  0.0516 -0.1762
  363MOL0     C48874   0.796   9.136   3.500 -0.0418 -1.1083 -0.7599
  363MOL0     C48875   0.864   9.036   3.571  0.3183  0.0461  0.0821
  363MOL0     C48876   0.878   9.047   3.713 -0.4834 -0.6598  0.3873
  363MOL0     C48877   0.837   9.160   3.779  0.1811  0.0088  1.0205
  363MOL0     O48878   0.849   9.176   3.910 -0.4784 -0.3988  0.2549
  363MOL0     C48879   0.928   9.089   3.981 -1.2812  0.4332 -0.1484
  363MOL0     C48880   0.943   9.161   4.118 -0.3440  0.3224 -0.1387
  363MOL0     C48881   1.026   9.083   4.214  0.5204  0.1850  0.0393
  363MOL0     C48882   1.045   9.153   4.348  0.1306  0.0246  0.2267
  363MOL0     C48883   1.112   9.062   4.458  0.0579 -0.7985  0.4859
  363MOL0     C48884   1.115   9.127   4.591 -0.4152 -1.0380  0.2461
  363MOL0     C48885   1.242   9.205   4.612 -0.5604  0.3379  0.1304
  363MOL0     C48886   1.244   9.250   4.754 -0.1696 -0.2226 -0.4945
  363MOL0     N48887   1.163   9.378   4.769 -0.3069 -0.1972 -0.4319
  363MOL0     C48888   1.032   9.388   4.811 -0.7718 -0.0161  0.7438
  363MOL0     C48889   1.006   9.520   4.783 -0.1543  0.0765  0.2096
  363MOL0     C48890   0.870   9.573   4.816 -0.1403 -0.4753 -0.4824
  363MOL0     C48891   0.799   9.620   4.693 -0.1629  0.4690  1.1354
  363MOL0     C48892   0.760   9.498   4.603 -0.2156 -0.0120  0.0359
  363MOL0     C48893   0.672   9.410   4.685  0.6249 -0.0043 -0.0184
  363MOL0     O48894   0.563   9.354   4.604  0.5030  0.1533  0.5029
  363MOL0     C48895   0.587   9.231   4.538 -1.5837  1.3675  0.1242
  363MOL0     C48896   0.486   9.171   4.464 -0.6847  0.0248 -0.4429
  363MOL0     C48897   0.508   9.053   4.392 -0.1364  0.1149  0.2022
  363MOL0     C48898   0.386   9.019   4.305  0.1825 -0.1729 -0.1176
  363MOL0     C48899   0.640   8.989   4.390  0.3607  0.0827  0.4920
  363MOL0     C48900   0.675   8.859   4.328 -0.4704  0.3371 -0.4086
  363MOL0     O48901   0.575   8.790   4.273  0.1669  0.3628  0.1489
  363MOL0     C48902   0.610   8.684   4.193 -1.0491 -1.1279 -0.2881
  363MOL0     C48903   0.638   8.558   4.232 -0.5634  0.7021  0.1425
  363MOL0     C48904   0.687   8.460   4.138  1.3767 -0.0250  0.1607
  363MOL0     C48905   0.688   8.487   4.004 -0.1407 -0.0040 -1.1205
  363MOL0     O48906   0.741   8.402   3.914  0.0919  0.1790  0.5345
  363MOL0     C48907   0.781   8.268   3.940 -0.6318  0.3508 -0.0144
  363MOL0     C48908   0.859   8.202   3.815  0.5363 -0.1665  0.1154
  363MOL0     C48909   0.762   8.188   3.705  0.5098  0.6953 -0.2102
  363MOL0     C48910   0.806   8.180   3.557 -1.1462  0.1906 -0.2169
  363MOL0     C48911   0.690   8.189   3.453 -0.4439  1.4163 -0.5365
  363MOL0     C48912   0.755   8.173   3.316  0.0036 -0.1607  0.2027
  363MOL0     C48913   0.661   8.188   3.196 -0.3704 -0.0518 -0.4006
  363MOL0     C48914   0.605   8.054   3.152 -0.3401 -0.0944 -0.3442
  363MOL0    Cl48915   0.751   7.946   3.097  0.2985 -0.1725 -0.1664
  363MOL0     C48916   0.645   8.610   3.961  0.1918  0.2283 -0.5116
  363MOL0     C48917   0.614   8.710   4.052 -0.2007 -0.4491 -0.3369
  363MOL0     O48918   0.794   8.824   4.333  0.9706 -0.0920  1.0332
  363MOL0     C48919   0.736   9.049   4.473  0.0995  0.2000 -0.1081
  363MOL0     C48920   0.707   9.162   4.542 -0.7900 -0.1610 -0.3174
  363MOL0     N48921   1.126   9.581   4.756 -0.2661 -0.9485  0.1058
  363MOL0     N48922   1.222   9.493   4.732  0.0189  0.7897 -0.2722
  363MOL0     C48923   0.770   9.258   3.711 -0.6341 -0.1239  0.2899
  363MOL0     C48924   0.760   9.256   3.572  0.3337  0.0957 -0.2542
  363MOL0     C48925   0.768   9.173   3.122 -0.1239  0.3571 -0.2691
  363MOL0     C48926   0.761   9.258   3.013  0.1055  0.3674  1.4835
  363MOL0     C48927   0.771   9.219   2.876 -0.1995  0.3532 -0.4238
  363MOL0     C48928   0.790   9.076   2.845 -0.7346  0.2048 -0.0232
  363MOL0     O48929   0.813   9.046   2.709  0.6725 -0.3114  0.1363
  363MOL0     C48930   0.747   8.925   2.659 -0.2941  0.3420 -0.5381
  363MOL0     C48931   0.601   8.938   2.678  0.4126 -0.3709  0.0982
  363MOL0     C48932   0.534   9.064   2.606 -0.3657  0.8529 -0.1915
  363MOL0     C48933   0.398   9.110   2.657  0.3121  0.4629  0.1061
  363MOL0     C48934   0.405   9.126   2.807 -0.5670 -0.4562  1.2559
  363MOL0     C48935   0.407   9.165   2.923  0.2289  0.2720  0.3272
  363MOL0     C48936   0.801   8.988   2.959 -1.0529 -0.6645  0.0413
  363MOL0     C48937   0.792   9.038   3.091 -0.2992  0.4861 -0.0476
  363MOL0     H48938   0.899   8.946   3.522 -2.7178 -2.0558  1.4356
  363MOL0     H48939   0.935   8.974   3.771  1.2242  1.9791  2.2919
  363MOL0     H48940   0.881   8.991   4.001  1.9469 -0.8029  2.3289
  363MOL0     H48941   1.027   9.072   3.939 -1.2284  0.8184 -0.1816
  363MOL0     H48942   0.999   9.249   4.087  1.8851 -1.4031 -1.3046
  363MOL0     H48943   0.847   9.195   4.159 -0.3651  0.3939 -0.2468
  363MOL0     H48944   0.976   8.986   4.223 -0.8103  0.7931 -0.4899
  363MOL0     H48945   1.121   9.057   4.167  0.2080 -1.5791  0.2964
  363MOL0     H48946   1.107   9.242   4.337  1.8687 -1.1992 -0.2796
  363MOL0     H48947   0.946   9.194   4.372  0.2069  0.1739  0.2855
  363MOL0     H48948   1.036   8.984   4.464  0.6666 -1.3344  1.3647
  363MOL0     H48949   1.199   9.007   4.423 -0.3793 -1.2509  0.0963
  363MOL0     H48950   1.024   9.187   4.602  0.8883  0.6336  3.8027
  363MOL0     H48951   1.102   9.043   4.660 -0.6018  2.2582  4.6616
  363MOL0     H48952   1.328   9.139   4.598 -0.0598  0.9584  0.2693
  363MOL0     H48953   1.252   9.289   4.543 -0.3051  1.4962  1.5415
  363MOL0     H48954   1.348   9.274   4.780 -0.0048  0.8171 -1.9492
  363MOL0     H48955   1.216   9.173   4.826  0.0726  0.0101 -0.1462
  363MOL0     H48956   0.965   9.314   4.856 -2.4667  1.1557  0.2365
  363MOL0     H48957   0.807   9.505   4.874 -0.7771 -1.1703 -1.9605
  363MOL0     H48958   0.877   9.659   4.883  2.1300 -1.8294  1.1844
  363MOL0     H48959   0.866   9.682   4.632  1.7318 -1.3954  1.2242
  363MOL0     H48960   0.721   9.692   4.721  1.0789  1.7474  1.4291
  363MOL0     H48961   0.854   9.450   4.572 -0.5247  0.6376 -2.0460
  363MOL0     H48962   0.702   9.525   4.515 -0.8310 -0.3760  0.3261
  363MOL0     H48963   0.613   9.473   4.752  2.0844  4.0264 -2.1464
  363MOL0     H48964   0.726   9.329   4.734 -0.8961 -1.1566 -0.1532
  363MOL0     H48965   0.392   9.226   4.468 -1.3079 -0.9734 -0.7687
  363MOL0     H48966   0.408   8.940   4.233  0.7285 -0.3265  0.2120
  363MOL0     H48967   0.326   8.945   4.359  1.9484 -3.1148 -1.9557
  363MOL0     H48968   0.332   9.101   4.257 -1.1423 -2.2060 -2.3359
  363MOL0     H48969   0.613   8.520   4.331  0.7026  0.1950  0.2900
  363MOL0     H48970   0.716   8.359   4.168 -0.2623  0.5148  4.1704
  363MOL0     H48971   0.846   8.276   4.028 -1.1318 -0.1869  0.4031
  363MOL0     H48972   0.708   8.196   3.979  1.7925 -0.7836  2.8663
  363MOL0     H48973   0.947   8.262   3.790 -0.5999  1.4782 -0.0735
  363MOL0     H48974   0.885   8.100   3.847 -0.5259 -0.5327 -0.1523
  363MOL0     H48975   0.691   8.271   3.700 -0.9374 -0.4341  0.7141
  363MOL0     H48976   0.695   8.102   3.713 -0.2551  1.2491 -0.4547
  363MOL0     H48977   0.873   8.264   3.538 -1.6413  0.3486 -1.2961
  363MOL0     H48978   0.860   8.087   3.536 -0.1326  0.8673 -0.6889
  363MOL0     H48979   0.633   8.281   3.468  0.9339  2.0240  1.1761
  363MOL0     H48980   0.622   8.103   3.459 -1.3089  1.8084 -3.0717
  363MOL0     H48981   0.832   8.249   3.303  1.5978 -1.9486 -1.4016
  363MOL0     H48982   0.818   8.084   3.307  1.4922  0.8443  0.3874
  363MOL0     H48983   0.709   8.238   3.111  2.4277  0.5039  1.3790
  363MOL0     H48984   0.571   8.241   3.228  0.6584  1.9671 -0.7109
  363MOL0     H48985   0.537   8.054   3.067 -1.9108 -1.5256  0.8271
  363MOL0     H48986   0.564   8.001   3.239  0.1250  0.6050  0.3208
  363MOL0     H48987   0.645   8.645   3.858  2.7169  0.1057 -0.5989
  363MOL0     H48988   0.606   8.808   4.005 -0.7319 -1.4023 -2.3341
  363MOL0     H48989   0.835   9.009   4.496 -0.8088 -1.0958  1.8582
  363MOL0     H48990   0.798   9.189   4.595  0.3917 -2.3852 -1.1065
  363MOL0     H48991   0.723   9.336   3.771  0.3683 -1.3209  2.7709
  363MOL0     H48992   0.709   9.337   3.520  2.2274 -0.1022 -2.6420
  363MOL0     H48993   0.756   9.364   3.035  1.1148  0.8835 -0.6013
  363MOL0     H48994   0.754   9.301   2.807 -3.8670 -1.2270 -1.6769
  363MOL0     H48995   0.784   8.911   2.557  0.5339 -0.7754 -0.1071
  363MOL0     H48996   0.763   8.840   2.726  0.3831  2.3866  2.0735
  363MOL0     H48997   0.562   8.929   2.780  0.3890 -1.0650  0.0384
  363MOL0     H48998   0.560   8.847   2.633  3.3252 -1.4108 -0.6776
  363MOL0     H48999   0.521   9.050   2.498  1.7222  0.6126 -0.4507
  363MOL0     H49000   0.597   9.152   2.622 -2.6791  2.1882  2.3441
  363MOL0     H49001   0.329   9.027   2.639 -0.3903  1.5901 -2.9571
  363MOL0     H49002   0.365   9.202   2.607 -0.6206 -0.5405 -1.1858
  363MOL0     H49003   0.405   9.199   3.025 -0.9419 -0.0726  0.4312
  363MOL0     H49004   0.807   8.883   2.932  0.7247 -1.1037  1.8985
  363MOL0     H49005   0.800   8.961   3.167 -1.8678 -0.9062 -1.1954
  364MOL0     O49006   4.311  10.760   8.787  0.3728 -0.2610 -0.3406
  364MOL0     C49007   4.187  10.768   8.755 -0.0428 -0.3201 -0.1013
  364MOL0     O49008   4.135  10.813   8.629 -0.2818  0.2717 -0.1324
  364MOL0     C49009   4.230  10.855   8.534 -0.3735 -0.0185 -0.9363
  364MOL0     C49010   4.358  10.803   8.501  0.3892  0.7803 -0.3989
  364MOL0     C49011   4.442  10.867   8.407  1.1495  0.4383  0.1492
  364MOL0     C49012   4.401  10.984   8.347  0.3781 -0.6078 -0.0495
  364MOL0     O49013   4.467  11.058   8.255 -0.9792 -0.0115  0.3351
  364MOL0     C49014   4.612  11.060   8.264 -0.5125 -0.2509  0.5979
  364MOL0     C49015   4.664  11.141   8.143 -0.6436 -0.0575  1.1370
  364MOL0     C49016   4.669  11.292   8.163 -0.6491 -0.0026  0.8427
  364MOL0     C49017   4.559  11.359   8.250 -0.0533 -0.2232 -0.5785
  364MOL0     C49018   4.594  11.503   8.280 -0.2842 -0.0280  0.2178
  364MOL0     C49019   4.482  11.586   8.359 -1.0877 -0.0295 -0.3163
  364MOL0     C49020   4.543  11.724   8.416 -0.3251  0.4753 -0.3514
  364MOL0     C49021   4.616  11.710   8.551 -0.6569  0.4038 -0.0491
  364MOL0     N49022   4.632  11.836   8.622 -0.2663  0.3301  0.0404
  364MOL0     C49023   4.747  11.914   8.629 -0.3337  0.0760 -0.7860
  364MOL0     C49024   4.717  12.013   8.709  0.7556  0.0891 -1.4542
  364MOL0     C49025   4.816  12.112   8.768  0.0730  0.2481 -0.4666
  364MOL0     C49026   4.750  12.255   8.748  0.6161  0.6638 -0.2282
  364MOL0     C49027   4.792  12.362   8.848 -0.7208 -0.7747 -0.2756
  364MOL0     C49028   4.937  12.400   8.837 -0.1454  0.1588  0.0469
  364MOL0     O49029   5.021  12.331   8.933  0.3353  0.0459 -0.5344
  364MOL0     C49030   5.040  12.387   9.056 -0.3996 -0.2604 -0.6498
  364MOL0     C49031   5.107  12.305   9.145  0.1648  0.8355 -0.2730
  364MOL0     C49032   5.135  12.343   9.277 -0.5577  0.7899  0.4251
  364MOL0     C49033   5.208  12.242   9.361  1.2029 -0.0455 -0.2106
  364MOL0     C49034   5.092  12.472   9.313  1.0078  0.2561  0.1122
  364MOL0     C49035   5.126  12.536   9.448 -0.1040 -0.3268  0.2678
  364MOL0     O49036   5.078  12.660   9.475  0.4087  0.2587 -0.0007
  364MOL0     C49037   5.123  12.719   9.593  1.1157  0.1222 -1.1415
  364MOL0     C49038   5.021  12.730   9.683 -0.8927 -0.2972 -0.7550
  364MOL0     C49039   5.051  12.781   9.812 -0.5231  0.8225 -0.2602
  364MOL0     C49040   5.171  12.844   9.840  0.1700 -0.3428 -0.5158
  364MOL0     O49041   5.198  12.904   9.960 -0.1674 -0.1470  0.6028
  364MOL0     C49042   5.107  12.943  10.060  0.7651  1.2075  0.0047
  364MOL0     C49043   5.067  12.818  10.143  0.8796 -0.2270  1.6691
  364MOL0     C49044   4.942  12.841  10.213  0.6564 -0.5561  0.1620
  364MOL0     C49045   4.817  12.817  10.124  0.2159 -0.1443  0.3881
  364MOL0     C49046   4.684  12.832  10.204  0.0450  0.5548 -0.2205
  364MOL0     C49047   4.655  12.970  10.245 -0.1599 -0.0850  0.2861
  364MOL0     C49048   4.510  12.978  10.285  0.4925  0.2852 -0.0694
  364MOL0     C49049   4.480  13.097  10.381  0.6734 -0.3338  0.0360
  364MOL0    Cl49050   4.522  13.251  10.303  0.0322  0.4963  0.0634
  364MOL0     C49051   5.273  12.822   9.748 -0.4449  0.3304  0.6845
  364MOL0     C49052   5.253  12.759   9.626  0.1084  0.8308  0.4252
  364MOL0     O49053   5.184  12.462   9.524 -0.1977 -0.4183 -0.0689
  364MOL0     C49054   5.021  12.556   9.218  0.2090 -0.0859  0.1792
  364MOL0     C49055   5.000  12.509   9.096 -0.3164  0.4459  0.2566
  364MOL0     N49056   4.588  11.991   8.757 -0.6794 -0.7917 -0.3816
  364MOL0     N49057   4.542  11.881   8.710  0.7790 -0.2166 -0.4543
  364MOL0     C49058   4.271  11.035   8.375 -0.3223  0.5005  0.2925
  364MOL0     C49059   4.190  10.973   8.466  0.0640  0.1854  0.2716
  364MOL0     C49060   4.095  10.732   8.870 -0.4027 -0.8519 -0.6033
  364MOL0     C49061   4.150  10.661   8.974 -0.2762  1.1567 -0.5193
  364MOL0     C49062   4.086  10.640   9.094  0.7158 -0.4942  0.8906
  364MOL0     C49063   3.951  10.686   9.118  0.9497 -0.1243 -1.1006
  364MOL0     O49064   3.895  10.641   9.231 -0.5176  0.4096 -0.1621
  364MOL0     C49065   3.769  10.693   9.273  1.1641  0.0092 -0.0512
  364MOL0     C49066   3.724  10.668   9.419 -0.2444 -0.2957 -0.1926
  364MOL0     C49067   3.821  10.753   9.508 -0.0134  0.1729  0.0170
  364MOL0     C49068   3.810  10.744   9.658 -0.4752  0.3833 -0.3607
  364MOL0     C49069   3.672  10.769   9.699 -0.0005 -0.9702 -0.0619
  364MOL0     C49070   3.555  10.775   9.735 -0.5817  0.7151 -0.6166
  364MOL0     C49071   3.892  10.761   9.013  0.1857 -0.5733  0.7696
  364MOL0     C49072   3.969  10.786   8.892  1.3132  0.6716  0.5566
  364MOL0     H49073   4.395  10.712   8.546  4.7028  2.5493  0.1707
  364MOL0     H49074   4.528  10.818   8.362  0.8948  1.3340 -1.3850
  364MOL0     H49075   4.658  11.106   8.352 -0.5889  0.4691  0.2776
  364MOL0     H49076   4.655  10.960   8.264 -1.4429 -0.7346  3.3739
  364MOL0     H49077   4.763  11.098   8.122 -0.9489 -0.9228  1.4098
  364MOL0     H49078   4.608  11.114   8.053  0.7752 -0.6006  0.3814
  364MOL0     H49079   4.764  11.315   8.211 -0.0373 -2.5749  1.0354
  364MOL0     H49080   4.660  11.339   8.065  1.3237 -3.3002 -1.1104
  364MOL0     H49081   4.459  11.370   8.206 -0.5644 -2.3731 -0.0705
  364MOL0     H49082   4.552  11.307   8.346 -3.3213  4.3268  2.0387
  364MOL0     H49083   4.688  11.511   8.336  0.5784  2.6925 -1.4500
  364MOL0     H49084   4.604  11.556   8.185  1.9119 -1.1207 -0.2278
  364MOL0     H49085   4.394  11.595   8.295 -0.2603  2.3698 -1.2404
  364MOL0     H49086   4.452  11.530   8.448 -1.1185 -1.0314 -0.9432
  364MOL0     H49087   4.623  11.751   8.347  2.5836 -2.9721  1.3034
  364MOL0     H49088   4.466  11.800   8.427  0.4689  1.2220  0.1317
  364MOL0     H49089   4.710  11.655   8.538  0.2632  1.1135  2.8998
  364MOL0     H49090   4.561  11.644   8.619  1.3478 -1.9440 -0.5386
  364MOL0     H49091   4.846  11.894   8.588  1.2723 -0.4223  2.8840
  364MOL0     H49092   4.835  12.096   8.874 -0.3758 -1.6374 -0.6304
  364MOL0     H49093   4.908  12.103   8.709 -0.2561 -1.0650 -0.8237
  364MOL0     H49094   4.641  12.254   8.759  0.7432  3.1748  2.9162
  364MOL0     H49095   4.760  12.287   8.644 -1.6445  0.8754 -0.4344
  364MOL0     H49096   4.763  12.322   8.945 -1.5117 -3.5353 -1.5371
  364MOL0     H49097   4.740  12.455   8.823  2.4486  1.2015 -0.0813
  364MOL0     H49098   4.959  12.506   8.847  2.3965 -0.4335  2.1286
  364MOL0     H49099   4.984  12.362   8.746 -0.4223  0.0314 -0.0447
  364MOL0     H49100   5.144  12.210   9.108 -0.0613  0.9392 -0.7743
  364MOL0     H49101   5.258  12.175   9.290 -2.0765 -0.6929 -2.0985
  364MOL0     H49102   5.290  12.285   9.419  1.0551  0.6851 -0.5246
  364MOL0     H49103   5.139  12.184   9.423  1.5358 -1.1170 -0.8230
  364MOL0     H49104   4.920  12.701   9.658 -1.1607  0.8639 -1.0459
  364MOL0     H49105   4.966  12.769   9.879 -1.0778 -1.2648 -1.2536
  364MOL0     H49106   5.152  13.024  10.117  1.6166  1.8237 -1.4812
  364MOL0     H49107   5.021  12.973   9.999 -0.6989 -4.8453 -1.5974
  364MOL0     H49108   5.059  12.720  10.094  0.3525 -0.0615  1.4203
  364MOL0     H49109   5.144  12.806  10.220  1.6281 -3.1762  0.6172
  364MOL0     H49110   4.934  12.943  10.250 -3.2429 -0.2239 -1.1531
  364MOL0     H49111   4.933  12.775  10.300 -0.9690  0.6320  0.9509
  364MOL0     H49112   4.815  12.900  10.052 -0.1179  0.3307  0.9388
  364MOL0     H49113   4.835  12.730  10.060  4.4966  1.1090 -0.4374
  364MOL0     H49114   4.688  12.766  10.291  1.1638  0.3611 -0.4035
  364MOL0     H49115   4.593  12.800  10.154 -0.5474  2.3337 -0.3315
  364MOL0     H49116   4.708  13.006  10.334 -0.7809  2.4266 -0.2683
  364MOL0     H49117   4.668  13.045  10.167 -0.2605 -1.0736 -0.7020
  364MOL0     H49118   4.474  12.892  10.344  1.9049  2.0583  3.7399
  364MOL0     H49119   4.448  12.983  10.195  0.1942 -3.3938 -0.2423
  364MOL0     H49120   4.520  13.086  10.482 -2.3869 -0.8550  1.2987
  364MOL0     H49121   4.372  13.086  10.395  0.3802  1.8154 -0.1782
  364MOL0     H49122   5.376  12.852   9.771 -0.2402  0.0744  0.1031
  364MOL0     H49123   5.332  12.748   9.552  0.0803 -0.2744  0.5367
  364MOL0     H49124   4.982  12.652   9.252  0.4426  0.4914 -1.1450
  364MOL0     H49125   4.952  12.572   9.022  1.5280 -0.5375 -1.8733
  364MOL0     H49126   4.230  11.119   8.320 -2.2057 -0.6662 -0.2057
  364MOL0     H49127   4.088  11.005   8.487 -0.6668 -1.0539 -1.2017
  364MOL0     H49128   4.238  10.604   8.947 -0.8784 -0.8291  1.4647
  364MOL0     H49129   4.123  10.561   9.159 -2.0784 -3.2006 -0.5040
  364MOL0     H49130   3.775  10.803   9.267  0.7572  0.1698  1.7782
  364MOL0     H49131   3.687  10.662   9.209 -0.7167 -1.5137  2.8645
  364MOL0     H49132   3.726  10.559   9.432  0.1977 -0.4569 -1.4738
  364MOL0     H49133   3.623  10.710   9.423  0.3803  1.2320  0.6123
  364MOL0     H49134   3.808  10.860   9.493 -0.1642  0.7443  3.4022
  364MOL0     H49135   3.926  10.723   9.501 -0.9397 -3.4892 -0.3691
  364MOL0     H49136   3.861  10.830   9.701  3.2086 -1.7873  0.0299
  364MOL0     H49137   3.847  10.648   9.694 -1.6228  1.2136  3.4748
  364MOL0     H49138   3.457  10.791   9.775  1.1639  0.9506  4.2486
  364MOL0     H49139   3.790  10.798   9.019  0.1331 -0.4921 -0.4129
  364MOL0     H49140   3.926  10.853   8.818 -2.0803  0.6980  2.3330
  365MOL0     O49141   3.230  10.696   8.812 -0.2536  0.7766 -0.0445
  365MOL0     C49142   3.335  10.636   8.795 -0.2124  0.0882  0.0369
  365MOL0     O49143   3.406  10.638   8.680  0.1931  0.3574  0.3196
  365MOL0     C49144   3.368  10.739   8.595  0.1913 -0.3611  0.3414
  365MOL0     C49145   3.313  10.716   8.463 -0.0178 -0.7785 -0.5499
  365MOL0     C49146   3.300  10.818   8.376 -0.3066  0.0996  0.5649
  365MOL0     C49147   3.320  10.954   8.411 -0.2859 -0.6085  0.2683
  365MOL0     O49148   3.301  11.052   8.315  0.8404 -0.1564  0.1846
  365MOL0     C49149   3.373  11.183   8.308 -0.4211 -0.3138  0.6618
  365MOL0     C49150   3.284  11.286   8.242 -0.4744  0.5110 -0.2505
  365MOL0     C49151   3.359  11.410   8.201  0.0772  0.0516  0.1658
  365MOL0     C49152   3.257  11.509   8.149 -0.0749  0.4401 -0.4645
  365MOL0     C49153   3.300  11.661   8.141  0.7508  0.4850 -0.5077
  365MOL0     C49154   3.430  11.682   8.047 -0.1475  0.4640  0.2211
  365MOL0     C49155   3.404  11.623   7.911  0.1065  0.4770  0.8722
  365MOL0     C49156   3.289  11.704   7.837  0.4332  0.5374  0.4136
  365MOL0     N49157   3.267  11.646   7.701 -0.0888  0.2868 -0.4811
  365MOL0     C49158   3.183  11.549   7.667  1.3412 -0.3614  0.4666
  365MOL0     C49159   3.187  11.550   7.522 -0.3843 -0.3033  0.0482
  365MOL0     C49160   3.102  11.466   7.429 -0.9758  0.5980  0.0840
  365MOL0     C49161   3.189  11.443   7.304 -0.5015  0.9763 -0.2152
  365MOL0     C49162   3.133  11.527   7.187 -0.4182  0.4889 -0.2220
  365MOL0     C49163   3.164  11.478   7.044  0.6568 -0.0211 -0.4950
  365MOL0     O49164   3.300  11.443   7.039 -0.0739 -0.3690  0.6130
  365MOL0     C49165   3.348  11.359   6.934 -0.8881 -0.1442 -0.3097
  365MOL0     C49166   3.270  11.291   6.837 -0.2512 -0.2562  0.9929
  365MOL0     C49167   3.333  11.218   6.742  0.5303  1.0595 -0.1697
  365MOL0     C49168   3.246  11.157   6.633  0.1245  0.5209 -0.8130
  365MOL0     C49169   3.474  11.192   6.741  0.1206 -0.6667  0.5024
  365MOL0     C49170   3.544  11.130   6.621 -0.6474 -0.5815  0.3005
  365MOL0     O49171   3.504  11.177   6.504  0.3606 -0.6634 -0.6444
  365MOL0     C49172   3.541  11.118   6.387  0.2969  0.1853 -0.7018
  365MOL0     C49173   3.552  10.980   6.373 -0.5240  0.6980  0.2870
  365MOL0     C49174   3.581  10.928   6.247  0.1348  0.3785 -0.4889
  365MOL0     C49175   3.588  11.009   6.128 -0.5929 -0.2474  0.0061
  365MOL0     O49176   3.612  10.969   6.002 -0.7500 -0.6579  0.8710
  365MOL0     C49177   3.627  10.828   5.978 -0.6149 -0.5045 -0.7022
  365MOL0     C49178   3.506  10.747   5.940 -0.5659  0.0012 -0.4463
  365MOL0     C49179   3.389  10.838   5.895  0.3275 -0.3288  0.9720
  365MOL0     C49180   3.239  10.789   5.936 -0.5035 -0.8273  0.0487
  365MOL0     C49181   3.218  10.812   6.081  0.7575 -0.3862 -0.4206
  365MOL0     C49182   3.149  10.948   6.118 -0.7531 -0.4159 -0.0676
  365MOL0     C49183   3.151  10.992   6.268  0.2249  1.4344  0.2973
  365MOL0     C49184   3.063  10.901   6.346 -0.1049 -0.1943  0.4728
  365MOL0    Cl49185   2.904  10.914   6.294 -0.0685 -0.2736  0.3953
  365MOL0     C49186   3.556  11.146   6.154 -0.2068  0.7327 -0.0690
  365MOL0     C49187   3.542  11.200   6.279  0.6605 -0.6424  0.0240
  365MOL0     O49188   3.637  11.064   6.644 -0.1514  0.1829 -0.3166
  365MOL0     C49189   3.547  11.249   6.846 -0.8544  0.6017 -0.1728
  365MOL0     C49190   3.486  11.331   6.937 -0.1635  0.1431  0.1319
  365MOL0     N49191   3.283  11.646   7.487  0.2372 -0.4495  0.0718
  365MOL0     N49192   3.327  11.703   7.594 -0.8837 -0.0632  0.1142
  365MOL0     C49193   3.360  10.979   8.542 -0.8914 -0.0432 -0.8006
  365MOL0     C49194   3.382  10.876   8.628 -0.4711  1.6733  0.0071
  365MOL0     C49195   3.408  10.565   8.908 -0.3279 -0.7206 -0.0262
  365MOL0     C49196   3.528  10.489   8.891 -0.3109 -0.0996 -0.1371
  365MOL0     C49197   3.591  10.427   8.993  0.4730  0.1794 -0.1058
  365MOL0     C49198   3.544  10.436   9.127  0.4811  0.2763  0.5381
  365MOL0     O49199   3.605  10.380   9.240 -0.4219  0.2704  0.5069
  365MOL0     C49200   3.675  10.260   9.229 -0.2576 -0.9909 -0.1903
  365MOL0     C49201   3.713  10.209   9.381  0.5242  0.4411  0.3007
  365MOL0     C49202   3.602  10.197   9.484 -0.1880  1.0902  0.7395
  365MOL0     C49203   3.523  10.073   9.488  0.2237  0.0465 -0.5907
  365MOL0     C49204   3.445  10.046   9.366 -0.1386  0.2418  0.0082
  365MOL0     C49205   3.386  10.037   9.256  0.3099  0.7396 -0.5692
  365MOL0     C49206   3.434  10.528   9.153 -0.4575  0.2544  0.6912
  365MOL0     C49207   3.366  10.579   9.039 -0.3058  0.8413 -0.3385
  365MOL0     H49208   3.279  10.622   8.420 -0.1382  0.0737 -2.4087
  365MOL0     H49209   3.284  10.804   8.269 -1.1581  3.7349  0.0701
  365MOL0     H49210   3.411  11.221   8.403 -0.6329 -2.5389  1.7168
  365MOL0     H49211   3.455  11.165   8.237 -0.7822 -0.9175  0.3857
  365MOL0     H49212   3.224  11.245   8.160 -2.0816  0.9266  0.6782
  365MOL0     H49213   3.207  11.307   8.317  0.0677 -1.6393  1.0215
  365MOL0     H49214   3.412  11.453   8.286 -2.6289  2.4798  0.7754
  365MOL0     H49215   3.439  11.400   8.127  2.6503 -0.3997  2.8554
  365MOL0     H49216   3.221  11.473   8.052  4.0280 -3.3037 -0.8973
  365MOL0     H49217   3.171  11.509   8.218  0.9419  1.8073  0.8937
  365MOL0     H49218   3.212  11.718   8.110 -1.3629 -3.2379 -2.1215
  365MOL0     H49219   3.322  11.693   8.243 -0.1797 -0.0733 -0.1173
  365MOL0     H49220   3.460  11.787   8.046  2.4745 -0.2157 -0.4631
  365MOL0     H49221   3.516  11.637   8.097 -1.0405 -0.7723  0.7013
  365MOL0     H49222   3.500  11.630   7.858 -0.1026 -1.7092  0.0955
  365MOL0     H49223   3.385  11.515   7.909 -0.1414  0.4763 -2.5791
  365MOL0     H49224   3.322  11.807   7.823 -0.4044  0.7726  0.0825
  365MOL0     H49225   3.191  11.700   7.885 -0.0952 -0.1123 -0.6735
  365MOL0     H49226   3.106  11.493   7.719 -2.0213  2.0632 -1.5342
  365MOL0     H49227   3.082  11.370   7.476  0.7449  0.0174 -0.2876
  365MOL0     H49228   3.006  11.512   7.409 -2.4824 -1.5969  1.7722
  365MOL0     H49229   3.185  11.336   7.284  1.3011  1.2619 -2.4606
  365MOL0     H49230   3.296  11.459   7.318  0.2165 -0.2457 -3.5242
  365MOL0     H49231   3.170  11.628   7.205  0.6625 -0.0001  0.4194
  365MOL0     H49232   3.025  11.531   7.203  0.1590  1.2629  5.6716
  365MOL0     H49233   3.143  11.555   6.969  2.3013  0.1760 -0.7891
  365MOL0     H49234   3.091  11.398   7.032 -3.4732  2.7724  2.9297
  365MOL0     H49235   3.163  11.301   6.828 -0.1802 -0.3070 -0.0586
  365MOL0     H49236   3.272  11.203   6.538 -0.5276 -0.4339 -1.4725
  365MOL0     H49237   3.253  11.048   6.620 -0.3058 -0.6286  5.2553
  365MOL0     H49238   3.143  11.180   6.661  0.2453  0.4934 -0.3399
  365MOL0     H49239   3.568  10.925   6.465 -0.6465  1.7033  0.9265
  365MOL0     H49240   3.616  10.826   6.243 -0.6488  0.1376 -2.1088
  365MOL0     H49241   3.691  10.815   5.890 -3.3274 -0.5968 -2.7973
  365MOL0     H49242   3.677  10.784   6.065  0.2421  2.6546  0.5262
  365MOL0     H49243   3.537  10.672   5.866  1.7155  0.2882  0.1399
  365MOL0     H49244   3.486  10.677   6.021  0.1796  1.4197  1.0324
  365MOL0     H49245   3.395  10.840   5.786 -2.8843  1.4583  0.6754
  365MOL0     H49246   3.403  10.937   5.940  1.1512 -0.9148  2.0518
  365MOL0     H49247   3.166  10.846   5.878 -1.7119  1.3602  3.4195
  365MOL0     H49248   3.227  10.682   5.918 -1.4422 -1.0250  1.7412
  365MOL0     H49249   3.315  10.815   6.131 -0.6219  1.5759  2.3873
  365MOL0     H49250   3.169  10.721   6.117 -1.0278 -0.5243 -2.9231
  365MOL0     H49251   3.198  11.031   6.066 -0.5119 -1.4919 -1.6304
  365MOL0     H49252   3.044  10.940   6.087 -1.0074 -2.4213  1.1652
  365MOL0     H49253   3.107  11.091   6.280  1.0365  1.5990  2.3558
  365MOL0     H49254   3.252  10.986   6.310  0.0505  1.2453  0.6961
  365MOL0     H49255   3.084  10.917   6.452  1.6845  0.9812 -0.0121
  365MOL0     H49256   3.096  10.800   6.319 -1.2955  0.0653 -2.2331
  365MOL0     H49257   3.557  11.219   6.073 -0.7497  1.9170  0.9569
  365MOL0     H49258   3.511  11.302   6.294  0.2179 -0.6996 -0.4854
  365MOL0     H49259   3.651  11.223   6.862 -1.3792 -2.2546 -0.8258
  365MOL0     H49260   3.538  11.379   7.019 -0.7508 -2.6112  2.2574
  365MOL0     H49261   3.367  11.083   8.571  0.4997 -0.4370  0.4209
  365MOL0     H49262   3.420  10.899   8.726 -5.0508 -3.3577  3.5624
  365MOL0     H49263   3.574  10.476   8.794 -0.0356 -3.2164  0.3241
  365MOL0     H49264   3.681  10.367   8.984  0.5077  0.0562  0.9087
  365MOL0     H49265   3.607  10.188   9.183 -2.1524 -0.3731  1.4929
  365MOL0     H49266   3.759  10.278   9.162 -0.2742 -2.6422 -0.7059
  365MOL0     H49267   3.786  10.277   9.425 -0.4831 -0.7428  4.1808
  365MOL0     H49268   3.765  10.113   9.377 -1.2173 -0.5186 -0.6433
  365MOL0     H49269   3.536  10.283   9.482  0.2241  1.4074  0.5609
  365MOL0     H49270   3.657  10.208   9.578  0.0716 -0.5605  0.8075
  365MOL0     H49271   3.450  10.095   9.565 -0.7450  1.8198 -1.9312
  365MOL0     H49272   3.589   9.988   9.507  0.7525 -1.0646 -5.9033
  365MOL0     H49273   3.327  10.043   9.167 -1.1641  4.3930  0.4792
  365MOL0     H49274   3.402  10.532   9.257 -0.6354 -1.0404  0.7010
  365MOL0     H49275   3.274  10.634   9.057 -1.0442 -0.3104 -0.5235
  366MOL0     O49276   2.575   0.923   2.306  0.6292  0.0483 -0.5603
  366MOL0     C49277   2.611   0.856   2.217 -0.5684  0.0568  0.5231
  366MOL0     O49278   2.691   0.900   2.116 -0.5714 -0.0174  0.0400
  366MOL0     C49279   2.706   1.031   2.086 -0.4772  0.1120  0.7714
  366MOL0     C49280   2.622   1.133   2.123  0.6279 -0.7432 -0.5280
  366MOL0     C49281   2.639   1.260   2.072 -0.7269  1.7861  0.4051
  366MOL0     C49282   2.746   1.292   1.989 -0.0381 -0.3514  0.9729
  366MOL0     O49283   2.749   1.417   1.924  0.0510  0.7320 -0.7031
  366MOL0     C49284   2.677   1.527   1.977  0.3004 -0.1314  0.4513
  366MOL0     C49285   2.736   1.642   1.894 -0.6595 -0.2915 -0.1296
  366MOL0     C49286   2.872   1.674   1.951 -0.9067 -0.4120  1.4350
  366MOL0     C49287   2.923   1.809   1.889 -0.9627 -0.0210 -0.0758
  366MOL0     C49288   2.916   1.811   1.736  0.5583  0.3022  0.3615
  366MOL0     C49289   2.991   1.921   1.663  0.8346 -0.0303 -0.5921
  366MOL0     C49290   2.970   1.893   1.513  0.5849  0.0633  0.0401
  366MOL0     C49291   2.830   1.931   1.456  0.1221  0.9700 -1.0696
  366MOL0     N49292   2.811   2.078   1.452  0.0016 -0.1501  0.5457
  366MOL0     C49293   2.782   2.160   1.553  0.1144  0.2298 -0.6580
  366MOL0     C49294   2.791   2.284   1.498 -0.3112  0.4091  0.4774
  366MOL0     C49295   2.735   2.397   1.585 -0.5414  0.0975 -0.3499
  366MOL0     C49296   2.838   2.458   1.687  0.1903  0.3477  0.3750
  366MOL0     C49297   2.951   2.543   1.619 -0.1528  0.2244  0.4893
  366MOL0     C49298   3.049   2.591   1.713  0.3469  0.4274 -0.2737
  366MOL0     O49299   3.131   2.695   1.661  0.7361  0.1728  0.1167
  366MOL0     C49300   3.237   2.744   1.737 -0.7449  0.6292 -0.1298
  366MOL0     C49301   3.271   2.695   1.877 -0.1194 -0.2310  0.2563
  366MOL0     C49302   3.390   2.729   1.940 -0.5153  0.1238 -0.4669
  366MOL0     C49303   3.415   2.683   2.079  0.7040  0.0709 -0.2252
  366MOL0     C49304   3.485   2.804   1.866  0.0233 -0.0006  0.2652
  366MOL0     C49305   3.601   2.876   1.929 -0.7866 -0.2183  0.5521
  366MOL0     O49306   3.593   2.894   2.068  0.4899 -0.4089 -0.8807
  366MOL0     C49307   3.705   2.945   2.124 -0.2483 -0.0461 -0.4152
  366MOL0     C49308   3.705   3.074   2.176 -0.1477 -0.5375 -0.1426
  366MOL0     C49309   3.813   3.133   2.240  0.3651 -0.1881  0.2626
  366MOL0     C49310   3.935   3.067   2.239 -0.0747 -0.0339  0.2473
  366MOL0     O49311   4.036   3.127   2.308 -0.1564  0.2653  0.1182
  366MOL0     C49312   4.073   3.056   2.424 -0.8303 -0.4399  0.0569
  366MOL0     C49313   4.127   3.173   2.504  0.1582  0.2689 -0.8933
  366MOL0     C49314   4.175   3.133   2.648  0.8805  0.0752  0.3936
  366MOL0     C49315   4.322   3.100   2.691  0.5098  0.2188 -0.3302
  366MOL0     C49316   4.428   3.211   2.672 -0.7136 -0.1248  0.2070
  366MOL0     C49317   4.575   3.173   2.701 -0.6233  0.0920 -0.6285
  366MOL0     C49318   4.580   3.137   2.848 -0.6087  0.1698  0.3050
  366MOL0     C49319   4.728   3.103   2.882 -0.3879 -0.1573 -0.6293
  366MOL0    Cl49320   4.731   3.068   3.056  0.1622 -0.0061  0.3199
  366MOL0     C49321   3.946   2.937   2.183 -0.4856  0.2892  0.5996
  366MOL0     C49322   3.825   2.869   2.137 -0.2463 -0.0641 -0.1862
  366MOL0     O49323   3.690   2.921   1.850 -0.2113 -0.3215 -0.6209
  366MOL0     C49324   3.449   2.845   1.734 -0.2479 -0.3274  0.4860
  366MOL0     C49325   3.336   2.809   1.672  0.2616  0.1423  0.2857
  366MOL0     N49326   2.835   2.276   1.366 -0.1253 -0.0803 -0.3250
  366MOL0     N49327   2.845   2.155   1.342  0.4902  0.4204 -0.0592
  366MOL0     C49328   2.818   1.188   1.929 -0.0831  0.3199 -0.3508
  366MOL0     C49329   2.800   1.062   1.986  0.0236 -0.3440  0.4516
  366MOL0     C49330   2.583   0.710   2.217 -0.7569  0.3770 -0.3040
  366MOL0     C49331   2.559   0.638   2.336 -0.8139  0.6936  1.1250
  366MOL0     C49332   2.523   0.501   2.336 -0.5551  0.5307 -0.1680
  366MOL0     C49333   2.504   0.427   2.215 -1.3165 -0.6081  0.3385
  366MOL0     O49334   2.476   0.291   2.207  0.0616 -0.9216 -0.2360
  366MOL0     C49335   2.385   0.232   2.308  0.5698 -0.0613  0.1262
  366MOL0     C49336   2.461   0.164   2.428 -0.4874  0.0725 -0.1600
  366MOL0     C49337   2.362   0.128   2.543 -0.3739  0.4478 -0.0556
  366MOL0     C49338   2.291   0.002   2.498  0.3800 -0.0820  0.4662
  366MOL0     C49339   2.229  -0.062   2.617 -0.5152  0.8140  0.0263
  366MOL0     C49340   2.174  -0.119   2.713 -0.1260 -0.8031  0.0588
  366MOL0     C49341   2.538   0.503   2.093 -0.3192  0.1174 -0.5156
  366MOL0     C49342   2.580   0.637   2.097 -0.4484 -0.7832 -0.1272
  366MOL0     H49343   2.541   1.126   2.196  0.4957  0.7795 -0.5050
  366MOL0     H49344   2.560   1.330   2.100 -2.7263 -0.1842  0.0459
  366MOL0     H49345   2.572   1.511   1.952  0.4354  1.1012 -1.0412
  366MOL0     H49346   2.705   1.532   2.083 -1.6251 -0.5847  1.0122
  366MOL0     H49347   2.740   1.630   1.785 -0.5483  2.5102 -0.5081
  366MOL0     H49348   2.662   1.720   1.915 -0.7552 -0.8277  1.6852
  366MOL0     H49349   2.877   1.672   2.060  3.7179  0.4597  1.4625
  366MOL0     H49350   2.936   1.596   1.908 -0.8886  0.2407  0.2280
  366MOL0     H49351   2.883   1.895   1.943  1.0448 -0.0209  1.5370
  366MOL0     H49352   3.028   1.812   1.920  0.0136 -2.5828 -2.7193
  366MOL0     H49353   2.958   1.716   1.702 -1.8289 -0.2195 -1.3892
  366MOL0     H49354   2.812   1.805   1.705  0.5296  2.4532 -0.1410
  366MOL0     H49355   2.954   2.024   1.675 -0.2861 -0.6006  1.3425
  366MOL0     H49356   3.094   1.920   1.698  0.4004 -3.1178  0.9451
  366MOL0     H49357   3.050   1.944   1.457  0.9537 -2.3933 -1.8339
  366MOL0     H49358   2.982   1.788   1.487  1.2149  0.4429 -1.3114
  366MOL0     H49359   2.752   1.879   1.512  2.1935 -1.5016 -0.2422
  366MOL0     H49360   2.826   1.885   1.357  2.1245 -4.6410  1.0350
  366MOL0     H49361   2.748   2.137   1.653  1.0569  2.4043  0.2168
  366MOL0     H49362   2.680   2.471   1.525  1.7869  1.9190 -0.4240
  366MOL0     H49363   2.654   2.358   1.647  0.7862  2.7155  3.4316
  366MOL0     H49364   2.892   2.384   1.746 -1.1669  0.1294  1.3899
  366MOL0     H49365   2.774   2.512   1.757  0.3490  0.0150  0.7781
  366MOL0     H49366   2.903   2.630   1.573  0.6116  2.6583  3.9606
  366MOL0     H49367   2.995   2.472   1.548 -3.2174 -1.3653  0.0024
  366MOL0     H49368   3.106   2.511   1.760 -2.5212 -0.8695  1.3124
  366MOL0     H49369   3.010   2.649   1.798  2.5440  1.5447  0.0347
  366MOL0     H49370   3.199   2.640   1.937 -0.7997  1.0766  0.6927
  366MOL0     H49371   3.354   2.596   2.104  2.3887 -1.3448 -0.8475
  366MOL0     H49372   3.514   2.636   2.089  0.1868 -0.5849  3.0913
  366MOL0     H49373   3.401   2.764   2.151 -1.0723 -0.2033 -0.2394
  366MOL0     H49374   3.611   3.127   2.166  1.2313  2.0152 -0.3583
  366MOL0     H49375   3.796   3.226   2.295 -3.7741 -0.4364 -0.3252
  366MOL0     H49376   3.983   3.018   2.474 -0.7733 -0.2583  0.3011
  366MOL0     H49377   4.140   2.973   2.399 -0.4566 -1.0302  2.6986
  366MOL0     H49378   4.212   3.224   2.459  0.7121  2.3705  2.1763
  366MOL0     H49379   4.049   3.249   2.515  0.8061  0.7364  1.0222
  366MOL0     H49380   4.110   3.056   2.691  1.7498 -1.4232 -0.8860
  366MOL0     H49381   4.154   3.228   2.699 -1.4428 -0.2847  0.1938
  366MOL0     H49382   4.321   3.088   2.800 -1.6067  3.7740  0.1983
  366MOL0     H49383   4.350   3.008   2.639  0.3966 -0.2064  0.3440
  366MOL0     H49384   4.395   3.304   2.718 -0.9428  1.1906 -2.4546
  366MOL0     H49385   4.422   3.246   2.568 -1.7316  1.2633  0.7096
  366MOL0     H49386   4.595   3.089   2.635  0.7607  0.0153 -0.1450
  366MOL0     H49387   4.637   3.262   2.688 -1.8792  1.6149  2.5108
  366MOL0     H49388   4.518   3.052   2.877  0.4512 -0.9090 -0.4651
  366MOL0     H49389   4.553   3.225   2.907 -1.5266  0.0337  0.0973
  366MOL0     H49390   4.791   3.187   2.851  0.3733 -0.9603 -1.3010
  366MOL0     H49391   4.763   3.014   2.830  0.4921  1.3063 -2.6399
  366MOL0     H49392   4.043   2.889   2.187 -0.8370 -0.5783 -0.7781
  366MOL0     H49393   3.827   2.764   2.109 -0.7010 -0.9990  2.9048
  366MOL0     H49394   3.519   2.912   1.686  1.2184 -0.4069  2.4081
  366MOL0     H49395   3.308   2.829   1.569 -4.0747 -0.9861  1.0239
  366MOL0     H49396   2.876   1.205   1.839 -1.1125  0.3609 -1.0251
  366MOL0     H49397   2.851   0.974   1.948 -0.4766 -0.6267  0.4283
  366MOL0     H49398   2.577   0.688   2.430  1.4120  2.7860 -0.2949
  366MOL0     H49399   2.521   0.462   2.437 -0.1733 -0.2250 -0.4387
  366MOL0     H49400   2.320   0.306   2.357 -0.1299 -2.9671  4.1012
  366MOL0     H49401   2.335   0.150   2.256  3.4854 -2.0677  0.2889
  366MOL0     H49402   2.544   0.225   2.464  0.6171 -0.2751 -2.0211
  366MOL0     H49403   2.509   0.077   2.382 -0.6714 -0.0720 -0.0828
  366MOL0     H49404   2.301   0.214   2.569  1.5367  0.4887  5.7254
  366MOL0     H49405   2.428   0.105   2.628 -0.8781  1.2573  0.5641
  366MOL0     H49406   2.349  -0.070   2.440  0.3806  2.3695 -2.8497
  366MOL0     H49407   2.214   0.037   2.428  2.2718 -0.5879 -2.0309
  366MOL0     H49408   2.122  -0.152   2.801  1.3986  2.7220  2.5550
  366MOL0     H49409   2.528   0.443   2.003 -2.1393 -1.5746  0.7296
  366MOL0     H49410   2.586   0.686   2.001 -0.5259  1.4421  0.9488
  367MOL0     O49411  10.532   8.405   9.016 -0.5885 -0.7901 -0.3152
  367MOL0     C49412  10.512   8.391   9.131  0.1275 -0.2403  0.2834
  367MOL0     O49413  10.398   8.414   9.186 -0.5297 -0.6408 -0.2870
  367MOL0     C49414  10.281   8.415   9.113 -0.2802 -0.2526 -0.3625
  367MOL0     C49415  10.262   8.383   8.976 -0.7592  0.2880 -0.0360
  367MOL0     C49416  10.135   8.370   8.927  0.2318  0.2895  0.1153
  367MOL0     C49417  10.026   8.398   9.006 -0.5402 -0.3399 -0.6050
  367MOL0     O49418   9.893   8.403   8.969 -0.4554  0.2844 -0.3163
  367MOL0     C49419   9.871   8.343   8.842 -0.4916  0.0879  0.0797
  367MOL0     C49420   9.723   8.327   8.819  1.1593 -0.1372 -0.5093
  367MOL0     C49421   9.652   8.465   8.807 -0.0097  0.9475 -0.0738
  367MOL0     C49422   9.498   8.444   8.803 -0.6788  0.5816 -0.1453
  367MOL0     C49423   9.415   8.561   8.744 -0.3181 -0.6109 -0.3385
  367MOL0     C49424   9.268   8.544   8.734  0.7648  1.0176 -0.2565
  367MOL0     C49425   9.203   8.661   8.655 -0.0982 -0.5361 -0.5524
  367MOL0     C49426   9.209   8.620   8.504 -0.2969  0.1083  0.4630
  367MOL0     N49427   9.107   8.700   8.425  0.0001  0.5174  0.2994
  367MOL0     C49428   9.015   8.636   8.345  0.8528  0.1075 -0.4444
  367MOL0     C49429   8.933   8.729   8.308 -0.0186  0.6359  0.3532
  367MOL0     C49430   8.817   8.721   8.222 -0.0930  1.0201  0.6714
  367MOL0     C49431   8.741   8.588   8.224 -0.0968  0.6829 -0.1613
  367MOL0     C49432   8.592   8.595   8.194 -0.2992 -0.3089  1.2936
  367MOL0     C49433   8.513   8.666   8.301 -0.2533 -0.4012 -0.3232
  367MOL0     O49434   8.480   8.570   8.407 -0.3958 -0.0821  0.3487
  367MOL0     C49435   8.362   8.586   8.478 -0.7119  0.4992 -1.3903
  367MOL0     C49436   8.313   8.715   8.505  0.3502 -0.0724  0.2707
  367MOL0     C49437   8.208   8.743   8.596 -0.9210 -0.6074  0.3909
  367MOL0     C49438   8.177   8.888   8.629 -0.6019  0.0209  0.6289
  367MOL0     C49439   8.150   8.630   8.668  0.9265 -0.5290 -0.3795
  367MOL0     C49440   8.035   8.634   8.766  0.4533 -0.6504  0.0814
  367MOL0     O49441   7.985   8.518   8.797  0.3671  0.5436  0.3676
  367MOL0     C49442   7.871   8.499   8.878  1.0828 -0.6236 -0.1327
  367MOL0     C49443   7.787   8.594   8.946  0.5663 -0.6002  0.0126
  367MOL0     C49444   7.689   8.552   9.036 -0.3548  0.2053 -0.0079
  367MOL0     C49445   7.673   8.417   9.068  0.5109 -0.1286 -0.1132
  367MOL0     O49446   7.573   8.391   9.157 -0.2565  0.3724  0.0776
  367MOL0     C49447   7.523   8.251   9.167 -0.4307 -0.4844 -0.5258
  367MOL0     C49448   7.432   8.222   9.288 -1.1968 -0.8853  0.0334
  367MOL0     C49449   7.525   8.233   9.409 -0.1746  0.8813  0.2869
  367MOL0     C49450   7.453   8.222   9.547 -0.6220  0.7475 -0.5830
  367MOL0     C49451   7.389   8.080   9.575 -0.4680 -0.1078 -0.2638
  367MOL0     C49452   7.336   8.066   9.713  0.5939 -0.1873 -0.1957
  367MOL0     C49453   7.214   7.978   9.710 -0.3501  0.2804 -0.0137
  367MOL0     C49454   7.179   7.917   9.848  0.5873  0.1183  0.6665
  367MOL0    Cl49455   7.317   7.799   9.863 -0.1223 -0.1127  0.2926
  367MOL0     C49456   7.759   8.321   9.006  0.6161 -0.1210  0.5065
  367MOL0     C49457   7.854   8.364   8.913  0.4161  0.6554 -0.2625
  367MOL0     O49458   8.018   8.746   8.824  0.6133  0.4804  0.2798
  367MOL0     C49459   8.197   8.498   8.636 -0.3459  0.5503  0.5864
  367MOL0     C49460   8.300   8.484   8.543  0.7962 -0.1667  0.2862
  367MOL0     N49461   8.977   8.851   8.368 -0.1339 -0.8381 -0.1869
  367MOL0     N49462   9.077   8.831   8.437 -0.6056  0.5262 -0.0950
  367MOL0     C49463  10.040   8.435   9.146  0.3719  0.0391 -0.3098
  367MOL0     C49464  10.166   8.441   9.196 -0.0117  0.3088  0.4538
  367MOL0     C49465  10.631   8.381   9.219 -0.1123 -0.8688  0.0994
  367MOL0     C49466  10.757   8.381   9.162 -0.4733  0.1607  0.1515
  367MOL0     C49467  10.871   8.380   9.249  0.4401  0.1750  0.6058
  367MOL0     C49468  10.849   8.387   9.385  0.2051  0.4219  0.0163
  367MOL0     O49469  10.961   8.391   9.467 -0.3377 -0.0441  0.4470
  367MOL0     C49470  10.950   8.346   9.604 -0.0138 -0.0521 -0.3642
  367MOL0     C49471  10.938   8.470   9.705 -0.3714  0.2151  1.1523
  367MOL0     C49472  11.056   8.571   9.704  0.0366  0.3208  0.3938
  367MOL0     C49473  11.007   8.693   9.781 -0.4351 -0.8445 -0.5746
  367MOL0     C49474  11.112   8.793   9.758  0.0416  1.3148  0.8551
  367MOL0     C49475  11.199   8.868   9.730 -0.1530 -0.3777 -0.1298
  367MOL0     C49476  10.721   8.383   9.442 -0.4481  0.7899 -0.7623
  367MOL0     C49477  10.607   8.372   9.358 -0.2005 -0.8164 -0.3114
  367MOL0     H49478  10.345   8.355   8.912  0.7937  0.9370  1.5979
  367MOL0     H49479  10.123   8.341   8.823  1.5341 -0.1838  0.0812
  367MOL0     H49480   9.914   8.408   8.765  1.3061 -1.6756 -0.4833
  367MOL0     H49481   9.905   8.240   8.828 -3.6779 -0.9119 -1.4673
  367MOL0     H49482   9.695   8.271   8.729  1.3490 -0.9614 -0.0721
  367MOL0     H49483   9.686   8.265   8.902 -4.5815 -0.3863 -2.7864
  367MOL0     H49484   9.697   8.516   8.892  3.3697 -0.3236 -0.9111
  367MOL0     H49485   9.686   8.519   8.718 -0.2414  0.1261 -0.6769
  367MOL0     H49486   9.486   8.349   8.750 -0.1779 -1.0889  2.5451
  367MOL0     H49487   9.443   8.423   8.895  0.2637  1.0635  0.5359
  367MOL0     H49488   9.447   8.639   8.814  3.1519 -0.3471 -2.0137
  367MOL0     H49489   9.451   8.603   8.649 -1.9592 -2.8889 -2.0836
  367MOL0     H49490   9.244   8.449   8.686  0.5202  0.0687  1.6163
  367MOL0     H49491   9.213   8.537   8.828 -4.0878 -0.1490 -2.8767
  367MOL0     H49492   9.098   8.677   8.680 -0.3218  0.9298 -2.1807
  367MOL0     H49493   9.245   8.762   8.666 -1.0033  0.6960 -5.6937
  367MOL0     H49494   9.197   8.512   8.501  2.1475 -0.2370  0.9376
  367MOL0     H49495   9.308   8.628   8.457 -0.2280 -1.2605  0.3476
  367MOL0     H49496   9.019   8.530   8.324  2.4800  0.5096 -2.5128
  367MOL0     H49497   8.754   8.802   8.259 -0.9695 -1.0502  4.1098
  367MOL0     H49498   8.847   8.735   8.117  1.0782 -1.4657  0.6188
  367MOL0     H49499   8.740   8.540   8.323 -2.0523 -0.4592 -0.6851
  367MOL0     H49500   8.792   8.515   8.160  2.2144 -0.6617  2.9252
  367MOL0     H49501   8.543   8.502   8.163 -2.6944  1.4479 -0.6083
  367MOL0     H49502   8.575   8.659   8.107 -1.6591 -2.0978  0.1449
  367MOL0     H49503   8.433   8.710   8.241 -1.9097 -1.1969  1.1915
  367MOL0     H49504   8.566   8.745   8.354  1.1727 -1.0595 -0.7155
  367MOL0     H49505   8.361   8.798   8.453 -1.1798  1.1820  0.7771
  367MOL0     H49506   8.071   8.909   8.614 -0.0391  3.0230  0.2146
  367MOL0     H49507   8.188   8.909   8.735 -0.4841 -0.2289  0.6673
  367MOL0     H49508   8.246   8.949   8.570 -1.4883 -1.0332 -1.6536
  367MOL0     H49509   7.805   8.700   8.931  4.3524 -1.1317 -0.2219
  367MOL0     H49510   7.649   8.628   9.103  2.8516  1.2172  0.9590
  367MOL0     H49511   7.471   8.215   9.078 -5.1498  1.3975  1.1314
  367MOL0     H49512   7.612   8.189   9.181 -1.2498 -1.6821 -0.3908
  367MOL0     H49513   7.354   8.299   9.296 -3.0751 -2.7240  0.2314
  367MOL0     H49514   7.385   8.124   9.280 -3.6831  0.2559 -0.4618
  367MOL0     H49515   7.571   8.332   9.401 -1.6824  1.4767 -1.9376
  367MOL0     H49516   7.611   8.165   9.402  2.6003  3.5897  3.9016
  367MOL0     H49517   7.511   8.233   9.639 -2.3868 -1.8882  0.9626
  367MOL0     H49518   7.387   8.309   9.547 -0.3368  1.0017  1.3085
  367MOL0     H49519   7.455   7.995   9.554 -1.6916 -1.6555  1.7609
  367MOL0     H49520   7.307   8.067   9.504  0.3448  1.0448 -1.4588
  367MOL0     H49521   7.421   8.027   9.770  0.3012 -2.1624 -1.0289
  367MOL0     H49522   7.301   8.158   9.761  1.3055 -0.4932  0.9565
  367MOL0     H49523   7.218   7.907   9.627 -0.8296 -0.4395  0.5730
  367MOL0     H49524   7.131   8.045   9.689 -0.5243 -0.2120 -0.9617
  367MOL0     H49525   7.084   7.863   9.851 -1.2341  2.9322 -1.3419
  367MOL0     H49526   7.182   7.993   9.927  2.7504  0.6885  0.1144
  367MOL0     H49527   7.750   8.216   9.030 -0.3707  0.5121  3.2793
  367MOL0     H49528   7.925   8.298   8.865 -0.2445 -1.5967  1.6799
  367MOL0     H49529   8.170   8.406   8.688  2.3395 -2.2713 -2.5099
  367MOL0     H49530   8.357   8.394   8.521  3.0481  1.7449 -2.3984
  367MOL0     H49531   9.951   8.451   9.205 -0.2804 -1.2566 -0.9012
  367MOL0     H49532  10.170   8.455   9.304 -2.6015 -1.1862  0.8362
  367MOL0     H49533  10.764   8.369   9.054 -0.7535 -1.5608  0.2836
  367MOL0     H49534  10.971   8.378   9.206  0.4255  0.4097  0.5574
  367MOL0     H49535  10.866   8.279   9.628  0.0037 -0.2914 -0.9628
  367MOL0     H49536  11.040   8.293   9.635 -0.7529 -0.7963  0.5888
  367MOL0     H49537  10.925   8.444   9.810  3.7358 -0.8814  1.5700
  367MOL0     H49538  10.847   8.520   9.670 -2.1420 -3.0715  0.6745
  367MOL0     H49539  11.079   8.589   9.599  0.4955  4.7378  1.0729
  367MOL0     H49540  11.143   8.529   9.754  1.0131 -0.7528 -2.0411
  367MOL0     H49541  11.013   8.661   9.886 -1.1503  2.0182  0.4562
  367MOL0     H49542  10.911   8.737   9.753  1.3422  1.7655 -3.2475
  367MOL0     H49543  11.274   8.940   9.704 -1.0362 -0.3043 -2.6845
  367MOL0     H49544  10.698   8.392   9.548  2.2404 -0.7461  0.0490
  367MOL0     H49545  10.509   8.398   9.395 -0.4096 -0.8271 -0.8491
  368MOL0     O49546   5.409   0.556   3.330 -0.5111  0.6513  0.0633
  368MOL0     C49547   5.417   0.434   3.359 -0.7754  0.0606 -0.2352
  368MOL0     O49548   5.315   0.354   3.396 -0.3792 -0.1829 -0.4821
  368MOL0     C49549   5.189   0.400   3.386 -0.3245  0.5827 -0.1273
  368MOL0     C49550   5.140   0.497   3.468  0.2329 -0.0161 -0.7323
  368MOL0     C49551   5.005   0.527   3.484 -0.3617  0.4112  0.7178
  368MOL0     C49552   4.918   0.466   3.391 -0.6840 -0.5571 -0.7127
  368MOL0     O49553   4.783   0.499   3.398 -0.1797 -0.8057  0.7603
  368MOL0     C49554   4.693   0.476   3.285  0.1187  0.7528  0.4041
  368MOL0     C49555   4.590   0.580   3.266  0.1536  0.5183  0.0729
  368MOL0     C49556   4.489   0.567   3.395 -0.0824 -1.0408 -0.3372
  368MOL0     C49557   4.373   0.661   3.371  0.5823 -0.2620  0.3544
  368MOL0     C49558   4.279   0.684   3.488  0.7958  0.3568  0.1282
  368MOL0     C49559   4.167   0.795   3.459 -0.2937  1.3668 -0.2787
  368MOL0     C49560   4.204   0.937   3.451 -0.4063 -0.4452 -0.4690
  368MOL0     C49561   4.097   1.041   3.490  0.2525  0.5594  0.4756
  368MOL0     N49562   4.139   1.180   3.463  0.4993  0.1740 -0.5329
  368MOL0     C49563   4.178   1.238   3.341 -0.2426  0.2224 -0.1178
  368MOL0     C49564   4.191   1.371   3.370 -0.1788  0.4640 -0.2788
  368MOL0     C49565   4.236   1.483   3.279 -0.0753 -0.5229  0.0847
  368MOL0     C49566   4.159   1.609   3.268  0.0671  0.6462 -0.1758
  368MOL0     C49567   4.190   1.711   3.374 -0.0692 -0.0650 -0.2784
  368MOL0     C49568   4.137   1.860   3.350 -0.5995 -0.5842 -0.6289
  368MOL0     O49569   4.130   1.891   3.212  0.0799 -0.0728  0.9059
  368MOL0     C49570   4.062   2.006   3.172 -0.2970 -1.6902 -1.5257
  368MOL0     C49571   3.994   2.095   3.264 -0.4795  0.4625  0.6713
  368MOL0     C49572   3.908   2.205   3.215  0.1188 -0.2315  0.2301
  368MOL0     C49573   3.852   2.300   3.323 -0.1846  0.0972 -0.6599
  368MOL0     C49574   3.889   2.206   3.076 -0.2450 -0.1109  0.1736
  368MOL0     C49575   3.790   2.306   3.025 -0.3825 -0.1115  0.4470
  368MOL0     O49576   3.698   2.369   3.105  0.9346  0.4155 -0.2271
  368MOL0     C49577   3.643   2.493   3.071 -0.0761 -0.2751 -0.1090
  368MOL0     C49578   3.717   2.586   2.998  0.5214  0.7197  0.2810
  368MOL0     C49579   3.666   2.715   2.977  0.5375  0.2836  1.1235
  368MOL0     C49580   3.541   2.750   3.026  0.4001  0.1565 -0.3294
  368MOL0     O49581   3.492   2.877   3.022  0.5358  0.3538 -0.2082
  368MOL0     C49582   3.360   2.894   2.966 -0.5796  0.3424 -0.3283
  368MOL0     C49583   3.259   2.941   3.080 -0.0909 -0.6885 -1.0368
  368MOL0     C49584   3.326   2.976   3.210 -0.5898 -0.7583  0.2428
  368MOL0     C49585   3.228   3.058   3.296 -1.2637  1.4482  0.3511
  368MOL0     C49586   3.283   3.198   3.345  0.1965  0.3983  0.5183
  368MOL0     C49587   3.179   3.276   3.423  0.4676  0.4354  0.5775
  368MOL0     C49588   3.119   3.207   3.554 -0.4964 -1.1709  1.0200
  368MOL0     C49589   3.025   3.294   3.625  0.3438  1.0423 -0.1782
  368MOL0    Cl49590   2.959   3.202   3.773 -0.3813 -0.2090 -0.2392
  368MOL0     C49591   3.466   2.657   3.096  0.0370  0.3982  0.3111
  368MOL0     C49592   3.516   2.532   3.120 -0.4757  0.4386 -0.8198
  368MOL0     O49593   3.801   2.326   2.907  0.1347 -0.1851 -0.1499
  368MOL0     C49594   3.966   2.129   2.979  0.7095  0.6620  0.4346
  368MOL0     C49595   4.052   2.032   3.034 -0.2429 -0.1908 -0.0479
  368MOL0     N49596   4.150   1.392   3.497  0.2063  0.4963  0.1368
  368MOL0     N49597   4.138   1.278   3.555  0.2377  0.1270 -0.2601
  368MOL0     C49598   4.971   0.367   3.304 -0.3083 -0.0224  0.0239
  368MOL0     C49599   5.106   0.339   3.294 -0.6252 -1.0071 -1.4355
  368MOL0     C49600   5.553   0.369   3.350  0.4295 -0.4901  0.3701
  368MOL0     C49601   5.666   0.432   3.295  0.9233  0.7089  0.0156
  368MOL0     C49602   5.786   0.356   3.305  0.1753 -0.3358 -0.1576
  368MOL0     C49603   5.802   0.238   3.364 -0.3688  0.3911 -0.0140
  368MOL0     O49604   5.918   0.163   3.354 -0.5967  0.2333  0.1321
  368MOL0     C49605   5.977   0.122   3.476 -0.7734  1.4369 -0.0034
  368MOL0     C49606   6.002   0.242   3.579  0.1485 -0.7610 -0.4202
  368MOL0     C49607   6.068   0.377   3.535  0.4595 -0.7544  0.7189
  368MOL0     C49608   6.095   0.478   3.647  0.2034  0.6329 -0.3658
  368MOL0     C49609   6.128   0.603   3.593  1.2865 -1.1474  0.5078
  368MOL0     C49610   6.159   0.713   3.550 -0.6149 -0.6162  0.0572
  368MOL0     C49611   5.684   0.176   3.403 -0.6266 -0.1379 -0.0927
  368MOL0     C49612   5.567   0.239   3.404  0.4981 -0.4071  0.4196
  368MOL0     H49613   5.214   0.520   3.544 -0.4179  0.0494 -0.1151
  368MOL0     H49614   4.977   0.601   3.558  1.7148 -0.0849  2.0811
  368MOL0     H49615   4.746   0.499   3.192  1.6593  3.7030  1.8624
  368MOL0     H49616   4.651   0.375   3.288  2.1979 -0.1555  3.4419
  368MOL0     H49617   4.633   0.681   3.262 -0.3095  0.6891 -1.8399
  368MOL0     H49618   4.521   0.563   3.182 -1.4124  0.6700  1.2814
  368MOL0     H49619   4.459   0.466   3.422  2.0342 -1.2867  1.3378
  368MOL0     H49620   4.545   0.607   3.480  1.2515 -1.0467 -1.1891
  368MOL0     H49621   4.418   0.752   3.329 -0.2423 -1.7794 -4.3876
  368MOL0     H49622   4.306   0.620   3.296  0.5610  0.5418 -0.0804
  368MOL0     H49623   4.224   0.590   3.500  1.1530  0.3212  1.7352
  368MOL0     H49624   4.339   0.697   3.579 -0.3698 -0.2286  1.0111
  368MOL0     H49625   4.108   0.764   3.372 -0.3620  1.2124 -0.1774
  368MOL0     H49626   4.105   0.800   3.549  1.8638  1.4356  1.2628
  368MOL0     H49627   4.283   0.945   3.527 -1.0840  0.7976  0.1346
  368MOL0     H49628   4.247   0.971   3.356  0.8405  0.9013  0.5207
  368MOL0     H49629   4.084   1.031   3.598 -1.8034 -2.1091  0.0911
  368MOL0     H49630   4.008   1.035   3.427  0.8485  5.5327 -1.2683
  368MOL0     H49631   4.198   1.191   3.245  3.4881 -1.5438  1.3249
  368MOL0     H49632   4.342   1.495   3.301 -0.0169 -2.6579  1.1682
  368MOL0     H49633   4.225   1.435   3.181 -0.7785 -2.7203  1.1700
  368MOL0     H49634   4.052   1.587   3.261  0.6310 -2.2818 -0.9724
  368MOL0     H49635   4.176   1.648   3.168 -1.5320  0.7379 -0.4373
  368MOL0     H49636   4.298   1.727   3.382 -0.2644  0.3714  2.4008
  368MOL0     H49637   4.163   1.661   3.467 -3.6287 -0.9557 -1.5964
  368MOL0     H49638   4.203   1.931   3.400  0.9035 -2.4920  0.2277
  368MOL0     H49639   4.038   1.866   3.397 -0.3190  1.5212 -0.2025
  368MOL0     H49640   4.012   2.080   3.370  2.5402  1.1896  0.3590
  368MOL0     H49641   3.868   2.405   3.298 -0.1040  0.2602  0.0639
  368MOL0     H49642   3.743   2.293   3.326 -0.1866  0.0952 -0.7553
  368MOL0     H49643   3.887   2.270   3.422 -0.6712  4.8257  1.2065
  368MOL0     H49644   3.816   2.552   2.970 -0.9718 -0.5909 -4.1784
  368MOL0     H49645   3.727   2.790   2.926  1.4200 -2.2032 -1.7318
  368MOL0     H49646   3.361   2.978   2.896 -0.9049  0.0559 -0.6797
  368MOL0     H49647   3.326   2.802   2.917  0.1252  0.5021 -1.1423
  368MOL0     H49648   3.208   3.027   3.036  1.7766  1.0507  0.0171
  368MOL0     H49649   3.206   2.849   3.105  2.7031 -1.8747  1.1286
  368MOL0     H49650   3.421   3.028   3.197 -0.3606 -0.7211  1.9046
  368MOL0     H49651   3.355   2.884   3.261 -3.6929 -2.5000 -0.8438
  368MOL0     H49652   3.132   3.065   3.244 -0.9421  2.4628 -0.1259
  368MOL0     H49653   3.201   2.998   3.384  0.0284 -0.2842 -0.3795
  368MOL0     H49654   3.294   3.255   3.252 -2.6802 -1.1340 -0.9185
  368MOL0     H49655   3.380   3.185   3.392  2.3063 -2.4825 -3.8855
  368MOL0     H49656   3.228   3.367   3.458 -0.7808  0.9782  0.9652
  368MOL0     H49657   3.102   3.296   3.349  0.4903 -1.7961 -0.1159
  368MOL0     H49658   3.205   3.196   3.620 -0.9758 -1.1302  1.6680
  368MOL0     H49659   3.066   3.115   3.529 -2.6681 -0.1408  1.5546
  368MOL0     H49660   2.942   3.328   3.563  0.9655  0.1113 -1.5762
  368MOL0     H49661   3.085   3.377   3.664  3.7411 -1.3954  0.2599
  368MOL0     H49662   3.370   2.679   3.140 -1.2107 -1.0814 -1.5122
  368MOL0     H49663   3.471   2.461   3.188 -0.7606 -0.0768 -1.5386
  368MOL0     H49664   3.963   2.135   2.871  4.2330 -1.0092  0.0820
  368MOL0     H49665   4.116   1.963   2.980 -0.1237 -1.2643  1.4233
  368MOL0     H49666   4.901   0.321   3.235  0.6318 -2.8022  0.7581
  368MOL0     H49667   5.136   0.267   3.219 -1.4731 -2.5619 -0.3426
  368MOL0     H49668   5.667   0.532   3.251  0.9019  0.3437 -0.8328
  368MOL0     H49669   5.877   0.401   3.266 -0.7910 -0.9239 -3.3724
  368MOL0     H49670   5.923   0.045   3.533  0.9174 -0.3582 -0.7314
  368MOL0     H49671   6.079   0.086   3.460 -0.3839  3.0153 -1.3698
  368MOL0     H49672   6.054   0.202   3.666  1.3082  2.5038  0.5630
  368MOL0     H49673   5.905   0.265   3.624  1.8922  1.5423  2.5035
  368MOL0     H49674   5.983   0.434   3.495 -2.2771 -0.9188  5.5186
  368MOL0     H49675   6.154   0.368   3.468 -0.3715 -2.2846 -0.2046
  368MOL0     H49676   6.165   0.444   3.724 -3.2061 -4.6095  1.0058
  368MOL0     H49677   6.006   0.497   3.709  0.8816  0.6872  0.6111
  368MOL0     H49678   6.184   0.811   3.512 -2.5092 -0.0024  0.2989
  368MOL0     H49679   5.695   0.070   3.428  0.8798  0.0706  0.2123
  368MOL0     H49680   5.473   0.195   3.437  0.2548  0.6630  1.2065
  369MOL0     O49681  10.114   2.964  10.162  0.6719 -0.2580 -0.3863
  369MOL0     C49682  10.114   3.019  10.054 -0.3092  0.1038  1.4762
  369MOL0     O49683  10.004   3.040   9.977 -0.2331 -0.5491  0.2044
  369MOL0     C49684   9.896   2.966  10.009  1.5060 -0.5216 -0.8618
  369MOL0     C49685   9.842   2.872   9.923 -1.2406  1.0970  0.1210
  369MOL0     C49686   9.737   2.788   9.946  0.3155 -0.0779  0.1605
  369MOL0     C49687   9.648   2.832  10.048 -0.8035 -0.3172  0.1205
  369MOL0     O49688   9.525   2.772  10.079 -0.1969 -0.4929 -0.4657
  369MOL0     C49689   9.451   2.696   9.985  0.3724  0.0779  0.0131
  369MOL0     C49690   9.319   2.669  10.039 -0.0274 -0.3924 -0.0109
  369MOL0     C49691   9.230   2.790  10.024  0.2368 -0.8099  0.4957
  369MOL0     C49692   9.184   2.825   9.881  0.0220  0.3439  0.1437
  369MOL0     C49693   9.129   2.973   9.871  0.8667  0.0110  1.0878
  369MOL0     C49694   9.242   3.079   9.879  0.4605  0.2713 -0.2795
  369MOL0     C49695   9.347   3.058   9.769 -0.0803 -0.5371  0.2736
  369MOL0     C49696   9.458   3.154   9.760  0.0310 -0.0389 -0.1936
  369MOL0     N49697   9.563   3.114   9.660  0.8497 -0.3257 -0.3031
  369MOL0     C49698   9.692   3.094   9.700 -0.9335  0.6456 -0.0733
  369MOL0     C49699   9.757   3.069   9.589  0.3640 -0.2696 -0.0054
  369MOL0     C49700   9.912   3.035   9.599  0.3147 -0.1219 -0.7476
  369MOL0     C49701   9.980   3.058   9.460  0.3394  0.1976 -0.3781
  369MOL0     C49702  10.124   3.001   9.468 -0.0502  0.4569  0.8503
  369MOL0     C49703  10.147   2.851   9.467 -0.9572  0.4710 -1.3637
  369MOL0     O49704  10.247   2.812   9.564 -0.2480  0.3037  0.1777
  369MOL0     C49705  10.377   2.823   9.536  0.1191  0.0989 -0.0466
  369MOL0     C49706  10.442   2.878   9.428 -0.0358  0.8023  0.6373
  369MOL0     C49707  10.584   2.880   9.426 -0.8643 -0.3798  0.4102
  369MOL0     C49708  10.647   2.940   9.302 -1.0047  0.0816 -0.0046
  369MOL0     C49709  10.662   2.821   9.531  0.3694 -0.4090  0.1998
  369MOL0     C49710  10.808   2.808   9.527  0.9296 -1.0549  1.1427
  369MOL0     O49711  10.873   2.835   9.649  0.2063  0.8000 -0.0576
  369MOL0     C49712  11.010   2.811   9.656 -0.1737  0.4187 -0.0422
  369MOL0     C49713  11.050   2.682   9.658  0.4619  0.4620  0.8825
  369MOL0     C49714  11.184   2.643   9.648  0.4588  0.0735 -0.1440
  369MOL0     C49715  11.281   2.744   9.639 -1.5425 -0.0060 -0.6592
  369MOL0     O49716  11.425   2.722   9.633  0.1555  0.3786 -0.3823
  369MOL0     C49717  11.487   2.594   9.605 -0.4464  0.5842  1.6007
  369MOL0     C49718  11.518   2.510   9.726 -0.7126 -0.4084 -0.3066
  369MOL0     C49719  11.651   2.538   9.791 -0.5919  0.0984  0.2994
  369MOL0     C49720  11.661   2.684   9.836  0.2247  0.5159  0.4585
  369MOL0     C49721  11.786   2.721   9.919  1.2002  0.0386  0.4819
  369MOL0     C49722  11.801   2.651  10.058  0.0856  0.5752 -0.5680
  369MOL0     C49723  11.696   2.696  10.160 -0.5865  0.7985 -0.9079
  369MOL0     C49724  11.705   2.623  10.299  0.5433  0.1307 -0.0774
  369MOL0    Cl49725  11.860   2.646  10.386 -0.1977  0.2115  0.0788
  369MOL0     C49726  11.233   2.875   9.641 -0.3478  0.0418  0.2037
  369MOL0     C49727  11.106   2.913   9.648  0.0497 -0.1243 -0.1909
  369MOL0     O49728  10.873   2.777   9.431  0.7857 -0.0096  0.4529
  369MOL0     C49729  10.585   2.781   9.649  1.0081 -0.5311  0.4492
  369MOL0     C49730  10.451   2.785   9.649 -0.0804  0.7904  1.0130
  369MOL0     N49731   9.667   3.062   9.488  0.0590 -0.0468 -0.4719
  369MOL0     N49732   9.558   3.096   9.532  0.2789 -0.0714 -0.3599
  369MOL0     C49733   9.690   2.931  10.133 -0.3779 -0.0641  0.4642
  369MOL0     C49734   9.818   2.992  10.122 -0.2046 -0.1241 -0.2820
  369MOL0     C49735  10.241   3.051   9.991  0.0481  0.1380 -0.2292
  369MOL0     C49736  10.249   3.098   9.854 -0.6516  0.6898 -0.4240
  369MOL0     C49737  10.371   3.124   9.792  0.4721  0.4936  0.2956
  369MOL0     C49738  10.492   3.099   9.861  0.1787  0.2580  0.4243
  369MOL0     O49739  10.617   3.096   9.809 -0.5921 -1.3685  0.5993
  369MOL0     C49740  10.640   3.198   9.703  0.4221  1.0215 -0.0154
  369MOL0     C49741  10.794   3.174   9.670  1.0054  1.2953 -0.2393
  369MOL0     C49742  10.847   3.266   9.571  0.9333 -0.7664  0.3249
  369MOL0     C49743  10.873   3.401   9.650  0.1543 -0.7923 -0.4631
  369MOL0     C49744  10.918   3.499   9.552  0.2651  0.3433  0.3950
  369MOL0     C49745  10.946   3.584   9.475  0.1463  0.0839 -0.1252
  369MOL0     C49746  10.488   3.043   9.994  0.4951 -0.9475 -0.3910
  369MOL0     C49747  10.364   3.026  10.059  0.5941 -0.4097 -0.1882
  369MOL0     H49748   9.908   2.860   9.837  0.1265  1.2270  1.1121
  369MOL0     H49749   9.725   2.696   9.890  0.0812 -1.7290  2.8022
  369MOL0     H49750   9.450   2.739   9.884  1.3591  0.6492  0.2288
  369MOL0     H49751   9.500   2.599   9.978  0.4082  0.0721  0.3425
  369MOL0     H49752   9.274   2.588   9.982  1.3338 -1.4885  0.4140
  369MOL0     H49753   9.326   2.643  10.145  0.2770  0.6927  0.2538
  369MOL0     H49754   9.133   2.773  10.070 -1.0302  0.7067 -1.4617
  369MOL0     H49755   9.277   2.873  10.079  0.2524  0.4398 -1.2989
  369MOL0     H49756   9.259   2.795   9.807  1.2102  0.9709  1.0618
  369MOL0     H49757   9.102   2.756   9.858 -0.9289  2.2316 -2.7075
  369MOL0     H49758   9.073   2.990   9.779  0.3114  0.1028  1.4399
  369MOL0     H49759   9.069   3.011   9.955  1.1992 -0.5205  1.5794
  369MOL0     H49760   9.201   3.180   9.867  2.6387  1.3836  0.9164
  369MOL0     H49761   9.285   3.081   9.980 -1.4181 -2.2467  0.6575
  369MOL0     H49762   9.385   2.955   9.770 -3.1361 -1.8730 -2.3291
  369MOL0     H49763   9.299   3.069   9.671  0.3963  0.1618  0.1103
  369MOL0     H49764   9.500   3.174   9.858  0.6404  0.1682 -0.4898
  369MOL0     H49765   9.419   3.253   9.734 -0.0919 -0.0521 -0.0572
  369MOL0     H49766   9.741   3.110   9.796  2.1424  0.2777 -1.4664
  369MOL0     H49767   9.955   3.091   9.682 -1.4608 -1.7747  1.4308
  369MOL0     H49768   9.933   2.933   9.634 -0.0562  0.4356  1.2413
  369MOL0     H49769   9.992   3.163   9.433 -1.1403 -0.0243 -2.1823
  369MOL0     H49770   9.913   3.017   9.383  0.3375 -2.5695  0.9818
  369MOL0     H49771  10.177   3.046   9.553  0.4242  1.1522  0.2029
  369MOL0     H49772  10.179   3.045   9.384 -0.9068 -0.2572 -0.1026
  369MOL0     H49773  10.179   2.814   9.370 -0.3581 -1.7827 -0.3805
  369MOL0     H49774  10.054   2.797   9.490 -0.9717  0.1882 -2.0708
  369MOL0     H49775  10.390   2.937   9.353  1.0720  0.9286 -0.0645
  369MOL0     H49776  10.722   3.011   9.338 -1.1373  0.6667 -0.8484
  369MOL0     H49777  10.698   2.867   9.238  3.4664  1.2978  1.7675
  369MOL0     H49778  10.565   2.997   9.258 -2.0015 -1.2170  0.1115
  369MOL0     H49779  10.978   2.600   9.664 -1.5600  2.1833  1.1001
  369MOL0     H49780  11.204   2.536   9.646 -0.5811 -0.1231 -0.7311
  369MOL0     H49781  11.424   2.529   9.544 -3.2899 -0.0108  4.8550
  369MOL0     H49782  11.580   2.615   9.551 -1.3027  1.1548  0.3019
  369MOL0     H49783  11.446   2.533   9.805  0.5586 -1.5581  1.2501
  369MOL0     H49784  11.511   2.403   9.703  3.4112 -0.8643 -0.2171
  369MOL0     H49785  11.723   2.503   9.716 -0.4877 -0.6927  0.7599
  369MOL0     H49786  11.663   2.466   9.872  1.1889  0.0499  0.0458
  369MOL0     H49787  11.657   2.748   9.747  4.4332 -0.5340 -0.6992
  369MOL0     H49788  11.586   2.704   9.912  1.4260 -1.0728  2.1509
  369MOL0     H49789  11.784   2.827   9.942 -3.2699  0.2693 -0.0900
  369MOL0     H49790  11.875   2.700   9.859  0.1221  2.1686 -2.0837
  369MOL0     H49791  11.798   2.542  10.048 -1.0640  0.5900 -0.4783
  369MOL0     H49792  11.903   2.652  10.098  0.1027 -1.0338 -0.5289
  369MOL0     H49793  11.594   2.678  10.124 -0.2700  2.4147 -2.7869
  369MOL0     H49794  11.710   2.804  10.166  1.8227  0.6414 -2.2961
  369MOL0     H49795  11.672   2.519  10.288 -4.2516  1.4256 -0.1849
  369MOL0     H49796  11.626   2.675  10.354  0.1930  1.6825 -1.9671
  369MOL0     H49797  11.289   2.962   9.609 -2.2826  1.6755  1.0724
  369MOL0     H49798  11.076   3.017   9.634  0.2312 -0.3118 -2.3545
  369MOL0     H49799  10.632   2.740   9.738  1.0461 -0.6441  0.3760
  369MOL0     H49800  10.405   2.761   9.744  0.3564  3.0465  1.8655
  369MOL0     H49801   9.624   2.953  10.216  1.9830 -2.3371  3.1159
  369MOL0     H49802   9.846   3.077  10.184 -0.9780  0.3040 -0.5108
  369MOL0     H49803  10.161   3.138   9.804  0.1217 -1.3018 -3.6870
  369MOL0     H49804  10.368   3.145   9.685 -0.1831 -1.7544 -0.1882
  369MOL0     H49805  10.572   3.175   9.621  0.5639  1.6355 -0.3083
  369MOL0     H49806  10.605   3.298   9.728  0.7032  1.4893 -1.4466
  369MOL0     H49807  10.787   3.078   9.618 -3.9760  1.6609 -0.6840
  369MOL0     H49808  10.850   3.173   9.764  1.6588 -1.6737 -0.5511
  369MOL0     H49809  10.772   3.271   9.491  1.0611 -2.1094  0.1113
  369MOL0     H49810  10.939   3.239   9.519  2.2631 -0.2598  2.3249
  369MOL0     H49811  10.944   3.401   9.733 -0.5458  3.2463  0.3443
  369MOL0     H49812  10.781   3.437   9.697  0.6258 -0.9747  0.6333
  369MOL0     H49813  10.961   3.663   9.404  0.4444 -1.0910 -1.4102
  369MOL0     H49814  10.581   3.016  10.042 -0.3552  0.0007  1.9430
  369MOL0     H49815  10.364   2.977  10.156  0.9898 -2.0133 -0.9636
  370MOL0     O49816  11.253   5.319   2.320  0.2963  0.5782  0.2830
  370MOL0     C49817  11.294   5.273   2.422 -0.6039  0.0709  0.5672
  370MOL0     O49818  11.251   5.309   2.546  0.3238 -0.4563 -0.2220
  370MOL0     C49819  11.189   5.432   2.563  0.1100 -1.3957 -0.0996
  370MOL0     C49820  11.258   5.553   2.534 -0.5859 -0.3822 -0.8773
  370MOL0     C49821  11.201   5.672   2.559 -0.7459  0.2335 -0.2563
  370MOL0     C49822  11.067   5.678   2.614  0.0394  0.6859  0.8374
  370MOL0     O49823  11.000   5.801   2.619 -0.4123 -0.5198 -0.1699
  370MOL0     C49824  11.071   5.901   2.699  0.4731  1.8207 -0.5681
  370MOL0     C49825  10.972   5.987   2.773 -0.2542 -0.3281 -0.6964
  370MOL0     C49826  11.036   6.120   2.825  0.4605  1.3386  0.7023
  370MOL0     C49827  10.935   6.203   2.900 -0.1479 -1.1492 -0.5628
  370MOL0     C49828  10.991   6.340   2.929  0.5697  0.4533 -0.3547
  370MOL0     C49829  10.876   6.439   2.930 -0.5690 -0.3326  0.3813
  370MOL0     C49830  10.930   6.579   2.951  2.1711  0.2691  0.2371
  370MOL0     C49831  10.845   6.681   2.868  0.0704 -0.0386  0.4456
  370MOL0     N49832  10.880   6.821   2.915  0.4904 -0.7465  1.2316
  370MOL0     C49833  10.940   6.922   2.843 -0.4293 -0.6523  0.7578
  370MOL0     C49834  10.971   7.012   2.933  0.3807  0.4318  0.4152
  370MOL0     C49835  11.065   7.129   2.908  0.5405  0.5194  0.3673
  370MOL0     C49836  11.131   7.180   3.040  0.3313 -0.2535 -0.1750
  370MOL0     C49837  11.027   7.263   3.118 -0.3011  0.7540  0.5718
  370MOL0     C49838  11.058   7.297   3.260  0.5959  0.4838 -0.6846
  370MOL0     O49839  11.185   7.349   3.285  0.0321  0.5316  0.2760
  370MOL0     C49840  11.197   7.486   3.267  0.0812 -1.1442 -0.0253
  370MOL0     C49841  11.326   7.536   3.284 -0.7659 -0.3372 -0.5079
  370MOL0     C49842  11.354   7.677   3.264 -0.2523 -0.5550  0.1054
  370MOL0     C49843  11.491   7.732   3.271 -0.7769  0.1872 -0.0005
  370MOL0     C49844  11.253   7.763   3.228 -0.1792  0.0795  0.0047
  370MOL0     C49845  11.262   7.911   3.228  0.2923  0.2730 -0.0786
  370MOL0     O49846  11.173   7.982   3.307 -0.5982 -0.9195  0.5395
  370MOL0     C49847  11.207   8.108   3.343  0.1813  1.4235 -0.3373
  370MOL0     C49848  11.100   8.190   3.366 -0.0143 -0.3974  0.3288
  370MOL0     C49849  11.120   8.324   3.393  0.1364  0.2357  0.3396
  370MOL0     C49850  11.244   8.385   3.410  0.0469 -0.3767  0.3808
  370MOL0     O49851  11.251   8.514   3.466 -0.4792  0.9261 -0.7033
  370MOL0     C49852  11.343   8.593   3.391 -0.0280  0.4057 -0.2875
  370MOL0     C49853  11.387   8.691   3.511 -0.7931  0.8823 -0.2079
  370MOL0     C49854  11.465   8.803   3.448 -0.6960 -0.6810  0.7137
  370MOL0     C49855  11.513   8.915   3.539  0.6361  0.5947 -0.4332
  370MOL0     C49856  11.419   9.041   3.538 -0.2214 -1.4339 -1.4794
  370MOL0     C49857  11.486   9.168   3.602  0.7457  0.4443 -0.5979
  370MOL0     C49858  11.394   9.217   3.725  0.5112  0.2495  0.1089
  370MOL0     C49859  11.460   9.334   3.799 -0.1009 -0.4088  0.7827
  370MOL0    Cl49860  11.624   9.298   3.852 -0.4241  0.2430 -0.3357
  370MOL0     C49861  11.354   8.297   3.387  0.7030 -0.2184  0.2547
  370MOL0     C49862  11.335   8.164   3.362 -0.4967  0.5858 -0.3829
  370MOL0     O49863  11.338   7.961   3.146 -0.1480  0.4172 -0.3771
  370MOL0     C49864  11.124   7.712   3.211 -0.8875  0.8310  0.3199
  370MOL0     C49865  11.099   7.576   3.219 -0.3800 -0.1004 -0.4393
  370MOL0     N49866  10.930   6.962   3.058  0.2655 -0.0219 -0.0497
  370MOL0     N49867  10.869   6.853   3.043 -0.9806 -1.3322  0.1208
  370MOL0     C49868  10.993   5.561   2.633 -0.0810  0.1778  1.0686
  370MOL0     C49869  11.058   5.435   2.601  0.5285 -0.2936  0.5576
  370MOL0     C49870  11.399   5.163   2.410 -0.0010 -0.3516  0.0035
  370MOL0     C49871  11.437   5.080   2.513  0.4696  0.2141  0.0243
  370MOL0     C49872  11.531   4.980   2.499  0.0573 -0.2314  0.1938
  370MOL0     C49873  11.592   4.969   2.372  0.6960  0.5132 -1.2458
  370MOL0     O49874  11.674   4.865   2.337  0.7428 -0.0739 -0.6689
  370MOL0     C49875  11.771   4.825   2.435  0.0922  0.3240 -0.0740
  370MOL0     C49876  11.886   4.738   2.390 -0.0655 -0.2793 -0.4125
  370MOL0     C49877  11.961   4.793   2.278 -0.2355 -0.2760 -0.6805
  370MOL0     C49878  12.074   4.691   2.233 -0.3367  0.1020  0.4612
  370MOL0     C49879  12.167   4.753   2.136  0.2521 -0.7164  1.0582
  370MOL0     C49880  12.255   4.803   2.063  0.6988  0.1586 -0.1893
  370MOL0     C49881  11.549   5.047   2.270 -0.6197  0.7774  0.2560
  370MOL0     C49882  11.451   5.141   2.282 -0.2630  0.0180  0.7071
  370MOL0     H49883  11.354   5.539   2.485 -0.1424  4.1688 -1.7379
  370MOL0     H49884  11.267   5.754   2.532 -2.9994  1.4683 -2.5628
  370MOL0     H49885  11.125   5.855   2.781 -2.1473 -1.4914 -0.4872
  370MOL0     H49886  11.137   5.965   2.639  1.5687  1.3485  0.1247
  370MOL0     H49887  10.892   6.022   2.708  1.9429  1.2916 -2.7189
  370MOL0     H49888  10.937   5.927   2.858 -0.3162 -1.9790 -1.8314
  370MOL0     H49889  11.126   6.106   2.886 -0.5829  0.2814  2.0726
  370MOL0     H49890  11.065   6.180   2.738  1.9207  0.5572  0.6239
  370MOL0     H49891  10.837   6.210   2.853 -1.4829 -0.4434  2.1026
  370MOL0     H49892  10.921   6.145   2.992  0.5588  0.9182  0.9342
  370MOL0     H49893  11.047   6.333   3.023 -1.3046 -1.0434  0.7356
  370MOL0     H49894  11.062   6.377   2.854  0.0212  1.9661 -0.1438
  370MOL0     H49895  10.829   6.428   2.832  2.2359 -2.1149 -0.9233
  370MOL0     H49896  10.801   6.422   3.007 -1.5776  1.1094 -0.2472
  370MOL0     H49897  10.934   6.600   3.058 -2.2698  1.7279  0.3056
  370MOL0     H49898  11.025   6.586   2.897  0.8135  1.0003 -2.2160
  370MOL0     H49899  10.741   6.647   2.873  1.0721 -3.4149  0.5167
  370MOL0     H49900  10.873   6.671   2.762  2.4685  0.5421  0.9566
  370MOL0     H49901  10.969   6.925   2.739  1.1142  2.8573  1.1617
  370MOL0     H49902  11.143   7.098   2.837  0.8489  2.3263 -0.1348
  370MOL0     H49903  11.004   7.203   2.855 -1.1134  0.2504  1.8245
  370MOL0     H49904  11.213   7.243   3.007  0.3906  1.1903  2.4421
  370MOL0     H49905  11.178   7.102   3.101 -2.2461 -2.0617 -0.3419
  370MOL0     H49906  10.931   7.215   3.095  0.3751 -0.7270  0.7231
  370MOL0     H49907  11.028   7.359   3.066  0.9183  0.6757  0.4146
  370MOL0     H49908  11.055   7.199   3.309 -0.6710 -0.1711 -1.9729
  370MOL0     H49909  10.977   7.360   3.297 -0.0192 -0.8372  0.3168
  370MOL0     H49910  11.405   7.474   3.326  1.1759  2.7227  0.6962
  370MOL0     H49911  11.560   7.649   3.288 -0.8843 -0.0050 -0.5030
  370MOL0     H49912  11.519   7.781   3.177 -2.2462 -0.8530 -1.0287
  370MOL0     H49913  11.499   7.805   3.352  0.5281 -1.6163  1.5861
  370MOL0     H49914  11.002   8.145   3.355  0.0205 -0.0213 -2.0941
  370MOL0     H49915  11.037   8.393   3.403  1.6719  1.8686  3.4106
  370MOL0     H49916  11.419   8.541   3.333 -3.1737 -3.7460 -1.1082
  370MOL0     H49917  11.283   8.643   3.314 -0.4350  1.4006  0.6467
  370MOL0     H49918  11.306   8.731   3.572 -2.5058 -1.3177 -0.9051
  370MOL0     H49919  11.456   8.625   3.564 -1.2819 -0.6692 -1.4209
  370MOL0     H49920  11.401   8.839   3.367 -2.0681  1.2340  2.5554
  370MOL0     H49921  11.554   8.762   3.401 -1.0302 -0.3016 -0.2835
  370MOL0     H49922  11.517   8.875   3.641  0.3438 -3.5416 -1.8628
  370MOL0     H49923  11.616   8.944   3.516  1.5978 -1.1868  1.3168
  370MOL0     H49924  11.319   9.021   3.579 -0.3188 -0.6427 -1.3283
  370MOL0     H49925  11.404   9.078   3.436  0.4648  1.2081 -0.6950
  370MOL0     H49926  11.576   9.126   3.647 -1.4862 -2.2200  1.7597
  370MOL0     H49927  11.510   9.239   3.523  0.1471  0.0430 -1.1505
  370MOL0     H49928  11.386   9.137   3.800  0.3426  1.4606  1.4107
  370MOL0     H49929  11.297   9.248   3.686 -0.4045 -1.0810  1.2115
  370MOL0     H49930  11.409   9.365   3.891  0.5327  0.3772  0.8732
  370MOL0     H49931  11.459   9.424   3.738 -3.6211 -1.3924 -0.8828
  370MOL0     H49932  11.454   8.337   3.392  1.6425 -2.3432 -0.4411
  370MOL0     H49933  11.416   8.095   3.341  0.0529  1.0348  0.2204
  370MOL0     H49934  11.047   7.785   3.187 -0.7057  0.7140 -0.6728
  370MOL0     H49935  10.997   7.541   3.224  0.5534 -2.8591  1.3926
  370MOL0     H49936  10.889   5.553   2.661 -0.7766 -2.8517 -1.7062
  370MOL0     H49937  11.006   5.340   2.603 -0.9198  0.4306 -0.7774
  370MOL0     H49938  11.397   5.088   2.613  3.0123  0.1926  1.1084
  370MOL0     H49939  11.560   4.914   2.580 -1.2188 -0.6200  0.3537
  370MOL0     H49940  11.819   4.909   2.485  2.1608  0.9076 -2.8189
  370MOL0     H49941  11.720   4.768   2.514  0.9990 -0.4291 -0.0067
  370MOL0     H49942  11.848   4.640   2.360 -2.3089  0.3650  0.1436
  370MOL0     H49943  11.956   4.719   2.472 -2.3045 -1.6722  1.2916
  370MOL0     H49944  12.010   4.884   2.313 -0.6445 -0.9779  1.9614
  370MOL0     H49945  11.887   4.807   2.199 -0.9288 -1.0820 -0.2007
  370MOL0     H49946  12.026   4.604   2.189  0.3285 -0.0269 -0.0260
  370MOL0     H49947  12.135   4.654   2.316 -2.5662 -0.9721  1.6883
  370MOL0     H49948  12.327   4.844   1.996 -0.5879 -0.3133 -1.9425
  370MOL0     H49949  11.591   5.021   2.173  1.9835  1.1665  1.1912
  370MOL0     H49950  11.414   5.195   2.196  2.6200 -1.0655 -1.3895
  371MOL0     O49951   5.592  10.923   0.797  0.3750 -0.2480 -0.3116
  371MOL0     C49952   5.554  10.855   0.895  0.3337  0.0249 -1.1812
  371MOL0     O49953   5.587  10.884   1.026 -0.1161  0.3992  0.6290
  371MOL0     C49954   5.709  10.950   1.037  0.5053  0.9654  1.1678
  371MOL0     C49955   5.820  10.879   1.057 -0.0917  0.3017 -0.7698
  371MOL0     C49956   5.952  10.936   1.054  0.7435 -0.7870  0.2526
  371MOL0     C49957   5.958  11.076   1.058 -0.4192 -0.2332 -0.1227
  371MOL0     O49958   6.085  11.131   1.069 -0.8758 -0.8174 -0.7789
  371MOL0     C49959   6.092  11.264   1.113 -0.8396  0.4010 -1.1594
  371MOL0     C49960   6.244  11.282   1.114  0.1722 -0.2668 -0.3961
  371MOL0     C49961   6.300  11.263   0.971 -0.0803  0.5730 -0.7468
  371MOL0     C49962   6.445  11.305   0.966  0.6746  0.5590  0.5900
  371MOL0     C49963   6.546  11.194   0.995 -0.0210  0.2556 -0.0615
  371MOL0     C49964   6.693  11.217   0.959  0.1984 -1.1161  0.0710
  371MOL0     C49965   6.751  11.093   0.906  0.2400  0.1374 -0.0355
  371MOL0     C49966   6.880  11.136   0.819 -0.6766 -0.3103 -0.4245
  371MOL0     N49967   6.927  11.016   0.740 -0.2896 -0.0022  0.2943
  371MOL0     C49968   6.941  10.891   0.796 -0.2554 -0.2972 -0.3884
  371MOL0     C49969   6.988  10.821   0.694  0.0294  0.9450 -0.3076
  371MOL0     C49970   7.019  10.673   0.686  0.7940 -0.3873 -0.7054
  371MOL0     C49971   7.154  10.661   0.766  1.0527  0.5502  0.1354
  371MOL0     C49972   7.204  10.516   0.754 -0.6232 -0.1213  0.2382
  371MOL0     C49973   7.325  10.469   0.839 -1.2866  0.0293 -0.2282
  371MOL0     O49974   7.423  10.572   0.826 -0.3922 -1.2279  0.1329
  371MOL0     C49975   7.547  10.567   0.886 -0.0173 -1.0566  0.8655
  371MOL0     C49976   7.640  10.676   0.886  0.1551  0.1762 -0.4936
  371MOL0     C49977   7.761  10.670   0.958  0.3404  0.7683  0.6705
  371MOL0     C49978   7.862  10.782   0.954 -0.9309  0.1674 -0.1586
  371MOL0     C49979   7.796  10.543   1.012 -0.6849 -0.6151  0.2561
  371MOL0     C49980   7.945  10.504   1.051 -0.3387 -0.9611  0.5262
  371MOL0     O49981   7.959  10.398   1.134  0.8301 -0.2059  0.2718
  371MOL0     C49982   8.083  10.390   1.181 -0.7964  0.4363 -0.2804
  371MOL0     C49983   8.170  10.296   1.123  0.1193 -0.2319 -0.0851
  371MOL0     C49984   8.302  10.288   1.166 -0.4007 -0.5038 -0.2063
  371MOL0     C49985   8.349  10.365   1.275  0.1013 -0.0748 -0.3600
  371MOL0     O49986   8.481  10.361   1.316 -0.3217  0.3512  0.0213
  371MOL0     C49987   8.516  10.270   1.422 -0.0677  0.2240  0.4047
  371MOL0     C49988   8.667  10.244   1.427  0.5335 -0.0885 -0.0652
  371MOL0     C49989   8.707  10.157   1.545  0.5345 -1.2117 -0.3274
  371MOL0     C49990   8.783  10.233   1.655  0.4103  0.1432 -0.2562
  371MOL0     C49991   8.851  10.143   1.758  0.0472 -0.2779  0.0094
  371MOL0     C49992   8.978  10.069   1.719  0.5633 -1.0427 -0.1928
  371MOL0     C49993   9.004   9.968   1.827 -0.9954  0.6061  0.0742
  371MOL0     C49994   9.133   9.895   1.791 -0.6053  0.1471  0.9191
  371MOL0    Cl49995   9.097   9.757   1.688 -0.0038 -0.1761 -0.2220
  371MOL0     C49996   8.260  10.446   1.338  0.3705  0.1237 -0.4659
  371MOL0     C49997   8.131  10.462   1.297 -0.0573  0.3962  0.7775
  371MOL0     O49998   8.038  10.556   0.990 -0.1600 -0.1010 -0.0306
  371MOL0     C49999   7.699  10.444   1.020  0.1479  0.2851  0.1370
  371MOL0     C50000   7.577  10.459   0.967  0.1215 -0.0227  0.5852
  371MOL0     N50001   6.976  10.891   0.577 -0.2836 -1.0546 -0.8151
  371MOL0     N50002   6.937  11.012   0.604 -0.0010 -1.0372  0.4410
  371MOL0     C50003   5.837  11.153   1.046 -0.3990  0.8088  0.3798
  371MOL0     C50004   5.715  11.090   1.033  0.6560 -0.4312 -0.0300
  371MOL0     C50005   5.453  10.743   0.868  0.1253 -0.0400  0.6375
  371MOL0     C50006   5.399  10.667   0.971  0.5639  0.2272  0.3220
  371MOL0     C50007   5.301  10.578   0.939 -0.1419 -0.7017  0.5700
  371MOL0     C50008   5.267  10.545   0.812  0.1674  1.2148  0.8486
  371MOL0     O50009   5.186  10.441   0.791  0.8325  0.6165 -0.8547
  371MOL0     C50010   5.073  10.471   0.708  0.1229  0.3168 -0.1542
  371MOL0     C50011   5.077  10.408   0.571  0.9668  0.0776 -0.1781
  371MOL0     C50012   5.072  10.248   0.575 -0.0412 -0.1680 -0.9842
  371MOL0     C50013   5.014  10.188   0.452 -0.0242  0.3114  0.5245
  371MOL0     C50014   5.004  10.040   0.450  0.2081 -0.5972 -0.7794
  371MOL0     C50015   5.012   9.919   0.431 -0.5944  0.5059  0.3525
  371MOL0     C50016   5.316  10.621   0.708 -0.9597  0.3693  0.2246
  371MOL0     C50017   5.414  10.724   0.736  0.5430  0.0963 -0.2055
  371MOL0     H50018   5.812  10.772   1.071 -0.3533  0.5221  1.0412
  371MOL0     H50019   6.040  10.873   1.062  1.0062 -0.9845 -2.8459
  371MOL0     H50020   6.054  11.336   1.040  0.6112  1.0350 -1.3295
  371MOL0     H50021   6.045  11.274   1.212 -0.7542  0.4358 -1.1223
  371MOL0     H50022   6.265  11.381   1.155 -2.4906  0.4709 -0.6213
  371MOL0     H50023   6.295  11.216   1.184  0.3036  0.7784  0.5195
  371MOL0     H50024   6.296  11.162   0.930  0.0972  0.1719  0.2039
  371MOL0     H50025   6.241  11.318   0.897  2.5374  3.7424 -0.6987
  371MOL0     H50026   6.468  11.351   0.869 -2.9190  4.1060  1.1062
  371MOL0     H50027   6.460  11.385   1.039  1.4535  1.1468 -0.1952
  371MOL0     H50028   6.549  11.161   1.100  0.8458 -0.6035 -0.3369
  371MOL0     H50029   6.501  11.109   0.942 -0.9524  0.5857  0.1839
  371MOL0     H50030   6.691  11.294   0.882 -1.9243 -1.3532 -0.1774
  371MOL0     H50031   6.744  11.249   1.050  0.9712  2.4753 -1.4703
  371MOL0     H50032   6.798  11.032   0.984 -0.1933  2.3067  2.0364
  371MOL0     H50033   6.678  11.041   0.843 -0.1752  2.8195 -1.9058
  371MOL0     H50034   6.960  11.177   0.882  0.7122  2.5514 -3.7329
  371MOL0     H50035   6.850  11.218   0.753 -2.8110 -0.0597  0.7448
  371MOL0     H50036   6.922  10.861   0.898 -0.4988 -0.0363 -0.3545
  371MOL0     H50037   6.941  10.613   0.734  1.0697 -0.8491 -0.8351
  371MOL0     H50038   7.025  10.640   0.582 -0.6643  1.1499 -1.3365
  371MOL0     H50039   7.139  10.674   0.874 -3.0300  0.1573 -0.2296
  371MOL0     H50040   7.224  10.736   0.727  0.4659 -0.1098 -2.3619
  371MOL0     H50041   7.211  10.486   0.649  3.2486 -0.8279  0.5369
  371MOL0     H50042   7.130  10.446   0.791 -2.6379  0.7817 -1.8219
  371MOL0     H50043   7.367  10.375   0.804 -2.1284  0.3493 -2.2688
  371MOL0     H50044   7.301  10.459   0.945  0.0461 -1.5176 -0.0401
  371MOL0     H50045   7.612  10.761   0.825  0.7089  0.7315  0.0048
  371MOL0     H50046   7.923  10.774   0.863 -3.0151  1.3906 -1.7555
  371MOL0     H50047   7.813  10.880   0.960  1.3422  1.2879  3.7283
  371MOL0     H50048   7.925  10.773   1.043 -0.8712  2.2824  0.0814
  371MOL0     H50049   8.121  10.252   1.037 -1.3035  2.8922 -1.0492
  371MOL0     H50050   8.374  10.220   1.121  1.5653 -0.3294  2.4631
  371MOL0     H50051   8.484  10.320   1.514  1.1770  0.4431  0.7361
  371MOL0     H50052   8.462  10.175   1.414 -0.3342  0.4215 -0.1822
  371MOL0     H50053   8.701  10.193   1.336  1.0461  0.5627 -0.2391
  371MOL0     H50054   8.722  10.338   1.433 -0.6419  0.5918  0.5086
  371MOL0     H50055   8.786  10.091   1.506  2.1522  0.2559  0.3240
  371MOL0     H50056   8.622  10.103   1.585 -0.2269  1.2297  1.5845
  371MOL0     H50057   8.855  10.310   1.628 -0.9257  1.2104 -0.9210
  371MOL0     H50058   8.712  10.297   1.707  0.7351  2.0074 -1.9912
  371MOL0     H50059   8.771  10.078   1.796 -2.5937  2.2941 -0.7621
  371MOL0     H50060   8.890  10.208   1.837 -1.8040  0.1823  0.6005
  371MOL0     H50061   8.984  10.007   1.629 -1.9402 -2.2786  0.4028
  371MOL0     H50062   9.047  10.153   1.707  2.2233 -2.4305 -0.9770
  371MOL0     H50063   8.917   9.901   1.831  1.2875 -2.4964  1.4721
  371MOL0     H50064   9.028  10.018   1.921  1.1596  2.4733 -1.3675
  371MOL0     H50065   9.168   9.860   1.889  1.0397  2.4992  1.2427
  371MOL0     H50066   9.201   9.963   1.739 -0.4299 -2.6258 -2.9308
  371MOL0     H50067   8.289  10.476   1.438  2.7308 -3.3503  0.0869
  371MOL0     H50068   8.066  10.530   1.351  0.9953  2.1210 -0.0417
  371MOL0     H50069   7.716  10.352   1.075  1.0470  1.3987  1.7952
  371MOL0     H50070   7.504  10.382   0.989 -2.2644  1.8076 -0.3911
  371MOL0     H50071   5.836  11.261   1.053  1.5200  0.8241  0.8274
  371MOL0     H50072   5.621  11.142   1.022 -0.1763 -1.6558  1.0216
  371MOL0     H50073   5.446  10.667   1.069  0.4409  0.7796  0.3818
  371MOL0     H50074   5.263  10.525   1.025  0.6790 -0.7704  0.9000
  371MOL0     H50075   4.984  10.431   0.758  0.0547  0.8083  0.1151
  371MOL0     H50076   5.051  10.578   0.707  2.4773  1.1137  4.7045
  371MOL0     H50077   5.167  10.438   0.516  0.0264 -2.9676 -3.8026
  371MOL0     H50078   4.986  10.435   0.516  0.7926  0.2700  0.2002
  371MOL0     H50079   5.006  10.213   0.655  0.3844  1.0048 -0.0956
  371MOL0     H50080   5.174  10.215   0.595  0.7961  2.2800 -0.9283
  371MOL0     H50081   5.054  10.233   0.361 -0.3960  0.8578  0.6289
  371MOL0     H50082   4.908  10.215   0.454  0.1340  1.1133 -0.7659
  371MOL0     H50083   5.021   9.813   0.417 -1.4272  0.4106  0.4725
  371MOL0     H50084   5.290  10.608   0.603  2.3210  0.0508 -0.6471
  371MOL0     H50085   5.447  10.782   0.650  1.2711  1.9390  1.2469
  372MOL0     O50086   4.654   4.326  10.815  0.1095 -0.3604  0.2059
  372MOL0     C50087   4.586   4.429  10.808 -0.4678 -0.4764 -1.0454
  372MOL0     O50088   4.457   4.430  10.827  0.0057 -0.7055  0.1073
  372MOL0     C50089   4.396   4.312  10.855  0.6525  0.7434 -0.5572
  372MOL0     C50090   4.339   4.292  10.984 -0.2711 -0.4672  0.9612
  372MOL0     C50091   4.293   4.159  11.011 -0.4651  0.0092 -0.0105
  372MOL0     C50092   4.299   4.057  10.919 -0.2333 -0.8026  0.0667
  372MOL0     O50093   4.244   3.930  10.949 -0.0082 -0.4716  0.4151
  372MOL0     C50094   4.242   3.902  11.088 -0.7251  1.2573 -0.6379
  372MOL0     C50095   4.256   3.753  11.101  1.0354 -0.2145 -0.1056
  372MOL0     C50096   4.260   3.723  11.254 -0.3535 -0.3061 -0.2891
  372MOL0     C50097   4.129   3.695  11.320 -0.3515  0.0610  0.4070
  372MOL0     C50098   4.119   3.557  11.388 -0.1338 -0.4623 -1.4032
  372MOL0     C50099   4.181   3.556  11.534  0.3013  0.1132 -0.3824
  372MOL0     C50100   4.131   3.440  11.605 -0.6772  0.7577 -0.2955
  372MOL0     C50101   4.157   3.462  11.756  0.0439  0.4936  0.4524
  372MOL0     N50102   4.079   3.581  11.799 -0.4330 -0.3866 -0.6984
  372MOL0     C50103   3.951   3.574  11.828 -0.5570  0.0717  0.1851
  372MOL0     C50104   3.928   3.669  11.916 -0.4324 -0.9985 -0.3909
  372MOL0     C50105   3.808   3.687  12.007 -0.0133 -0.2786  0.1780
  372MOL0     C50106   3.757   3.571  12.094 -0.0358 -0.5269 -0.0282
  372MOL0     C50107   3.857   3.572  12.205  0.2599  0.5162  0.7154
  372MOL0     C50108   3.866   3.446  12.296  0.3346 -0.3495  0.4400
  372MOL0     O50109   3.981   3.446  12.385 -0.8921 -0.3569  0.2450
  372MOL0     C50110   3.972   3.539  12.488 -0.6332 -0.0739  1.0116
  372MOL0     C50111   4.043   3.662  12.479 -0.0441 -0.6295  0.1684
  372MOL0     C50112   4.027   3.750  12.583  0.1280  0.1222 -0.5872
  372MOL0     C50113   4.121   3.867  12.584  0.0858  1.3877  0.8984
  372MOL0     C50114   3.948   3.716  12.700 -0.0384  0.5879  0.8696
  372MOL0     C50115   3.938   3.792  12.826  0.3182 -1.4660 -0.6936
  372MOL0     O50116   3.987   3.924  12.830  0.3615 -0.0749  0.4927
  372MOL0     C50117   4.021   3.988  12.946 -0.6267  0.1439 -0.5865
  372MOL0     C50118   3.954   4.100  12.989  0.1617  0.4877  0.1456
  372MOL0     C50119   3.990   4.159  13.105  0.1190 -0.1773 -0.5131
  372MOL0     C50120   4.096   4.112  13.191 -0.5746 -0.3933  0.4635
  372MOL0     O50121   4.137   4.155  13.305  0.2142 -1.3516 -0.3679
  372MOL0     C50122   4.088   4.276  13.360 -0.3722 -0.9519  0.6159
  372MOL0     C50123   4.125   4.285  13.505 -0.3399  0.1251  0.3967
  372MOL0     C50124   4.049   4.197  13.604 -0.9376 -0.2282  0.3021
  372MOL0     C50125   4.118   4.215  13.738 -0.6033 -0.5138  0.3825
  372MOL0     C50126   4.142   4.076  13.800  0.5280 -0.3132  0.1786
  372MOL0     C50127   4.208   4.075  13.938 -0.2658 -0.6682  0.0020
  372MOL0     C50128   4.159   3.958  14.028 -0.1685 -0.4000  0.2107
  372MOL0     C50129   4.234   3.945  14.161 -0.1457 -0.7904 -0.1399
  372MOL0    Cl50130   4.405   3.920  14.132 -0.1536 -0.2653 -0.4916
  372MOL0     C50131   4.155   4.001  13.154  0.0928 -0.3186  0.6992
  372MOL0     C50132   4.125   3.941  13.026  0.2561  1.0635 -0.2842
  372MOL0     O50133   3.866   3.757  12.914  0.3453  0.9091  0.8532
  372MOL0     C50134   3.872   3.597  12.700  0.6471  0.5597 -0.1337
  372MOL0     C50135   3.884   3.516  12.590 -0.2704 -0.8902 -0.9125
  372MOL0     N50136   4.046   3.749  11.928 -0.1661 -0.3414  0.3243
  372MOL0     N50137   4.132   3.700  11.847 -0.8324 -0.9107  0.0744
  372MOL0     C50138   4.354   4.076  10.793  0.4783  0.3386 -0.4386
  372MOL0     C50139   4.385   4.206  10.759  0.0024  0.0778 -0.5286
  372MOL0     C50140   4.644   4.560  10.781 -0.2120 -0.1355  0.6284
  372MOL0     C50141   4.779   4.568  10.780 -0.9143  1.4507  0.6448
  372MOL0     C50142   4.853   4.685  10.759  0.1287 -0.2806 -0.5283
  372MOL0     C50143   4.783   4.802  10.744  0.6947  0.2302 -0.1231
  372MOL0     O50144   4.853   4.919  10.729 -0.3889 -0.6099 -0.2237
  372MOL0     C50145   4.781   5.034  10.663 -0.3735  0.7620 -0.8877
  372MOL0     C50146   4.878   5.141  10.625  0.1691 -0.4482  0.3875
  372MOL0     C50147   4.988   5.116  10.521 -0.0379  0.2116 -0.0214
  372MOL0     C50148   5.080   5.241  10.508 -0.5094  0.4491 -0.1136
  372MOL0     C50149   5.157   5.249  10.378 -0.3459 -0.3572  0.5588
  372MOL0     C50150   5.222   5.258  10.272  0.0502  0.7480  1.0705
  372MOL0     C50151   4.641   4.796  10.744 -0.2395 -0.0085 -0.5957
  372MOL0     C50152   4.576   4.683  10.760  0.1380 -0.5542  0.4915
  372MOL0     H50153   4.344   4.379  11.048  1.5053 -0.4814  0.8817
  372MOL0     H50154   4.242   4.140  11.105 -3.0564  0.5689 -1.1994
  372MOL0     H50155   4.329   3.941  11.142 -1.1180  2.7695 -1.0621
  372MOL0     H50156   4.152   3.932  11.141  0.2578 -0.0631  1.9684
  372MOL0     H50157   4.169   3.711  11.051 -0.2959  0.9088  1.1625
  372MOL0     H50158   4.342   3.716  11.045  1.7262 -0.8557  1.3289
  372MOL0     H50159   4.319   3.633  11.273  0.1529  0.5878  3.1493
  372MOL0     H50160   4.323   3.799  11.303  0.3387 -0.6821 -0.5796
  372MOL0     H50161   4.106   3.775  11.391  1.1438  0.7503  0.1463
  372MOL0     H50162   4.056   3.696  11.238  1.1511  0.0686 -0.9913
  372MOL0     H50163   4.017   3.518  11.385 -0.3599  0.0910 -1.0529
  372MOL0     H50164   4.163   3.476  11.329 -2.4997 -2.4797 -0.5510
  372MOL0     H50165   4.290   3.550  11.534  0.3504  0.9009 -0.2638
  372MOL0     H50166   4.144   3.647  11.582 -1.2280 -1.3957  1.4414
  372MOL0     H50167   4.023   3.428  11.597 -0.9582 -0.0634  3.1951
  372MOL0     H50168   4.172   3.349  11.560 -1.7132  0.9358 -1.6776
  372MOL0     H50169   4.262   3.488  11.772 -0.0316 -0.0901  2.0013
  372MOL0     H50170   4.125   3.375  11.813  0.4122 -0.6530 -1.0275
  372MOL0     H50171   3.890   3.488  11.800  1.3107 -1.7292  1.4013
  372MOL0     H50172   3.836   3.771  12.071  0.1594  0.6439 -1.0729
  372MOL0     H50173   3.720   3.727  11.954 -0.2027 -1.0956 -0.1317
  372MOL0     H50174   3.756   3.476  12.040 -1.1628 -1.8888  2.2710
  372MOL0     H50175   3.656   3.602  12.121  0.3838  2.0549 -1.0448
  372MOL0     H50176   3.833   3.655  12.272  0.6564  0.5336  0.8381
  372MOL0     H50177   3.957   3.588  12.165 -0.5359 -1.8982 -2.6894
  372MOL0     H50178   3.879   3.354  12.237 -2.9850 -0.0722 -0.9694
  372MOL0     H50179   3.777   3.439  12.359 -0.5625  2.5593 -0.3361
  372MOL0     H50180   4.107   3.681  12.394  0.9063  1.1662  1.2294
  372MOL0     H50181   4.163   3.890  12.683 -2.0704  6.3603  0.9614
  372MOL0     H50182   4.207   3.848  12.520 -0.6283  1.7506 -0.2032
  372MOL0     H50183   4.070   3.958  12.550 -2.3887 -0.0574  0.5039
  372MOL0     H50184   3.872   4.136  12.927 -2.2747 -2.4360  1.4257
  372MOL0     H50185   3.924   4.243  13.122 -1.7201 -2.0684  2.6306
  372MOL0     H50186   4.140   4.362  13.317  0.7013 -2.2664 -0.7814
  372MOL0     H50187   3.983   4.300  13.340  0.6243  2.2094 -1.5213
  372MOL0     H50188   4.234   4.281  13.502 -0.0361  3.4665 -3.9732
  372MOL0     H50189   4.109   4.391  13.527 -0.2470  0.5081 -1.2403
  372MOL0     H50190   4.062   4.090  13.585 -0.8405 -0.3622  1.0970
  372MOL0     H50191   3.941   4.210  13.611 -0.6184  2.6108  1.1355
  372MOL0     H50192   4.212   4.270  13.736  0.0946 -1.4151 -4.7424
  372MOL0     H50193   4.050   4.280  13.794  0.7629  2.6967 -1.4109
  372MOL0     H50194   4.196   4.009  13.731 -1.6217 -2.9647  0.8662
  372MOL0     H50195   4.047   4.021  13.797  2.3949 -3.8465 -3.2635
  372MOL0     H50196   4.316   4.091  13.936 -0.2246 -0.3186  2.1453
  372MOL0     H50197   4.172   4.164  13.991  1.8656  0.1986  0.0922
  372MOL0     H50198   4.169   3.869  13.965 -3.8363  0.4912 -1.9197
  372MOL0     H50199   4.053   3.968  14.052  0.3792  0.1756  2.6372
  372MOL0     H50200   4.203   3.854  14.214  0.6159  0.1996  2.1028
  372MOL0     H50201   4.222   4.036  14.220  2.9728  0.5357 -1.3346
  372MOL0     H50202   4.224   3.955  13.224  2.4189  1.3530 -0.3556
  372MOL0     H50203   4.177   3.851  12.995 -1.7785 -0.0542 -0.6359
  372MOL0     H50204   3.817   3.559  12.785 -2.4863  0.3863 -2.0602
  372MOL0     H50205   3.847   3.414  12.592  1.5560 -1.6823  3.0959
  372MOL0     H50206   4.357   4.011  10.706 -3.2230  1.0255 -1.2752
  372MOL0     H50207   4.419   4.223  10.657 -1.1703  0.5981 -0.8404
  372MOL0     H50208   4.837   4.476  10.785 -0.8563  1.5101  1.1934
  372MOL0     H50209   4.960   4.698  10.751 -0.2150  3.4674 -1.1531
  372MOL0     H50210   4.722   5.006  10.576 -0.1503  1.9270 -1.4369
  372MOL0     H50211   4.707   5.072  10.734  1.4330  0.2056  1.4252
  372MOL0     H50212   4.912   5.184  10.720 -2.0869  0.3512  0.9001
  372MOL0     H50213   4.814   5.216  10.577  0.2784 -1.6324 -1.7394
  372MOL0     H50214   4.947   5.089  10.423 -1.0104  2.4014 -0.2874
  372MOL0     H50215   5.061   5.039  10.547 -0.4858 -0.4348 -0.6306
  372MOL0     H50216   5.153   5.232  10.589  0.7694  1.6866 -1.0759
  372MOL0     H50217   5.029   5.338  10.511  1.1733  1.5947 -3.3822
  372MOL0     H50218   5.295   5.261  10.194 -0.7925 -1.0465  0.1312
  372MOL0     H50219   4.578   4.882  10.723 -0.8655  0.0977  1.5152
  372MOL0     H50220   4.469   4.691  10.777  0.1315 -0.8481  0.5870
  373MOL0     O50221   1.292   2.981   4.376  0.3177 -0.7984 -0.3324
  373MOL0     C50222   1.227   2.969   4.477  0.6928  0.2886 -0.1979
  373MOL0     O50223   1.124   3.051   4.521 -0.0039  0.1173  0.6992
  373MOL0     C50224   1.097   3.140   4.423 -0.2440  0.0415  0.5184
  373MOL0     C50225   1.159   3.262   4.408 -0.6898 -0.8860  0.4385
  373MOL0     C50226   1.145   3.334   4.286 -0.8355 -0.1846 -0.3216
  373MOL0     C50227   1.062   3.293   4.184  0.9068 -1.0736 -0.8370
  373MOL0     O50228   1.040   3.374   4.079 -0.2679 -0.5307 -0.4466
  373MOL0     C50229   0.926   3.465   4.091  0.0254  0.4773  0.2882
  373MOL0     C50230   0.842   3.443   3.962 -0.3896 -0.6906 -0.1651
  373MOL0     C50231   0.773   3.303   3.958  0.4138  0.1316 -0.4955
  373MOL0     C50232   0.725   3.274   3.814  0.5154  1.4491 -0.0254
  373MOL0     C50233   0.604   3.364   3.778  0.8733  0.0113  0.0932
  373MOL0     C50234   0.536   3.341   3.649  0.6843 -1.1591  0.8713
  373MOL0     C50235   0.639   3.373   3.530  0.0021  0.0430 -0.2216
  373MOL0     C50236   0.717   3.245   3.467  0.3412 -0.1095 -0.6027
  373MOL0     N50237   0.755   3.269   3.330 -0.5729  0.7077 -0.0277
  373MOL0     C50238   0.817   3.383   3.281 -1.4569 -0.7719 -0.3276
  373MOL0     C50239   0.853   3.356   3.154  0.0558 -0.1591 -0.9162
  373MOL0     C50240   0.944   3.434   3.057  0.4713 -0.3661  0.9210
  373MOL0     C50241   0.870   3.473   2.926 -0.2206  0.8058  0.0680
  373MOL0     C50242   0.973   3.491   2.809  0.4153 -0.5428  0.1891
  373MOL0     C50243   0.912   3.526   2.673 -0.1382  0.7466 -0.2769
  373MOL0     O50244   0.832   3.637   2.681  0.1123 -0.1941 -0.4224
  373MOL0     C50245   0.765   3.668   2.570 -1.8268  0.5230  0.7629
  373MOL0     C50246   0.839   3.723   2.456  0.1473 -0.5742 -0.8720
  373MOL0     C50247   0.769   3.780   2.351 -0.0076  0.4860  0.1620
  373MOL0     C50248   0.844   3.850   2.247 -0.3818  0.1756 -0.4075
  373MOL0     C50249   0.627   3.767   2.347  0.1370  0.1427 -0.1233
  373MOL0     C50250   0.539   3.816   2.234  0.3610  0.1325 -0.4003
  373MOL0     O50251   0.594   3.836   2.112  0.0571 -0.4637 -0.3267
  373MOL0     C50252   0.531   3.869   1.996  0.9867 -0.8132 -0.9006
  373MOL0     C50253   0.400   3.918   1.984  0.4310  0.7074 -0.6096
  373MOL0     C50254   0.338   3.925   1.856  0.1401 -0.3790 -0.9784
  373MOL0     C50255   0.396   3.890   1.740  0.4874 -0.1402 -0.5913
  373MOL0     O50256   0.337   3.927   1.624  0.9780  0.2551  0.0170
  373MOL0     C50257   0.362   3.845   1.510  0.3260  0.3937  0.0710
  373MOL0     C50258   0.222   3.843   1.449  0.3770 -0.2851 -0.1612
  373MOL0     C50259   0.188   3.728   1.355 -0.0818 -0.8981  0.1937
  373MOL0     C50260   0.183   3.589   1.419 -0.1559 -0.3417  0.2673
  373MOL0     C50261   0.103   3.490   1.326 -0.4417  0.6117 -0.5437
  373MOL0     C50262   0.125   3.348   1.382 -0.4432  0.1161  0.3053
  373MOL0     C50263   0.039   3.245   1.307 -0.2669  0.5418 -0.6689
  373MOL0     C50264   0.014   3.277   1.158  0.7174  0.0061 -0.3008
  373MOL0    Cl50265   0.003   3.131   1.062  0.1861  0.2871 -0.4041
  373MOL0     C50266   0.532   3.853   1.757 -0.1740 -0.3870  1.2240
  373MOL0     C50267   0.601   3.835   1.876 -0.8843 -0.0927 -0.2465
  373MOL0     O50268   0.417   3.827   2.257  0.8058 -0.3295 -0.0420
  373MOL0     C50269   0.561   3.701   2.455  0.2878 -0.8679 -0.0788
  373MOL0     C50270   0.630   3.664   2.562  0.4534 -0.2074  0.2220
  373MOL0     N50271   0.815   3.230   3.128  0.6309 -0.0789  0.0813
  373MOL0     N50272   0.758   3.171   3.232 -0.5600  0.3770 -0.0248
  373MOL0     C50273   0.998   3.168   4.200  0.0015  0.2658 -0.5194
  373MOL0     C50274   1.028   3.091   4.314  0.0974 -0.4872  0.4493
  373MOL0     C50275   1.267   2.872   4.574  0.0573 -0.9542 -0.4574
  373MOL0     C50276   1.350   2.765   4.530 -0.3332 -0.3515 -0.2951
  373MOL0     C50277   1.385   2.674   4.627 -0.6289 -0.3277  0.1187
  373MOL0     C50278   1.346   2.687   4.753 -0.3932 -0.7336 -0.4545
  373MOL0     O50279   1.383   2.595   4.840 -0.0720  1.3439  0.1374
  373MOL0     C50280   1.449   2.636   4.968 -0.2063  0.0907  0.3706
  373MOL0     C50281   1.550   2.519   4.995 -0.5848  0.1048 -0.2246
  373MOL0     C50282   1.467   2.395   5.018 -0.1133 -0.5003 -0.0966
  373MOL0     C50283   1.564   2.282   5.075  0.0712  0.5123 -0.9852
  373MOL0     C50284   1.516   2.147   5.059  0.5307  0.0134 -0.1283
  373MOL0     C50285   1.479   2.028   5.057  0.4700  0.4335 -0.4566
  373MOL0     C50286   1.276   2.799   4.801 -0.0654 -0.9333 -0.5554
  373MOL0     C50287   1.234   2.893   4.709  0.0916 -0.4522  0.8200
  373MOL0     H50288   1.228   3.300   4.483 -1.7007  1.8598  0.1130
  373MOL0     H50289   1.215   3.416   4.275  1.0655 -1.7109 -0.1031
  373MOL0     H50290   0.864   3.453   4.180  0.8502  0.2437  0.8451
  373MOL0     H50291   0.968   3.566   4.095 -1.0122  0.8826  1.8496
  373MOL0     H50292   0.761   3.517   3.970  2.2553  2.4690 -0.5495
  373MOL0     H50293   0.905   3.461   3.874  0.4012 -1.2112  0.2830
  373MOL0     H50294   0.838   3.220   3.988 -0.7996 -0.3518  0.8976
  373MOL0     H50295   0.696   3.298   4.035  0.6350  0.0040 -0.2809
  373MOL0     H50296   0.806   3.298   3.746 -0.0177  0.5126 -1.0169
  373MOL0     H50297   0.699   3.169   3.802  0.3027  1.3615  1.0917
  373MOL0     H50298   0.526   3.345   3.851 -2.1428 -0.9578 -3.1267
  373MOL0     H50299   0.628   3.471   3.781 -1.3375  0.6295 -1.4207
  373MOL0     H50300   0.499   3.239   3.646 -0.8259 -0.7288 -4.0042
  373MOL0     H50301   0.449   3.409   3.648  1.3963 -0.2252  0.5871
  373MOL0     H50302   0.570   3.415   3.456  0.3005 -1.3406 -1.3231
  373MOL0     H50303   0.710   3.451   3.559 -0.6131  1.0611 -1.3598
  373MOL0     H50304   0.648   3.163   3.484 -1.2920  1.5301  1.1324
  373MOL0     H50305   0.807   3.231   3.527  0.5385  0.1377 -0.8349
  373MOL0     H50306   0.831   3.474   3.338  0.5186 -2.1859  1.5830
  373MOL0     H50307   0.979   3.527   3.101  3.4173 -1.5519  1.3018
  373MOL0     H50308   1.035   3.377   3.036  2.1059  1.8111  1.7030
  373MOL0     H50309   0.823   3.565   2.961 -1.4513 -0.0046  0.5944
  373MOL0     H50310   0.803   3.390   2.900  0.7985 -0.9005  2.5730
  373MOL0     H50311   1.015   3.391   2.798 -3.4499 -2.3001 -0.2085
  373MOL0     H50312   1.049   3.564   2.840 -1.2900  0.8631  1.2446
  373MOL0     H50313   0.850   3.441   2.645  1.2615 -0.7449  0.9651
  373MOL0     H50314   0.985   3.534   2.591  1.0547  2.6945  0.9072
  373MOL0     H50315   0.948   3.726   2.446  0.1936  0.2066 -0.1714
  373MOL0     H50316   0.790   3.945   2.241 -0.8955  0.0012  1.1116
  373MOL0     H50317   0.938   3.881   2.294  0.5474 -2.4799 -0.3788
  373MOL0     H50318   0.859   3.786   2.160 -1.5163 -2.4956  1.2290
  373MOL0     H50319   0.348   3.952   2.073  1.3753  3.5510 -1.0444
  373MOL0     H50320   0.239   3.969   1.865  0.9060  1.1968  0.0252
  373MOL0     H50321   0.440   3.900   1.456  0.7618  0.0851  0.3859
  373MOL0     H50322   0.399   3.744   1.530  1.5209  0.6869 -0.5450
  373MOL0     H50323   0.143   3.842   1.525 -0.8485 -4.1446 -1.2647
  373MOL0     H50324   0.208   3.944   1.408  0.0119  0.0496  0.7725
  373MOL0     H50325   0.244   3.723   1.262 -0.6326  0.0968 -0.2096
  373MOL0     H50326   0.084   3.746   1.325  0.5281  1.8979 -0.5011
  373MOL0     H50327   0.289   3.565   1.429 -0.1595  0.0481  1.3878
  373MOL0     H50328   0.137   3.603   1.517 -1.6961  0.9449 -0.6022
  373MOL0     H50329   0.147   3.500   1.227  1.0111  3.0929  0.2705
  373MOL0     H50330  -0.007   3.495   1.323 -0.6955 -2.7706 -0.3134
  373MOL0     H50331   0.228   3.314   1.365 -0.9308 -0.4704 -1.7146
  373MOL0     H50332   0.087   3.344   1.484 -4.7285  0.5140 -1.0874
  373MOL0     H50333  -0.057   3.235   1.359 -0.3955  1.4012 -0.7330
  373MOL0     H50334   0.089   3.151   1.333 -0.1292  1.5104  3.3463
  373MOL0     H50335   0.087   3.344   1.112 -0.6018  0.4336 -1.8615
  373MOL0     H50336  -0.082   3.330   1.164  1.1241  0.6237  1.3568
  373MOL0     H50337   0.593   3.841   1.667 -0.9488 -0.4423  0.6972
  373MOL0     H50338   0.697   3.786   1.881 -0.4240  0.7787 -0.4136
  373MOL0     H50339   0.453   3.691   2.463 -0.0587  1.7375 -0.5961
  373MOL0     H50340   0.578   3.626   2.650  2.3961  1.1595  2.0300
  373MOL0     H50341   0.949   3.117   4.118  1.5033  2.2950 -2.8200
  373MOL0     H50342   0.993   2.989   4.322  2.9108 -1.5237  0.8192
  373MOL0     H50343   1.376   2.739   4.428 -1.9902  2.3985 -1.5307
  373MOL0     H50344   1.440   2.585   4.598 -0.1055  0.7734 -2.4990
  373MOL0     H50345   1.503   2.730   4.958 -1.3958  0.8700  0.9829
  373MOL0     H50346   1.377   2.641   5.051 -1.1736 -1.0704 -0.3525
  373MOL0     H50347   1.619   2.537   5.078 -0.8716  1.0442 -0.1854
  373MOL0     H50348   1.614   2.505   4.907 -0.7913 -1.8093 -0.1135
  373MOL0     H50349   1.409   2.358   4.933  0.7104 -0.9463 -0.4797
  373MOL0     H50350   1.400   2.421   5.101  0.9934  0.0276  0.6655
  373MOL0     H50351   1.587   2.298   5.181 -0.0707 -1.0886 -0.6760
  373MOL0     H50352   1.659   2.299   5.024 -0.0146  0.2533 -1.2343
  373MOL0     H50353   1.433   1.932   5.062 -3.3439  2.0982  0.4743
  373MOL0     H50354   1.266   2.806   4.908  4.3494  4.7944  0.0260
  373MOL0     H50355   1.181   2.981   4.745  0.1654 -0.7627  1.7147
  374MOL0     O50356   8.742   9.155   2.750 -0.6557 -0.0664 -1.3299
  374MOL0     C50357   8.747   9.050   2.812  0.2522 -1.3309  0.9625
  374MOL0     O50358   8.730   9.035   2.941 -0.2120  0.0098 -0.6163
  374MOL0     C50359   8.720   9.136   3.035  0.5466  0.2212 -0.3974
  374MOL0     C50360   8.731   9.096   3.166 -0.0774 -0.6834  0.1024
  374MOL0     C50361   8.743   9.185   3.273 -0.7116 -0.0922 -0.1060
  374MOL0     C50362   8.741   9.326   3.246 -0.0862 -0.4689  0.5565
  374MOL0     O50363   8.753   9.425   3.344  0.2157  0.3949  0.7645
  374MOL0     C50364   8.884   9.481   3.366  0.4245 -0.9464 -0.3028
  374MOL0     C50365   8.911   9.465   3.510 -0.1435 -0.1793 -0.5844
  374MOL0     C50366   9.049   9.508   3.553  0.0905 -0.5943 -0.0555
  374MOL0     C50367   9.042   9.578   3.699 -0.3144  0.0488  0.5141
  374MOL0     C50368   9.187   9.619   3.735 -0.0119 -0.3959 -0.2319
  374MOL0     C50369   9.213   9.676   3.872  0.0698 -0.3986  0.9305
  374MOL0     C50370   9.334   9.622   3.950 -0.7361 -0.3561  0.1133
  374MOL0     C50371   9.469   9.646   3.873 -0.6466 -1.0024  0.2960
  374MOL0     N50372   9.577   9.585   3.942 -0.0905 -0.4390  1.1352
  374MOL0     C50373   9.646   9.635   4.052  1.0575  0.6110  0.7114
  374MOL0     C50374   9.740   9.554   4.079 -1.0276 -0.8305 -0.0857
  374MOL0     C50375   9.835   9.571   4.186  0.2265 -0.4993  0.4515
  374MOL0     C50376   9.959   9.639   4.120 -0.7428 -0.1203 -0.8763
  374MOL0     C50377  10.085   9.666   4.204 -0.1133 -0.6406 -0.6592
  374MOL0     C50378  10.048   9.740   4.338 -0.1974  0.1210 -0.6594
  374MOL0     O50379  10.001   9.643   4.433  0.2758 -0.2461  0.6075
  374MOL0     C50380   9.948   9.685   4.549  0.1725  0.5101 -0.7160
  374MOL0     C50381   9.849   9.599   4.614  1.0326 -0.5823  0.8388
  374MOL0     C50382   9.774   9.636   4.726  0.3623  0.2219  1.1929
  374MOL0     C50383   9.660   9.554   4.771  0.2887  0.0580 -0.6702
  374MOL0     C50384   9.811   9.756   4.795 -0.0781 -0.4532 -0.3843
  374MOL0     C50385   9.751   9.802   4.921  0.0720  0.1804  0.7035
  374MOL0     O50386   9.732   9.928   4.940  0.3204 -0.6240 -0.4058
  374MOL0     C50387   9.660   9.959   5.053  0.1831  0.4879  1.0937
  374MOL0     C50388   9.722   9.991   5.177  0.1572 -0.1945  0.0400
  374MOL0     C50389   9.645  10.035   5.281  1.1250 -0.2980  0.4471
  374MOL0     C50390   9.505  10.040   5.270  0.6584 -0.3033  0.4112
  374MOL0     O50391   9.440  10.108   5.368  0.4127  0.5229 -0.7783
  374MOL0     C50392   9.303  10.071   5.375  0.2146  0.6862  0.5429
  374MOL0     C50393   9.247  10.105   5.512 -0.3949 -0.0272 -0.4679
  374MOL0     C50394   9.214   9.981   5.603 -0.0860  0.2428  0.0761
  374MOL0     C50395   9.150  10.022   5.737 -0.5518 -0.7207  0.3445
  374MOL0     C50396   9.087   9.915   5.822 -0.2560  0.4309  0.2469
  374MOL0     C50397   8.953   9.867   5.764 -0.0256 -0.0818  0.3854
  374MOL0     C50398   8.882   9.774   5.863  0.6099  0.4120 -1.1295
  374MOL0     C50399   8.759   9.698   5.797 -0.5657  0.9271 -0.4094
  374MOL0    Cl50400   8.627   9.803   5.758 -0.1003 -0.9868  0.0068
  374MOL0     C50401   9.444  10.017   5.151 -0.6391  0.7666  0.7410
  374MOL0     C50402   9.516   9.976   5.040  0.1215  1.2452 -0.4161
  374MOL0     O50403   9.735   9.718   5.003 -0.4512 -0.1578 -0.4691
  374MOL0     C50404   9.918   9.833   4.739  0.6995  0.6290 -0.1128
  374MOL0     C50405   9.986   9.804   4.620 -0.7272 -0.2435 -0.1815
  374MOL0     N50406   9.751   9.467   3.976 -0.6024 -0.8494  0.5051
  374MOL0     N50407   9.653   9.489   3.888  0.5887 -0.9507 -0.4657
  374MOL0     C50408   8.718   9.363   3.118 -0.0919 -0.6293  0.5827
  374MOL0     C50409   8.717   9.268   3.011  0.8891 -0.5737  0.0800
  374MOL0     C50410   8.757   8.925   2.733 -0.2559  0.6746 -0.7782
  374MOL0     C50411   8.731   8.799   2.785  0.1018 -0.3786 -0.1301
  374MOL0     C50412   8.739   8.688   2.697 -0.1788 -0.4686 -0.3647
  374MOL0     C50413   8.785   8.690   2.567 -0.0018  0.2272 -0.4978
  374MOL0     O50414   8.813   8.564   2.504  0.0156 -0.1650  0.3775
  374MOL0     C50415   8.818   8.563   2.363 -0.7291 -0.0263 -0.2680
  374MOL0     C50416   8.851   8.426   2.307  1.0426  0.5588  0.6356
  374MOL0     C50417   8.998   8.386   2.322  0.1738 -0.0806 -0.2297
  374MOL0     C50418   9.049   8.247   2.277  0.5645 -0.0608  0.0230
  374MOL0     C50419   9.060   8.157   2.391  0.4182 -0.3199 -0.0426
  374MOL0     C50420   9.079   8.064   2.467  0.4826 -0.6826  0.1590
  374MOL0     C50421   8.824   8.818   2.526  0.2001  0.0233 -0.0219
  374MOL0     C50422   8.806   8.936   2.605 -1.2373 -0.1092  0.9131
  374MOL0     H50423   8.746   8.992   3.194  0.0104 -0.4176  1.0803
  374MOL0     H50424   8.760   9.146   3.373 -0.9398  1.2888  0.4914
  374MOL0     H50425   8.976   9.437   3.325 -0.1097 -3.0626  0.6831
  374MOL0     H50426   8.870   9.588   3.348 -0.5629 -1.1539 -0.8295
  374MOL0     H50427   8.839   9.530   3.561  2.3004 -0.2512  3.3627
  374MOL0     H50428   8.894   9.362   3.546 -4.0026  1.3399  2.8755
  374MOL0     H50429   9.111   9.418   3.561  0.0645 -0.6777 -0.7525
  374MOL0     H50430   9.096   9.575   3.480  1.6517 -0.6646  0.8475
  374MOL0     H50431   8.972   9.662   3.705 -1.5414 -0.7725 -1.4423
  374MOL0     H50432   8.999   9.507   3.769 -1.9455  3.7325  3.6061
  374MOL0     H50433   9.256   9.537   3.711 -0.2594 -0.5132 -0.5423
  374MOL0     H50434   9.209   9.700   3.665 -0.6420 -0.8033 -0.9158
  374MOL0     H50435   9.238   9.782   3.859 -2.0552 -0.1435 -2.3938
  374MOL0     H50436   9.121   9.667   3.931  0.2072  2.7671  1.8383
  374MOL0     H50437   9.337   9.653   4.055 -2.2541  2.2981 -0.5253
  374MOL0     H50438   9.324   9.515   3.932  0.3114 -0.4524  0.0380
  374MOL0     H50439   9.478   9.755   3.881 -4.7562 -0.6221  4.1015
  374MOL0     H50440   9.472   9.620   3.767 -1.3848 -1.4241  0.3642
  374MOL0     H50441   9.620   9.721   4.112 -2.2240 -0.5443  1.1536
  374MOL0     H50442   9.796   9.648   4.253 -0.4647  3.6046 -4.1690
  374MOL0     H50443   9.860   9.471   4.224  0.1290 -0.5051  0.4977
  374MOL0     H50444   9.930   9.740   4.090  0.2987  0.0938 -1.2258
  374MOL0     H50445   9.992   9.592   4.026  1.3915 -0.3725 -0.0539
  374MOL0     H50446  10.143   9.736   4.144 -2.3358  1.2768 -0.7101
  374MOL0     H50447  10.131   9.568   4.225  0.7006 -0.9147 -3.3573
  374MOL0     H50448   9.981   9.825   4.326 -1.6465 -0.6592  1.2889
  374MOL0     H50449  10.141   9.780   4.381  0.8806  0.2540 -2.9779
  374MOL0     H50450   9.825   9.507   4.561  3.1195 -1.2241  0.9110
  374MOL0     H50451   9.568   9.612   4.782  0.2328 -0.2668  0.8258
  374MOL0     H50452   9.639   9.482   4.691  2.6450  0.2391 -1.5097
  374MOL0     H50453   9.694   9.508   4.864 -1.1046 -0.9823 -0.6468
  374MOL0     H50454   9.830   9.989   5.190  0.1775  0.6723  0.0325
  374MOL0     H50455   9.696  10.050   5.376  1.5017  0.2627  0.1605
  374MOL0     H50456   9.237  10.120   5.303  1.4961 -2.1536 -2.8532
  374MOL0     H50457   9.296   9.962   5.365 -3.4296  0.8282  0.5117
  374MOL0     H50458   9.328  10.161   5.560  2.5023 -3.0815 -1.4579
  374MOL0     H50459   9.153  10.160   5.515  0.5280  1.6139  2.0445
  374MOL0     H50460   9.312   9.941   5.628  0.6870  0.3759 -2.4627
  374MOL0     H50461   9.150   9.911   5.548  1.1583 -2.4835  1.8929
  374MOL0     H50462   9.225  10.079   5.792 -1.5305  1.9784 -0.9345
  374MOL0     H50463   9.067  10.090   5.714 -0.8734 -0.7669  1.3456
  374MOL0     H50464   9.063   9.965   5.916 -2.0778 -2.4854  1.4616
  374MOL0     H50465   9.163   9.838   5.841 -0.1715  0.1455 -1.1553
  374MOL0     H50466   8.889   9.950   5.733  0.5610  0.3876  0.4100
  374MOL0     H50467   8.963   9.800   5.678 -5.1294  0.5657 -1.0508
  374MOL0     H50468   8.843   9.822   5.953 -0.3237 -0.1831 -1.1927
  374MOL0     H50469   8.957   9.705   5.903  0.0293  1.5961  2.3309
  374MOL0     H50470   8.721   9.613   5.854  2.8754 -0.1272  0.5869
  374MOL0     H50471   8.785   9.668   5.695 -3.2890  1.8350 -1.4544
  374MOL0     H50472   9.345  10.051   5.123 -1.3441  0.5601  2.8008
  374MOL0     H50473   9.475   9.957   4.942  0.1935 -0.3925 -0.1560
  374MOL0     H50474   9.933   9.928   4.789  1.2644 -1.6566  4.6246
  374MOL0     H50475  10.056   9.868   4.566 -1.0367 -0.7325 -1.1778
  374MOL0     H50476   8.723   9.467   3.087 -0.0017 -0.1879  2.0339
  374MOL0     H50477   8.693   9.314   2.916 -0.1008 -0.4441  0.3722
  374MOL0     H50478   8.703   8.789   2.890 -0.9959 -0.1898 -0.3992
  374MOL0     H50479   8.702   8.600   2.748 -1.7032 -1.0905 -2.4409
  374MOL0     H50480   8.723   8.601   2.326 -1.0478 -0.4836  0.0687
  374MOL0     H50481   8.895   8.635   2.337  0.7617 -1.6172 -0.4702
  374MOL0     H50482   8.820   8.427   2.202 -0.6121  2.9512  1.0751
  374MOL0     H50483   8.783   8.352   2.350 -0.2380 -0.5128 -2.8489
  374MOL0     H50484   9.021   8.400   2.428 -2.2454 -0.1376  0.3683
  374MOL0     H50485   9.055   8.459   2.264 -0.8271  1.1165  0.2377
  374MOL0     H50486   9.153   8.261   2.243  0.4718 -0.1004 -0.2790
  374MOL0     H50487   8.988   8.213   2.193 -1.2464 -1.6204  1.8799
  374MOL0     H50488   9.107   7.986   2.535  1.8286 -1.2847 -1.0326
  374MOL0     H50489   8.868   8.829   2.428  1.2181  0.8346  0.5120
  374MOL0     H50490   8.828   9.036   2.569 -0.9762 -0.6536 -0.4849
  375MOL0     O50491   5.476   7.340   8.377 -0.3440 -0.0768  0.2406
  375MOL0     C50492   5.475   7.245   8.453  0.1353  0.1175 -0.0435
  375MOL0     O50493   5.483   7.116   8.428 -0.5068  0.6311  0.6557
  375MOL0     C50494   5.487   7.064   8.299 -0.3859 -0.3563  0.1052
  375MOL0     C50495   5.513   6.931   8.291 -0.2810 -0.0998  0.3446
  375MOL0     C50496   5.538   6.865   8.173  0.5717  1.0625 -0.4643
  375MOL0     C50497   5.543   6.925   8.049 -0.0858  0.0472 -0.8109
  375MOL0     O50498   5.570   6.860   7.934 -0.7688  0.3775 -0.6277
  375MOL0     C50499   5.661   6.747   7.949 -0.1786 -0.0342 -0.0273
  375MOL0     C50500   5.709   6.709   7.817  0.4040  0.3692  0.9556
  375MOL0     C50501   5.819   6.595   7.832 -0.0828  0.2626 -0.0809
  375MOL0     C50502   5.955   6.649   7.785  0.1285 -1.0561  0.8732
  375MOL0     C50503   6.076   6.559   7.804 -0.2128  0.8776  0.1650
  375MOL0     C50504   6.073   6.479   7.935  0.3596  0.2347  0.2451
  375MOL0     C50505   6.198   6.388   7.947  0.0322  0.1723 -0.1004
  375MOL0     C50506   6.261   6.401   8.080 -1.1599 -0.3372  0.4196
  375MOL0     N50507   6.333   6.275   8.111  0.0988 -0.3364 -0.6216
  375MOL0     C50508   6.319   6.222   8.233 -0.7955  1.1634  0.2912
  375MOL0     C50509   6.380   6.099   8.221 -0.2362  0.1937  0.5327
  375MOL0     C50510   6.371   5.997   8.334  0.6190  1.1788  0.4273
  375MOL0     C50511   6.478   5.889   8.331 -0.0186 -1.2795  0.0088
  375MOL0     C50512   6.450   5.774   8.430  0.1951  0.2289 -1.0578
  375MOL0     C50513   6.564   5.664   8.445  0.0980  0.0166 -0.6296
  375MOL0     O50514   6.501   5.548   8.509  0.0432  0.4415 -0.1448
  375MOL0     C50515   6.583   5.438   8.521 -0.5103 -0.0543 -0.2725
  375MOL0     C50516   6.592   5.338   8.423  0.7370  0.7096 -0.8780
  375MOL0     C50517   6.679   5.238   8.428 -0.2735  0.5359  0.3007
  375MOL0     C50518   6.672   5.137   8.311 -0.3072  0.2460 -0.4727
  375MOL0     C50519   6.780   5.227   8.532  0.5995 -0.3722  0.4933
  375MOL0     C50520   6.879   5.128   8.543 -1.1684  0.9266 -0.6930
  375MOL0     O50521   6.971   5.144   8.651  0.2779 -0.2737 -0.0147
  375MOL0     C50522   7.021   5.037   8.710 -1.0777  0.2460 -1.0007
  375MOL0     C50523   6.940   4.968   8.800  0.0792  0.0625  0.4356
  375MOL0     C50524   6.989   4.870   8.880  0.9956  0.5245 -0.2727
  375MOL0     C50525   7.119   4.825   8.865 -0.4183  0.0203  0.0403
  375MOL0     O50526   7.167   4.730   8.950  0.3397  0.3358  0.4846
  375MOL0     C50527   7.239   4.615   8.893  0.1225 -0.3575  0.2478
  375MOL0     C50528   7.150   4.488   8.878  0.7222 -0.6911 -0.1412
  375MOL0     C50529   7.231   4.366   8.825  1.2207  0.8880  0.2979
  375MOL0     C50530   7.138   4.268   8.750 -0.5038 -0.4924 -0.2069
  375MOL0     C50531   7.211   4.149   8.690 -0.2588  0.3054  0.0298
  375MOL0     C50532   7.270   4.189   8.554  0.1790 -0.3944  0.3087
  375MOL0     C50533   7.384   4.102   8.500 -0.2292  0.2651  0.0359
  375MOL0     C50534   7.392   4.103   8.351 -0.3332 -0.9544 -0.1848
  375MOL0    Cl50535   7.446   4.267   8.305  0.7971 -0.1022 -0.1531
  375MOL0     C50536   7.201   4.893   8.776  0.5343 -0.0752  1.0816
  375MOL0     C50537   7.153   4.995   8.692  0.4901  0.0679  0.8229
  375MOL0     O50538   6.870   5.026   8.473  0.3686 -0.1745 -0.6352
  375MOL0     C50539   6.771   5.326   8.635  0.4831 -0.0352  0.0847
  375MOL0     C50540   6.667   5.427   8.632 -0.2337  0.2929  1.0874
  375MOL0     N50541   6.420   6.077   8.089  0.0346 -0.8991  1.0246
  375MOL0     N50542   6.395   6.188   8.025 -0.1763 -0.7979  0.2952
  375MOL0     C50543   5.526   7.060   8.055 -0.7412 -1.1221  0.0381
  375MOL0     C50544   5.501   7.134   8.173  0.4029 -0.5581 -0.1193
  375MOL0     C50545   5.469   7.278   8.595 -0.6602 -0.3876 -0.4925
  375MOL0     C50546   5.478   7.416   8.637 -0.0254 -0.1740  0.1607
  375MOL0     C50547   5.440   7.446   8.768 -0.0805 -0.2462  0.0519
  375MOL0     C50548   5.385   7.349   8.852 -0.9183  0.3041  0.2688
  375MOL0     O50549   5.341   7.401   8.971  0.2338  0.5081 -0.5101
  375MOL0     C50550   5.247   7.325   9.043 -0.0916 -0.0091 -0.8923
  375MOL0     C50551   5.148   7.399   9.128 -0.6912  0.3500  0.1713
  375MOL0     C50552   5.098   7.296   9.239  0.2680 -0.4719  0.4806
  375MOL0     C50553   5.010   7.180   9.179 -0.4369 -0.4851  1.1460
  375MOL0     C50554   5.097   7.072   9.130 -0.5410  0.0945 -0.5600
  375MOL0     C50555   5.164   6.979   9.096 -0.1533  0.2706 -0.4133
  375MOL0     C50556   5.377   7.213   8.816  0.1229  0.4375 -0.7565
  375MOL0     C50557   5.420   7.179   8.688 -0.1688 -0.6319  0.0729
  375MOL0     H50558   5.533   6.881   8.385  1.8327  2.9015  1.6598
  375MOL0     H50559   5.559   6.759   8.177  0.6898  1.0632 -1.0301
  375MOL0     H50560   5.745   6.787   8.006 -2.2988  4.8364  0.1579
  375MOL0     H50561   5.618   6.656   7.991 -1.3570 -0.1289 -1.3441
  375MOL0     H50562   5.622   6.668   7.764 -0.2127 -0.4935  2.5650
  375MOL0     H50563   5.751   6.797   7.769  1.5492 -0.0761  1.1110
  375MOL0     H50564   5.826   6.571   7.939 -2.8420  1.2186  0.4069
  375MOL0     H50565   5.787   6.499   7.789  0.9158 -0.8639  1.5498
  375MOL0     H50566   5.936   6.674   7.680 -0.2228  1.0042  1.3746
  375MOL0     H50567   5.968   6.748   7.830  1.6402 -0.6038 -0.4949
  375MOL0     H50568   6.053   6.477   7.737 -0.2724 -0.3425  1.6177
  375MOL0     H50569   6.173   6.605   7.784  0.3202  0.2136  1.1266
  375MOL0     H50570   6.054   6.558   8.008  1.0906 -0.0417  0.7453
  375MOL0     H50571   5.990   6.408   7.936  1.0439 -0.6199  2.5862
  375MOL0     H50572   6.146   6.293   7.928 -0.4806  0.5068 -0.3926
  375MOL0     H50573   6.267   6.416   7.868 -0.8280 -1.5899 -1.5658
  375MOL0     H50574   6.191   6.427   8.160 -1.1684 -0.0709  0.3259
  375MOL0     H50575   6.332   6.484   8.082 -1.8854  0.2995  0.3089
  375MOL0     H50576   6.295   6.263   8.330  1.3552  0.3286  1.2401
  375MOL0     H50577   6.380   6.055   8.426  1.4441  1.5106  0.1484
  375MOL0     H50578   6.276   5.943   8.326  1.4675 -0.0821 -2.3126
  375MOL0     H50579   6.572   5.945   8.334 -0.7391 -0.0905  1.5433
  375MOL0     H50580   6.489   5.856   8.227  2.7313 -0.3927 -0.0514
  375MOL0     H50581   6.360   5.725   8.391 -1.2039  1.8360 -0.0098
  375MOL0     H50582   6.443   5.814   8.531 -0.7243 -1.1253 -0.5561
  375MOL0     H50583   6.642   5.692   8.516  0.0214  0.2367 -0.6309
  375MOL0     H50584   6.619   5.628   8.357  2.3662 -1.1723  1.1618
  375MOL0     H50585   6.513   5.351   8.349 -0.6104 -0.0982  0.3590
  375MOL0     H50586   6.766   5.143   8.256 -0.4095  3.1079 -0.4542
  375MOL0     H50587   6.664   5.034   8.347 -0.2134 -1.0341 -3.7651
  375MOL0     H50588   6.589   5.150   8.240 -2.0943  0.5854  1.5835
  375MOL0     H50589   6.846   5.020   8.810  0.4582  1.0092 -0.7270
  375MOL0     H50590   6.917   4.828   8.949 -0.3084  2.0381 -0.6429
  375MOL0     H50591   7.276   4.644   8.794 -0.1543 -0.2318  0.1819
  375MOL0     H50592   7.325   4.593   8.957  0.9509  2.1669  0.0939
  375MOL0     H50593   7.110   4.449   8.972  0.6950 -3.0601 -1.0714
  375MOL0     H50594   7.065   4.505   8.811 -1.0615 -4.5642  0.8687
  375MOL0     H50595   7.284   4.327   8.913  0.4648  0.9170  0.7730
  375MOL0     H50596   7.303   4.407   8.753 -0.8288  0.6851 -1.9789
  375MOL0     H50597   7.074   4.237   8.833  0.4818 -0.5485  0.5508
  375MOL0     H50598   7.088   4.327   8.673 -1.7628 -0.1766  0.8185
  375MOL0     H50599   7.134   4.075   8.667 -2.6952  2.7285 -0.1962
  375MOL0     H50600   7.290   4.122   8.760  0.5473  3.2344  0.3901
  375MOL0     H50601   7.192   4.188   8.477 -0.0081  1.7563  0.4236
  375MOL0     H50602   7.312   4.290   8.556 -1.0854  0.1332  1.0957
  375MOL0     H50603   7.364   3.998   8.527  0.0110  0.0949 -0.4338
  375MOL0     H50604   7.480   4.136   8.542 -1.5770  0.5633  3.1368
  375MOL0     H50605   7.297   4.090   8.299 -0.2143 -1.3396 -0.3098
  375MOL0     H50606   7.462   4.026   8.317 -1.0509 -0.6802 -2.3811
  375MOL0     H50607   7.305   4.863   8.766  0.2521 -1.0269  0.9491
  375MOL0     H50608   7.219   5.037   8.617 -0.1695  0.7937  0.6240
  375MOL0     H50609   6.830   5.323   8.726  1.2833  3.5591 -0.1846
  375MOL0     H50610   6.655   5.492   8.718 -3.3527  1.0932  0.1829
  375MOL0     H50611   5.531   7.123   7.966  0.2407  0.2987  1.0404
  375MOL0     H50612   5.494   7.240   8.152 -3.1102 -1.3279 -4.5688
  375MOL0     H50613   5.522   7.490   8.571  5.1158 -2.0973  1.0015
  375MOL0     H50614   5.432   7.549   8.803  1.3551 -0.4036  0.9556
  375MOL0     H50615   5.184   7.283   8.964  0.0571  3.3230 -2.9853
  375MOL0     H50616   5.295   7.243   9.097 -1.7548  0.2568  1.1194
  375MOL0     H50617   5.062   7.442   9.076 -2.2043 -0.1911  2.1125
  375MOL0     H50618   5.193   7.492   9.166 -1.0687  1.5082 -2.0439
  375MOL0     H50619   5.036   7.353   9.308  2.7608  0.0349  2.4701
  375MOL0     H50620   5.185   7.258   9.294  2.4048  2.2668 -0.7796
  375MOL0     H50621   4.945   7.216   9.099 -1.7669  1.4411  2.9847
  375MOL0     H50622   4.950   7.132   9.258 -2.3026 -0.3617 -0.1346
  375MOL0     H50623   5.220   6.895   9.062  3.3526  2.5573 -0.8464
  375MOL0     H50624   5.344   7.138   8.888 -3.3067  3.0017  0.5933
  375MOL0     H50625   5.400   7.077   8.657  0.8890  0.2892 -4.4273
  376MOL0     O50626   9.958   9.542   0.450  0.5052  0.1392 -0.3369
  376MOL0     C50627   9.871   9.596   0.517 -0.1275  0.1941  0.6527
  376MOL0     O50628   9.793   9.543   0.613 -0.1718 -0.6072 -0.5208
  376MOL0     C50629   9.808   9.415   0.646 -0.5020 -0.0091 -0.3763
  376MOL0     C50630   9.923   9.379   0.722  0.2210  0.5117 -0.4902
  376MOL0     C50631   9.929   9.248   0.784  0.0300  0.4730  0.4768
  376MOL0     C50632   9.830   9.149   0.765  0.1257  1.3132 -0.9919
  376MOL0     O50633   9.839   9.019   0.822 -1.0423  0.4210 -0.4534
  376MOL0     C50634   9.966   8.987   0.898 -0.0239 -0.5805 -0.2366
  376MOL0     C50635   9.942   8.838   0.913 -1.0995  0.5410 -0.0542
  376MOL0     C50636   9.866   8.768   0.795 -0.2508  0.3545  0.2148
  376MOL0     C50637   9.845   8.618   0.835 -0.5720 -0.2708  0.1005
  376MOL0     C50638   9.777   8.538   0.723  0.6382  0.0123  0.1478
  376MOL0     C50639   9.771   8.391   0.734  0.5944  0.7807  0.2587
  376MOL0     C50640   9.730   8.325   0.601  0.0029 -0.0072 -0.1883
  376MOL0     C50641   9.737   8.173   0.594  0.6989 -0.1330  0.2003
  376MOL0     N50642   9.696   8.104   0.720  0.0355 -0.3803  0.0903
  376MOL0     C50643   9.787   8.055   0.815 -1.1705  0.4039 -0.7316
  376MOL0     C50644   9.707   8.003   0.908 -0.4172  0.2095 -0.5961
  376MOL0     C50645   9.752   7.939   1.040  0.0470  0.3127  1.1043
  376MOL0     C50646   9.761   8.037   1.157 -0.9369  0.4412 -0.3770
  376MOL0     C50647   9.774   7.972   1.300  1.1149  0.1578  0.3218
  376MOL0     C50648   9.913   7.970   1.352  1.2424 -0.0476  0.3693
  376MOL0     O50649  10.007   7.917   1.259  0.3945 -0.0914  0.0818
  376MOL0     C50650  10.115   7.856   1.319  0.2816 -0.8873 -0.1529
  376MOL0     C50651  10.202   7.933   1.407  0.6943  0.1652 -0.5306
  376MOL0     C50652  10.304   7.877   1.477 -0.7243  0.6789 -0.4020
  376MOL0     C50653  10.397   7.976   1.557 -0.9892 -0.2561  0.3786
  376MOL0     C50654  10.329   7.736   1.464  0.8829 -0.2834  0.3535
  376MOL0     C50655  10.428   7.666   1.531  0.7335  0.0333 -0.0418
  376MOL0     O50656  10.411   7.677   1.661  0.3064  0.1162 -0.6581
  376MOL0     C50657  10.509   7.634   1.739  0.6905 -0.4202 -0.4604
  376MOL0     C50658  10.461   7.568   1.853  0.2638 -0.2222 -0.0548
  376MOL0     C50659  10.550   7.513   1.941 -0.3878 -0.0576 -0.2240
  376MOL0     C50660  10.693   7.527   1.926 -0.5964 -0.0121 -0.7925
  376MOL0     O50661  10.769   7.470   2.025  0.1502  0.8858 -0.5255
  376MOL0     C50662  10.912   7.464   2.000  0.3653  0.0296  0.6684
  376MOL0     C50663  10.982   7.378   2.102  0.1206  0.2757  0.0109
  376MOL0     C50664  11.032   7.461   2.224 -0.8159  0.5507 -0.0047
  376MOL0     C50665  11.170   7.526   2.195  0.4091  0.2221  1.3508
  376MOL0     C50666  11.237   7.595   2.316 -0.1852  0.0870 -0.3998
  376MOL0     C50667  11.367   7.660   2.286  0.6613 -0.7882 -0.2236
  376MOL0     C50668  11.434   7.720   2.418  0.6467 -0.7259 -0.0515
  376MOL0     C50669  11.559   7.801   2.361 -0.2764 -0.9251 -0.9085
  376MOL0    Cl50670  11.695   7.692   2.293  0.1188 -0.1763  0.0043
  376MOL0     C50671  10.740   7.584   1.812  0.1993 -0.0614 -0.3134
  376MOL0     C50672  10.643   7.636   1.718  0.2106 -0.7292  0.5670
  376MOL0     O50673  10.503   7.603   1.468  0.6542  0.5579  0.8103
  376MOL0     C50674  10.246   7.662   1.379 -0.4022  0.4668 -0.0555
  376MOL0     C50675  10.142   7.721   1.308 -0.5000  0.2363 -0.2866
  376MOL0     N50676   9.577   8.012   0.857  0.5265  0.3811  0.2268
  376MOL0     N50677   9.565   8.067   0.745  0.7838  0.0858 -0.0605
  376MOL0     C50678   9.716   9.186   0.675  0.1261 -0.0363 -0.3904
  376MOL0     C50679   9.705   9.320   0.626 -0.2411 -0.6102  0.1064
  376MOL0     C50680   9.863   9.743   0.507  0.7034 -0.2887 -0.3460
  376MOL0     C50681   9.949   9.824   0.421  0.3794 -1.5317 -0.1144
  376MOL0     C50682   9.916   9.957   0.402  0.6385 -0.5608 -0.8182
  376MOL0     C50683   9.819  10.021   0.476 -0.9519  0.0574 -0.5296
  376MOL0     O50684   9.794  10.154   0.452 -0.0753  0.2089  0.2718
  376MOL0     C50685   9.734  10.224   0.560 -0.7940 -0.9944 -0.8627
  376MOL0     C50686   9.738  10.372   0.529  0.5098 -0.4623  0.1093
  376MOL0     C50687   9.879  10.421   0.497 -0.1190  0.2300 -0.1561
  376MOL0     C50688   9.911  10.570   0.541  0.0855  0.5269  1.2116
  376MOL0     C50689   9.871  10.658   0.431  1.0762  0.6671 -0.0298
  376MOL0     C50690   9.822  10.726   0.340  0.3128 -0.2398  1.4503
  376MOL0     C50691   9.745   9.947   0.570  0.4806 -0.0846 -0.2209
  376MOL0     C50692   9.764   9.807   0.587 -0.3185 -0.4259 -0.2909
  376MOL0     H50693  10.004   9.450   0.741  0.9037  0.4645 -2.8687
  376MOL0     H50694  10.018   9.218   0.839 -1.3217 -3.0997  1.0348
  376MOL0     H50695  10.050   9.012   0.832 -1.0348 -1.6180 -2.0129
  376MOL0     H50696   9.958   9.020   1.002 -3.1387  1.9839 -1.1144
  376MOL0     H50697  10.038   8.787   0.915 -1.0679  0.5973  1.7141
  376MOL0     H50698   9.894   8.819   1.010 -0.7731 -1.2615 -0.2155
  376MOL0     H50699   9.769   8.802   0.758  0.8390 -0.8211 -4.3903
  376MOL0     H50700   9.932   8.787   0.710 -1.1611  3.2914  0.0563
  376MOL0     H50701   9.948   8.585   0.847  1.2351  4.8357  1.4529
  376MOL0     H50702   9.792   8.620   0.931  1.3623  2.4573  1.2430
  376MOL0     H50703   9.683   8.584   0.690  1.7314  0.9346 -1.8234
  376MOL0     H50704   9.842   8.555   0.637 -0.5778  0.7370 -0.6592
  376MOL0     H50705   9.863   8.343   0.769  0.9996  2.2706  1.3312
  376MOL0     H50706   9.692   8.367   0.807 -1.8613 -1.4485 -2.8218
  376MOL0     H50707   9.624   8.348   0.587 -0.2420 -1.6232 -1.2482
  376MOL0     H50708   9.790   8.361   0.517  1.4699 -0.8274  0.4629
  376MOL0     H50709   9.835   8.132   0.568 -0.2931 -2.5101 -0.0700
  376MOL0     H50710   9.671   8.151   0.510 -0.4806 -0.3420  1.1512
  376MOL0     H50711   9.896   8.058   0.818 -1.1689  0.1850 -0.4152
  376MOL0     H50712   9.680   7.861   1.066  2.4683 -3.3941 -2.1813
  376MOL0     H50713   9.839   7.874   1.033 -0.4984 -0.3360 -0.0205
  376MOL0     H50714   9.678   8.107   1.167  0.1927  1.8904 -0.6840
  376MOL0     H50715   9.833   8.118   1.140 -1.3792  2.2937  4.8745
  376MOL0     H50716   9.728   7.873   1.292 -0.2561  0.6509  1.6023
  376MOL0     H50717   9.720   8.033   1.374 -0.4919  0.1165 -0.7542
  376MOL0     H50718   9.900   7.892   1.428 -0.4110 -1.1613 -0.9803
  376MOL0     H50719   9.941   8.068   1.391 -3.8609  2.8228 -2.1256
  376MOL0     H50720  10.186   8.040   1.404  1.0493  0.2073 -3.0459
  376MOL0     H50721  10.369   7.991   1.662  1.0905  0.8128  0.8424
  376MOL0     H50722  10.503   7.950   1.550 -1.7273 -3.5797  0.1666
  376MOL0     H50723  10.384   8.076   1.515  0.0051 -0.8916 -1.5557
  376MOL0     H50724  10.354   7.565   1.873  0.3844 -0.1434  0.6416
  376MOL0     H50725  10.512   7.464   2.029  2.3565 -1.6423  0.1838
  376MOL0     H50726  10.940   7.421   1.903  4.6067 -0.1760  1.7912
  376MOL0     H50727  10.943   7.568   1.993  0.4773 -0.0812 -1.0581
  376MOL0     H50728  10.909   7.301   2.129 -0.7871 -0.3542 -3.6636
  376MOL0     H50729  11.068   7.323   2.062  1.8583  0.8923  2.6684
  376MOL0     H50730  11.034   7.403   2.317 -1.4724 -1.3222 -1.1015
  376MOL0     H50731  10.956   7.536   2.246  0.7691  1.8324  1.4417
  376MOL0     H50732  11.239   7.457   2.146  0.2565  1.1974 -0.3324
  376MOL0     H50733  11.162   7.593   2.109  3.8917  1.3384  1.7558
  376MOL0     H50734  11.257   7.521   2.394  1.0614  0.8040 -0.0106
  376MOL0     H50735  11.175   7.672   2.364  2.2346  1.5950  0.5189
  376MOL0     H50736  11.442   7.591   2.247  0.6918 -0.1781 -1.2826
  376MOL0     H50737  11.344   7.736   2.211  0.5180 -1.5945 -1.0067
  376MOL0     H50738  11.463   7.638   2.484 -1.3687 -0.5824  1.0785
  376MOL0     H50739  11.365   7.787   2.470  0.8320  0.6667 -1.5295
  376MOL0     H50740  11.595   7.862   2.445 -1.1142  2.7549 -2.9844
  376MOL0     H50741  11.539   7.876   2.283  0.3551 -2.6262 -2.7680
  376MOL0     H50742  10.845   7.584   1.784  0.2592  0.2158 -0.0948
  376MOL0     H50743  10.684   7.675   1.625 -0.2485  1.5338  1.2440
  376MOL0     H50744  10.245   7.554   1.361 -0.8938  0.4561  0.0078
  376MOL0     H50745  10.075   7.668   1.242 -0.7249  1.4596 -1.0885
  376MOL0     H50746   9.631   9.122   0.654  2.2309 -2.5524 -1.7834
  376MOL0     H50747   9.615   9.357   0.577  1.4702 -0.0583 -2.8510
  376MOL0     H50748  10.045   9.791   0.382  0.4635  0.0378 -1.3265
  376MOL0     H50749   9.985  10.031   0.361 -0.5872  0.6968 -0.6832
  376MOL0     H50750   9.626  10.204   0.556 -1.2138  0.6625  0.6358
  376MOL0     H50751   9.778  10.193   0.656 -1.4445 -1.3982 -0.6876
  376MOL0     H50752   9.679  10.414   0.611 -0.3100  1.6202 -1.4345
  376MOL0     H50753   9.681  10.390   0.437 -0.3206  2.3326  1.0579
  376MOL0     H50754   9.890  10.395   0.391  4.3339  0.3175  0.0994
  376MOL0     H50755   9.938  10.350   0.556 -1.5513  0.8514  2.1735
  376MOL0     H50756  10.020  10.577   0.546  0.0810 -0.3049  3.8324
  376MOL0     H50757   9.874  10.600   0.639  0.2014  0.7253  1.1934
  376MOL0     H50758   9.779  10.786   0.262 -0.9087 -0.9240  1.5756
  376MOL0     H50759   9.670   9.998   0.629  1.9473  4.8481 -2.1536
  376MOL0     H50760   9.698   9.762   0.660 -0.3375 -0.3328 -0.2503
  377MOL0     O50761   6.884   2.816   5.052  0.2694  0.3810 -0.5015
  377MOL0     C50762   7.005   2.836   5.038 -1.6617 -0.2137 -0.3620
  377MOL0     O50763   7.067   2.956   5.002  0.3315  0.0810  0.5479
  377MOL0     C50764   6.993   3.058   4.947 -0.8277  0.2852 -0.2208
  377MOL0     C50765   6.869   3.104   5.000  0.4638  0.6053 -1.0003
  377MOL0     C50766   6.794   3.203   4.938 -0.6405  0.1474 -0.8903
  377MOL0     C50767   6.841   3.280   4.833  0.7288  0.0729 -0.1788
  377MOL0     O50768   6.777   3.375   4.755  1.4150  0.0792  0.1690
  377MOL0     C50769   6.642   3.412   4.787 -0.1429 -0.3365  0.2873
  377MOL0     C50770   6.552   3.301   4.735 -0.5574  0.2260  1.2705
  377MOL0     C50771   6.403   3.342   4.722  0.6101  0.0473  0.0491
  377MOL0     C50772   6.345   3.248   4.617 -0.1338 -0.3907 -0.6378
  377MOL0     C50773   6.194   3.261   4.636 -0.2258 -0.6300  0.4397
  377MOL0     C50774   6.128   3.130   4.615  0.1247 -0.0591 -0.2010
  377MOL0     C50775   5.979   3.150   4.621  0.6397 -0.6840 -0.8471
  377MOL0     C50776   5.897   3.026   4.606 -1.1093  0.3651 -0.9083
  377MOL0     N50777   5.812   2.973   4.722  0.2104  0.0744  0.2134
  377MOL0     C50778   5.853   2.953   4.852 -0.1835  0.0043 -1.3911
  377MOL0     C50779   5.756   2.885   4.914  0.7068  0.3070 -0.3610
  377MOL0     C50780   5.742   2.842   5.061  0.0969 -0.7523 -0.0145
  377MOL0     C50781   5.794   2.696   5.084  0.5355  0.2398  0.0685
  377MOL0     C50782   5.811   2.662   5.235 -0.1850  0.4771  0.0834
  377MOL0     C50783   5.683   2.621   5.307 -0.1107  0.5765  0.3732
  377MOL0     O50784   5.713   2.594   5.447  0.0644  0.4508 -0.2996
  377MOL0     C50785   5.651   2.493   5.513 -0.1432 -0.6523  0.5910
  377MOL0     C50786   5.513   2.479   5.515 -0.4233 -0.5578  0.7298
  377MOL0     C50787   5.458   2.379   5.597  0.2426  0.5793  0.2079
  377MOL0     C50788   5.319   2.348   5.567  0.4706 -0.1005  0.4033
  377MOL0     C50789   5.541   2.298   5.678 -0.8170 -0.5439 -0.7148
  377MOL0     C50790   5.498   2.182   5.762  0.0873 -0.6474  0.6243
  377MOL0     O50791   5.588   2.106   5.818  0.6526 -0.4082  0.0926
  377MOL0     C50792   5.558   1.983   5.874  0.2864 -0.1320 -1.1420
  377MOL0     C50793   5.616   1.949   5.993 -0.5095  0.6977 -0.8945
  377MOL0     C50794   5.592   1.816   6.040 -0.4676 -0.0910 -0.0118
  377MOL0     C50795   5.512   1.727   5.969 -0.4127  0.5979  0.0376
  377MOL0     O50796   5.497   1.600   6.029  0.2168 -1.1679 -0.7187
  377MOL0     C50797   5.622   1.530   6.026  0.2145 -0.5533 -0.7640
  377MOL0     C50798   5.594   1.382   6.033 -0.2893 -0.4515 -0.2570
  377MOL0     C50799   5.490   1.329   5.937 -0.6890 -0.7463 -0.6346
  377MOL0     C50800   5.514   1.178   5.916 -0.1855 -0.5530 -0.3786
  377MOL0     C50801   5.408   1.092   5.861 -1.5258  0.5948  0.1744
  377MOL0     C50802   5.388   1.129   5.714 -0.0469  0.7672  0.0006
  377MOL0     C50803   5.272   1.047   5.647  0.3506 -0.6715 -0.6265
  377MOL0     C50804   5.131   1.066   5.709 -0.1574 -0.6540 -0.2112
  377MOL0    Cl50805   5.096   1.244   5.705  0.3802  0.0460  0.4612
  377MOL0     C50806   5.476   1.757   5.839  0.5848 -0.1375 -0.6890
  377MOL0     C50807   5.491   1.886   5.797  0.6563  0.1038 -0.2744
  377MOL0     O50808   5.378   2.166   5.777  0.3835  0.5138  0.0724
  377MOL0     C50809   5.680   2.319   5.677  0.0274 -0.8141 -0.8472
  377MOL0     C50810   5.733   2.414   5.597 -0.8661  0.7340 -0.4024
  377MOL0     N50811   5.659   2.869   4.826 -0.1169 -0.0378 -0.2404
  377MOL0     N50812   5.693   2.906   4.707  0.5161  0.0976 -0.3972
  377MOL0     C50813   6.965   3.254   4.788 -0.0916 -0.0293  0.1734
  377MOL0     C50814   7.034   3.138   4.836  0.6756  0.6165 -0.3238
  377MOL0     C50815   7.102   2.734   5.082 -0.2407  0.3950 -0.7056
  377MOL0     C50816   7.238   2.765   5.101  0.1543 -0.8142 -0.5459
  377MOL0     C50817   7.321   2.662   5.140 -0.4717 -0.1560  0.8053
  377MOL0     C50818   7.272   2.530   5.164 -0.8154  0.5668 -1.1222
  377MOL0     O50819   7.376   2.448   5.208  0.4136  0.6087  0.1368
  377MOL0     C50820   7.333   2.324   5.268  0.0895 -0.1137 -0.0217
  377MOL0     C50821   7.455   2.240   5.311 -0.6714  0.3780 -0.0902
  377MOL0     C50822   7.531   2.296   5.426 -0.2195  0.0822 -0.6856
  377MOL0     C50823   7.636   2.201   5.468 -0.7119  0.7492  0.6424
  377MOL0     C50824   7.759   2.211   5.383 -0.5389  0.0278 -1.3572
  377MOL0     C50825   7.868   2.220   5.328  1.2061 -1.4424  0.2863
  377MOL0     C50826   7.132   2.500   5.143 -0.5996  0.4461  0.5119
  377MOL0     C50827   7.054   2.606   5.101  1.3251  0.2113 -1.0378
  377MOL0     H50828   6.813   3.064   5.084 -1.5358  2.4574 -1.3574
  377MOL0     H50829   6.693   3.219   4.973 -0.0941  1.2563  0.2421
  377MOL0     H50830   6.630   3.428   4.894 -1.0561  1.1426 -0.0089
  377MOL0     H50831   6.621   3.509   4.741 -2.3504 -0.7999  0.2233
  377MOL0     H50832   6.576   3.262   4.636 -4.4807  0.2064  0.1518
  377MOL0     H50833   6.560   3.216   4.803 -2.0549 -1.4800 -0.5801
  377MOL0     H50834   6.352   3.333   4.818  0.7043 -4.2397 -0.1083
  377MOL0     H50835   6.393   3.445   4.686  1.1058  0.1125  0.0889
  377MOL0     H50836   6.384   3.291   4.524  3.4491 -0.3842  0.7216
  377MOL0     H50837   6.388   3.148   4.622  5.3617  1.6943  2.5567
  377MOL0     H50838   6.167   3.293   4.737  2.0007 -3.1025  1.9203
  377MOL0     H50839   6.161   3.333   4.560  2.1177 -4.1364 -4.4355
  377MOL0     H50840   6.151   3.075   4.523 -3.1441 -3.9498  0.9810
  377MOL0     H50841   6.166   3.062   4.691  2.3748 -0.2600 -1.4303
  377MOL0     H50842   5.959   3.207   4.713  2.3644 -0.4595 -0.5731
  377MOL0     H50843   5.954   3.202   4.528 -0.4013  0.2649 -0.0659
  377MOL0     H50844   5.965   2.952   4.561 -2.8172 -0.1099 -2.8439
  377MOL0     H50845   5.833   3.037   4.518  0.7629 -0.1497 -2.4039
  377MOL0     H50846   5.931   3.009   4.904 -1.6707  0.2409  0.7011
  377MOL0     H50847   5.807   2.910   5.118 -1.2290  1.4536 -0.9945
  377MOL0     H50848   5.646   2.857   5.110  1.5779  1.2830  2.4603
  377MOL0     H50849   5.894   2.679   5.043  0.6659  0.0421  0.4550
  377MOL0     H50850   5.720   2.634   5.032 -2.7019  3.5128  0.3963
  377MOL0     H50851   5.858   2.743   5.291  4.3634 -0.3668 -2.0195
  377MOL0     H50852   5.868   2.569   5.234 -0.2214  0.4515  0.4713
  377MOL0     H50853   5.642   2.535   5.253  1.8482 -1.3547  1.7535
  377MOL0     H50854   5.600   2.691   5.315 -1.2311 -0.7702  1.0400
  377MOL0     H50855   5.462   2.542   5.442  1.9907 -0.7780 -1.2987
  377MOL0     H50856   5.263   2.353   5.660  0.5163  1.5249  0.3778
  377MOL0     H50857   5.267   2.423   5.506 -0.8978 -0.7787  0.6957
  377MOL0     H50858   5.301   2.255   5.512 -0.2366 -0.7165  1.6396
  377MOL0     H50859   5.681   2.023   6.039 -0.3520  1.5837 -2.4762
  377MOL0     H50860   5.632   1.798   6.139 -1.3062  0.5200  0.4585
  377MOL0     H50861   5.687   1.556   5.941  0.4855 -1.2584 -0.7826
  377MOL0     H50862   5.675   1.567   6.114  0.5378  1.4386 -1.7429
  377MOL0     H50863   5.688   1.331   6.010 -0.2901 -0.5628 -0.0200
  377MOL0     H50864   5.564   1.356   6.136 -1.7976  2.0413  0.0175
  377MOL0     H50865   5.496   1.394   5.849 -0.4927  1.3222  0.8142
  377MOL0     H50866   5.395   1.343   5.989 -1.2407  0.3003 -1.8914
  377MOL0     H50867   5.600   1.163   5.851  0.9352 -1.8455  1.3036
  377MOL0     H50868   5.546   1.150   6.017 -0.9823  2.1522  0.7020
  377MOL0     H50869   5.317   1.121   5.915 -0.3085  4.3369  0.4860
  377MOL0     H50870   5.426   0.985   5.874  0.6482  0.8971 -0.0083
  377MOL0     H50871   5.376   1.234   5.687  0.3995  0.6548 -0.6759
  377MOL0     H50872   5.482   1.107   5.662 -0.1206  2.5485 -0.9571
  377MOL0     H50873   5.297   0.941   5.651  1.7376 -0.3363  1.1642
  377MOL0     H50874   5.266   1.077   5.542 -0.3634  4.0181  0.4906
  377MOL0     H50875   5.111   1.022   5.807  0.2815 -0.8759 -0.2160
  377MOL0     H50876   5.054   1.016   5.649 -0.9523  0.8905 -0.5299
  377MOL0     H50877   5.425   1.678   5.786 -0.8313  1.4993 -1.8969
  377MOL0     H50878   5.449   1.918   5.702  2.7832 -1.1556 -1.7280
  377MOL0     H50879   5.753   2.270   5.741  0.4212  1.3422  0.4394
  377MOL0     H50880   5.839   2.436   5.602 -0.2980 -0.5529 -3.9849
  377MOL0     H50881   7.006   3.306   4.702  0.7446 -1.5797 -0.3880
  377MOL0     H50882   7.125   3.105   4.786 -0.4152 -1.8691 -0.8276
  377MOL0     H50883   7.287   2.861   5.091  1.1884 -1.5235 -3.1020
  377MOL0     H50884   7.428   2.675   5.155 -0.4270  0.4766  0.0549
  377MOL0     H50885   7.264   2.328   5.353 -0.0257  0.6900 -0.1504
  377MOL0     H50886   7.283   2.261   5.194 -0.2452  0.0214  0.0860
  377MOL0     H50887   7.519   2.222   5.224  2.0837 -3.2334  2.3872
  377MOL0     H50888   7.418   2.139   5.330 -2.9520  0.3863 -3.5967
  377MOL0     H50889   7.466   2.300   5.514 -0.5338 -0.2356 -0.8998
  377MOL0     H50890   7.575   2.392   5.398  0.5767 -0.3189 -0.8390
  377MOL0     H50891   7.601   2.098   5.468  2.5608 -0.4902 -1.2744
  377MOL0     H50892   7.664   2.229   5.571 -0.1130 -0.7473  0.9018
  377MOL0     H50893   7.965   2.215   5.282 -0.0677  0.8332 -2.9922
  377MOL0     H50894   7.095   2.401   5.168  1.1257 -0.5068 -0.4880
  377MOL0     H50895   6.950   2.578   5.094  0.6130  1.0299  3.3770
  378MOL0     O50896   6.817   5.650   5.548 -0.6242  0.0472  0.0046
  378MOL0     C50897   6.874   5.668   5.440  0.2758 -0.1050 -0.8426
  378MOL0     O50898   6.824   5.746   5.342  0.3380  0.0005 -0.1661
  378MOL0     C50899   6.713   5.829   5.359  0.3189  1.0313 -0.4826
  378MOL0     C50900   6.641   5.860   5.241  0.4937  0.1593 -0.0173
  378MOL0     C50901   6.545   5.958   5.258  0.1142  0.4219 -0.0151
  378MOL0     C50902   6.516   6.015   5.381  0.4587  0.3374 -0.2438
  378MOL0     O50903   6.421   6.109   5.396 -0.0556 -0.6888 -0.2021
  378MOL0     C50904   6.284   6.049   5.387 -0.0728 -0.6915  0.5689
  378MOL0     C50905   6.181   6.144   5.447 -0.3932  0.2573 -0.7841
  378MOL0     C50906   6.189   6.293   5.389  0.2081  0.9052  0.5555
  378MOL0     C50907   6.113   6.379   5.477  0.5414 -0.5593  0.0712
  378MOL0     C50908   6.098   6.520   5.431  0.2656 -0.3241 -0.0920
  378MOL0     C50909   6.000   6.599   5.514  0.7582 -0.8081 -0.3173
  378MOL0     C50910   6.036   6.602   5.658 -0.6496 -0.0172  0.0129
  378MOL0     C50911   6.016   6.737   5.732 -0.6259 -0.4429  0.6840
  378MOL0     N50912   5.878   6.770   5.758  0.8682  1.0795  0.3662
  378MOL0     C50913   5.788   6.707   5.844 -0.2804 -0.4129  0.7696
  378MOL0     C50914   5.665   6.740   5.794 -0.3804  0.3238 -0.1063
  378MOL0     C50915   5.532   6.740   5.870 -0.0456  0.0732 -0.2345
  378MOL0     C50916   5.493   6.884   5.898  0.2194  1.3820 -0.4663
  378MOL0     C50917   5.587   6.957   5.994 -0.2128 -0.2410  0.6143
  378MOL0     C50918   5.529   7.092   6.022 -0.1533 -0.2819  0.4914
  378MOL0     O50919   5.465   7.153   5.906 -0.3298 -0.3437 -0.1904
  378MOL0     C50920   5.362   7.231   5.937  0.5445  0.0842 -0.9442
  378MOL0     C50921   5.303   7.291   5.828  1.1570 -0.4749  0.0469
  378MOL0     C50922   5.198   7.387   5.842 -0.7882  0.5361  0.1945
  378MOL0     C50923   5.164   7.456   5.716  0.1076 -0.5074 -0.0329
  378MOL0     C50924   5.165   7.430   5.976 -0.5462 -1.3485  1.0088
  378MOL0     C50925   5.071   7.539   5.982  0.8179 -0.7610  0.0215
  378MOL0     O50926   5.083   7.636   6.081  0.0287  0.2892  0.0953
  378MOL0     C50927   4.959   7.695   6.112 -0.7169  0.4179 -1.4394
  378MOL0     C50928   4.869   7.629   6.193 -0.2442 -0.2001 -1.1130
  378MOL0     C50929   4.742   7.682   6.223  0.2105 -0.3913 -0.7470
  378MOL0     C50930   4.708   7.810   6.174 -0.2244  0.6401 -0.7457
  378MOL0     O50931   4.584   7.845   6.216 -0.1542  0.1186 -0.6552
  378MOL0     C50932   4.522   7.956   6.157 -0.0631 -0.7116 -0.8016
  378MOL0     C50933   4.447   7.934   6.024  0.0015  0.2853 -0.1377
  378MOL0     C50934   4.402   8.065   5.970  0.4936  0.3474 -0.1511
  378MOL0     C50935   4.331   8.042   5.833 -0.8228 -0.3024  0.2703
  378MOL0     C50936   4.422   8.008   5.719  0.0181  0.0784  0.1945
  378MOL0     C50937   4.350   8.047   5.586  0.2261 -0.6546  0.0658
  378MOL0     C50938   4.392   7.964   5.465  0.2077  0.6431 -0.2782
  378MOL0     C50939   4.329   8.011   5.341 -0.5145  0.7328 -0.0007
  378MOL0    Cl50940   4.385   8.174   5.292  0.1522 -0.1172  0.2900
  378MOL0     C50941   4.800   7.878   6.096  0.8153  0.2006 -0.2831
  378MOL0     C50942   4.930   7.821   6.065 -0.4262  0.8310  0.5956
  378MOL0     O50943   4.967   7.533   5.908 -0.1833  0.5294  0.1153
  378MOL0     C50944   5.235   7.379   6.087  0.6499 -0.3917 -0.3586
  378MOL0     C50945   5.326   7.280   6.070 -0.9827  0.1275  0.5442
  378MOL0     N50946   5.682   6.796   5.668 -0.3111 -0.0497 -0.4718
  378MOL0     N50947   5.805   6.819   5.648  1.2349 -0.3963 -0.8420
  378MOL0     C50948   6.589   5.973   5.501 -0.3014  0.1564  0.4671
  378MOL0     C50949   6.691   5.892   5.489  0.0319  0.1513 -0.4973
  378MOL0     C50950   7.002   5.591   5.404  0.7750  0.5171  0.2338
  378MOL0     C50951   7.057   5.598   5.273 -0.3808  0.5521  0.3681
  378MOL0     C50952   7.169   5.519   5.236  0.3422  1.0087  0.3985
  378MOL0     C50953   7.222   5.422   5.320  0.6354 -1.4988 -0.1811
  378MOL0     O50954   7.302   5.321   5.265 -0.2277  0.2438  0.8092
  378MOL0     C50955   7.418   5.308   5.332  0.7458  0.1684 -0.5912
  378MOL0     C50956   7.502   5.222   5.251 -0.1440 -0.4987 -0.0218
  378MOL0     C50957   7.548   5.302   5.125  1.4348 -0.5112  0.3375
  378MOL0     C50958   7.629   5.440   5.156  0.2113 -0.0842  0.5237
  378MOL0     C50959   7.546   5.563   5.166 -0.1978 -0.0444 -0.2731
  378MOL0     C50960   7.477   5.663   5.185  0.1095 -0.6616 -0.8206
  378MOL0     C50961   7.167   5.420   5.449  0.0307 -0.2785  0.6729
  378MOL0     C50962   7.063   5.496   5.489  0.3906  0.3365  0.0077
  378MOL0     H50963   6.659   5.823   5.140  2.4953 -0.2103  0.4246
  378MOL0     H50964   6.485   5.991   5.175 -1.6231  1.3302  1.5367
  378MOL0     H50965   6.252   6.042   5.283  5.2566 -1.0869 -1.3506
  378MOL0     H50966   6.283   5.955   5.443  2.7533 -1.6307 -0.7941
  378MOL0     H50967   6.087   6.106   5.407 -0.8586 -1.2371  1.5699
  378MOL0     H50968   6.183   6.131   5.555 -3.6773 -2.5591 -0.8994
  378MOL0     H50969   6.294   6.324   5.387  0.5459  0.1760 -4.0152
  378MOL0     H50970   6.153   6.297   5.286 -0.5336  0.4690  0.7953
  378MOL0     H50971   6.014   6.333   5.468  0.0661  0.2897  0.7315
  378MOL0     H50972   6.158   6.367   5.577 -0.7675 -2.3189  0.4875
  378MOL0     H50973   6.202   6.551   5.443  0.8762 -2.1839 -0.1618
  378MOL0     H50974   6.071   6.525   5.326 -0.9024 -0.1715  0.2020
  378MOL0     H50975   6.006   6.703   5.481  3.0808 -0.3193  1.4012
  378MOL0     H50976   5.897   6.564   5.504 -0.4669  2.6039 -0.8256
  378MOL0     H50977   5.983   6.528   5.718 -1.5304  2.0858  1.9538
  378MOL0     H50978   6.143   6.578   5.659 -0.3977  0.8363 -1.8946
  378MOL0     H50979   6.056   6.821   5.673  0.9669 -1.0883  0.7976
  378MOL0     H50980   6.073   6.737   5.825  0.2293  1.9908  0.2349
  378MOL0     H50981   5.806   6.659   5.939  0.7471  1.3740  1.5227
  378MOL0     H50982   5.457   6.690   5.808  0.1973 -1.3653  0.5679
  378MOL0     H50983   5.538   6.678   5.961 -3.9188  1.1457  0.9322
  378MOL0     H50984   5.398   6.877   5.953  1.0162  2.6995  1.2049
  378MOL0     H50985   5.480   6.932   5.801  0.4671  2.8545  0.1871
  378MOL0     H50986   5.683   6.958   5.942 -0.8667 -1.0404 -0.6515
  378MOL0     H50987   5.599   6.906   6.090 -1.4263  2.4848  2.3400
  378MOL0     H50988   5.603   7.160   6.065 -0.5764 -0.4353  1.4975
  378MOL0     H50989   5.452   7.076   6.098 -0.9074 -3.6152 -0.7695
  378MOL0     H50990   5.337   7.259   5.730  0.5003  1.0248 -0.7067
  378MOL0     H50991   5.196   7.391   5.634  1.0209 -1.9285  1.3965
  378MOL0     H50992   5.056   7.464   5.703  0.3301  3.1849 -0.9011
  378MOL0     H50993   5.212   7.555   5.717 -1.1448  0.1200 -0.2030
  378MOL0     H50994   4.892   7.536   6.243 -2.0194  0.2050  0.5644
  378MOL0     H50995   4.679   7.634   6.296 -1.2228  3.3580  0.7532
  378MOL0     H50996   4.438   7.981   6.222  0.4058  1.0061 -0.7893
  378MOL0     H50997   4.586   8.045   6.150 -2.8693  1.6512  1.0760
  378MOL0     H50998   4.512   7.870   5.963 -0.5998 -0.8608  0.3890
  378MOL0     H50999   4.362   7.872   6.053 -0.3549  1.6239  1.8206
  378MOL0     H51000   4.493   8.122   5.953  0.3412  0.6168 -0.0654
  378MOL0     H51001   4.340   8.127   6.035  0.8341  0.5472 -0.0170
  378MOL0     H51002   4.251   7.972   5.855 -3.5142  2.3384 -0.4827
  378MOL0     H51003   4.275   8.132   5.805  0.0226  0.4084  0.7818
  378MOL0     H51004   4.468   7.909   5.710  3.1759  1.5322 -1.8283
  378MOL0     H51005   4.514   8.068   5.728 -1.3460  2.1601  1.0036
  378MOL0     H51006   4.245   8.023   5.603 -0.6078  1.3000 -1.8306
  378MOL0     H51007   4.363   8.155   5.572 -1.5620 -0.5622 -1.2635
  378MOL0     H51008   4.360   7.861   5.481 -3.2455  1.8358  1.6626
  378MOL0     H51009   4.501   7.968   5.451  0.3662 -0.2459  0.5324
  378MOL0     H51010   4.221   7.996   5.348 -0.1426 -1.7073  2.1531
  378MOL0     H51011   4.368   7.954   5.256  1.0308 -1.2647  1.9409
  378MOL0     H51012   4.764   7.970   6.052 -1.4387 -0.6031 -0.2585
  378MOL0     H51013   4.998   7.874   5.998 -0.6167 -0.7012 -0.8727
  378MOL0     H51014   5.203   7.395   6.189 -0.2542 -1.2190 -0.5033
  378MOL0     H51015   5.365   7.249   6.166  1.6584  1.9235  0.1619
  378MOL0     H51016   6.568   6.020   5.597  1.2539 -0.8909  1.3591
  378MOL0     H51017   6.757   5.872   5.573 -0.3862  1.0734  0.0699
  378MOL0     H51018   7.014   5.659   5.193  2.0669 -1.1163 -2.4224
  378MOL0     H51019   7.198   5.536   5.133 -2.8028 -0.6967 -0.9117
  378MOL0     H51020   7.466   5.404   5.352  1.3732 -0.5237  1.4124
  378MOL0     H51021   7.389   5.258   5.425  3.1862  0.3486  0.3239
  378MOL0     H51022   7.448   5.131   5.224 -0.9544 -1.1501  3.3050
  378MOL0     H51023   7.589   5.197   5.313  1.1060 -0.9116 -1.8743
  378MOL0     H51024   7.464   5.332   5.061  0.7379 -0.0204  1.4529
  378MOL0     H51025   7.604   5.234   5.061  2.6081  0.8326 -0.1251
  378MOL0     H51026   7.712   5.457   5.087  0.3958  0.9789  0.9829
  378MOL0     H51027   7.686   5.433   5.249  0.4998 -0.4315  0.3203
  378MOL0     H51028   7.425   5.754   5.203  3.8416  1.1228  2.5436
  378MOL0     H51029   7.213   5.349   5.517 -0.4086  1.2673  2.7206
  378MOL0     H51030   7.014   5.464   5.580 -0.2965 -2.1087 -1.1479
  379MOL0     O51031   9.643   3.185   6.408  0.3078  0.4959 -0.6069
  379MOL0     C51032   9.670   3.262   6.506  0.2650  0.2552  0.4303
  379MOL0     O51033   9.700   3.396   6.502  0.2403 -0.0297 -0.7633
  379MOL0     C51034   9.674   3.483   6.394  0.4496  0.2558 -0.0139
  379MOL0     C51035   9.758   3.590   6.375 -0.3840 -0.6583 -0.7733
  379MOL0     C51036   9.720   3.687   6.280  0.2660  0.2225  0.6483
  379MOL0     C51037   9.606   3.676   6.196  0.1735 -0.1712  0.2669
  379MOL0     O51038   9.579   3.777   6.108  0.0215  0.0371 -0.7805
  379MOL0     C51039   9.514   3.730   5.991 -0.6019  0.2557  0.6892
  379MOL0     C51040   9.489   3.847   5.883  1.8961  0.4498  0.1080
  379MOL0     C51041   9.413   3.979   5.936 -0.7564 -0.6572 -0.1978
  379MOL0     C51042   9.265   3.955   5.962 -0.1280  0.5427 -0.7350
  379MOL0     C51043   9.191   4.089   5.996  1.0253  0.3945  0.2941
  379MOL0     C51044   9.221   4.217   5.921 -0.7622 -1.4273  0.4668
  379MOL0     C51045   9.111   4.326   5.921 -0.7660 -0.0158  0.6449
  379MOL0     C51046   9.079   4.430   6.037 -0.3691 -0.1073  0.5529
  379MOL0     N51047   9.207   4.495   6.086  0.6076 -0.1503  0.3339
  379MOL0     C51048   9.316   4.436   6.136  0.7232  0.0334  0.3581
  379MOL0     C51049   9.406   4.539   6.141 -0.4025 -0.7549  0.0828
  379MOL0     C51050   9.553   4.502   6.170  1.4810  0.3163 -0.9955
  379MOL0     C51051   9.649   4.542   6.061  0.2437  0.6757 -0.5288
  379MOL0     C51052   9.792   4.556   6.129 -0.1918  0.4303 -0.3164
  379MOL0     C51053   9.902   4.480   6.061 -0.2638 -0.2057 -0.2781
  379MOL0     O51054   9.868   4.342   6.068 -0.2911  0.0239  0.2645
  379MOL0     C51055   9.956   4.241   6.099  0.6929 -0.0262 -1.2423
  379MOL0     C51056   9.905   4.118   6.079  0.3335 -0.0059 -0.1218
  379MOL0     C51057   9.978   4.001   6.071 -0.4219  0.2126 -0.4876
  379MOL0     C51058   9.910   3.873   6.029  0.2821 -0.1337  0.1384
  379MOL0     C51059  10.117   4.008   6.096 -0.3130  0.4698  0.5451
  379MOL0     C51060  10.214   3.897   6.093 -0.1753  0.2185  0.9554
  379MOL0     O51061  10.347   3.926   6.103 -0.1086  0.1024 -0.4033
  379MOL0     C51062  10.424   3.814   6.121  0.7348 -0.1571 -0.1197
  379MOL0     C51063  10.419   3.743   6.238  0.0291  0.4768  0.3848
  379MOL0     C51064  10.506   3.630   6.257 -0.9318 -0.3951  0.2350
  379MOL0     C51065  10.593   3.586   6.149 -0.1579 -0.7332  0.2537
  379MOL0     O51066  10.672   3.474   6.153 -0.4481 -0.1400 -0.0803
  379MOL0     C51067  10.774   3.458   6.052  0.3158  0.8314  1.1858
  379MOL0     C51068  10.871   3.334   6.065  0.3615  0.9228 -0.7702
  379MOL0     C51069  10.826   3.223   6.156  0.1020 -0.3610  0.6552
  379MOL0     C51070  10.900   3.235   6.291 -1.2010 -0.3869 -0.2257
  379MOL0     C51071  11.020   3.138   6.325 -0.6306  0.3272  0.1914
  379MOL0     C51072  11.132   3.157   6.216  0.7547  0.4654 -0.3419
  379MOL0     C51073  11.250   3.068   6.244  0.3292 -0.3631  0.1403
  379MOL0     C51074  11.378   3.140   6.212 -1.3818  0.2979  0.1510
  379MOL0    Cl51075  11.378   3.210   6.051  0.4409 -0.2418  0.0037
  379MOL0     C51076  10.580   3.663   6.024  0.1798  0.6900 -0.0384
  379MOL0     C51077  10.497   3.773   6.012 -0.2249  0.3494 -0.5778
  379MOL0     O51078  10.167   3.783   6.094 -0.1576 -0.0200  0.8096
  379MOL0     C51079  10.166   4.142   6.128 -0.4279  0.0711  0.0944
  379MOL0     C51080  10.088   4.259   6.132  0.6582 -0.2264  0.8854
  379MOL0     N51081   9.347   4.660   6.097  0.3976  0.0607  0.1427
  379MOL0     N51082   9.226   4.634   6.057 -0.2438  0.6394 -0.8259
  379MOL0     C51083   9.523   3.568   6.219 -0.2695  0.9999  0.6527
  379MOL0     C51084   9.559   3.468   6.317 -0.2373  0.3386  0.1241
  379MOL0     C51085   9.676   3.204   6.649 -0.3338 -0.0558  0.0744
  379MOL0     C51086   9.599   3.094   6.685 -0.0428  0.3428  0.7582
  379MOL0     C51087   9.589   3.051   6.816  0.2496  0.5349  0.5492
  379MOL0     C51088   9.678   3.095   6.912  0.2586 -0.0563  0.2235
  379MOL0     O51089   9.673   3.040   7.044  0.3393  0.2005  0.5264
  379MOL0     C51090   9.752   2.919   7.057 -0.2673  0.4626 -1.3332
  379MOL0     C51091   9.665   2.794   7.069 -0.1297 -0.5730  0.3610
  379MOL0     C51092   9.568   2.803   7.182  0.1022 -0.0232  0.4392
  379MOL0     C51093   9.476   2.677   7.215  0.9100  0.4203 -0.3817
  379MOL0     C51094   9.376   2.657   7.107 -0.7374  1.1427 -0.1099
  379MOL0     C51095   9.285   2.632   7.029 -0.4682 -0.5905 -0.1268
  379MOL0     C51096   9.763   3.202   6.875  0.3540 -0.4264  0.3947
  379MOL0     C51097   9.756   3.263   6.748 -0.5159  0.8098 -0.3199
  379MOL0     H51098   9.845   3.606   6.438 -0.7784  2.8287 -0.9636
  379MOL0     H51099   9.774   3.779   6.262  0.1054  0.4001  1.0530
  379MOL0     H51100   9.574   3.653   5.941  1.7972  0.0848  3.5313
  379MOL0     H51101   9.412   3.696   6.012  0.2731 -2.4966  0.9360
  379MOL0     H51102   9.586   3.879   5.842  1.9393  0.2883  0.0830
  379MOL0     H51103   9.437   3.803   5.797  1.0642 -1.9901  1.7631
  379MOL0     H51104   9.458   4.014   6.029 -0.8510 -1.4934  0.1780
  379MOL0     H51105   9.428   4.059   5.864 -0.5008 -0.6457 -0.1321
  379MOL0     H51106   9.223   3.904   5.875 -1.7955 -2.2501  1.5518
  379MOL0     H51107   9.256   3.881   6.042  0.5614  0.4301 -0.7568
  379MOL0     H51108   9.088   4.079   5.963  1.9573  0.2740 -2.8762
  379MOL0     H51109   9.213   4.104   6.102  2.7070 -1.8204  0.3283
  379MOL0     H51110   9.318   4.253   5.955  0.9417 -3.6162 -1.7134
  379MOL0     H51111   9.239   4.195   5.815 -3.1169  2.9708 -1.0806
  379MOL0     H51112   9.142   4.397   5.844  0.1426  2.9233  3.4785
  379MOL0     H51113   9.019   4.277   5.888 -0.9130  1.2069 -0.8899
  379MOL0     H51114   9.038   4.364   6.114 -0.6411 -1.0862 -0.4055
  379MOL0     H51115   9.006   4.507   6.014 -1.5104 -1.0190  1.0111
  379MOL0     H51116   9.336   4.336   6.174 -1.6989  0.3357  2.7570
  379MOL0     H51117   9.584   4.546   6.266 -0.1006 -0.6347  0.0009
  379MOL0     H51118   9.561   4.394   6.189 -1.2611 -0.0309 -1.3614
  379MOL0     H51119   9.623   4.641   6.023  1.2257 -0.2506 -4.0219
  379MOL0     H51120   9.641   4.476   5.974 -3.1485  0.0504  0.1351
  379MOL0     H51121   9.773   4.522   6.232 -3.2592 -0.8238 -1.1731
  379MOL0     H51122   9.822   4.661   6.123  2.5287 -0.1741  1.1056
  379MOL0     H51123   9.994   4.504   6.115  0.4604 -1.6351 -0.8092
  379MOL0     H51124   9.916   4.508   5.956 -0.5967 -0.2570 -0.3367
  379MOL0     H51125   9.801   4.110   6.052 -0.4108 -0.1553  2.5145
  379MOL0     H51126   9.928   3.790   6.098  1.8736 -0.0975 -0.1920
  379MOL0     H51127   9.804   3.891   6.011  0.5018  0.5130 -0.5696
  379MOL0     H51128   9.951   3.840   5.933  0.8512  1.2610 -0.1146
  379MOL0     H51129  10.338   3.766   6.308 -0.4577 -2.9694  1.1478
  379MOL0     H51130  10.508   3.563   6.343  0.2961  1.8456  2.0450
  379MOL0     H51131  10.731   3.446   5.952  1.0064 -3.1566  1.2228
  379MOL0     H51132  10.836   3.548   6.051  3.3424 -1.1242  1.3386
  379MOL0     H51133  10.902   3.294   5.969  0.2917  1.8792 -1.2089
  379MOL0     H51134  10.965   3.373   6.106  0.0424 -1.2937  2.5214
  379MOL0     H51135  10.850   3.125   6.112 -3.2974 -0.2925 -1.7355
  379MOL0     H51136  10.717   3.232   6.164 -0.1595 -2.7876  0.6386
  379MOL0     H51137  10.943   3.334   6.310  0.7457 -1.0013 -1.2143
  379MOL0     H51138  10.822   3.232   6.368 -0.7823  0.1131  0.2293
  379MOL0     H51139  10.985   3.035   6.321 -0.1340  0.1809 -0.8315
  379MOL0     H51140  11.040   3.161   6.430  0.0974  1.4096 -0.1682
  379MOL0     H51141  11.096   3.147   6.113 -2.8919 -0.9235  0.9023
  379MOL0     H51142  11.177   3.254   6.238  0.5674  0.5058 -0.1351
  379MOL0     H51143  11.242   2.977   6.184  2.6858 -0.5676  0.0579
  379MOL0     H51144  11.231   3.051   6.350 -2.2712  4.8765  0.8617
  379MOL0     H51145  11.457   3.066   6.232 -1.9070 -1.1887 -2.7675
  379MOL0     H51146  11.401   3.225   6.277  3.2145 -1.4252  1.1610
  379MOL0     H51147  10.627   3.634   5.931 -2.8359 -0.5872 -1.3190
  379MOL0     H51148  10.497   3.823   5.915  3.9136 -0.9948 -1.4792
  379MOL0     H51149  10.269   4.168   6.150 -0.5643 -0.2663  1.2165
  379MOL0     H51150  10.131   4.357   6.148 -1.1137  0.7182  0.1342
  379MOL0     H51151   9.437   3.554   6.155 -0.7492 -2.7429  1.9076
  379MOL0     H51152   9.493   3.384   6.336  0.3782 -0.6518 -1.9016
  379MOL0     H51153   9.547   3.048   6.602  4.0672 -1.8533 -0.9131
  379MOL0     H51154   9.516   2.974   6.837 -0.0926  0.7503  0.1618
  379MOL0     H51155   9.814   2.894   6.970  0.4965 -1.3901 -0.3110
  379MOL0     H51156   9.818   2.926   7.143 -2.7574 -2.9471  1.1252
  379MOL0     H51157   9.738   2.714   7.086  1.2962  0.8357  1.1727
  379MOL0     H51158   9.610   2.783   6.975  0.9742 -0.6556 -0.2876
  379MOL0     H51159   9.494   2.882   7.165 -2.7415 -2.5913  0.0368
  379MOL0     H51160   9.633   2.824   7.267  1.5379 -1.0256 -0.3644
  379MOL0     H51161   9.413   2.675   7.304 -0.6985 -4.0688 -1.3204
  379MOL0     H51162   9.541   2.589   7.221  2.4273  1.5617  0.6008
  379MOL0     H51163   9.208   2.611   6.958 -1.1764  1.0166  0.1331
  379MOL0     H51164   9.819   3.237   6.961 -0.1605  2.0819 -0.2058
  379MOL0     H51165   9.804   3.357   6.722  2.5792 -1.2370 -2.7112
  380MOL0     O51166   1.879   0.224   6.177 -0.7141 -0.5729  0.3127
  380MOL0     C51167   1.957   0.126   6.169  0.1137  0.1051 -0.1530
  380MOL0     O51168   1.927  -0.008   6.176  0.7047 -0.4467 -0.1254
  380MOL0     C51169   1.795  -0.046   6.207 -0.4126  0.5566  0.6467
  380MOL0     C51170   1.681   0.018   6.157 -0.1937 -0.5989 -1.0411
  380MOL0     C51171   1.555  -0.042   6.163  0.7718  0.5783  0.1541
  380MOL0     C51172   1.538  -0.174   6.216 -1.0135 -0.8981  0.2246
  380MOL0     O51173   1.417  -0.237   6.237  0.5317 -0.1388  0.8133
  380MOL0     C51174   1.317  -0.188   6.142  0.7126  0.4834  0.2398
  380MOL0     C51175   1.338  -0.243   6.000  0.0653  0.6417 -0.6918
  380MOL0     C51176   1.322  -0.396   5.983  1.3068  0.4640 -0.9550
  380MOL0     C51177   1.173  -0.437   5.995  0.2636  1.6838 -0.1543
  380MOL0     C51178   1.154  -0.570   5.935  0.7912  0.0348 -0.1318
  380MOL0     C51179   1.201  -0.685   6.016 -0.4140  0.0848 -0.8095
  380MOL0     C51180   1.162  -0.817   5.945  0.1915  0.3141  0.1278
  380MOL0     C51181   1.251  -0.862   5.824  0.4802  0.1917 -0.2649
  380MOL0     N51182   1.209  -0.979   5.761  0.8628 -0.1274 -0.5258
  380MOL0     C51183   1.235  -1.113   5.799  0.3782 -0.2340 -0.4481
  380MOL0     C51184   1.192  -1.190   5.698  0.0090 -0.1668 -0.2543
  380MOL0     C51185   1.213  -1.340   5.681 -0.0937 -0.5735 -0.0533
  380MOL0     C51186   1.129  -1.426   5.775 -0.4637  1.0944  0.7840
  380MOL0     C51187   0.976  -1.426   5.746  0.7006 -0.1095  0.3011
  380MOL0     C51188   0.960  -1.495   5.613 -0.2177  0.1056 -0.1974
  380MOL0     O51189   0.990  -1.639   5.614  0.6761 -0.4690 -0.4920
  380MOL0     C51190   0.965  -1.723   5.503 -0.2269  0.1500  0.9296
  380MOL0     C51191   0.929  -1.685   5.378 -1.1609 -0.3198 -0.2354
  380MOL0     C51192   0.899  -1.768   5.272  0.2994  0.1159  0.1335
  380MOL0     C51193   0.852  -1.693   5.149  0.3982  0.2094  0.2540
  380MOL0     C51194   0.894  -1.910   5.290 -0.6671 -0.9067 -0.9294
  380MOL0     C51195   0.855  -2.011   5.190  1.0136  0.7896 -0.7077
  380MOL0     O51196   0.878  -2.148   5.211 -0.2651  0.7990 -0.6356
  380MOL0     C51197   0.866  -2.229   5.103 -0.5524 -1.0067 -0.1406
  380MOL0     C51198   0.752  -2.240   5.026 -0.3328 -1.2430  0.1098
  380MOL0     C51199   0.737  -2.339   4.922 -0.1273  0.3818  1.0884
  380MOL0     C51200   0.834  -2.430   4.906 -0.1301  0.2350 -0.5593
  380MOL0     O51201   0.822  -2.529   4.816 -0.4734  0.0754 -0.1668
  380MOL0     C51202   0.794  -2.656   4.862 -0.2149 -0.5322  0.0327
  380MOL0     C51203   0.857  -2.761   4.764  0.4640 -0.8014  0.1253
  380MOL0     C51204   1.003  -2.740   4.763 -0.2564 -0.5911 -0.4698
  380MOL0     C51205   1.076  -2.852   4.678 -0.7018  0.6304  0.6093
  380MOL0     C51206   1.221  -2.800   4.658  0.1720 -0.4691 -0.1877
  380MOL0     C51207   1.312  -2.785   4.787  0.6355 -0.2291  1.1336
  380MOL0     C51208   1.298  -2.906   4.877  0.2771 -0.2422 -0.2050
  380MOL0     C51209   1.423  -2.932   4.959 -0.6406 -0.4267  0.0607
  380MOL0    Cl51210   1.412  -3.075   5.056  0.5105 -0.0569 -0.4667
  380MOL0     C51211   0.939  -2.432   5.000  0.8220 -0.0577 -0.0255
  380MOL0     C51212   0.959  -2.333   5.098  0.0375 -0.2629  0.5265
  380MOL0     O51213   0.797  -1.967   5.095 -0.2469  0.3320  0.0056
  380MOL0     C51214   0.944  -1.951   5.414  0.3344 -1.1157  0.0596
  380MOL0     C51215   0.977  -1.861   5.512  0.0947 -0.7305  0.1933
  380MOL0     N51216   1.139  -1.103   5.604 -0.9208 -0.3348  1.0640
  380MOL0     N51217   1.148  -0.980   5.641  1.0962 -0.2477  0.1822
  380MOL0     C51218   1.646  -0.221   6.287 -0.2123 -0.0281 -0.6090
  380MOL0     C51219   1.771  -0.170   6.270  0.0047 -0.1744 -0.7681
  380MOL0     C51220   2.104   0.155   6.171 -0.6537  0.6093  0.9559
  380MOL0     C51221   2.202   0.051   6.192 -0.2809 -0.0058 -0.1022
  380MOL0     C51222   2.338   0.076   6.211 -0.2822 -0.0726 -0.5004
  380MOL0     C51223   2.384   0.206   6.191 -0.2127 -0.6454  0.1739
  380MOL0     O51224   2.510   0.230   6.208  0.3239 -0.8021  0.2586
  380MOL0     C51225   2.591   0.201   6.099 -1.0344 -0.7418 -0.0021
  380MOL0     C51226   2.729   0.162   6.141 -0.4518 -0.0888 -0.0115
  380MOL0     C51227   2.828   0.275   6.153  0.1813  0.6886  0.9214
  380MOL0     C51228   2.775   0.391   6.234 -1.0743 -0.3272  0.7785
  380MOL0     C51229   2.798   0.368   6.380  0.2215 -0.2070 -0.8128
  380MOL0     C51230   2.782   0.380   6.502  1.1694  0.0626  0.2868
  380MOL0     C51231   2.291   0.309   6.158 -0.9632 -0.3634  0.2228
  380MOL0     C51232   2.151   0.284   6.163 -0.7152 -0.2562 -1.0945
  380MOL0     H51233   1.689   0.099   6.085 -1.4759 -0.0648 -0.6172
  380MOL0     H51234   1.476   0.011   6.110  0.4082 -0.4176 -0.3281
  380MOL0     H51235   1.217  -0.229   6.164  0.8504 -3.4797 -4.6706
  380MOL0     H51236   1.302  -0.079   6.146  0.5297  0.4165  1.9355
  380MOL0     H51237   1.257  -0.198   5.942 -0.4277  0.3766 -0.2164
  380MOL0     H51238   1.429  -0.213   5.946 -2.1765  2.8892 -3.5691
  380MOL0     H51239   1.348  -0.415   5.879  1.3700 -1.2940 -0.6410
  380MOL0     H51240   1.384  -0.457   6.050 -2.9411 -0.6667  2.4097
  380MOL0     H51241   1.137  -0.441   6.098 -0.0507  0.6462 -0.2972
  380MOL0     H51242   1.124  -0.361   5.933 -1.1072  0.5480 -0.5149
  380MOL0     H51243   1.047  -0.593   5.923  0.3767  1.0779  1.2042
  380MOL0     H51244   1.202  -0.576   5.837  3.7565  2.1041  1.0629
  380MOL0     H51245   1.309  -0.673   6.029 -0.2828 -0.5677 -1.2327
  380MOL0     H51246   1.158  -0.683   6.116  3.4939 -2.6230  1.2013
  380MOL0     H51247   1.161  -0.894   6.023  0.9196 -1.3420 -1.4174
  380MOL0     H51248   1.058  -0.821   5.911 -0.6930  0.2205  2.6583
  380MOL0     H51249   1.352  -0.884   5.862 -0.5032 -1.0480  1.8360
  380MOL0     H51250   1.245  -0.782   5.750 -0.5316  1.9935  1.6691
  380MOL0     H51251   1.283  -1.152   5.889 -0.5756  1.7034  0.9737
  380MOL0     H51252   1.200  -1.377   5.579  4.3800  0.6411 -1.2966
  380MOL0     H51253   1.321  -1.353   5.691  0.3292  0.3994 -2.6844
  380MOL0     H51254   1.146  -1.408   5.881  1.5044 -0.4881  0.7986
  380MOL0     H51255   1.169  -1.528   5.766  0.2775  0.9317  4.3379
  380MOL0     H51256   0.942  -1.322   5.742 -1.4456 -0.7883 -0.5832
  380MOL0     H51257   0.927  -1.475   5.830  2.6887 -2.9651 -0.0894
  380MOL0     H51258   1.013  -1.449   5.530 -0.6823 -0.4599 -0.8226
  380MOL0     H51259   0.854  -1.489   5.587 -0.1621  2.1272 -0.0985
  380MOL0     H51260   0.918  -1.577   5.370 -0.8694 -0.1898  0.9606
  380MOL0     H51261   0.883  -1.758   5.067  0.9353  1.0398 -0.2220
  380MOL0     H51262   0.743  -1.685   5.154  0.1143 -2.0030 -1.2071
  380MOL0     H51263   0.885  -1.589   5.149  0.9959  0.0740  2.5703
  380MOL0     H51264   0.670  -2.169   5.032  1.1148  0.5313 -0.5952
  380MOL0     H51265   0.653  -2.336   4.854  1.2796  0.4190 -0.7272
  380MOL0     H51266   0.827  -2.667   4.966 -2.2132 -2.0467  0.5452
  380MOL0     H51267   0.687  -2.672   4.873 -0.3747  1.6079  2.6995
  380MOL0     H51268   0.832  -2.862   4.797  0.3793 -0.1563  2.1588
  380MOL0     H51269   0.814  -2.749   4.664  0.5231  2.3103  0.3538
  380MOL0     H51270   1.036  -2.745   4.867  1.0379 -0.4593 -0.8607
  380MOL0     H51271   1.029  -2.639   4.727 -0.0189  1.0626  3.7826
  380MOL0     H51272   1.074  -2.954   4.718  4.2547  0.3112  0.5461
  380MOL0     H51273   1.030  -2.862   4.579  0.1771 -0.1279  0.2665
  380MOL0     H51274   1.208  -2.703   4.610 -2.0256 -0.6143 -0.0083
  380MOL0     H51275   1.262  -2.879   4.594 -0.6824  0.8992 -2.5747
  380MOL0     H51276   1.416  -2.771   4.757 -0.2716  3.3015 -0.9821
  380MOL0     H51277   1.279  -2.697   4.843 -1.2492  0.3366 -0.7341
  380MOL0     H51278   1.288  -3.004   4.828  3.1600  0.5101 -2.6011
  380MOL0     H51279   1.208  -2.883   4.935 -2.1042 -1.6153 -3.0973
  380MOL0     H51280   1.425  -2.850   5.031  0.5826 -0.6492  0.2992
  380MOL0     H51281   1.517  -2.952   4.906 -0.0726  1.4303  0.3073
  380MOL0     H51282   1.018  -2.507   5.003  0.3578 -0.5153  1.5152
  380MOL0     H51283   1.038  -2.334   5.173 -1.4173 -0.7042  2.0955
  380MOL0     H51284   0.955  -2.058   5.428  0.2873 -0.9971  1.0756
  380MOL0     H51285   1.014  -1.888   5.611 -2.1920 -0.7335  1.1205
  380MOL0     H51286   1.638  -0.308   6.352 -0.9235  0.6278  0.2081
  380MOL0     H51287   1.857  -0.225   6.307 -0.0063 -0.4008 -1.0686
  380MOL0     H51288   2.167  -0.052   6.197  0.0916 -0.0897  1.0989
  380MOL0     H51289   2.415   0.002   6.230  2.2080  2.3937 -0.3331
  380MOL0     H51290   2.560   0.106   6.054  0.9544 -2.4787  2.0302
  380MOL0     H51291   2.585   0.284   6.028 -1.0393  1.9663  2.9309
  380MOL0     H51292   2.768   0.092   6.067 -0.2648  0.6822 -0.6553
  380MOL0     H51293   2.724   0.111   6.237  0.0099  2.2457  1.3401
  380MOL0     H51294   2.857   0.309   6.053  0.6666 -2.8286 -0.2884
  380MOL0     H51295   2.923   0.243   6.197  0.1615 -3.0118 -1.2303
  380MOL0     H51296   2.672   0.417   6.209 -0.4184  1.6263 -0.0693
  380MOL0     H51297   2.838   0.479   6.217 -1.7441 -0.0069 -0.1090
  380MOL0     H51298   2.767   0.399   6.606 -0.4752  0.9089 -0.0782
  380MOL0     H51299   2.319   0.413   6.141 -1.0338 -0.4885 -0.6994
  380MOL0     H51300   2.092   0.372   6.141 -2.5061 -0.0926  3.3514
  381MOL0     O51301   8.196  11.255   0.942 -0.6104 -0.0119  0.1201
  381MOL0     C51302   8.159  11.155   1.007 -0.1503 -1.0509 -0.1850
  381MOL0     O51303   8.076  11.163   1.116  0.7087 -0.4656  0.1882
  381MOL0     C51304   7.972  11.255   1.104 -0.1819  0.6664 -0.2187
  381MOL0     C51305   7.960  11.370   1.179 -0.0663 -0.6662  0.0120
  381MOL0     C51306   7.853  11.464   1.160 -0.3235 -1.3956  1.2698
  381MOL0     C51307   7.759  11.435   1.058 -0.4441  0.4714  0.0865
  381MOL0     O51308   7.673  11.533   1.038 -0.7324  0.0702  1.0722
  381MOL0     C51309   7.609  11.511   0.910  0.1786 -0.2551  0.4981
  381MOL0     C51310   7.532  11.640   0.883  0.3351  0.3729 -0.1673
  381MOL0     C51311   7.497  11.633   0.729  0.3431 -0.3324 -1.5229
  381MOL0     C51312   7.401  11.747   0.690  0.2156 -0.0561  0.8760
  381MOL0     C51313   7.334  11.719   0.559 -0.4380  0.6390 -0.3244
  381MOL0     C51314   7.283  11.855   0.505 -0.5546  0.7423 -1.4625
  381MOL0     C51315   7.225  11.847   0.362  0.0169 -0.4533 -0.2124
  381MOL0     C51316   7.172  11.980   0.318 -0.4481 -0.7116 -0.2007
  381MOL0     N51317   7.279  12.086   0.323 -1.0199 -0.0018 -0.4155
  381MOL0     C51318   7.368  12.109   0.218 -0.8618  0.2968 -0.0594
  381MOL0     C51319   7.424  12.231   0.237 -0.5199 -0.5165 -0.1982
  381MOL0     C51320   7.481  12.304   0.122  0.2134 -0.0683 -0.1384
  381MOL0     C51321   7.363  12.365   0.024  0.4990  0.4688  0.1678
  381MOL0     C51322   7.304  12.487   0.084  0.7578  0.2173 -0.1645
  381MOL0     C51323   7.356  12.616   0.029  1.0255 -0.4738 -0.7978
  381MOL0     O51324   7.332  12.730   0.117  0.4893 -0.1944  0.2806
  381MOL0     C51325   7.200  12.779   0.130 -0.3797 -0.0447 -0.0452
  381MOL0     C51326   7.080  12.753   0.055  0.3334  0.2107 -0.7484
  381MOL0     C51327   6.962  12.824   0.080  0.7482 -1.2803 -0.3492
  381MOL0     C51328   6.844  12.790  -0.001  0.4633 -0.6006  0.8421
  381MOL0     C51329   6.961  12.930   0.178 -0.3232  0.0320  0.1338
  381MOL0     C51330   6.849  13.016   0.199 -0.2124 -0.3661  0.7486
  381MOL0     O51331   6.878  13.149   0.227  0.4765 -0.4597 -0.4530
  381MOL0     C51332   6.783  13.243   0.277 -0.2326 -0.2485  0.5954
  381MOL0     C51333   6.668  13.260   0.201 -0.2069  0.0676  0.5729
  381MOL0     C51334   6.570  13.355   0.234  0.2707 -0.1532 -0.0743
  381MOL0     C51335   6.585  13.429   0.349  0.1085  0.0042  0.5587
  381MOL0     O51336   6.475  13.505   0.376  1.1111  0.5859 -0.2911
  381MOL0     C51337   6.421  13.471   0.510  0.6339 -0.4390 -0.5040
  381MOL0     C51338   6.270  13.497   0.507  0.9688 -0.2087  0.5651
  381MOL0     C51339   6.201  13.425   0.385  0.1797  0.5676  0.4140
  381MOL0     C51340   6.052  13.432   0.388  0.4468  0.1663  0.0700
  381MOL0     C51341   5.986  13.414   0.246  0.0237 -0.6855 -0.9472
  381MOL0     C51342   6.007  13.273   0.213  0.2983  0.3867  0.9796
  381MOL0     C51343   5.928  13.248   0.081 -0.1032 -0.4112 -0.5587
  381MOL0     C51344   5.925  13.105   0.047  0.0367  0.7619 -0.0015
  381MOL0    Cl51345   5.846  13.081  -0.120 -0.2572  0.0360 -0.1690
  381MOL0     C51346   6.704  13.414   0.427 -0.4301  0.1422  0.7039
  381MOL0     C51347   6.809  13.325   0.386  1.1686 -0.5575  0.3160
  381MOL0     O51348   6.738  12.973   0.216 -0.4151  0.8825  0.4620
  381MOL0     C51349   7.085  12.957   0.237  0.1916 -0.9262 -0.6937
  381MOL0     C51350   7.205  12.884   0.215 -0.0331 -0.1386  0.7204
  381MOL0     N51351   7.385  12.277   0.363 -0.5662  0.3454  0.1866
  381MOL0     N51352   7.306  12.188   0.416 -0.5527  0.3342 -0.1525
  381MOL0     C51353   7.760  11.307   1.001  0.2870 -0.1411  0.0396
  381MOL0     C51354   7.869  11.226   1.015 -0.4412  0.1674  0.0490
  381MOL0     C51355   8.228  11.034   0.975 -0.1916 -0.1010 -0.2071
  381MOL0     C51356   8.233  10.925   1.064  1.1967 -0.9188  0.6276
  381MOL0     C51357   8.290  10.798   1.044 -0.0721 -0.6212 -0.1488
  381MOL0     C51358   8.346  10.782   0.917 -0.7746 -0.0202 -1.2052
  381MOL0     O51359   8.408  10.668   0.875  0.0289  0.4899 -0.2146
  381MOL0     C51360   8.384  10.542   0.933  0.4295 -0.6551 -0.2265
  381MOL0     C51361   8.410  10.422   0.833 -0.4697  0.0117  0.4418
  381MOL0     C51362   8.567  10.389   0.832 -0.0373  0.7410 -0.3062
  381MOL0     C51363   8.627  10.356   0.698  0.7009  0.3044 -0.7031
  381MOL0     C51364   8.748  10.282   0.725  0.0394  0.0323  0.0123
  381MOL0     C51365   8.849  10.225   0.754 -1.1151  0.3145 -0.2717
  381MOL0     C51366   8.355  10.894   0.822  0.4435  1.1747  0.4223
  381MOL0     C51367   8.296  11.014   0.852  0.7363 -0.9734  0.3769
  381MOL0     H51368   8.040  11.385   1.252  0.5562 -0.6082 -0.6713
  381MOL0     H51369   7.852  11.559   1.214 -1.9908  0.9951 -2.5475
  381MOL0     H51370   7.683  11.494   0.831  0.0727  3.2318 -0.5722
  381MOL0     H51371   7.541  11.426   0.916  0.4477 -0.6401 -1.2178
  381MOL0     H51372   7.439  11.642   0.940 -0.4410 -2.1933 -1.1924
  381MOL0     H51373   7.595  11.720   0.921 -0.3311 -0.8926  4.1141
  381MOL0     H51374   7.591  11.648   0.676 -0.3912  0.6344 -2.6247
  381MOL0     H51375   7.448  11.538   0.704 -1.9610  0.4466 -0.3211
  381MOL0     H51376   7.336  11.785   0.770  2.9056  0.5545  2.9579
  381MOL0     H51377   7.466  11.834   0.672 -1.0894  0.4579 -1.8097
  381MOL0     H51378   7.415  11.673   0.502  0.3291  0.0851  1.1573
  381MOL0     H51379   7.257  11.642   0.571  1.7581 -1.6967 -0.3463
  381MOL0     H51380   7.204  11.894   0.570  2.6930  1.3584  2.4819
  381MOL0     H51381   7.373  11.916   0.513  0.0237  0.0419 -2.3546
  381MOL0     H51382   7.307  11.828   0.292  1.8329  1.4814  1.2696
  381MOL0     H51383   7.139  11.779   0.356 -1.1466  0.5682  2.7411
  381MOL0     H51384   7.094  12.015   0.386 -0.0868  2.3777 -1.2325
  381MOL0     H51385   7.128  11.970   0.218 -0.9689  0.0913 -0.0608
  381MOL0     H51386   7.364  12.050   0.127  4.7430  1.8198 -1.7475
  381MOL0     H51387   7.548  12.388   0.142  0.2155  0.2544 -1.4182
  381MOL0     H51388   7.544  12.241   0.058 -0.9281  1.0373 -2.4982
  381MOL0     H51389   7.293  12.282   0.013 -0.5445  1.3348  0.1114
  381MOL0     H51390   7.399  12.395  -0.075  1.0067 -3.0535 -0.8628
  381MOL0     H51391   7.316  12.480   0.192 -0.2262  1.4497  0.0492
  381MOL0     H51392   7.196  12.504   0.078  0.9782  1.7455 -0.1185
  381MOL0     H51393   7.320  12.635  -0.073  1.1680  0.2017 -0.7269
  381MOL0     H51394   7.464  12.601   0.029  1.5055  2.3032  1.2591
  381MOL0     H51395   7.076  12.680  -0.025 -3.0327  1.7640 -2.1836
  381MOL0     H51396   6.873  12.748  -0.098 -0.4058 -1.8290  1.0839
  381MOL0     H51397   6.791  12.706   0.046 -0.8840 -1.0650 -1.3587
  381MOL0     H51398   6.775  12.873  -0.014  1.0971 -0.1753  0.1554
  381MOL0     H51399   6.648  13.204   0.111 -1.2721  1.1484  0.1055
  381MOL0     H51400   6.497  13.385   0.160  0.1864  3.1290  1.1678
  381MOL0     H51401   6.441  13.368   0.538  3.1191  0.1708  0.1886
  381MOL0     H51402   6.455  13.541   0.587  1.0010 -0.8581 -0.2835
  381MOL0     H51403   6.217  13.478   0.601 -0.4581 -1.9109 -0.5192
  381MOL0     H51404   6.254  13.604   0.489  0.4458 -0.4533 -0.4787
  381MOL0     H51405   6.236  13.322   0.377  1.8103  1.1788 -0.9555
  381MOL0     H51406   6.249  13.467   0.296 -1.5836  1.2768 -0.2342
  381MOL0     H51407   6.005  13.367   0.462 -0.8890  2.6223  1.5061
  381MOL0     H51408   6.040  13.539   0.406 -0.3350  0.3033 -1.1746
  381MOL0     H51409   6.023  13.495   0.181 -3.8141  3.6439  1.6303
  381MOL0     H51410   5.879  13.423   0.266 -0.0544 -4.4899  1.1658
  381MOL0     H51411   6.112  13.255   0.190  0.7797  2.5911  1.2580
  381MOL0     H51412   5.972  13.206   0.293 -0.5635  1.4621  1.5359
  381MOL0     H51413   5.979  13.308   0.004  4.0892 -0.7158  1.6827
  381MOL0     H51414   5.828  13.292   0.087 -0.4305 -1.1014 -0.8678
  381MOL0     H51415   5.865  13.053   0.122  0.5687 -2.3564 -1.5581
  381MOL0     H51416   6.027  13.064   0.043  0.9933  3.0272 -0.3926
  381MOL0     H51417   6.713  13.465   0.522 -1.2307  2.2657 -0.2932
  381MOL0     H51418   6.895  13.304   0.449 -1.0939 -2.6243  2.9835
  381MOL0     H51419   7.103  13.044   0.301 -0.9396 -0.5196 -0.9002
  381MOL0     H51420   7.301  12.909   0.258 -0.0506  0.7713  0.2660
  381MOL0     H51421   7.682  11.264   0.940  0.9097 -0.1021 -0.8006
  381MOL0     H51422   7.868  11.146   0.941 -0.8857  0.8532 -0.6988
  381MOL0     H51423   8.174  10.946   1.153  0.8576  1.0263 -0.0206
  381MOL0     H51424   8.280  10.717   1.115 -0.0948 -0.1512  0.3885
  381MOL0     H51425   8.439  10.516   1.024 -1.1278 -2.8494  0.1685
  381MOL0     H51426   8.281  10.542   0.970  0.6345  2.7331  0.6540
  381MOL0     H51427   8.379  10.451   0.732  1.7788 -1.4503 -0.7304
  381MOL0     H51428   8.358  10.329   0.856  0.3611 -1.1663 -2.1563
  381MOL0     H51429   8.590  10.305   0.897  1.0039 -0.7014 -2.4255
  381MOL0     H51430   8.613  10.480   0.873  0.0789  1.8953 -2.7996
  381MOL0     H51431   8.647  10.447   0.640 -0.1801 -0.4610 -2.2926
  381MOL0     H51432   8.552  10.293   0.650  1.7313 -1.3958 -0.1383
  381MOL0     H51433   8.930  10.164   0.787 -1.7862 -0.2900  0.3129
  381MOL0     H51434   8.408  10.887   0.728  2.8108 -0.2769  1.7736
  381MOL0     H51435   8.294  11.084   0.769  1.5035 -1.8490 -0.4063
  382MOL0     O51436   6.222   5.085   0.541 -0.4809  0.3360 -0.0276
  382MOL0     C51437   6.174   4.970   0.533  0.0289 -0.5434 -0.3200
  382MOL0     O51438   6.182   4.898   0.421  0.0037  0.0341 -0.6930
  382MOL0     C51439   6.271   4.927   0.324  0.8816 -1.0175  0.0403
  382MOL0     C51440   6.235   4.982   0.203 -0.3868 -0.0388 -0.1561
  382MOL0     C51441   6.325   5.023   0.111  0.8634  0.4320  0.4691
  382MOL0     C51442   6.459   5.019   0.151 -0.2126 -0.3502  0.8987
  382MOL0     O51443   6.552   5.052   0.052  0.4143  0.4529 -0.0529
  382MOL0     C51444   6.550   5.191   0.021 -0.7504  0.0479 -0.1697
  382MOL0     C51445   6.637   5.205  -0.103 -0.9218 -0.7531  0.8201
  382MOL0     C51446   6.634   5.349  -0.169  0.3250  0.0594  0.6387
  382MOL0     C51447   6.684   5.466  -0.084  0.4200  0.2288  0.1171
  382MOL0     C51448   6.821   5.519  -0.118  1.0468 -0.2172  0.4393
  382MOL0     C51449   6.928   5.433  -0.060 -0.0478 -0.1587 -0.3080
  382MOL0     C51450   7.072   5.495  -0.042  0.6339  0.0928  0.7903
  382MOL0     C51451   7.151   5.516  -0.173  0.8690  0.0348 -0.8774
  382MOL0     N51452   7.106   5.637  -0.241 -0.1661  0.9009 -0.5162
  382MOL0     C51453   7.156   5.753  -0.207  0.2816 -0.6630  0.2401
  382MOL0     C51454   7.109   5.840  -0.303  0.2238 -0.5238  0.6936
  382MOL0     C51455   7.134   5.983  -0.304 -0.3717 -0.8279 -0.9306
  382MOL0     C51456   7.273   6.013  -0.344 -0.9366 -0.0113  0.0837
  382MOL0     C51457   7.300   5.964  -0.489  0.0314  0.1258  0.2518
  382MOL0     C51458   7.444   6.012  -0.530  0.1043  0.5831 -0.8075
  382MOL0     O51459   7.508   5.944  -0.645 -0.0929  0.1703 -0.0848
  382MOL0     C51460   7.621   6.007  -0.687 -0.1983 -0.2664 -0.1361
  382MOL0     C51461   7.690   6.109  -0.611 -1.2963 -0.0817  0.7320
  382MOL0     C51462   7.791   6.184  -0.673  0.3832 -0.4292 -0.9050
  382MOL0     C51463   7.859   6.289  -0.582  0.4578  0.4858 -0.8391
  382MOL0     C51464   7.843   6.145  -0.804  0.8506  0.1835 -0.5315
  382MOL0     C51465   7.950   6.217  -0.876  0.7408 -0.2240  0.1798
  382MOL0     O51466   8.015   6.157  -0.983 -0.3029 -0.8682  0.3494
  382MOL0     C51467   8.111   6.236  -1.052  0.0014  0.2628 -0.4423
  382MOL0     C51468   8.246   6.230  -1.005  1.1008 -0.0505  0.8446
  382MOL0     C51469   8.340   6.307  -1.078  0.6617  0.1942 -0.1392
  382MOL0     C51470   8.311   6.378  -1.194  0.7766  1.1865 -0.6321
  382MOL0     O51471   8.419   6.428  -1.258  0.3471  0.3781  0.6507
  382MOL0     C51472   8.409   6.436  -1.400 -0.2794  1.2372  0.1021
  382MOL0     C51473   8.549   6.425  -1.452 -0.3421 -1.2840 -0.6772
  382MOL0     C51474   8.629   6.535  -1.407 -0.7579  0.1998 -0.9391
  382MOL0     C51475   8.768   6.550  -1.475  0.6726 -0.0861  0.0675
  382MOL0     C51476   8.839   6.668  -1.420  0.4825  0.2415 -0.6121
  382MOL0     C51477   8.965   6.694  -1.508  0.1837  0.3948  0.2085
  382MOL0     C51478   9.085   6.595  -1.480 -0.0161 -0.3981 -0.9301
  382MOL0     C51479   9.201   6.611  -1.574 -0.4220  0.0252  0.3938
  382MOL0    Cl51480   9.298   6.464  -1.563 -0.1734 -0.3104 -0.6199
  382MOL0     C51481   8.185   6.375  -1.247 -0.2446 -0.5228  0.2461
  382MOL0     C51482   8.086   6.312  -1.171  0.3944 -0.1131 -0.4351
  382MOL0     O51483   7.965   6.338  -0.853  0.0476  0.1527 -0.4204
  382MOL0     C51484   7.788   6.026  -0.868  0.2143 -0.5599  0.2289
  382MOL0     C51485   7.670   5.969  -0.807 -0.4591 -0.3138 -0.2891
  382MOL0     N51486   7.020   5.776  -0.389 -0.4753  0.4661  0.0870
  382MOL0     N51487   7.027   5.653  -0.352  0.5812 -0.0878  0.0892
  382MOL0     C51488   6.509   4.945   0.260  0.6045 -0.1235 -0.1184
  382MOL0     C51489   6.408   4.908   0.352  0.2419 -0.5587  0.4592
  382MOL0     C51490   6.131   4.896   0.661  0.3182  0.0999  0.0398
  382MOL0     C51491   6.082   4.769   0.650 -0.5288  0.6154  1.1695
  382MOL0     C51492   6.026   4.696   0.751  0.2185 -0.1069 -0.5329
  382MOL0     C51493   6.005   4.759   0.874 -0.7258 -0.2847  0.3168
  382MOL0     O51494   5.935   4.693   0.966 -0.0041  1.0681 -0.6554
  382MOL0     C51495   5.823   4.752   1.027  0.2821 -0.6263 -1.0308
  382MOL0     C51496   5.702   4.658   1.068  1.4549 -0.4431 -0.1916
  382MOL0     C51497   5.743   4.547   1.153  0.1176  0.8689 -0.3535
  382MOL0     C51498   5.632   4.453   1.174  0.3444  0.5080  0.4061
  382MOL0     C51499   5.648   4.325   1.239  0.3826  0.0906  0.6374
  382MOL0     C51500   5.679   4.227   1.310  0.3966  0.0880  0.5563
  382MOL0     C51501   6.062   4.886   0.897  0.1084  0.0955 -0.3338
  382MOL0     C51502   6.130   4.954   0.787 -0.3082  0.0780  0.6878
  382MOL0     H51503   6.129   4.990   0.184  0.0514  2.9347 -2.0609
  382MOL0     H51504   6.289   5.054   0.013  1.2342 -1.1584 -0.2041
  382MOL0     H51505   6.448   5.227   0.002 -1.6117 -2.0059  0.3404
  382MOL0     H51506   6.593   5.255   0.099 -0.5180 -1.3838  0.9065
  382MOL0     H51507   6.741   5.195  -0.069 -0.2291  0.3330 -0.8614
  382MOL0     H51508   6.627   5.128  -0.180 -0.3766 -1.4192  1.3994
  382MOL0     H51509   6.684   5.339  -0.265 -0.5101 -2.0481  0.3626
  382MOL0     H51510   6.529   5.361  -0.195 -0.4303 -2.9233  1.9158
  382MOL0     H51511   6.620   5.551  -0.107  0.7380  0.1666 -1.0516
  382MOL0     H51512   6.668   5.442   0.022 -1.4908 -1.6234 -0.5355
  382MOL0     H51513   6.823   5.526  -0.227  0.2350  2.6705  0.5324
  382MOL0     H51514   6.818   5.624  -0.087  0.6902  0.9905 -3.2628
  382MOL0     H51515   6.905   5.406   0.043  0.5599  0.5494  0.0255
  382MOL0     H51516   6.943   5.337  -0.110  1.9411  0.5287 -1.1563
  382MOL0     H51517   7.074   5.586   0.018  0.8857  2.0226 -1.9877
  382MOL0     H51518   7.117   5.407   0.005 -1.2548 -1.0571  0.5457
  382MOL0     H51519   7.122   5.448  -0.253  0.9816  0.4457 -1.2708
  382MOL0     H51520   7.256   5.490  -0.155  0.6523 -0.1039  0.3046
  382MOL0     H51521   7.213   5.778  -0.117 -1.5122 -0.6462  1.4107
  382MOL0     H51522   7.066   6.042  -0.366 -1.3675  1.6542  2.2007
  382MOL0     H51523   7.113   6.013  -0.200  3.4293  0.4388 -0.3489
  382MOL0     H51524   7.348   5.979  -0.272 -1.6341  0.4473  1.0588
  382MOL0     H51525   7.277   6.122  -0.344 -0.4889  0.0400  2.4926
  382MOL0     H51526   7.223   6.006  -0.554 -1.2055  3.3869  3.5145
  382MOL0     H51527   7.292   5.855  -0.494 -2.1035  0.3017 -1.8801
  382MOL0     H51528   7.497   5.987  -0.438  1.7499 -2.5704 -2.4178
  382MOL0     H51529   7.438   6.119  -0.551 -1.2407  0.6821 -0.0059
  382MOL0     H51530   7.668   6.140  -0.509  1.6679  2.7167  0.6891
  382MOL0     H51531   7.824   6.287  -0.478 -0.9745  0.6093 -1.3042
  382MOL0     H51532   7.969   6.283  -0.588  0.3206 -2.3051 -2.1322
  382MOL0     H51533   7.844   6.393  -0.615  1.8221  0.5084 -1.4694
  382MOL0     H51534   8.276   6.172  -0.918 -0.4026 -2.0029  0.1328
  382MOL0     H51535   8.444   6.308  -1.048  0.8650  0.8273 -0.8254
  382MOL0     H51536   8.358   6.349  -1.444  0.4620  0.1233  1.3869
  382MOL0     H51537   8.359   6.530  -1.426 -3.2669  0.3861  2.1725
  382MOL0     H51538   8.591   6.327  -1.424  1.7914 -0.3763 -0.5360
  382MOL0     H51539   8.551   6.428  -1.561 -1.4418 -0.2345 -0.6872
  382MOL0     H51540   8.660   6.520  -1.303  1.2932 -1.5544 -1.7194
  382MOL0     H51541   8.563   6.622  -1.409 -0.2949  0.6079  0.1775
  382MOL0     H51542   8.839   6.467  -1.465  2.5182  1.2729 -1.0328
  382MOL0     H51543   8.742   6.546  -1.581  0.8889 -1.6002  0.0510
  382MOL0     H51544   8.863   6.638  -1.318 -2.3234 -1.7564 -0.3995
  382MOL0     H51545   8.773   6.755  -1.422  1.0597  0.6712 -1.2626
  382MOL0     H51546   8.936   6.684  -1.613  1.0071  0.3359 -0.0215
  382MOL0     H51547   9.001   6.797  -1.506  0.3751  0.3173  1.3370
  382MOL0     H51548   9.057   6.489  -1.491  3.2574 -1.2186 -2.7820
  382MOL0     H51549   9.131   6.606  -1.382  4.4623  1.5934 -2.9754
  382MOL0     H51550   9.256   6.702  -1.548 -0.5902  1.1345 -2.6567
  382MOL0     H51551   9.168   6.620  -1.678 -0.7255 -0.3616  0.4566
  382MOL0     H51552   8.157   6.424  -1.339 -0.7525  2.4771  1.8822
  382MOL0     H51553   7.982   6.319  -1.204 -0.1174  1.9066  1.3717
  382MOL0     H51554   7.843   5.981  -0.950 -0.0796 -2.3104  0.9525
  382MOL0     H51555   7.632   5.891  -0.871  1.1038 -0.3920 -1.1875
  382MOL0     H51556   6.613   4.930   0.285  0.3835 -0.9971  0.3176
  382MOL0     H51557   6.435   4.857   0.444  0.2540  1.0520  1.3967
  382MOL0     H51558   6.091   4.722   0.553  1.7264  2.4453  0.4063
  382MOL0     H51559   5.980   4.598   0.747 -2.9932  1.1922  0.9441
  382MOL0     H51560   5.844   4.804   1.121  1.0373 -0.8507 -1.0731
  382MOL0     H51561   5.776   4.824   0.959  1.1293 -1.1571 -2.2186
  382MOL0     H51562   5.650   4.622   0.979 -2.5519  3.2021  0.3412
  382MOL0     H51563   5.618   4.717   1.106  1.7679 -0.5745  0.7456
  382MOL0     H51564   5.798   4.584   1.240  2.2743 -1.3684 -0.6646
  382MOL0     H51565   5.823   4.495   1.099 -1.9166  0.0288 -2.7831
  382MOL0     H51566   5.587   4.426   1.078  2.2086  0.4948 -0.4919
  382MOL0     H51567   5.552   4.503   1.229 -0.6272  1.1646 -1.4895
  382MOL0     H51568   5.706   4.148   1.377 -2.4914 -1.3463  0.2099
  382MOL0     H51569   6.073   4.911   1.002  1.4405 -1.2234 -0.1259
  382MOL0     H51570   6.176   5.051   0.803 -1.8823  0.6992  1.7212
  383MOL0     O51571   3.030   7.293   2.401 -0.9183 -0.7184  0.2218
  383MOL0     C51572   2.941   7.252   2.322 -0.1722  0.2124 -0.1980
  383MOL0     O51573   2.917   7.122   2.290 -0.0816  0.3456  0.8191
  383MOL0     C51574   2.967   7.026   2.371  0.2931 -0.2021 -0.7391
  383MOL0     C51575   3.070   6.942   2.347 -0.2956 -1.2813 -0.3007
  383MOL0     C51576   3.110   6.849   2.438  0.7090  0.2369  0.0731
  383MOL0     C51577   3.037   6.832   2.559 -0.2294  0.5446 -0.6650
  383MOL0     O51578   3.064   6.734   2.651  0.3370  0.4600  0.5087
  383MOL0     C51579   3.203   6.706   2.676  0.4160  0.5924  0.8299
  383MOL0     C51580   3.207   6.604   2.791  0.3472  0.5022  0.1505
  383MOL0     C51581   3.353   6.562   2.795  0.5181 -0.1156  0.4084
  383MOL0     C51582   3.374   6.476   2.927  0.0697  0.2108 -0.1645
  383MOL0     C51583   3.518   6.468   2.978  0.0518  0.1516 -0.1495
  383MOL0     C51584   3.542   6.380   3.095  0.0073 -0.1594 -0.2477
  383MOL0     C51585   3.675   6.421   3.161  0.4799 -0.3291  0.3167
  383MOL0     C51586   3.736   6.313   3.255  0.7853  1.0210  1.1833
  383MOL0     N51587   3.820   6.218   3.176 -0.5377  0.7413  0.2242
  383MOL0     C51588   3.952   6.233   3.161 -0.2428 -0.2090  1.0769
  383MOL0     C51589   3.987   6.119   3.086 -0.3272  0.5275 -0.1384
  383MOL0     C51590   4.129   6.071   3.069  0.5570 -0.9791  0.2208
  383MOL0     C51591   4.142   5.924   3.104 -0.2946  0.0361 -0.1847
  383MOL0     C51592   4.084   5.819   3.000  0.3510 -0.6224  0.4807
  383MOL0     C51593   4.154   5.680   3.002  1.3075 -0.4732 -0.2795
  383MOL0     O51594   4.288   5.677   2.952  0.0517 -0.1076  0.0707
  383MOL0     C51595   4.382   5.583   3.000  0.0824 -0.3095  0.7203
  383MOL0     C51596   4.354   5.465   3.055 -0.0143  0.0063  0.7287
  383MOL0     C51597   4.451   5.368   3.083 -0.2716 -1.4534  0.6922
  383MOL0     C51598   4.418   5.244   3.150 -0.4721  0.4327  0.0778
  383MOL0     C51599   4.587   5.408   3.057 -0.7908  0.1132  0.6903
  383MOL0     C51600   4.707   5.313   3.061 -0.3725 -0.2022 -0.3391
  383MOL0     O51601   4.835   5.361   3.023  0.1730  0.9684 -0.3252
  383MOL0     C51602   4.933   5.271   3.037 -0.1574  1.0988 -0.4138
  383MOL0     C51603   4.975   5.196   3.157  0.2702 -0.6532  0.1702
  383MOL0     C51604   5.089   5.115   3.159  0.3696  0.0571 -0.7778
  383MOL0     C51605   5.161   5.109   3.041  0.1823  0.9234  1.1618
  383MOL0     O51606   5.283   5.042   3.026 -0.4346  0.8971 -0.4269
  383MOL0     C51607   5.321   4.936   3.126  0.2773  0.2453 -0.7615
  383MOL0     C51608   5.470   4.913   3.116 -0.2684 -0.1416  0.2970
  383MOL0     C51609   5.498   4.845   2.982  0.1703  0.5870 -0.1025
  383MOL0     C51610   5.593   4.921   2.896 -0.4908  0.7982 -0.4622
  383MOL0     C51611   5.635   4.844   2.773 -1.1306  0.3070  0.7338
  383MOL0     C51612   5.729   4.723   2.810  0.0065 -0.4244 -0.7606
  383MOL0     C51613   5.797   4.668   2.688 -0.1122 -0.4696 -1.1490
  383MOL0     C51614   5.886   4.554   2.731  0.7687  0.8269 -0.3734
  383MOL0    Cl51615   6.028   4.566   2.642  0.1612  0.0403  0.0176
  383MOL0     C51616   5.115   5.174   2.927 -0.8475  0.3634 -0.0390
  383MOL0     C51617   5.011   5.260   2.927 -0.2347  0.7117  0.0848
  383MOL0     O51618   4.687   5.200   3.105 -0.1415  0.2876  0.2905
  383MOL0     C51619   4.618   5.539   3.005  0.5725 -0.3260  0.2219
  383MOL0     C51620   4.510   5.623   2.979  0.1581 -0.1385  1.0198
  383MOL0     N51621   3.875   6.048   3.052  0.4522  0.3522  0.0105
  383MOL0     N51622   3.775   6.101   3.115  0.0075 -1.0816 -0.0812
  383MOL0     C51623   2.928   6.922   2.585  0.1311 -1.3744  0.5023
  383MOL0     C51624   2.888   7.018   2.488 -0.7385  0.7186 -0.1355
  383MOL0     C51625   2.860   7.351   2.249  0.0848  0.3752  0.5526
  383MOL0     C51626   2.721   7.324   2.224 -0.8121  0.2303 -0.0894
  383MOL0     C51627   2.638   7.419   2.158 -0.2450 -0.5707 -0.0659
  383MOL0     C51628   2.695   7.532   2.107 -0.7466 -0.6293 -0.5621
  383MOL0     O51629   2.611   7.604   2.026 -0.0094 -0.2364 -0.2556
  383MOL0     C51630   2.651   7.747   1.994  0.2220 -0.1658 -0.2640
  383MOL0     C51631   2.531   7.811   1.937  0.8310 -0.2382  0.0672
  383MOL0     C51632   2.567   7.938   1.856  0.5937  0.5255 -0.8326
  383MOL0     C51633   2.443   7.977   1.766 -0.3611  0.0126  0.2010
  383MOL0     C51634   2.459   8.105   1.693 -0.4996 -0.6120  0.7275
  383MOL0     C51635   2.449   8.208   1.625 -0.7078  0.4370 -1.1875
  383MOL0     C51636   2.828   7.570   2.148  0.5801  0.5024 -0.0028
  383MOL0     C51637   2.903   7.478   2.230 -0.0796  0.9669 -0.7541
  383MOL0     H51638   3.113   6.950   2.247  0.8304  0.0150  0.2576
  383MOL0     H51639   3.193   6.786   2.411 -0.1873  0.0046 -2.3823
  383MOL0     H51640   3.251   6.657   2.591  0.9815  0.1929  1.3758
  383MOL0     H51641   3.256   6.791   2.718  0.1790  2.1477 -1.7997
  383MOL0     H51642   3.168   6.648   2.884  0.3856  1.2371 -0.1728
  383MOL0     H51643   3.148   6.515   2.767  0.8363 -0.1726  1.3783
  383MOL0     H51644   3.386   6.501   2.711 -0.0171  0.0542  0.0757
  383MOL0     H51645   3.423   6.646   2.792 -1.0018  1.1698 -1.5895
  383MOL0     H51646   3.315   6.500   3.016  0.1590 -1.9286  0.5287
  383MOL0     H51647   3.336   6.375   2.910 -1.2453  0.7548 -0.6195
  383MOL0     H51648   3.572   6.433   2.889 -1.9533  0.7289 -1.6728
  383MOL0     H51649   3.547   6.571   2.998 -1.2019  0.4034  0.4503
  383MOL0     H51650   3.466   6.398   3.172  0.9532 -1.1210  0.9555
  383MOL0     H51651   3.548   6.275   3.062 -0.5752  0.5864 -2.9677
  383MOL0     H51652   3.753   6.432   3.084  2.8381  0.0145  2.6182
  383MOL0     H51653   3.658   6.516   3.212  0.5608 -0.1956  0.0946
  383MOL0     H51654   3.653   6.257   3.299  1.6140 -0.9506  0.3686
  383MOL0     H51655   3.783   6.346   3.348 -2.7545  3.1202  2.4516
  383MOL0     H51656   4.030   6.287   3.214  1.4163 -2.3012  0.8965
  383MOL0     H51657   4.148   6.091   2.963 -3.8676  2.8632 -0.1934
  383MOL0     H51658   4.199   6.130   3.128 -0.1063  1.1800 -1.0296
  383MOL0     H51659   4.095   5.919   3.203 -0.5796  0.1236 -0.3132
  383MOL0     H51660   4.249   5.904   3.103 -0.3291 -0.2995  0.8803
  383MOL0     H51661   4.098   5.861   2.900  2.5748  2.3497  1.8720
  383MOL0     H51662   3.978   5.814   3.025  0.0733 -0.7170 -0.6679
  383MOL0     H51663   4.085   5.613   2.949  2.3826 -1.6788 -0.2210
  383MOL0     H51664   4.155   5.658   3.109 -3.3640 -1.8960 -0.3098
  383MOL0     H51665   4.253   5.456   3.093  0.4546  1.7121  2.5942
  383MOL0     H51666   4.458   5.154   3.103 -1.3063 -0.3125  0.7410
  383MOL0     H51667   4.451   5.250   3.254 -0.3443 -1.4735  0.1829
  383MOL0     H51668   4.309   5.234   3.158 -0.3389  0.0585  2.4431
  383MOL0     H51669   4.938   5.205   3.258  1.0326  0.2893  0.3739
  383MOL0     H51670   5.122   5.059   3.246  2.9308 -0.7900 -2.1590
  383MOL0     H51671   5.298   4.972   3.227 -2.7524 -2.9125 -0.1460
  383MOL0     H51672   5.258   4.849   3.109 -2.1308  2.2612 -3.2100
  383MOL0     H51673   5.527   5.006   3.113 -0.1502 -0.2401 -1.7692
  383MOL0     H51674   5.496   4.842   3.195 -1.0091  1.4331  2.0218
  383MOL0     H51675   5.411   4.841   2.916 -0.6211 -0.1313  0.9597
  383MOL0     H51676   5.534   4.743   2.996 -1.6503 -0.1632 -0.6338
  383MOL0     H51677   5.563   5.017   2.854 -0.8840  0.5511 -0.7443
  383MOL0     H51678   5.683   4.936   2.957 -0.3050 -0.1489 -0.4860
  383MOL0     H51679   5.685   4.913   2.704  2.4701 -2.6951 -0.0021
  383MOL0     H51680   5.550   4.805   2.716 -0.0177 -0.9108 -0.1608
  383MOL0     H51681   5.794   4.759   2.891  0.9087 -0.3446 -1.5126
  383MOL0     H51682   5.667   4.641   2.845  0.1253 -0.7387 -1.2798
  383MOL0     H51683   5.854   4.745   2.635  0.6519 -1.9854 -2.6264
  383MOL0     H51684   5.732   4.620   2.614  1.9225 -0.6040 -2.9708
  383MOL0     H51685   5.837   4.456   2.725  0.2846  0.7836  2.6257
  383MOL0     H51686   5.906   4.564   2.838  0.2675  2.3814 -0.3991
  383MOL0     H51687   5.183   5.181   2.842 -0.2754 -0.7010  0.3181
  383MOL0     H51688   4.992   5.323   2.840 -0.9995  1.2709  0.6373
  383MOL0     H51689   4.722   5.567   2.999  1.0511 -1.9968  0.1937
  383MOL0     H51690   4.523   5.723   2.938  2.3628 -0.1721  1.5360
  383MOL0     H51691   2.885   6.911   2.685  0.1239  0.0577  0.6825
  383MOL0     H51692   2.806   7.085   2.512  1.0357  1.5566  4.5758
  383MOL0     H51693   2.672   7.232   2.254  1.9499 -0.9906  0.9529
  383MOL0     H51694   2.537   7.385   2.137  0.2929 -2.1738 -0.2047
  383MOL0     H51695   2.683   7.808   2.080  0.6287 -1.1546  0.3050
  383MOL0     H51696   2.740   7.750   1.931 -0.3960  2.4512 -1.1167
  383MOL0     H51697   2.450   7.836   2.006  0.2936  0.2721 -0.7272
  383MOL0     H51698   2.483   7.738   1.871 -0.9960  2.9134 -2.3799
  383MOL0     H51699   2.652   7.910   1.793  0.3497 -3.6662  0.3673
  383MOL0     H51700   2.585   8.013   1.933 -1.6843  1.4973 -1.1521
  383MOL0     H51701   2.358   7.985   1.835 -0.2214 -1.4739  0.5764
  383MOL0     H51702   2.425   7.894   1.697 -2.6248  1.7395 -1.4513
  383MOL0     H51703   2.426   8.291   1.560 -1.6155  1.7466  0.7015
  383MOL0     H51704   2.871   7.667   2.128 -1.3119  1.2837 -0.5815
  383MOL0     H51705   3.001   7.500   2.270 -1.3171  2.6540  1.6323
  384MOL0     O51706   7.072   4.873   6.405  0.1296  0.0029  0.8509
  384MOL0     C51707   7.170   4.941   6.428 -0.1330  0.2031  0.3322
  384MOL0     O51708   7.246   5.016   6.334 -0.5551 -0.6375 -0.6304
  384MOL0     C51709   7.206   5.023   6.204 -0.7447  0.0098 -0.7802
  384MOL0     C51710   7.182   5.152   6.146 -0.5861 -0.0566 -0.3917
  384MOL0     C51711   7.127   5.152   6.017  1.0467  0.9935  0.9514
  384MOL0     C51712   7.088   5.038   5.950  0.3202  0.5462 -0.2733
  384MOL0     O51713   7.031   5.058   5.826  0.0581 -0.4124  0.0531
  384MOL0     C51714   6.966   4.943   5.759 -0.6913 -0.3057 -0.2844
  384MOL0     C51715   7.062   4.875   5.656  0.0743  0.5882  0.3193
  384MOL0     C51716   7.090   4.979   5.545  0.1436 -0.2316 -0.3758
  384MOL0     C51717   7.213   4.952   5.464 -0.6463 -0.1795  0.2652
  384MOL0     C51718   7.345   4.984   5.540  0.3346  0.4966 -0.3255
  384MOL0     C51719   7.460   4.946   5.455 -0.2317 -0.0970  0.0614
  384MOL0     C51720   7.481   4.798   5.460 -0.3860  0.1882 -0.2795
  384MOL0     C51721   7.628   4.759   5.465 -0.2201  1.0150  0.6577
  384MOL0     N51722   7.704   4.816   5.348  0.8777 -0.1425 -0.1964
  384MOL0     C51723   7.833   4.866   5.354  0.4913 -0.1750 -0.6487
  384MOL0     C51724   7.883   4.870   5.229 -0.4775 -0.9796  0.5697
  384MOL0     C51725   8.025   4.893   5.191  0.0931 -0.3165 -0.2626
  384MOL0     C51726   8.114   4.760   5.192 -0.2809 -0.4356 -0.4912
  384MOL0     C51727   8.077   4.661   5.084  0.3030  0.3242 -0.3534
  384MOL0     C51728   8.173   4.546   5.074 -0.1369  0.1323 -0.7663
  384MOL0     O51729   8.161   4.472   5.196  0.5236 -0.3372 -0.5179
  384MOL0     C51730   8.229   4.355   5.175 -0.4580  0.2795  0.2537
  384MOL0     C51731   8.182   4.239   5.110  0.3014  0.5367 -0.0338
  384MOL0     C51732   8.250   4.121   5.107  0.4623 -0.6479 -0.1591
  384MOL0     C51733   8.169   4.004   5.048 -1.2620 -0.5220 -0.6820
  384MOL0     C51734   8.380   4.108   5.163 -0.7496 -0.8003 -0.0628
  384MOL0     C51735   8.459   3.990   5.151 -0.5774  0.4118 -0.6093
  384MOL0     O51736   8.602   4.013   5.135 -0.0176 -0.5637 -0.2644
  384MOL0     C51737   8.686   3.904   5.127 -0.7060 -0.4932 -0.7822
  384MOL0     C51738   8.769   3.867   5.020  0.9628 -0.6335 -0.4275
  384MOL0     C51739   8.843   3.744   5.014 -1.1792 -0.4084 -0.5152
  384MOL0     C51740   8.840   3.656   5.125 -0.1581 -0.6069  0.2733
  384MOL0     O51741   8.924   3.548   5.114 -0.1769 -0.2567  0.4545
  384MOL0     C51742   8.977   3.481   5.226 -0.5989 -0.0067 -0.4325
  384MOL0     C51743   9.079   3.386   5.151 -0.1337 -0.8200 -0.2247
  384MOL0     C51744   9.207   3.458   5.092  0.5166 -0.1139  0.7194
  384MOL0     C51745   9.273   3.376   4.988  0.0909 -0.3388  0.5949
  384MOL0     C51746   9.381   3.281   5.034 -0.5223  0.7609 -0.4172
  384MOL0     C51747   9.496   3.258   4.947 -0.7191 -0.2291 -0.2316
  384MOL0     C51748   9.606   3.371   4.977 -0.3827 -1.1488  0.8594
  384MOL0     C51749   9.727   3.371   4.880  0.5845 -1.1523  0.2022
  384MOL0    Cl51750   9.845   3.502   4.913 -0.3608 -0.2862  0.3344
  384MOL0     C51751   8.759   3.688   5.234 -0.4256 -0.4894 -0.4580
  384MOL0     C51752   8.682   3.809   5.238 -0.1200 -0.3800  0.1531
  384MOL0     O51753   8.413   3.878   5.160 -0.3440  0.1786  0.1356
  384MOL0     C51754   8.435   4.231   5.221 -1.0825 -0.0661 -0.0383
  384MOL0     C51755   8.353   4.343   5.236  1.1060 -0.8793 -0.6585
  384MOL0     N51756   7.777   4.824   5.150  0.6586  0.8901  0.2935
  384MOL0     N51757   7.672   4.797   5.220  0.1237 -0.4581  0.2574
  384MOL0     C51758   7.116   4.917   6.008  0.9753  0.0010  0.5813
  384MOL0     C51759   7.155   4.905   6.141 -0.6072 -0.7144  0.5330
  384MOL0     C51760   7.235   4.925   6.554 -0.5671  0.7718 -0.6824
  384MOL0     C51761   7.359   4.990   6.586 -0.5779  0.2526 -0.1542
  384MOL0     C51762   7.424   4.971   6.703  0.2886 -0.4191  0.1251
  384MOL0     C51763   7.380   4.881   6.797  0.8463  0.3295 -1.1739
  384MOL0     O51764   7.451   4.851   6.907 -0.1979 -0.3984 -0.0081
  384MOL0     C51765   7.459   4.954   7.004 -0.2463  0.3998 -0.8479
  384MOL0     C51766   7.334   4.975   7.087  1.2795  0.5654  0.5668
  384MOL0     C51767   7.277   4.862   7.158  0.4294 -0.2905 -0.4088
  384MOL0     C51768   7.129   4.885   7.204 -0.5280 -0.0086 -0.0335
  384MOL0     C51769   7.095   4.766   7.289  0.8896  0.2047 -0.6433
  384MOL0     C51770   7.056   4.673   7.363 -0.0667  0.1516  0.6718
  384MOL0     C51771   7.262   4.811   6.767 -0.3887  0.5439  0.1650
  384MOL0     C51772   7.189   4.828   6.645 -1.3827  0.1405  0.3125
  384MOL0     H51773   7.206   5.241   6.204 -0.3865  0.0442 -0.6245
  384MOL0     H51774   7.106   5.252   5.979  1.1312  0.5214 -0.3773
  384MOL0     H51775   6.933   4.865   5.828 -1.1888 -1.7703 -2.1136
  384MOL0     H51776   6.868   4.960   5.713 -1.0438 -0.2482  0.4655
  384MOL0     H51777   7.147   4.838   5.714 -3.1201 -2.4748  3.4893
  384MOL0     H51778   7.013   4.787   5.612  1.3425  0.7960 -1.6872
  384MOL0     H51779   6.997   4.989   5.489  0.0336  1.2710  0.0111
  384MOL0     H51780   7.109   5.077   5.591  2.5920 -1.0857  0.5715
  384MOL0     H51781   7.201   4.852   5.422 -0.5556 -0.7580  1.5652
  384MOL0     H51782   7.212   5.031   5.388 -0.6931  1.4245  1.8482
  384MOL0     H51783   7.345   5.092   5.560 -0.8099  1.0484 -2.8636
  384MOL0     H51784   7.350   4.937   5.638  1.9189  2.2152  0.4946
  384MOL0     H51785   7.432   4.978   5.354  2.2540  2.5024  0.0611
  384MOL0     H51786   7.540   5.007   5.496  0.8270 -3.0719  2.8198
  384MOL0     H51787   7.437   4.751   5.548  0.4774 -4.9142 -2.2577
  384MOL0     H51788   7.429   4.759   5.372 -0.7666  0.9090 -0.3852
  384MOL0     H51789   7.644   4.651   5.458  0.2682  1.1576 -1.0589
  384MOL0     H51790   7.683   4.796   5.552 -3.4588  4.7145  1.4471
  384MOL0     H51791   7.887   4.891   5.444  0.7335  0.9291 -1.0903
  384MOL0     H51792   8.014   4.935   5.090 -1.8335 -0.7837 -0.2763
  384MOL0     H51793   8.071   4.967   5.257  0.4979  0.2609 -1.1602
  384MOL0     H51794   8.100   4.711   5.289  4.0654  1.4358  1.3566
  384MOL0     H51795   8.219   4.792   5.187 -0.5939  0.6296 -0.5393
  384MOL0     H51796   8.083   4.713   4.988 -1.6505  0.0764 -0.6664
  384MOL0     H51797   7.977   4.619   5.097  1.3786 -2.0082  0.9289
  384MOL0     H51798   8.278   4.573   5.084 -0.2394 -0.3177  2.4005
  384MOL0     H51799   8.157   4.476   4.991 -1.0190 -0.0488 -0.4583
  384MOL0     H51800   8.085   4.245   5.061  0.0617  1.8218  0.5598
  384MOL0     H51801   8.146   3.929   5.124 -1.5649  0.1071 -0.1449
  384MOL0     H51802   8.071   4.033   5.009 -0.3005  2.2529 -1.2921
  384MOL0     H51803   8.229   3.958   4.969 -3.6700 -0.5468 -2.5765
  384MOL0     H51804   8.780   3.932   4.934 -1.7511 -0.6854 -0.9114
  384MOL0     H51805   8.904   3.725   4.926  1.8790 -0.1508  1.4059
  384MOL0     H51806   9.032   3.553   5.287 -2.4424  0.9191  0.2071
  384MOL0     H51807   8.909   3.422   5.288  3.0366 -2.2524  1.7926
  384MOL0     H51808   9.123   3.309   5.214  4.6029 -0.3578 -2.5288
  384MOL0     H51809   9.024   3.348   5.064 -0.2504  2.7068 -1.8817
  384MOL0     H51810   9.274   3.493   5.171 -0.2271 -1.5515  2.0541
  384MOL0     H51811   9.176   3.551   5.043 -3.3139 -0.2236  2.4989
  384MOL0     H51812   9.200   3.319   4.930 -1.5722  2.6695 -0.5250
  384MOL0     H51813   9.316   3.441   4.911  0.4187 -1.8021 -0.5037
  384MOL0     H51814   9.332   3.183   5.033  0.0193  0.4885 -0.4274
  384MOL0     H51815   9.415   3.320   5.131 -5.0452  2.4416  0.7785
  384MOL0     H51816   9.548   3.165   4.972  0.2339  0.7352  1.5558
  384MOL0     H51817   9.480   3.249   4.839  1.9743 -1.6003 -0.6216
  384MOL0     H51818   9.648   3.346   5.075  0.9664  2.8598  1.4607
  384MOL0     H51819   9.549   3.464   4.974  1.1795 -0.0959  2.3585
  384MOL0     H51820   9.692   3.396   4.779 -0.7568  2.0578  1.3415
  384MOL0     H51821   9.781   3.276   4.885  2.3884 -0.3349 -1.8551
  384MOL0     H51822   8.754   3.618   5.317 -1.1286 -0.4728 -0.4792
  384MOL0     H51823   8.622   3.810   5.328  0.3117 -0.7853  0.4556
  384MOL0     H51824   8.530   4.233   5.272 -1.2399 -2.1308  0.4394
  384MOL0     H51825   8.397   4.422   5.296  1.5523 -1.3754 -0.3239
  384MOL0     H51826   7.090   4.828   5.951 -3.0923  1.2627  0.1679
  384MOL0     H51827   7.158   4.807   6.187  3.5974 -2.9586 -3.6080
  384MOL0     H51828   7.399   5.061   6.514  0.0467  0.5754  0.4978
  384MOL0     H51829   7.512   5.034   6.716 -0.0575  0.0830  0.0575
  384MOL0     H51830   7.549   4.932   7.062 -0.8773 -1.2690 -0.4709
  384MOL0     H51831   7.486   5.051   6.961 -1.9573  0.2678 -2.3255
  384MOL0     H51832   7.261   5.011   7.013  0.2562 -0.2902  1.1253
  384MOL0     H51833   7.336   5.071   7.139 -1.8105  3.0699 -3.3207
  384MOL0     H51834   7.335   4.848   7.250 -2.7127 -2.6512  1.4296
  384MOL0     H51835   7.282   4.770   7.100  1.0512 -1.1626  0.9873
  384MOL0     H51836   7.062   4.881   7.118  0.6501 -0.1292 -0.9834
  384MOL0     H51837   7.119   4.978   7.261  1.2986  0.0952  0.1976
  384MOL0     H51838   7.016   4.605   7.436 -1.3866  2.5009  2.2940
  384MOL0     H51839   7.222   4.742   6.840  1.5215 -0.4901  0.2883
  384MOL0     H51840   7.098   4.770   6.633  0.4230 -3.2880  1.6950
  385MOL0     O51841   7.810   7.356   9.595 -0.4694  0.0855  0.0621
  385MOL0     C51842   7.710   7.339   9.658 -0.3731 -0.9852 -0.2012
  385MOL0     O51843   7.668   7.427   9.761 -0.7136  0.7819  0.0309
  385MOL0     C51844   7.750   7.511   9.827 -0.0080 -0.4995  0.7513
  385MOL0     C51845   7.887   7.505   9.818  0.3667  0.0576 -0.1367
  385MOL0     C51846   7.969   7.597   9.881 -0.3538 -0.3543 -0.1557
  385MOL0     C51847   7.904   7.703   9.960  0.1603 -0.4440  0.1897
  385MOL0     O51848   7.979   7.799  10.016 -0.4685  0.5510 -0.0208
  385MOL0     C51849   8.100   7.765  10.093 -0.0744  0.4764 -0.3789
  385MOL0     C51850   8.238   7.814  10.053  1.0067 -0.1295  0.0567
  385MOL0     C51851   8.236   7.961  10.002  0.1867 -0.0262  0.1011
  385MOL0     C51852   8.376   8.019   9.996 -0.1120  0.8495 -0.0056
  385MOL0     C51853   8.361   8.175   9.980 -0.5943  0.9922  0.1673
  385MOL0     C51854   8.323   8.195   9.827 -0.0824  0.0357  0.2827
  385MOL0     C51855   8.314   8.350   9.803  0.2442  0.0506  0.4766
  385MOL0     C51856   8.384   8.384   9.668  0.3476  0.1992 -0.0035
  385MOL0     N51857   8.301   8.330   9.561 -0.1051  0.0673 -0.3486
  385MOL0     C51858   8.183   8.378   9.525  0.0417  0.4803 -0.3433
  385MOL0     C51859   8.132   8.303   9.425 -0.2838 -0.2743  0.1925
  385MOL0     C51860   7.999   8.317   9.370  0.2685 -0.1477 -0.3723
  385MOL0     C51861   7.907   8.208   9.430  0.4119  0.4760 -0.5206
  385MOL0     C51862   7.925   8.065   9.362  0.6053  0.4972 -0.6399
  385MOL0     C51863   7.836   7.948   9.426  0.4558 -1.2170 -0.1617
  385MOL0     O51864   7.883   7.826   9.358 -0.6099  0.4739  0.0632
  385MOL0     C51865   7.792   7.720   9.330 -0.4295  0.0217 -0.2666
  385MOL0     C51866   7.845   7.606   9.270 -0.4706  0.7145  0.6183
  385MOL0     C51867   7.778   7.486   9.241 -0.7256  0.7177 -0.0997
  385MOL0     C51868   7.853   7.360   9.191 -0.1968  0.7248 -0.0151
  385MOL0     C51869   7.639   7.486   9.262 -0.1748  0.2868 -0.1957
  385MOL0     C51870   7.537   7.383   9.219  0.3077 -0.5097  0.4103
  385MOL0     O51871   7.427   7.365   9.303  0.2228  0.5749  0.0106
  385MOL0     C51872   7.308   7.310   9.254  0.7262 -0.0532  0.0217
  385MOL0     C51873   7.272   7.330   9.121 -0.0846  0.7109  0.7058
  385MOL0     C51874   7.141   7.296   9.075 -0.1530  0.2810 -0.2583
  385MOL0     C51875   7.046   7.232   9.168 -0.5523  0.0739  0.4483
  385MOL0     O51876   6.922   7.199   9.132  0.2508 -0.3781 -0.2472
  385MOL0     C51877   6.850   7.302   9.064  0.1440  0.2521 -0.2935
  385MOL0     C51878   6.711   7.251   9.024  0.3033  0.5839  1.3411
  385MOL0     C51879   6.641   7.372   8.951  0.7811  0.2457 -0.4759
  385MOL0     C51880   6.503   7.338   8.889  0.4554  1.1888  0.4577
  385MOL0     C51881   6.494   7.315   8.738 -0.3295 -0.2792  0.0900
  385MOL0     C51882   6.597   7.197   8.701 -0.0126  0.3951 -0.1672
  385MOL0     C51883   6.597   7.178   8.548  0.1097 -0.5171  0.0218
  385MOL0     C51884   6.698   7.072   8.517 -0.1046  0.1365 -0.0398
  385MOL0    Cl51885   6.697   6.921   8.624 -0.2478 -0.2419  0.1928
  385MOL0     C51886   7.089   7.212   9.299  0.2580 -0.2832 -0.4567
  385MOL0     C51887   7.215   7.256   9.343  0.9928  0.6398 -0.5180
  385MOL0     O51888   7.566   7.319   9.116 -0.2042 -0.4783  0.3223
  385MOL0     C51889   7.586   7.603   9.322  0.1173  0.6775  0.0235
  385MOL0     C51890   7.655   7.717   9.363  0.0839  0.3060 -0.5343
  385MOL0     N51891   8.237   8.205   9.399 -0.2771  0.3437 -0.1304
  385MOL0     N51892   8.335   8.231   9.477  0.0355 -0.0976 -0.1297
  385MOL0     C51893   7.763   7.708   9.967  0.1758 -0.4255  0.1554
  385MOL0     C51894   7.683   7.615   9.897  0.0604  0.6106  0.2579
  385MOL0     C51895   7.612   7.248   9.613  0.5387  0.0497 -0.5158
  385MOL0     C51896   7.637   7.160   9.507 -0.7584 -0.1899 -0.0705
  385MOL0     C51897   7.560   7.065   9.461  0.3705  0.0235 -0.3692
  385MOL0     C51898   7.439   7.038   9.533  0.8252 -0.3121  0.8485
  385MOL0     O51899   7.363   6.940   9.485 -0.5745 -0.2688 -0.6565
  385MOL0     C51900   7.257   6.883   9.567  0.6826 -0.2865  0.7683
  385MOL0     C51901   7.120   6.910   9.502 -0.0774  0.0015  0.5288
  385MOL0     C51902   7.000   6.857   9.582 -0.7926 -0.4029  0.3748
  385MOL0     C51903   6.886   6.793   9.501  0.3471  0.3839 -0.0939
  385MOL0     C51904   6.822   6.896   9.422 -0.1894 -0.1451  0.6040
  385MOL0     C51905   6.765   6.978   9.352 -0.0923  0.1757 -0.6247
  385MOL0     C51906   7.402   7.129   9.633 -0.4698 -0.2066 -0.1955
  385MOL0     C51907   7.484   7.235   9.674 -0.3798  0.0288 -0.7173
  385MOL0     H51908   7.937   7.418   9.778  1.2807  0.3334  0.3767
  385MOL0     H51909   8.075   7.595   9.857 -0.5584 -1.2579 -1.0222
  385MOL0     H51910   8.081   7.808  10.191  0.1444 -5.4302  2.6932
  385MOL0     H51911   8.103   7.656  10.106  0.1176  0.2665 -1.9538
  385MOL0     H51912   8.302   7.815  10.141  0.7261  1.2342  0.2581
  385MOL0     H51913   8.284   7.755   9.972  1.0920 -1.0352  0.7474
  385MOL0     H51914   8.219   7.961   9.894 -0.0285  0.1366  0.1357
  385MOL0     H51915   8.173   8.016  10.073  0.1351 -2.9313  2.5322
  385MOL0     H51916   8.436   7.991  10.084 -0.6085 -1.4753 -0.3495
  385MOL0     H51917   8.431   7.966   9.918  2.8152 -1.5309  3.3305
  385MOL0     H51918   8.288   8.223  10.045  0.3891  1.4393  0.9674
  385MOL0     H51919   8.457   8.218  10.010  0.8571 -2.4360  1.0450
  385MOL0     H51920   8.409   8.159   9.769  0.0440 -1.4880  1.3495
  385MOL0     H51921   8.227   8.150   9.803 -1.1530  1.9076  0.8452
  385MOL0     H51922   8.210   8.382   9.794  0.1031 -0.8962 -2.0249
  385MOL0     H51923   8.373   8.408   9.875  0.9638  2.0747 -1.6548
  385MOL0     H51924   8.486   8.343   9.674  0.2251 -0.2729 -1.0185
  385MOL0     H51925   8.382   8.493   9.673  2.2592  0.2271  1.1422
  385MOL0     H51926   8.132   8.459   9.578  0.5815  2.1018 -2.2095
  385MOL0     H51927   7.957   8.418   9.377 -2.9807 -1.4214 -0.0838
  385MOL0     H51928   8.002   8.303   9.261  0.4488 -1.1839 -0.2485
  385MOL0     H51929   7.806   8.247   9.418  1.7706  5.3879  1.7063
  385MOL0     H51930   7.924   8.207   9.538  1.1509 -0.5696 -0.6298
  385MOL0     H51931   8.031   8.043   9.375  0.1262 -2.1053 -0.6087
  385MOL0     H51932   7.893   8.068   9.257 -2.6103 -0.0408  0.1952
  385MOL0     H51933   7.731   7.976   9.413  0.4909 -1.3001 -0.6244
  385MOL0     H51934   7.851   7.932   9.533  2.1028  0.5500 -0.0670
  385MOL0     H51935   7.953   7.597   9.262 -0.6990 -1.3317 -1.3428
  385MOL0     H51936   7.959   7.367   9.167 -0.4561  0.0559 -1.4280
  385MOL0     H51937   7.830   7.278   9.261  0.9263 -1.2481 -1.8471
  385MOL0     H51938   7.808   7.323   9.098  1.7976 -1.0629 -0.3418
  385MOL0     H51939   7.344   7.366   9.048  0.2516 -2.2264 -0.5747
  385MOL0     H51940   7.112   7.313   8.972 -3.9030 -1.3935  0.3572
  385MOL0     H51941   6.832   7.388   9.129 -2.1414 -0.8987  0.6935
  385MOL0     H51942   6.900   7.340   8.975 -0.7060 -2.7356 -2.1879
  385MOL0     H51943   6.721   7.176   8.946  1.4077  1.3593  0.7123
  385MOL0     H51944   6.653   7.207   9.106 -1.7915 -0.4368 -0.5943
  385MOL0     H51945   6.712   7.408   8.876 -1.8393  1.3023 -2.6420
  385MOL0     H51946   6.619   7.453   9.021 -1.6707  0.3306 -1.2565
  385MOL0     H51947   6.466   7.244   8.931  2.9804  0.2044  0.7091
  385MOL0     H51948   6.430   7.412   8.921  0.3681  1.7600 -0.9676
  385MOL0     H51949   6.534   7.404   8.688  1.6240 -0.3268  1.4517
  385MOL0     H51950   6.392   7.290   8.707 -0.0688  0.4185 -1.4423
  385MOL0     H51951   6.699   7.223   8.729 -0.2698  3.9309 -1.9484
  385MOL0     H51952   6.573   7.103   8.752  4.1099 -1.6220 -1.5648
  385MOL0     H51953   6.615   7.273   8.497 -1.4683 -0.4030 -0.3758
  385MOL0     H51954   6.503   7.136   8.512  0.1448  0.5960 -1.5010
  385MOL0     H51955   6.798   7.115   8.526 -0.3953  0.5227  1.5227
  385MOL0     H51956   6.679   7.037   8.414 -0.6626 -0.1426  0.1519
  385MOL0     H51957   7.021   7.177   9.376 -0.0417 -0.4414 -0.7896
  385MOL0     H51958   7.243   7.261   9.447  4.1862 -2.5415 -1.0361
  385MOL0     H51959   7.479   7.603   9.343 -0.0707  0.8758 -0.8600
  385MOL0     H51960   7.606   7.799   9.414 -0.0906  0.6143 -1.1838
  385MOL0     H51961   7.722   7.779  10.038  1.7999  2.2341 -1.3936
  385MOL0     H51962   7.577   7.613   9.923  0.6671 -1.4875  3.0873
  385MOL0     H51963   7.736   7.168   9.464 -1.3233  2.6055 -1.0346
  385MOL0     H51964   7.600   6.998   9.385  2.3667  0.5222  0.1658
  385MOL0     H51965   7.277   6.776   9.576  1.1003 -0.3450 -0.5601
  385MOL0     H51966   7.245   6.927   9.666 -3.2834 -1.1094  0.7928
  385MOL0     H51967   7.117   6.887   9.394 -0.7263 -1.1447  0.7631
  385MOL0     H51968   7.110   7.019   9.501  2.2784  0.2601  0.1597
  385MOL0     H51969   6.962   6.947   9.632 -1.1471 -1.0713  1.3207
  385MOL0     H51970   7.029   6.790   9.663 -0.3508  0.7955  1.2484
  385MOL0     H51971   6.814   6.755   9.573 -0.4722  2.1563  0.0826
  385MOL0     H51972   6.920   6.705   9.446 -1.8502 -1.9110  1.9499
  385MOL0     H51973   6.735   7.026   9.261 -2.6270  0.8752  0.4675
  385MOL0     H51974   7.309   7.110   9.684  0.0179 -2.7994 -0.1335
  385MOL0     H51975   7.457   7.307   9.750  1.5133  2.2382 -2.0207
  386MOL0     O51976   2.212   2.009   9.708  0.2164 -1.2492  0.4272
  386MOL0     C51977   2.208   1.923   9.797  0.0933  0.4192  0.3673
  386MOL0     O51978   2.283   1.923   9.909  0.2035 -0.4372 -0.2943
  386MOL0     C51979   2.359   2.027   9.935  0.2715 -0.3884 -0.5272
  386MOL0     C51980   2.464   2.076   9.850  0.3928  0.4482  0.1108
  386MOL0     C51981   2.545   2.188   9.887 -0.4406 -0.6937  1.4870
  386MOL0     C51982   2.535   2.237  10.019  0.6003  0.2680  0.1474
  386MOL0     O51983   2.611   2.351  10.038  0.0164 -0.2813  0.6317
  386MOL0     C51984   2.599   2.435  10.156 -0.9563 -0.7675  0.4908
  386MOL0     C51985   2.701   2.541  10.141 -0.5121  0.1189 -0.6622
  386MOL0     C51986   2.695   2.656  10.235  0.0498 -0.1615  0.3655
  386MOL0     C51987   2.812   2.750  10.198 -0.7439  0.7920 -0.3599
  386MOL0     C51988   2.790   2.864  10.299 -0.1214 -0.7651 -0.2153
  386MOL0     C51989   2.904   2.964  10.305  0.6071 -0.3557  0.4665
  386MOL0     C51990   2.902   3.053  10.171  0.2593 -0.1232  0.2376
  386MOL0     C51991   3.033   3.112  10.131  0.4439 -0.6056  0.1321
  386MOL0     N51992   3.040   3.190  10.009 -0.0137 -0.1527  0.2345
  386MOL0     C51993   2.967   3.303   9.994  0.4043  0.0685  0.0313
  386MOL0     C51994   3.002   3.353   9.873 -0.1063 -0.0646  0.0800
  386MOL0     C51995   2.948   3.478   9.802  0.2834 -0.6291  0.2300
  386MOL0     C51996   2.826   3.435   9.716  1.3428  0.7108 -0.3540
  386MOL0     C51997   2.756   3.542   9.636 -0.0145 -0.0137 -0.2045
  386MOL0     C51998   2.831   3.596   9.509 -0.0601 -0.0997 -0.0207
  386MOL0     O51999   2.878   3.497   9.414 -0.3387 -0.6283 -0.8020
  386MOL0     C52000   3.000   3.513   9.352 -0.0903  0.1613  0.2716
  386MOL0     C52001   3.081   3.639   9.344  0.4363 -0.1031  0.1135
  386MOL0     C52002   3.210   3.633   9.275 -0.3111 -0.2354 -0.3441
  386MOL0     C52003   3.287   3.769   9.261 -0.8353  0.4387  1.0453
  386MOL0     C52004   3.258   3.513   9.225  0.0953 -0.8947 -0.0258
  386MOL0     C52005   3.393   3.497   9.158  0.9116  1.2337  0.6497
  386MOL0     O52006   3.426   3.587   9.055 -0.5070 -0.4555  0.2479
  386MOL0     C52007   3.534   3.571   8.973 -0.7895  0.5464 -0.1112
  386MOL0     C52008   3.649   3.495   9.005  0.3921 -0.4821 -0.0737
  386MOL0     C52009   3.759   3.487   8.919  0.4847  1.0451 -0.0387
  386MOL0     C52010   3.767   3.572   8.814  0.2304  1.2835  0.4765
  386MOL0     O52011   3.879   3.575   8.732  0.3626  0.5843 -0.6142
  386MOL0     C52012   3.991   3.475   8.738 -0.1114 -0.0151  0.9490
  386MOL0     C52013   3.965   3.347   8.660 -0.7436 -0.3538 -0.5645
  386MOL0     C52014   3.998   3.228   8.753  0.5447  0.7922  0.0111
  386MOL0     C52015   4.004   3.104   8.663 -0.1737  0.1324 -0.3435
  386MOL0     C52016   3.994   2.975   8.742 -0.0134 -0.3733 -0.6901
  386MOL0     C52017   4.011   2.843   8.656 -0.0124 -0.9536  0.5769
  386MOL0     C52018   4.115   2.842   8.541 -0.9094 -0.3079  0.0869
  386MOL0     C52019   4.258   2.829   8.617 -0.2255  0.7146  0.8139
  386MOL0    Cl52020   4.412   2.848   8.512 -0.5372  0.2067 -0.1390
  386MOL0     C52021   3.656   3.651   8.778 -0.0493  0.2314 -0.1624
  386MOL0     C52022   3.538   3.643   8.860 -0.4382  0.1128 -0.3873
  386MOL0     O52023   3.432   3.381   9.161  0.1293  0.6001  0.0325
  386MOL0     C52024   3.170   3.395   9.223  0.4820 -0.4928 -0.5703
  386MOL0     C52025   3.044   3.405   9.288 -0.0536 -0.0712 -0.2653
  386MOL0     N52026   3.108   3.274   9.824  0.0283  0.8772 -0.2289
  386MOL0     N52027   3.127   3.178   9.900  0.2162 -0.8087  0.3462
  386MOL0     C52028   2.437   2.184  10.106  1.4187  0.5456 -1.7681
  386MOL0     C52029   2.351   2.082  10.061 -0.5680 -0.0146  0.0443
  386MOL0     C52030   2.127   1.801   9.767  0.7893  0.0443 -0.8047
  386MOL0     C52031   2.027   1.804   9.668 -0.4118  0.6481  0.2979
  386MOL0     C52032   1.944   1.695   9.645  0.8133  0.1777  0.0450
  386MOL0     C52033   1.974   1.580   9.720 -0.8470  0.0377 -0.4213
  386MOL0     O52034   1.890   1.467   9.710 -0.9804 -0.2357 -0.8628
  386MOL0     C52035   1.833   1.426   9.588  0.6348  0.3322  0.2441
  386MOL0     C52036   1.751   1.292   9.613  0.2481  0.2714 -0.2640
  386MOL0     C52037   1.664   1.305   9.737  0.3345  0.5538  0.4446
  386MOL0     C52038   1.557   1.414   9.741 -0.8090  0.2112  0.4262
  386MOL0     C52039   1.601   1.551   9.784  0.7313 -0.9563  0.1551
  386MOL0     C52040   1.636   1.658   9.830  0.7700  0.8713  0.7431
  386MOL0     C52041   2.080   1.574   9.805  0.9947  0.0743 -1.3111
  386MOL0     C52042   2.151   1.683   9.837  0.0444 -0.8222  0.5935
  386MOL0     H52043   2.478   2.029   9.753  1.2480 -0.9434  0.8746
  386MOL0     H52044   2.607   2.231   9.809  1.2539  0.4191  3.3230
  386MOL0     H52045   2.504   2.487  10.170 -0.1756  0.9464 -0.2503
  386MOL0     H52046   2.629   2.376  10.243  1.3946  1.3655  1.2490
  386MOL0     H52047   2.789   2.485  10.172  0.5925  1.8399 -0.5519
  386MOL0     H52048   2.727   2.568  10.038  0.5135 -0.7710 -0.6496
  386MOL0     H52049   2.602   2.712  10.223 -0.6307 -1.4655 -0.8856
  386MOL0     H52050   2.697   2.616  10.337  1.9449  0.4195  0.5888
  386MOL0     H52051   2.909   2.700  10.208 -0.8634  0.5758 -0.2700
  386MOL0     H52052   2.809   2.784  10.094  0.2413  2.0991  0.0169
  386MOL0     H52053   2.698   2.916  10.270  1.8842  1.7842 -2.5671
  386MOL0     H52054   2.782   2.830  10.403  1.5268 -0.8081 -0.0753
  386MOL0     H52055   2.906   3.020  10.399 -2.8676 -0.6740  0.8445
  386MOL0     H52056   3.005   2.920  10.305  0.4040 -0.8650  1.9253
  386MOL0     H52057   2.865   3.005  10.080  3.6846  1.0857 -2.0294
  386MOL0     H52058   2.837   3.139  10.190  0.5371 -0.1323  1.2979
  386MOL0     H52059   3.103   3.029  10.117 -0.4565 -1.8744  2.6063
  386MOL0     H52060   3.071   3.171  10.216 -3.0014  0.1397  1.3026
  386MOL0     H52061   2.874   3.338  10.038  0.2975  0.7016 -0.6917
  386MOL0     H52062   2.928   3.562   9.869 -3.0534  2.3412 -3.9219
  386MOL0     H52063   3.026   3.514   9.734 -2.2232  0.7393 -2.1402
  386MOL0     H52064   2.756   3.388   9.787  2.4997 -3.6240 -1.7844
  386MOL0     H52065   2.848   3.354   9.646  2.5367  1.7055 -1.1610
  386MOL0     H52066   2.735   3.625   9.704 -0.8367 -1.5696  1.5526
  386MOL0     H52067   2.656   3.509   9.605 -1.2293  1.2571  2.0853
  386MOL0     H52068   2.916   3.652   9.550 -1.4969  0.9369  1.7114
  386MOL0     H52069   2.774   3.671   9.453  0.8546  1.7242  1.3726
  386MOL0     H52070   3.057   3.720   9.412  1.3588 -0.5467  0.9893
  386MOL0     H52071   3.392   3.765   9.292 -0.7254  2.3049  1.0180
  386MOL0     H52072   3.300   3.798   9.156 -1.0853 -0.2827  0.8099
  386MOL0     H52073   3.231   3.854   9.301 -2.9301  0.1833 -1.0950
  386MOL0     H52074   3.659   3.440   9.099  3.2779  2.9411  1.8672
  386MOL0     H52075   3.837   3.422   8.957  1.1025  1.3092 -0.8221
  386MOL0     H52076   4.075   3.530   8.695 -1.8261  0.4785 -2.0484
  386MOL0     H52077   4.015   3.468   8.845  0.5460  1.1849  0.9014
  386MOL0     H52078   3.861   3.342   8.626 -1.5848  2.1385  1.3336
  386MOL0     H52079   4.026   3.354   8.569 -3.1097  0.8798 -2.1901
  386MOL0     H52080   3.919   3.210   8.827  1.1199 -3.0542 -0.0998
  386MOL0     H52081   4.088   3.233   8.815 -0.9792  0.7585  2.3492
  386MOL0     H52082   3.922   3.112   8.591 -1.4281  2.7155  1.2333
  386MOL0     H52083   4.100   3.115   8.611  0.4495 -0.1694  0.7109
  386MOL0     H52084   3.897   2.981   8.794  0.1960 -3.4244  0.2408
  386MOL0     H52085   4.070   2.983   8.820 -2.2345  1.3035  1.4935
  386MOL0     H52086   4.027   2.764   8.729  1.3615  0.6600  2.1395
  386MOL0     H52087   3.914   2.829   8.609  0.9118 -0.0837 -1.7585
  386MOL0     H52088   4.110   2.931   8.477 -1.4911 -0.9533 -0.7797
  386MOL0     H52089   4.112   2.751   8.480  0.8586 -1.5278  1.7242
  386MOL0     H52090   4.265   2.735   8.672 -4.2144  0.1462  0.6172
  386MOL0     H52091   4.262   2.904   8.697  1.2657  0.5162  0.9481
  386MOL0     H52092   3.666   3.714   8.691  2.5159 -0.1301 -0.1993
  386MOL0     H52093   3.447   3.698   8.840 -0.1197 -0.3314 -3.5401
  386MOL0     H52094   3.193   3.303   9.172  1.0034 -1.0052  0.5496
  386MOL0     H52095   2.980   3.318   9.292  0.3279 -0.3574 -0.3061
  386MOL0     H52096   2.424   2.234  10.201 -1.3041 -1.9073 -0.6683
  386MOL0     H52097   2.263   2.070  10.123 -0.1043 -1.2932  0.4888
  386MOL0     H52098   2.005   1.894   9.612  0.2939  0.8926  0.4030
  386MOL0     H52099   1.855   1.704   9.582  0.0859  0.8276  1.1305
  386MOL0     H52100   1.771   1.502   9.540 -2.4803 -2.9687 -1.4556
  386MOL0     H52101   1.915   1.408   9.518  1.8414 -1.0338  1.9388
  386MOL0     H52102   1.827   1.214   9.627  1.4075  1.1838 -1.2899
  386MOL0     H52103   1.692   1.260   9.526  1.0066 -2.4350  0.1065
  386MOL0     H52104   1.734   1.313   9.820  1.0541  3.0829 -0.3252
  386MOL0     H52105   1.607   1.213   9.750  2.1804 -0.6140  0.5873
  386MOL0     H52106   1.477   1.383   9.809 -0.6370 -2.0068 -0.3218
  386MOL0     H52107   1.515   1.411   9.640  0.2166 -3.7612 -0.0174
  386MOL0     H52108   1.689   1.736   9.881  1.0807  0.8288  0.4890
  386MOL0     H52109   2.107   1.480   9.853  2.6633 -0.3753 -3.0366
  386MOL0     H52110   2.218   1.678   9.921  0.8077  1.8297  0.2342
  387MOL0     O52111   9.287   0.812   7.902 -0.4903 -0.9802  0.2839
  387MOL0     C52112   9.256   0.902   7.829 -0.4755 -0.3510  0.1331
  387MOL0     O52113   9.336   0.994   7.758 -0.2233 -0.4066  0.2023
  387MOL0     C52114   9.462   0.986   7.796  0.4338  0.3830  0.6786
  387MOL0     C52115   9.545   0.882   7.754 -0.2066 -0.4935  0.1747
  387MOL0     C52116   9.676   0.874   7.801 -1.0422  0.2782 -0.5714
  387MOL0     C52117   9.725   0.965   7.891  0.9850 -0.5694 -0.4134
  387MOL0     O52118   9.854   0.967   7.927  0.0800  0.5017 -0.3736
  387MOL0     C52119   9.937   0.856   7.893 -0.2399  0.5834  1.0385
  387MOL0     C52120  10.077   0.864   7.957  0.0932  0.2016 -0.0778
  387MOL0     C52121  10.157   0.985   7.933 -0.4138 -1.1562 -0.1359
  387MOL0     C52122  10.218   0.977   7.793  0.1882 -0.0138  0.0455
  387MOL0     C52123  10.265   1.118   7.759 -1.0992  0.1431 -0.3011
  387MOL0     C52124  10.330   1.137   7.623  0.0849 -0.0305 -0.2609
  387MOL0     C52125  10.388   1.281   7.617 -0.2076  0.7832  0.1658
  387MOL0     C52126  10.484   1.295   7.499  0.2958 -0.0203 -0.3654
  387MOL0     N52127  10.426   1.264   7.367  0.8536  0.4595 -0.2420
  387MOL0     C52128  10.309   1.318   7.326  0.9905 -0.4860  0.2860
  387MOL0     C52129  10.284   1.269   7.203 -0.1324 -0.2672 -0.7769
  387MOL0     C52130  10.177   1.309   7.105  0.8692  0.5025  0.4846
  387MOL0     C52131  10.040   1.252   7.147  0.3298  1.6657  1.2578
  387MOL0     C52132   9.934   1.244   7.042 -1.1107  0.0523  0.4807
  387MOL0     C52133   9.892   1.378   6.986 -0.2695  0.2607 -0.1340
  387MOL0     O52134   9.841   1.467   7.085 -0.7051  0.3036 -0.2028
  387MOL0     C52135   9.817   1.593   7.043 -0.5937 -0.1788  0.7669
  387MOL0     C52136   9.813   1.628   6.905  0.5636  0.6437 -0.6205
  387MOL0     C52137   9.739   1.751   6.867  0.2075  0.0296 -0.3545
  387MOL0     C52138   9.726   1.782   6.718  0.3566 -0.2686  0.2913
  387MOL0     C52139   9.680   1.840   6.963 -0.2924  0.2561 -0.2558
  387MOL0     C52140   9.630   1.975   6.941  0.0410  1.2356  0.5340
  387MOL0     O52141   9.688   2.081   7.003  0.2937 -0.1381 -0.8238
  387MOL0     C52142   9.677   2.198   6.944  0.2351  0.1527  0.5068
  387MOL0     C52143   9.795   2.253   6.903 -0.1927 -0.4170  0.0439
  387MOL0     C52144   9.794   2.393   6.855  0.9530 -0.7897 -0.0804
  387MOL0     C52145   9.672   2.470   6.860  0.1231 -0.1254  0.3302
  387MOL0     O52146   9.661   2.603   6.828  0.5222  0.7069  0.5946
  387MOL0     C52147   9.600   2.621   6.694  0.0815  0.3154 -0.6984
  387MOL0     C52148   9.712   2.625   6.594  0.1326  0.4995 -0.0352
  387MOL0     C52149   9.653   2.649   6.454  0.8106  0.0658 -0.3951
  387MOL0     C52150   9.742   2.595   6.344  0.7714  0.3429  0.2549
  387MOL0     C52151   9.678   2.613   6.205  0.2574  0.2137  0.3595
  387MOL0     C52152   9.785   2.548   6.106  0.4727 -0.6450 -0.1293
  387MOL0     C52153   9.756   2.598   5.956 -0.4682  1.2404  0.1731
  387MOL0     C52154   9.871   2.543   5.875 -0.0117  0.2732  0.7993
  387MOL0    Cl52155   9.867   2.607   5.702  0.2665 -0.7844  0.5319
  387MOL0     C52156   9.556   2.402   6.888  0.2358  0.2044 -0.0519
  387MOL0     C52157   9.560   2.271   6.932 -0.5053  0.0683 -0.5001
  387MOL0     O52158   9.515   1.968   6.893 -0.7612  0.5527  0.1541
  387MOL0     C52159   9.693   1.801   7.098 -0.3788 -0.5661  0.1459
  387MOL0     C52160   9.765   1.690   7.126 -0.1430  0.6029  0.2597
  387MOL0     N52161  10.401   1.198   7.170 -0.3245 -0.4247  0.3190
  387MOL0     N52162  10.488   1.196   7.268 -0.6408  0.0589 -0.1867
  387MOL0     C52163   9.646   1.071   7.934  0.3202 -1.7061 -0.5626
  387MOL0     C52164   9.511   1.072   7.901 -0.0504 -0.6150  0.1615
  387MOL0     C52165   9.106   0.924   7.808 -0.3931  0.4700 -0.8558
  387MOL0     C52166   9.064   1.043   7.757 -0.8715 -0.2392  0.1755
  387MOL0     C52167   8.929   1.062   7.740  0.3790 -0.1652  0.5907
  387MOL0     C52168   8.833   0.960   7.765 -0.6457 -1.1086  0.5605
  387MOL0     O52169   8.702   0.979   7.751  0.4931  0.5100 -0.6094
  387MOL0     C52170   8.646   1.106   7.758  0.8812 -0.2326 -0.0121
  387MOL0     C52171   8.494   1.098   7.768  0.0077  0.1463  0.2933
  387MOL0     C52172   8.435   1.035   7.640  0.7903  0.4162 -0.4495
  387MOL0     C52173   8.274   1.048   7.636 -0.3819  0.1022  0.4583
  387MOL0     C52174   8.225   1.179   7.597  0.8232  0.5467 -0.9122
  387MOL0     C52175   8.202   1.299   7.569  0.7638  0.5977  1.1842
  387MOL0     C52176   8.875   0.833   7.802  0.5380 -0.2434 -0.6244
  387MOL0     C52177   9.009   0.811   7.831  1.4311 -0.5681  0.0709
  387MOL0     H52178   9.515   0.810   7.678 -0.0093 -1.0005  0.5744
  387MOL0     H52179   9.737   0.786   7.783 -0.1864  0.2402  2.0727
  387MOL0     H52180   9.899   0.771   7.950  0.1082  0.2471  0.7701
  387MOL0     H52181   9.958   0.844   7.786  1.0732 -1.8943  1.4995
  387MOL0     H52182  10.064   0.842   8.064 -0.8930 -3.6427 -0.8370
  387MOL0     H52183  10.136   0.780   7.921 -1.3605 -0.6665 -0.5577
  387MOL0     H52184  10.093   1.074   7.937 -1.7147 -1.9389 -1.8454
  387MOL0     H52185  10.231   1.007   8.010 -1.6336  0.8843  0.5020
  387MOL0     H52186  10.300   0.905   7.799 -2.2833 -3.1379 -0.6324
  387MOL0     H52187  10.145   0.945   7.718 -0.3430 -2.0545  1.3499
  387MOL0     H52188  10.193   1.199   7.773 -1.4843 -0.3930  0.9547
  387MOL0     H52189  10.337   1.129   7.841 -1.9753  0.6490  0.4229
  387MOL0     H52190  10.411   1.063   7.624 -0.7429 -0.9608  0.4517
  387MOL0     H52191  10.249   1.116   7.553 -3.4210 -0.5742  3.5598
  387MOL0     H52192  10.306   1.354   7.616 -2.9252 -1.9761  1.5472
  387MOL0     H52193  10.438   1.292   7.713  2.6088 -1.9972 -0.8101
  387MOL0     H52194  10.556   1.214   7.513 -1.5057 -1.6734 -0.1983
  387MOL0     H52195  10.524   1.397   7.495 -1.9911  1.0018  0.7643
  387MOL0     H52196  10.232   1.373   7.379  0.5679  0.0753 -0.8809
  387MOL0     H52197  10.182   1.418   7.101 -1.2592  0.8058  3.2630
  387MOL0     H52198  10.203   1.285   7.001  0.5147  2.3536 -0.0818
  387MOL0     H52199  10.001   1.306   7.234 -2.9439 -0.8323  1.5180
  387MOL0     H52200  10.053   1.148   7.179  1.7224  1.2113 -0.6352
  387MOL0     H52201   9.841   1.195   7.071 -2.6781  1.3851 -1.9542
  387MOL0     H52202   9.974   1.180   6.963 -1.3177  1.1051 -0.5035
  387MOL0     H52203   9.814   1.351   6.914 -1.7347  2.8488  0.3460
  387MOL0     H52204   9.975   1.414   6.923 -0.2845  0.4119 -0.0663
  387MOL0     H52205   9.834   1.557   6.826 -1.9240  0.5175 -1.2503
  387MOL0     H52206   9.720   1.698   6.648 -0.1212  1.5557 -1.9779
  387MOL0     H52207   9.632   1.837   6.706  2.0523  2.2085 -3.2537
  387MOL0     H52208   9.797   1.858   6.685 -1.6255  0.0722 -3.6722
  387MOL0     H52209   9.877   2.184   6.918 -1.8636 -2.5868 -0.2743
  387MOL0     H52210   9.877   2.435   6.799  0.0129 -2.0040 -2.5453
  387MOL0     H52211   9.524   2.544   6.679  0.8055 -0.1360 -2.2490
  387MOL0     H52212   9.545   2.716   6.689  2.3781  1.7643 -0.1814
  387MOL0     H52213   9.785   2.706   6.608 -1.7057  2.0875  0.9058
  387MOL0     H52214   9.762   2.528   6.601 -1.2781 -0.1131  3.5796
  387MOL0     H52215   9.636   2.754   6.429 -0.9045 -0.5366 -2.0163
  387MOL0     H52216   9.560   2.592   6.444  0.4444  0.8828 -2.0228
  387MOL0     H52217   9.837   2.648   6.342  1.4093 -0.7372  0.8707
  387MOL0     H52218   9.759   2.487   6.354 -2.7132 -0.3304  0.3158
  387MOL0     H52219   9.665   2.721   6.192  2.0895  0.3355 -0.9344
  387MOL0     H52220   9.581   2.565   6.203  0.7711 -0.8681  0.6478
  387MOL0     H52221   9.882   2.586   6.140  0.2919 -0.9716  0.7695
  387MOL0     H52222   9.800   2.440   6.111 -0.7990 -0.7644  2.5919
  387MOL0     H52223   9.760   2.706   5.941 -0.1076  1.2824  0.5504
  387MOL0     H52224   9.657   2.568   5.922  0.6675  0.4306 -2.7463
  387MOL0     H52225   9.879   2.433   5.871  0.6301  0.3498 -1.7500
  387MOL0     H52226   9.963   2.587   5.914  0.9410  0.3852 -1.4141
  387MOL0     H52227   9.464   2.460   6.883 -2.1885 -3.1361  1.7012
  387MOL0     H52228   9.468   2.230   6.972 -0.7487  1.5142  0.5221
  387MOL0     H52229   9.653   1.869   7.172  1.0594 -2.4954  2.8580
  387MOL0     H52230   9.759   1.667   7.232  2.9917  3.8929  1.3395
  387MOL0     H52231   9.684   1.125   8.020  1.9433  1.3785 -3.0417
  387MOL0     H52232   9.443   1.144   7.947  1.3291  1.7677 -1.3407
  387MOL0     H52233   9.142   1.117   7.741 -1.2734 -0.0389 -0.9338
  387MOL0     H52234   8.890   1.158   7.708 -1.5814 -1.1703 -0.2071
  387MOL0     H52235   8.685   1.161   7.844 -0.8358 -0.1075  0.7290
  387MOL0     H52236   8.679   1.160   7.669  1.4554  0.3709  0.5519
  387MOL0     H52237   8.446   1.193   7.790 -0.4656 -0.4532  1.9455
  387MOL0     H52238   8.467   1.042   7.858 -0.0616  1.3313  1.0234
  387MOL0     H52239   8.466   0.930   7.639 -1.0032 -0.1540 -1.1842
  387MOL0     H52240   8.480   1.073   7.548 -0.8871 -1.9124 -2.3834
  387MOL0     H52241   8.228   1.024   7.732 -0.7017 -1.0341  0.0497
  387MOL0     H52242   8.240   0.977   7.560  2.2266 -0.3988 -0.3652
  387MOL0     H52243   8.200   1.399   7.531  2.2242  0.1410 -0.2030
  387MOL0     H52244   8.798   0.757   7.816  0.2612  0.3026  1.0844
  387MOL0     H52245   9.036   0.717   7.879  2.0845  0.3425  1.5331
  388MOL0     O52246   0.855   1.520   5.673  0.2504 -0.3784 -0.6618
  388MOL0     C52247   0.765   1.500   5.762  0.5504 -0.7162 -0.2654
  388MOL0     O52248   0.639   1.562   5.767  0.4464 -0.6611  0.2923
  388MOL0     C52249   0.619   1.700   5.747 -0.7366 -0.5063  0.2949
  388MOL0     C52250   0.710   1.787   5.697  0.8633 -0.5224  0.5793
  388MOL0     C52251   0.681   1.916   5.664  0.3811 -0.6835 -0.3956
  388MOL0     C52252   0.556   1.967   5.685  0.4850  0.1067 -0.9441
  388MOL0     O52253   0.517   2.095   5.661  0.5842 -0.0895  0.5804
  388MOL0     C52254   0.616   2.190   5.685 -0.2435 -1.0005 -0.0422
  388MOL0     C52255   0.541   2.322   5.686 -0.0319 -0.2283  0.5340
  388MOL0     C52256   0.632   2.444   5.669  0.3787  0.2533  0.3783
  388MOL0     C52257   0.698   2.463   5.530 -0.9951 -0.4334 -0.1033
  388MOL0     C52258   0.782   2.596   5.520 -1.0455  0.1973 -0.8886
  388MOL0     C52259   0.928   2.605   5.590  0.6084 -0.4505  0.0659
  388MOL0     C52260   1.017   2.708   5.524  0.3080  0.1402  0.2596
  388MOL0     C52261   1.045   2.662   5.373  0.9790  0.1117  0.5027
  388MOL0     N52262   1.169   2.726   5.338 -0.5061 -0.1791 -0.5874
  388MOL0     C52263   1.185   2.865   5.303  0.3388 -0.2589 -0.2725
  388MOL0     C52264   1.319   2.866   5.273  1.1818  0.5908  0.0090
  388MOL0     C52265   1.404   2.979   5.240 -0.6158  0.1280  0.1907
  388MOL0     C52266   1.350   3.103   5.316  0.3613 -0.4804 -0.4016
  388MOL0     C52267   1.364   3.079   5.465  0.0882  0.2921  0.2065
  388MOL0     C52268   1.314   3.206   5.543  0.8482  0.6383 -0.4348
  388MOL0     O52269   1.168   3.209   5.522  0.1463 -0.3572  0.1794
  388MOL0     C52270   1.088   3.300   5.586 -0.6780  1.2658 -1.3278
  388MOL0     C52271   1.133   3.420   5.642 -1.0931 -0.2020  0.6688
  388MOL0     C52272   1.049   3.512   5.703  0.0112  1.2255  0.2758
  388MOL0     C52273   1.113   3.641   5.755  0.5473 -0.4940  0.2560
  388MOL0     C52274   0.908   3.487   5.700  0.3089 -0.3266  0.3420
  388MOL0     C52275   0.801   3.578   5.748 -0.0457  0.6559 -0.7127
  388MOL0     O52276   0.676   3.535   5.719 -0.2387  0.4191 -0.8715
  388MOL0     C52277   0.561   3.563   5.790 -0.3480  0.3571 -0.3274
  388MOL0     C52278   0.534   3.667   5.879  0.1332  0.0726 -0.1722
  388MOL0     C52279   0.408   3.687   5.937 -0.0503  0.2422 -0.5642
  388MOL0     C52280   0.309   3.595   5.903 -0.0969 -0.7501 -0.2718
  388MOL0     O52281   0.187   3.611   5.963  0.5564  0.1254  0.2818
  388MOL0     C52282   0.080   3.684   5.892 -0.4484 -0.0182 -0.3177
  388MOL0     C52283  -0.052   3.645   5.971  0.6154  0.5007  0.0806
  388MOL0     C52284  -0.128   3.529   5.924 -0.6816 -0.1752  0.0222
  388MOL0     C52285  -0.203   3.558   5.792  1.4003  0.0196 -0.4504
  388MOL0     C52286  -0.276   3.430   5.742  0.7283  0.0709  0.9410
  388MOL0     C52287  -0.322   3.434   5.593  0.4790  0.1480  0.6804
  388MOL0     C52288  -0.405   3.558   5.542 -0.2598  0.2009 -0.2712
  388MOL0     C52289  -0.534   3.565   5.635 -0.6197 -1.0185  0.9445
  388MOL0    Cl52290  -0.651   3.446   5.577  0.6632 -0.5057  0.3636
  388MOL0     C52291   0.335   3.484   5.823 -0.8990 -0.7695  0.1690
  388MOL0     C52292   0.459   3.473   5.759 -0.5872  0.3493 -0.8144
  388MOL0     O52293   0.833   3.691   5.785  0.0627 -0.3934  0.1118
  388MOL0     C52294   0.865   3.367   5.637  0.2685  0.7049 -0.1638
  388MOL0     C52295   0.957   3.274   5.587 -0.0276  0.5103 -0.5647
  388MOL0     N52296   1.377   2.740   5.269  0.0271  0.3459 -0.6938
  388MOL0     N52297   1.290   2.656   5.305  0.2106  0.4893  0.4477
  388MOL0     C52298   0.465   1.883   5.734  0.9275  0.3584 -0.5643
  388MOL0     C52299   0.494   1.751   5.768 -0.4165 -0.1215  0.1186
  388MOL0     C52300   0.785   1.398   5.860 -0.6579  0.8398  0.2767
  388MOL0     C52301   0.697   1.385   5.967  0.3698  0.6544  0.2714
  388MOL0     C52302   0.706   1.267   6.045 -0.5348 -0.8533 -0.1487
  388MOL0     C52303   0.812   1.179   6.031  0.1866  0.4050 -0.5836
  388MOL0     O52304   0.802   1.071   6.112 -0.5306  0.5170 -0.4506
  388MOL0     C52305   0.924   1.003   6.137 -0.4180  1.1030  0.3452
  388MOL0     C52306   0.883   0.889   6.239 -0.2185  1.2597 -0.0893
  388MOL0     C52307   0.798   0.775   6.175  0.4458  0.5226  0.0865
  388MOL0     C52308   0.820   0.642   6.235 -0.1773 -0.8482 -0.4137
  388MOL0     C52309   0.738   0.532   6.183  0.2787 -0.3194  0.9151
  388MOL0     C52310   0.675   0.444   6.140  0.2870 -0.1124  0.3062
  388MOL0     C52311   0.904   1.202   5.935 -0.2715  0.6370  0.8492
  388MOL0     C52312   0.896   1.307   5.846  0.6074 -0.2997 -1.0834
  388MOL0     H52313   0.814   1.758   5.687  0.2470 -2.3687 -1.1420
  388MOL0     H52314   0.765   1.975   5.627 -0.3246  2.4876  2.5387
  388MOL0     H52315   0.669   2.166   5.777 -1.4783 -1.2865  0.6039
  388MOL0     H52316   0.692   2.200   5.606  1.8585  0.8104  2.0465
  388MOL0     H52317   0.464   2.305   5.611 -0.5533 -3.1541  1.6155
  388MOL0     H52318   0.482   2.325   5.778 -0.9453 -0.8999 -0.0213
  388MOL0     H52319   0.567   2.530   5.684 -0.1881 -0.2984  1.1803
  388MOL0     H52320   0.702   2.442   5.752  2.9344  0.4743 -1.6393
  388MOL0     H52321   0.773   2.384   5.520 -0.5777 -0.2231  1.1899
  388MOL0     H52322   0.629   2.462   5.446  1.6849 -1.8697 -2.4840
  388MOL0     H52323   0.789   2.616   5.413 -1.4981  1.4001 -0.7143
  388MOL0     H52324   0.712   2.667   5.565 -1.1752 -0.7868  0.5480
  388MOL0     H52325   0.898   2.645   5.688 -0.8983  0.6570 -0.7995
  388MOL0     H52326   0.981   2.510   5.605  1.1718  0.1859  2.6219
  388MOL0     H52327   0.977   2.809   5.526  1.8742  0.7868  0.5213
  388MOL0     H52328   1.117   2.706   5.569  0.5945 -0.1618 -0.3655
  388MOL0     H52329   0.969   2.685   5.299  1.6123 -1.3244 -0.6314
  388MOL0     H52330   1.061   2.554   5.376 -0.9039 -0.1920  0.9213
  388MOL0     H52331   1.129   2.957   5.313  2.6447  1.3142 -0.7598
  388MOL0     H52332   1.508   2.958   5.265  0.0777  3.2937  0.4253
  388MOL0     H52333   1.398   2.999   5.133 -0.4138  0.4332  0.2333
  388MOL0     H52334   1.248   3.128   5.286  0.5431  0.9562  0.1362
  388MOL0     H52335   1.411   3.188   5.283 -1.7455 -0.1430 -3.9530
  388MOL0     H52336   1.472   3.067   5.482  0.0589 -0.2417  0.0311
  388MOL0     H52337   1.312   2.994   5.510  1.4906  0.7125  2.8664
  388MOL0     H52338   1.350   3.297   5.493  1.0548  1.8594  1.7991
  388MOL0     H52339   1.342   3.197   5.648 -0.9863  1.2110  0.1454
  388MOL0     H52340   1.239   3.440   5.644 -1.3882  1.8276 -0.7068
  388MOL0     H52341   1.104   3.716   5.676  0.0835  0.5605  1.2747
  388MOL0     H52342   1.075   3.678   5.851 -0.6664 -0.9896 -0.0156
  388MOL0     H52343   1.216   3.613   5.779  0.1713 -2.6683 -0.4830
  388MOL0     H52344   0.616   3.737   5.885 -0.0886  1.2051 -5.6467
  388MOL0     H52345   0.396   3.775   6.000 -2.1319  0.3726 -1.0742
  388MOL0     H52346   0.102   3.791   5.898  3.6711 -0.7654  2.5492
  388MOL0     H52347   0.075   3.640   5.792 -1.6044 -3.0107  0.9502
  388MOL0     H52348  -0.037   3.635   6.079 -2.6015 -5.1978  0.4093
  388MOL0     H52349  -0.131   3.720   5.964 -0.2062 -0.5013 -2.9247
  388MOL0     H52350  -0.204   3.506   5.999 -0.3839 -0.7422  0.1617
  388MOL0     H52351  -0.070   3.436   5.914 -0.6669 -0.2167  0.4648
  388MOL0     H52352  -0.273   3.635   5.826  2.6327  0.4568  1.2138
  388MOL0     H52353  -0.144   3.576   5.702  0.9855 -2.0336 -1.1909
  388MOL0     H52354  -0.366   3.412   5.802  0.2805  1.9711  0.9210
  388MOL0     H52355  -0.208   3.345   5.752 -0.0116 -0.5274  0.9529
  388MOL0     H52356  -0.234   3.431   5.528  0.2364 -1.1131  0.3870
  388MOL0     H52357  -0.386   3.347   5.577 -4.4328  3.7497 -2.0811
  388MOL0     H52358  -0.432   3.552   5.436  0.1353 -0.6027 -0.3320
  388MOL0     H52359  -0.341   3.646   5.559  1.2961 -0.9214 -0.0423
  388MOL0     H52360  -0.564   3.670   5.627  1.0904 -0.5701 -0.2602
  388MOL0     H52361  -0.504   3.550   5.739  0.7885  1.6981  1.0484
  388MOL0     H52362   0.261   3.407   5.803 -1.9013  0.7663 -2.4689
  388MOL0     H52363   0.471   3.385   5.696 -1.5143  0.7730 -1.5992
  388MOL0     H52364   0.762   3.333   5.634 -0.3699  1.5616  4.7152
  388MOL0     H52365   0.926   3.181   5.541 -1.2105  2.3635 -3.8050
  388MOL0     H52366   0.363   1.917   5.748 -0.2121 -2.3689 -1.4560
  388MOL0     H52367   0.420   1.688   5.815 -0.0801 -0.8111 -0.2589
  388MOL0     H52368   0.611   1.449   5.987 -0.4198 -0.5812  1.0015
  388MOL0     H52369   0.628   1.259   6.119  0.8919 -3.3415  1.2259
  388MOL0     H52370   0.953   0.952   6.045 -4.5493  1.5879 -1.4607
  388MOL0     H52371   0.997   1.077   6.172  2.2243 -1.4156  0.5869
  388MOL0     H52372   0.834   0.928   6.328  1.1719  0.0349  1.2634
  388MOL0     H52373   0.980   0.846   6.267 -0.1808  0.2154 -1.6707
  388MOL0     H52374   0.819   0.772   6.068  2.8308 -3.7718  0.4508
  388MOL0     H52375   0.692   0.802   6.185  0.4485  0.4706  0.2501
  388MOL0     H52376   0.800   0.659   6.342 -1.7311 -2.1806 -0.4614
  388MOL0     H52377   0.925   0.611   6.228  0.0676 -0.2732  0.4674
  388MOL0     H52378   0.616   0.355   6.138 -2.0341  1.3315  0.0484
  388MOL0     H52379   0.995   1.144   5.930  1.9692  3.6748  2.5994
  388MOL0     H52380   0.975   1.321   5.773  1.7855  0.6776  0.3281
  389MOL0     O52381   6.785   3.837   1.496  0.1340 -0.0631 -0.6706
  389MOL0     C52382   6.826   3.739   1.439  0.3294  0.4781  0.3909
  389MOL0     O52383   6.767   3.618   1.440 -0.0120  0.3658 -0.3431
  389MOL0     C52384   6.652   3.584   1.515 -0.3565 -0.1779  0.4394
  389MOL0     C52385   6.584   3.462   1.486 -0.6647  0.4678  0.6901
  389MOL0     C52386   6.468   3.424   1.558 -0.2056 -0.1563  0.2243
  389MOL0     C52387   6.414   3.501   1.657 -0.1767  0.0765  0.6823
  389MOL0     O52388   6.283   3.491   1.695  0.6511 -0.1958 -0.5338
  389MOL0     C52389   6.268   3.474   1.835 -0.2878 -0.1295 -0.2122
  389MOL0     C52390   6.127   3.435   1.889  0.6549  0.3907 -0.2915
  389MOL0     C52391   6.034   3.550   1.888  0.2731  0.5169 -0.7912
  389MOL0     C52392   5.909   3.498   1.941 -0.4505  0.0116  0.1690
  389MOL0     C52393   5.785   3.590   1.918 -0.0533 -0.0547  0.2451
  389MOL0     C52394   5.738   3.541   1.779  1.1078 -0.6735  0.3319
  389MOL0     C52395   5.646   3.642   1.727 -0.1831 -0.2584  1.0433
  389MOL0     C52396   5.599   3.621   1.582  0.3739  0.0778  1.3023
  389MOL0     N52397   5.493   3.727   1.552  0.3862  0.1190  0.3317
  389MOL0     C52398   5.525   3.849   1.506  0.0037 -0.0349 -0.2441
  389MOL0     C52399   5.410   3.917   1.499  1.0819 -0.1457  0.3513
  389MOL0     C52400   5.395   4.062   1.455  0.0620 -0.2415 -0.2746
  389MOL0     C52401   5.254   4.109   1.430 -0.2028 -0.4110 -0.1558
  389MOL0     C52402   5.250   4.244   1.362 -0.2321 -0.1195  0.6392
  389MOL0     C52403   5.340   4.355   1.412 -0.8301 -0.5943  0.3990
  389MOL0     O52404   5.306   4.475   1.353  0.6470  0.0700 -0.5908
  389MOL0     C52405   5.193   4.547   1.401  0.4743 -0.5113 -0.4795
  389MOL0     C52406   5.108   4.512   1.500  0.9090 -0.1193 -0.0933
  389MOL0     C52407   5.002   4.593   1.537  0.0916  0.0922 -0.7312
  389MOL0     C52408   4.899   4.543   1.636  0.4423  1.0480 -0.1173
  389MOL0     C52409   4.995   4.732   1.496  0.3526  0.7161  0.9622
  389MOL0     C52410   4.901   4.823   1.550  0.4750 -0.3628 -0.0615
  389MOL0     O52411   4.882   4.830   1.678 -0.1993  0.0479  0.4862
  389MOL0     C52412   4.793   4.926   1.720 -1.0749 -0.2848  1.2753
  389MOL0     C52413   4.665   4.880   1.747 -0.4332  0.2161 -0.3574
  389MOL0     C52414   4.572   4.972   1.786  0.1723  0.2574  0.1305
  389MOL0     C52415   4.600   5.097   1.818 -0.0856 -0.3083  0.4802
  389MOL0     O52416   4.491   5.166   1.856 -0.2210  0.2667 -0.7142
  389MOL0     C52417   4.467   5.219   1.987  0.0250  0.5234 -0.2768
  389MOL0     C52418   4.336   5.289   1.992 -0.2031 -0.5146 -0.6861
  389MOL0     C52419   4.364   5.419   1.915  0.7204 -0.3656  0.3079
  389MOL0     C52420   4.255   5.514   1.887 -0.5776 -0.9817 -0.9000
  389MOL0     C52421   4.149   5.476   1.784  0.1020 -0.0499  0.7884
  389MOL0     C52422   4.104   5.333   1.756  0.0976 -0.6176 -0.4852
  389MOL0     C52423   4.005   5.327   1.640  0.4790 -0.7763  0.3576
  389MOL0     C52424   4.077   5.311   1.509 -0.3440  0.5712  0.0312
  389MOL0    Cl52425   3.969   5.318   1.376 -0.4742 -0.1613  0.2824
  389MOL0     C52426   4.728   5.154   1.794  1.0629  0.1971  0.3412
  389MOL0     C52427   4.830   5.066   1.737 -0.6648  0.7831 -0.2040
  389MOL0     O52428   4.842   4.898   1.464  0.9169  0.1712  0.8426
  389MOL0     C52429   5.095   4.770   1.408  0.8845 -0.0847 -0.5048
  389MOL0     C52430   5.190   4.680   1.358 -0.3795  0.3112  0.6790
  389MOL0     N52431   5.309   3.844   1.559 -0.2252 -0.3667 -0.8342
  389MOL0     N52432   5.358   3.723   1.576  0.0513 -0.2264 -0.0923
  389MOL0     C52433   6.485   3.614   1.698 -0.3087 -0.0458  0.2224
  389MOL0     C52434   6.602   3.652   1.627  0.7275  0.0155  0.7694
  389MOL0     C52435   6.949   3.771   1.354 -0.2656 -0.1663 -0.1946
  389MOL0     C52436   7.012   3.904   1.369 -0.3179  0.3852 -0.0290
  389MOL0     C52437   7.126   3.944   1.289 -0.1026 -0.5608  0.3764
  389MOL0     C52438   7.178   3.849   1.199  0.3122 -0.4758  1.0199
  389MOL0     O52439   7.287   3.874   1.121  0.0509  0.4214  0.3506
  389MOL0     C52440   7.342   3.794   1.012 -0.0206 -0.4170  0.5056
  389MOL0     C52441   7.474   3.853   0.968 -0.0873  0.0225  0.7060
  389MOL0     C52442   7.463   3.994   0.913 -0.1429  0.5509  0.2395
  389MOL0     C52443   7.459   3.996   0.758 -0.3546  0.9000 -0.4497
  389MOL0     C52444   7.578   3.934   0.702 -0.0515  0.5695  0.0383
  389MOL0     C52445   7.684   3.888   0.655 -0.2300 -1.1210 -0.8297
  389MOL0     C52446   7.122   3.713   1.196  0.4664  0.4283  0.7960
  389MOL0     C52447   7.010   3.676   1.274  0.5993  0.0475  0.9361
  389MOL0     H52448   6.622   3.392   1.413  0.8946  0.9353  1.0252
  389MOL0     H52449   6.402   3.338   1.553 -0.0573 -0.3234  1.0467
  389MOL0     H52450   6.338   3.395   1.862  0.8407  1.1905  0.8402
  389MOL0     H52451   6.291   3.565   1.892  0.1063  0.4394 -1.2558
  389MOL0     H52452   6.083   3.351   1.835 -1.3977 -1.1938  3.4439
  389MOL0     H52453   6.128   3.394   1.991  0.8068 -1.8669 -1.1348
  389MOL0     H52454   6.074   3.633   1.946 -0.7685 -0.1511  0.9428
  389MOL0     H52455   6.019   3.585   1.786 -1.1462  1.1063 -0.3997
  389MOL0     H52456   5.888   3.400   1.898  2.0970 -1.2070  1.4788
  389MOL0     H52457   5.924   3.479   2.047  1.2842 -1.5399 -0.2950
  389MOL0     H52458   5.709   3.569   1.993 -0.4713  0.5844  0.0078
  389MOL0     H52459   5.812   3.696   1.921 -1.2126  0.2690 -0.4306
  389MOL0     H52460   5.823   3.529   1.710  0.2513 -0.2416 -0.8215
  389MOL0     H52461   5.703   3.437   1.778  0.5384 -0.5011  1.5322
  389MOL0     H52462   5.561   3.647   1.796 -0.3710 -4.0952  1.3216
  389MOL0     H52463   5.690   3.742   1.723  1.5435 -1.0309 -1.2931
  389MOL0     H52464   5.559   3.520   1.574 -0.0930  0.3158  0.4392
  389MOL0     H52465   5.682   3.633   1.511 -1.1925  0.9889 -0.4752
  389MOL0     H52466   5.627   3.880   1.483  0.2394 -2.0507 -2.2288
  389MOL0     H52467   5.445   4.135   1.518  0.3975  1.3650 -2.2948
  389MOL0     H52468   5.459   4.056   1.366  1.6926  0.2114  0.8227
  389MOL0     H52469   5.203   4.119   1.527  1.3103 -0.0391  0.6204
  389MOL0     H52470   5.203   4.031   1.371  0.6192 -2.0390  1.1989
  389MOL0     H52471   5.147   4.279   1.365  0.1223  1.0556 -0.4111
  389MOL0     H52472   5.273   4.219   1.258 -0.9885  2.2118 -0.1386
  389MOL0     H52473   5.446   4.337   1.391 -1.0557 -1.4135 -0.0777
  389MOL0     H52474   5.346   4.361   1.521 -0.1861 -1.8122  0.4450
  389MOL0     H52475   5.110   4.417   1.552 -4.1750  0.3498  1.4599
  389MOL0     H52476   4.908   4.582   1.738 -1.3009  0.6220  0.2292
  389MOL0     H52477   4.804   4.553   1.582 -0.0107 -1.1865  0.1296
  389MOL0     H52478   4.912   4.434   1.639 -0.9252  0.7768 -1.9607
  389MOL0     H52479   4.634   4.778   1.727 -3.7946  0.6656  1.7573
  389MOL0     H52480   4.469   4.940   1.794  0.0999  0.7646  1.3759
  389MOL0     H52481   4.454   5.133   2.054  0.0149  0.5153 -0.2892
  389MOL0     H52482   4.553   5.270   2.030 -0.7334  1.0077  0.7226
  389MOL0     H52483   4.254   5.234   1.946 -0.1827 -0.2549 -1.0325
  389MOL0     H52484   4.304   5.304   2.096  3.6465 -1.4344  0.8169
  389MOL0     H52485   4.419   5.401   1.822  0.2735  0.4807 -0.1285
  389MOL0     H52486   4.433   5.469   1.984 -1.1126  0.0423  1.9108
  389MOL0     H52487   4.210   5.549   1.980  3.0307 -0.9117  1.0328
  389MOL0     H52488   4.299   5.606   1.847 -0.1997 -1.3967 -1.4560
  389MOL0     H52489   4.190   5.502   1.686 -0.4304 -3.1818 -0.3802
  389MOL0     H52490   4.062   5.541   1.794 -1.8934 -2.2441 -1.2466
  389MOL0     H52491   4.193   5.273   1.739 -0.7288 -1.9102 -0.3992
  389MOL0     H52492   4.040   5.296   1.837 -4.1110  2.0441 -2.2175
  389MOL0     H52493   3.939   5.413   1.627  0.7005 -0.6920 -0.2697
  389MOL0     H52494   3.943   5.237   1.646 -0.5376 -0.2817 -1.6848
  389MOL0     H52495   4.125   5.213   1.508 -0.6970  0.3922 -0.9002
  389MOL0     H52496   4.166   5.372   1.490  0.6753 -0.8008  0.2539
  389MOL0     H52497   4.743   5.257   1.824  2.5323 -0.3997  1.8339
  389MOL0     H52498   4.928   5.103   1.708 -0.1835  0.1194  0.5326
  389MOL0     H52499   5.115   4.875   1.388  0.7389 -0.1466 -1.0028
  389MOL0     H52500   5.268   4.715   1.292 -1.6251  1.6146 -0.1453
  389MOL0     H52501   6.452   3.673   1.783 -0.1774  3.7219 -2.1356
  389MOL0     H52502   6.659   3.738   1.660  0.6424  0.0396  0.8565
  389MOL0     H52503   6.970   3.980   1.434  0.4986  1.9210 -1.2186
  389MOL0     H52504   7.158   4.047   1.298 -3.0492  0.3810  1.2195
  389MOL0     H52505   7.354   3.686   1.025  0.7999 -0.3264  0.5733
  389MOL0     H52506   7.285   3.795   0.919  2.1639  2.5751 -0.9863
  389MOL0     H52507   7.531   3.787   0.902  0.6365  2.5150 -1.3061
  389MOL0     H52508   7.539   3.853   1.056  1.6219 -1.0239 -0.4834
  389MOL0     H52509   7.554   4.043   0.949  0.2512  0.0335 -0.0326
  389MOL0     H52510   7.385   4.049   0.966  2.4709  4.0738  0.8103
  389MOL0     H52511   7.451   4.094   0.710 -0.5710  1.3898  0.5666
  389MOL0     H52512   7.371   3.944   0.717 -1.0192  1.5564  0.1137
  389MOL0     H52513   7.765   3.840   0.604 -0.3853 -0.6293 -1.5543
  389MOL0     H52514   7.178   3.640   1.137  3.3470  1.7228  1.7431
  389MOL0     H52515   6.970   3.575   1.276  1.5336 -0.3314  2.6120
  390MOL0     O52516   7.143   4.532   6.529  0.2035 -0.6806 -0.3282
  390MOL0     C52517   7.187   4.496   6.415 -1.0694  0.0090 -0.9884
  390MOL0     O52518   7.112   4.455   6.309 -0.3029  0.1433 -0.0949
  390MOL0     C52519   6.977   4.446   6.339  0.5352 -0.2999 -0.4813
  390MOL0     C52520   6.928   4.321   6.379 -1.1022  0.2864  0.1441
  390MOL0     C52521   6.791   4.310   6.397 -0.0733 -0.0460 -0.3307
  390MOL0     C52522   6.706   4.414   6.413  0.7852 -0.5668 -0.0244
  390MOL0     O52523   6.572   4.391   6.430 -0.4512 -0.4931 -0.6634
  390MOL0     C52524   6.485   4.456   6.332 -0.1387 -0.3383  0.6358
  390MOL0     C52525   6.502   4.409   6.186 -0.3476  0.3516  0.5433
  390MOL0     C52526   6.402   4.473   6.092  0.7089  0.1826 -1.4530
  390MOL0     C52527   6.390   4.414   5.956 -1.0136 -0.2758 -0.4054
  390MOL0     C52528   6.309   4.513   5.872 -0.3519 -1.2943 -0.3018
  390MOL0     C52529   6.159   4.535   5.913  0.0858 -0.2016  0.0663
  390MOL0     C52530   6.085   4.608   5.800  0.0932  0.2206  0.0998
  390MOL0     C52531   5.941   4.629   5.855  0.8613 -0.3764 -0.5475
  390MOL0     N52532   5.872   4.733   5.771  0.3421 -0.2570 -0.0744
  390MOL0     C52533   5.837   4.720   5.639  0.1955  0.1375 -0.5107
  390MOL0     C52534   5.740   4.820   5.619  0.3502  0.5032  0.1846
  390MOL0     C52535   5.645   4.820   5.498  0.5858 -0.6700 -0.1226
  390MOL0     C52536   5.667   4.940   5.409 -0.2434 -0.0024 -0.1057
  390MOL0     C52537   5.546   4.944   5.313  0.7229 -0.0467  0.7968
  390MOL0     C52538   5.529   5.078   5.243  0.5240 -0.0341  0.0801
  390MOL0     O52539   5.549   5.195   5.335 -0.5060  0.4871 -0.5644
  390MOL0     C52540   5.432   5.246   5.386 -0.3978 -0.8175  0.7663
  390MOL0     C52541   5.401   5.372   5.359  0.8388 -0.5090 -0.5438
  390MOL0     C52542   5.295   5.444   5.401 -0.1942  0.4099 -0.3844
  390MOL0     C52543   5.302   5.595   5.392  0.2813  0.1491  0.2995
  390MOL0     C52544   5.185   5.375   5.474 -0.9178  0.3946  0.3301
  390MOL0     C52545   5.069   5.444   5.541  0.0372 -0.3143  0.7199
  390MOL0     O52546   5.006   5.356   5.614 -0.1320 -0.0755  0.1760
  390MOL0     C52547   4.920   5.398   5.720  0.7003 -0.7497 -0.8622
  390MOL0     C52548   4.826   5.314   5.776 -0.8588  0.2082  1.0559
  390MOL0     C52549   4.742   5.359   5.878  0.5548  0.7747  0.0532
  390MOL0     C52550   4.749   5.488   5.929  0.6719 -0.6176  1.1498
  390MOL0     O52551   4.669   5.555   6.014 -0.2061 -0.1004 -0.4807
  390MOL0     C52552   4.569   5.491   6.089 -0.1364  0.6209  0.7078
  390MOL0     C52553   4.494   5.591   6.171 -0.0947 -0.7396  0.4439
  390MOL0     C52554   4.369   5.528   6.239  0.0361  0.8958  0.9521
  390MOL0     C52555   4.274   5.629   6.304  0.0522  0.6148  0.2835
  390MOL0     C52556   4.171   5.553   6.378  0.4541 -0.7051  0.0560
  390MOL0     C52557   4.078   5.648   6.458 -0.3998 -0.3952  0.6499
  390MOL0     C52558   4.148   5.685   6.588 -0.3317  0.0190  0.4672
  390MOL0     C52559   4.069   5.788   6.661  0.6218  0.1254 -0.0460
  390MOL0    Cl52560   3.917   5.713   6.716  0.4679 -0.1322  0.3147
  390MOL0     C52561   4.851   5.579   5.878  0.6245 -0.8050 -0.2349
  390MOL0     C52562   4.931   5.527   5.781 -0.4643  0.9914  0.2111
  390MOL0     O52563   5.025   5.551   5.503  0.7024 -0.3858  0.3230
  390MOL0     C52564   5.218   5.234   5.500 -0.5185 -0.2244 -0.4507
  390MOL0     C52565   5.343   5.171   5.463 -0.0992  0.0845 -0.0108
  390MOL0     N52566   5.732   4.894   5.735 -0.2417 -0.4247 -0.1089
  390MOL0     N52567   5.813   4.844   5.825 -0.0221 -0.2200 -0.5960
  390MOL0     C52568   6.760   4.537   6.373  0.4964  0.0669  0.8827
  390MOL0     C52569   6.892   4.558   6.331 -0.1909  0.8346 -0.4014
  390MOL0     C52570   7.331   4.481   6.418  1.3682 -0.2696 -0.4471
  390MOL0     C52571   7.419   4.542   6.499  0.2381 -0.5641  0.5297
  390MOL0     C52572   7.550   4.508   6.490  0.2207 -0.6671  0.0921
  390MOL0     C52573   7.606   4.418   6.401  0.7453 -0.4155 -0.0609
  390MOL0     O52574   7.737   4.387   6.405  0.1586 -0.4066 -0.8572
  390MOL0     C52575   7.800   4.285   6.313 -1.1213 -0.4742  0.7464
  390MOL0     C52576   7.952   4.258   6.336  0.1371 -0.1832 -0.0342
  390MOL0     C52577   8.019   4.163   6.249 -0.2798  0.2410  0.2093
  390MOL0     C52578   7.957   4.112   6.123 -0.3573  0.1670 -0.0840
  390MOL0     C52579   7.969   4.218   6.023  0.7344 -0.2548  0.0824
  390MOL0     C52580   7.949   4.294   5.933 -0.0033  0.2660  0.9464
  390MOL0     C52581   7.511   4.356   6.317  0.0984  1.0372 -0.0249
  390MOL0     C52582   7.377   4.390   6.325 -0.3949 -0.3368 -0.5336
  390MOL0     H52583   6.995   4.236   6.369 -1.5221  0.0965 -1.2831
  390MOL0     H52584   6.766   4.204   6.395  2.4765 -0.7693  1.4992
  390MOL0     H52585   6.381   4.441   6.365 -0.3647 -2.0502 -0.6599
  390MOL0     H52586   6.509   4.562   6.341 -0.8661 -0.2834  2.1336
  390MOL0     H52587   6.593   4.427   6.128 -1.3463 -1.0231 -1.5648
  390MOL0     H52588   6.494   4.301   6.202 -0.9313  0.2585 -0.3503
  390MOL0     H52589   6.306   4.468   6.144  1.3111 -0.4767 -0.3588
  390MOL0     H52590   6.438   4.576   6.085  4.5332 -0.8779  0.1438
  390MOL0     H52591   6.487   4.391   5.910 -0.3524  2.1265 -0.3619
  390MOL0     H52592   6.327   4.324   5.954 -2.7391  0.8881 -1.2600
  390MOL0     H52593   6.355   4.609   5.895 -1.0519 -1.2446  0.9817
  390MOL0     H52594   6.314   4.496   5.764 -1.7169  0.7162 -0.7361
  390MOL0     H52595   6.120   4.436   5.937  0.6432 -0.3862  0.2410
  390MOL0     H52596   6.153   4.590   6.008  0.1937  0.1404 -0.1234
  390MOL0     H52597   6.152   4.692   5.780  3.2843 -1.9297  0.8945
  390MOL0     H52598   6.085   4.537   5.718  0.8659 -2.0244  1.9347
  390MOL0     H52599   5.953   4.675   5.953 -2.3970  1.5902 -0.9025
  390MOL0     H52600   5.880   4.538   5.861 -1.3001  0.8836 -1.7457
  390MOL0     H52601   5.877   4.639   5.579 -0.3221 -2.0230  1.8707
  390MOL0     H52602   5.647   4.720   5.452 -0.9604 -1.8673  2.2419
  390MOL0     H52603   5.546   4.823   5.543 -0.1790 -0.2635 -1.7797
  390MOL0     H52604   5.761   4.924   5.357  1.0085 -1.1098  2.3400
  390MOL0     H52605   5.678   5.029   5.472 -0.3754  0.3031 -0.5100
  390MOL0     H52606   5.456   4.932   5.374 -0.4072  1.0280 -0.5765
  390MOL0     H52607   5.537   4.864   5.239 -0.7256  0.2510  0.6098
  390MOL0     H52608   5.429   5.086   5.199  0.5733  2.0874  0.2431
  390MOL0     H52609   5.603   5.092   5.164 -1.2565  1.4121 -1.4046
  390MOL0     H52610   5.474   5.422   5.297  1.9231 -3.3067 -1.6733
  390MOL0     H52611   5.341   5.641   5.484 -2.8200  3.1722  0.3266
  390MOL0     H52612   5.371   5.622   5.312  0.1562 -1.4930 -0.3966
  390MOL0     H52613   5.202   5.626   5.360  0.4718  0.2512 -0.2065
  390MOL0     H52614   4.819   5.213   5.738 -0.3638  0.6265 -0.2192
  390MOL0     H52615   4.671   5.288   5.920  1.3645  0.1686  0.4289
  390MOL0     H52616   4.512   5.432   6.016  1.5047  2.1424 -1.9736
  390MOL0     H52617   4.621   5.428   6.161  0.3491  0.4607  0.2235
  390MOL0     H52618   4.547   5.663   6.233  0.2211  0.5577 -1.2488
  390MOL0     H52619   4.460   5.657   6.090 -2.7778 -2.2939  0.1880
  390MOL0     H52620   4.400   5.447   6.305 -0.2781  0.8561  1.0508
  390MOL0     H52621   4.323   5.474   6.155  2.3626  0.0487  0.1292
  390MOL0     H52622   4.335   5.684   6.377  0.8269  0.9069 -0.5673
  390MOL0     H52623   4.222   5.696   6.236  0.6342  2.0656  1.2206
  390MOL0     H52624   4.222   5.492   6.453  1.9059  2.6275  2.0614
  390MOL0     H52625   4.117   5.493   6.305  1.1795 -0.4089 -0.7447
  390MOL0     H52626   4.051   5.736   6.400  2.3787 -1.2124 -2.1723
  390MOL0     H52627   3.988   5.592   6.484 -1.6706  1.4107  0.2753
  390MOL0     H52628   4.252   5.718   6.580  0.5329 -2.9033 -2.6270
  390MOL0     H52629   4.147   5.594   6.649  2.2651  0.4611  1.2840
  390MOL0     H52630   4.059   5.885   6.611  0.5435  0.2438  0.1992
  390MOL0     H52631   4.111   5.810   6.760 -1.4799 -0.3909  1.0151
  390MOL0     H52632   4.849   5.675   5.928 -0.3283 -1.5482  1.2300
  390MOL0     H52633   5.022   5.575   5.746  1.7351 -3.1653 -0.4467
  390MOL0     H52634   5.148   5.173   5.555 -1.0178 -0.8190 -1.7105
  390MOL0     H52635   5.387   5.077   5.495  2.2015  0.7285 -1.0747
  390MOL0     H52636   6.697   4.624   6.365  1.7487  0.8308 -2.5076
  390MOL0     H52637   6.916   4.657   6.294 -1.6852  0.8916 -1.3302
  390MOL0     H52638   7.372   4.605   6.574 -0.4197 -0.4108 -0.0037
  390MOL0     H52639   7.621   4.546   6.563 -0.3489  2.8978 -0.9637
  390MOL0     H52640   7.747   4.191   6.299 -0.9000 -0.3543 -1.2182
  390MOL0     H52641   7.797   4.339   6.217  1.4077  0.5238  1.1491
  390MOL0     H52642   7.957   4.220   6.438  2.5457 -0.7213 -0.2945
  390MOL0     H52643   8.005   4.353   6.329 -0.1379 -0.0308 -0.0782
  390MOL0     H52644   8.021   4.071   6.309 -1.7773  0.7984  1.1544
  390MOL0     H52645   8.121   4.191   6.222 -0.7830 -1.0281 -3.5398
  390MOL0     H52646   7.856   4.077   6.145 -1.2497  1.6744 -1.4950
  390MOL0     H52647   8.011   4.024   6.088 -0.4567  0.6701 -1.6034
  390MOL0     H52648   7.927   4.356   5.848 -0.4383 -3.1460 -1.6874
  390MOL0     H52649   7.530   4.274   6.249 -1.2223  1.1129 -0.5001
  390MOL0     H52650   7.317   4.339   6.251  1.3276  0.0333 -2.2813
  391MOL0     O52651   7.788   0.835  10.991  0.2518  0.8279  0.3306
  391MOL0     C52652   7.800   0.764  11.096  0.9156  0.3336  0.1495
  391MOL0     O52653   7.848   0.809  11.220 -0.6080  0.6390  0.4336
  391MOL0     C52654   7.866   0.939  11.237 -0.6258 -0.0091  0.2273
  391MOL0     C52655   7.997   0.997  11.216  0.3412 -0.5604 -0.4440
  391MOL0     C52656   8.021   1.135  11.212  0.1625 -0.8205 -0.3367
  391MOL0     C52657   7.909   1.226  11.212  0.7273 -0.0659  0.0995
  391MOL0     O52658   7.934   1.364  11.197  0.8220  0.6367 -0.3274
  391MOL0     C52659   8.043   1.413  11.119 -0.4012 -0.8665 -0.9514
  391MOL0     C52660   7.985   1.536  11.043  0.3080 -0.3760  0.5076
  391MOL0     C52661   8.062   1.590  10.922 -0.1058  0.3117  0.5824
  391MOL0     C52662   8.014   1.734  10.878 -0.9830  0.1707  0.2540
  391MOL0     C52663   8.076   1.780  10.748 -0.0899  0.6666 -1.0731
  391MOL0     C52664   7.993   1.908  10.709 -0.5776  0.1470  0.7136
  391MOL0     C52665   8.032   1.964  10.558  0.8158  0.7199  0.6377
  391MOL0     C52666   8.171   2.041  10.549  1.3116 -0.2145 -0.6282
  391MOL0     N52667   8.132   2.181  10.520  0.4133 -0.2238  0.5427
  391MOL0     C52668   8.147   2.251  10.403  0.1810  0.1344  0.3665
  391MOL0     C52669   8.083   2.365  10.425 -0.5991 -0.2068 -0.7940
  391MOL0     C52670   8.068   2.465  10.317  0.2149  0.5955 -0.8717
  391MOL0     C52671   8.194   2.546  10.282 -1.1445  0.0937  0.3722
  391MOL0     C52672   8.225   2.660  10.372 -0.8797  0.1632 -0.1163
  391MOL0     C52673   8.283   2.624  10.518  0.7256  0.4565 -0.0514
  391MOL0     O52674   8.225   2.720  10.605  0.0094 -0.7585  0.4040
  391MOL0     C52675   8.283   2.837  10.633 -0.3649 -0.2709  0.1675
  391MOL0     C52676   8.211   2.907  10.726 -0.7288  1.1595  0.0893
  391MOL0     C52677   8.247   3.043  10.757 -0.0954 -0.0097 -1.3466
  391MOL0     C52678   8.165   3.094  10.872 -0.9879 -0.1404 -0.1378
  391MOL0     C52679   8.362   3.098  10.700  0.7094 -0.1126  0.1309
  391MOL0     C52680   8.401   3.236  10.739  0.8758  0.4385 -0.6214
  391MOL0     O52681   8.516   3.283  10.694 -0.6773  0.1852 -0.0466
  391MOL0     C52682   8.581   3.380  10.767  0.8798  0.4406 -0.3375
  391MOL0     C52683   8.653   3.480  10.696 -0.4832  1.0413 -0.4417
  391MOL0     C52684   8.718   3.583  10.771  0.1275 -0.0335  0.2743
  391MOL0     C52685   8.725   3.582  10.909  0.1271 -0.4806 -0.8929
  391MOL0     O52686   8.781   3.691  10.990  0.0866  0.8794 -0.1198
  391MOL0     C52687   8.826   3.808  10.927  0.5765  0.5833  0.2982
  391MOL0     C52688   8.849   3.925  11.028  0.0953  1.1692  1.3056
  391MOL0     C52689   8.965   3.909  11.126 -0.3776 -0.3743  0.6090
  391MOL0     C52690   8.997   4.047  11.191  0.1164  0.2293  0.0640
  391MOL0     C52691   8.935   4.051  11.334 -0.2806  0.6980 -0.6236
  391MOL0     C52692   8.977   4.178  11.407  0.8106  1.2782  0.3185
  391MOL0     C52693   8.880   4.195  11.518  0.0592  0.0779 -0.1189
  391MOL0     C52694   8.888   4.338  11.570 -0.0163 -0.3863 -0.2038
  391MOL0    Cl52695   8.779   4.345  11.716 -0.2780 -0.4505  0.1810
  391MOL0     C52696   8.646   3.484  10.970  0.2386 -0.1677  0.2826
  391MOL0     C52697   8.585   3.384  10.903 -0.0903  0.2253 -0.6247
  391MOL0     O52698   8.330   3.308  10.812 -0.0818  0.5854 -0.9704
  391MOL0     C52699   8.429   3.027  10.603  0.7110 -0.5797  1.0708
  391MOL0     C52700   8.388   2.897  10.559  1.0380 -0.2672  0.1008
  391MOL0     N52701   8.045   2.369  10.556 -0.8515 -0.2558 -0.4299
  391MOL0     N52702   8.073   2.259  10.611 -0.1568  0.6275  0.3926
  391MOL0     C52703   7.780   1.175  11.231 -0.1342 -0.3898 -0.4950
  391MOL0     C52704   7.762   1.032  11.242 -0.1460  0.2339 -0.1086
  391MOL0     C52705   7.755   0.622  11.085 -0.1007  0.4718  0.8528
  391MOL0     C52706   7.764   0.528  11.192 -0.5879 -0.7697 -0.3245
  391MOL0     C52707   7.713   0.394  11.179  0.3359  0.1272  0.3886
  391MOL0     C52708   7.652   0.350  11.060 -0.9336  0.2869 -0.1337
  391MOL0     O52709   7.602   0.225  11.033  0.6645  0.3481  0.2077
  391MOL0     C52710   7.593   0.128  11.135 -1.3045 -0.8780  0.1455
  391MOL0     C52711   7.734   0.060  11.145 -0.2057 -0.3030  0.1592
  391MOL0     C52712   7.739  -0.027  11.275 -1.4375  0.5633  0.9350
  391MOL0     C52713   7.662  -0.159  11.251  0.6978  0.3073 -0.9352
  391MOL0     C52714   7.568  -0.173  11.366  0.6945 -0.4589 -0.3623
  391MOL0     C52715   7.484  -0.183  11.449  0.4189 -0.0889  0.0075
  391MOL0     C52716   7.640   0.438  10.953 -0.0300 -0.2415 -0.1435
  391MOL0     C52717   7.695   0.572  10.967  0.3208 -0.9680  0.3247
  391MOL0     H52718   8.087   0.936  11.206  4.1227  3.7697  2.8043
  391MOL0     H52719   8.117   1.183  11.192 -0.8768  1.1043 -0.9852
  391MOL0     H52720   8.128   1.443  11.182  0.3097 -2.6115 -1.0483
  391MOL0     H52721   8.075   1.346  11.039 -1.5258 -1.4418 -0.9260
  391MOL0     H52722   7.878   1.519  11.030 -0.2643  2.0253  1.5735
  391MOL0     H52723   7.989   1.617  11.117  2.9508  1.5765 -1.5747
  391MOL0     H52724   8.169   1.594  10.943 -0.0070  6.4766  0.7300
  391MOL0     H52725   8.048   1.529  10.832 -1.5938  0.1099  0.9204
  391MOL0     H52726   7.906   1.746  10.871 -1.2581 -0.5011  2.5932
  391MOL0     H52727   8.048   1.796  10.962 -1.3692 -1.0900  1.3689
  391MOL0     H52728   8.183   1.796  10.760  0.2646 -1.4756 -1.0260
  391MOL0     H52729   8.062   1.705  10.669  0.6487 -2.0301  1.1918
  391MOL0     H52730   7.892   1.867  10.705 -0.3713 -0.5943  2.2460
  391MOL0     H52731   7.996   1.989  10.783 -0.7736 -0.9462  1.9573
  391MOL0     H52732   8.032   1.875  10.494  2.3758  1.2725 -0.1770
  391MOL0     H52733   7.954   2.032  10.523  0.8276 -0.2640 -1.4768
  391MOL0     H52734   8.223   1.992  10.465 -1.6940 -2.7600 -1.1658
  391MOL0     H52735   8.231   2.021  10.638 -0.2889  4.7721  1.9316
  391MOL0     H52736   8.188   2.220  10.307 -2.2671  0.1353 -0.7675
  391MOL0     H52737   8.039   2.408  10.229 -1.9530  0.4395 -0.1033
  391MOL0     H52738   7.983   2.530  10.337  0.5807  0.3471  2.0618
  391MOL0     H52739   8.184   2.593  10.184  0.1507 -0.6088 -0.1275
  391MOL0     H52740   8.275   2.472  10.283  1.2857  2.3879 -3.7055
  391MOL0     H52741   8.131   2.715  10.380  0.3888  2.1345  3.1100
  391MOL0     H52742   8.297   2.725  10.322 -1.0353  1.6609  1.5194
  391MOL0     H52743   8.389   2.598  10.529  1.4675  2.1809 -2.3732
  391MOL0     H52744   8.232   2.530  10.542  1.5197 -0.3985 -1.5630
  391MOL0     H52745   8.128   2.850  10.767  1.2528 -1.0667  1.2557
  391MOL0     H52746   8.220   3.089  10.967  0.2330 -0.6329 -0.8472
  391MOL0     H52747   8.129   3.197  10.864 -2.7396 -0.5097  2.0257
  391MOL0     H52748   8.082   3.032  10.906 -1.1788  0.9788  1.6101
  391MOL0     H52749   8.642   3.486  10.588  0.9171 -0.0786 -0.6907
  391MOL0     H52750   8.764   3.661  10.711  0.0919 -0.0446  0.2336
  391MOL0     H52751   8.920   3.778  10.879  1.6811  0.7034  2.2788
  391MOL0     H52752   8.758   3.849  10.851  1.3237 -1.8042 -1.8163
  391MOL0     H52753   8.874   4.013  10.967  2.9325  1.2195  2.3751
  391MOL0     H52754   8.754   3.943  11.079 -1.9312 -2.3848 -0.8290
  391MOL0     H52755   9.047   3.858  11.074  0.5562 -1.7786  3.2265
  391MOL0     H52756   8.940   3.842  11.209  0.3858 -0.9477  0.3958
  391MOL0     H52757   9.105   4.055  11.210  0.4991 -1.0818 -1.3408
  391MOL0     H52758   8.968   4.139  11.139  0.4838  2.2687  3.1843
  391MOL0     H52759   8.980   3.966  11.387  0.0311  2.5246  2.2544
  391MOL0     H52760   8.828   4.036  11.317 -0.0980 -1.5542 -0.0703
  391MOL0     H52761   9.076   4.160  11.448  0.8053 -2.7388 -0.9824
  391MOL0     H52762   8.985   4.255  11.330  0.0680 -0.5005 -1.6574
  391MOL0     H52763   8.919   4.128  11.595 -0.8483  0.4637  0.6913
  391MOL0     H52764   8.777   4.183  11.483  0.5000  0.9487 -1.8588
  391MOL0     H52765   8.858   4.418  11.501  3.2752  2.5542  1.4401
  391MOL0     H52766   8.991   4.352  11.602 -0.8369  0.6282  2.2722
  391MOL0     H52767   8.658   3.500  11.077  0.8047  1.5715 -0.0152
  391MOL0     H52768   8.544   3.297  10.952 -1.5211 -0.2796 -2.5802
  391MOL0     H52769   8.518   3.075  10.562  0.8623 -0.9361  0.9753
  391MOL0     H52770   8.431   2.844  10.475 -0.0522  1.1177 -1.3815
  391MOL0     H52771   7.695   1.237  11.255 -0.9903 -1.9162  0.6453
  391MOL0     H52772   7.662   0.992  11.256  0.2064 -0.0024  2.0036
  391MOL0     H52773   7.808   0.561  11.286  0.9479  1.7425 -1.8180
  391MOL0     H52774   7.740   0.330  11.262  1.4637 -0.6340 -0.5376
  391MOL0     H52775   7.546   0.173  11.223 -3.4660 -0.1366 -1.2911
  391MOL0     H52776   7.524   0.048  11.107 -2.6299  0.5507 -0.8799
  391MOL0     H52777   7.808   0.138  11.161 -0.4249  0.3499 -1.7376
  391MOL0     H52778   7.754   0.007  11.051  2.6181  0.0382  0.4787
  391MOL0     H52779   7.704   0.045  11.350 -1.6836  2.6629 -1.0928
  391MOL0     H52780   7.841  -0.052  11.303 -1.8738 -3.0624 -0.2581
  391MOL0     H52781   7.742  -0.234  11.242  1.4272  1.2097 -2.4443
  391MOL0     H52782   7.621  -0.155  11.149 -0.6928  0.6903 -0.3800
  391MOL0     H52783   7.412  -0.183  11.528  1.8362  1.6283  1.4095
  391MOL0     H52784   7.596   0.406  10.859 -0.0753 -0.0438 -0.1895
  391MOL0     H52785   7.684   0.654  10.897 -0.3238  0.9773  2.5776
  392MOL0     O52786   5.905   5.227   4.409 -0.5397  0.6415  0.5120
  392MOL0     C52787   5.872   5.110   4.377 -0.1445  0.5127  0.0933
  392MOL0     O52788   5.952   4.991   4.395  0.3080  0.5165 -0.2756
  392MOL0     C52789   6.032   4.991   4.500 -0.0930 -0.5869 -0.9350
  392MOL0     C52790   6.033   5.085   4.611  0.3478  1.6818 -0.0721
  392MOL0     C52791   6.112   5.058   4.726  0.1039  0.5817 -0.1774
  392MOL0     C52792   6.209   4.960   4.732 -0.4758 -0.3583  1.1076
  392MOL0     O52793   6.295   4.945   4.837 -0.7612  0.7593 -0.2165
  392MOL0     C52794   6.339   5.070   4.900 -0.0776 -0.2959  0.2944
  392MOL0     C52795   6.455   5.035   4.986  0.1543  0.0698 -0.3721
  392MOL0     C52796   6.459   5.112   5.119  0.2793 -1.1124  1.0316
  392MOL0     C52797   6.508   5.261   5.092  0.2891  0.4338 -0.3133
  392MOL0     C52798   6.455   5.360   5.201  0.3494  0.6646  0.3838
  392MOL0     C52799   6.560   5.454   5.249  1.0845  0.4357  0.2803
  392MOL0     C52800   6.507   5.532   5.368 -0.0179 -0.2026  0.3711
  392MOL0     C52801   6.392   5.630   5.332 -0.5151  0.1982  0.1661
  392MOL0     N52802   6.320   5.685   5.451 -0.2957  0.0783  0.1117
  392MOL0     C52803   6.382   5.723   5.569 -0.4238 -0.7485 -0.4366
  392MOL0     C52804   6.272   5.770   5.650 -0.1924  0.6623  0.5028
  392MOL0     C52805   6.289   5.797   5.799  0.5304 -0.7136  0.4926
  392MOL0     C52806   6.222   5.935   5.839 -0.3049  0.0187  0.2090
  392MOL0     C52807   6.214   5.964   5.993  0.2481  0.3680  0.2179
  392MOL0     C52808   6.128   6.094   6.021 -1.0947  0.0077 -0.9198
  392MOL0     O52809   6.194   6.213   5.967 -0.2042 -0.7169 -0.0195
  392MOL0     C52810   6.155   6.343   6.000 -0.9104  0.2461  0.3694
  392MOL0     C52811   6.241   6.450   5.961  0.5165  0.3545  0.1583
  392MOL0     C52812   6.225   6.580   6.006  0.7936  0.1721  0.1335
  392MOL0     C52813   6.327   6.679   5.956 -0.7500  0.0263 -0.0724
  392MOL0     C52814   6.110   6.614   6.094  0.6472  0.3820  0.9899
  392MOL0     C52815   6.085   6.747   6.153  0.4820 -0.8130  0.3327
  392MOL0     O52816   5.951   6.769   6.167 -0.2512  0.5748 -0.1461
  392MOL0     C52817   5.911   6.900   6.189  0.9711  0.2362  0.4650
  392MOL0     C52818   5.939   7.003   6.100  1.2024  0.1137  0.6968
  392MOL0     C52819   5.900   7.131   6.126 -0.1848  0.8614 -0.5080
  392MOL0     C52820   5.823   7.154   6.242 -0.6669 -0.1120  0.7515
  392MOL0     O52821   5.787   7.277   6.285 -0.0930 -0.1663 -0.2205
  392MOL0     C52822   5.816   7.399   6.218  0.7149 -0.4670 -0.2708
  392MOL0     C52823   5.761   7.526   6.301  0.0489 -0.4984  0.5062
  392MOL0     C52824   5.616   7.507   6.342  0.3439 -0.8881  0.4325
  392MOL0     C52825   5.552   7.629   6.402 -0.2544 -0.0897  0.2956
  392MOL0     C52826   5.563   7.638   6.557 -0.4594 -0.5350 -0.1832
  392MOL0     C52827   5.516   7.514   6.621 -0.1940 -0.5093 -0.3330
  392MOL0     C52828   5.488   7.540   6.762  0.3390  0.8273 -0.0957
  392MOL0     C52829   5.347   7.607   6.785  0.2852  0.9820  0.1748
  392MOL0    Cl52830   5.218   7.501   6.717 -0.4680  0.7762 -0.1066
  392MOL0     C52831   5.806   7.053   6.335  0.6426  0.3481 -0.4042
  392MOL0     C52832   5.844   6.925   6.304  0.0009  0.2145 -0.0840
  392MOL0     O52833   6.175   6.818   6.197 -0.0818  0.2248  0.4825
  392MOL0     C52834   6.028   6.511   6.131  0.3139 -0.0147  0.5630
  392MOL0     C52835   6.056   6.369   6.092 -0.1404 -0.4770 -0.7154
  392MOL0     N52836   6.157   5.754   5.570  0.4715  0.5232  0.0632
  392MOL0     N52837   6.189   5.717   5.451  0.3899  0.2090 -0.8468
  392MOL0     C52838   6.222   4.881   4.618 -0.5560 -0.4211 -0.8679
  392MOL0     C52839   6.128   4.887   4.510 -1.0937  0.9308 -0.2208
  392MOL0     C52840   5.732   5.086   4.331 -0.2366 -0.1888  0.2842
  392MOL0     C52841   5.659   4.976   4.377  0.1624  0.4586  0.1001
  392MOL0     C52842   5.534   4.947   4.318 -0.6700  1.1191  1.0047
  392MOL0     C52843   5.485   5.020   4.215 -0.5447 -0.1490  0.6116
  392MOL0     O52844   5.371   4.979   4.155  0.1181  0.2974  0.1063
  392MOL0     C52845   5.314   5.040   4.035 -0.7060 -0.4452  0.0195
  392MOL0     C52846   5.252   4.951   3.946 -0.8972 -0.5100 -0.3455
  392MOL0     C52847   5.339   4.830   3.907 -0.0105  0.3251 -0.0142
  392MOL0     C52848   5.276   4.746   3.796  0.2290  0.1914 -1.1790
  392MOL0     C52849   5.324   4.771   3.657 -0.1955 -0.3874 -0.2678
  392MOL0     C52850   5.363   4.801   3.545 -0.5106 -0.2898 -0.2845
  392MOL0     C52851   5.555   5.136   4.172 -1.0488  0.6638  0.2632
  392MOL0     C52852   5.679   5.172   4.235 -0.3833  0.1006  1.1051
  392MOL0     H52853   5.966   5.170   4.616 -0.7123  1.0503 -2.2087
  392MOL0     H52854   6.103   5.121   4.814  1.0781 -0.8062  0.9649
  392MOL0     H52855   6.367   5.152   4.833 -1.4825 -0.3165 -0.3338
  392MOL0     H52856   6.257   5.104   4.964  0.7564 -0.8545  1.7295
  392MOL0     H52857   6.466   4.930   5.013  0.1223  0.4696  1.2856
  392MOL0     H52858   6.538   5.061   4.919 -2.2183  3.1820 -2.4084
  392MOL0     H52859   6.358   5.116   5.161  0.5699 -0.3911  1.6809
  392MOL0     H52860   6.513   5.062   5.199  0.5910 -0.9022  0.9529
  392MOL0     H52861   6.617   5.264   5.086  0.3701  2.3256  1.1989
  392MOL0     H52862   6.459   5.298   5.001  2.7526  0.1440 -1.8473
  392MOL0     H52863   6.375   5.417   5.154  0.1286 -0.4376 -0.6053
  392MOL0     H52864   6.417   5.288   5.275 -1.2615 -0.7289 -1.6673
  392MOL0     H52865   6.651   5.397   5.269  1.6376  0.8820 -0.8508
  392MOL0     H52866   6.581   5.530   5.173 -1.0735 -0.0130 -0.8428
  392MOL0     H52867   6.461   5.457   5.433  0.3828 -2.3408 -1.6810
  392MOL0     H52868   6.591   5.589   5.410  1.3645 -1.7214 -0.2032
  392MOL0     H52869   6.310   5.590   5.271 -2.0025 -2.1507  3.4225
  392MOL0     H52870   6.435   5.711   5.272  0.8318 -2.4154 -2.6727
  392MOL0     H52871   6.488   5.710   5.590 -0.3274 -3.7317 -2.1223
  392MOL0     H52872   6.252   5.721   5.869 -0.5136  1.9123  2.9974
  392MOL0     H52873   6.392   5.820   5.826  0.1195  0.2752  1.2790
  392MOL0     H52874   6.120   5.929   5.799  0.1681  2.5855 -1.6685
  392MOL0     H52875   6.269   6.009   5.773 -1.2525 -0.9058 -1.5909
  392MOL0     H52876   6.317   5.977   6.028  0.3839 -1.3028  0.5446
  392MOL0     H52877   6.188   5.876   6.053  1.2941  2.0469  3.3586
  392MOL0     H52878   6.117   6.106   6.129 -4.0941 -1.6162 -0.9250
  392MOL0     H52879   6.023   6.091   5.990 -1.0101  4.2485 -2.2720
  392MOL0     H52880   6.332   6.426   5.905 -0.3535  1.1668 -1.6839
  392MOL0     H52881   6.378   6.649   5.864  3.8745  1.9695  1.5360
  392MOL0     H52882   6.288   6.781   5.946 -0.8197 -0.0555 -0.6497
  392MOL0     H52883   6.408   6.678   6.030 -1.8568 -4.0832  1.3171
  392MOL0     H52884   5.979   6.977   6.002 -1.2517  5.2573 -2.0432
  392MOL0     H52885   5.913   7.210   6.053  1.8767  2.0035  1.0001
  392MOL0     H52886   5.925   7.399   6.207  1.0305 -3.1124  1.7778
  392MOL0     H52887   5.769   7.409   6.119 -2.1987  0.7418  1.1457
  392MOL0     H52888   5.810   7.550   6.395 -0.7840 -1.2471  1.1535
  392MOL0     H52889   5.776   7.615   6.239  1.5523 -1.1235 -0.0886
  392MOL0     H52890   5.610   7.425   6.414  0.2252 -0.9592  0.3402
  392MOL0     H52891   5.554   7.477   6.257  0.4942 -1.5955  0.5678
  392MOL0     H52892   5.590   7.714   6.344  0.6215 -0.2470  0.6198
  392MOL0     H52893   5.445   7.623   6.383 -0.1972 -0.8994  0.2010
  392MOL0     H52894   5.511   7.728   6.590  3.4747  1.9850 -0.1307
  392MOL0     H52895   5.670   7.641   6.580 -0.6654 -2.3287  1.2476
  392MOL0     H52896   5.435   7.461   6.569 -2.2834  1.4304  0.7881
  392MOL0     H52897   5.599   7.444   6.612 -0.8305 -1.3889  0.4399
  392MOL0     H52898   5.571   7.595   6.805  1.1875  1.2561 -2.1785
  392MOL0     H52899   5.483   7.439   6.805 -2.3700  0.9203  0.0156
  392MOL0     H52900   5.353   7.706   6.740 -0.1326  0.0374 -2.0604
  392MOL0     H52901   5.327   7.627   6.891 -1.6694 -3.2362  0.8181
  392MOL0     H52902   5.763   7.075   6.432  0.2218  1.5767 -0.8487
  392MOL0     H52903   5.803   6.843   6.361 -1.1363  0.7530 -0.1025
  392MOL0     H52904   5.949   6.527   6.203  1.8506  0.5769  2.2058
  392MOL0     H52905   5.983   6.298   6.129  0.3851 -0.5946  0.1209
  392MOL0     H52906   6.283   4.795   4.644  0.4508  0.2279 -1.0263
  392MOL0     H52907   6.130   4.810   4.434 -0.5526  0.4402  0.2711
  392MOL0     H52908   5.706   4.921   4.458  1.7090  1.5439 -0.0172
  392MOL0     H52909   5.498   4.847   4.336  2.1721 -0.3204 -0.5436
  392MOL0     H52910   5.241   5.115   4.066 -1.1723 -0.0875 -1.8178
  392MOL0     H52911   5.394   5.091   3.981 -0.3622 -1.9832 -0.9660
  392MOL0     H52912   5.207   5.011   3.866  0.2726  1.0868  0.1547
  392MOL0     H52913   5.162   4.915   3.996  0.5203  0.2942  3.0120
  392MOL0     H52914   5.355   4.762   3.991  0.8669 -0.8709 -1.1001
  392MOL0     H52915   5.441   4.862   3.884  0.3565  0.3507  1.5454
  392MOL0     H52916   5.168   4.765   3.800 -0.9265 -4.9937  2.6739
  392MOL0     H52917   5.286   4.644   3.835 -1.1570  0.2130 -0.6905
  392MOL0     H52918   5.397   4.831   3.448  0.0940  0.8604  0.2712
  392MOL0     H52919   5.529   5.200   4.089  2.4978  1.9204 -0.0183
  392MOL0     H52920   5.741   5.260   4.219  3.2784 -2.3971  0.1726
  393MOL0     O52921   3.693   9.065  10.173 -0.2972 -0.3555 -0.5643
  393MOL0     C52922   3.585   9.014  10.204 -0.1241 -1.3035  0.3341
  393MOL0     O52923   3.462   9.078  10.206 -0.2015 -0.0264 -0.0402
  393MOL0     C52924   3.456   9.206  10.156  0.1096  0.4817  0.0361
  393MOL0     C52925   3.430   9.235  10.018 -0.0973 -0.0353 -0.5292
  393MOL0     C52926   3.398   9.363   9.977  0.3598  0.0324  0.2926
  393MOL0     C52927   3.408   9.466  10.066  0.0390 -0.9976  0.3697
  393MOL0     O52928   3.390   9.592  10.013  0.1341  0.1224  0.9386
  393MOL0     C52929   3.513   9.678  10.034  0.0404 -0.3669  0.4584
  393MOL0     C52930   3.494   9.802   9.941  0.5329 -0.2811 -0.7256
  393MOL0     C52931   3.514   9.763   9.799  0.0998 -0.4830 -0.7866
  393MOL0     C52932   3.395   9.820   9.716 -0.4724 -0.0889  0.5345
  393MOL0     C52933   3.270   9.740   9.732 -0.1774  0.1138  0.2546
  393MOL0     C52934   3.141   9.791   9.664  0.0226  0.6020  1.0706
  393MOL0     C52935   3.168   9.867   9.529 -0.7781 -0.0610 -0.0869
  393MOL0     C52936   3.042   9.881   9.445  0.5333 -0.0544 -0.9612
  393MOL0     N52937   3.068   9.945   9.311  0.7643  0.2622 -0.1486
  393MOL0     C52938   3.045  10.076   9.281  0.3399  0.3128  0.2768
  393MOL0     C52939   3.040  10.083   9.151  0.0318 -0.0570 -0.3373
  393MOL0     C52940   3.037  10.211   9.081 -0.3026  0.1619  0.8761
  393MOL0     C52941   3.117  10.200   8.949  0.2167  0.6447  0.0277
  393MOL0     C52942   3.266  10.216   8.959  0.5992  0.4267 -0.5938
  393MOL0     C52943   3.334  10.206   8.826  0.5222 -0.1755 -0.7485
  393MOL0     O52944   3.459  10.139   8.846  0.0907  0.2311 -0.5559
  393MOL0     C52945   3.460  10.003   8.797  0.0245 -0.4645  0.0235
  393MOL0     C52946   3.359   9.912   8.822  0.4224  0.1321  0.0699
  393MOL0     C52947   3.345   9.790   8.749  0.7224 -1.0512 -0.6316
  393MOL0     C52948   3.211   9.711   8.783 -0.2875 -0.4897  0.3148
  393MOL0     C52949   3.447   9.747   8.659 -0.0236 -0.2521  0.5536
  393MOL0     C52950   3.443   9.619   8.583 -0.3720  0.0443 -0.3231
  393MOL0     O52951   3.325   9.548   8.571  0.1102 -0.0162  0.6056
  393MOL0     C52952   3.329   9.424   8.513  0.3365 -1.1185 -0.4212
  393MOL0     C52953   3.204   9.387   8.451  0.2654 -0.5171  0.0722
  393MOL0     C52954   3.187   9.262   8.397 -0.1428  0.1072 -0.4099
  393MOL0     C52955   3.299   9.171   8.397  0.7578  1.0638 -1.5627
  393MOL0     O52956   3.300   9.039   8.340  0.0431 -0.6813 -0.2928
  393MOL0     C52957   3.178   8.968   8.323 -1.2899 -0.1708  0.1459
  393MOL0     C52958   3.134   8.945   8.171  0.1662 -0.4990 -0.5955
  393MOL0     C52959   3.232   8.849   8.095 -0.0306 -0.7497 -0.3583
  393MOL0     C52960   3.193   8.705   8.094  0.5032 -0.6403 -0.4329
  393MOL0     C52961   3.294   8.601   8.045  0.1934 -0.3244  0.0536
  393MOL0     C52962   3.218   8.464   8.059  0.4529  0.1956 -0.6190
  393MOL0     C52963   3.320   8.363   8.019 -0.2476  0.4461  0.1064
  393MOL0     C52964   3.247   8.245   7.948 -0.1402  0.1813  0.3679
  393MOL0    Cl52965   3.215   8.285   7.779  0.0531 -0.6451  0.2308
  393MOL0     C52966   3.423   9.214   8.454 -0.3642  0.6137 -0.4435
  393MOL0     C52967   3.438   9.330   8.522  0.3083 -0.3446  0.5867
  393MOL0     O52968   3.553   9.591   8.534  0.6410  0.4722  0.3081
  393MOL0     C52969   3.563   9.828   8.661  0.2684 -0.7193 -0.3276
  393MOL0     C52970   3.564   9.962   8.717  0.7259  0.7017 -0.2634
  393MOL0     N52971   3.050   9.952   9.101  0.2343 -0.3427  0.6637
  393MOL0     N52972   3.063   9.872   9.198  0.5380  0.4743 -1.5821
  393MOL0     C52973   3.435   9.446  10.208  0.2515 -0.1368  0.0447
  393MOL0     C52974   3.463   9.311  10.246 -0.5222 -0.3254  0.2076
  393MOL0     C52975   3.585   8.876  10.259  0.2608  0.2432 -0.3273
  393MOL0     C52976   3.467   8.806  10.295 -0.6182  0.0923  0.0597
  393MOL0     C52977   3.469   8.666  10.329  0.3711 -0.1890  0.7739
  393MOL0     C52978   3.595   8.599  10.325 -0.3565 -0.7464 -0.0554
  393MOL0     O52979   3.617   8.468  10.375  0.2664 -0.8950 -0.0217
  393MOL0     C52980   3.540   8.419  10.486 -0.0730 -0.4531  0.4634
  393MOL0     C52981   3.583   8.287  10.541 -0.1853  0.4274  0.2752
  393MOL0     C52982   3.730   8.290  10.594  0.5726 -0.4386 -0.1383
  393MOL0     C52983   3.758   8.174  10.686  0.1456 -0.5621 -0.1161
  393MOL0     C52984   3.706   8.215  10.816 -0.9554 -0.3743 -1.4795
  393MOL0     C52985   3.652   8.248  10.919 -1.0382 -0.3435 -0.4813
  393MOL0     C52986   3.712   8.671  10.295 -0.6930  0.4309  1.0101
  393MOL0     C52987   3.700   8.803  10.262  0.0355 -0.5192 -1.0289
  393MOL0     H52988   3.451   9.159   9.943  0.7221 -0.4496  0.0981
  393MOL0     H52989   3.401   9.392   9.872  0.2718  0.5709  0.4322
  393MOL0     H52990   3.515   9.703  10.141 -0.4000 -2.3928  0.9865
  393MOL0     H52991   3.602   9.628   9.994 -0.5328 -0.0902 -1.2522
  393MOL0     H52992   3.391   9.838   9.945 -0.0429 -1.5176 -2.9876
  393MOL0     H52993   3.573   9.875   9.963  1.6222 -1.3810 -0.9426
  393MOL0     H52994   3.602   9.821   9.771  0.0307 -0.2729 -0.5759
  393MOL0     H52995   3.517   9.655   9.782  0.8868 -0.0482 -4.0804
  393MOL0     H52996   3.383   9.928   9.729 -0.6123  0.2626 -2.0149
  393MOL0     H52997   3.420   9.813   9.610  0.7532  0.3681  0.7787
  393MOL0     H52998   3.293   9.642   9.690  1.9622  0.9812 -0.7546
  393MOL0     H52999   3.249   9.727   9.839 -0.8870 -0.9070 -0.0020
  393MOL0     H53000   3.086   9.698   9.645 -1.4164  1.0256  2.9910
  393MOL0     H53001   3.088   9.850   9.739 -0.9388 -2.1728  2.7126
  393MOL0     H53002   3.209   9.967   9.545 -0.4449  0.2942 -2.7708
  393MOL0     H53003   3.239   9.809   9.470 -1.4403  0.1894 -1.1721
  393MOL0     H53004   2.980   9.953   9.499  1.5487  1.1278 -1.3036
  393MOL0     H53005   3.004   9.779   9.437  3.0277 -0.9616 -2.4569
  393MOL0     H53006   3.038  10.158   9.352  0.0515 -0.4254  1.1226
  393MOL0     H53007   2.931  10.235   9.071 -0.1499  0.4517 -0.1656
  393MOL0     H53008   3.078  10.294   9.138  0.5261  1.1812 -1.1049
  393MOL0     H53009   3.081  10.286   8.892  1.4352  1.0556 -0.1487
  393MOL0     H53010   3.098  10.110   8.890 -1.1120  1.6688 -1.1806
  393MOL0     H53011   3.297  10.125   9.012 -0.9882  0.6802  0.8787
  393MOL0     H53012   3.276  10.302   9.025 -2.1320  1.0464 -0.8635
  393MOL0     H53013   3.342  10.305   8.780  3.4361  0.5521  1.0355
  393MOL0     H53014   3.261  10.166   8.755 -1.1289  1.4227 -0.0458
  393MOL0     H53015   3.283   9.933   8.896 -0.3599 -0.8283 -0.4362
  393MOL0     H53016   3.169   9.667   8.693 -1.3743 -0.0059  0.5591
  393MOL0     H53017   3.235   9.622   8.842  0.7825 -1.2408 -1.2092
  393MOL0     H53018   3.132   9.777   8.821  0.8512  0.2927  1.4357
  393MOL0     H53019   3.123   9.460   8.446  0.2411 -0.4690  0.9835
  393MOL0     H53020   3.097   9.233   8.344  0.8979 -1.8268 -1.2004
  393MOL0     H53021   3.186   8.872   8.375  0.1592  0.6360  1.4740
  393MOL0     H53022   3.092   9.025   8.359 -1.7875 -0.4078 -0.6426
  393MOL0     H53023   3.029   8.915   8.169  0.8703 -3.2586  0.2645
  393MOL0     H53024   3.139   9.042   8.119 -1.7121 -0.8816 -1.5861
  393MOL0     H53025   3.330   8.849   8.145  0.8794  0.3705 -2.0404
  393MOL0     H53026   3.237   8.872   7.989 -2.2697  1.0366 -0.1532
  393MOL0     H53027   3.162   8.672   8.194  0.4667 -1.2491 -0.6410
  393MOL0     H53028   3.107   8.684   8.029  1.7790 -2.7951 -1.5329
  393MOL0     H53029   3.372   8.607   8.121 -1.1865 -1.9205  1.7080
  393MOL0     H53030   3.333   8.615   7.943  0.6155  0.7301  0.3468
  393MOL0     H53031   3.198   8.452   8.165  0.5662  0.2091 -0.5960
  393MOL0     H53032   3.125   8.458   8.001 -0.1799 -4.0725  0.5236
  393MOL0     H53033   3.365   8.332   8.114  0.1282 -0.2655 -0.3041
  393MOL0     H53034   3.387   8.412   7.949  2.2640 -0.8390  1.4868
  393MOL0     H53035   3.148   8.232   7.992  0.8785 -2.6350  2.0310
  393MOL0     H53036   3.298   8.149   7.948 -1.5174 -0.6551 -2.0395
  393MOL0     H53037   3.507   9.146   8.447  0.7729  2.1233 -2.2552
  393MOL0     H53038   3.535   9.359   8.561  0.9833 -2.1955  0.3955
  393MOL0     H53039   3.652   9.795   8.609  0.3457 -0.2880 -0.4726
  393MOL0     H53040   3.654  10.015   8.687  0.6824  1.1882  0.4574
  393MOL0     H53041   3.431   9.523  10.283  1.1015  0.3064 -0.3461
  393MOL0     H53042   3.491   9.288  10.348  0.6932 -0.0821 -0.0547
  393MOL0     H53043   3.369   8.852  10.301 -1.4961 -1.6484 -0.1472
  393MOL0     H53044   3.376   8.613  10.350 -0.2451  0.5944  0.0719
  393MOL0     H53045   3.540   8.503  10.556 -1.8488  1.4116 -1.6189
  393MOL0     H53046   3.437   8.394  10.457  0.1115 -1.1799  0.3948
  393MOL0     H53047   3.571   8.195  10.482  0.5742 -0.2258  1.1108
  393MOL0     H53048   3.514   8.276  10.625 -0.3956  4.7890  0.9066
  393MOL0     H53049   3.749   8.386  10.643  1.5992 -1.3033  1.2279
  393MOL0     H53050   3.796   8.285  10.508 -0.9091  0.6645 -1.3807
  393MOL0     H53051   3.867   8.171  10.688  0.3320  2.7804 -0.3775
  393MOL0     H53052   3.724   8.074  10.656 -1.0863 -0.1776 -0.0465
  393MOL0     H53053   3.598   8.277  11.007  0.3769  2.0726 -0.3185
  393MOL0     H53054   3.798   8.606  10.301 -1.9108 -1.1831  1.6013
  393MOL0     H53055   3.785   8.862  10.228 -3.3519  3.8091 -3.0607
  394MOL0     O53056   2.332   1.900  10.566 -0.2950 -0.1021  0.0499
  394MOL0     C53057   2.428   1.940  10.630  1.0737  1.1942 -0.6999
  394MOL0     O53058   2.562   1.914  10.611 -0.4397  0.2099 -0.1959
  394MOL0     C53059   2.601   1.885  10.484  0.0645  0.0554 -0.5852
  394MOL0     C53060   2.533   1.921  10.363 -1.3378  0.2821 -0.3548
  394MOL0     C53061   2.588   1.879  10.240 -1.1292  1.1070  0.1337
  394MOL0     C53062   2.693   1.782  10.228  0.2631  0.9428  0.4157
  394MOL0     O53063   2.751   1.726  10.113  0.0912  0.1555 -0.2607
  394MOL0     C53064   2.706   1.775   9.981 -0.0715 -0.0687 -0.1626
  394MOL0     C53065   2.762   1.700   9.861  0.7153  0.3043  0.2677
  394MOL0     C53066   2.711   1.757   9.734 -0.1998 -0.1228  0.8038
  394MOL0     C53067   2.591   1.690   9.676  1.2500  0.7975  0.3048
  394MOL0     C53068   2.586   1.745   9.533 -0.3913 -0.2199 -0.2213
  394MOL0     C53069   2.486   1.682   9.437  1.1274  0.4108 -0.0144
  394MOL0     C53070   2.340   1.712   9.481 -0.7138 -0.0138 -0.1341
  394MOL0     C53071   2.223   1.651   9.397 -0.5738 -0.7394  0.1211
  394MOL0     N53072   2.206   1.502   9.411  0.1864 -0.5060 -0.3010
  394MOL0     C53073   2.240   1.425   9.521 -0.3133 -0.7839 -0.1838
  394MOL0     C53074   2.224   1.293   9.488 -0.1384  0.5253 -0.2869
  394MOL0     C53075   2.248   1.172   9.579  0.9286 -1.0131 -0.2364
  394MOL0     C53076   2.353   1.082   9.509  0.4475  0.5952 -0.7350
  394MOL0     C53077   2.383   0.969   9.613  0.8294  0.6237  0.5535
  394MOL0     C53078   2.484   0.879   9.561  0.5124 -0.4954  1.0055
  394MOL0     O53079   2.608   0.944   9.545  0.1658 -0.3883  1.2469
  394MOL0     C53080   2.694   0.866   9.472  0.6007  0.0230  0.4946
  394MOL0     C53081   2.751   0.759   9.540  0.3483  0.6711  0.2417
  394MOL0     C53082   2.830   0.667   9.465 -0.8329  1.3341 -0.1458
  394MOL0     C53083   2.899   0.557   9.547  0.1375 -0.2261 -0.0424
  394MOL0     C53084   2.842   0.684   9.326  0.9442  0.2405  1.0307
  394MOL0     C53085   2.931   0.612   9.239 -0.7473 -0.8181 -0.7885
  394MOL0     O53086   2.908   0.619   9.104  0.2960  0.1535 -0.3418
  394MOL0     C53087   2.968   0.522   9.028  0.7001 -0.6142 -0.8498
  394MOL0     C53088   2.890   0.405   9.022  0.7199 -0.3791 -0.7545
  394MOL0     C53089   2.936   0.293   8.958 -0.8934 -0.2267 -0.0053
  394MOL0     C53090   3.062   0.287   8.893 -0.2520 -0.4626 -0.1855
  394MOL0     O53091   3.091   0.173   8.829  0.0206  0.2771  0.0838
  394MOL0     C53092   3.199   0.173   8.737 -0.5594  0.3949 -0.1921
  394MOL0     C53093   3.224   0.036   8.694 -0.2406  0.2816 -0.6406
  394MOL0     C53094   3.119  -0.027   8.600 -0.0839 -0.0738  1.0365
  394MOL0     C53095   2.991  -0.078   8.670  0.3929  0.1804 -0.5480
  394MOL0     C53096   2.909  -0.166   8.584  0.2903  0.2467 -0.5083
  394MOL0     C53097   2.891  -0.129   8.442  0.2580 -0.2682  0.4303
  394MOL0     C53098   2.795  -0.220   8.360  0.2229  0.3575 -0.0845
  394MOL0     C53099   2.787  -0.175   8.215 -0.4837 -0.3017 -0.3273
  394MOL0    Cl53100   2.713  -0.017   8.197 -0.3946 -0.1241  0.2963
  394MOL0     C53101   3.140   0.403   8.918  0.1216 -0.0304  0.7021
  394MOL0     C53102   3.098   0.523   8.974  0.6795  0.3831  0.1560
  394MOL0     O53103   3.012   0.532   9.287 -0.6610 -0.3876 -0.1662
  394MOL0     C53104   2.770   0.784   9.257 -0.4843 -0.1979 -0.4494
  394MOL0     C53105   2.699   0.876   9.331 -0.8151 -0.7618 -0.3673
  394MOL0     N53106   2.174   1.299   9.360 -0.2657  0.1628 -0.4796
  394MOL0     N53107   2.166   1.417   9.311  0.2131 -0.9110  0.5948
  394MOL0     C53108   2.743   1.736  10.349  0.3671 -0.0477 -0.2768
  394MOL0     C53109   2.706   1.789  10.475  0.5194 -0.9645  0.2735
  394MOL0     C53110   2.391   2.023  10.745  0.0852 -0.0279  0.1513
  394MOL0     C53111   2.498   2.085  10.818 -0.0431  0.5149  1.0549
  394MOL0     C53112   2.478   2.178  10.913  0.5327  0.8303 -0.5877
  394MOL0     C53113   2.356   2.214  10.962 -0.6967 -0.4077 -0.9796
  394MOL0     O53114   2.339   2.310  11.053  0.4388 -0.8461  0.2509
  394MOL0     C53115   2.343   2.277  11.191 -0.4336 -0.2579 -0.3904
  394MOL0     C53116   2.487   2.273  11.248  0.2645 -0.3836 -0.2479
  394MOL0     C53117   2.535   2.136  11.269  0.3027 -0.6381 -0.2502
  394MOL0     C53118   2.688   2.153  11.277 -0.3138  0.7773 -0.2764
  394MOL0     C53119   2.759   2.168  11.148  0.0298 -0.0051  0.8536
  394MOL0     C53120   2.820   2.190  11.043 -0.0042  0.1765  0.1999
  394MOL0     C53121   2.247   2.150  10.900 -0.5415  0.6843 -0.1783
  394MOL0     C53122   2.258   2.062  10.784 -0.1418 -0.8503 -0.4640
  394MOL0     H53123   2.448   1.989  10.359 -1.5781 -0.0835 -1.9345
  394MOL0     H53124   2.539   1.916  10.151 -1.4236  3.0661  1.0466
  394MOL0     H53125   2.598   1.756   9.983 -0.5447  1.8258 -2.8137
  394MOL0     H53126   2.727   1.881   9.966  1.4597 -0.5331 -1.5863
  394MOL0     H53127   2.870   1.714   9.872  0.4394  2.1166  0.9890
  394MOL0     H53128   2.763   1.592   9.873  0.4893  0.3533  0.7273
  394MOL0     H53129   2.707   1.866   9.744 -1.7881  0.0099 -0.7740
  394MOL0     H53130   2.798   1.736   9.670 -2.1161  1.2963 -2.5409
  394MOL0     H53131   2.603   1.581   9.681 -0.4662  0.6078  1.2983
  394MOL0     H53132   2.495   1.726   9.714  1.1092 -0.0275  0.7492
  394MOL0     H53133   2.591   1.854   9.529 -1.9813 -0.1120 -0.1476
  394MOL0     H53134   2.681   1.725   9.484 -0.7420 -0.0501 -0.9824
  394MOL0     H53135   2.493   1.719   9.335 -0.7737  1.2447  0.1050
  394MOL0     H53136   2.510   1.575   9.433 -3.1331 -0.7088 -1.2483
  394MOL0     H53137   2.322   1.680   9.584  0.8460  0.1061  0.2020
  394MOL0     H53138   2.335   1.821   9.480  1.4297  0.2020  2.3129
  394MOL0     H53139   2.253   1.683   9.297  0.7470 -1.0253  0.4135
  394MOL0     H53140   2.131   1.705   9.421  0.9744  2.3745 -0.4316
  394MOL0     H53141   2.277   1.461   9.616  0.3784 -0.4232 -0.5848
  394MOL0     H53142   2.273   1.200   9.682 -3.9658 -0.2087  0.9718
  394MOL0     H53143   2.157   1.112   9.574  1.3217 -1.5714 -0.9608
  394MOL0     H53144   2.446   1.138   9.497  0.6122  0.3390 -0.6733
  394MOL0     H53145   2.316   1.048   9.412 -0.5607  1.6887 -0.7465
  394MOL0     H53146   2.297   0.905   9.634  1.5061 -0.4462  0.1759
  394MOL0     H53147   2.408   1.004   9.713  1.7876  1.9932 -0.1301
  394MOL0     H53148   2.446   0.830   9.471  0.6711 -0.3625  0.8660
  394MOL0     H53149   2.490   0.793   9.629  0.4557 -0.3555  1.1879
  394MOL0     H53150   2.740   0.755   9.648  4.9983  1.1625  0.9380
  394MOL0     H53151   2.893   0.573   9.655 -1.7221 -0.9049 -0.0110
  394MOL0     H53152   2.863   0.457   9.522 -0.5664  0.5069 -2.2097
  394MOL0     H53153   3.006   0.556   9.523 -0.1263  0.1985 -1.3179
  394MOL0     H53154   2.792   0.414   9.066 -0.7844 -1.0105 -3.7225
  394MOL0     H53155   2.867   0.210   8.952  0.6890 -1.7689  1.9741
  394MOL0     H53156   3.164   0.224   8.646  2.1766 -3.1081 -3.5811
  394MOL0     H53157   3.290   0.214   8.782 -0.6040 -0.0063  0.2637
  394MOL0     H53158   3.323   0.041   8.647  0.3615  1.4624  0.6429
  394MOL0     H53159   3.230  -0.031   8.781  2.1286  0.8982 -0.2511
  394MOL0     H53160   3.181  -0.106   8.557  1.2021  2.1619 -1.4911
  394MOL0     H53161   3.092   0.043   8.521  0.0843  2.0032  2.7014
  394MOL0     H53162   3.007  -0.126   8.767 -2.1872  2.0562  0.9474
  394MOL0     H53163   2.922   0.002   8.701  0.4471  1.0882 -2.5837
  394MOL0     H53164   2.810  -0.187   8.624  0.9185 -0.1170  0.9039
  394MOL0     H53165   2.972  -0.256   8.581  1.2457  0.8428  0.6972
  394MOL0     H53166   2.858  -0.025   8.430  2.4262  0.5566  1.1562
  394MOL0     H53167   2.990  -0.130   8.396 -1.1350 -0.6687 -2.8421
  394MOL0     H53168   2.698  -0.216   8.411  1.9762  3.6397  3.5236
  394MOL0     H53169   2.843  -0.318   8.370 -1.9052 -0.8063 -0.6621
  394MOL0     H53170   2.727  -0.247   8.158 -0.5367 -1.0887  0.6883
  394MOL0     H53171   2.886  -0.173   8.168 -0.1260  1.3157  0.4270
  394MOL0     H53172   3.242   0.389   8.883  0.3475  1.4250  0.7356
  394MOL0     H53173   3.172   0.602   8.972  0.6607  0.3934 -1.3726
  394MOL0     H53174   2.768   0.797   9.149  0.0000  0.0186 -0.4344
  394MOL0     H53175   2.636   0.949   9.281 -1.5986 -0.5582  0.8678
  394MOL0     H53176   2.823   1.663  10.362 -0.6769 -1.1639  0.0320
  394MOL0     H53177   2.752   1.762  10.570  0.8005 -2.0029 -0.1352
  394MOL0     H53178   2.603   2.070  10.795  0.1255  2.7984 -0.0093
  394MOL0     H53179   2.567   2.238  10.929  0.6454  0.2173  1.3690
  394MOL0     H53180   2.296   2.353  11.253 -0.7669  0.7640 -1.8449
  394MOL0     H53181   2.278   2.189  11.203  0.1852 -0.5438  1.1665
  394MOL0     H53182   2.498   2.316  11.348  3.0244  1.4749 -1.2423
  394MOL0     H53183   2.562   2.323  11.186  0.9592 -0.6707  0.3461
  394MOL0     H53184   2.502   2.078  11.182  0.0639  1.3742 -1.5535
  394MOL0     H53185   2.484   2.105  11.361 -0.2633 -1.4428 -0.8153
  394MOL0     H53186   2.714   2.063  11.332 -1.4383  0.5596 -0.0768
  394MOL0     H53187   2.719   2.234  11.344  2.8448  0.2588 -0.9340
  394MOL0     H53188   2.865   2.213  10.948 -0.1547 -1.5778 -0.3266
  394MOL0     H53189   2.149   2.166  10.943  0.6193 -0.5093  3.2052
  394MOL0     H53190   2.174   2.031  10.723  0.2649 -0.5873 -1.1604
  395MOL0     O53191   9.937   8.103   5.680 -0.2646 -0.3302  0.9532
  395MOL0     C53192   9.856   8.057   5.598 -0.4132 -0.5284 -1.6113
  395MOL0     O53193   9.817   8.113   5.486  0.3912 -0.0785  0.9168
  395MOL0     C53194   9.865   8.239   5.439 -0.2875  0.5985 -0.5246
  395MOL0     C53195   9.918   8.343   5.518 -0.0616 -0.4090  0.0339
  395MOL0     C53196   9.942   8.464   5.458  0.1783  0.9301  0.6856
  395MOL0     C53197   9.925   8.491   5.322  0.2021 -0.0149 -0.0889
  395MOL0     O53198   9.963   8.611   5.263  0.3273  0.0804  0.2328
  395MOL0     C53199   9.985   8.621   5.118 -0.4875  0.6455  0.0927
  395MOL0     C53200  10.072   8.746   5.079  0.1252  0.5792 -0.0660
  395MOL0     C53201  10.196   8.763   5.171 -0.1917  0.1206  0.4048
  395MOL0     C53202  10.288   8.880   5.116  0.1274 -0.3303 -0.6683
  395MOL0     C53203  10.380   8.923   5.229 -0.9145 -1.2685 -0.0702
  395MOL0     C53204  10.462   9.040   5.176 -0.3877  0.0128 -0.1440
  395MOL0     C53205  10.555   9.100   5.282  0.8104  0.0861  0.2682
  395MOL0     C53206  10.640   9.223   5.221  0.7317  0.2027  0.1752
  395MOL0     N53207  10.726   9.280   5.322 -0.5426  0.1203 -0.2321
  395MOL0     C53208  10.685   9.368   5.426 -0.1276 -0.0871 -0.5466
  395MOL0     C53209  10.795   9.429   5.481 -0.4918 -0.5437  0.2424
  395MOL0     C53210  10.795   9.537   5.590  0.0161  0.3778 -0.0444
  395MOL0     C53211  10.932   9.604   5.597  0.1089  0.4898  0.7936
  395MOL0     C53212  10.956   9.701   5.707 -0.6482 -0.6623 -0.7436
  395MOL0     C53213  11.089   9.767   5.673  0.3797  0.8217 -0.2617
  395MOL0     O53214  11.137   9.824   5.798  0.4922 -0.9456  0.8870
  395MOL0     C53215  11.243   9.910   5.790 -0.3039  0.4443 -0.2685
  395MOL0     C53216  11.280   9.966   5.912  0.7322 -0.9554  0.4622
  395MOL0     C53217  11.378  10.067   5.920 -1.4781  0.2679  0.1996
  395MOL0     C53218  11.402  10.128   6.055 -0.3758  0.2326 -0.0716
  395MOL0     C53219  11.434  10.118   5.799  0.3775 -1.1836 -0.3495
  395MOL0     C53220  11.525  10.237   5.786 -0.0420  0.0996  0.0103
  395MOL0     O53221  11.572  10.254   5.658 -0.1335  0.1569 -0.7535
  395MOL0     C53222  11.659  10.360   5.636 -0.6007  0.7246  0.5114
  395MOL0     C53223  11.742  10.436   5.718 -0.6273 -0.2329 -0.2530
  395MOL0     C53224  11.832  10.537   5.668 -0.1307 -0.1780 -0.1790
  395MOL0     C53225  11.841  10.564   5.527 -0.1184  0.5731  0.8322
  395MOL0     O53226  11.922  10.661   5.467  0.5561 -0.2904 -0.1671
  395MOL0     C53227  11.936  10.779   5.549  0.4199  0.8152 -0.5105
  395MOL0     C53228  11.946  10.896   5.454 -1.1049  0.7201 -0.1801
  395MOL0     C53229  11.813  10.938   5.388  0.3416 -0.2024  0.1367
  395MOL0     C53230  11.729  11.005   5.497  0.8471 -1.0887 -0.6139
  395MOL0     C53231  11.606  11.074   5.435  0.0611  0.1310  0.3294
  395MOL0     C53232  11.493  11.101   5.529  0.3188 -0.6632 -0.6757
  395MOL0     C53233  11.543  11.205   5.623 -0.2628  0.0423 -0.1090
  395MOL0     C53234  11.437  11.237   5.723 -0.0948  0.0284 -0.0972
  395MOL0    Cl53235  11.398  11.093   5.823 -0.3912 -0.0205 -0.2396
  395MOL0     C53236  11.764  10.483   5.446 -0.7003 -1.1402 -0.1709
  395MOL0     C53237  11.672  10.389   5.502  0.2368  0.0340 -0.1741
  395MOL0     O53238  11.545  10.309   5.880 -0.1768 -0.7447  0.6594
  395MOL0     C53239  11.401  10.061   5.678 -0.4780  0.2773  0.1107
  395MOL0     C53240  11.314   9.950   5.674 -0.0848 -0.9018 -0.4225
  395MOL0     N53241  10.906   9.385   5.404 -0.6667  1.1907 -0.3312
  395MOL0     N53242  10.865   9.292   5.326 -0.2967  0.1965  0.5333
  395MOL0     C53243   9.879   8.386   5.248 -0.0492  0.2233  1.4653
  395MOL0     C53244   9.839   8.262   5.306 -0.1653 -0.2478 -0.5902
  395MOL0     C53245   9.786   7.932   5.646  0.3697  0.5869 -0.3983
  395MOL0     C53246   9.752   7.837   5.553  1.0700 -0.4199 -0.0188
  395MOL0     C53247   9.685   7.715   5.593  0.1414  0.2812  0.2261
  395MOL0     C53248   9.669   7.681   5.724 -0.6327 -0.7734 -0.5530
  395MOL0     O53249   9.615   7.552   5.728  0.1022  0.0832  0.9607
  395MOL0     C53250   9.567   7.505   5.848  0.5365 -0.2966 -0.2086
  395MOL0     C53251   9.673   7.435   5.933  0.0157  0.7569  0.3034
  395MOL0     C53252   9.756   7.331   5.851  0.2602 -0.6892  0.0202
  395MOL0     C53253   9.683   7.205   5.806 -0.7543  0.0316 -0.8340
  395MOL0     C53254   9.762   7.108   5.725  0.1006 -0.1557 -0.5154
  395MOL0     C53255   9.838   7.043   5.654  0.7903  0.3831  0.7211
  395MOL0     C53256   9.704   7.773   5.825 -0.4455  0.1329 -0.1596
  395MOL0     C53257   9.769   7.893   5.790 -0.8609 -0.3317  0.2911
  395MOL0     H53258   9.933   8.331   5.625  0.5374  3.4936  0.5520
  395MOL0     H53259   9.989   8.544   5.514  1.3449  0.6661  0.1203
  395MOL0     H53260  10.038   8.533   5.080 -0.3452  0.8567 -0.2067
  395MOL0     H53261   9.889   8.612   5.066 -0.3336 -2.0209  0.1365
  395MOL0     H53262  10.100   8.730   4.975 -2.5247 -1.7698 -0.5412
  395MOL0     H53263  10.014   8.839   5.077 -1.7052 -0.5237 -0.6259
  395MOL0     H53264  10.160   8.788   5.271  3.0454  0.6972  1.5639
  395MOL0     H53265  10.256   8.672   5.163 -0.8489 -0.1862 -4.4929
  395MOL0     H53266  10.345   8.857   5.025  0.5171 -0.9846 -0.2681
  395MOL0     H53267  10.225   8.966   5.096  4.5276  3.2391 -0.7389
  395MOL0     H53268  10.325   8.957   5.317  1.4324  3.2912 -0.0778
  395MOL0     H53269  10.447   8.840   5.251 -0.2505 -0.9952 -0.9794
  395MOL0     H53270  10.528   9.012   5.093  2.7860  2.8523  1.2229
  395MOL0     H53271  10.397   9.123   5.146 -2.7623 -0.4403  3.2024
  395MOL0     H53272  10.484   9.144   5.353 -1.7994  0.4622 -2.3876
  395MOL0     H53273  10.618   9.020   5.321 -1.5386 -0.8975  2.3185
  395MOL0     H53274  10.576   9.302   5.181 -0.5381 -1.3638 -0.9892
  395MOL0     H53275  10.697   9.200   5.130 -1.8077 -0.6701 -1.2741
  395MOL0     H53276  10.582   9.386   5.457 -0.3877 -3.7926  1.2425
  395MOL0     H53277  10.726   9.622   5.578 -3.1670 -2.0134  0.0380
  395MOL0     H53278  10.771   9.496   5.688 -2.5977  0.3562 -0.6155
  395MOL0     H53279  10.950   9.659   5.504 -1.7641 -2.4927 -1.4990
  395MOL0     H53280  11.007   9.524   5.592  1.3105  1.4792  2.1827
  395MOL0     H53281  10.959   9.666   5.811  0.1007 -0.9022 -0.8417
  395MOL0     H53282  10.878   9.776   5.691 -1.4460 -1.7281 -2.0211
  395MOL0     H53283  11.063   9.844   5.600  0.4049  0.3485 -0.7786
  395MOL0     H53284  11.168   9.701   5.636  0.0416  0.1340  0.2367
  395MOL0     H53285  11.223   9.940   6.000 -0.6912  0.9777  0.1753
  395MOL0     H53286  11.401  10.234   6.079  1.2289 -0.0007  1.2123
  395MOL0     H53287  11.321  10.094   6.119  1.2005 -0.7524  1.5076
  395MOL0     H53288  11.491  10.086   6.104  0.6823  1.7301 -0.6471
  395MOL0     H53289  11.738  10.423   5.826 -1.1008 -1.2475 -0.3867
  395MOL0     H53290  11.891  10.595   5.737 -2.4982 -1.2760  2.9710
  395MOL0     H53291  11.854  10.791   5.620  1.4555  0.0414  0.8841
  395MOL0     H53292  12.030  10.781   5.605 -0.1913  1.4616  0.5248
  395MOL0     H53293  11.984  10.977   5.516  0.3787  0.2030 -0.3797
  395MOL0     H53294  12.023  10.877   5.379 -0.8106  0.4491  0.1844
  395MOL0     H53295  11.757  10.858   5.338 -2.1769  0.1726  2.1454
  395MOL0     H53296  11.837  11.017   5.315 -1.0306  0.1714  0.0489
  395MOL0     H53297  11.688  10.932   5.567  2.5591 -2.8822 -1.4078
  395MOL0     H53298  11.777  11.076   5.566 -3.0865  0.1805  1.1686
  395MOL0     H53299  11.563  11.004   5.363 -0.1971 -0.3860  0.9801
  395MOL0     H53300  11.640  11.168   5.390  0.0295  0.7181  1.4893
  395MOL0     H53301  11.405  11.136   5.474  1.1593  1.5549 -0.6732
  395MOL0     H53302  11.468  11.008   5.582 -1.9629 -0.0663 -0.6095
  395MOL0     H53303  11.560  11.297   5.566 -1.4808 -0.6546 -1.6932
  395MOL0     H53304  11.628  11.173   5.683 -2.1982 -3.1090  1.1715
  395MOL0     H53305  11.348  11.267   5.666  1.0015  1.5258 -1.0995
  395MOL0     H53306  11.462  11.322   5.788 -2.1925  0.8001 -0.2122
  395MOL0     H53307  11.774  10.507   5.341 -0.3277 -0.2614  0.0620
  395MOL0     H53308  11.604  10.347   5.428 -0.5283  2.3663 -0.8888
  395MOL0     H53309  11.437  10.083   5.577 -0.3433 -0.3886  0.0099
  395MOL0     H53310  11.292   9.903   5.579 -2.2253 -2.8575  0.9242
  395MOL0     H53311   9.873   8.401   5.140  1.5961 -2.5681  0.8887
  395MOL0     H53312   9.810   8.182   5.239 -1.1428 -1.3739  1.1258
  395MOL0     H53313   9.770   7.859   5.448 -1.2234 -0.4201 -0.4629
  395MOL0     H53314   9.662   7.641   5.517 -0.2971  0.2291  0.4087
  395MOL0     H53315   9.529   7.587   5.910 -1.1473 -1.3256  0.1687
  395MOL0     H53316   9.478   7.445   5.831 -0.2011  1.1135 -1.6246
  395MOL0     H53317   9.623   7.386   6.017  2.0210 -0.1188  1.0633
  395MOL0     H53318   9.737   7.510   5.981 -0.6861  1.3507  0.3223
  395MOL0     H53319   9.843   7.299   5.909  0.3806  1.2498  1.0017
  395MOL0     H53320   9.790   7.383   5.761  0.1999 -2.4863 -1.0739
  395MOL0     H53321   9.601   7.234   5.740  0.3164  0.3152 -2.0971
  395MOL0     H53322   9.637   7.142   5.882 -1.8035  0.2756 -1.2516
  395MOL0     H53323   9.903   6.985   5.592 -0.1587 -0.6390  0.6538
  395MOL0     H53324   9.700   7.740   5.928  1.0832  2.9251  0.9130
  395MOL0     H53325   9.808   7.959   5.866 -0.4457  0.1920 -0.3645
  396MOL0     O53326   4.543  11.354   4.898  0.6912  0.8064  1.0684
  396MOL0     C53327   4.484  11.383   4.999 -1.0513  0.0367 -0.6006
  396MOL0     O53328   4.371  11.329   5.041 -0.6209  0.0759 -0.5786
  396MOL0     C53329   4.288  11.270   4.944  0.0418 -0.2246  0.8116
  396MOL0     C53330   4.331  11.174   4.849  0.8379 -0.4800 -0.2223
  396MOL0     C53331   4.245  11.099   4.774 -0.4884 -1.3645  0.2571
  396MOL0     C53332   4.110  11.123   4.796  0.9011  0.4149 -0.3868
  396MOL0     O53333   4.022  11.047   4.717 -0.4194  0.4156  0.1412
  396MOL0     C53334   4.000  10.906   4.766 -0.4789 -0.3837 -0.1191
  396MOL0     C53335   3.859  10.908   4.850  0.2065 -0.0336 -0.6839
  396MOL0     C53336   3.837  10.788   4.944  0.0202 -0.2787  0.0211
  396MOL0     C53337   3.722  10.706   4.890 -0.6222  0.3639  0.6168
  396MOL0     C53338   3.709  10.597   4.994  0.4888 -0.5691 -0.9905
  396MOL0     C53339   3.692  10.460   4.931 -0.5150 -0.3423  0.3358
  396MOL0     C53340   3.637  10.356   5.024  0.2707  0.3872  0.5053
  396MOL0     C53341   3.749  10.295   5.100 -0.2199  0.0863 -0.3338
  396MOL0     N53342   3.690  10.182   5.184 -0.2147 -0.3676 -0.2186
  396MOL0     C53343   3.632  10.072   5.126  0.2870  0.1434 -0.6607
  396MOL0     C53344   3.589  10.002   5.234 -0.5475  0.3169  1.0514
  396MOL0     C53345   3.518   9.870   5.211  0.3928  0.1184  0.7002
  396MOL0     C53346   3.373   9.887   5.263  0.5688 -0.0657  0.5005
  396MOL0     C53347   3.285   9.762   5.227  0.5015 -0.0036  0.3960
  396MOL0     C53348   3.131   9.775   5.261 -0.9410 -0.5079 -0.7030
  396MOL0     O53349   3.089   9.896   5.204  0.4242  0.2631 -0.7021
  396MOL0     C53350   2.951   9.925   5.199 -0.1765 -0.5309 -0.1248
  396MOL0     C53351   2.857   9.838   5.237  0.4866 -0.0782  0.2644
  396MOL0     C53352   2.720   9.882   5.241  0.9531 -0.5982 -0.8918
  396MOL0     C53353   2.621   9.773   5.286 -0.5208 -0.8272  0.2813
  396MOL0     C53354   2.691  10.018   5.194 -0.8618  0.3488  0.7555
  396MOL0     C53355   2.564  10.068   5.197  1.5454 -0.7559 -0.2959
  396MOL0     O53356   2.545  10.205   5.207 -0.1617  0.6594  0.2874
  396MOL0     C53357   2.415  10.252   5.214 -0.4514  0.2807 -0.0495
  396MOL0     C53358   2.334  10.237   5.099  1.2917 -0.8403 -0.8465
  396MOL0     C53359   2.210  10.305   5.103  0.1557  0.1963  0.3551
  396MOL0     C53360   2.176  10.392   5.207  0.5384  0.7122  0.5638
  396MOL0     O53361   2.053  10.459   5.171 -0.1763  0.2726  0.0219
  396MOL0     C53362   1.975  10.512   5.281  0.4218 -1.1669  0.3666
  396MOL0     C53363   1.832  10.553   5.241 -0.0128 -0.2343 -0.2756
  396MOL0     C53364   1.800  10.701   5.248  0.2793 -0.2566  0.4059
  396MOL0     C53365   1.693  10.746   5.144  0.7856  0.4237 -0.3158
  396MOL0     C53366   1.691  10.897   5.146  0.0264  0.0425  0.3871
  396MOL0     C53367   1.607  10.948   5.029 -0.1552  0.6531 -0.2174
  396MOL0     C53368   1.584  11.098   5.043 -1.2002  0.1090 -1.8223
  396MOL0     C53369   1.504  11.170   4.935  0.3590  0.7459  0.1620
  396MOL0    Cl53370   1.604  11.197   4.803 -0.1143  0.3279 -0.2277
  396MOL0     C53371   2.261  10.413   5.317  0.0376  0.0327  0.7327
  396MOL0     C53372   2.384  10.347   5.315  0.4502 -0.7924  0.0847
  396MOL0     O53373   2.471   9.985   5.181 -0.0852 -0.6499 -0.0136
  396MOL0     C53374   2.796  10.103   5.153  1.3491  0.1949 -0.7672
  396MOL0     C53375   2.926  10.062   5.158 -0.3579  0.0758 -0.1490
  396MOL0     N53376   3.621  10.072   5.354 -0.5688  0.4658 -0.0658
  396MOL0     N53377   3.695  10.170   5.313 -0.4810 -0.0744  0.5776
  396MOL0     C53378   4.056  11.216   4.888  0.1130 -0.2430  0.6235
  396MOL0     C53379   4.149  11.291   4.954  0.1620  0.1833  0.0288
  396MOL0     C53380   4.540  11.487   5.093  0.0036  1.1366  0.0626
  396MOL0     C53381   4.636  11.573   5.034  1.4846  0.1499 -0.6264
  396MOL0     C53382   4.701  11.664   5.117 -0.0642  1.2428 -0.4112
  396MOL0     C53383   4.675  11.665   5.251  0.1699 -0.6664 -0.0068
  396MOL0     O53384   4.749  11.762   5.319 -0.0854  0.0021  0.3039
  396MOL0     C53385   4.693  11.818   5.437 -0.1921  0.6391 -0.5934
  396MOL0     C53386   4.578  11.919   5.410 -0.8468  0.9169 -0.5091
  396MOL0     C53387   4.620  12.046   5.326  1.0864 -0.0129  0.1301
  396MOL0     C53388   4.526  12.152   5.368 -0.9253 -0.4729  0.2957
  396MOL0     C53389   4.535  12.268   5.279 -0.3779 -0.9257 -0.0509
  396MOL0     C53390   4.521  12.375   5.230 -0.3269 -0.9191  0.0706
  396MOL0     C53391   4.586  11.579   5.311 -0.1691  0.4357  1.1162
  396MOL0     C53392   4.519  11.480   5.234  0.9419 -0.8306  0.7930
  396MOL0     H53393   4.434  11.145   4.864  0.9926  0.3962  0.5533
  396MOL0     H53394   4.279  11.024   4.704 -0.4087 -1.2524  0.1751
  396MOL0     H53395   3.992  10.836   4.683  3.1185 -0.2570 -0.7139
  396MOL0     H53396   4.084  10.876   4.828 -1.8824 -1.5810  1.2893
  396MOL0     H53397   3.878  10.981   4.930  2.8595 -4.6938  3.5219
  396MOL0     H53398   3.776  10.940   4.787 -0.1813 -0.0909 -0.2057
  396MOL0     H53399   3.925  10.725   4.955  0.7610  0.2498 -2.2150
  396MOL0     H53400   3.811  10.833   5.040  4.6307  0.0433  1.3326
  396MOL0     H53401   3.627  10.758   4.874 -1.2671 -0.3666  1.8638
  396MOL0     H53402   3.767  10.664   4.800 -1.8401 -0.5630  0.4112
  396MOL0     H53403   3.794  10.587   5.062  0.9025 -1.4826 -1.6214
  396MOL0     H53404   3.627  10.639   5.053  0.1026 -3.5336  0.7790
  396MOL0     H53405   3.628  10.468   4.843  0.1268  2.3697  0.0216
  396MOL0     H53406   3.793  10.428   4.904 -0.9915 -0.6348 -1.1403
  396MOL0     H53407   3.554  10.392   5.086 -0.9995  0.0923 -0.9637
  396MOL0     H53408   3.590  10.290   4.951  0.3632  1.1182 -0.2283
  396MOL0     H53409   3.797  10.358   5.175  1.0145 -0.4209 -0.6816
  396MOL0     H53410   3.829  10.261   5.033 -0.7608  1.9487 -2.0228
  396MOL0     H53411   3.619  10.046   5.022  0.5451  1.3450 -1.0073
  396MOL0     H53412   3.521   9.835   5.107 -2.9516 -0.0016  0.5175
  396MOL0     H53413   3.572   9.795   5.270 -1.2122 -1.3190  0.4281
  396MOL0     H53414   3.338   9.979   5.215 -1.3468 -1.7736 -1.6260
  396MOL0     H53415   3.357   9.891   5.371 -2.2654  1.3164  0.1111
  396MOL0     H53416   3.323   9.672   5.277  1.3972  0.6217  0.8647
  396MOL0     H53417   3.290   9.743   5.120  0.3347  2.3520 -0.0738
  396MOL0     H53418   3.102   9.772   5.367 -0.2961  0.8971 -0.4654
  396MOL0     H53419   3.088   9.696   5.199  0.3389 -0.9085 -1.0966
  396MOL0     H53420   2.880   9.733   5.251  1.4697  0.2792  1.4428
  396MOL0     H53421   2.592   9.714   5.199 -3.1555 -0.8985  1.1406
  396MOL0     H53422   2.663   9.726   5.375  0.4084  2.7907  1.9233
  396MOL0     H53423   2.528   9.801   5.337 -1.8630 -0.8957 -2.0021
  396MOL0     H53424   2.361  10.187   5.006 -1.2396 -0.8612 -1.6521
  396MOL0     H53425   2.133  10.298   5.026 -0.6973 -5.6607  1.2475
  396MOL0     H53426   1.965  10.441   5.364 -3.0426 -2.1042 -0.6552
  396MOL0     H53427   2.031  10.593   5.327 -0.8869 -0.8867  1.5253
  396MOL0     H53428   1.806  10.513   5.142  1.5565  0.4536 -1.0140
  396MOL0     H53429   1.763  10.516   5.316  1.7734  0.6715  1.9199
  396MOL0     H53430   1.893  10.757   5.234  0.8509 -0.8652  1.6241
  396MOL0     H53431   1.757  10.723   5.346 -0.7996 -3.3032  0.7262
  396MOL0     H53432   1.733  10.704   5.051  4.0325 -1.2196  1.6365
  396MOL0     H53433   1.593  10.704   5.157  1.3608 -1.6248 -1.9275
  396MOL0     H53434   1.793  10.936   5.146  0.5575 -1.1678  2.4562
  396MOL0     H53435   1.661  10.936   5.244  2.6553  3.0672  0.1333
  396MOL0     H53436   1.649  10.919   4.932 -0.3933 -0.0324 -0.1240
  396MOL0     H53437   1.511  10.897   5.039  0.5286 -0.3125  2.2526
  396MOL0     H53438   1.678  11.151   5.061 -0.9836 -0.5009 -1.1250
  396MOL0     H53439   1.534  11.113   5.139 -0.5950  0.9329 -1.6313
  396MOL0     H53440   1.461  11.262   4.976 -3.1000 -1.0064  0.8490
  396MOL0     H53441   1.416  11.114   4.902 -0.2543  1.9259 -0.2621
  396MOL0     H53442   2.246  10.470   5.408  3.0520  0.2624  1.1751
  396MOL0     H53443   2.450  10.371   5.398  3.4950 -1.9156 -1.8136
  396MOL0     H53444   2.771  10.208   5.144 -4.2620 -0.8695 -1.7261
  396MOL0     H53445   3.015  10.117   5.130  0.5967 -0.9415  0.7955
  396MOL0     H53446   3.952  11.221   4.918  0.5138 -3.1417  2.9732
  396MOL0     H53447   4.110  11.365   5.023 -2.5354  0.8291 -1.9935
  396MOL0     H53448   4.656  11.563   4.928  2.3196  4.8936 -1.1450
  396MOL0     H53449   4.782  11.721   5.072 -1.7657  2.2681 -2.3697
  396MOL0     H53450   4.672  11.742   5.513 -0.4182  2.5291  1.3210
  396MOL0     H53451   4.772  11.880   5.481  0.0701 -0.0391 -0.0863
  396MOL0     H53452   4.535  11.947   5.507  2.2616  0.1508  1.2370
  396MOL0     H53453   4.495  11.870   5.358 -1.1475 -0.3083  1.0235
  396MOL0     H53454   4.612  12.010   5.222 -3.6954 -3.7405  1.4222
  396MOL0     H53455   4.721  12.081   5.350 -0.1435  3.0259  1.3663
  396MOL0     H53456   4.547  12.185   5.470  3.5892  0.8388 -0.8023
  396MOL0     H53457   4.421  12.122   5.365 -0.5631 -1.7331 -1.4564
  396MOL0     H53458   4.499  12.478   5.212 -0.7012 -1.0081  0.0001
  396MOL0     H53459   4.566  11.582   5.417 -0.0450  1.9936  1.1165
  396MOL0     H53460   4.468  11.398   5.284 -0.3571 -1.7639 -1.8596
  397MOL0     O53461   9.404   1.389   9.647 -0.2375 -0.2903  0.4438
  397MOL0     C53462   9.428   1.268   9.655  0.1754  0.0453  0.2927
  397MOL0     O53463   9.338   1.176   9.711  0.2208  0.2117 -0.2453
  397MOL0     C53464   9.231   1.225   9.776  0.4516 -1.0290 -0.0922
  397MOL0     C53465   9.098   1.175   9.748 -0.1626  0.3646  0.0555
  397MOL0     C53466   9.000   1.214   9.834  0.4913  0.7342  0.4664
  397MOL0     C53467   9.024   1.288   9.952 -0.4588  0.3125 -0.3651
  397MOL0     O53468   8.926   1.321  10.044  0.3633  0.3059  0.2706
  397MOL0     C53469   8.964   1.383  10.168  0.3879 -1.0646 -0.7311
  397MOL0     C53470   8.837   1.432  10.252  0.9967 -1.0000  1.1581
  397MOL0     C53471   8.743   1.520  10.164  0.7799 -0.0349  0.1860
  397MOL0     C53472   8.589   1.520  10.202 -0.5701 -0.4082  1.6635
  397MOL0     C53473   8.527   1.632  10.113  0.3866 -0.8908 -0.1437
  397MOL0     C53474   8.371   1.648  10.120 -0.3658  1.0903  0.0258
  397MOL0     C53475   8.316   1.738  10.011 -0.0736  0.6923 -0.9649
  397MOL0     C53476   8.160   1.753  10.033  0.1802  0.1416  0.1232
  397MOL0     N53477   8.115   1.894  10.034  0.2771 -0.0763 -0.3803
  397MOL0     C53478   8.140   1.989   9.936 -0.1446 -0.3522 -0.6818
  397MOL0     C53479   8.129   2.109   9.992  1.0046 -0.6217 -0.0547
  397MOL0     C53480   8.130   2.237   9.918  0.1404  0.4990  0.1234
  397MOL0     C53481   8.004   2.318   9.914  0.0970 -0.1779 -0.3418
  397MOL0     C53482   7.932   2.317   9.784 -0.2289  0.1930  0.5512
  397MOL0     C53483   7.841   2.194   9.763 -0.2534 -0.3101 -0.1820
  397MOL0     O53484   7.748   2.166   9.870  0.3485  0.3821  0.2001
  397MOL0     C53485   7.672   2.049   9.860  0.5406  0.1794  0.4468
  397MOL0     C53486   7.580   2.022   9.948  0.6317  1.0074 -0.3408
  397MOL0     C53487   7.489   1.907   9.934 -0.2562 -0.5308  0.9991
  397MOL0     C53488   7.363   1.912  10.030  0.2433 -0.0703  0.5609
  397MOL0     C53489   7.507   1.807   9.838 -0.1173 -0.3847 -0.4105
  397MOL0     C53490   7.436   1.683   9.827  1.4829 -0.1921 -0.5784
  397MOL0     O53491   7.442   1.618   9.705 -0.2463  0.1847 -0.0871
  397MOL0     C53492   7.402   1.485   9.685 -0.7548 -0.4858  0.0430
  397MOL0     C53493   7.337   1.459   9.560 -0.0258 -0.3322  0.6877
  397MOL0     C53494   7.288   1.330   9.533  0.2169 -0.3570 -0.1754
  397MOL0     C53495   7.285   1.227   9.630 -0.1717 -0.4814 -0.5154
  397MOL0     O53496   7.236   1.106   9.587 -0.7146  0.6447 -0.5749
  397MOL0     C53497   7.187   1.017   9.696  0.4881  0.2888 -0.2842
  397MOL0     C53498   7.100   0.904   9.632  0.9082 -0.3834 -0.1286
  397MOL0     C53499   6.964   0.964   9.595  0.0616  0.5181  0.6323
  397MOL0     C53500   6.898   0.881   9.475 -0.2608 -0.1784  0.0904
  397MOL0     C53501   6.808   0.778   9.516 -0.5029 -0.2260 -1.0956
  397MOL0     C53502   6.673   0.848   9.556 -0.1191  0.2113 -0.1181
  397MOL0     C53503   6.550   0.752   9.587 -0.3718  0.0361 -0.1918
  397MOL0     C53504   6.584   0.627   9.660 -0.0778 -0.6213  0.1594
  397MOL0    Cl53505   6.663   0.654   9.821 -0.5916  0.6653 -0.4337
  397MOL0     C53506   7.341   1.258   9.757  0.9221  0.1850 -0.0842
  397MOL0     C53507   7.398   1.383   9.781  0.4794  0.5138 -0.5371
  397MOL0     O53508   7.393   1.636   9.931  0.3811  0.2186 -0.1346
  397MOL0     C53509   7.619   1.839   9.752  0.1924  0.0205  0.6802
  397MOL0     C53510   7.698   1.951   9.766 -0.2107 -0.5447 -0.0094
  397MOL0     N53511   8.080   2.095  10.125 -1.1333  0.7703 -0.2122
  397MOL0     N53512   8.089   1.965  10.149 -0.8304 -0.3099 -0.4388
  397MOL0     C53513   9.155   1.330   9.975  0.2061  0.1458 -0.6914
  397MOL0     C53514   9.250   1.311   9.883  0.7401  0.0696 -0.2456
  397MOL0     C53515   9.543   1.223   9.581  0.3306  0.0372  1.2847
  397MOL0     C53516   9.567   1.088   9.556  0.2542  0.0359 -0.3209
  397MOL0     C53517   9.675   1.038   9.483 -0.3627  0.4790  0.5893
  397MOL0     C53518   9.776   1.129   9.445 -0.3379 -0.5376  0.8538
  397MOL0     O53519   9.884   1.078   9.377 -0.5875  0.6918 -0.2531
  397MOL0     C53520   9.916   1.147   9.253 -0.3996  0.3006 -0.3204
  397MOL0     C53521   9.987   1.038   9.161  0.2178 -0.6757  0.1391
  397MOL0     C53522  10.133   0.997   9.203 -0.1455 -0.2334  0.0017
  397MOL0     C53523  10.243   1.101   9.160 -0.2211 -0.9722  0.7257
  397MOL0     C53524  10.284   1.078   9.017  0.5199  0.8884 -0.4339
  397MOL0     C53525  10.313   1.037   8.907  0.2437 -0.0178  0.3034
  397MOL0     C53526   9.769   1.274   9.478 -0.1746  0.7181 -0.3840
  397MOL0     C53527   9.649   1.312   9.547 -0.0675  0.0523  0.4369
  397MOL0     H53528   9.087   1.125   9.652 -0.6829  1.4619 -0.4850
  397MOL0     H53529   8.902   1.169   9.819 -0.1205  1.2589  2.5314
  397MOL0     H53530   9.019   1.319  10.237  0.7761  0.1585  0.1276
  397MOL0     H53531   9.028   1.470  10.147 -1.5438  0.4771 -0.4948
  397MOL0     H53532   8.791   1.339  10.287  1.2807 -1.9641 -0.8661
  397MOL0     H53533   8.873   1.493  10.335 -0.6043  2.9179 -0.7128
  397MOL0     H53534   8.779   1.623  10.159 -1.4105  0.7212 -2.5273
  397MOL0     H53535   8.749   1.472  10.065  0.7920 -0.6547  0.4822
  397MOL0     H53536   8.546   1.421  10.185 -1.0691 -0.5451  3.5021
  397MOL0     H53537   8.572   1.540  10.308  1.8420 -0.9120  2.1964
  397MOL0     H53538   8.584   1.721  10.139  2.1327 -1.8781 -0.4418
  397MOL0     H53539   8.554   1.621  10.007  2.6464  1.3196  0.1148
  397MOL0     H53540   8.337   1.544  10.124  3.6684 -0.4625 -0.5946
  397MOL0     H53541   8.340   1.699  10.211 -0.9079  1.5230 -0.3936
  397MOL0     H53542   8.360   1.838  10.007 -0.2583  0.7467 -1.9887
  397MOL0     H53543   8.337   1.692   9.914  1.8730  0.7041 -0.5773
  397MOL0     H53544   8.123   1.697  10.119 -2.2091  0.2127 -0.7873
  397MOL0     H53545   8.106   1.712   9.947 -2.6605 -0.3718  2.0140
  397MOL0     H53546   8.175   1.984   9.834 -1.6995  1.9357 -1.3971
  397MOL0     H53547   8.206   2.294   9.972  1.5408 -1.5275  0.4048
  397MOL0     H53548   8.163   2.224   9.815  0.1325 -0.5295  0.2369
  397MOL0     H53549   8.038   2.419   9.940 -3.5324  1.4142 -1.1766
  397MOL0     H53550   7.934   2.290   9.993 -0.9159  1.1281 -0.7353
  397MOL0     H53551   8.008   2.328   9.707 -1.2175  3.2640 -0.1032
  397MOL0     H53552   7.873   2.408   9.774  1.2021  0.9497 -1.9301
  397MOL0     H53553   7.912   2.111   9.756 -0.9482 -1.1595  2.0483
  397MOL0     H53554   7.777   2.200   9.674  0.0409 -2.9650 -0.6813
  397MOL0     H53555   7.565   2.084  10.036 -4.0512  1.6794 -1.3608
  397MOL0     H53556   7.275   1.916   9.965  0.6828 -4.4245 -0.5806
  397MOL0     H53557   7.372   1.830  10.103 -0.3820 -1.0973 -0.4832
  397MOL0     H53558   7.378   1.992  10.104  2.1314 -1.9226  2.3309
  397MOL0     H53559   7.334   1.542   9.490 -0.8271  0.0546  1.1730
  397MOL0     H53560   7.257   1.315   9.430 -5.6492  0.7590  1.0562
  397MOL0     H53561   7.268   0.981   9.760 -1.5729 -3.3933  0.4963
  397MOL0     H53562   7.120   1.080   9.756 -0.9340  1.2307 -2.7057
  397MOL0     H53563   7.149   0.884   9.536 -0.7156  0.6860 -1.2261
  397MOL0     H53564   7.082   0.810   9.686 -2.0556 -1.1568 -2.2071
  397MOL0     H53565   6.972   1.062   9.547  1.3901 -0.2414 -0.7770
  397MOL0     H53566   6.898   0.974   9.682 -0.2693  0.7931  0.3543
  397MOL0     H53567   6.846   0.948   9.407 -1.7719 -1.4374 -0.0325
  397MOL0     H53568   6.976   0.830   9.417 -0.6590 -1.5113  0.6788
  397MOL0     H53569   6.848   0.735   9.608  4.3870  1.5987 -2.0763
  397MOL0     H53570   6.781   0.708   9.435 -0.8118 -2.5810  0.9099
  397MOL0     H53571   6.685   0.903   9.650  0.9048 -2.9306  1.7536
  397MOL0     H53572   6.641   0.920   9.480 -1.4106 -1.7343 -1.5138
  397MOL0     H53573   6.509   0.709   9.495  2.0993 -1.6278 -0.5877
  397MOL0     H53574   6.486   0.817   9.648 -1.3190  0.1773 -1.2893
  397MOL0     H53575   6.646   0.565   9.595  1.4663  1.3084 -0.3343
  397MOL0     H53576   6.489   0.576   9.676 -0.1247 -0.0842  1.7721
  397MOL0     H53577   7.344   1.177   9.829 -2.8563 -1.3359 -1.3725
  397MOL0     H53578   7.461   1.395   9.868 -0.3405 -0.9758  0.2896
  397MOL0     H53579   7.653   1.771   9.674  2.6469  1.8339  0.0305
  397MOL0     H53580   7.774   1.961   9.688 -0.0832 -1.4645 -0.0218
  397MOL0     H53581   9.185   1.371  10.071  0.8277 -1.3033 -0.2352
  397MOL0     H53582   9.352   1.344   9.901  0.9689  0.0521 -1.4157
  397MOL0     H53583   9.499   1.010   9.591  2.0486 -1.4637 -0.0237
  397MOL0     H53584   9.691   0.931   9.482  2.1277  0.5905  4.8144
  397MOL0     H53585   9.827   1.197   9.214 -0.0690  0.4124 -0.9378
  397MOL0     H53586   9.988   1.227   9.275 -0.0796  0.3625 -1.5639
  397MOL0     H53587  10.008   1.089   9.066  3.1572 -3.0405 -0.6309
  397MOL0     H53588   9.918   0.955   9.144 -0.9454  0.1041  0.8598
  397MOL0     H53589  10.139   0.898   9.157  2.1610 -0.7948  1.3727
  397MOL0     H53590  10.143   0.986   9.311 -1.9474 -0.2996  0.2025
  397MOL0     H53591  10.336   1.091   9.217  0.4441 -0.2584 -0.1934
  397MOL0     H53592  10.198   1.201   9.169  2.9853  1.1077 -3.0465
  397MOL0     H53593  10.322   0.998   8.807 -3.7359 -4.2041  1.2066
  397MOL0     H53594   9.855   1.335   9.453  2.6403 -1.9045  2.1274
  397MOL0     H53595   9.643   1.418   9.568  0.0271  0.6902 -2.2988
  398MOL0     O53596   6.315   9.565  11.393 -0.4199 -0.8377 -0.0314
  398MOL0     C53597   6.284   9.501  11.492  0.3346 -0.6797  0.7095
  398MOL0     O53598   6.238   9.370  11.497 -0.2806 -0.0676 -0.2539
  398MOL0     C53599   6.214   9.293  11.392 -0.7070  0.3543 -1.0900
  398MOL0     C53600   6.130   9.184  11.413 -0.2518  1.0381  1.1463
  398MOL0     C53601   6.102   9.106  11.299  0.6345 -0.5790 -0.6573
  398MOL0     C53602   6.165   9.119  11.181  0.8420  0.5645  0.5913
  398MOL0     O53603   6.141   9.021  11.095  0.3600 -0.0395 -0.1593
  398MOL0     C53604   6.210   9.024  10.979  0.0983  0.1961  0.8917
  398MOL0     C53605   6.182   8.885  10.918 -0.5246 -0.6119 -0.2243
  398MOL0     C53606   6.222   8.766  10.992 -0.2880  0.3825  0.5520
  398MOL0     C53607   6.192   8.640  10.924  0.0370  0.6833  0.2222
  398MOL0     C53608   6.111   8.538  11.004 -0.4135  0.2006  0.0887
  398MOL0     C53609   6.089   8.414  10.918 -0.6340  0.2815  0.5383
  398MOL0     C53610   6.008   8.314  10.987  0.0465 -0.5452 -0.9964
  398MOL0     C53611   5.957   8.197  10.914  0.5674 -0.1925 -0.6405
  398MOL0     N53612   5.879   8.110  11.008 -0.2904  0.0413 -0.3628
  398MOL0     C53613   5.754   8.153  11.058  0.4735 -0.2269 -0.1653
  398MOL0     C53614   5.710   8.035  11.117 -0.4159  0.2568  0.0887
  398MOL0     C53615   5.587   8.031  11.204 -1.5049  0.1681  0.6887
  398MOL0     C53616   5.466   8.046  11.121 -0.5096 -0.1563 -0.2326
  398MOL0     C53617   5.451   7.952  10.998 -0.6360  0.4896 -0.3843
  398MOL0     C53618   5.307   7.966  10.934  0.5039  0.1322  0.0158
  398MOL0     O53619   5.301   7.884  10.826 -1.5809  0.9237  0.3206
  398MOL0     C53620   5.187   7.844  10.759 -0.3762  0.0258  0.5373
  398MOL0     C53621   5.189   7.745  10.653  0.1600  0.2272  0.1284
  398MOL0     C53622   5.074   7.712  10.581  0.6455 -0.1566 -0.4234
  398MOL0     C53623   5.084   7.590  10.490  1.3651  0.4137  0.7928
  398MOL0     C53624   4.948   7.772  10.617 -0.1440 -0.0128  0.1323
  398MOL0     C53625   4.815   7.722  10.566  0.0590  0.0070  0.2072
  398MOL0     O53626   4.813   7.635  10.461  0.6558 -0.2384 -0.3789
  398MOL0     C53627   4.702   7.559  10.423 -0.2073  0.0473  0.4898
  398MOL0     C53628   4.580   7.553  10.488 -0.4793 -0.6508  0.0001
  398MOL0     C53629   4.477   7.467  10.440 -0.5356  0.0001  0.3694
  398MOL0     C53630   4.495   7.392  10.325  0.1517 -0.5663 -0.7187
  398MOL0     O53631   4.393   7.303  10.301 -0.2842 -0.2926  0.8670
  398MOL0     C53632   4.424   7.195  10.206  0.5535 -0.1560  0.1233
  398MOL0     C53633   4.298   7.122  10.173 -0.5399 -0.0814 -0.2524
  398MOL0     C53634   4.212   7.231  10.106  0.2833 -0.1005 -0.0667
  398MOL0     C53635   4.100   7.150  10.055  0.0418 -0.2907  0.6382
  398MOL0     C53636   4.003   7.240   9.971  0.0602 -0.5881  0.4890
  398MOL0     C53637   3.920   7.319  10.070  0.4922  1.1099  0.0233
  398MOL0     C53638   3.836   7.419   9.997 -0.0207  0.3956  0.3298
  398MOL0     C53639   3.735   7.493  10.097  0.8935  0.8199  0.5251
  398MOL0    Cl53640   3.658   7.634  10.025 -0.0503  0.3914 -0.0034
  398MOL0     C53641   4.619   7.398  10.259 -0.2072  0.3385 -0.1487
  398MOL0     C53642   4.722   7.476  10.312  0.4564  0.7697  0.1920
  398MOL0     O53643   4.719   7.778  10.614 -0.3879 -0.4341  0.6572
  398MOL0     C53644   4.947   7.881  10.712  0.2849  0.7088 -1.3508
  398MOL0     C53645   5.060   7.911  10.784  0.0162  0.9034  0.0319
  398MOL0     N53646   5.799   7.933  11.094  0.0900  0.0251 -0.1658
  398MOL0     N53647   5.900   7.979  11.036 -0.6461  0.2822  0.2732
  398MOL0     C53648   6.254   9.225  11.161  0.2668 -0.5794 -0.0269
  398MOL0     C53649   6.281   9.312  11.270  0.6271  0.8226  0.3077
  398MOL0     C53650   6.253   9.568  11.617 -0.2212 -1.3781 -0.2455
  398MOL0     C53651   6.234   9.707  11.621 -0.1304  0.6040  0.5123
  398MOL0     C53652   6.182   9.771  11.732  0.4548 -0.4766 -0.1259
  398MOL0     C53653   6.141   9.701  11.847 -0.3780 -0.4694 -0.3293
  398MOL0     O53654   6.086   9.779  11.951 -0.1523 -0.4300 -0.0422
  398MOL0     C53655   6.044   9.714  12.068 -1.3210  0.7877  0.6364
  398MOL0     C53656   6.013   9.814  12.179  0.4897  0.5718 -0.4032
  398MOL0     C53657   6.002   9.757  12.317 -1.0411  0.0533  1.3749
  398MOL0     C53658   6.134   9.768  12.388  0.0995 -1.4204  1.6263
  398MOL0     C53659   6.128   9.719  12.529 -0.8638  0.6200  0.3026
  398MOL0     C53660   6.123   9.693  12.647  0.4831  0.8564 -0.1756
  398MOL0     C53661   6.149   9.560  11.843  0.0818 -0.4570 -0.4683
  398MOL0     C53662   6.206   9.488  11.730 -0.5950 -0.3940  0.3223
  398MOL0     H53663   6.083   9.152  11.505 -2.1078 -0.0632 -0.0978
  398MOL0     H53664   6.037   9.023  11.325 -0.3390 -0.4504 -2.5436
  398MOL0     H53665   6.156   9.092  10.912 -1.4875  0.4526  2.3381
  398MOL0     H53666   6.318   9.036  10.983 -0.0550  1.5406  1.9213
  398MOL0     H53667   6.075   8.870  10.900 -0.4682  0.8282 -2.1734
  398MOL0     H53668   6.234   8.893  10.822  0.5393  1.2112  0.4619
  398MOL0     H53669   6.330   8.762  11.011  0.3355  0.1269 -2.5580
  398MOL0     H53670   6.175   8.768  11.091 -1.5442  1.1114 -0.0482
  398MOL0     H53671   6.136   8.654  10.831 -0.7604 -4.1727 -0.2956
  398MOL0     H53672   6.283   8.597  10.882 -0.1702  0.4254  0.0257
  398MOL0     H53673   6.172   8.512  11.091  0.6859  1.5533 -0.2484
  398MOL0     H53674   6.032   8.604  11.041  0.9973  2.2587 -0.4248
  398MOL0     H53675   6.031   8.426  10.826 -2.1673 -1.8016  1.1404
  398MOL0     H53676   6.187   8.371  10.894 -0.4373 -0.1867  2.1143
  398MOL0     H53677   6.059   8.276  11.077 -2.3408 -1.7318 -0.0324
  398MOL0     H53678   5.916   8.363  11.020  0.3769  0.1984 -1.1664
  398MOL0     H53679   6.040   8.144  10.866  2.4448  0.2686  1.9286
  398MOL0     H53680   5.885   8.227  10.837 -1.7717  0.7160  1.7299
  398MOL0     H53681   5.700   8.246  11.066 -0.2215 -0.7684  3.7702
  398MOL0     H53682   5.583   7.934  11.254  0.4675  0.2135  1.0017
  398MOL0     H53683   5.600   8.098  11.289 -0.7407 -0.2644  0.9164
  398MOL0     H53684   5.452   8.148  11.084  2.3519 -0.5168 -2.6820
  398MOL0     H53685   5.378   8.035  11.185 -1.0610  1.1441 -0.7490
  398MOL0     H53686   5.481   7.850  11.022 -1.1465 -0.1537 -2.2900
  398MOL0     H53687   5.523   7.971  10.919 -0.4215 -1.7893 -0.7980
  398MOL0     H53688   5.300   8.066  10.891 -0.3070  0.0666 -0.0255
  398MOL0     H53689   5.224   7.950  11.004 -0.8818 -0.4551 -1.7074
  398MOL0     H53690   5.287   7.708  10.624  1.2198  2.9753 -0.1276
  398MOL0     H53691   5.052   7.617  10.389  1.1627 -2.2960  0.0555
  398MOL0     H53692   5.190   7.564  10.488  0.5701 -4.0511  3.1862
  398MOL0     H53693   5.022   7.506  10.523 -0.6497  2.2868  2.0341
  398MOL0     H53694   4.560   7.607  10.580  3.8834 -5.1988  4.2982
  398MOL0     H53695   4.387   7.472  10.501 -0.8322 -2.6394  0.2709
  398MOL0     H53696   4.472   7.227  10.113 -1.7614  1.2636 -0.6683
  398MOL0     H53697   4.496   7.132  10.259 -0.4951 -0.6747  0.9603
  398MOL0     H53698   4.327   7.042  10.104  0.1724 -0.3537  0.3512
  398MOL0     H53699   4.255   7.084  10.266  1.9805 -2.6051  0.0081
  398MOL0     H53700   4.272   7.277  10.028  1.2294 -1.1568  0.0137
  398MOL0     H53701   4.175   7.307  10.176  0.9676  0.0653  0.1160
  398MOL0     H53702   4.143   7.078   9.985  2.8913  2.5342 -0.7621
  398MOL0     H53703   4.057   7.097  10.140 -2.2357  0.8820  0.3030
  398MOL0     H53704   3.933   7.169   9.926  1.9241 -0.6997 -2.5024
  398MOL0     H53705   4.067   7.301   9.906 -2.3049 -0.0022 -1.4445
  398MOL0     H53706   3.853   7.243  10.110 -0.7373  2.0867 -0.1067
  398MOL0     H53707   3.979   7.367  10.149  3.7389 -1.7045 -0.4500
  398MOL0     H53708   3.787   7.370   9.912 -2.5396  0.2776  1.7311
  398MOL0     H53709   3.900   7.499   9.959  0.2950  0.2381  0.5289
  398MOL0     H53710   3.794   7.531  10.181  0.1695  2.2050  0.4416
  398MOL0     H53711   3.650   7.431  10.128  0.0368  0.2269 -2.6180
  398MOL0     H53712   4.638   7.330  10.176 -2.1555 -0.7111  0.2011
  398MOL0     H53713   4.827   7.475  10.286  0.1939  0.9194 -0.9261
  398MOL0     H53714   4.858   7.938  10.737 -0.3781 -0.5584 -0.7557
  398MOL0     H53715   5.042   7.990  10.856 -1.5790  0.3968  0.2106
  398MOL0     H53716   6.300   9.244  11.065  0.9632  0.5059  0.5099
  398MOL0     H53717   6.353   9.391  11.249 -0.3073  1.1853 -1.7709
  398MOL0     H53718   6.251   9.768  11.533 -0.9890  0.9917  0.5972
  398MOL0     H53719   6.167   9.879  11.729 -0.6946 -0.5025  2.5316
  398MOL0     H53720   5.956   9.652  12.044  1.0707 -3.1484  1.1968
  398MOL0     H53721   6.122   9.642  12.096  1.3783  0.5550 -5.7741
  398MOL0     H53722   5.914   9.856  12.158  1.1067  4.0877  2.6220
  398MOL0     H53723   6.086   9.895  12.176  1.1609 -0.0439 -1.6076
  398MOL0     H53724   5.970   9.653  12.319 -0.2459 -0.1805  3.3100
  398MOL0     H53725   5.934   9.819  12.376 -0.9520 -1.7953  3.5475
  398MOL0     H53726   6.164   9.873  12.392 -1.2022 -0.8549 -1.2917
  398MOL0     H53727   6.219   9.723  12.336  0.7923 -0.1410  1.6256
  398MOL0     H53728   6.099   9.684  12.752 -2.6888 -1.8858 -0.9475
  398MOL0     H53729   6.108   9.498  11.923  2.0204 -2.6151 -1.0654
  398MOL0     H53730   6.227   9.382  11.723  1.6129  0.0948 -3.5389
  399MOL0     O53731   3.518   1.425  10.204 -0.5680 -0.3415  0.4279
  399MOL0     C53732   3.401   1.387  10.205 -0.5702  0.4378 -0.2340
  399MOL0     O53733   3.353   1.267  10.167 -0.5706 -0.7234 -0.0214
  399MOL0     C53734   3.420   1.195  10.070  0.0448  0.6560 -0.3535
  399MOL0     C53735   3.509   1.245   9.967 -0.5500 -0.1870 -0.0609
  399MOL0     C53736   3.569   1.169   9.864 -0.0478  0.8503 -0.1105
  399MOL0     C53737   3.550   1.031   9.864 -0.4805 -0.0800 -0.3752
  399MOL0     O53738   3.623   0.949   9.776 -0.1633  0.1820 -0.8583
  399MOL0     C53739   3.741   0.889   9.830  0.2901  0.1567  0.1235
  399MOL0     C53740   3.823   0.817   9.722  0.1727 -0.0402  1.0531
  399MOL0     C53741   3.735   0.743   9.614 -0.6204 -0.3399 -0.2661
  399MOL0     C53742   3.833   0.676   9.517 -0.0945 -0.2037 -0.6150
  399MOL0     C53743   3.751   0.604   9.413  0.8110  0.2588  0.1344
  399MOL0     C53744   3.838   0.518   9.330 -0.2922  0.6428  0.0921
  399MOL0     C53745   3.755   0.456   9.216  0.0609  0.8287  1.0571
  399MOL0     C53746   3.830   0.356   9.119  0.0759 -0.5975 -0.3048
  399MOL0     N53747   3.757   0.307   9.000  0.6683  0.1238  0.3902
  399MOL0     C53748   3.770   0.190   8.926 -0.3822  0.5167 -1.1493
  399MOL0     C53749   3.702   0.202   8.811  0.5191 -0.0270  0.5701
  399MOL0     C53750   3.700   0.096   8.700  0.1673  0.6643  0.9871
  399MOL0     C53751   3.736   0.157   8.569 -0.1827 -0.7884 -0.7191
  399MOL0     C53752   3.752   0.039   8.474 -0.8175 -0.6684  0.1513
  399MOL0     C53753   3.728   0.078   8.332  0.7576  0.2578 -0.0283
  399MOL0     O53754   3.727  -0.047   8.260  0.2367 -0.0481 -0.3529
  399MOL0     C53755   3.717  -0.057   8.123  0.9414  0.1008 -0.2630
  399MOL0     C53756   3.689  -0.178   8.073 -0.0779  0.3873 -0.4063
  399MOL0     C53757   3.677  -0.189   7.938  0.4437  0.1368  0.0692
  399MOL0     C53758   3.623  -0.323   7.899 -0.3947 -0.1218 -0.6603
  399MOL0     C53759   3.718  -0.086   7.844 -0.2446 -0.2437 -0.5372
  399MOL0     C53760   3.720  -0.094   7.692  0.3086 -0.5359  0.0553
  399MOL0     O53761   3.809   0.001   7.631  0.1787  0.2386  0.2669
  399MOL0     C53762   3.834  -0.013   7.496  0.6942  0.2288  0.4589
  399MOL0     C53763   3.957  -0.050   7.456 -0.1874 -0.0232 -0.4783
  399MOL0     C53764   3.990  -0.049   7.320  0.6773  0.5704  0.1817
  399MOL0     C53765   3.896  -0.020   7.224  1.5817 -0.0685 -0.7408
  399MOL0     O53766   3.935  -0.003   7.093 -0.3111  0.3240  0.0326
  399MOL0     C53767   3.838   0.009   6.979  1.0319  0.4730 -0.2365
  399MOL0     C53768   3.912  -0.021   6.846  0.1784 -1.0893  0.2357
  399MOL0     C53769   3.825  -0.017   6.722  0.2571 -0.0364 -1.0698
  399MOL0     C53770   3.924   0.004   6.599 -0.9661  0.8108 -1.0373
  399MOL0     C53771   3.867  -0.069   6.479  0.1780 -0.0902  0.2599
  399MOL0     C53772   3.748   0.011   6.420  0.6730  0.1404 -0.6161
  399MOL0     C53773   3.802   0.126   6.336 -0.4017 -0.3644 -0.4796
  399MOL0     C53774   3.697   0.171   6.243 -0.0782  0.1737  1.1689
  399MOL0    Cl53775   3.650   0.060   6.109  0.0167 -0.0599 -0.0312
  399MOL0     C53776   3.766   0.012   7.261  0.0993  0.6364  0.7795
  399MOL0     C53777   3.740   0.017   7.403  0.3742 -0.3083 -1.2752
  399MOL0     O53778   3.649  -0.169   7.631 -0.0996 -0.2097 -0.0256
  399MOL0     C53779   3.773   0.029   7.908  0.2536  0.5967 -0.1919
  399MOL0     C53780   3.768   0.044   8.042 -0.9428 -0.4459  0.0794
  399MOL0     N53781   3.658   0.331   8.796  0.4269  1.0180  0.1307
  399MOL0     N53782   3.686   0.394   8.911 -0.1355 -0.0827  0.3381
  399MOL0     C53783   3.460   0.977   9.949 -0.1045 -0.2153  0.2205
  399MOL0     C53784   3.392   1.057  10.047 -0.8970  0.1933  0.6720
  399MOL0     C53785   3.304   1.495  10.237  0.2847  0.7696  0.1967
  399MOL0     C53786   3.351   1.598  10.330  0.5885  0.3871  0.2477
  399MOL0     C53787   3.269   1.704  10.364  0.2515  0.3057  0.3532
  399MOL0     C53788   3.143   1.727  10.302  0.3366 -0.3128  0.6941
  399MOL0     O53789   3.067   1.828  10.353 -0.7454  0.2751 -0.6116
  399MOL0     C53790   3.092   1.962  10.302  0.2542 -0.8885  0.2232
  399MOL0     C53791   2.987   1.985  10.188  0.3963 -0.3316  0.1379
  399MOL0     C53792   2.977   2.133  10.153 -0.3013  0.4616  0.3485
  399MOL0     C53793   2.886   2.152  10.033  0.2614 -0.9018 -0.3377
  399MOL0     C53794   2.926   2.078   9.915  0.0952 -0.0237 -1.2397
  399MOL0     C53795   2.952   2.011   9.816  0.0955 -0.0589 -0.2163
  399MOL0     C53796   3.098   1.627  10.214  0.3427 -1.2688  0.0349
  399MOL0     C53797   3.183   1.521  10.169  0.9410 -0.3950 -0.4622
  399MOL0     H53798   3.524   1.353   9.976  0.0969 -0.2587 -0.2031
  399MOL0     H53799   3.650   1.210   9.805  0.1676 -2.0540 -2.0405
  399MOL0     H53800   3.803   0.965   9.879 -2.1469  2.0198  0.5592
  399MOL0     H53801   3.714   0.813   9.903 -0.9790 -0.2232 -0.7076
  399MOL0     H53802   3.891   0.888   9.674 -2.9067  1.6626 -1.1407
  399MOL0     H53803   3.883   0.739   9.769  0.5161 -0.9367 -0.7989
  399MOL0     H53804   3.671   0.673   9.668 -0.3489  1.5951  2.7772
  399MOL0     H53805   3.674   0.815   9.558  2.2222  1.3517 -1.3788
  399MOL0     H53806   3.897   0.745   9.463  2.4470 -1.1414  1.0186
  399MOL0     H53807   3.892   0.600   9.569 -0.9063 -0.1185  0.4582
  399MOL0     H53808   3.674   0.545   9.465 -0.5161  0.6543 -1.2908
  399MOL0     H53809   3.693   0.674   9.352  1.2086 -0.5128 -1.1711
  399MOL0     H53810   3.923   0.582   9.304 -1.1740  2.8752  2.3022
  399MOL0     H53811   3.874   0.431   9.387 -1.5520 -0.4397 -0.7188
  399MOL0     H53812   3.672   0.403   9.263  0.4094 -1.3260 -0.6039
  399MOL0     H53813   3.704   0.539   9.165  2.7285  4.1588  3.3052
  399MOL0     H53814   3.848   0.270   9.183 -2.8221 -2.3030 -1.5483
  399MOL0     H53815   3.926   0.402   9.094  0.1790  0.1532  1.3170
  399MOL0     H53816   3.827   0.099   8.943  0.6476  0.8971 -2.4340
  399MOL0     H53817   3.778   0.022   8.723  0.3938  0.4573 -0.3826
  399MOL0     H53818   3.607   0.038   8.691 -0.0574  1.0652  0.6903
  399MOL0     H53819   3.818   0.229   8.571 -0.9807  0.1074  0.5087
  399MOL0     H53820   3.641   0.203   8.542  0.0116 -0.2881 -0.5569
  399MOL0     H53821   3.676  -0.036   8.494  0.6077 -1.6442  2.3121
  399MOL0     H53822   3.849  -0.011   8.488  0.2374  1.4619  1.0015
  399MOL0     H53823   3.802   0.145   8.288  1.8059 -0.9893 -0.2201
  399MOL0     H53824   3.629   0.123   8.319  0.3824 -0.4775  0.2078
  399MOL0     H53825   3.660  -0.256   8.142  2.0293 -1.7839 -1.8468
  399MOL0     H53826   3.683  -0.348   7.810 -0.9293  1.2273 -1.4272
  399MOL0     H53827   3.639  -0.406   7.968  1.1784 -0.6638 -1.6070
  399MOL0     H53828   3.520  -0.299   7.871 -0.0339 -0.4003 -2.3659
  399MOL0     H53829   4.030  -0.064   7.535 -2.0992  1.7025  1.7628
  399MOL0     H53830   4.092  -0.078   7.297  1.7288  2.7847  1.6418
  399MOL0     H53831   3.766  -0.070   7.001  2.9726 -2.2643 -2.7847
  399MOL0     H53832   3.787   0.105   6.968 -0.2970 -0.2855 -1.0327
  399MOL0     H53833   3.978   0.065   6.834  0.0435 -1.2786 -2.4363
  399MOL0     H53834   3.970  -0.113   6.856  0.3478 -0.7817  2.8137
  399MOL0     H53835   3.757   0.068   6.728  2.8372  2.0428  1.1629
  399MOL0     H53836   3.779  -0.116   6.717  2.7704 -1.4051  0.5416
  399MOL0     H53837   3.946   0.110   6.586  0.7739  0.5367 -0.5544
  399MOL0     H53838   4.013  -0.051   6.630 -1.6672  1.3541  2.3276
  399MOL0     H53839   3.844  -0.174   6.500 -0.9597  0.4847  2.1794
  399MOL0     H53840   3.948  -0.075   6.406 -0.1314  2.2300 -0.3650
  399MOL0     H53841   3.683  -0.058   6.366  1.7610 -0.7946 -0.7438
  399MOL0     H53842   3.697   0.056   6.506  2.4052 -0.3243  0.7257
  399MOL0     H53843   3.893   0.092   6.284  0.2737 -0.3471  0.6557
  399MOL0     H53844   3.837   0.209   6.397 -1.1550  0.0651 -0.6212
  399MOL0     H53845   3.710   0.268   6.194 -1.9969 -0.3035 -0.4508
  399MOL0     H53846   3.609   0.190   6.306  0.3611 -3.3860  3.0814
  399MOL0     H53847   3.680   0.043   7.203 -2.5054 -2.4682  2.6259
  399MOL0     H53848   3.645   0.053   7.442 -0.3958  0.0019 -3.2921
  399MOL0     H53849   3.802   0.116   7.851 -1.5133  2.8196  2.0759
  399MOL0     H53850   3.804   0.140   8.079  0.2518 -1.4939  1.7418
  399MOL0     H53851   3.430   0.873   9.949 -0.4991 -0.1168 -1.4977
  399MOL0     H53852   3.326   1.007  10.117 -1.2147 -1.2831 -0.6294
  399MOL0     H53853   3.452   1.577  10.362  0.9112  0.7001 -0.5518
  399MOL0     H53854   3.303   1.778  10.437  2.1023 -0.6436  0.5104
  399MOL0     H53855   3.072   2.039  10.377  2.0726 -0.7641  0.6286
  399MOL0     H53856   3.199   1.978  10.288  0.1524  1.0787  1.2981
  399MOL0     H53857   2.885   1.947  10.198  0.3927  0.1063  2.2123
  399MOL0     H53858   3.029   1.927  10.106  1.3704  0.1495  0.2819
  399MOL0     H53859   3.078   2.174  10.143  1.2478 -3.1919 -0.4711
  399MOL0     H53860   2.929   2.176  10.241  0.7145  1.2688  0.5247
  399MOL0     H53861   2.880   2.260  10.012 -3.1293 -0.9773 -0.3479
  399MOL0     H53862   2.784   2.118  10.054  0.2414 -0.2153  0.7455
  399MOL0     H53863   3.000   1.948   9.743 -0.1300  0.1793 -0.5751
  399MOL0     H53864   3.000   1.623  10.167 -0.2419  2.8500  0.5070
  399MOL0     H53865   3.150   1.458  10.088  0.2241  0.6004 -0.9597
  400MOL0     O53866   1.229   1.978   0.901  0.1846  0.2801  0.6827
  400MOL0     C53867   1.274   1.897   0.816 -0.8918 -0.6445  0.5339
  400MOL0     O53868   1.344   1.789   0.853  0.2841  0.4040  0.4339
  400MOL0     C53869   1.392   1.772   0.986 -0.0701  0.2790 -0.2993
  400MOL0     C53870   1.300   1.725   1.077  0.2113  0.6662  0.9868
  400MOL0     C53871   1.342   1.700   1.205  0.0731 -0.3801  1.0974
  400MOL0     C53872   1.477   1.737   1.243  1.0728  0.8894  0.5038
  400MOL0     O53873   1.526   1.718   1.373 -0.3155 -0.9409 -0.2332
  400MOL0     C53874   1.463   1.615   1.451 -0.3945  0.3422 -0.1823
  400MOL0     C53875   1.525   1.612   1.592  0.0364  0.0247 -0.2436
  400MOL0     C53876   1.475   1.738   1.664 -0.2294  0.1309  0.4255
  400MOL0     C53877   1.472   1.717   1.813  0.4218 -0.5034  0.9487
  400MOL0     C53878   1.408   1.835   1.877  0.8534 -0.2491  0.0585
  400MOL0     C53879   1.256   1.841   1.855  0.7253 -0.1907 -0.6936
  400MOL0     C53880   1.184   1.923   1.960  0.2905 -0.6386  0.0529
  400MOL0     C53881   1.223   2.067   1.940  0.1851  0.3098  0.0080
  400MOL0     N53882   1.177   2.146   2.055  0.9756 -1.5614  0.9568
  400MOL0     C53883   1.080   2.102   2.140  0.2496  0.0349 -0.2355
  400MOL0     C53884   1.095   2.186   2.246  0.2835 -0.3417 -0.5289
  400MOL0     C53885   1.017   2.174   2.380 -0.8869  0.4633 -0.3487
  400MOL0     C53886   0.968   2.022   2.402 -0.3199 -0.0182  0.0259
  400MOL0     C53887   0.920   2.008   2.547  0.5887 -0.1403  0.3710
  400MOL0     C53888   0.773   1.991   2.566  0.0252  1.0693  0.4455
  400MOL0     O53889   0.704   2.115   2.551  0.2424  0.0388 -0.4463
  400MOL0     C53890   0.647   2.167   2.664  0.3312 -0.0450 -0.0438
  400MOL0     C53891   0.734   2.197   2.769  0.2354  0.6697  0.0150
  400MOL0     C53892   0.702   2.261   2.890  0.3685 -0.1346 -0.2361
  400MOL0     C53893   0.819   2.295   2.977  0.3094  0.5145 -0.8735
  400MOL0     C53894   0.564   2.293   2.912  0.2618 -0.7067  1.0177
  400MOL0     C53895   0.515   2.347   3.040 -0.0807 -0.7190 -0.2811
  400MOL0     O53896   0.381   2.339   3.063  0.5161  0.7203 -0.0629
  400MOL0     C53897   0.344   2.346   3.193  0.2794 -0.2541 -0.3725
  400MOL0     C53898   0.309   2.225   3.259 -0.3034 -0.8858  0.8932
  400MOL0     C53899   0.254   2.229   3.384 -0.7422  0.0903  0.4637
  400MOL0     C53900   0.230   2.349   3.455  0.2718 -0.7457 -0.4889
  400MOL0     O53901   0.187   2.361   3.582 -0.3373  0.1478 -0.3222
  400MOL0     C53902   0.095   2.257   3.630 -0.1705 -0.2264 -0.1249
  400MOL0     C53903   0.085   2.255   3.791 -0.7019  0.1325 -0.2217
  400MOL0     C53904   0.069   2.388   3.854 -0.4517  0.4768 -0.0578
  400MOL0     C53905   0.037   2.350   4.000  0.7600 -0.1779 -0.9337
  400MOL0     C53906   0.052   2.458   4.108  0.0756 -0.5206  0.5361
  400MOL0     C53907  -0.022   2.584   4.072  0.5998 -0.5651 -0.4178
  400MOL0     C53908   0.014   2.714   4.148 -0.4375  0.8937 -0.0436
  400MOL0     C53909  -0.057   2.835   4.084 -0.1301  1.0887  0.0179
  400MOL0    Cl53910  -0.005   2.988   4.141 -0.3703  0.4764  0.0192
  400MOL0     C53911   0.269   2.468   3.394 -0.6693 -1.0215 -0.1145
  400MOL0     C53912   0.331   2.473   3.264 -0.2384 -0.4415 -0.6022
  400MOL0     O53913   0.598   2.386   3.127 -0.0403  0.3298  0.1072
  400MOL0     C53914   0.472   2.260   2.799 -0.7119 -0.2203  0.2363
  400MOL0     C53915   0.516   2.188   2.685  0.3030 -1.2081  1.0766
  400MOL0     N53916   1.190   2.283   2.212 -0.0711 -0.2325 -0.8582
  400MOL0     N53917   1.234   2.265   2.093  0.3965  0.7688 -0.0502
  400MOL0     C53918   1.559   1.806   1.144  0.4612  0.1330  0.3564
  400MOL0     C53919   1.519   1.807   1.013 -0.5886 -0.2617 -0.5297
  400MOL0     C53920   1.251   1.923   0.669 -0.9441 -0.0778 -0.4274
  400MOL0     C53921   1.327   1.851   0.574 -0.7390 -0.0356 -0.2860
  400MOL0     C53922   1.316   1.882   0.436  1.4428  1.0881 -1.0912
  400MOL0     C53923   1.214   1.966   0.392  0.3913 -0.3447  0.5936
  400MOL0     O53924   1.190   1.995   0.255 -0.0738 -0.1381  0.4926
  400MOL0     C53925   1.302   2.031   0.170  0.7553 -0.4358 -0.6968
  400MOL0     C53926   1.243   2.050   0.031 -0.2254  0.3172  0.1233
  400MOL0     C53927   1.206   1.916  -0.045 -0.1605  0.2002 -0.2491
  400MOL0     C53928   1.328   1.826  -0.082 -0.0686  0.3409  1.1946
  400MOL0     C53929   1.293   1.724  -0.180 -0.5268  0.3680  0.4223
  400MOL0     C53930   1.259   1.637  -0.260  0.4290  0.5153 -0.4459
  400MOL0     C53931   1.125   2.029   0.483 -0.3868 -0.1296  0.7182
  400MOL0     C53932   1.150   2.013   0.616 -0.8450  0.1250 -0.1685
  400MOL0     H53933   1.204   1.704   1.034  0.6498 -1.5313  0.9810
  400MOL0     H53934   1.263   1.662   1.269  0.7965 -4.5393 -0.1641
  400MOL0     H53935   1.355   1.622   1.465 -0.2386  0.9762  0.8224
  400MOL0     H53936   1.473   1.519   1.400 -0.4424  1.3002 -2.0744
  400MOL0     H53937   1.494   1.517   1.637 -2.2748  0.9808  0.3117
  400MOL0     H53938   1.633   1.626   1.584 -0.3699  3.0902 -1.4964
  400MOL0     H53939   1.554   1.810   1.641  0.6367 -1.0576 -0.4181
  400MOL0     H53940   1.376   1.766   1.626 -1.2612 -1.6640  1.6122
  400MOL0     H53941   1.412   1.630   1.841 -0.4791 -0.1937  0.0490
  400MOL0     H53942   1.573   1.699   1.852  1.2764  0.2003 -0.8304
  400MOL0     H53943   1.431   1.831   1.984  2.0606  2.7767  0.0172
  400MOL0     H53944   1.464   1.927   1.857  2.6869 -1.6463 -1.7115
  400MOL0     H53945   1.240   1.875   1.752 -0.7552 -4.3836 -2.0601
  400MOL0     H53946   1.213   1.742   1.868 -0.7099  0.2856 -1.5719
  400MOL0     H53947   1.076   1.911   1.950 -0.2088  2.5449  0.3145
  400MOL0     H53948   1.215   1.890   2.059  0.2930 -1.2285 -0.1453
  400MOL0     H53949   1.176   2.105   1.850 -0.0469  0.5159  0.2147
  400MOL0     H53950   1.331   2.082   1.926  0.5547 -0.4043  1.7459
  400MOL0     H53951   1.006   2.022   2.138  0.8902 -0.6171  0.8137
  400MOL0     H53952   1.091   2.209   2.453 -0.3896  0.5965 -0.9088
  400MOL0     H53953   0.928   2.236   2.390 -0.9201  0.1162  2.4995
  400MOL0     H53954   1.047   1.946   2.397  1.9859  2.0228  2.4541
  400MOL0     H53955   0.887   1.986   2.339  0.0621  0.0803 -0.5241
  400MOL0     H53956   0.957   2.089   2.611 -0.3802  1.0116 -0.4808
  400MOL0     H53957   0.957   1.916   2.591 -1.5677 -0.8295  0.8872
  400MOL0     H53958   0.756   1.937   2.659  0.1737 -0.7955 -0.5643
  400MOL0     H53959   0.740   1.929   2.482 -0.7843  2.1696 -0.0683
  400MOL0     H53960   0.839   2.191   2.740  0.2552  2.7660 -0.5483
  400MOL0     H53961   0.824   2.403   2.991 -1.3648  0.4048  1.2147
  400MOL0     H53962   0.820   2.243   3.074 -0.3520 -0.2436 -1.2625
  400MOL0     H53963   0.904   2.261   2.919  1.7119  0.8319  0.8988
  400MOL0     H53964   0.318   2.130   3.207 -3.7444 -0.9446  0.1870
  400MOL0     H53965   0.230   2.137   3.435 -2.8241  1.0504  1.3347
  400MOL0     H53966  -0.000   2.284   3.585  0.0529  0.9976  0.1179
  400MOL0     H53967   0.119   2.154   3.601  0.5558 -0.0858 -0.0625
  400MOL0     H53968  -0.005   2.199   3.814 -2.2867  3.6004  3.1382
  400MOL0     H53969   0.171   2.207   3.838 -2.0225 -1.0675  1.0613
  400MOL0     H53970  -0.023   2.430   3.811  0.2589  0.2691 -1.8616
  400MOL0     H53971   0.146   2.463   3.835  0.5402 -0.7166 -0.9255
  400MOL0     H53972  -0.066   2.314   3.993  0.6131  0.0372 -0.0408
  400MOL0     H53973   0.106   2.269   4.024  3.0393  1.2493 -2.2900
  400MOL0     H53974   0.155   2.493   4.122 -0.6581  1.0966  2.5229
  400MOL0     H53975   0.029   2.410   4.204  1.2567 -4.2027 -0.8520
  400MOL0     H53976  -0.008   2.600   3.964 -1.3980 -0.0790 -0.6403
  400MOL0     H53977  -0.130   2.575   4.081  0.0573  1.0483 -3.5643
  400MOL0     H53978   0.122   2.724   4.158 -0.5216  1.3420  0.4774
  400MOL0     H53979  -0.022   2.707   4.251 -1.4608  1.9261 -0.3129
  400MOL0     H53980  -0.163   2.812   4.068  0.4957 -0.0682 -3.2948
  400MOL0     H53981  -0.020   2.833   3.981  0.4009  1.0027  0.2070
  400MOL0     H53982   0.261   2.559   3.452 -1.9216 -0.6209 -0.8836
  400MOL0     H53983   0.363   2.564   3.214  3.9634 -0.5002  1.6050
  400MOL0     H53984   0.369   2.293   2.800  0.0224  2.4233 -1.1858
  400MOL0     H53985   0.454   2.177   2.597  0.2336  1.6472  0.6875
  400MOL0     H53986   1.664   1.825   1.164 -0.1687  1.5744  2.6462
  400MOL0     H53987   1.582   1.858   0.940 -1.0464  1.0108 -0.0659
  400MOL0     H53988   1.390   1.770   0.610 -0.7298  0.6046  1.2049
  400MOL0     H53989   1.355   1.814   0.362 -3.1391 -0.7136 -2.1480
  400MOL0     H53990   1.350   2.117   0.219 -3.8603  1.9726  0.1917
  400MOL0     H53991   1.376   1.951   0.165  2.4118  0.8585  1.3755
  400MOL0     H53992   1.317   2.107  -0.027  2.3181 -2.6586  0.2287
  400MOL0     H53993   1.156   2.117   0.039  0.6381  1.5864 -0.6446
  400MOL0     H53994   1.148   1.937  -0.135 -1.6258  2.9504  1.2216
  400MOL0     H53995   1.137   1.855   0.013 -1.0537  1.8603  0.4932
  400MOL0     H53996   1.358   1.774   0.009  1.3156 -1.2250 -0.0924
  400MOL0     H53997   1.412   1.890  -0.110 -1.3809  2.4469  1.8044
  400MOL0     H53998   1.236   1.558  -0.328 -1.0135 -0.1822  0.7846
  400MOL0     H53999   1.043   2.093   0.451 -0.4997 -0.8667 -0.5470
  400MOL0     H54000   1.095   2.071   0.689  0.2929  1.4338 -0.3083
  401MOL0     O54001  11.023   3.119   0.106 -0.1718 -0.2143  0.0075
  401MOL0     C54002  11.001   3.010   0.167 -0.4990 -1.0231  0.2593
  401MOL0     O54003  10.888   2.981   0.237 -0.0692 -1.3054 -0.2714
  401MOL0     C54004  10.788   3.068   0.278  0.3280  0.2000  0.7988
  401MOL0     C54005  10.659   3.028   0.289  0.5207 -1.0966 -0.8761
  401MOL0     C54006  10.573   3.110   0.367  0.1978  0.1737 -0.8734
  401MOL0     C54007  10.607   3.225   0.430  0.6514  0.7322 -0.0255
  401MOL0     O54008  10.530   3.297   0.516 -0.2818  0.2081 -0.0616
  401MOL0     C54009  10.436   3.229   0.603 -0.4994  0.8290  0.0074
  401MOL0     C54010  10.363   3.308   0.712  0.1882 -0.1424 -0.3687
  401MOL0     C54011  10.290   3.216   0.802 -0.7127 -0.3098  0.1133
  401MOL0     C54012  10.261   3.254   0.948 -0.4822 -0.2482 -0.9327
  401MOL0     C54013  10.209   3.125   1.023  0.2624  0.7888  0.4632
  401MOL0     C54014  10.157   3.155   1.159 -0.3735  0.5601 -1.0541
  401MOL0     C54015  10.132   3.025   1.232 -0.1330  1.0273  0.1867
  401MOL0     C54016  10.070   3.064   1.362 -0.2774 -0.1381 -0.4325
  401MOL0     N54017   9.938   3.006   1.370  0.7350  0.0069 -0.6692
  401MOL0     C54018   9.818   3.062   1.353  0.3211 -0.4878 -0.8434
  401MOL0     C54019   9.733   2.956   1.356  0.3716  0.4645 -0.2904
  401MOL0     C54020   9.586   2.961   1.354 -0.0392  0.2898 -0.7198
  401MOL0     C54021   9.516   2.999   1.489 -0.7963  1.3669 -0.2925
  401MOL0     C54022   9.587   2.936   1.613 -0.6663  0.3335 -0.2599
  401MOL0     C54023   9.512   2.935   1.742 -0.1399 -0.2104 -0.9519
  401MOL0     O54024   9.593   2.885   1.847 -0.9884  0.3730  0.3683
  401MOL0     C54025   9.544   2.862   1.974  0.8670 -0.0036 -0.1775
  401MOL0     C54026   9.641   2.860   2.081  1.3741  0.9840  1.0894
  401MOL0     C54027   9.604   2.867   2.214  0.0424 -0.7211  0.1591
  401MOL0     C54028   9.725   2.891   2.303 -0.6093  0.7009 -0.7993
  401MOL0     C54029   9.474   2.869   2.252 -0.2192 -0.2248  0.1841
  401MOL0     C54030   9.422   2.870   2.387  0.1239 -0.1891 -0.0513
  401MOL0     O54031   9.303   2.931   2.402  0.0262  0.1346  0.1449
  401MOL0     C54032   9.235   2.916   2.520  0.2405 -0.5834 -0.4304
  401MOL0     C54033   9.155   2.803   2.547  0.0210 -1.0580  0.8722
  401MOL0     C54034   9.083   2.785   2.671 -0.3208 -0.5214 -0.1085
  401MOL0     C54035   9.093   2.885   2.769 -0.6051  0.9857  0.4070
  401MOL0     O54036   9.028   2.881   2.888  0.2864  0.4046  0.0271
  401MOL0     C54037   8.899   2.811   2.878  0.0155 -1.0865 -0.5156
  401MOL0     C54038   8.852   2.852   3.012 -0.1674  0.0792 -0.9867
  401MOL0     C54039   8.723   2.783   3.040  0.4541 -0.1063  0.1369
  401MOL0     C54040   8.678   2.808   3.184 -0.6893 -0.4241  0.0668
  401MOL0     C54041   8.531   2.795   3.213  0.4034  0.3854 -1.3507
  401MOL0     C54042   8.504   2.804   3.362  0.3495 -0.3947 -0.0401
  401MOL0     C54043   8.359   2.859   3.388 -0.8422  0.0035 -0.3427
  401MOL0     C54044   8.322   2.901   3.524  0.8395  0.5733  0.1055
  401MOL0    Cl54045   8.414   3.064   3.552  0.4503  0.2248  0.0500
  401MOL0     C54046   9.174   2.995   2.738  0.0957 -0.1650 -0.9113
  401MOL0     C54047   9.252   3.011   2.620  1.0461 -0.8548 -0.2210
  401MOL0     O54048   9.487   2.802   2.470  0.8171  0.2238 -0.2311
  401MOL0     C54049   9.379   2.848   2.148 -0.8639 -0.2829  0.5390
  401MOL0     C54050   9.412   2.858   2.007  0.4681 -0.4702 -0.4524
  401MOL0     N54051   9.808   2.844   1.383 -0.3640 -0.9256  0.0803
  401MOL0     N54052   9.926   2.877   1.374 -0.2592 -0.0143 -0.2331
  401MOL0     C54053  10.745   3.265   0.411  0.1273 -0.3508  0.1097
  401MOL0     C54054  10.827   3.188   0.326 -0.2124  1.2667 -0.7504
  401MOL0     C54055  11.095   2.905   0.157 -0.6780  1.1600  0.8379
  401MOL0     C54056  11.225   2.923   0.101 -0.3983  1.1892 -0.5414
  401MOL0     C54057  11.313   2.809   0.099 -0.6346  0.5950  0.0906
  401MOL0     C54058  11.262   2.681   0.127  1.0716  0.3070  0.4994
  401MOL0     O54059  11.342   2.571   0.114 -1.1890  0.5806 -0.4840
  401MOL0     C54060  11.390   2.511   0.240 -0.5514  0.3951  0.6731
  401MOL0     C54061  11.471   2.382   0.227  0.5028 -0.4300  0.4755
  401MOL0     C54062  11.607   2.409   0.158 -0.3064 -0.2383 -1.2833
  401MOL0     C54063  11.696   2.295   0.162 -0.5032 -0.2947  0.3146
  401MOL0     C54064  11.771   2.294   0.285 -1.1687 -0.5689  0.4183
  401MOL0     C54065  11.827   2.282   0.394 -0.3787 -0.2881 -0.7422
  401MOL0     C54066  11.129   2.669   0.183 -0.4995 -0.6296  0.3143
  401MOL0     C54067  11.053   2.782   0.203 -0.3171  0.7445 -0.2852
  401MOL0     H54068  10.625   2.928   0.266 -1.9013  0.2441 -3.7648
  401MOL0     H54069  10.471   3.075   0.378  1.0735 -1.6656  3.6237
  401MOL0     H54070  10.358   3.197   0.533 -1.7554  3.0399  0.3259
  401MOL0     H54071  10.476   3.133   0.639  1.0270 -0.1813 -3.8749
  401MOL0     H54072  10.450   3.350   0.764  0.6558 -0.6406 -0.7380
  401MOL0     H54073  10.295   3.375   0.658  0.3743  0.6953  0.4141
  401MOL0     H54074  10.191   3.193   0.761 -2.0291  1.0946  2.3363
  401MOL0     H54075  10.353   3.127   0.804 -1.4918 -1.0620 -3.0125
  401MOL0     H54076  10.351   3.286   1.001  0.4695 -2.3735 -1.1670
  401MOL0     H54077  10.191   3.337   0.956 -0.5153 -0.4746  2.5679
  401MOL0     H54078  10.139   3.070   0.960  0.2067 -0.6471  1.7177
  401MOL0     H54079  10.302   3.068   1.034 -0.1982 -0.4475 -1.5189
  401MOL0     H54080  10.233   3.210   1.216 -1.7882  0.4970  1.0112
  401MOL0     H54081  10.074   3.225   1.150 -0.0301  0.9222 -1.4244
  401MOL0     H54082  10.062   2.971   1.168  1.5086 -1.8785  0.6950
  401MOL0     H54083  10.227   2.971   1.240 -0.8486 -0.4434 -0.8117
  401MOL0     H54084  10.066   3.173   1.374 -2.3618 -0.2014 -0.1037
  401MOL0     H54085  10.148   3.027   1.429 -2.1907 -2.3628  0.7213
  401MOL0     H54086   9.789   3.165   1.333 -1.2712 -0.3258  1.8381
  401MOL0     H54087   9.555   3.034   1.279 -0.5363 -0.3951 -1.1954
  401MOL0     H54088   9.551   2.863   1.320  2.2165 -1.0690  0.5922
  401MOL0     H54089   9.413   2.963   1.487 -0.3568  0.0150  0.4903
  401MOL0     H54090   9.514   3.107   1.506 -0.4068  1.6753 -1.9741
  401MOL0     H54091   9.675   2.994   1.643 -2.2807  1.4718  2.6738
  401MOL0     H54092   9.617   2.833   1.593 -1.0714 -0.4700  2.8324
  401MOL0     H54093   9.431   2.861   1.739 -2.9428  2.6538 -1.2012
  401MOL0     H54094   9.470   3.030   1.775 -1.2113 -1.1621  0.5868
  401MOL0     H54095   9.745   2.852   2.050  1.1161 -0.8957  0.5930
  401MOL0     H54096   9.821   2.888   2.252  1.5677 -1.9300  2.9613
  401MOL0     H54097   9.705   2.989   2.347 -2.0184  0.7234 -1.4079
  401MOL0     H54098   9.737   2.806   2.370 -0.6894 -0.2785 -1.9936
  401MOL0     H54099   9.151   2.725   2.472 -0.5708  0.1582 -0.3910
  401MOL0     H54100   9.017   2.698   2.674 -1.5620  0.3965 -0.2511
  401MOL0     H54101   8.847   2.857   2.793  0.7625  4.8369  1.7062
  401MOL0     H54102   8.924   2.705   2.877  2.8029 -0.5030 -2.1394
  401MOL0     H54103   8.930   2.823   3.083  3.6361  2.0791 -3.9560
  401MOL0     H54104   8.837   2.960   3.025 -0.8077 -0.1381  0.2725
  401MOL0     H54105   8.724   2.675   3.022 -0.6349  0.3341 -3.3271
  401MOL0     H54106   8.648   2.840   2.983 -1.9898 -0.8312  2.4135
  401MOL0     H54107   8.739   2.741   3.246  1.8026  0.4693 -1.2787
  401MOL0     H54108   8.714   2.906   3.216  0.0491 -1.7025  3.7082
  401MOL0     H54109   8.489   2.707   3.164 -1.1696  0.1006  0.4001
  401MOL0     H54110   8.485   2.889   3.181  0.2047  1.7799  2.4821
  401MOL0     H54111   8.514   2.705   3.409 -1.2864  0.6346  2.7096
  401MOL0     H54112   8.570   2.878   3.407  0.9339 -3.0033  3.8444
  401MOL0     H54113   8.286   2.781   3.365 -0.1789 -0.6651 -0.2489
  401MOL0     H54114   8.345   2.936   3.312  0.7848 -0.6736 -1.3941
  401MOL0     H54115   8.352   2.826   3.598  0.1705 -1.3495 -1.4901
  401MOL0     H54116   8.214   2.914   3.531  0.5146 -0.6703 -1.9108
  401MOL0     H54117   9.170   3.072   2.814 -4.1053 -2.6314  1.7237
  401MOL0     H54118   9.313   3.099   2.603 -3.7300  2.3108 -3.6808
  401MOL0     H54119   9.274   2.841   2.174 -1.7980  3.3185 -1.5661
  401MOL0     H54120   9.333   2.858   1.932 -1.4086  1.5617  1.3684
  401MOL0     H54121  10.774   3.349   0.474 -0.2015 -0.9416  1.0700
  401MOL0     H54122  10.930   3.220   0.326 -0.2020  1.3103  0.6815
  401MOL0     H54123  11.248   3.025   0.075 -1.6572  1.0920 -2.1854
  401MOL0     H54124  11.415   2.809   0.060 -1.0071 -1.3220 -1.0167
  401MOL0     H54125  11.458   2.580   0.291  0.2948  1.0180 -1.2050
  401MOL0     H54126  11.300   2.478   0.293 -1.4554 -0.8879 -1.4995
  401MOL0     H54127  11.410   2.314   0.167  0.4765  2.1803 -2.7320
  401MOL0     H54128  11.489   2.343   0.327 -3.6342 -1.2952  1.0855
  401MOL0     H54129  11.658   2.488   0.214 -1.7583  0.3037 -0.6892
  401MOL0     H54130  11.598   2.438   0.052  2.1642  0.1559 -1.4558
  401MOL0     H54131  11.771   2.318   0.085  1.9924 -2.4813  1.8861
  401MOL0     H54132  11.655   2.198   0.133  0.1341  0.1952 -2.5336
  401MOL0     H54133  11.873   2.266   0.489 -0.5814  1.1778 -0.3816
  401MOL0     H54134  11.084   2.573   0.209 -3.4097  0.4548 -0.3460
  401MOL0     H54135  10.953   2.763   0.239 -0.2848  0.1470 -0.4866
  402MOL0     O54136   0.475   5.427   8.880 -0.0960  0.4112 -0.1711
  402MOL0     C54137   0.567   5.409   8.956 -0.3636 -0.0048 -0.1124
  402MOL0     O54138   0.697   5.439   8.929 -0.1751  0.2188  0.2663
  402MOL0     C54139   0.721   5.493   8.802 -0.7946  0.2337 -0.8352
  402MOL0     C54140   0.836   5.450   8.730 -0.9474  0.0022  0.0384
  402MOL0     C54141   0.868   5.479   8.598  0.4501  0.1156  0.7862
  402MOL0     C54142   0.791   5.577   8.545  0.6104 -0.7689  0.2016
  402MOL0     O54143   0.822   5.629   8.420 -0.2021 -0.4859 -0.2211
  402MOL0     C54144   0.943   5.590   8.363 -0.7218 -0.5869  0.3623
  402MOL0     C54145   0.971   5.701   8.267  0.8139  0.1054  0.4016
  402MOL0     C54146   1.119   5.703   8.212  0.7609 -0.1830 -0.1365
  402MOL0     C54147   1.145   5.819   8.119 -0.3750  0.4077  0.3561
  402MOL0     C54148   1.270   5.805   8.036  0.6555  0.7272 -0.8884
  402MOL0     C54149   1.266   5.904   7.921 -0.4353  0.1495  0.4071
  402MOL0     C54150   1.272   6.049   7.954 -1.0320 -0.0123  0.0084
  402MOL0     C54151   1.404   6.111   8.005 -0.0787  0.4771  0.5687
  402MOL0     N54152   1.414   6.252   7.968  0.1865 -0.3370  0.1152
  402MOL0     C54153   1.525   6.314   7.922  0.3499 -0.1326  0.0826
  402MOL0     C54154   1.503   6.442   7.933 -0.3463  0.0522 -0.3916
  402MOL0     C54155   1.611   6.539   7.897  1.0361 -0.1769 -0.1101
  402MOL0     C54156   1.555   6.651   7.815  0.0549 -0.5219  0.2213
  402MOL0     C54157   1.496   6.603   7.681  0.5286  0.5238  0.3403
  402MOL0     C54158   1.598   6.532   7.589 -0.9664  0.4142  0.1258
  402MOL0     O54159   1.688   6.630   7.522 -0.4378  0.2658  0.2222
  402MOL0     C54160   1.645   6.675   7.398  0.7289 -0.8466 -0.6923
  402MOL0     C54161   1.744   6.745   7.325  0.1523 -0.5379  0.9537
  402MOL0     C54162   1.708   6.809   7.204  1.3032 -0.5935  0.3396
  402MOL0     C54163   1.808   6.903   7.140 -0.7582 -0.8210  0.3503
  402MOL0     C54164   1.578   6.791   7.147 -0.2847  0.0184 -0.3074
  402MOL0     C54165   1.528   6.849   7.016 -0.3108 -0.6469  0.3205
  402MOL0     O54166   1.395   6.831   6.994  0.1462 -0.0703 -0.4611
  402MOL0     C54167   1.345   6.868   6.866 -0.4548 -0.7253 -0.4357
  402MOL0     C54168   1.358   7.006   6.814 -0.4128  0.8781  0.3736
  402MOL0     C54169   1.298   7.038   6.694 -0.4811  0.1362  0.1281
  402MOL0     C54170   1.231   6.943   6.620 -0.0833 -0.6921 -0.0722
  402MOL0     O54171   1.179   6.968   6.494  0.2120 -0.2442 -0.7544
  402MOL0     C54172   1.037   6.951   6.481 -0.2966  0.6712  0.1301
  402MOL0     C54173   0.945   7.042   6.402  0.3104  0.1075 -0.3911
  402MOL0     C54174   0.989   7.071   6.253  0.3753 -0.6350 -0.1754
  402MOL0     C54175   0.956   7.216   6.206 -0.5636  0.7026  0.7316
  402MOL0     C54176   0.808   7.247   6.170 -0.1320  0.6309 -0.0570
  402MOL0     C54177   0.790   7.379   6.110 -0.1599 -0.5809  0.5272
  402MOL0     C54178   0.861   7.410   5.972 -0.7600  0.6532  0.9538
  402MOL0     C54179   0.836   7.554   5.918  0.3081 -0.3018 -0.4616
  402MOL0    Cl54180   0.941   7.582   5.770  0.0279 -0.4820  0.6326
  402MOL0     C54181   1.226   6.814   6.666  1.0656  0.4010  0.1996
  402MOL0     C54182   1.273   6.779   6.791 -0.0153 -0.5971  0.4334
  402MOL0     O54183   1.604   6.891   6.931  0.2821 -0.1454 -0.0559
  402MOL0     C54184   1.480   6.721   7.223  0.2392  0.0630 -0.1970
  402MOL0     C54185   1.515   6.668   7.344  0.3555 -0.0400 -1.0172
  402MOL0     N54186   1.382   6.463   7.986  0.6809  0.2418 -1.0524
  402MOL0     N54187   1.335   6.351   8.026 -0.8025  0.9715  0.1982
  402MOL0     C54188   0.687   5.639   8.609  0.5579 -0.1134 -0.4394
  402MOL0     C54189   0.646   5.605   8.743 -0.3738  0.5483  0.6431
  402MOL0     C54190   0.535   5.376   9.097 -0.1769 -0.1500  0.0780
  402MOL0     C54191   0.629   5.353   9.196 -0.0449  0.0244  0.6905
  402MOL0     C54192   0.589   5.337   9.325 -0.6615  0.1713  0.5510
  402MOL0     C54193   0.459   5.332   9.369 -0.0283 -0.3166 -0.6742
  402MOL0     O54194   0.441   5.323   9.512 -0.1827 -0.0884  0.2318
  402MOL0     C54195   0.314   5.289   9.563 -0.1429 -0.5975  0.0778
  402MOL0     C54196   0.304   5.139   9.600  0.0987  0.7296  0.2434
  402MOL0     C54197   0.426   5.076   9.667 -0.8992 -0.4065  0.3865
  402MOL0     C54198   0.389   4.928   9.704  0.0256  0.7642 -0.3408
  402MOL0     C54199   0.502   4.846   9.757  0.6365 -0.5418  0.3957
  402MOL0     C54200   0.574   4.764   9.812  0.2509 -0.0408  0.2720
  402MOL0     C54201   0.363   5.353   9.265  0.0774 -0.5249  0.2938
  402MOL0     C54202   0.399   5.376   9.132  0.3231  0.5040 -0.2251
  402MOL0     H54203   0.906   5.385   8.783 -0.3360  0.5039 -0.1385
  402MOL0     H54204   0.953   5.431   8.550 -0.5162  1.7543 -2.9013
  402MOL0     H54205   1.024   5.588   8.435  0.1568  0.8611 -0.5375
  402MOL0     H54206   0.935   5.492   8.315  0.8518  1.0588 -3.7365
  402MOL0     H54207   0.891   5.689   8.193 -1.3483 -1.2862  2.7928
  402MOL0     H54208   0.955   5.798   8.315  2.2522  0.1922  0.7294
  402MOL0     H54209   1.187   5.722   8.296  2.6252 -0.0737 -1.5916
  402MOL0     H54210   1.151   5.611   8.162 -1.7200 -0.5815 -1.1327
  402MOL0     H54211   1.059   5.823   8.052 -1.4045 -0.1569  1.6047
  402MOL0     H54212   1.127   5.911   8.175 -2.7491 -2.1271  4.2003
  402MOL0     H54213   1.367   5.820   8.084  0.5636  0.8276 -0.7327
  402MOL0     H54214   1.272   5.704   7.994  0.0323 -0.0371  0.8528
  402MOL0     H54215   1.335   5.861   7.847 -4.0912 -4.0184 -1.0062
  402MOL0     H54216   1.172   5.886   7.868 -0.7405 -3.0783  1.8029
  402MOL0     H54217   1.264   6.106   7.861  0.0348  0.5869  0.2734
  402MOL0     H54218   1.190   6.081   8.020 -1.5738 -3.0502  0.9826
  402MOL0     H54219   1.488   6.057   7.961 -0.9456  1.0562 -1.9536
  402MOL0     H54220   1.415   6.105   8.114  0.3819  1.6652  0.6061
  402MOL0     H54221   1.606   6.268   7.866 -1.6880  1.0527 -4.3048
  402MOL0     H54222   1.647   6.582   7.991  1.4912 -0.8183  0.0161
  402MOL0     H54223   1.699   6.502   7.843  1.6573 -0.0635  0.8016
  402MOL0     H54224   1.635   6.726   7.806  3.2082 -3.7805 -1.4993
  402MOL0     H54225   1.476   6.705   7.869 -0.5916  1.9468 -2.9415
  402MOL0     H54226   1.452   6.689   7.630 -0.3168  0.1074  0.3340
  402MOL0     H54227   1.405   6.544   7.696 -0.4016  1.5537 -1.0356
  402MOL0     H54228   1.554   6.461   7.519  0.2487 -0.6734  0.4311
  402MOL0     H54229   1.645   6.453   7.647 -2.2893  0.5997  1.5009
  402MOL0     H54230   1.849   6.750   7.351  0.5413 -4.5562  0.7313
  402MOL0     H54231   1.898   6.897   7.202 -1.7871  1.0880  2.1574
  402MOL0     H54232   1.835   6.894   7.035  0.2142  2.0329  0.2626
  402MOL0     H54233   1.769   7.005   7.140  3.3846  1.1059 -3.4578
  402MOL0     H54234   1.411   7.081   6.872  1.5929 -0.1844  0.0046
  402MOL0     H54235   1.308   7.138   6.652 -3.1571 -0.1914 -1.4860
  402MOL0     H54236   1.028   6.852   6.437 -1.7897  1.5843 -1.7949
  402MOL0     H54237   0.992   6.947   6.581  2.8022  0.7065  1.6462
  402MOL0     H54238   0.843   7.007   6.418  0.3583  0.5417  0.9984
  402MOL0     H54239   0.951   7.142   6.446 -1.7565  0.4785 -0.8772
  402MOL0     H54240   0.943   6.993   6.192 -0.4906 -1.3677  1.3446
  402MOL0     H54241   1.097   7.055   6.252  0.5930  0.3048  1.8769
  402MOL0     H54242   0.988   7.284   6.284  1.8242  0.0936  0.3435
  402MOL0     H54243   1.016   7.227   6.115  1.8281 -1.7810  1.8577
  402MOL0     H54244   0.751   7.246   6.263 -0.1650 -0.9755 -0.0723
  402MOL0     H54245   0.774   7.175   6.095 -6.0146  0.6739  2.0960
  402MOL0     H54246   0.686   7.412   6.118  0.1414  0.6254 -0.2906
  402MOL0     H54247   0.833   7.456   6.175  2.0753  0.9011 -2.4493
  402MOL0     H54248   0.834   7.340   5.893  1.2561  2.4842 -1.4806
  402MOL0     H54249   0.968   7.391   5.982 -0.4314  1.5578 -0.6141
  402MOL0     H54250   0.855   7.631   5.993 -0.2683  0.7914 -1.3985
  402MOL0     H54251   0.731   7.570   5.889  0.4242  0.2917 -0.5749
  402MOL0     H54252   1.175   6.734   6.613 -1.0354  3.4419 -2.7696
  402MOL0     H54253   1.251   6.676   6.817 -3.6649  0.2175  1.2207
  402MOL0     H54254   1.382   6.698   7.182  1.0509 -2.5687 -0.9238
  402MOL0     H54255   1.440   6.626   7.410  2.1677  2.1601  2.7863
  402MOL0     H54256   0.638   5.718   8.553 -2.8303 -3.0165 -1.9587
  402MOL0     H54257   0.551   5.642   8.778  1.1655  1.3605  4.4460
  402MOL0     H54258   0.737   5.349   9.181  0.8220  0.6614  5.2732
  402MOL0     H54259   0.667   5.315   9.397  0.6007 -1.4999 -1.2381
  402MOL0     H54260   0.314   5.349   9.655  0.7287  1.1534 -1.0111
  402MOL0     H54261   0.236   5.327   9.497  1.2692  1.6082 -0.4653
  402MOL0     H54262   0.287   5.087   9.505  0.7286  1.9610 -0.5635
  402MOL0     H54263   0.213   5.122   9.657  0.7425  1.1633  1.4270
  402MOL0     H54264   0.436   5.138   9.756  0.4721 -1.3239  0.9002
  402MOL0     H54265   0.514   5.095   9.604 -1.0793  0.9432  0.5190
  402MOL0     H54266   0.360   4.874   9.613  0.5111  2.5439 -1.6055
  402MOL0     H54267   0.307   4.929   9.777 -2.3288  0.7775 -2.8432
  402MOL0     H54268   0.631   4.680   9.846 -0.5778 -1.5726 -1.8524
  402MOL0     H54269   0.255   5.358   9.276  0.1801  4.0924  1.4270
  402MOL0     H54270   0.327   5.408   9.058 -0.1123 -0.3915 -0.1974
  403MOL0     O54271  10.010   2.421   4.264  1.1018 -0.1461 -0.0400
  403MOL0     C54272  10.018   2.453   4.381  0.1712 -0.2177 -0.1008
  403MOL0     O54273  10.109   2.540   4.425  0.4402 -1.2707 -0.5645
  403MOL0     C54274  10.182   2.624   4.351 -0.2803  0.2173  0.8177
  403MOL0     C54275  10.205   2.633   4.213  1.2157 -0.5044 -0.3405
  403MOL0     C54276  10.246   2.755   4.158 -1.3021 -0.3031  0.9578
  403MOL0     C54277  10.291   2.855   4.241 -0.8279 -0.6996 -0.2566
  403MOL0     O54278  10.320   2.968   4.173  0.1426 -0.2379  0.3713
  403MOL0     C54279  10.368   3.090   4.232 -0.7117 -0.0532 -0.2854
  403MOL0     C54280  10.372   3.197   4.128 -0.2303 -0.1787 -0.5048
  403MOL0     C54281  10.248   3.213   4.036  0.4314  0.1812 -1.3320
  403MOL0     C54282  10.128   3.241   4.126 -0.2613  0.2264  0.1188
  403MOL0     C54283   9.994   3.275   4.056 -0.1208 -0.2212  0.1967
  403MOL0     C54284   9.899   3.155   4.052  0.4925  0.9616  0.0280
  403MOL0     C54285   9.960   3.014   4.015 -1.4577 -0.1830  0.2446
  403MOL0     C54286   9.996   3.008   3.869  0.1111  0.4318  0.0777
  403MOL0     N54287  10.074   2.885   3.847 -0.4463  0.9679 -0.1164
  403MOL0     C54288  10.025   2.752   3.851 -0.1461 -0.5823 -0.6761
  403MOL0     C54289  10.125   2.676   3.792  0.0655  0.2655 -0.4594
  403MOL0     C54290  10.106   2.535   3.737 -0.2321 -0.5727 -0.0674
  403MOL0     C54291  10.039   2.432   3.832  0.1082 -0.7368 -0.3664
  403MOL0     C54292   9.970   2.327   3.744 -1.1384  0.5420  0.1997
  403MOL0     C54293   9.887   2.226   3.823 -0.1618 -0.6532  0.3287
  403MOL0     O54294   9.973   2.142   3.905  0.4378 -0.1199  0.0082
  403MOL0     C54295   9.915   2.090   4.013  0.5129  1.0827  0.0292
  403MOL0     C54296   9.778   2.064   4.031  1.3398  0.6788 -0.1132
  403MOL0     C54297   9.728   2.017   4.150  0.4225 -0.0604 -1.2384
  403MOL0     C54298   9.581   2.046   4.173 -0.2004 -0.0832  0.1628
  403MOL0     C54299   9.814   1.971   4.249  0.5418  0.2135 -0.9966
  403MOL0     C54300   9.770   1.911   4.376  0.5877 -0.4982 -0.3078
  403MOL0     O54301   9.838   1.929   4.493  0.8842  0.3840  0.2142
  403MOL0     C54302   9.813   1.842   4.597 -0.2775 -0.2584 -0.3743
  403MOL0     C54303   9.853   1.901   4.716  0.0763 -0.3655 -0.1000
  403MOL0     C54304   9.850   1.819   4.842 -0.0881 -0.1938  0.4485
  403MOL0     C54305   9.817   1.679   4.838  0.2221 -0.0971 -0.5147
  403MOL0     O54306   9.810   1.606   4.960  0.4187 -0.1661  0.4516
  403MOL0     C54307   9.698   1.519   4.983  0.4030 -0.5582  0.0021
  403MOL0     C54308   9.632   1.598   5.092 -0.8139  0.2713  0.1905
  403MOL0     C54309   9.508   1.524   5.138  0.0282  1.2387  0.2843
  403MOL0     C54310   9.455   1.591   5.265 -0.2509  0.8029 -0.2389
  403MOL0     C54311   9.371   1.482   5.329  0.1420  0.0334 -1.2551
  403MOL0     C54312   9.297   1.537   5.456  0.5425  0.8185 -0.0511
  403MOL0     C54313   9.234   1.423   5.530 -0.1747 -0.3815  0.9535
  403MOL0     C54314   9.149   1.473   5.648  0.1918  0.5559 -1.5254
  403MOL0    Cl54315   9.125   1.337   5.763  0.1159  0.4118  0.0879
  403MOL0     C54316   9.790   1.626   4.708 -0.4133  0.4617 -0.4059
  403MOL0     C54317   9.783   1.705   4.599 -0.9339 -0.0193  0.3579
  403MOL0     O54318   9.660   1.851   4.367 -0.1298 -0.7818  0.2498
  403MOL0     C54319   9.948   1.993   4.227  0.6176  0.1594  0.5951
  403MOL0     C54320  10.000   2.056   4.114 -0.8573 -0.3005 -0.8462
  403MOL0     N54321  10.230   2.758   3.777  0.4562 -0.2669 -0.3034
  403MOL0     N54322  10.201   2.882   3.812 -0.4614  0.5051  0.2074
  403MOL0     C54323  10.273   2.852   4.373 -0.3350  0.6447 -0.6719
  403MOL0     C54324  10.207   2.741   4.430  0.0225 -0.1350  0.3345
  403MOL0     C54325   9.930   2.381   4.481  0.7474  0.3594 -0.2814
  403MOL0     C54326   9.958   2.393   4.612 -0.7495 -0.5760 -0.1431
  403MOL0     C54327   9.886   2.342   4.720  0.0894 -1.4490  0.5433
  403MOL0     C54328   9.757   2.285   4.686 -1.6150  0.8405 -0.3757
  403MOL0     O54329   9.671   2.219   4.764 -0.4938 -0.1643 -0.1915
  403MOL0     C54330   9.696   2.209   4.904  0.1357 -1.2126 -1.0694
  403MOL0     C54331   9.637   2.329   4.981 -0.4972 -0.1766 -0.1453
  403MOL0     C54332   9.488   2.356   4.971  0.6426  0.2384  0.4872
  403MOL0     C54333   9.444   2.409   5.102  0.1183  0.7257  0.5957
  403MOL0     C54334   9.295   2.415   5.098 -0.7039 -0.0419  0.3976
  403MOL0     C54335   9.180   2.406   5.113  0.8630 -0.5161 -0.0210
  403MOL0     C54336   9.724   2.267   4.551 -0.9030 -0.3605  0.3404
  403MOL0     C54337   9.813   2.306   4.448 -0.2427  0.1803  0.6275
  403MOL0     H54338  10.155   2.561   4.150  0.6660 -0.6020  0.1939
  403MOL0     H54339  10.235   2.771   4.051 -1.2371  3.4298  1.3740
  403MOL0     H54340  10.294   3.116   4.308 -0.7371  1.3532 -0.7779
  403MOL0     H54341  10.466   3.080   4.281 -0.7833  1.5790  0.2468
  403MOL0     H54342  10.417   3.290   4.163  0.3820 -0.3675 -0.7757
  403MOL0     H54343  10.452   3.162   4.062  0.5133  1.0136 -0.2689
  403MOL0     H54344  10.250   3.288   3.957 -1.4911 -1.3711 -2.9493
  403MOL0     H54345  10.233   3.122   3.978  0.9234  0.6401 -2.1949
  403MOL0     H54346  10.116   3.160   4.198  0.2622 -0.4404 -0.5276
  403MOL0     H54347  10.157   3.330   4.182  0.9638  1.3385 -2.1261
  403MOL0     H54348   9.950   3.366   4.099  0.3411 -0.2461  0.7391
  403MOL0     H54349  10.018   3.299   3.951 -2.4858  0.3944 -0.2631
  403MOL0     H54350   9.871   3.150   4.158  0.0143 -0.9179 -0.1647
  403MOL0     H54351   9.820   3.188   3.983  0.1870  1.6934  0.7003
  403MOL0     H54352  10.055   2.994   4.065  0.3463  0.8942 -2.5056
  403MOL0     H54353   9.888   2.933   4.032 -1.7537 -0.2775 -1.2913
  403MOL0     H54354  10.056   3.094   3.838  0.1348 -0.4169 -2.4361
  403MOL0     H54355   9.910   3.004   3.802 -0.0327 -0.5488  0.2963
  403MOL0     H54356   9.926   2.721   3.882  0.2855 -0.1415  1.2296
  403MOL0     H54357  10.069   2.540   3.634  0.1916 -1.9642 -0.3053
  403MOL0     H54358  10.204   2.487   3.731  1.2735  2.0101  1.7050
  403MOL0     H54359   9.960   2.487   3.884  0.8307 -1.1066  1.1673
  403MOL0     H54360  10.109   2.386   3.902  1.8975  0.5380 -1.2399
  403MOL0     H54361  10.043   2.263   3.694 -1.7516 -1.2247  1.4686
  403MOL0     H54362   9.898   2.374   3.676 -0.7944 -0.4021 -0.8520
  403MOL0     H54363   9.842   2.157   3.752  1.4482 -1.2554 -0.1512
  403MOL0     H54364   9.809   2.271   3.885  1.2803  0.8204  1.1641
  403MOL0     H54365   9.710   2.090   3.950  2.8169  1.5687 -1.1113
  403MOL0     H54366   9.563   2.068   4.278  4.1099  0.6862  0.9266
  403MOL0     H54367   9.544   2.121   4.103 -1.2989  0.7636  1.5954
  403MOL0     H54368   9.525   1.952   4.169  3.7274 -2.6834 -3.8668
  403MOL0     H54369   9.874   2.007   4.727  1.0289 -0.4508 -0.9385
  403MOL0     H54370   9.866   1.883   4.929  0.9043  2.4855 -1.5470
  403MOL0     H54371   9.631   1.493   4.900 -0.7011  1.2323  0.2913
  403MOL0     H54372   9.728   1.421   5.022  0.7682 -0.1191  0.8410
  403MOL0     H54373   9.711   1.589   5.168  0.3370 -2.2758 -1.1988
  403MOL0     H54374   9.617   1.702   5.063  1.3257 -0.3983 -4.0518
  403MOL0     H54375   9.538   1.422   5.162 -0.8931 -0.5266 -4.7641
  403MOL0     H54376   9.444   1.522   5.049  1.3325  2.4750 -0.7560
  403MOL0     H54377   9.536   1.611   5.336  0.9863 -0.6380 -1.1681
  403MOL0     H54378   9.403   1.684   5.244 -2.2316  0.3817  2.3091
  403MOL0     H54379   9.429   1.395   5.362  1.2181  1.0423 -0.3955
  403MOL0     H54380   9.295   1.458   5.254 -0.7109 -1.0352 -0.0996
  403MOL0     H54381   9.354   1.609   5.515 -1.6508  3.0760 -0.5641
  403MOL0     H54382   9.217   1.601   5.417  2.0047  2.4036 -0.5880
  403MOL0     H54383   9.309   1.351   5.563  1.2351 -0.0465 -1.2941
  403MOL0     H54384   9.164   1.373   5.462  1.1242  0.4521 -1.0969
  403MOL0     H54385   9.050   1.515   5.626  0.6036  2.4246 -0.1080
  403MOL0     H54386   9.205   1.550   5.701  4.3729 -2.8258 -0.4782
  403MOL0     H54387   9.775   1.519   4.696  1.1215  0.0772  0.7390
  403MOL0     H54388   9.756   1.659   4.504  1.9987  0.4078 -0.7876
  403MOL0     H54389  10.022   1.958   4.299 -2.2109  0.0141  3.6787
  403MOL0     H54390  10.106   2.079   4.113 -0.8312  0.2447  2.6097
  403MOL0     H54391  10.295   2.939   4.432 -0.2201  0.7811 -0.9153
  403MOL0     H54392  10.188   2.746   4.537  1.1649  1.8664  0.4917
  403MOL0     H54393  10.042   2.459   4.634 -2.0235  0.8363  0.7046
  403MOL0     H54394   9.916   2.399   4.807 -1.5094  0.4437 -0.0922
  403MOL0     H54395   9.637   2.128   4.948 -1.1138 -0.1002 -0.6622
  403MOL0     H54396   9.801   2.195   4.933 -0.5287 -0.9194  1.7420
  403MOL0     H54397   9.687   2.421   4.949  0.5977 -0.0857  1.6600
  403MOL0     H54398   9.668   2.317   5.085  1.6741 -1.4578 -0.8921
  403MOL0     H54399   9.443   2.257   4.957  2.1720 -0.7323  2.0970
  403MOL0     H54400   9.468   2.426   4.889 -0.2149  0.5372  0.9358
  403MOL0     H54401   9.495   2.503   5.123 -0.6379  1.3734 -0.3558
  403MOL0     H54402   9.480   2.349   5.186 -0.1298  1.8379  1.5160
  403MOL0     H54403   9.073   2.408   5.122  0.8900 -2.7111  1.3398
  403MOL0     H54404   9.627   2.228   4.523 -0.3262 -1.3868 -0.2649
  403MOL0     H54405   9.802   2.311   4.340  2.1983  0.7437  0.3637
  404MOL0     O54406   8.763   7.676   9.927  0.4031  0.2081 -0.3844
  404MOL0     C54407   8.729   7.579  10.002 -0.9471 -1.0056 -1.1445
  404MOL0     O54408   8.813   7.533  10.099 -0.4163  0.1054 -0.1068
  404MOL0     C54409   8.948   7.538  10.102 -0.0584 -0.3742  1.4062
  404MOL0     C54410   9.038   7.622  10.034  0.2830  0.4307  0.0592
  404MOL0     C54411   9.178   7.610  10.048  1.0860  0.3382  0.0603
  404MOL0     C54412   9.230   7.533  10.148  0.4345  0.1116 -0.3882
  404MOL0     O54413   9.365   7.534  10.176 -0.7075 -0.8591  0.3376
  404MOL0     C54414   9.438   7.410  10.167 -0.6863 -0.2737 -0.2381
  404MOL0     C54415   9.455   7.337  10.296 -0.1695 -0.4090  1.5134
  404MOL0     C54416   9.604   7.321  10.328  0.4903 -0.3514 -0.2342
  404MOL0     C54417   9.623   7.260  10.466  0.3464  0.8812  0.1644
  404MOL0     C54418   9.762   7.232  10.500  0.3954  0.2833  0.2871
  404MOL0     C54419   9.774   7.197  10.657  0.2166 -0.8928  0.5731
  404MOL0     C54420   9.730   7.056  10.676 -0.0551  0.7416 -0.8946
  404MOL0     C54421   9.849   6.961  10.633  0.5551 -0.3356  0.8031
  404MOL0     N54422   9.945   6.936  10.742  0.4033 -0.0451  0.2031
  404MOL0     C54423  10.071   6.976  10.739 -0.9637  0.0606 -0.3126
  404MOL0     C54424  10.131   6.922  10.852  0.4655 -0.0074  1.5455
  404MOL0     C54425  10.272   6.932  10.911  0.2863  1.2548  0.3155
  404MOL0     C54426  10.333   6.789  10.888  1.0822 -0.1681  0.2296
  404MOL0     C54427  10.370   6.757  10.743  0.5810 -0.2745  0.8534
  404MOL0     C54428  10.476   6.644  10.749  0.7420  0.2870 -0.0814
  404MOL0     O54429  10.603   6.702  10.785  0.1616  0.4218  0.2584
  404MOL0     C54430  10.714   6.632  10.770 -0.8896  0.2212 -0.1250
  404MOL0     C54431  10.833   6.704  10.789  1.0375  0.7462 -0.2801
  404MOL0     C54432  10.954   6.640  10.808  0.2300  0.0866 -0.4366
  404MOL0     C54433  11.075   6.735  10.827  0.5069 -0.9183 -0.3910
  404MOL0     C54434  10.967   6.503  10.782 -1.2053  0.8465  1.0545
  404MOL0     C54435  11.091   6.413  10.814 -0.1919 -0.1445  0.0911
  404MOL0     O54436  11.077   6.285  10.780 -0.3512  0.0548 -0.5642
  404MOL0     C54437  11.181   6.190  10.781  0.0224  0.1416  0.6333
  404MOL0     C54438  11.307   6.223  10.738 -0.2841 -0.6209 -0.7094
  404MOL0     C54439  11.405   6.132  10.727  0.0121  0.3794 -0.4949
  404MOL0     C54440  11.391   6.009  10.798 -0.9138  0.0458  0.8338
  404MOL0     O54441  11.494   5.910  10.790  0.3655  0.3821  0.3102
  404MOL0     C54442  11.500   5.808  10.892 -0.0532  0.2623 -0.4410
  404MOL0     C54443  11.566   5.874  11.024 -0.2097  0.1225  0.0293
  404MOL0     C54444  11.725   5.870  11.024  0.7533 -0.4289 -0.6543
  404MOL0     C54445  11.777   5.843  11.165  0.2207  1.4822  0.2722
  404MOL0     C54446  11.888   5.752  11.175 -0.4433  0.3257 -0.5486
  404MOL0     C54447  12.007   5.805  11.098  0.1011  0.1297  0.7383
  404MOL0     C54448  12.129   5.711  11.097  0.2639 -0.4919  0.5002
  404MOL0     C54449  12.242   5.758  11.005 -0.8191 -0.3405 -0.5402
  404MOL0    Cl54450  12.319   5.907  11.075  0.4270 -0.2186  0.1474
  404MOL0     C54451  11.262   5.974  10.843  0.6050  0.5815  0.7406
  404MOL0     C54452  11.155   6.054  10.818  0.1503 -1.2501  0.5882
  404MOL0     O54453  11.191   6.461  10.865  0.3615  0.8326  0.0295
  404MOL0     C54454  10.845   6.437  10.741 -0.6614 -0.7507 -1.1586
  404MOL0     C54455  10.724   6.500  10.744 -0.0133  0.6390 -0.0444
  404MOL0     N54456  10.038   6.862  10.922 -0.6423  0.2465  0.1851
  404MOL0     N54457   9.926   6.856  10.853  0.1734 -0.4406  0.0475
  404MOL0     C54458   9.142   7.456  10.220 -0.4121  0.3087  0.6766
  404MOL0     C54459   9.005   7.455  10.201 -0.2768 -0.4132 -0.3822
  404MOL0     C54460   8.593   7.515   9.993 -0.2535 -0.6864  1.1918
  404MOL0     C54461   8.544   7.444  10.101  0.4685  1.0798  0.0741
  404MOL0     C54462   8.417   7.379  10.097  0.6504 -0.2607 -0.1041
  404MOL0     C54463   8.332   7.402   9.990 -0.0842 -0.8139  0.6477
  404MOL0     O54464   8.214   7.337   9.965 -0.5444 -0.3711 -0.5522
  404MOL0     C54465   8.159   7.241  10.060  0.0593  0.1310 -0.1348
  404MOL0     C54466   8.017   7.208  10.023  0.3639  0.0629 -0.0752
  404MOL0     C54467   8.009   7.111   9.900  0.1501  0.2376  0.0422
  404MOL0     C54468   7.867   7.088   9.848 -0.4103  0.6901  0.4744
  404MOL0     C54469   7.870   7.009   9.731  0.3324  0.2105  0.5721
  404MOL0     C54470   7.864   6.949   9.626  0.3698 -0.7987  0.4629
  404MOL0     C54471   8.377   7.483   9.886  0.2690 -0.7324 -0.1785
  404MOL0     C54472   8.508   7.541   9.883  0.1742  1.4708 -0.2363
  404MOL0     H54473   9.001   7.703   9.971 -1.3067 -1.3207 -1.3982
  404MOL0     H54474   9.236   7.668   9.977  0.6943 -1.6983 -2.0328
  404MOL0     H54475   9.393   7.345  10.092  0.7306  2.1219 -3.3996
  404MOL0     H54476   9.541   7.441  10.148  1.0277 -3.0770  3.2421
  404MOL0     H54477   9.403   7.390  10.376 -1.6334  2.4010 -1.0921
  404MOL0     H54478   9.410   7.240  10.274 -0.3156 -0.0663  0.1912
  404MOL0     H54479   9.655   7.257  10.255  0.4143  0.4649 -1.0174
  404MOL0     H54480   9.657   7.417  10.331 -0.1486 -0.0198  1.0636
  404MOL0     H54481   9.586   7.327  10.544  0.6491  1.2285  0.0184
  404MOL0     H54482   9.567   7.166  10.466  4.5346 -1.8963 -0.0974
  404MOL0     H54483   9.796   7.144  10.444  1.2337  1.0566 -0.4497
  404MOL0     H54484   9.821   7.322  10.482  1.4693  0.0553  2.4001
  404MOL0     H54485   9.875   7.214  10.696  1.0511 -0.2029 -1.7241
  404MOL0     H54486   9.712   7.269  10.712 -0.7262 -1.3546  0.1295
  404MOL0     H54487   9.710   7.041  10.783  0.2340 -1.1160 -1.0689
  404MOL0     H54488   9.634   7.031  10.629 -1.4286 -1.3401  2.5962
  404MOL0     H54489   9.905   7.017  10.558 -0.2515  1.6103  1.5743
  404MOL0     H54490   9.812   6.869  10.587 -1.6678 -0.5927  2.8875
  404MOL0     H54491  10.112   7.046  10.668  0.1637  1.1558  1.3368
  404MOL0     H54492  10.333   7.002  10.854 -0.3234 -0.3518 -2.5147
  404MOL0     H54493  10.277   6.954  11.018 -0.5863  1.5162  0.3094
  404MOL0     H54494  10.274   6.714  10.943 -0.0364 -0.8099 -1.7580
  404MOL0     H54495  10.424   6.785  10.949  0.7785  0.1015  0.7120
  404MOL0     H54496  10.415   6.845  10.697 -0.7737  0.6117  1.1493
  404MOL0     H54497  10.284   6.729  10.682 -0.4689  3.6826  0.2018
  404MOL0     H54498  10.482   6.586  10.656  0.8495  0.9393 -0.4860
  404MOL0     H54499  10.449   6.573  10.828  2.0693 -0.0715  0.0864
  404MOL0     H54500  10.825   6.812  10.798 -3.6108  0.4274  3.2292
  404MOL0     H54501  11.049   6.840  10.812  1.4644 -0.7296 -0.8333
  404MOL0     H54502  11.105   6.731  10.932 -3.5842 -2.3092  0.9055
  404MOL0     H54503  11.162   6.715  10.764 -1.1369  0.3189 -3.2543
  404MOL0     H54504  11.322   6.326  10.707 -1.6544 -0.3796 -0.6426
  404MOL0     H54505  11.505   6.159  10.694  0.0530  0.1368 -0.5757
  404MOL0     H54506  11.404   5.760  10.917  0.4572  0.5804  2.4819
  404MOL0     H54507  11.566   5.732  10.850  0.9160 -0.0819  1.5683
  404MOL0     H54508  11.526   5.975  11.031  1.5923  0.9700 -1.1508
  404MOL0     H54509  11.522   5.833  11.115 -0.8212  2.9510  1.0882
  404MOL0     H54510  11.754   5.968  10.986 -0.4724 -0.3821 -1.5251
  404MOL0     H54511  11.764   5.794  10.955  2.8259 -0.5567  0.5734
  404MOL0     H54512  11.812   5.942  11.196 -0.0453  2.3394 -1.9860
  404MOL0     H54513  11.702   5.797  11.230  0.8608 -0.3330 -0.2215
  404MOL0     H54514  11.860   5.659  11.125 -0.1642  0.8978 -1.8229
  404MOL0     H54515  11.920   5.728  11.276 -1.1512  0.2954 -0.3249
  404MOL0     H54516  11.990   5.836  10.995  1.5040 -0.0836  0.4287
  404MOL0     H54517  12.038   5.895  11.153  3.3790  1.0368 -2.2662
  404MOL0     H54518  12.097   5.612  11.064 -0.9577  0.5456 -1.6617
  404MOL0     H54519  12.161   5.680  11.197  2.9945 -2.5535 -0.9013
  404MOL0     H54520  12.210   5.792  10.906  3.9347  2.2573 -1.4554
  404MOL0     H54521  12.314   5.678  10.990  2.5573  2.7602 -2.3168
  404MOL0     H54522  11.237   5.877  10.885 -1.6873  0.4760 -0.7187
  404MOL0     H54523  11.050   6.026  10.824 -0.6479  1.3332 -0.1667
  404MOL0     H54524  10.827   6.334  10.713 -2.2918 -1.3109  1.6209
  404MOL0     H54525  10.629   6.447  10.739  0.1366  0.4120 -0.5030
  404MOL0     H54526   9.186   7.399  10.302  3.8672  1.2348 -0.6925
  404MOL0     H54527   8.944   7.400  10.272 -1.7649  4.8549  2.9287
  404MOL0     H54528   8.606   7.429  10.189  1.2087 -1.5100 -0.7819
  404MOL0     H54529   8.388   7.313  10.178  0.7197 -2.1876 -1.5873
  404MOL0     H54530   8.211   7.145  10.054  0.9454  0.5304  0.8038
  404MOL0     H54531   8.159   7.278  10.163 -1.9051  0.5736 -0.2533
  404MOL0     H54532   7.971   7.305  10.006  5.3990  2.3526 -2.6876
  404MOL0     H54533   7.971   7.153  10.106 -1.0580 -0.0634 -0.9264
  404MOL0     H54534   8.046   7.015   9.937 -1.4180 -0.6250 -0.5847
  404MOL0     H54535   8.074   7.161   9.827  2.0908  0.5000  1.8301
  404MOL0     H54536   7.806   7.179   9.846 -0.7813  0.4644  1.1197
  404MOL0     H54537   7.819   7.025   9.923 -0.6225 -0.1243 -0.3115
  404MOL0     H54538   7.846   6.898   9.533 -0.5245 -1.7625  1.1549
  404MOL0     H54539   8.307   7.496   9.804 -1.1521 -0.5408  1.0162
  404MOL0     H54540   8.553   7.587   9.795  2.4546  0.0640  0.0954
  405MOL0     O54541   9.100   0.855   3.841  0.5645  0.2474 -0.3995
  405MOL0     C54542   9.018   0.852   3.750  0.4731  1.1663 -0.3715
  405MOL0     O54543   9.020   0.924   3.632  0.3943 -0.4393 -0.3714
  405MOL0     C54544   9.127   0.984   3.573 -1.0238  0.9117 -0.3785
  405MOL0     C54545   9.104   1.086   3.487 -0.6588 -0.0595  0.7356
  405MOL0     C54546   9.210   1.165   3.446 -0.6789 -0.0557 -1.0626
  405MOL0     C54547   9.341   1.148   3.488 -0.3388 -0.0352 -0.8070
  405MOL0     O54548   9.437   1.234   3.433 -0.4577  0.1788  0.4767
  405MOL0     C54549   9.564   1.228   3.492 -0.0132 -0.0426 -0.6346
  405MOL0     C54550   9.642   1.338   3.406 -0.4375 -0.7695  0.4265
  405MOL0     C54551   9.575   1.473   3.432  0.2801 -0.7061 -0.8290
  405MOL0     C54552   9.642   1.601   3.385  0.3432  0.3729 -0.6468
  405MOL0     C54553   9.605   1.638   3.240 -0.4886 -0.7599  0.0388
  405MOL0     C54554   9.664   1.775   3.200  0.9433 -0.6863 -0.1941
  405MOL0     C54555   9.609   1.901   3.274  0.0392 -0.1241  0.4863
  405MOL0     C54556   9.684   2.033   3.238  0.2861 -0.0406 -0.2478
  405MOL0     N54557   9.790   2.063   3.335 -0.7847  0.5592  0.4290
  405MOL0     C54558   9.925   2.014   3.331  1.2331  0.6342 -0.7003
  405MOL0     C54559   9.987   2.088   3.424 -0.1521 -0.4665 -0.2056
  405MOL0     C54560  10.138   2.065   3.446 -0.0045 -0.3948  0.0189
  405MOL0     C54561  10.150   1.979   3.575  0.2885 -1.0520  1.3864
  405MOL0     C54562  10.143   1.828   3.553 -0.2161  0.0613 -0.2762
  405MOL0     C54563  10.267   1.757   3.495 -0.9946  0.2035  0.8973
  405MOL0     O54564  10.229   1.741   3.359 -0.5798  0.0160  0.3451
  405MOL0     C54565  10.195   1.620   3.302 -0.7553 -0.4060 -1.1684
  405MOL0     C54566  10.199   1.610   3.165  0.5108 -0.3983  0.1303
  405MOL0     C54567  10.156   1.493   3.097 -0.7514  0.4966  0.2231
  405MOL0     C54568  10.193   1.492   2.952  0.5785  0.0834 -1.4130
  405MOL0     C54569  10.101   1.386   3.167 -0.0583  0.0842 -0.3798
  405MOL0     C54570  10.037   1.260   3.111 -1.5578  0.3923  0.1175
  405MOL0     O54571   9.997   1.166   3.209 -0.2830  0.2501 -0.3941
  405MOL0     C54572   9.964   1.045   3.161  0.6642 -0.6624  0.3187
  405MOL0     C54573  10.061   0.955   3.193 -0.0891 -0.3132  0.5941
  405MOL0     C54574  10.045   0.825   3.150  0.9058 -0.2304  0.3687
  405MOL0     C54575   9.933   0.776   3.087  1.1184 -0.1227  0.0845
  405MOL0     O54576   9.918   0.643   3.043  0.1185 -0.4976  0.0269
  405MOL0     C54577   9.909   0.543   3.144 -0.9882  0.6468  0.5914
  405MOL0     C54578   9.760   0.523   3.184  0.8231 -0.5974  0.4948
  405MOL0     C54579   9.653   0.507   3.067  1.5839  0.1489 -0.8185
  405MOL0     C54580   9.662   0.377   2.992 -0.3470  0.4866  0.1086
  405MOL0     C54581   9.588   0.399   2.852 -0.1599 -0.4059  0.0795
  405MOL0     C54582   9.572   0.266   2.769  0.3409 -1.1197 -1.4485
  405MOL0     C54583   9.708   0.191   2.767  0.1962  0.2674  0.3986
  405MOL0     C54584   9.710   0.085   2.666 -0.7900  0.2346 -0.2581
  405MOL0    Cl54585   9.699   0.130   2.486  0.5204  0.4716  0.0442
  405MOL0     C54586   9.830   0.869   3.062 -0.1881 -0.2052  0.7293
  405MOL0     C54587   9.847   1.002   3.101 -0.5979 -0.8852 -0.0295
  405MOL0     O54588  10.036   1.238   2.991  0.0226  0.1103 -0.6158
  405MOL0     C54589  10.081   1.411   3.308  0.5945 -0.2207  0.5374
  405MOL0     C54590  10.128   1.519   3.370  0.0035 -0.1612 -0.0116
  405MOL0     N54591   9.905   2.183   3.479 -0.0491  0.2787  0.3828
  405MOL0     N54592   9.795   2.162   3.432  0.0123  0.3127  0.4046
  405MOL0     C54593   9.365   1.050   3.587  0.4568  0.0555  0.1441
  405MOL0     C54594   9.259   0.969   3.625  1.1324 -0.0171 -0.1628
  405MOL0     C54595   8.901   0.772   3.774  1.6160 -0.5501  0.0585
  405MOL0     C54596   8.780   0.825   3.724 -0.7297  0.7889 -1.1070
  405MOL0     C54597   8.660   0.754   3.756 -0.1488 -1.0508  0.1878
  405MOL0     C54598   8.664   0.635   3.830  0.2320 -0.1484 -0.4256
  405MOL0     O54599   8.548   0.579   3.880 -0.1570  0.1157  0.5263
  405MOL0     C54600   8.506   0.450   3.830  0.2780 -0.1075  0.5260
  405MOL0     C54601   8.438   0.453   3.689  0.4598  0.8572  0.5800
  405MOL0     C54602   8.339   0.333   3.658  0.2254  0.8616  0.3209
  405MOL0     C54603   8.396   0.190   3.620  0.2808 -0.2973  0.1701
  405MOL0     C54604   8.292   0.098   3.566  0.4001 -0.0609 -0.5222
  405MOL0     C54605   8.202   0.015   3.542 -0.7923 -0.1995  0.8232
  405MOL0     C54606   8.786   0.582   3.875 -0.6582  0.9821 -0.2640
  405MOL0     C54607   8.908   0.652   3.847  0.1206 -0.3341 -0.8049
  405MOL0     H54608   9.002   1.096   3.452 -0.4018 -0.1330 -0.0614
  405MOL0     H54609   9.192   1.239   3.369  0.9569 -0.6006 -2.0306
  405MOL0     H54610   9.571   1.246   3.600  1.3865 -1.0684 -0.5274
  405MOL0     H54611   9.608   1.129   3.477  0.4660 -0.2206  1.5654
  405MOL0     H54612   9.750   1.342   3.422 -0.4074 -1.4526  0.4086
  405MOL0     H54613   9.622   1.300   3.306  1.5950  0.2579 -0.4125
  405MOL0     H54614   9.473   1.465   3.395  0.0738  0.6003 -0.5827
  405MOL0     H54615   9.558   1.478   3.540  1.4873  2.2824 -0.6829
  405MOL0     H54616   9.616   1.675   3.461  2.7922  0.6594 -0.0095
  405MOL0     H54617   9.751   1.598   3.392  0.4244  0.2430 -1.8608
  405MOL0     H54618   9.661   1.582   3.165  1.9685  0.5259  0.8285
  405MOL0     H54619   9.498   1.620   3.226 -0.4903 -0.2041 -0.6778
  405MOL0     H54620   9.773   1.774   3.207  1.0267  0.0834 -1.1712
  405MOL0     H54621   9.626   1.792   3.099  0.1842  0.6854  0.2983
  405MOL0     H54622   9.501   1.912   3.269 -0.0230  0.5652  2.4576
  405MOL0     H54623   9.616   1.899   3.384  0.2867  0.9972  0.5072
  405MOL0     H54624   9.615   2.118   3.247  0.3086 -0.2407  2.6123
  405MOL0     H54625   9.736   2.031   3.142  1.9368  3.4245  0.4081
  405MOL0     H54626   9.969   1.939   3.267  1.1827 -0.5458  0.6074
  405MOL0     H54627  10.175   2.012   3.358 -1.0289 -0.5848 -0.3158
  405MOL0     H54628  10.191   2.160   3.459 -0.3069 -0.1608 -0.4472
  405MOL0     H54629  10.067   2.016   3.636 -1.3832 -1.3215 -0.5889
  405MOL0     H54630  10.247   2.001   3.619  1.4824  1.9070 -2.2310
  405MOL0     H54631  10.055   1.800   3.496 -0.2804  0.8608 -0.5868
  405MOL0     H54632  10.133   1.795   3.657 -0.0162  1.1168  0.0947
  405MOL0     H54633  10.283   1.660   3.544 -1.2266  1.1381  2.9618
  405MOL0     H54634  10.360   1.815   3.505 -0.6861 -0.5674  3.1144
  405MOL0     H54635  10.248   1.685   3.103  1.8118 -1.6090 -0.3646
  405MOL0     H54636  10.265   1.412   2.930 -0.8997 -1.0968 -2.1118
  405MOL0     H54637  10.105   1.472   2.891  0.2089  1.6995 -1.4523
  405MOL0     H54638  10.232   1.589   2.920 -0.0060  0.8336  0.0361
  405MOL0     H54639  10.138   0.984   3.264 -2.7158  2.3342  2.6200
  405MOL0     H54640  10.127   0.756   3.170  0.5771 -1.0487 -0.9630
  405MOL0     H54641   9.947   0.448   3.105  1.0937  1.1236  1.3300
  405MOL0     H54642   9.964   0.561   3.237 -1.4922 -4.8361  2.3407
  405MOL0     H54643   9.739   0.431   3.238 -1.2492 -0.4583  0.0034
  405MOL0     H54644   9.716   0.601   3.247  0.7270 -0.1578 -0.0944
  405MOL0     H54645   9.669   0.581   2.988  1.6416 -1.0355 -1.9637
  405MOL0     H54646   9.552   0.523   3.105  1.1651 -3.0299 -0.2801
  405MOL0     H54647   9.769   0.354   2.990 -0.0217  1.6699  1.5995
  405MOL0     H54648   9.613   0.311   3.064 -0.4995 -0.4988 -0.8678
  405MOL0     H54649   9.641   0.476   2.796 -1.2157  2.2575  2.4807
  405MOL0     H54650   9.490   0.443   2.873  0.3027  0.0237  1.4583
  405MOL0     H54651   9.496   0.217   2.831  1.4787  0.5196  1.4009
  405MOL0     H54652   9.535   0.300   2.672  0.5471  0.9074 -0.8557
  405MOL0     H54653   9.731   0.153   2.867  0.1483  0.2295  0.3953
  405MOL0     H54654   9.779   0.271   2.742 -0.4407  1.4512  2.2049
  405MOL0     H54655   9.631   0.012   2.684 -0.1591 -0.5484 -0.5778
  405MOL0     H54656   9.805   0.030   2.666 -1.3823 -0.8139  1.1403
  405MOL0     H54657   9.727   0.839   3.043  0.0860  0.0773 -1.4588
  405MOL0     H54658   9.774   1.082   3.092  0.4009 -0.0064 -0.5761
  405MOL0     H54659  10.030   1.336   3.368 -1.1650  0.4994  0.0028
  405MOL0     H54660  10.109   1.537   3.475  1.4947 -1.9739  0.6104
  405MOL0     H54661   9.463   1.030   3.629  0.1887  0.4075  0.9635
  405MOL0     H54662   9.269   0.905   3.712 -1.1830 -0.8655 -0.4550
  405MOL0     H54663   8.758   0.924   3.685 -2.3320  1.7278  1.9271
  405MOL0     H54664   8.563   0.794   3.731 -2.4533 -5.4957  1.0784
  405MOL0     H54665   8.594   0.392   3.800  1.1830  2.5153 -2.3860
  405MOL0     H54666   8.455   0.394   3.910 -0.2271 -1.7075 -0.8421
  405MOL0     H54667   8.518   0.474   3.618  0.2406 -1.2719 -0.3935
  405MOL0     H54668   8.382   0.547   3.690 -2.0926 -0.4952 -1.3996
  405MOL0     H54669   8.259   0.365   3.590 -0.2932 -1.4686 -0.2378
  405MOL0     H54670   8.277   0.314   3.746 -1.5718  0.7741 -0.9063
  405MOL0     H54671   8.463   0.151   3.697 -0.0501  0.9590  1.1468
  405MOL0     H54672   8.462   0.220   3.538  0.1837  0.3895  0.3323
  405MOL0     H54673   8.143  -0.063   3.497 -1.5251  0.6639  0.2542
  405MOL0     H54674   8.796   0.503   3.949  2.2037  2.3165  0.9537
  405MOL0     H54675   8.998   0.620   3.899  1.8002  1.0860 -2.6779
  406MOL0     O54676   6.031   5.302   5.245  0.2273 -0.0605 -0.5371
  406MOL0     C54677   5.910   5.323   5.242 -0.3326 -0.1469 -0.8178
  406MOL0     O54678   5.838   5.346   5.357 -0.1217  0.2198  0.3561
  406MOL0     C54679   5.883   5.342   5.486 -0.4595  0.4157  0.6196
  406MOL0     C54680   5.992   5.411   5.531 -0.3773 -0.0543 -0.2248
  406MOL0     C54681   6.033   5.429   5.670 -0.1974 -0.2056 -0.7496
  406MOL0     C54682   5.947   5.364   5.757  0.1475 -0.5073 -0.5353
  406MOL0     O54683   5.955   5.366   5.889  0.1325  0.1003 -0.5662
  406MOL0     C54684   6.022   5.482   5.951 -0.3102 -0.4509 -0.6197
  406MOL0     C54685   5.946   5.615   5.941  0.7783  0.4678 -1.0355
  406MOL0     C54686   5.856   5.611   6.060 -0.0562  0.6391 -0.3816
  406MOL0     C54687   5.749   5.716   6.049  0.1908 -0.3438 -0.7683
  406MOL0     C54688   5.686   5.749   6.190  0.6843 -1.0580 -0.0775
  406MOL0     C54689   5.595   5.655   6.268 -0.7811 -0.2774  0.5498
  406MOL0     C54690   5.526   5.725   6.381 -0.6888  0.7329 -0.3249
  406MOL0     C54691   5.449   5.635   6.486  0.1233 -0.4084 -0.1143
  406MOL0     N54692   5.334   5.563   6.430  0.6219  0.6504 -0.7454
  406MOL0     C54693   5.258   5.613   6.323 -0.6605 -1.0453  0.4944
  406MOL0     C54694   5.170   5.511   6.296  0.3642 -0.8699  0.9915
  406MOL0     C54695   5.060   5.509   6.197  0.2319  0.2985  0.0180
  406MOL0     C54696   4.925   5.561   6.266 -0.4337  0.6087  0.0596
  406MOL0     C54697   4.937   5.716   6.283  0.4373 -0.9390 -0.4008
  406MOL0     C54698   4.811   5.769   6.348  0.9672  0.8641 -0.3064
  406MOL0     O54699   4.762   5.894   6.276  0.2041 -0.0988  0.0043
  406MOL0     C54700   4.672   5.984   6.340  0.0268  1.5463  0.3892
  406MOL0     C54701   4.611   5.958   6.463  0.0671  0.8745  0.5986
  406MOL0     C54702   4.527   6.046   6.527  0.9608 -1.0169  0.6872
  406MOL0     C54703   4.480   6.002   6.667 -0.0249 -0.5651 -0.4721
  406MOL0     C54704   4.480   6.162   6.453 -0.1030 -0.3732 -0.5568
  406MOL0     C54705   4.376   6.253   6.515 -0.3592  1.0470 -0.3178
  406MOL0     O54706   4.338   6.350   6.427  0.3273 -0.2314 -0.1755
  406MOL0     C54707   4.258   6.463   6.463 -0.0296 -0.2937  0.1156
  406MOL0     C54708   4.243   6.508   6.590  0.5691  0.2987 -0.0791
  406MOL0     C54709   4.168   6.623   6.617  0.3969  0.5260  0.1498
  406MOL0     C54710   4.120   6.702   6.514 -0.4310 -0.5963 -0.0609
  406MOL0     O54711   4.056   6.815   6.554  0.2078  0.0638 -0.4566
  406MOL0     C54712   4.023   6.922   6.468  0.0066 -0.1596 -0.3588
  406MOL0     C54713   3.901   6.998   6.534 -0.1577 -0.3861 -0.8129
  406MOL0     C54714   3.888   7.149   6.490  0.7624  0.2533 -0.2476
  406MOL0     C54715   3.835   7.148   6.347 -0.4706 -0.1635 -0.3254
  406MOL0     C54716   3.822   7.285   6.288 -0.6689 -0.1959  0.4752
  406MOL0     C54717   3.756   7.297   6.152  0.0094  0.7527 -0.2859
  406MOL0     C54718   3.623   7.220   6.137  0.4014  0.5875  0.4217
  406MOL0     C54719   3.509   7.273   6.209  0.2156 -0.4779  0.0017
  406MOL0    Cl54720   3.464   7.440   6.141  0.0153 -0.0382  0.1612
  406MOL0     C54721   4.132   6.657   6.388  0.1424  0.2631  0.3494
  406MOL0     C54722   4.197   6.541   6.363  0.0378  0.6946  0.5277
  406MOL0     O54723   4.319   6.224   6.621 -0.3201 -0.0262  0.0480
  406MOL0     C54724   4.540   6.190   6.330 -0.6472 -0.6290 -0.5867
  406MOL0     C54725   4.627   6.098   6.277 -0.3632 -0.1983  0.2464
  406MOL0     N54726   5.199   5.401   6.385  0.0101  0.1847  1.2422
  406MOL0     N54727   5.292   5.437   6.465  0.9465 -1.1458  0.6909
  406MOL0     C54728   5.842   5.285   5.715  0.2420 -0.0912 -1.1660
  406MOL0     C54729   5.808   5.273   5.580 -0.1498 -0.1894  0.1725
  406MOL0     C54730   5.846   5.358   5.115 -0.5409  0.0643  0.1257
  406MOL0     C54731   5.732   5.444   5.110 -1.6276  0.4911  0.3106
  406MOL0     C54732   5.660   5.455   4.994 -0.0086 -0.0668 -1.2691
  406MOL0     C54733   5.701   5.375   4.888  0.7683  0.9109  0.3353
  406MOL0     O54734   5.628   5.396   4.770 -0.4574  0.0128  0.2144
  406MOL0     C54735   5.654   5.311   4.656  0.7909 -0.1511  0.0741
  406MOL0     C54736   5.570   5.354   4.535  0.2267  0.5004  0.4933
  406MOL0     C54737   5.634   5.476   4.466 -0.1632  0.7821 -0.4893
  406MOL0     C54738   5.562   5.525   4.340 -1.0326  0.0352 -0.1780
  406MOL0     C54739   5.427   5.574   4.370  0.5520 -0.1867  0.2002
  406MOL0     C54740   5.317   5.617   4.381  0.2190  0.1445 -0.0235
  406MOL0     C54741   5.807   5.289   4.888 -0.7037 -0.8207 -0.4403
  406MOL0     C54742   5.894   5.286   5.000 -0.3760  0.9944 -0.9255
  406MOL0     H54743   6.042   5.469   5.454 -2.4894  1.1445 -0.7662
  406MOL0     H54744   6.127   5.477   5.694 -0.0636 -1.7095  2.1880
  406MOL0     H54745   6.056   5.457   6.052  1.3737 -1.4037 -1.3755
  406MOL0     H54746   6.119   5.492   5.902  1.0143 -1.4709  1.5976
  406MOL0     H54747   6.020   5.693   5.962  0.4820 -0.0369  2.3152
  406MOL0     H54748   5.892   5.613   5.846 -0.2272  0.9011 -0.4818
  406MOL0     H54749   5.814   5.512   6.079  0.2998  0.5617  0.0285
  406MOL0     H54750   5.928   5.639   6.138 -0.4297  0.2302  0.1150
  406MOL0     H54751   5.803   5.801   6.006 -0.2107 -0.1172 -0.8223
  406MOL0     H54752   5.682   5.662   5.982 -0.4783  0.5328 -0.8136
  406MOL0     H54753   5.768   5.775   6.258  0.7264  2.0451 -1.1482
  406MOL0     H54754   5.628   5.838   6.164  2.1000  0.1132  0.6571
  406MOL0     H54755   5.523   5.603   6.204  0.1347 -1.5869  0.5360
  406MOL0     H54756   5.660   5.573   6.300 -0.8964 -1.4096 -1.9472
  406MOL0     H54757   5.607   5.772   6.438  0.2335 -2.2223  0.9917
  406MOL0     H54758   5.460   5.803   6.341  0.9871  2.5104  0.2629
  406MOL0     H54759   5.402   5.695   6.564  0.5169 -0.4318  0.1475
  406MOL0     H54760   5.514   5.560   6.532 -1.8574 -1.6734  0.7593
  406MOL0     H54761   5.274   5.706   6.269 -0.0152 -1.6073 -0.3047
  406MOL0     H54762   5.085   5.575   6.114  2.7823 -0.4698  0.0810
  406MOL0     H54763   5.042   5.409   6.158 -0.8704  0.7724 -0.7187
  406MOL0     H54764   4.919   5.520   6.367  1.7872 -1.5189 -0.5610
  406MOL0     H54765   4.838   5.532   6.206  0.0642  0.6538 -0.6951
  406MOL0     H54766   4.942   5.764   6.185  1.9732  3.3996  1.5853
  406MOL0     H54767   5.029   5.728   6.340 -0.7726 -0.5808  1.5622
  406MOL0     H54768   4.830   5.783   6.455  1.6348  0.2355 -0.3312
  406MOL0     H54769   4.726   5.702   6.332 -0.0646  2.7405 -3.5150
  406MOL0     H54770   4.630   5.866   6.518 -4.7772  0.1804  1.5358
  406MOL0     H54771   4.534   5.915   6.707 -0.4562 -0.7006 -0.1818
  406MOL0     H54772   4.479   6.091   6.730 -3.7064  1.0261 -2.4527
  406MOL0     H54773   4.379   5.962   6.653  0.9792 -3.8338  0.7137
  406MOL0     H54774   4.283   6.452   6.674  1.1418 -0.6159 -0.9392
  406MOL0     H54775   4.153   6.653   6.720 -0.5260 -0.8856  0.4696
  406MOL0     H54776   4.108   6.989   6.483  0.0098  0.5015 -2.9084
  406MOL0     H54777   4.022   6.911   6.359  0.3477  2.2004 -0.6464
  406MOL0     H54778   3.806   6.948   6.514  0.9108 -3.1212  0.3804
  406MOL0     H54779   3.920   6.989   6.642 -1.2170  3.0869 -0.2061
  406MOL0     H54780   3.983   7.197   6.517 -0.4980  3.4511 -1.0950
  406MOL0     H54781   3.816   7.201   6.553  0.5433  1.4047 -1.4004
  406MOL0     H54782   3.901   7.091   6.282 -0.7044  0.4647 -1.1333
  406MOL0     H54783   3.739   7.096   6.345 -0.9337  0.5869  0.9958
  406MOL0     H54784   3.919   7.335   6.281 -2.1623  2.7475 -0.7047
  406MOL0     H54785   3.769   7.360   6.348 -0.5690  1.3914 -1.3380
  406MOL0     H54786   3.762   7.405   6.133  2.3215  0.2198 -3.5031
  406MOL0     H54787   3.824   7.246   6.083  2.3975  2.5184  0.6445
  406MOL0     H54788   3.641   7.114   6.157 -1.5689  0.0677 -0.3218
  406MOL0     H54789   3.592   7.221   6.032  0.7077 -1.7588  0.2468
  406MOL0     H54790   3.537   7.296   6.312  3.6404 -3.0471 -0.1984
  406MOL0     H54791   3.426   7.202   6.207  0.3372 -0.6212  0.0346
  406MOL0     H54792   4.092   6.718   6.307 -2.1979  0.0044  1.2302
  406MOL0     H54793   4.210   6.505   6.262  3.1203 -1.2844  1.4626
  406MOL0     H54794   4.521   6.279   6.270  1.2455 -0.8776 -1.6395
  406MOL0     H54795   4.664   6.124   6.179  0.3927 -1.0954  0.2802
  406MOL0     H54796   5.790   5.222   5.786  1.7573 -1.1064 -0.9115
  406MOL0     H54797   5.723   5.210   5.557 -0.1892  0.0775 -0.4189
  406MOL0     H54798   5.693   5.497   5.196 -0.7761 -0.0532  1.0544
  406MOL0     H54799   5.572   5.518   4.992 -2.5423 -2.9901  2.5956
  406MOL0     H54800   5.755   5.319   4.616  0.7019 -2.3406 -0.6936
  406MOL0     H54801   5.628   5.208   4.684 -0.5775 -1.1475 -4.2246
  406MOL0     H54802   5.469   5.385   4.562 -1.1686 -3.3197  0.3549
  406MOL0     H54803   5.549   5.273   4.464 -1.5488  1.9564 -0.7211
  406MOL0     H54804   5.735   5.443   4.440  0.6006  2.5212  0.1170
  406MOL0     H54805   5.635   5.555   4.541 -0.3405  4.8169 -4.3118
  406MOL0     H54806   5.549   5.441   4.271  1.0759 -0.8516  0.4428
  406MOL0     H54807   5.617   5.606   4.290  1.4222 -0.3421  1.7567
  406MOL0     H54808   5.218   5.649   4.406  0.2896 -0.3800  1.0215
  406MOL0     H54809   5.844   5.225   4.809  0.3879 -2.3426  1.2169
  406MOL0     H54810   5.977   5.216   5.005  0.6862  2.2767 -0.1544
  407MOL0     O54811  11.042   8.019   9.993 -0.4724  0.7422  0.1182
  407MOL0     C54812  10.963   7.948  10.062  0.4443  0.6467 -0.2430
  407MOL0     O54813  10.832   7.937  10.045  0.4486  0.9739  0.4736
  407MOL0     C54814  10.756   8.008   9.948 -0.2870 -0.4596 -0.0388
  407MOL0     C54815  10.686   7.932   9.853 -0.1544 -0.2797 -0.5566
  407MOL0     C54816  10.598   7.990   9.768 -0.9467 -0.7157 -0.1436
  407MOL0     C54817  10.591   8.134   9.761 -0.2565  0.0304 -1.1326
  407MOL0     O54818  10.518   8.190   9.653 -0.1121  0.2414 -0.1905
  407MOL0     C54819  10.433   8.111   9.569 -0.0696  0.0799  0.0016
  407MOL0     C54820  10.297   8.191   9.550 -1.1671  0.2807 -0.2487
  407MOL0     C54821  10.190   8.122   9.473  0.1949  0.3004  0.0448
  407MOL0     C54822  10.239   8.076   9.343  0.8284  0.1911 -0.0629
  407MOL0     C54823  10.130   8.027   9.248  0.4667 -0.0795 -0.0578
  407MOL0     C54824  10.186   8.015   9.106  0.7933 -0.4492  0.0903
  407MOL0     C54825  10.077   7.979   9.001  0.1708 -0.6594  0.2871
  407MOL0     C54826   9.994   7.855   9.031 -0.1346  0.4883  0.1828
  407MOL0     N54827   9.907   7.830   8.914 -0.1312  0.5546  0.6859
  407MOL0     C54828   9.926   7.745   8.806  0.0679  0.2501 -0.0463
  407MOL0     C54829   9.802   7.748   8.745  0.4868 -0.8390 -1.6002
  407MOL0     C54830   9.770   7.683   8.610  0.1052  0.4975  0.8559
  407MOL0     C54831   9.690   7.775   8.520 -0.2473  0.5831 -0.6646
  407MOL0     C54832   9.623   7.716   8.395 -0.3498  0.2481  0.0337
  407MOL0     C54833   9.581   7.822   8.287 -0.4302  0.6314  0.0187
  407MOL0     O54834   9.684   7.868   8.204 -0.1900  0.6904  0.3353
  407MOL0     C54835   9.637   7.958   8.110 -0.4439  0.3542  0.6566
  407MOL0     C54836   9.740   8.014   8.038  0.2537  0.8533 -0.0228
  407MOL0     C54837   9.713   8.108   7.929  0.7101 -0.4355 -0.3053
  407MOL0     C54838   9.825   8.168   7.847 -0.6246  0.1347 -0.8993
  407MOL0     C54839   9.582   8.145   7.901  0.0736  0.2336  0.1770
  407MOL0     C54840   9.552   8.249   7.791  0.5860 -0.7450 -0.2703
  407MOL0     O54841   9.419   8.275   7.810 -0.7853 -0.0451 -0.5325
  407MOL0     C54842   9.338   8.350   7.729 -0.1060  0.1228  0.9770
  407MOL0     C54843   9.377   8.474   7.663 -0.4725 -0.0056 -0.0034
  407MOL0     C54844   9.277   8.547   7.595 -0.0903 -0.4363 -0.3260
  407MOL0     C54845   9.143   8.497   7.579 -1.1069 -0.6564 -0.0994
  407MOL0     O54846   9.029   8.569   7.540  0.8108 -1.1656  0.3459
  407MOL0     C54847   9.046   8.693   7.478  0.2387 -0.1202  0.6548
  407MOL0     C54848   9.104   8.692   7.335  0.8102  0.2949  0.9522
  407MOL0     C54849   9.034   8.601   7.243  0.8472  0.1063  0.1667
  407MOL0     C54850   9.030   8.641   7.092 -0.4649  0.0046 -0.0497
  407MOL0     C54851   8.972   8.522   7.018  0.1177 -0.8166  0.1417
  407MOL0     C54852   9.067   8.469   6.916 -0.6335 -1.0498  0.2133
  407MOL0     C54853   8.991   8.363   6.836 -1.0259  0.0256  0.7059
  407MOL0     C54854   9.081   8.287   6.741 -0.7774 -0.0396 -0.0801
  407MOL0    Cl54855   9.004   8.142   6.666  0.1084  0.2244  0.1224
  407MOL0     C54856   9.112   8.374   7.645  0.0814 -0.4113  0.1661
  407MOL0     C54857   9.202   8.296   7.718  0.0462 -0.0564 -0.8664
  407MOL0     O54858   9.622   8.282   7.696  0.0322  0.0352  0.4668
  407MOL0     C54859   9.477   8.079   7.972 -0.2968  0.0978 -0.0871
  407MOL0     C54860   9.500   7.986   8.074 -0.5244 -0.1915  0.9291
  407MOL0     N54861   9.712   7.820   8.821  0.3092  0.8644  0.1623
  407MOL0     N54862   9.780   7.875   8.912  0.3252 -0.4086  0.8038
  407MOL0     C54863  10.664   8.215   9.854  0.4992  0.3712  0.0143
  407MOL0     C54864  10.750   8.145   9.943 -0.0156  0.5189  0.1966
  407MOL0     C54865  11.025   7.853  10.160  0.2066 -0.6762 -0.2547
  407MOL0     C54866  11.162   7.834  10.158  0.2999 -0.0873 -0.1316
  407MOL0     C54867  11.218   7.738  10.236 -0.5311 -0.2557 -0.1177
  407MOL0     C54868  11.142   7.674  10.337 -0.3329 -0.1077  0.6722
  407MOL0     O54869  11.203   7.574  10.409  0.8745  0.5731  0.1201
  407MOL0     C54870  11.120   7.486  10.494  1.0330 -0.3746  0.0715
  407MOL0     C54871  11.209   7.400  10.577 -0.0560  1.0680 -0.4217
  407MOL0     C54872  11.273   7.476  10.700 -0.0882  0.4958 -0.6225
  407MOL0     C54873  11.367   7.382  10.775 -0.8808  0.6681 -0.4787
  407MOL0     C54874  11.297   7.260  10.833 -0.5231  0.9621 -0.0754
  407MOL0     C54875  11.236   7.171  10.891 -0.5088 -0.4034 -0.0520
  407MOL0     C54876  11.000   7.689  10.334 -0.8863  0.5901 -0.5337
  407MOL0     C54877  10.947   7.781  10.246 -0.7227 -0.0977 -0.1088
  407MOL0     H54878  10.695   7.824   9.863  0.5188 -0.1561  0.4285
  407MOL0     H54879  10.552   7.913   9.708 -0.8622  1.2265 -2.8421
  407MOL0     H54880  10.485   8.096   9.474 -1.6896 -1.5001 -0.7032
  407MOL0     H54881  10.404   8.010   9.599  0.0012 -0.4331 -1.5533
  407MOL0     H54882  10.270   8.219   9.652 -0.8283  0.5367 -0.2300
  407MOL0     H54883  10.323   8.288   9.509  0.6905 -0.2573 -0.4415
  407MOL0     H54884  10.153   8.049   9.546  0.6554  2.9929  3.2556
  407MOL0     H54885  10.112   8.196   9.451 -0.6579 -0.4968  0.3126
  407MOL0     H54886  10.286   8.161   9.292  2.4277 -0.7977 -0.3029
  407MOL0     H54887  10.317   7.999   9.349 -1.8318 -3.0034 -2.7181
  407MOL0     H54888  10.102   7.926   9.281 -5.7825  0.6554 -1.8909
  407MOL0     H54889  10.043   8.093   9.250  1.7675  1.7307  1.6719
  407MOL0     H54890  10.218   8.112   9.066 -0.4871 -0.0655 -0.0419
  407MOL0     H54891  10.267   7.942   9.107  1.2558  0.0251  2.2053
  407MOL0     H54892  10.008   8.060   8.977 -1.6876 -2.4622 -0.8299
  407MOL0     H54893  10.121   7.944   8.907  2.8431 -0.3459  1.3278
  407MOL0     H54894   9.927   7.874   9.115  0.3670  2.8394  0.1236
  407MOL0     H54895  10.054   7.766   9.051  1.0250  1.8769  3.5705
  407MOL0     H54896  10.024   7.715   8.771  1.6348  0.6245  3.5035
  407MOL0     H54897   9.861   7.668   8.551 -0.2015  2.6163 -0.2660
  407MOL0     H54898   9.715   7.590   8.624  0.7547 -0.2728 -1.3526
  407MOL0     H54899   9.763   7.853   8.497 -0.6468  1.4796  0.9532
  407MOL0     H54900   9.613   7.833   8.573  0.4692  0.5517  0.4281
  407MOL0     H54901   9.535   7.657   8.421 -0.2289 -0.2963 -0.7303
  407MOL0     H54902   9.697   7.656   8.342 -2.7635 -1.9519 -1.0848
  407MOL0     H54903   9.511   7.896   8.325 -1.6606 -1.6789  2.6619
  407MOL0     H54904   9.518   7.764   8.219 -3.6325  3.3537  0.4126
  407MOL0     H54905   9.845   8.001   8.060  0.8209 -0.6900 -3.0280
  407MOL0     H54906   9.923   8.153   7.893 -0.0622  1.2991 -1.6893
  407MOL0     H54907   9.835   8.127   7.746 -0.6106  1.6504 -1.5402
  407MOL0     H54908   9.811   8.276   7.838 -0.5245  0.1027 -1.4443
  407MOL0     H54909   9.475   8.517   7.679 -0.3786 -0.3646  0.4317
  407MOL0     H54910   9.301   8.641   7.546 -2.4845  0.1041 -0.6136
  407MOL0     H54911   8.947   8.736   7.463  0.7554  0.8272 -0.2229
  407MOL0     H54912   9.113   8.752   7.542  1.1353 -0.2106 -0.1699
  407MOL0     H54913   9.104   8.793   7.295  2.3815  0.2136  0.6733
  407MOL0     H54914   9.205   8.649   7.342 -0.0496 -1.6574  2.4240
  407MOL0     H54915   8.932   8.579   7.276  1.0893 -0.9314  0.2706
  407MOL0     H54916   9.077   8.500   7.247 -0.9758 -0.7768 -1.1787
  407MOL0     H54917   8.979   8.736   7.074  1.0276  0.3758 -2.9909
  407MOL0     H54918   9.131   8.660   7.055  0.3563 -3.4760  0.0627
  407MOL0     H54919   8.879   8.549   6.968  1.0230 -0.0651 -1.1969
  407MOL0     H54920   8.948   8.444   7.091  0.2504  1.7568  3.1585
  407MOL0     H54921   9.090   8.548   6.844 -1.0880 -0.6782  0.4730
  407MOL0     H54922   9.155   8.427   6.966 -0.5220  0.9644  1.8578
  407MOL0     H54923   8.926   8.413   6.763 -2.1659 -0.1241  1.5950
  407MOL0     H54924   8.942   8.292   6.903 -0.7680  0.2112  1.0954
  407MOL0     H54925   9.166   8.255   6.802 -2.0394  0.2448  1.9380
  407MOL0     H54926   9.129   8.356   6.671 -0.2174 -0.5465 -0.2047
  407MOL0     H54927   9.008   8.342   7.640 -0.2506  0.8246 -2.7778
  407MOL0     H54928   9.168   8.199   7.751 -0.5701  0.7618  1.0526
  407MOL0     H54929   9.374   8.103   7.946  0.0050  1.4186 -0.1408
  407MOL0     H54930   9.417   7.941   8.126  1.4960 -0.3149  4.3514
  407MOL0     H54931  10.648   8.322   9.858  0.6915  0.3833  0.6635
  407MOL0     H54932  10.797   8.214  10.012 -0.2185  3.1853 -2.1441
  407MOL0     H54933  11.231   7.875  10.085  0.8101 -2.3952 -1.0245
  407MOL0     H54934  11.326   7.726  10.238  0.0233  3.4773 -0.5868
  407MOL0     H54935  11.052   7.535  10.565 -1.0301  0.4117 -2.2701
  407MOL0     H54936  11.060   7.415  10.436 -1.1434 -0.2081  1.9593
  407MOL0     H54937  11.286   7.364  10.509 -0.6936  2.2004 -1.8080
  407MOL0     H54938  11.159   7.308  10.607 -0.2277  1.3797  0.2776
  407MOL0     H54939  11.207   7.509  10.781 -0.5468 -1.2094 -0.2779
  407MOL0     H54940  11.324   7.567  10.665 -2.8184  2.6296  0.6049
  407MOL0     H54941  11.412   7.442  10.855  0.9033 -0.3108 -0.6779
  407MOL0     H54942  11.450   7.359  10.708  0.4389  1.2270  0.8916
  407MOL0     H54943  11.178   7.096  10.943 -2.1206 -1.5866 -3.3004
  407MOL0     H54944  10.930   7.642  10.403  1.3999 -0.2283  1.3644
  407MOL0     H54945  10.840   7.792  10.233 -0.7563  0.2906  0.4562
  408MOL0     O54946   1.629   3.471   6.461 -0.6251  0.2975  0.3084
  408MOL0     C54947   1.601   3.365   6.517  0.0358  0.2455 -0.1950
  408MOL0     O54948   1.555   3.352   6.641 -0.2225 -0.0934  0.1879
  408MOL0     C54949   1.550   3.456   6.733  0.5374 -1.0315  0.0925
  408MOL0     C54950   1.646   3.478   6.834  0.7330 -0.5377  1.1326
  408MOL0     C54951   1.635   3.577   6.933 -0.3211  0.0964  0.3367
  408MOL0     C54952   1.525   3.664   6.930  0.5974  0.3924  0.3901
  408MOL0     O54953   1.499   3.743   7.043 -0.2574 -0.1227  0.4601
  408MOL0     C54954   1.501   3.877   7.009  0.4158  0.1530  0.3254
  408MOL0     C54955   1.580   3.957   7.111  0.4963 -0.5067 -0.3431
  408MOL0     C54956   1.539   4.108   7.103 -0.1900 -0.1176 -0.0211
  408MOL0     C54957   1.496   4.176   7.229  0.5894  0.3849 -0.8513
  408MOL0     C54958   1.583   4.133   7.344 -0.2903 -0.6423 -0.1086
  408MOL0     C54959   1.628   4.250   7.437 -0.3474  0.1687  0.4428
  408MOL0     C54960   1.510   4.297   7.523 -1.1844  0.3292  0.1783
  408MOL0     C54961   1.571   4.369   7.632  0.0587 -0.4017  0.0803
  408MOL0     N54962   1.647   4.287   7.718  1.1961  0.1120 -0.1276
  408MOL0     C54963   1.778   4.300   7.748 -0.5959  0.5651 -0.5705
  408MOL0     C54964   1.792   4.218   7.852 -0.1990 -0.4743  0.5468
  408MOL0     C54965   1.913   4.205   7.929  0.0856  0.5324  0.8069
  408MOL0     C54966   1.935   4.328   8.012 -0.3710 -0.3834 -0.1970
  408MOL0     C54967   2.060   4.318   8.110  0.5840 -0.3651 -0.9452
  408MOL0     C54968   2.193   4.351   8.039 -0.2990 -0.1243 -0.2306
  408MOL0     O54969   2.296   4.356   8.133  0.0984 -0.2365  0.6445
  408MOL0     C54970   2.387   4.257   8.160 -0.6663 -0.0509  0.6164
  408MOL0     C54971   2.508   4.303   8.216  0.4780 -0.6799  0.3100
  408MOL0     C54972   2.613   4.216   8.253 -0.0003 -0.6560 -0.7370
  408MOL0     C54973   2.741   4.279   8.321  0.6297  0.8463 -1.0327
  408MOL0     C54974   2.602   4.080   8.221  0.2798  0.4842 -0.3456
  408MOL0     C54975   2.697   3.977   8.257 -0.3470 -0.3136 -0.1696
  408MOL0     O54976   2.664   3.845   8.237  0.7444 -0.4335  0.8477
  408MOL0     C54977   2.743   3.743   8.274  0.0474  0.4214 -1.0826
  408MOL0     C54978   2.858   3.691   8.214 -0.6062 -0.5988  0.2384
  408MOL0     C54979   2.926   3.569   8.251 -0.6004 -0.5425  0.1582
  408MOL0     C54980   2.858   3.486   8.344 -0.1832 -0.5546  0.2125
  408MOL0     O54981   2.906   3.358   8.344 -0.3014 -0.2969 -0.1033
  408MOL0     C54982   2.920   3.300   8.474  1.0036 -0.1561 -1.3135
  408MOL0     C54983   3.046   3.353   8.546 -0.2793  0.1474  0.6588
  408MOL0     C54984   3.081   3.281   8.671  0.9612 -0.8443 -0.2534
  408MOL0     C54985   3.195   3.358   8.740 -0.0313 -0.4467 -0.2298
  408MOL0     C54986   3.268   3.260   8.845 -0.2736 -0.4344  0.6927
  408MOL0     C54987   3.371   3.163   8.786  0.7937  0.2864 -0.0181
  408MOL0     C54988   3.468   3.082   8.879  0.8642  0.2493  0.0887
  408MOL0     C54989   3.499   2.942   8.841 -0.6470  0.1293  0.0292
  408MOL0    Cl54990   3.620   2.914   8.703  0.0628  0.2046  0.0145
  408MOL0     C54991   2.736   3.530   8.401  0.3166  0.2628 -0.7637
  408MOL0     C54992   2.687   3.655   8.372  0.2447 -0.2737 -0.7236
  408MOL0     O54993   2.808   4.008   8.295 -0.6047 -0.5010  0.5256
  408MOL0     C54994   2.481   4.040   8.165  0.4016  0.6554  0.3262
  408MOL0     C54995   2.374   4.123   8.132 -1.0401  0.3303 -0.2620
  408MOL0     N54996   1.676   4.168   7.896  0.5088 -0.1265  0.1326
  408MOL0     N54997   1.587   4.219   7.819 -0.3256 -0.7254  0.0843
  408MOL0     C54998   1.422   3.651   6.834 -0.0810 -0.0248  0.5178
  408MOL0     C54999   1.429   3.544   6.741 -0.4921  0.2489 -0.1601
  408MOL0     C55000   1.598   3.241   6.443 -0.0272 -0.3374  0.0896
  408MOL0     C55001   1.617   3.242   6.305 -0.1610 -0.2529  0.1253
  408MOL0     C55002   1.600   3.124   6.231 -0.9999 -0.5943  0.1470
  408MOL0     C55003   1.579   3.003   6.284  1.0434  0.2300 -1.2518
  408MOL0     O55004   1.593   2.893   6.205  0.0323 -0.4501 -0.0597
  408MOL0     C55005   1.504   2.775   6.238  0.7403  0.2265 -0.0573
  408MOL0     C55006   1.597   2.668   6.326  0.6960  0.7669 -0.3267
  408MOL0     C55007   1.532   2.526   6.340  0.1693 -0.1743  0.4881
  408MOL0     C55008   1.615   2.425   6.414  0.0854  0.0895  0.0177
  408MOL0     C55009   1.650   2.482   6.543  0.0830  0.3307  0.4088
  408MOL0     C55010   1.695   2.520   6.654  0.8819  0.4791  0.5228
  408MOL0     C55011   1.553   2.999   6.422 -0.3349  0.4920  0.0651
  408MOL0     C55012   1.566   3.119   6.502  0.2708 -0.0121 -0.0431
  408MOL0     H55013   1.721   3.401   6.851 -0.5406 -3.4956 -4.2272
  408MOL0     H55014   1.707   3.578   7.015  0.0457  0.3511  0.0163
  408MOL0     H55015   1.542   3.908   6.913 -2.0578  2.8217 -0.0190
  408MOL0     H55016   1.401   3.919   7.026  0.2008 -0.4242  0.5029
  408MOL0     H55017   1.562   3.918   7.211 -1.4446 -0.5285 -0.6719
  408MOL0     H55018   1.689   3.956   7.096  0.2084 -2.4705 -2.9918
  408MOL0     H55019   1.630   4.161   7.071 -0.0155  0.9585  2.1203
  408MOL0     H55020   1.461   4.125   7.029 -2.5894 -2.2485  1.8652
  408MOL0     H55021   1.499   4.285   7.223  0.2800  0.5047  0.7891
  408MOL0     H55022   1.399   4.136   7.261  1.4143  0.7656  2.4182
  408MOL0     H55023   1.547   4.051   7.407 -1.2766  0.4812  0.8546
  408MOL0     H55024   1.680   4.099   7.307  1.0806  1.8926  0.8372
  408MOL0     H55025   1.703   4.205   7.503 -0.6456  1.7362  1.9405
  408MOL0     H55026   1.675   4.331   7.381  1.4466 -1.6506 -0.8196
  408MOL0     H55027   1.442   4.357   7.462  0.6125  0.0440 -2.2280
  408MOL0     H55028   1.455   4.211   7.564 -3.5396  0.7168 -1.9239
  408MOL0     H55029   1.492   4.415   7.692 -0.8668 -1.0024 -0.6399
  408MOL0     H55030   1.625   4.459   7.601 -3.9649  2.1427 -0.2649
  408MOL0     H55031   1.846   4.374   7.707 -1.3486  2.3842  1.2793
  408MOL0     H55032   1.897   4.121   7.997 -1.5818  0.0603 -0.1314
  408MOL0     H55033   1.991   4.190   7.854 -1.7179  1.2875 -1.2957
  408MOL0     H55034   1.853   4.336   8.085  0.4703 -0.8232  0.8246
  408MOL0     H55035   1.952   4.414   7.947 -1.7196 -1.9734 -2.8516
  408MOL0     H55036   2.066   4.220   8.157  1.9866 -1.1091 -2.5487
  408MOL0     H55037   2.054   4.392   8.191  0.9091 -0.5966 -0.7070
  408MOL0     H55038   2.186   4.451   7.996 -3.8509 -0.5452 -0.9657
  408MOL0     H55039   2.209   4.272   7.965  0.5707 -0.6855  0.5353
  408MOL0     H55040   2.517   4.410   8.231  0.3523 -0.0779 -3.1041
  408MOL0     H55041   2.757   4.229   8.417 -0.8138  1.0172 -0.6830
  408MOL0     H55042   2.835   4.267   8.265  1.7646  1.1213  0.7318
  408MOL0     H55043   2.721   4.384   8.341 -3.5973  1.0778 -4.8512
  408MOL0     H55044   2.904   3.741   8.129 -2.9979 -1.5330 -1.7430
  408MOL0     H55045   3.023   3.539   8.213  0.4596  2.9003 -0.1844
  408MOL0     H55046   2.832   3.317   8.536  2.3801  2.2678  0.1193
  408MOL0     H55047   2.917   3.191   8.459 -0.9929  0.0011 -2.3834
  408MOL0     H55048   3.128   3.358   8.475 -0.7261  2.0885  0.2423
  408MOL0     H55049   3.029   3.458   8.570  2.0540  0.8354 -0.4422
  408MOL0     H55050   3.106   3.180   8.637 -0.9310 -2.1799  1.9990
  408MOL0     H55051   3.003   3.283   8.747  1.8713 -0.7775  0.6879
  408MOL0     H55052   3.263   3.393   8.662 -1.2300 -3.1411 -2.6434
  408MOL0     H55053   3.158   3.445   8.796 -2.3579 -1.4643 -0.0563
  408MOL0     H55054   3.192   3.196   8.891  0.3185 -0.5770  1.5049
  408MOL0     H55055   3.306   3.313   8.934 -1.5532  0.3836  0.7750
  408MOL0     H55056   3.312   3.087   8.734  3.8077 -1.0112 -1.7754
  408MOL0     H55057   3.427   3.222   8.713  4.8120  0.7598  3.1356
  408MOL0     H55058   3.427   3.074   8.980  2.6340  1.4802  0.9533
  408MOL0     H55059   3.554   3.149   8.875  0.5308  0.7561  0.9518
  408MOL0     H55060   3.405   2.899   8.806 -1.2834 -1.9543  3.7495
  408MOL0     H55061   3.517   2.888   8.935  0.4091  0.3165 -0.0492
  408MOL0     H55062   2.681   3.462   8.464  0.1861  1.4056  0.4002
  408MOL0     H55063   2.590   3.686   8.408  0.6008  1.1112 -0.9001
  408MOL0     H55064   2.456   3.934   8.158 -1.1421  1.0937 -1.3766
  408MOL0     H55065   2.282   4.079   8.094 -1.0076  0.9411 -1.0819
  408MOL0     H55066   1.332   3.710   6.822  0.0745 -0.0126 -0.6610
  408MOL0     H55067   1.350   3.523   6.669 -1.4127  0.7149  0.7017
  408MOL0     H55068   1.644   3.334   6.255  1.9881  0.2017  1.9663
  408MOL0     H55069   1.605   3.123   6.122  4.4836 -4.1903  0.0683
  408MOL0     H55070   1.418   2.809   6.296  0.1227  1.6277 -1.6993
  408MOL0     H55071   1.469   2.724   6.148  1.0284  0.2822 -0.2021
  408MOL0     H55072   1.606   2.710   6.427  0.8971 -2.6303  1.2290
  408MOL0     H55073   1.700   2.658   6.292  1.6838 -1.5064  2.8236
  408MOL0     H55074   1.524   2.465   6.249  0.7090 -0.2749  0.5076
  408MOL0     H55075   1.434   2.541   6.388  0.8231  0.5724  1.6380
  408MOL0     H55076   1.698   2.384   6.356 -2.6661 -3.5950 -1.7582
  408MOL0     H55077   1.550   2.337   6.423 -0.1838  0.2887  0.0327
  408MOL0     H55078   1.733   2.555   6.748  1.7655 -1.6904  1.0347
  408MOL0     H55079   1.516   2.912   6.476 -3.5840  1.1703 -0.8224
  408MOL0     H55080   1.571   3.119   6.611  3.1416 -2.5318 -0.0509
  409MOL0     O55081   3.211   8.710   4.906  0.0065  0.4002 -0.1576
  409MOL0     C55082   3.203   8.771   4.805  0.5752  0.9658  0.5697
  409MOL0     O55083   3.131   8.732   4.693 -0.4342 -0.5540 -0.1928
  409MOL0     C55084   3.060   8.613   4.698  0.0772 -0.3333 -0.6309
  409MOL0     C55085   3.126   8.499   4.651  0.3961 -0.9448 -0.5709
  409MOL0     C55086   3.061   8.374   4.668  0.4388 -0.0063  0.9730
  409MOL0     C55087   2.934   8.368   4.729 -0.5020  0.2322 -0.0087
  409MOL0     O55088   2.874   8.250   4.745  0.1531  0.3479  0.5656
  409MOL0     C55089   2.876   8.204   4.881  0.3355 -0.4721  0.3497
  409MOL0     C55090   2.888   8.056   4.881  0.0184 -0.5899  0.2454
  409MOL0     C55091   2.894   7.989   5.015  0.0651  0.3178  0.9257
  409MOL0     C55092   3.028   7.939   5.066  1.3121 -0.5538  0.1836
  409MOL0     C55093   3.133   8.046   5.084  0.2737  0.4013  0.3562
  409MOL0     C55094   3.123   8.143   5.209 -0.0630 -0.0700  0.1592
  409MOL0     C55095   3.141   8.068   5.344 -0.3406  0.4223 -0.7286
  409MOL0     C55096   3.020   8.001   5.408 -0.3532 -0.8376 -0.9137
  409MOL0     N55097   2.954   8.082   5.504  0.0738 -0.9415  0.5333
  409MOL0     C55098   2.918   8.217   5.494  0.3711  0.2055  0.7382
  409MOL0     C55099   2.877   8.254   5.618 -0.1031 -0.3103  0.1452
  409MOL0     C55100   2.830   8.389   5.658 -0.1559  1.1417 -0.8935
  409MOL0     C55101   2.944   8.490   5.647 -0.4361 -0.0735  1.3943
  409MOL0     C55102   3.049   8.456   5.757 -0.1785 -0.4727 -0.3874
  409MOL0     C55103   3.133   8.576   5.782 -0.6492 -0.5699  0.0408
  409MOL0     O55104   3.240   8.540   5.868  0.1908  0.3610  0.2378
  409MOL0     C55105   3.355   8.623   5.879  0.3945 -0.8676 -0.4412
  409MOL0     C55106   3.386   8.742   5.809  0.5873  0.0067 -0.6438
  409MOL0     C55107   3.514   8.805   5.824 -0.3681  0.7670 -0.6447
  409MOL0     C55108   3.543   8.911   5.720  0.0175 -0.1107 -0.2846
  409MOL0     C55109   3.606   8.751   5.914 -0.7268  0.5982 -0.3132
  409MOL0     C55110   3.734   8.817   5.955  1.0453 -0.5885 -0.7216
  409MOL0     O55111   3.752   8.951   5.924  0.3867 -0.1423  0.5060
  409MOL0     C55112   3.850   9.033   5.987 -0.7108  0.2708  0.6059
  409MOL0     C55113   3.886   9.159   5.933 -0.0779 -0.0912 -0.0470
  409MOL0     C55114   4.007   9.223   5.983 -0.1757 -0.4020  0.4458
  409MOL0     C55115   4.091   9.169   6.083  0.1510 -0.2447 -0.9896
  409MOL0     O55116   4.189   9.247   6.123 -0.5900  0.1037 -1.4079
  409MOL0     C55117   4.284   9.198   6.226  0.2291  0.0202  0.4450
  409MOL0     C55118   4.238   9.241   6.364 -0.4795 -0.0199  0.7983
  409MOL0     C55119   4.324   9.201   6.480 -0.2879 -0.2815  0.5302
  409MOL0     C55120   4.322   9.047   6.504  0.0299  0.1285 -0.1369
  409MOL0     C55121   4.431   9.016   6.605 -0.7228  0.1703  0.1759
  409MOL0     C55122   4.411   9.103   6.732 -0.0242  0.6973 -0.3774
  409MOL0     C55123   4.494   9.047   6.840  0.0811  0.3400 -0.0098
  409MOL0     C55124   4.642   9.076   6.821 -0.0254 -0.2612  0.1025
  409MOL0    Cl55125   4.731   9.009   6.957  0.2241 -0.1287  0.7128
  409MOL0     C55126   4.050   9.047   6.146 -0.5758 -0.3548  1.6804
  409MOL0     C55127   3.938   8.988   6.092  0.1677  0.7988  0.1556
  409MOL0     O55128   3.816   8.743   5.994 -0.0147 -0.2240 -0.2963
  409MOL0     C55129   3.573   8.632   5.973  0.3203  0.1930  0.3272
  409MOL0     C55130   3.450   8.574   5.954 -0.6457 -0.7308 -0.4951
  409MOL0     N55131   2.868   8.142   5.692  0.4174  1.3511  0.5353
  409MOL0     N55132   2.915   8.041   5.631  0.0490  0.6262 -0.0512
  409MOL0     C55133   2.861   8.485   4.768 -0.6011  0.6679 -1.2064
  409MOL0     C55134   2.934   8.609   4.755 -0.3424  0.0494 -0.4799
  409MOL0     C55135   3.288   8.893   4.806  0.9384 -0.7954  0.6659
  409MOL0     C55136   3.382   8.907   4.908 -0.5633  0.3246 -0.4627
  409MOL0     C55137   3.471   9.008   4.905 -0.0636 -0.0232 -0.2187
  409MOL0     C55138   3.458   9.107   4.805 -1.1889  0.5814 -0.2838
  409MOL0     O55139   3.551   9.210   4.790 -0.2570 -0.5528 -0.1582
  409MOL0     C55140   3.679   9.204   4.855 -0.7774 -0.0404 -0.3312
  409MOL0     C55141   3.768   9.104   4.786  0.7599 -0.5438  0.6316
  409MOL0     C55142   3.918   9.139   4.800  0.5560 -0.5806  0.0637
  409MOL0     C55143   3.961   9.152   4.948  0.1826 -0.9020  0.2316
  409MOL0     C55144   4.106   9.161   4.959 -0.8827 -0.1716  0.9890
  409MOL0     C55145   4.219   9.174   4.960 -0.5427  0.0951  0.3371
  409MOL0     C55146   3.366   9.104   4.709  0.2602 -0.5049 -0.6279
  409MOL0     C55147   3.286   8.991   4.700 -0.2266 -0.0699  0.4319
  409MOL0     H55148   3.220   8.496   4.596 -0.3401  0.7737 -2.0262
  409MOL0     H55149   3.118   8.288   4.636 -0.9212 -0.1206 -1.3358
  409MOL0     H55150   2.953   8.242   4.950  1.3998 -1.2996 -0.3447
  409MOL0     H55151   2.779   8.241   4.915  0.2657  1.5864 -1.8351
  409MOL0     H55152   2.810   8.017   4.815 -1.0301  1.4735  0.2134
  409MOL0     H55153   2.982   8.028   4.832  0.4193  0.4750  0.3801
  409MOL0     H55154   2.847   8.047   5.095 -2.0618  0.4781 -0.3850
  409MOL0     H55155   2.827   7.903   5.005  1.4917 -0.6999 -0.3599
  409MOL0     H55156   3.026   7.875   5.155 -1.5761 -0.1445  0.4884
  409MOL0     H55157   3.068   7.877   4.985 -1.2988 -0.6460 -1.1363
  409MOL0     H55158   3.227   7.990   5.093 -0.6682 -1.2623  0.2439
  409MOL0     H55159   3.150   8.097   4.989  1.4553 -2.2593 -0.9809
  409MOL0     H55160   3.193   8.226   5.197  1.1204 -1.0185  0.4365
  409MOL0     H55161   3.033   8.204   5.227 -1.5166 -2.0958  0.0317
  409MOL0     H55162   3.222   7.995   5.341 -0.9945 -0.5051  1.8438
  409MOL0     H55163   3.165   8.143   5.419  0.3904 -2.5903  2.2567
  409MOL0     H55164   3.055   7.914   5.464  1.6651 -0.8875 -2.1447
  409MOL0     H55165   2.942   7.974   5.336 -2.2290  0.1255  0.6447
  409MOL0     H55166   2.919   8.283   5.407  0.4844 -2.0725 -1.0915
  409MOL0     H55167   2.742   8.405   5.595 -2.3176  2.9226  2.2595
  409MOL0     H55168   2.793   8.390   5.762  2.6889 -1.3752  0.2896
  409MOL0     H55169   2.910   8.594   5.655 -2.8578 -0.3234 -2.6919
  409MOL0     H55170   2.985   8.485   5.546 -2.0722 -2.2696  0.7495
  409MOL0     H55171   3.115   8.374   5.725 -0.1500 -0.6961  0.2316
  409MOL0     H55172   3.013   8.424   5.855  2.7503  0.6932  1.1974
  409MOL0     H55173   3.069   8.653   5.826 -1.6540 -1.6926  0.5738
  409MOL0     H55174   3.174   8.617   5.689  2.2360 -2.5645  0.2892
  409MOL0     H55175   3.308   8.786   5.749  0.8737  1.8999  0.2936
  409MOL0     H55176   3.561   9.011   5.760  0.4188 -0.5674  0.7045
  409MOL0     H55177   3.647   8.888   5.696  0.3335  1.2120 -0.2704
  409MOL0     H55178   3.481   8.912   5.630 -1.2192 -2.7683  0.4409
  409MOL0     H55179   3.830   9.193   5.847 -0.7718 -0.1496  0.3770
  409MOL0     H55180   4.044   9.310   5.930  0.5299 -0.4068  0.9204
  409MOL0     H55181   4.294   9.089   6.221 -0.9141 -0.1256  1.1352
  409MOL0     H55182   4.387   9.230   6.209 -0.1030  1.6823  1.3878
  409MOL0     H55183   4.225   9.349   6.358  0.4174  0.0263 -0.6431
  409MOL0     H55184   4.138   9.197   6.370 -1.0989  0.8452 -1.9022
  409MOL0     H55185   4.276   9.245   6.568 -1.9062  1.4039 -1.1209
  409MOL0     H55186   4.428   9.225   6.454  0.9343 -2.8703  2.4897
  409MOL0     H55187   4.226   9.012   6.543 -0.8962 -0.9162 -3.0366
  409MOL0     H55188   4.338   8.990   6.412  0.8138 -1.9370  1.2093
  409MOL0     H55189   4.524   9.051   6.560 -1.4487  1.6758 -0.2384
  409MOL0     H55190   4.441   8.909   6.628  0.7080  0.9747  4.1125
  409MOL0     H55191   4.435   9.208   6.712 -3.2536  1.1138 -2.9583
  409MOL0     H55192   4.305   9.111   6.758 -0.3600  1.6579 -1.8956
  409MOL0     H55193   4.473   8.942   6.857  2.2742 -0.1939 -0.3364
  409MOL0     H55194   4.473   9.096   6.935 -1.1032 -1.7392  0.8401
  409MOL0     H55195   4.669   9.182   6.817 -0.4799 -0.0732  1.4423
  409MOL0     H55196   4.677   9.033   6.727 -0.4332  2.3105 -1.3183
  409MOL0     H55197   4.088   9.033   6.247 -1.8209  3.0417  2.7633
  409MOL0     H55198   3.916   8.897   6.148 -1.6714  0.9326 -0.2672
  409MOL0     H55199   3.641   8.572   6.033 -0.4701  0.0545  1.1089
  409MOL0     H55200   3.437   8.472   5.992  1.0273 -0.3655  1.2136
  409MOL0     H55201   2.763   8.484   4.815 -0.6172 -2.1354 -1.1387
  409MOL0     H55202   2.887   8.698   4.797  0.1059  1.4512 -2.7452
  409MOL0     H55203   3.374   8.837   4.991 -1.2391  1.2851  0.2968
  409MOL0     H55204   3.547   9.003   4.982  2.9652 -0.5463 -3.0586
  409MOL0     H55205   3.716   9.307   4.855 -0.2279 -0.2352 -0.4205
  409MOL0     H55206   3.666   9.178   4.960  1.3131  3.1516  0.8629
  409MOL0     H55207   3.735   9.092   4.682 -4.4463  0.5723  1.8679
  409MOL0     H55208   3.738   9.008   4.829 -2.0188  0.7672  1.8386
  409MOL0     H55209   3.945   9.230   4.745  4.0771 -0.9635  0.9283
  409MOL0     H55210   3.978   9.058   4.759  0.7470 -2.1812  3.1383
  409MOL0     H55211   3.929   9.059   4.994  0.1962 -1.0660 -0.0902
  409MOL0     H55212   3.911   9.236   4.998 -1.1291 -0.8992 -1.0197
  409MOL0     H55213   4.324   9.196   4.965 -0.6403  0.8633 -0.6157
  409MOL0     H55214   3.383   9.171   4.625  1.2035 -1.2007 -1.0093
  409MOL0     H55215   3.223   8.983   4.612 -2.6444  2.8768  1.6744
  410MOL0     O55216   7.499   0.859   9.330  0.3633 -0.2780  0.0252
  410MOL0     C55217   7.510   0.868   9.454 -1.1298 -0.0505 -0.3870
  410MOL0     O55218   7.568   0.976   9.518  1.0130 -0.2013 -0.0824
  410MOL0     C55219   7.652   1.065   9.458  0.4633  0.6316  0.6025
  410MOL0     C55220   7.743   1.033   9.353  0.5092  0.1410  0.0885
  410MOL0     C55221   7.808   1.126   9.281 -0.2432 -0.2138  0.0928
  410MOL0     C55222   7.790   1.268   9.309 -0.9954 -0.0113 -0.0909
  410MOL0     O55223   7.856   1.376   9.251 -0.3509 -0.2412 -0.5428
  410MOL0     C55224   7.893   1.362   9.112 -0.1020 -0.8468 -0.3952
  410MOL0     C55225   7.962   1.484   9.064 -0.3408 -0.6150 -0.2663
  410MOL0     C55226   7.999   1.484   8.913 -0.1280 -0.1352 -1.2889
  410MOL0     C55227   8.072   1.605   8.865  0.2429 -0.4072  0.0069
  410MOL0     C55228   7.987   1.735   8.868 -0.4752 -0.0043 -0.4252
  410MOL0     C55229   7.864   1.732   8.794 -0.0029  0.5880  0.1278
  410MOL0     C55230   7.792   1.866   8.773 -0.5060 -0.2206  0.1539
  410MOL0     C55231   7.878   1.965   8.686 -0.1309  0.3652 -0.4004
  410MOL0     N55232   7.920   1.920   8.550 -0.0938 -0.5104  1.2135
  410MOL0     C55233   8.023   1.829   8.533  0.1008  0.4812 -0.7763
  410MOL0     C55234   8.018   1.786   8.405  0.9713 -0.3494  0.2168
  410MOL0     C55235   8.093   1.674   8.343 -0.2788 -0.3390 -0.1579
  410MOL0     C55236   8.139   1.566   8.436  0.2231 -0.2584  1.2045
  410MOL0     C55237   8.192   1.446   8.349  0.1690 -0.0855 -0.1943
  410MOL0     C55238   8.298   1.357   8.403 -0.5485  0.0963 -1.0606
  410MOL0     O55239   8.262   1.289   8.527  0.1110  0.0877 -0.3934
  410MOL0     C55240   8.322   1.179   8.570 -0.8614  1.2208 -0.1748
  410MOL0     C55241   8.439   1.112   8.523 -0.4728 -0.6454 -0.5265
  410MOL0     C55242   8.477   0.985   8.576  0.7624  0.0999 -0.2347
  410MOL0     C55243   8.599   0.924   8.514  0.4940  0.2092 -0.3374
  410MOL0     C55244   8.410   0.935   8.685 -0.2412  0.5762  0.6300
  410MOL0     C55245   8.459   0.823   8.761  0.0478 -0.7062 -0.7974
  410MOL0     O55246   8.584   0.837   8.818 -0.7584 -0.5499 -0.3148
  410MOL0     C55247   8.612   0.753   8.928  0.6632 -0.1997 -0.1808
  410MOL0     C55248   8.641   0.821   9.048  0.3350  0.1861  0.6394
  410MOL0     C55249   8.688   0.751   9.162 -0.1424 -0.0843 -0.2421
  410MOL0     C55250   8.717   0.615   9.152  0.4759  0.3074 -0.4287
  410MOL0     O55251   8.787   0.536   9.236  0.2947  0.5439 -0.5893
  410MOL0     C55252   8.868   0.595   9.343  0.0234  0.4609  0.7410
  410MOL0     C55253   9.004   0.527   9.342 -0.2677 -0.0590  0.9038
  410MOL0     C55254   9.076   0.564   9.209 -0.5210  0.4703  1.3366
  410MOL0     C55255   9.202   0.487   9.196 -0.0910 -0.9545 -0.4101
  410MOL0     C55256   9.292   0.525   9.076  0.6545 -0.7602 -1.1845
  410MOL0     C55257   9.405   0.438   9.061  0.9185  0.3569  0.4990
  410MOL0     C55258   9.508   0.496   8.952  0.1556  0.9353 -0.2605
  410MOL0     C55259   9.454   0.530   8.809 -0.3677  1.2402  0.6703
  410MOL0    Cl55260   9.590   0.577   8.701 -0.6086 -0.0277  0.0216
  410MOL0     C55261   8.671   0.545   9.039  0.1630  0.2147 -0.1826
  410MOL0     C55262   8.622   0.611   8.929 -0.1209  0.2586  0.4435
  410MOL0     O55263   8.382   0.732   8.776 -1.0816 -0.2084 -0.6299
  410MOL0     C55264   8.293   0.998   8.725  0.9723  0.3469 -0.6714
  410MOL0     C55265   8.263   1.126   8.677  0.5750 -1.1126 -0.0279
  410MOL0     N55266   7.925   1.863   8.339 -0.3695  0.6646 -0.0975
  410MOL0     N55267   7.874   1.942   8.423  0.4893 -0.0196  0.0391
  410MOL0     C55268   7.707   1.299   9.412 -0.0691  0.4487 -0.0108
  410MOL0     C55269   7.630   1.203   9.488  0.0484  0.6012  0.4075
  410MOL0     C55270   7.437   0.764   9.537  0.1749 -0.2555  0.4448
  410MOL0     C55271   7.345   0.678   9.473 -0.2282 -0.2331  0.0684
  410MOL0     C55272   7.269   0.587   9.546 -0.1190  0.0520  0.2094
  410MOL0     C55273   7.288   0.569   9.689 -0.1877  0.8637  0.8218
  410MOL0     O55274   7.227   0.461   9.746  0.1177 -0.4494  0.6970
  410MOL0     C55275   7.252   0.440   9.882  0.6066  0.3517 -0.5294
  410MOL0     C55276   7.159   0.527   9.971  0.6171 -0.7861  0.4351
  410MOL0     C55277   7.007   0.490   9.947 -1.2777  0.4448  0.0875
  410MOL0     C55278   6.959   0.361   9.996  0.0868  0.3697 -0.0967
  410MOL0     C55279   7.013   0.330  10.130  0.5648 -0.2108  0.4048
  410MOL0     C55280   7.068   0.315  10.243 -0.1775 -0.1838  1.1267
  410MOL0     C55281   7.383   0.655   9.745  0.3279  1.3559 -0.1077
  410MOL0     C55282   7.452   0.754   9.677 -0.2756  0.2666  0.2505
  410MOL0     H55283   7.755   0.930   9.322  1.8724  0.1365  0.5834
  410MOL0     H55284   7.880   1.095   9.206  0.0046 -0.5925  0.4802
  410MOL0     H55285   7.958   1.275   9.103 -0.6079 -1.1112 -1.6903
  410MOL0     H55286   7.800   1.333   9.062 -0.6938 -1.4842  1.0138
  410MOL0     H55287   7.894   1.570   9.076  0.5117 -0.0645  0.8652
  410MOL0     H55288   8.053   1.512   9.118 -1.1194  1.9174 -0.1188
  410MOL0     H55289   8.059   1.393   8.906 -1.4280 -1.4338  2.1686
  410MOL0     H55290   7.906   1.468   8.857 -0.5078 -1.2595 -0.3839
  410MOL0     H55291   8.160   1.618   8.928 -0.1104 -2.0228  0.8792
  410MOL0     H55292   8.098   1.586   8.760 -1.3467  2.8397 -1.1248
  410MOL0     H55293   7.967   1.764   8.972  0.9751 -1.3636  0.2859
  410MOL0     H55294   8.049   1.816   8.827  2.7181 -2.7334 -1.4985
  410MOL0     H55295   7.884   1.684   8.698  0.6324  2.0624 -0.5063
  410MOL0     H55296   7.798   1.658   8.841  1.5535 -0.8088  0.2003
  410MOL0     H55297   7.701   1.850   8.713 -1.4402  1.4199  1.0600
  410MOL0     H55298   7.782   1.911   8.872  1.8855  2.8393 -0.8179
  410MOL0     H55299   7.974   1.988   8.733 -0.5864 -2.9110  2.6014
  410MOL0     H55300   7.818   2.056   8.690  1.6121  1.5885 -0.9901
  410MOL0     H55301   8.088   1.790   8.610  0.9900 -1.5030 -2.4219
  410MOL0     H55302   8.028   1.649   8.258  0.8155 -0.4008 -0.9938
  410MOL0     H55303   8.179   1.717   8.291  1.7208 -2.5226  1.1583
  410MOL0     H55304   8.052   1.537   8.496  0.3180 -1.1234  0.9247
  410MOL0     H55305   8.215   1.601   8.507 -0.5290  2.4196  0.8273
  410MOL0     H55306   8.243   1.491   8.263  1.1320  0.9856  0.8881
  410MOL0     H55307   8.105   1.389   8.316 -0.6231  1.8182 -1.5836
  410MOL0     H55308   8.389   1.414   8.424  0.4229 -0.4077 -3.5223
  410MOL0     H55309   8.315   1.277   8.330 -1.8902 -1.4420  0.2389
  410MOL0     H55310   8.487   1.163   8.439 -1.9327 -1.8160 -2.1497
  410MOL0     H55311   8.684   0.933   8.582  1.1638 -0.4108 -1.0703
  410MOL0     H55312   8.577   0.817   8.502 -1.0677  0.3892  0.5847
  410MOL0     H55313   8.621   0.958   8.413 -0.4292 -0.6100 -0.8343
  410MOL0     H55314   8.640   0.930   9.044  0.7352  0.1692 -0.3054
  410MOL0     H55315   8.707   0.801   9.256 -0.0422 -0.3054 -0.1431
  410MOL0     H55316   8.883   0.703   9.331 -1.9336  0.4850 -2.6804
  410MOL0     H55317   8.835   0.580   9.447 -1.0568  1.4018  0.5549
  410MOL0     H55318   9.068   0.579   9.414 -0.9047  0.9144  0.7776
  410MOL0     H55319   8.994   0.419   9.356  0.9363 -0.1635  1.1043
  410MOL0     H55320   9.092   0.672   9.200 -0.2842  0.3221 -0.6307
  410MOL0     H55321   9.018   0.549   9.117  1.7603  4.7005 -1.1276
  410MOL0     H55322   9.259   0.489   9.289 -1.3656 -1.1337  0.4014
  410MOL0     H55323   9.173   0.382   9.197 -1.3594 -0.6500  2.0644
  410MOL0     H55324   9.329   0.624   9.103  1.1777 -0.5322 -2.6942
  410MOL0     H55325   9.229   0.520   8.987 -1.3103  1.0698  0.0031
  410MOL0     H55326   9.449   0.433   9.160 -1.0618 -0.0250  1.4203
  410MOL0     H55327   9.390   0.336   9.024 -0.3253  0.0727  1.7064
  410MOL0     H55328   9.591   0.425   8.943 -0.6618 -0.4070  1.8822
  410MOL0     H55329   9.558   0.586   8.991 -0.2546  1.6697 -1.3959
  410MOL0     H55330   9.376   0.604   8.826 -1.8073  0.6608 -2.7497
  410MOL0     H55331   9.404   0.438   8.775 -0.2073  0.7177  1.7862
  410MOL0     H55332   8.698   0.441   9.026  0.4554  0.2328  0.2545
  410MOL0     H55333   8.604   0.554   8.838 -0.1190  0.7225  0.1485
  410MOL0     H55334   8.236   0.954   8.806 -2.0864 -1.4068 -3.5210
  410MOL0     H55335   8.174   1.181   8.707  1.9527  0.7785  0.7613
  410MOL0     H55336   7.687   1.405   9.428 -2.3497  0.0096  0.3380
  410MOL0     H55337   7.552   1.227   9.559  0.1687 -0.5852  0.9667
  410MOL0     H55338   7.323   0.696   9.368 -2.2306 -1.5859  0.1848
  410MOL0     H55339   7.212   0.520   9.482  1.8798  0.4412 -2.1372
  410MOL0     H55340   7.226   0.342   9.923 -4.8342  1.3176 -0.9969
  410MOL0     H55341   7.357   0.457   9.907  0.1046  0.5283  1.6637
  410MOL0     H55342   7.173   0.632   9.944  0.0445 -0.9462 -0.5211
  410MOL0     H55343   7.198   0.519  10.073  1.3262  0.0897  0.2414
  410MOL0     H55344   6.982   0.499   9.841 -0.0684  0.3780 -0.2249
  410MOL0     H55345   6.962   0.567  10.009 -2.9711 -0.1992 -0.2974
  410MOL0     H55346   6.980   0.290   9.916  0.7666 -1.0745  1.3044
  410MOL0     H55347   6.850   0.363  10.003 -0.1814 -5.2125  1.3521
  410MOL0     H55348   7.105   0.298  10.342 -0.0244  0.3039  1.1530
  410MOL0     H55349   7.411   0.671   9.849  2.3511  1.4197 -0.6259
  410MOL0     H55350   7.509   0.833   9.724 -0.3373  2.2939 -2.8039
  411MOL0     O55351   4.395   6.539   1.229  0.5213  0.4163  0.0987
  411MOL0     C55352   4.414   6.589   1.122  0.6669 -0.1827  0.9009
  411MOL0     O55353   4.348   6.690   1.074  0.2704 -0.0226 -0.9014
  411MOL0     C55354   4.266   6.766   1.152 -0.6642 -0.2468  0.2742
  411MOL0     C55355   4.310   6.895   1.172 -0.2157  0.0719  0.5469
  411MOL0     C55356   4.248   6.979   1.255 -0.2427 -0.0994 -1.3524
  411MOL0     C55357   4.141   6.937   1.334 -0.0650  0.1314  0.3898
  411MOL0     O55358   4.072   7.033   1.408 -0.0123 -0.4281 -0.8697
  411MOL0     C55359   3.926   7.013   1.422  0.9142  0.6949 -0.9959
  411MOL0     C55360   3.855   7.146   1.445 -0.1951 -0.3388 -0.2009
  411MOL0     C55361   3.873   7.241   1.327 -0.8058 -0.6726  0.3232
  411MOL0     C55362   3.785   7.224   1.213 -0.8813  0.4130  0.4927
  411MOL0     C55363   3.797   7.336   1.111 -0.4499  0.5794 -0.2026
  411MOL0     C55364   3.700   7.337   0.994  0.1169  0.7699 -0.4146
  411MOL0     C55365   3.734   7.457   0.912  0.1557 -0.3861 -0.0213
  411MOL0     C55366   3.673   7.428   0.772 -0.1459 -0.0068 -0.2600
  411MOL0     N55367   3.682   7.547   0.678  0.7062 -0.2425  0.2826
  411MOL0     C55368   3.578   7.641   0.666 -0.7107 -0.3384 -0.4909
  411MOL0     C55369   3.623   7.722   0.568 -0.1976 -0.0043 -0.4207
  411MOL0     C55370   3.560   7.843   0.525  0.1096  0.0381 -0.0971
  411MOL0     C55371   3.581   7.956   0.620  0.4025 -0.4561  0.6842
  411MOL0     C55372   3.534   8.090   0.586 -0.0195 -0.0295 -0.2571
  411MOL0     C55373   3.555   8.186   0.712  0.6691  0.2095  0.2769
  411MOL0     O55374   3.694   8.203   0.715 -0.2844  0.7419 -0.7690
  411MOL0     C55375   3.744   8.312   0.780 -0.5617  0.1535  0.6853
  411MOL0     C55376   3.872   8.360   0.745 -0.1619 -0.3068  0.7556
  411MOL0     C55377   3.919   8.466   0.809 -0.1215 -0.3828 -0.7885
  411MOL0     C55378   4.062   8.507   0.782 -0.0513 -0.4410  0.0665
  411MOL0     C55379   3.827   8.543   0.901 -0.3248  0.2070  0.3413
  411MOL0     C55380   3.878   8.655   0.993 -0.0085  0.1824 -0.3594
  411MOL0     O55381   3.789   8.752   1.043  0.6873 -0.3806 -0.3848
  411MOL0     C55382   3.834   8.849   1.130 -0.2761 -0.1872  0.0662
  411MOL0     C55383   3.955   8.917   1.130  0.4731 -0.4804  0.8007
  411MOL0     C55384   3.970   9.024   1.213  0.5304 -0.7771  0.5103
  411MOL0     C55385   3.868   9.071   1.307 -0.3860  0.5055  0.7537
  411MOL0     O55386   3.883   9.186   1.382 -1.2139  0.1826 -0.1340
  411MOL0     C55387   4.010   9.224   1.428 -0.0870  0.3454  0.3341
  411MOL0     C55388   4.012   9.280   1.568  1.4612  0.0466 -0.7143
  411MOL0     C55389   3.979   9.432   1.564  0.5414  0.2871 -0.5996
  411MOL0     C55390   3.829   9.445   1.598 -0.2523  0.2950 -0.6499
  411MOL0     C55391   3.752   9.586   1.592  0.4070 -0.3665  0.2591
  411MOL0     C55392   3.615   9.578   1.655 -0.0587  0.5466  0.4656
  411MOL0     C55393   3.539   9.713   1.639 -0.3265  0.0379 -0.6262
  411MOL0     C55394   3.617   9.832   1.684 -0.1017  1.3974 -0.0151
  411MOL0    Cl55395   3.639   9.813   1.869  0.1717 -0.1138 -0.1296
  411MOL0     C55396   3.755   8.996   1.307  0.4592  0.1971  0.7614
  411MOL0     C55397   3.727   8.895   1.216 -1.3645  0.5973 -0.0135
  411MOL0     O55398   4.003   8.652   1.013  0.9537 -0.1509  0.0607
  411MOL0     C55399   3.702   8.502   0.928  0.1429 -0.5893  0.5361
  411MOL0     C55400   3.662   8.391   0.861  0.1382  1.0057  0.1713
  411MOL0     N55401   3.750   7.683   0.526  0.1007  0.2018 -0.5395
  411MOL0     N55402   3.783   7.580   0.596 -0.2961  0.3867  0.1373
  411MOL0     C55403   4.097   6.803   1.322 -0.5154  0.5673 -0.6043
  411MOL0     C55404   4.160   6.716   1.225  0.6861  0.1274 -0.4023
  411MOL0     C55405   4.531   6.542   1.048 -0.1682  0.3304  0.4012
  411MOL0     C55406   4.592   6.604   0.935  0.0520  1.5671  0.2221
  411MOL0     C55407   4.725   6.577   0.908  0.3151 -0.5371  0.4699
  411MOL0     C55408   4.789   6.460   0.959  0.1809  0.5717  0.3034
  411MOL0     O55409   4.918   6.444   0.917  0.2264  0.5793  1.0172
  411MOL0     C55410   4.997   6.342   0.979  0.3544  0.8412 -0.5868
  411MOL0     C55411   5.144   6.355   0.935  0.1095 -0.3033  0.8070
  411MOL0     C55412   5.166   6.302   0.792  0.7421 -0.8043 -0.3532
  411MOL0     C55413   5.312   6.322   0.751  0.9938 -0.4795 -1.5122
  411MOL0     C55414   5.357   6.466   0.755  0.5626  0.5401  0.4145
  411MOL0     C55415   5.396   6.578   0.759 -0.0863  0.1091 -0.2688
  411MOL0     C55416   4.715   6.376   1.047 -0.5031 -0.0402  0.8104
  411MOL0     C55417   4.591   6.419   1.095  0.4213 -1.1155 -0.1027
  411MOL0     H55418   4.404   6.925   1.127 -0.8426  1.8805  0.3464
  411MOL0     H55419   4.281   7.080   1.279 -1.4730 -0.1413  0.8800
  411MOL0     H55420   3.881   6.967   1.333  1.0445  0.2803 -0.8503
  411MOL0     H55421   3.907   6.941   1.503 -1.6521 -0.4200 -2.4487
  411MOL0     H55422   3.750   7.122   1.467  0.8632 -2.8761  2.8908
  411MOL0     H55423   3.891   7.187   1.540  0.3101 -0.7720 -0.2019
  411MOL0     H55424   3.860   7.339   1.375  0.6375 -0.7066  0.8321
  411MOL0     H55425   3.975   7.236   1.288 -0.9610  1.5484 -0.5248
  411MOL0     H55426   3.802   7.132   1.156  0.6729  1.8698 -1.5500
  411MOL0     H55427   3.683   7.206   1.250  0.2483 -2.9503  2.3689
  411MOL0     H55428   3.791   7.429   1.168 -0.5175 -1.0954  2.6882
  411MOL0     H55429   3.902   7.328   1.079 -0.0433  0.1978  1.1512
  411MOL0     H55430   3.707   7.243   0.939  0.6824 -0.8634  2.2297
  411MOL0     H55431   3.597   7.345   1.029  0.0420  1.9216 -0.8698
  411MOL0     H55432   3.692   7.543   0.964 -1.0837 -0.7194 -0.4302
  411MOL0     H55433   3.843   7.462   0.903  0.0602  0.8647 -0.7010
  411MOL0     H55434   3.565   7.409   0.769 -0.2179  0.3261  0.1102
  411MOL0     H55435   3.728   7.347   0.724 -2.4751 -1.5307 -0.5306
  411MOL0     H55436   3.486   7.665   0.719  0.8249 -1.1679  2.7414
  411MOL0     H55437   3.593   7.861   0.422 -0.5557 -0.2930 -0.3775
  411MOL0     H55438   3.454   7.817   0.517  0.3019 -0.2595 -3.2647
  411MOL0     H55439   3.690   7.961   0.630  0.2340 -1.1543  3.7517
  411MOL0     H55440   3.543   7.929   0.719  0.4179  0.2746  0.8970
  411MOL0     H55441   3.429   8.072   0.560  0.5368 -1.4171 -1.6755
  411MOL0     H55442   3.596   8.131   0.505 -1.2445  1.7594 -0.3563
  411MOL0     H55443   3.525   8.147   0.809  0.5702 -2.1779 -0.6412
  411MOL0     H55444   3.508   8.284   0.696  0.1380  0.3684  2.5017
  411MOL0     H55445   3.936   8.301   0.679  2.0293  1.6898  0.9535
  411MOL0     H55446   4.081   8.612   0.756 -0.7477 -0.7313 -1.8247
  411MOL0     H55447   4.128   8.483   0.865 -2.2778 -0.7918  1.8107
  411MOL0     H55448   4.096   8.437   0.705 -1.0666 -1.7737  0.7960
  411MOL0     H55449   4.019   8.888   1.048 -2.8402  1.5711 -2.8610
  411MOL0     H55450   4.068   9.071   1.214  0.4186  0.0182 -4.0885
  411MOL0     H55451   4.072   9.135   1.438  2.5695  2.1300  0.8254
  411MOL0     H55452   4.060   9.292   1.358 -0.1107  1.3525  1.2636
  411MOL0     H55453   3.940   9.230   1.633 -1.0236  1.9836 -1.7879
  411MOL0     H55454   4.108   9.266   1.620  1.6784  2.8815 -0.1463
  411MOL0     H55455   3.996   9.464   1.461  2.2360 -0.1005 -0.4711
  411MOL0     H55456   4.045   9.485   1.634 -1.4519 -0.3949  1.9615
  411MOL0     H55457   3.775   9.382   1.528  2.0157 -1.0664 -1.2488
  411MOL0     H55458   3.819   9.401   1.698  0.5838 -1.9382 -1.5068
  411MOL0     H55459   3.734   9.614   1.487 -0.9003 -0.1273  0.5368
  411MOL0     H55460   3.818   9.660   1.639  3.9644 -2.3237 -1.1840
  411MOL0     H55461   3.558   9.498   1.607  2.6633 -1.4845  0.3679
  411MOL0     H55462   3.643   9.546   1.756  2.7088  0.4339 -0.2576
  411MOL0     H55463   3.443   9.709   1.692  0.6036  3.0861  1.5761
  411MOL0     H55464   3.526   9.717   1.531  0.7193 -0.4543 -0.7784
  411MOL0     H55465   3.552   9.919   1.674 -0.7414  1.0064  0.6750
  411MOL0     H55466   3.714   9.836   1.632  0.6977 -0.4024  1.1908
  411MOL0     H55467   3.676   9.029   1.375  1.0732  0.4299  1.3727
  411MOL0     H55468   3.626   8.854   1.215 -0.0103 -3.1132 -1.2789
  411MOL0     H55469   3.629   8.558   0.986  0.1463  1.3184 -1.1798
  411MOL0     H55470   3.564   8.348   0.883  0.1905  1.5094  1.4904
  411MOL0     H55471   4.027   6.762   1.394  1.9516 -0.4764  1.3459
  411MOL0     H55472   4.121   6.615   1.233  2.1057 -0.5649 -1.7323
  411MOL0     H55473   4.540   6.683   0.883  1.2219  1.6028 -0.9349
  411MOL0     H55474   4.777   6.642   0.838 -1.1650  2.8188  2.2432
  411MOL0     H55475   4.990   6.353   1.088 -1.3460  1.4221 -0.7332
  411MOL0     H55476   4.953   6.244   0.961 -0.9138  1.5983 -1.8058
  411MOL0     H55477   5.208   6.298   1.002  3.8835  1.5427 -0.9436
  411MOL0     H55478   5.161   6.463   0.945  1.0729 -0.4428  0.7208
  411MOL0     H55479   5.099   6.354   0.722  1.8833  0.8364 -0.2832
  411MOL0     H55480   5.141   6.196   0.790 -1.7719 -0.2679 -1.1341
  411MOL0     H55481   5.309   6.298   0.645 -4.1080 -3.6969 -0.9579
  411MOL0     H55482   5.364   6.244   0.808 -2.0572 -1.2154  0.4825
  411MOL0     H55483   5.430   6.679   0.765 -0.5273  0.2816 -0.6496
  411MOL0     H55484   4.757   6.284   1.086 -2.1422 -0.7807  0.9144
  411MOL0     H55485   4.535   6.351   1.158  0.7361 -2.8392 -1.6046
  412MOL0     O55486  10.229  10.638  11.220  0.7485 -0.2352  0.2806
  412MOL0     C55487  10.279  10.555  11.147  0.3210  0.6563 -0.2619
  412MOL0     O55488  10.378  10.571  11.061 -0.2222  0.0416  0.0079
  412MOL0     C55489  10.462  10.679  11.060 -0.3239  1.1791 -0.1615
  412MOL0     C55490  10.453  10.794  11.140 -0.5282 -0.0633 -1.1523
  412MOL0     C55491  10.543  10.895  11.138 -0.3150 -0.1692  0.1930
  412MOL0     C55492  10.652  10.888  11.045  0.5043  1.4809 -0.2479
  412MOL0     O55493  10.745  10.990  11.043 -0.5205  0.0117 -0.5246
  412MOL0     C55494  10.780  11.055  10.920  0.6653 -0.6100  0.4658
  412MOL0     C55495  10.801  11.200  10.956  0.1688 -0.5746 -0.5356
  412MOL0     C55496  10.885  11.285  10.847  0.5297  0.1034 -0.8309
  412MOL0     C55497  10.799  11.319  10.722 -0.6884  0.1338  0.1460
  412MOL0     C55498  10.880  11.389  10.611  0.4173  0.0198  0.0220
  412MOL0     C55499  10.780  11.472  10.529  0.1485 -0.8073 -0.1830
  412MOL0     C55500  10.838  11.536  10.396  0.5829 -1.1798 -0.4911
  412MOL0     C55501  10.764  11.674  10.378  0.5962  0.7487  0.7133
  412MOL0     N55502  10.623  11.655  10.356 -0.1743 -0.3406  0.1943
  412MOL0     C55503  10.570  11.569  10.258 -0.3550 -0.5143 -0.4132
  412MOL0     C55504  10.440  11.573  10.280  0.2789 -0.2209 -0.9408
  412MOL0     C55505  10.322  11.511  10.214  0.5625 -0.2668 -0.1535
  412MOL0     C55506  10.293  11.585  10.075  0.1709 -0.5021  0.2062
  412MOL0     C55507  10.231  11.504   9.970 -0.2459 -0.3230  0.5072
  412MOL0     C55508  10.072  11.476   9.974 -0.8108 -0.3965 -0.4130
  412MOL0     O55509  10.041  11.405  10.091 -0.0888 -0.3005 -0.5254
  412MOL0     C55510   9.920  11.412  10.142  0.6520 -0.0023 -0.3826
  412MOL0     C55511   9.806  11.477  10.086 -0.0401 -0.2182 -0.3664
  412MOL0     C55512   9.682  11.490  10.160 -0.0021  0.4910  1.2927
  412MOL0     C55513   9.573  11.568  10.089 -0.2979  0.7079  0.0763
  412MOL0     C55514   9.663  11.427  10.282  0.0215 -0.0678  0.0758
  412MOL0     C55515   9.550  11.441  10.379  0.5568 -0.3103  0.6922
  412MOL0     O55516   9.579  11.432  10.506 -0.2783  0.1306 -0.1450
  412MOL0     C55517   9.472  11.416  10.594 -0.6481  0.0193 -0.4468
  412MOL0     C55518   9.441  11.286  10.640  0.0920 -0.0407  0.2203
  412MOL0     C55519   9.338  11.270  10.733 -0.4407 -0.4040 -0.1019
  412MOL0     C55520   9.258  11.371  10.783  0.0286  0.3372 -0.0540
  412MOL0     O55521   9.164  11.356  10.878  0.0939  0.1769  0.6206
  412MOL0     C55522   9.144  11.219  10.929  0.0305 -0.3418 -1.3701
  412MOL0     C55523   9.045  11.217  11.049  0.0737  0.8961 -0.6074
  412MOL0     C55524   9.069  11.086  11.126  0.0383  0.6578  0.1660
  412MOL0     C55525   8.996  10.975  11.064  0.4644  1.4929 -0.2789
  412MOL0     C55526   9.008  10.844  11.140 -0.7072  0.0017  0.4139
  412MOL0     C55527   8.956  10.719  11.069 -0.2587  0.2399  0.2455
  412MOL0     C55528   8.988  10.589  11.151  0.7564  0.3076 -0.5574
  412MOL0     C55529   8.885  10.479  11.120  0.4464  0.5117 -0.7040
  412MOL0    Cl55530   8.726  10.508  11.213  0.3357  0.2737 -0.1523
  412MOL0     C55531   9.284  11.497  10.731 -0.1931 -0.0807  1.0643
  412MOL0     C55532   9.392  11.527  10.643  0.1062  0.1315  0.4632
  412MOL0     O55533   9.435  11.466  10.331 -0.1174  0.3433 -0.5334
  412MOL0     C55534   9.773  11.357  10.325  0.5664 -0.4246 -0.3917
  412MOL0     C55535   9.895  11.351  10.259  0.2337 -0.0343  0.6186
  412MOL0     N55536  10.413  11.669  10.371  0.0794 -0.6924 -0.0878
  412MOL0     N55537  10.525  11.707  10.426 -0.3932  0.2272  0.3660
  412MOL0     C55538  10.669  10.781  10.961  0.1841 -0.3493  0.2486
  412MOL0     C55539  10.570  10.677  10.967  0.3676  0.3554 -0.1319
  412MOL0     C55540  10.209  10.417  11.136 -0.4305  0.1139 -0.0324
  412MOL0     C55541  10.263  10.315  11.059 -0.5076  0.2934  0.1110
  412MOL0     C55542  10.209  10.190  11.063 -0.6740 -0.7034  0.6785
  412MOL0     C55543  10.106  10.164  11.147  0.5292  1.5115 -0.2101
  412MOL0     O55544  10.051  10.032  11.162  0.4195 -0.0475 -0.0984
  412MOL0     C55545  10.041   9.940  11.052 -0.4364  0.5004  0.0090
  412MOL0     C55546   9.941   9.997  10.949 -0.3369  0.0231  0.3894
  412MOL0     C55547   9.907   9.907  10.833  0.0426 -0.5897  1.1287
  412MOL0     C55548  10.046   9.863  10.759  0.1168 -0.5122  0.2868
  412MOL0     C55549  10.110   9.983  10.679  0.3000  0.0578 -0.1058
  412MOL0     C55550  10.134  10.070  10.603 -0.0603 -0.5748  0.4926
  412MOL0     C55551  10.054  10.256  11.232  0.6140  0.2339 -0.5673
  412MOL0     C55552  10.097  10.384  11.221 -0.1172 -0.4673 -0.1651
  412MOL0     H55553  10.368  10.812  11.205  0.8685  3.7791 -0.1148
  412MOL0     H55554  10.536  10.984  11.201  4.5408  0.2501  0.5151
  412MOL0     H55555  10.876  11.022  10.878  0.3662  0.2807 -0.9816
  412MOL0     H55556  10.704  11.038  10.843  3.0480 -5.0393 -1.2978
  412MOL0     H55557  10.700  11.230  10.986  0.2858 -1.6384  1.0863
  412MOL0     H55558  10.868  11.202  11.043  0.2770 -2.2601 -0.5356
  412MOL0     H55559  10.913  11.381  10.891  0.9165 -0.7020  0.7263
  412MOL0     H55560  10.981  11.238  10.828  0.9272 -0.1139  1.5221
  412MOL0     H55561  10.733  11.239  10.687  1.3974 -1.4685 -0.3389
  412MOL0     H55562  10.738  11.400  10.761  1.8685  1.9610  0.6205
  412MOL0     H55563  10.953  11.449  10.665  1.8144 -0.3925 -1.3494
  412MOL0     H55564  10.937  11.320  10.548  0.5290 -1.5355  1.7422
  412MOL0     H55565  10.685  11.422  10.511 -1.8308  2.3910  0.6013
  412MOL0     H55566  10.732  11.547  10.593 -1.2978 -0.6981 -1.3413
  412MOL0     H55567  10.945  11.550  10.406  0.4396 -0.7317  0.4594
  412MOL0     H55568  10.818  11.464  10.316  3.9215 -1.5513 -1.1179
  412MOL0     H55569  10.818  11.725  10.298 -1.3677 -0.7087 -1.6856
  412MOL0     H55570  10.770  11.728  10.473 -1.8112 -0.3659  1.5841
  412MOL0     H55571  10.632  11.522  10.183 -0.9169  0.9633 -1.8771
  412MOL0     H55572  10.326  11.402  10.206 -0.6321 -0.4203  0.9461
  412MOL0     H55573  10.232  11.532  10.274  0.9925  1.1817  0.0196
  412MOL0     H55574  10.387  11.619  10.031 -1.6920  1.5776 -2.5231
  412MOL0     H55575  10.236  11.676  10.093 -0.2004 -0.5305 -0.7693
  412MOL0     H55576  10.277  11.405   9.971 -0.6425 -0.6075  3.9516
  412MOL0     H55577  10.251  11.552   9.874 -3.2354  1.0788  0.4736
  412MOL0     H55578  10.035  11.418   9.889 -2.0987 -2.1998  1.2959
  412MOL0     H55579  10.025  11.575   9.973  0.9614  0.5667  1.7207
  412MOL0     H55580   9.812  11.528   9.991 -0.4944  0.8288  0.1473
  412MOL0     H55581   9.550  11.656  10.151  0.4264  0.7268  0.3350
  412MOL0     H55582   9.594  11.603   9.988  0.1948 -1.6207 -0.6869
  412MOL0     H55583   9.492  11.495  10.081  0.0648  0.1800  1.0144
  412MOL0     H55584   9.484  11.193  10.603 -3.4563 -0.8040 -2.5257
  412MOL0     H55585   9.322  11.164  10.750 -0.7314 -0.2968  0.2810
  412MOL0     H55586   9.115  11.147  10.852  2.2900 -1.6591 -1.0621
  412MOL0     H55587   9.240  11.181  10.963  0.0868 -3.0492 -4.0928
  412MOL0     H55588   9.066  11.302  11.114 -1.3175 -0.5552  1.9316
  412MOL0     H55589   8.942  11.226  11.013 -0.6078 -3.0630 -0.1898
  412MOL0     H55590   9.026  11.109  11.224  2.7686 -0.0357  1.6345
  412MOL0     H55591   9.175  11.072  11.149 -0.2543  1.6988  2.4791
  412MOL0     H55592   8.892  11.010  11.073  0.5158  1.1706  2.5048
  412MOL0     H55593   9.035  10.959  10.963 -0.3832 -0.2954 -0.3657
  412MOL0     H55594   8.961  10.864  11.237 -4.1658  0.1639 -1.1675
  412MOL0     H55595   9.115  10.825  11.157 -0.5713  1.5602  1.5343
  412MOL0     H55596   8.847  10.734  11.070 -0.4325 -0.9622  0.3196
  412MOL0     H55597   9.004  10.712  10.971  0.5960  0.5176  0.6372
  412MOL0     H55598   8.987  10.615  11.257  0.1868 -2.3404  0.1740
  412MOL0     H55599   9.093  10.563  11.135  1.3059  1.1217  1.4336
  412MOL0     H55600   8.919  10.378  11.146  1.5951  0.5371 -1.9449
  412MOL0     H55601   8.878  10.468  11.011  1.2183 -1.8757 -0.5749
  412MOL0     H55602   9.219  11.581  10.752 -0.0091 -0.0128  1.3836
  412MOL0     H55603   9.406  11.629  10.607 -1.3906  0.4303  0.6298
  412MOL0     H55604   9.753  11.296  10.413 -3.2856 -1.4217 -1.7645
  412MOL0     H55605   9.981  11.304  10.305 -1.3550 -1.3511  2.4063
  412MOL0     H55606  10.757  10.779  10.897  1.6189  3.2013  1.8302
  412MOL0     H55607  10.592  10.587  10.910 -0.5741  0.5373 -0.8183
  412MOL0     H55608  10.346  10.338  10.993 -0.0695 -2.2719 -0.3016
  412MOL0     H55609  10.267  10.117  11.006  0.3090  2.3529 -2.6350
  412MOL0     H55610  10.131   9.924  10.993 -0.4886 -1.1571  0.3503
  412MOL0     H55611  10.008   9.841  11.083 -3.1266  1.8138  1.7291
  412MOL0     H55612   9.965  10.096  10.910 -0.5317 -0.2175 -0.3507
  412MOL0     H55613   9.854  10.008  11.015  0.6729  0.3898  1.6982
  412MOL0     H55614   9.839   9.966  10.770  0.1998  1.1290  2.5073
  412MOL0     H55615   9.848   9.819  10.860 -1.9069  0.7046  1.2666
  412MOL0     H55616  10.022   9.790  10.681  0.5421  0.9819 -1.3091
  412MOL0     H55617  10.110   9.808  10.828  0.9113 -0.2568 -0.2395
  412MOL0     H55618  10.145  10.153  10.537 -0.8083  0.9842  2.2376
  412MOL0     H55619   9.972  10.234  11.300  0.9699 -1.4105 -0.6479
  412MOL0     H55620  10.051  10.455  11.289  0.0501 -0.0264 -0.5053
  413MOL0     O55621   1.186   5.331   5.351 -0.3734 -0.2882 -0.4853
  413MOL0     C55622   1.256   5.430   5.336 -0.4604  0.4147 -0.0158
  413MOL0     O55623   1.353   5.442   5.238  0.0703 -0.5026 -0.0062
  413MOL0     C55624   1.353   5.362   5.127 -0.1844 -0.1566  0.0727
  413MOL0     C55625   1.368   5.224   5.125  0.9087  0.1302  0.7659
  413MOL0     C55626   1.348   5.157   4.997  0.4049 -0.1830  0.1906
  413MOL0     C55627   1.329   5.223   4.875 -1.0838  0.5901  0.2570
  413MOL0     O55628   1.317   5.146   4.765  0.6498  0.1697 -0.1001
  413MOL0     C55629   1.369   5.197   4.644 -0.1240  0.0971  0.6533
  413MOL0     C55630   1.259   5.265   4.567  0.4741  0.0892 -1.0408
  413MOL0     C55631   1.319   5.305   4.432 -0.2780 -0.1969  0.2914
  413MOL0     C55632   1.222   5.354   4.325  0.0103 -0.0479 -0.0192
  413MOL0     C55633   1.299   5.405   4.194 -0.3823  0.1541 -0.7766
  413MOL0     C55634   1.354   5.296   4.104  0.7132 -1.0281  0.3792
  413MOL0     C55635   1.422   5.349   3.991 -0.4830 -0.7792 -0.7067
  413MOL0     C55636   1.459   5.237   3.887 -0.3608  0.0385  0.6498
  413MOL0     N55637   1.572   5.283   3.811 -0.0117  0.4013  0.2851
  413MOL0     C55638   1.597   5.253   3.674  0.6035  0.5008 -0.3038
  413MOL0     C55639   1.734   5.274   3.653  0.1635  0.3592 -0.6567
  413MOL0     C55640   1.806   5.275   3.519 -0.4275  0.6545 -0.7444
  413MOL0     C55641   1.715   5.298   3.394  0.4272 -0.0870 -0.0182
  413MOL0     C55642   1.808   5.311   3.270  0.2396 -0.0456 -0.5267
  413MOL0     C55643   1.716   5.347   3.149 -0.4350 -0.2694  0.0282
  413MOL0     O55644   1.793   5.383   3.036 -0.2903  0.2244 -0.0858
  413MOL0     C55645   1.741   5.482   2.948 -0.8688  0.3503 -0.9069
  413MOL0     C55646   1.845   5.558   2.890  0.4998 -0.1618  0.5490
  413MOL0     C55647   1.820   5.643   2.782  0.1849  0.7258 -0.3181
  413MOL0     C55648   1.947   5.698   2.713  0.4167  0.5545 -0.5229
  413MOL0     C55649   1.684   5.679   2.760  0.1119 -0.4629  0.5280
  413MOL0     C55650   1.646   5.795   2.668 -0.2287  0.1507 -0.0177
  413MOL0     O55651   1.507   5.795   2.634 -0.8793  0.0727  0.7797
  413MOL0     C55652   1.469   5.904   2.566 -0.7473 -1.1308 -0.6961
  413MOL0     C55653   1.477   6.034   2.620 -1.3698 -1.0602  0.4072
  413MOL0     C55654   1.446   6.143   2.548 -0.0615 -0.5839  0.8715
  413MOL0     C55655   1.404   6.121   2.415  0.0790  0.0349 -0.4529
  413MOL0     O55656   1.391   6.230   2.334 -0.1958 -0.3479  0.3411
  413MOL0     C55657   1.308   6.235   2.215 -0.4877  0.6843  0.5202
  413MOL0     C55658   1.310   6.363   2.126 -0.4073 -0.8265 -0.5139
  413MOL0     C55659   1.237   6.342   1.990 -0.1363 -0.2823 -0.1370
  413MOL0     C55660   1.174   6.478   1.947  0.9919 -1.1030  0.4014
  413MOL0     C55661   1.154   6.488   1.801 -0.1213 -0.6198  0.4039
  413MOL0     C55662   1.076   6.605   1.759 -0.1373 -0.9171  0.4301
  413MOL0     C55663   1.109   6.639   1.609  1.3953  0.5136  0.1617
  413MOL0     C55664   1.071   6.768   1.558  0.1480  0.1808 -0.0475
  413MOL0    Cl55665   0.894   6.796   1.566 -0.4246 -0.7404 -0.3002
  413MOL0     C55666   1.387   5.992   2.365 -1.0916  0.7067  0.5425
  413MOL0     C55667   1.420   5.882   2.443  0.2140 -0.2191  0.0518
  413MOL0     O55668   1.731   5.878   2.627 -0.5706  0.6847  0.4026
  413MOL0     C55669   1.586   5.612   2.828 -0.0771  1.2428 -0.5943
  413MOL0     C55670   1.607   5.508   2.919 -1.1710 -0.4501 -0.7518
  413MOL0     N55671   1.787   5.320   3.778  0.4891 -0.5789  0.4091
  413MOL0     N55672   1.690   5.311   3.869  0.2068 -0.3885  0.0625
  413MOL0     C55673   1.321   5.365   4.895 -0.0451  0.8719  0.9194
  413MOL0     C55674   1.329   5.429   5.012  0.1593  0.3612  0.4551
  413MOL0     C55675   1.235   5.548   5.410  0.6467  0.1970  0.6096
  413MOL0     C55676   1.109   5.574   5.468 -0.2280 -0.5252  0.0061
  413MOL0     C55677   1.079   5.694   5.539 -0.5014 -0.4887 -0.4220
  413MOL0     C55678   1.180   5.792   5.548 -0.0107  0.0671 -0.4604
  413MOL0     O55679   1.166   5.910   5.614 -0.2803 -0.1923 -0.1973
  413MOL0     C55680   1.050   5.948   5.682  0.4416  0.9585  0.3602
  413MOL0     C55681   0.943   6.017   5.598 -0.3610  0.4807  0.1014
  413MOL0     C55682   0.986   6.126   5.501 -0.0271  0.9387 -0.0548
  413MOL0     C55683   0.882   6.227   5.458 -0.0221 -0.0397  0.1836
  413MOL0     C55684   0.820   6.294   5.572  0.0231  0.5757  0.0692
  413MOL0     C55685   0.741   6.366   5.634 -0.4117 -0.2885 -1.2627
  413MOL0     C55686   1.299   5.763   5.492  0.4335  0.0894  0.2756
  413MOL0     C55687   1.335   5.650   5.423 -0.3200 -0.2365 -0.6868
  413MOL0     H55688   1.378   5.179   5.223 -2.0003  2.1623  2.1290
  413MOL0     H55689   1.342   5.049   4.988  1.5902 -0.3173  0.8089
  413MOL0     H55690   1.460   5.255   4.663  0.8493 -2.0334  3.1516
  413MOL0     H55691   1.418   5.111   4.596  0.5206  0.4108  0.7438
  413MOL0     H55692   1.168   5.205   4.554 -0.6036  1.8281 -1.9314
  413MOL0     H55693   1.219   5.353   4.618 -2.2995 -0.2385 -2.4427
  413MOL0     H55694   1.387   5.388   4.449 -0.9042  0.3283  0.2558
  413MOL0     H55695   1.388   5.229   4.393 -2.8838 -2.2714 -0.6555
  413MOL0     H55696   1.150   5.277   4.296  2.2606 -1.2206 -2.9487
  413MOL0     H55697   1.171   5.442   4.366 -1.7705 -1.6372  1.3295
  413MOL0     H55698   1.238   5.483   4.147  0.9936  2.6393  1.2594
  413MOL0     H55699   1.390   5.457   4.227 -0.4841 -0.4185  0.4655
  413MOL0     H55700   1.415   5.226   4.162  2.3120 -0.1524 -0.1855
  413MOL0     H55701   1.273   5.230   4.075  1.4710 -1.8085 -0.0079
  413MOL0     H55702   1.371   5.434   3.943 -1.4479 -1.0357 -0.1582
  413MOL0     H55703   1.518   5.386   4.028  0.1323 -0.2878 -2.6857
  413MOL0     H55704   1.374   5.223   3.819  0.8185  0.2376 -0.9209
  413MOL0     H55705   1.488   5.144   3.936  1.9672 -0.8469 -2.1799
  413MOL0     H55706   1.518   5.227   3.605  0.5735 -1.9563  0.5431
  413MOL0     H55707   1.884   5.351   3.527 -1.0111  1.0660  2.6643
  413MOL0     H55708   1.854   5.179   3.497  0.0967  0.6040  0.5557
  413MOL0     H55709   1.653   5.388   3.406 -0.1473 -0.3214 -1.0602
  413MOL0     H55710   1.645   5.215   3.379  0.6703 -0.4557  0.8348
  413MOL0     H55711   1.863   5.222   3.238 -2.0487 -0.7679 -2.8510
  413MOL0     H55712   1.873   5.393   3.303 -0.1218 -0.7299  2.1558
  413MOL0     H55713   1.645   5.428   3.169  2.4515  2.2047  1.1528
  413MOL0     H55714   1.643   5.267   3.133 -0.1553 -0.5226  0.0221
  413MOL0     H55715   1.950   5.538   2.909  0.5869 -0.3473 -0.1025
  413MOL0     H55716   1.909   5.702   2.610 -0.7123 -2.6418 -0.3205
  413MOL0     H55717   1.977   5.798   2.745 -0.3187  0.2504  1.1810
  413MOL0     H55718   2.034   5.631   2.720 -1.0813 -1.4695 -0.5134
  413MOL0     H55719   1.514   6.058   2.719  0.2056  0.9742 -0.5991
  413MOL0     H55720   1.450   6.238   2.600 -3.1479 -0.7577  1.6235
  413MOL0     H55721   1.331   6.154   2.145  1.8213  1.7750 -0.0779
  413MOL0     H55722   1.206   6.218   2.250  0.8660 -1.6853  3.7788
  413MOL0     H55723   1.262   6.433   2.195  0.8792 -3.6935  3.7060
  413MOL0     H55724   1.413   6.397   2.109 -0.8795  0.3001 -1.2417
  413MOL0     H55725   1.158   6.266   1.996 -1.2559  0.4322 -3.6691
  413MOL0     H55726   1.314   6.310   1.919  1.0988 -0.9250  1.4303
  413MOL0     H55727   1.079   6.496   1.998  2.4603  2.3567  2.3001
  413MOL0     H55728   1.244   6.558   1.973  1.1243 -1.2984  0.6593
  413MOL0     H55729   1.101   6.400   1.762 -1.1188 -0.0289  0.3841
  413MOL0     H55730   1.256   6.495   1.761 -0.1103  1.2922  0.6823
  413MOL0     H55731   0.968   6.585   1.768 -0.3810 -0.1353 -0.5529
  413MOL0     H55732   1.099   6.686   1.828 -0.7680 -1.2985  1.1063
  413MOL0     H55733   1.044   6.565   1.561  2.5112 -1.6466  1.8189
  413MOL0     H55734   1.214   6.620   1.585  1.8579 -3.8024  4.1951
  413MOL0     H55735   1.093   6.775   1.451  0.4300  0.5906  0.0319
  413MOL0     H55736   1.121   6.852   1.609 -2.5719  1.6007  0.4551
  413MOL0     H55737   1.356   5.974   2.262  3.5879 -2.2848 -0.6429
  413MOL0     H55738   1.419   5.783   2.398  0.2901 -1.5583  2.7931
  413MOL0     H55739   1.482   5.644   2.823  0.5772  4.2572  1.9686
  413MOL0     H55740   1.521   5.459   2.964 -1.9965  1.0426 -0.6405
  413MOL0     H55741   1.294   5.425   4.809 -0.2984 -1.5897 -0.8236
  413MOL0     H55742   1.294   5.532   5.020 -4.0376 -0.9038  0.2482
  413MOL0     H55743   1.021   5.511   5.471 -1.1197  0.7202  0.6055
  413MOL0     H55744   0.986   5.703   5.594 -0.3631 -0.2129 -0.2312
  413MOL0     H55745   0.995   5.864   5.725 -0.9580 -0.3232 -3.4973
  413MOL0     H55746   1.082   6.024   5.754 -0.0785  1.3982  0.1385
  413MOL0     H55747   0.858   6.042   5.662 -1.5488  1.5891 -1.7993
  413MOL0     H55748   0.890   5.936   5.547  0.5026  0.8937 -1.5151
  413MOL0     H55749   1.016   6.084   5.405  1.2056  0.0286  0.6868
  413MOL0     H55750   1.067   6.187   5.541 -0.8170  3.9218 -2.6486
  413MOL0     H55751   0.811   6.174   5.394  0.2160  0.7449 -0.7631
  413MOL0     H55752   0.929   6.309   5.402  0.3819 -0.3035  0.1275
  413MOL0     H55753   0.661   6.414   5.685  0.0233 -2.8610  2.2346
  413MOL0     H55754   1.371   5.844   5.489 -0.1983  0.6590  0.3094
  413MOL0     H55755   1.435   5.621   5.393 -0.9545 -2.0761 -1.1626
  414MOL0     O55756   9.393  10.047   3.501  0.2437  0.4794 -0.3783
  414MOL0     C55757   9.358  10.054   3.388 -0.4796  0.2661  0.0474
  414MOL0     O55758   9.335   9.942   3.305 -0.2812  0.3421  0.3176
  414MOL0     C55759   9.358   9.813   3.342  0.5323  0.1459  0.0599
  414MOL0     C55760   9.453   9.763   3.436  1.2768 -0.5008  0.3868
  414MOL0     C55761   9.479   9.625   3.453  0.4170  1.3325 -0.2755
  414MOL0     C55762   9.405   9.533   3.389 -1.0044  0.4805  0.3388
  414MOL0     O55763   9.418   9.394   3.406 -0.3157  0.0483 -0.2011
  414MOL0     C55764   9.487   9.344   3.523  0.2472 -0.4795 -0.2685
  414MOL0     C55765   9.465   9.191   3.533 -0.0487  0.7736 -0.9754
  414MOL0     C55766   9.457   9.144   3.676 -0.2056 -0.3928  0.2827
  414MOL0     C55767   9.596   9.127   3.733 -0.5313 -0.1973  0.0444
  414MOL0     C55768   9.579   9.094   3.887  0.5048  0.7330 -0.1263
  414MOL0     C55769   9.700   9.084   3.980 -0.1585 -0.3963 -0.1418
  414MOL0     C55770   9.656   9.071   4.129 -0.0744  0.0283 -0.4692
  414MOL0     C55771   9.634   9.212   4.185  0.0510 -0.5526  0.3073
  414MOL0     N55772   9.617   9.207   4.331  0.6739 -0.4829 -0.2548
  414MOL0     C55773   9.562   9.111   4.414 -0.0494 -0.5304  0.6790
  414MOL0     C55774   9.589   9.165   4.541  0.6737  1.0409  1.5366
  414MOL0     C55775   9.570   9.104   4.674  0.3034  0.5502  0.6447
  414MOL0     C55776   9.420   9.102   4.703  0.6978  0.2340  0.4869
  414MOL0     C55777   9.399   9.028   4.832  1.0120  0.2137  0.1810
  414MOL0     C55778   9.251   8.993   4.846  0.0556  0.3818 -0.0627
  414MOL0     O55779   9.242   8.890   4.948  0.2605  0.0631  0.7411
  414MOL0     C55780   9.117   8.839   4.985  1.0446 -0.1784 -1.0368
  414MOL0     C55781   8.997   8.878   4.925  0.1518  0.3885 -0.1717
  414MOL0     C55782   8.870   8.842   4.981 -0.9539 -0.8494  0.0935
  414MOL0     C55783   8.748   8.903   4.918  0.0590 -0.1774 -0.2362
  414MOL0     C55784   8.862   8.746   5.087 -0.5804  0.1027  1.1060
  414MOL0     C55785   8.725   8.698   5.136  0.4391  0.4275  1.2038
  414MOL0     O55786   8.719   8.557   5.153  0.1587 -0.8417  0.1936
  414MOL0     C55787   8.598   8.504   5.188  0.2280 -1.0508  0.0861
  414MOL0     C55788   8.523   8.424   5.097  0.3659 -0.3125 -0.5872
  414MOL0     C55789   8.421   8.336   5.138 -0.3970  0.1509 -0.3250
  414MOL0     C55790   8.387   8.327   5.271  0.7721  0.0883  0.4167
  414MOL0     O55791   8.292   8.231   5.313  0.4907 -0.6543  0.8211
  414MOL0     C55792   8.197   8.273   5.409  0.0847  0.0643 -0.7433
  414MOL0     C55793   8.204   8.168   5.520  0.0939  0.1401  0.5675
  414MOL0     C55794   8.104   8.205   5.639  0.1957 -0.4150 -0.6546
  414MOL0     C55795   8.070   8.085   5.729  0.9548 -0.6408  0.7215
  414MOL0     C55796   7.967   8.128   5.835 -0.1802 -0.1045  0.2737
  414MOL0     C55797   8.030   8.162   5.975 -0.4499 -0.2266  0.0066
  414MOL0     C55798   7.913   8.193   6.068  0.2818  0.7733 -0.0853
  414MOL0     C55799   7.966   8.227   6.203  0.6467  0.0401  0.2918
  414MOL0    Cl55800   7.838   8.215   6.320 -0.1238  0.0196  0.7261
  414MOL0     C55801   8.473   8.389   5.363  0.4080 -0.3017 -0.1373
  414MOL0     C55802   8.571   8.481   5.326 -0.3105  0.8456  0.2802
  414MOL0     O55803   8.638   8.773   5.163 -0.0355 -0.0200  0.4356
  414MOL0     C55804   8.985   8.701   5.142 -0.0318 -0.9228  0.1078
  414MOL0     C55805   9.114   8.754   5.097 -0.5283  0.2823 -0.1716
  414MOL0     N55806   9.666   9.279   4.527 -0.1090  0.9457 -0.2835
  414MOL0     N55807   9.659   9.320   4.401 -0.5284  0.0964  0.2109
  414MOL0     C55808   9.309   9.575   3.299  0.4275  0.8664  0.5717
  414MOL0     C55809   9.287   9.716   3.279  0.2758 -0.3891 -0.1508
  414MOL0     C55810   9.344  10.196   3.339  0.3984 -0.4086 -0.0098
  414MOL0     C55811   9.399  10.311   3.412 -0.2518  0.1010  0.1990
  414MOL0     C55812   9.394  10.440   3.354  0.1955 -0.0384  0.1718
  414MOL0     C55813   9.326  10.459   3.231 -0.1088 -0.3650  0.1029
  414MOL0     O55814   9.301  10.583   3.179 -0.3693  0.3431  1.0460
  414MOL0     C55815   9.323  10.703   3.254 -0.4769  0.4366  0.3323
  414MOL0     C55816   9.264  10.816   3.166  0.2688 -0.1591  0.6923
  414MOL0     C55817   9.113  10.804   3.149 -0.8990  0.0290  0.4912
  414MOL0     C55818   9.043  10.919   3.065 -0.3267  0.5344 -0.2724
  414MOL0     C55819   9.085  11.049   3.126 -0.3970  0.0846 -0.2524
  414MOL0     C55820   9.124  11.148   3.193 -0.4792  0.9041  0.3794
  414MOL0     C55821   9.273  10.347   3.162  0.4418  0.0761 -0.4668
  414MOL0     C55822   9.277  10.218   3.220  0.0626  0.1287 -0.8325
  414MOL0     H55823   9.496   9.844   3.493 -2.0365  0.1046  2.3141
  414MOL0     H55824   9.564   9.607   3.518  1.3251 -1.1351 -1.9690
  414MOL0     H55825   9.594   9.364   3.512 -0.4431  2.2377 -3.9823
  414MOL0     H55826   9.445   9.405   3.604 -1.2200 -0.7321 -0.8028
  414MOL0     H55827   9.370   9.174   3.483 -0.5415  4.1142 -1.3940
  414MOL0     H55828   9.536   9.128   3.478 -0.8693  0.9299 -2.2387
  414MOL0     H55829   9.402   9.216   3.736  0.2861 -1.4659  2.0800
  414MOL0     H55830   9.407   9.046   3.672 -1.7590  0.2277  2.6781
  414MOL0     H55831   9.664   9.071   3.669 -1.7988  2.0909 -3.6452
  414MOL0     H55832   9.637   9.228   3.725 -0.3279 -0.1999  0.8830
  414MOL0     H55833   9.523   9.182   3.920  0.2553 -0.1607  1.9578
  414MOL0     H55834   9.513   9.008   3.903  2.0610 -0.1643  1.9292
  414MOL0     H55835   9.767   9.000   3.958  0.3242 -0.1960  0.5328
  414MOL0     H55836   9.749   9.181   3.972 -1.7606  0.3852 -0.9776
  414MOL0     H55837   9.563   9.014   4.136  0.5039 -1.3561 -2.7710
  414MOL0     H55838   9.729   9.014   4.188  0.9409 -0.4719 -2.1069
  414MOL0     H55839   9.547   9.268   4.150  1.0066  0.0987 -1.1001
  414MOL0     H55840   9.722   9.276   4.173  0.7303 -1.9103 -3.1480
  414MOL0     H55841   9.505   9.021   4.393  0.0136 -0.8823  1.9195
  414MOL0     H55842   9.597   8.998   4.678 -2.1050 -0.1312  0.3255
  414MOL0     H55843   9.635   9.154   4.746  0.3703 -0.1227  1.0660
  414MOL0     H55844   9.364   9.064   4.616  1.0397 -0.1804  0.4409
  414MOL0     H55845   9.380   9.201   4.723 -2.4154 -1.0822  1.4730
  414MOL0     H55846   9.422   9.090   4.919 -3.4317  1.2641  0.8347
  414MOL0     H55847   9.466   8.941   4.835  2.7370  1.5060  0.8144
  414MOL0     H55848   9.213   8.954   4.752  1.6933  0.1323 -0.6645
  414MOL0     H55849   9.202   9.087   4.872 -2.5424 -0.5828 -1.1853
  414MOL0     H55850   9.002   8.943   4.839 -0.4536  0.9436  0.2035
  414MOL0     H55851   8.784   8.943   4.823  0.7199  1.9156  0.8366
  414MOL0     H55852   8.671   8.825   4.912  0.9329 -1.0232 -0.6429
  414MOL0     H55853   8.709   8.992   4.968  1.4887  0.3751 -0.0896
  414MOL0     H55854   8.554   8.426   4.993  2.5852  0.0033  0.0236
  414MOL0     H55855   8.360   8.273   5.075 -4.3553  1.0936  2.2178
  414MOL0     H55856   8.239   8.365   5.449  1.1291  1.5915 -4.8232
  414MOL0     H55857   8.099   8.285   5.363 -0.1626 -0.8595 -0.4866
  414MOL0     H55858   8.192   8.065   5.485  4.5808 -1.3604  2.7192
  414MOL0     H55859   8.305   8.174   5.561  0.2712 -0.6190  0.2618
  414MOL0     H55860   8.012   8.246   5.597 -0.9625 -2.5797 -0.3677
  414MOL0     H55861   8.153   8.280   5.702  1.7226 -1.7667 -0.1573
  414MOL0     H55862   8.012   8.012   5.672 -2.6997 -0.5885  3.9865
  414MOL0     H55863   8.156   8.046   5.784  1.1962 -1.6379 -0.3309
  414MOL0     H55864   7.892   8.050   5.852  0.6816 -1.4825 -1.7187
  414MOL0     H55865   7.917   8.218   5.798  1.0727  1.4971  2.2902
  414MOL0     H55866   8.083   8.080   6.024  1.6783  1.9887  1.7142
  414MOL0     H55867   8.102   8.242   5.956  1.5223 -1.5914  1.3545
  414MOL0     H55868   7.859   8.099   6.077  0.1433  0.9656  1.3032
  414MOL0     H55869   7.851   8.272   6.024  0.3796  0.0134 -1.6497
  414MOL0     H55870   7.998   8.331   6.192 -2.0924  0.8122 -1.3932
  414MOL0     H55871   8.048   8.164   6.238  0.5326  0.2258  0.8911
  414MOL0     H55872   8.473   8.382   5.471 -1.5455 -0.4203 -0.1171
  414MOL0     H55873   8.628   8.537   5.399 -0.8408  3.4734 -1.2225
  414MOL0     H55874   8.992   8.630   5.223  0.3576 -1.0369 -0.0221
  414MOL0     H55875   9.201   8.719   5.152 -0.9496 -1.4033 -0.5213
  414MOL0     H55876   9.242   9.504   3.253 -2.5441  1.6985  3.2831
  414MOL0     H55877   9.206   9.753   3.217  2.0744  1.9706 -1.2322
  414MOL0     H55878   9.444  10.300   3.510  1.6679  1.4829 -0.4592
  414MOL0     H55879   9.433  10.528   3.403 -1.9936  0.6171  0.8319
  414MOL0     H55880   9.269  10.706   3.349  0.3692  2.3037  0.8034
  414MOL0     H55881   9.431  10.707   3.274 -0.5111  0.7570  0.4525
  414MOL0     H55882   9.308  10.814   3.066 -1.0297  2.6759 -0.0412
  414MOL0     H55883   9.296  10.909   3.215  0.3355 -0.3426  1.0009
  414MOL0     H55884   9.067  10.808   3.248  2.4224 -0.1117  2.1893
  414MOL0     H55885   9.081  10.707   3.110  0.2806  0.5193 -1.8859
  414MOL0     H55886   8.935  10.901   3.061 -1.0759  4.3531 -0.6040
  414MOL0     H55887   9.074  10.920   2.960  2.1166  0.1465  0.3985
  414MOL0     H55888   9.160  11.223   3.261 -1.0837  0.5804  1.0596
  414MOL0     H55889   9.222  10.363   3.068 -0.3404 -0.8286 -0.2141
  414MOL0     H55890   9.232  10.130   3.176  2.4550 -1.4999 -0.2031
  415MOL0     O55891   8.299   6.583   7.279  0.6089 -0.3597  0.6629
  415MOL0     C55892   8.366   6.614   7.178 -0.1690  0.5820  0.8097
  415MOL0     O55893   8.343   6.708   7.084  0.8438  0.2272 -0.2973
  415MOL0     C55894   8.232   6.785   7.113 -0.0669 -0.2642  0.0271
  415MOL0     C55895   8.124   6.793   7.026  0.3124  0.3675  0.6134
  415MOL0     C55896   8.013   6.874   7.047 -0.0951  0.1433 -0.1365
  415MOL0     C55897   8.011   6.951   7.165  0.0899 -0.1021 -0.0328
  415MOL0     O55898   7.900   7.030   7.205 -0.1011  0.8656 -0.1344
  415MOL0     C55899   7.777   6.980   7.172  0.2093 -0.0648 -0.3841
  415MOL0     C55900   7.690   7.079   7.248 -0.4550  0.0124 -0.7640
  415MOL0     C55901   7.554   7.069   7.213  0.6934 -0.3818  0.0417
  415MOL0     C55902   7.490   6.930   7.235 -0.0903 -1.2366  0.7028
  415MOL0     C55903   7.335   6.915   7.216 -0.2626  0.2874  0.6266
  415MOL0     C55904   7.309   6.767   7.249  0.0032  0.5384 -0.1966
  415MOL0     C55905   7.165   6.750   7.285 -0.8739  1.1107 -0.9371
  415MOL0     C55906   7.119   6.600   7.284  0.0978 -0.6019  0.0052
  415MOL0     N55907   7.194   6.515   7.379 -0.9914  0.2116 -0.5642
  415MOL0     C55908   7.217   6.554   7.503  0.3537 -0.6180 -0.8388
  415MOL0     C55909   7.287   6.461   7.568 -0.1840 -0.5531 -0.0616
  415MOL0     C55910   7.318   6.460   7.714 -0.0226  0.2998  0.9861
  415MOL0     C55911   7.196   6.394   7.783  0.0537 -0.2125 -0.0754
  415MOL0     C55912   7.204   6.391   7.943 -0.0696  0.0895  0.1044
  415MOL0     C55913   7.084   6.316   7.998  0.9575  0.0931  0.2741
  415MOL0     O55914   7.085   6.324   8.138 -0.0285 -0.0387  0.0192
  415MOL0     C55915   6.965   6.316   8.210 -0.1544  0.6214  0.6021
  415MOL0     C55916   6.966   6.382   8.333 -0.3697 -0.7706  0.3391
  415MOL0     C55917   6.852   6.383   8.407 -0.4357  0.6831 -0.1897
  415MOL0     C55918   6.865   6.446   8.538  0.0515  0.1586  0.3512
  415MOL0     C55919   6.723   6.341   8.361  0.2944  0.3247  0.0109
  415MOL0     C55920   6.594   6.356   8.445 -0.9570  0.4112 -0.2105
  415MOL0     O55921   6.517   6.469   8.417 -0.2972 -0.3548  0.2465
  415MOL0     C55922   6.443   6.520   8.520  0.6380 -0.0951 -0.1488
  415MOL0     C55923   6.307   6.496   8.514 -0.1144  0.0532  0.0450
  415MOL0     C55924   6.217   6.546   8.611 -0.5857  0.2781  0.4365
  415MOL0     C55925   6.267   6.621   8.720 -1.0231  0.6377  0.5130
  415MOL0     O55926   6.189   6.683   8.809 -0.2258  1.1393 -0.4049
  415MOL0     C55927   6.197   6.634   8.945  0.0085 -0.3565  0.6342
  415MOL0     C55928   6.146   6.730   9.049 -0.2364  0.5703 -0.2224
  415MOL0     C55929   6.137   6.662   9.188  0.0215 -0.8376 -0.2876
  415MOL0     C55930   6.102   6.763   9.294  0.3776  0.0185 -0.9117
  415MOL0     C55931   5.953   6.813   9.299  0.1033  0.1462  0.0015
  415MOL0     C55932   5.855   6.701   9.341 -0.5167  0.1732  0.1686
  415MOL0     C55933   5.713   6.768   9.357  0.4055  0.2684  0.2267
  415MOL0     C55934   5.624   6.680   9.442  0.1730  0.0756  0.6467
  415MOL0    Cl55935   5.449   6.706   9.423  0.0066 -0.1161  0.1929
  415MOL0     C55936   6.410   6.637   8.723 -0.1905 -0.0689  0.6801
  415MOL0     C55937   6.499   6.587   8.624  0.3678 -0.1878  0.2415
  415MOL0     O55938   6.568   6.266   8.523  0.6423 -0.1702  0.1220
  415MOL0     C55939   6.719   6.277   8.232 -0.7453 -0.5924 -1.0668
  415MOL0     C55940   6.840   6.263   8.166 -0.2192  0.4948 -0.1598
  415MOL0     N55941   7.312   6.360   7.479  0.3308 -0.5236  0.5294
  415MOL0     N55942   7.241   6.387   7.370  0.2745  0.9683  0.5078
  415MOL0     C55943   8.121   6.953   7.249  0.0113 -0.0860  0.6956
  415MOL0     C55944   8.236   6.882   7.215  0.5632  0.6198  0.0098
  415MOL0     C55945   8.480   6.523   7.149 -0.0756  1.2758 -1.8275
  415MOL0     C55946   8.552   6.501   7.024 -0.1855  0.4440  0.4967
  415MOL0     C55947   8.658   6.416   7.009 -0.7829  0.0931 -0.7997
  415MOL0     C55948   8.694   6.334   7.116 -0.2654  1.0720  0.2454
  415MOL0     O55949   8.787   6.242   7.092 -0.4944 -0.8358  0.5745
  415MOL0     C55950   8.889   6.220   7.189 -0.2240 -0.6175  0.8197
  415MOL0     C55951   8.971   6.089   7.162  0.5566  0.6768 -0.7747
  415MOL0     C55952   9.082   6.064   7.259 -0.5894  0.2475  0.3620
  415MOL0     C55953   9.114   5.913   7.268  0.4937 -0.3955 -0.7176
  415MOL0     C55954   9.168   5.875   7.138  0.1435  0.0478  0.0647
  415MOL0     C55955   9.202   5.844   7.025  0.5870  0.6406 -0.3535
  415MOL0     C55956   8.628   6.344   7.241 -0.0553  0.8754  0.0597
  415MOL0     C55957   8.533   6.443   7.256 -0.3473 -0.0608 -0.0313
  415MOL0     H55958   8.122   6.733   6.936 -1.4012  0.2163  0.7052
  415MOL0     H55959   7.924   6.878   6.984 -2.0374 -0.0748  2.4212
  415MOL0     H55960   7.751   6.988   7.066  0.2096 -0.0025 -0.3797
  415MOL0     H55961   7.769   6.873   7.192 -5.1803 -1.0298 -5.1579
  415MOL0     H55962   7.689   7.045   7.352  0.9714  0.2996 -0.6313
  415MOL0     H55963   7.720   7.184   7.237  2.7360 -0.6509  0.4555
  415MOL0     H55964   7.488   7.144   7.259 -2.7102 -2.6947 -0.7172
  415MOL0     H55965   7.531   7.100   7.110  2.9107 -0.3678 -0.5032
  415MOL0     H55966   7.530   6.857   7.164 -1.5701 -2.9392  1.5365
  415MOL0     H55967   7.514   6.916   7.341 -1.0610  1.0821  1.3006
  415MOL0     H55968   7.285   6.983   7.286  0.3625  1.5821 -0.1502
  415MOL0     H55969   7.303   6.939   7.115  0.7443 -0.8616  0.0096
  415MOL0     H55970   7.339   6.706   7.164 -0.4421  0.1978 -0.1105
  415MOL0     H55971   7.376   6.734   7.329 -0.1758 -2.0593 -1.0201
  415MOL0     H55972   7.151   6.795   7.384  0.6093  1.3476 -0.8214
  415MOL0     H55973   7.109   6.820   7.222  0.3940  0.6615 -2.6315
  415MOL0     H55974   7.146   6.558   7.187 -0.1499 -3.1117  0.9390
  415MOL0     H55975   7.011   6.596   7.305  0.2446  0.5717  1.1327
  415MOL0     H55976   7.174   6.645   7.542  1.4687 -0.2473 -0.4207
  415MOL0     H55977   7.413   6.413   7.744  0.0888  0.5976  1.0992
  415MOL0     H55978   7.320   6.565   7.744 -1.6400 -0.0026  2.2994
  415MOL0     H55979   7.177   6.290   7.755  0.1222 -0.4578  0.7542
  415MOL0     H55980   7.099   6.440   7.762  0.7055  1.9688  1.4011
  415MOL0     H55981   7.193   6.496   7.974  0.8534 -0.5051  2.6423
  415MOL0     H55982   7.298   6.345   7.973 -0.7910 -2.0401 -0.7629
  415MOL0     H55983   7.082   6.213   7.961 -3.5233  0.2751 -0.5542
  415MOL0     H55984   6.990   6.365   7.973  0.8305  1.0874  2.4747
  415MOL0     H55985   7.057   6.431   8.365 -0.0082 -0.8625 -0.5370
  415MOL0     H55986   6.824   6.547   8.532  0.7454  0.5542  1.8393
  415MOL0     H55987   6.805   6.387   8.609  0.5166  0.4097  0.9525
  415MOL0     H55988   6.965   6.448   8.580  1.0556  0.9580 -1.9196
  415MOL0     H55989   6.280   6.448   8.420 -0.1990  1.3968 -0.6536
  415MOL0     H55990   6.113   6.520   8.600 -0.6218 -0.9859  3.0364
  415MOL0     H55991   6.143   6.539   8.954 -0.6830 -0.0077  0.2367
  415MOL0     H55992   6.303   6.620   8.968 -0.2534  0.7601  2.8038
  415MOL0     H55993   6.227   6.799   9.073  1.2941 -2.0152  2.7958
  415MOL0     H55994   6.047   6.759   9.014 -0.8518 -1.2566 -0.0954
  415MOL0     H55995   6.235   6.632   9.228  2.3186  2.8574 -2.5761
  415MOL0     H55996   6.051   6.595   9.193 -1.2875  0.7181 -1.1144
  415MOL0     H55997   6.119   6.728   9.396 -1.8046  2.1737  0.3171
  415MOL0     H55998   6.166   6.847   9.265 -0.3250  0.3988 -1.4115
  415MOL0     H55999   5.925   6.837   9.196  0.7915 -4.5608 -1.5488
  415MOL0     H56000   5.945   6.886   9.379  1.9823  0.0400  0.3413
  415MOL0     H56001   5.835   6.608   9.287 -0.3860 -0.4835  1.2154
  415MOL0     H56002   5.894   6.663   9.437 -2.8432 -0.2442  1.0094
  415MOL0     H56003   5.667   6.770   9.258  0.0392 -3.8271  0.1506
  415MOL0     H56004   5.722   6.863   9.410  0.5332 -1.5941  3.8775
  415MOL0     H56005   5.637   6.676   9.551 -3.3348 -0.5256  1.1629
  415MOL0     H56006   5.639   6.579   9.402 -1.1438 -0.8102  2.2237
  415MOL0     H56007   6.460   6.679   8.810  0.0990 -1.5208  1.2481
  415MOL0     H56008   6.606   6.606   8.618  0.1686  0.7119 -4.0016
  415MOL0     H56009   6.624   6.247   8.189 -1.6415  0.8387 -0.1695
  415MOL0     H56010   6.839   6.212   8.070 -2.3872  1.5645 -0.7641
  415MOL0     H56011   8.129   7.021   7.334 -0.6865 -0.3325  0.9647
  415MOL0     H56012   8.319   6.892   7.284 -1.2602  2.4069  2.0870
  415MOL0     H56013   8.504   6.560   6.946 -1.5238 -1.0952  0.0988
  415MOL0     H56014   8.713   6.412   6.915  0.4601  0.2091 -0.1085
  415MOL0     H56015   8.956   6.306   7.190 -3.1877  1.8848  0.2164
  415MOL0     H56016   8.847   6.233   7.289 -3.0578  2.4214 -0.5680
  415MOL0     H56017   9.015   6.109   7.064  1.1855 -1.7804 -1.0378
  415MOL0     H56018   8.903   6.004   7.168  0.0903  0.8982 -2.4689
  415MOL0     H56019   9.038   6.085   7.358  1.4515  3.4499  0.7529
  415MOL0     H56020   9.167   6.132   7.243 -0.9681  1.0574  1.5749
  415MOL0     H56021   9.026   5.853   7.295 -1.8014  1.8989 -2.5858
  415MOL0     H56022   9.187   5.897   7.348 -0.2350 -2.5001 -0.4187
  415MOL0     H56023   9.232   5.818   6.926  4.0744  0.3134  0.6450
  415MOL0     H56024   8.656   6.281   7.325  0.8369  0.3784 -0.5882
  415MOL0     H56025   8.499   6.437   7.359 -0.5737 -0.1004 -0.1096
  416MOL0     O56026   4.317  11.412   8.905  0.0240  0.0448 -0.2982
  416MOL0     C56027   4.406  11.459   8.970 -0.5340  0.2931 -0.6389
  416MOL0     O56028   4.405  11.504   9.100  0.2714  0.3469  0.3804
  416MOL0     C56029   4.280  11.480   9.166 -0.9900 -0.1544 -0.0300
  416MOL0     C56030   4.154  11.500   9.117  0.5260 -0.0342  0.5214
  416MOL0     C56031   4.039  11.504   9.198 -0.3313 -0.5048  0.3511
  416MOL0     C56032   4.055  11.496   9.326 -0.3776  1.9391 -0.6356
  416MOL0     O56033   3.942  11.519   9.401  0.6657  0.0871  0.1028
  416MOL0     C56034   3.938  11.487   9.539  0.2180 -0.0180  1.1601
  416MOL0     C56035   3.787  11.468   9.592  0.1888  0.9319 -0.3900
  416MOL0     C56036   3.691  11.584   9.546 -0.0413  0.1127  0.0472
  416MOL0     C56037   3.546  11.594   9.599 -0.3832  0.0449 -0.0150
  416MOL0     C56038   3.543  11.633   9.743  0.5078  0.9896  0.0693
  416MOL0     C56039   3.399  11.620   9.788  0.0877 -0.9524 -0.8426
  416MOL0     C56040   3.368  11.670   9.934  1.0574 -0.4551 -0.3917
  416MOL0     C56041   3.416  11.575  10.041  0.2768  0.5158 -0.8442
  416MOL0     N56042   3.377  11.622  10.178 -0.1209 -0.0832 -0.3362
  416MOL0     C56043   3.461  11.687  10.271  0.6539  0.5889  0.8971
  416MOL0     C56044   3.370  11.694  10.372  0.1659 -0.2091  0.6719
  416MOL0     C56045   3.376  11.760  10.507 -0.2756  0.3381 -0.3397
  416MOL0     C56046   3.409  11.656  10.619  0.6774  0.1590  0.5376
  416MOL0     C56047   3.376  11.720  10.751 -0.3350  0.3685  0.3886
  416MOL0     C56048   3.465  11.684  10.870  0.1815  0.1668  0.2294
  416MOL0     O56049   3.604  11.725  10.862  0.3615  0.0237 -0.0498
  416MOL0     C56050   3.674  11.732  10.985  0.3037 -0.0807  0.2300
  416MOL0     C56051   3.810  11.758  10.969  0.1270  0.1015  0.7740
  416MOL0     C56052   3.901  11.760  11.079  0.1064 -0.3351  0.3149
  416MOL0     C56053   4.049  11.794  11.054  0.2984 -0.2909 -0.1004
  416MOL0     C56054   3.852  11.743  11.209  0.0741  0.0982 -0.1670
  416MOL0     C56055   3.938  11.753  11.331 -1.2073 -0.7561 -0.9563
  416MOL0     O56056   3.875  11.758  11.456  0.2707  0.3649  0.3333
  416MOL0     C56057   3.928  11.723  11.572  0.3700  0.6394  0.0442
  416MOL0     C56058   3.869  11.775  11.685  0.3868 -0.0546 -0.8696
  416MOL0     C56059   3.920  11.736  11.813  0.6573 -0.2178  0.5702
  416MOL0     C56060   4.009  11.634  11.824  0.0101  0.1613  0.9625
  416MOL0     O56061   4.037  11.593  11.957  0.0610  0.0745 -0.1021
  416MOL0     C56062   4.091  11.462  11.980 -0.8056  0.9316  0.3378
  416MOL0     C56063   4.086  11.423  12.121 -0.9503 -0.3570 -1.1727
  416MOL0     C56064   4.198  11.493  12.204  0.0260 -0.4181 -0.3312
  416MOL0     C56065   4.341  11.422  12.196 -0.1877 -0.1177 -0.6608
  416MOL0     C56066   4.450  11.518  12.260 -0.4697  0.2651 -0.0035
  416MOL0     C56067   4.421  11.566  12.409 -0.5043 -0.0595  0.0018
  416MOL0     C56068   4.409  11.442  12.511  0.8277 -0.3485  0.0349
  416MOL0     C56069   4.538  11.423  12.605  0.6362 -0.4602  0.5785
  416MOL0    Cl56070   4.506  11.282  12.702  0.0833  0.0206  0.3951
  416MOL0     C56071   4.068  11.583  11.707  0.1814 -0.3967  0.1028
  416MOL0     C56072   4.027  11.630  11.580  0.2826 -0.4980 -0.9074
  416MOL0     O56073   4.061  11.750  11.319 -0.2598 -0.5157 -0.1987
  416MOL0     C56074   3.714  11.725  11.218 -0.8094 -0.2544 -0.9612
  416MOL0     C56075   3.627  11.710  11.113  0.2956 -0.4053  0.3898
  416MOL0     N56076   3.253  11.646  10.339  0.2356  0.2011  0.4728
  416MOL0     N56077   3.253  11.608  10.220 -1.1212 -0.0180 -0.5996
  416MOL0     C56078   4.181  11.461   9.380  0.6186  0.9217  0.3250
  416MOL0     C56079   4.292  11.449   9.299 -0.0410  0.6789  0.6750
  416MOL0     C56080   4.532  11.495   8.899  0.2707  0.3973  0.8778
  416MOL0     C56081   4.577  11.427   8.782  0.7730  0.7109  0.2439
  416MOL0     C56082   4.696  11.439   8.720 -0.5404 -0.0985 -0.7167
  416MOL0     C56083   4.786  11.529   8.782  0.5652  0.2993  0.4245
  416MOL0     O56084   4.914  11.568   8.743 -0.1215  0.9982  0.3551
  416MOL0     C56085   4.981  11.485   8.655 -0.1167 -0.3082  0.0225
  416MOL0     C56086   4.985  11.499   8.500 -0.7659 -0.6317 -1.3828
  416MOL0     C56087   5.014  11.653   8.480 -0.0482  0.2011  0.8745
  416MOL0     C56088   4.977  11.699   8.339 -0.5594  0.3843  0.5421
  416MOL0     C56089   4.952  11.842   8.341  0.1052 -0.2969  0.5511
  416MOL0     C56090   4.931  11.961   8.321 -0.1078  0.0411 -0.1452
  416MOL0     C56091   4.744  11.608   8.888  0.0087  0.3517  0.3472
  416MOL0     C56092   4.624  11.586   8.955  0.7049 -0.1206 -0.1593
  416MOL0     H56093   4.143  11.543   9.018  0.4711  1.3835  1.1122
  416MOL0     H56094   3.943  11.523   9.152  1.0740  0.7347 -2.3104
  416MOL0     H56095   3.990  11.392   9.555  0.2711  0.0442  1.3494
  416MOL0     H56096   3.997  11.566   9.586  0.6359  0.2519  0.1980
  416MOL0     H56097   3.743  11.373   9.564 -0.1431  1.1497 -0.6119
  416MOL0     H56098   3.796  11.461   9.701  0.4062  0.4014 -0.4410
  416MOL0     H56099   3.738  11.679   9.569 -0.7330  0.1609  1.3564
  416MOL0     H56100   3.674  11.567   9.439  0.0669 -2.1916  0.3473
  416MOL0     H56101   3.491  11.663   9.535  1.5231  0.5661 -1.1718
  416MOL0     H56102   3.491  11.500   9.591  1.0966 -0.9225  0.6552
  416MOL0     H56103   3.609  11.575   9.808 -0.3895  1.1983  1.1897
  416MOL0     H56104   3.587  11.732   9.760  1.5427  0.3007  1.6962
  416MOL0     H56105   3.334  11.675   9.720  1.2383  1.8014  0.1537
  416MOL0     H56106   3.370  11.514   9.792  2.2460 -1.5953  3.1684
  416MOL0     H56107   3.409  11.769   9.952 -1.7327  0.7690 -0.3442
  416MOL0     H56108   3.263  11.696   9.950  2.2419  3.7032  1.8344
  416MOL0     H56109   3.524  11.562  10.028  0.2148  1.6957 -2.9427
  416MOL0     H56110   3.366  11.479  10.026  3.7507 -2.0329  2.1920
  416MOL0     H56111   3.566  11.713  10.268  0.8417  0.0433  2.0574
  416MOL0     H56112   3.445  11.844  10.497 -1.0947  1.1526  0.6477
  416MOL0     H56113   3.276  11.800  10.524 -0.0223  0.8460 -0.0344
  416MOL0     H56114   3.515  11.634  10.630  1.3764  2.1317 -1.3917
  416MOL0     H56115   3.360  11.559  10.608  0.4804  0.1764  1.2479
  416MOL0     H56116   3.268  11.708  10.761 -0.5663 -0.1309 -1.9749
  416MOL0     H56117   3.389  11.828  10.740 -1.3081  0.8141  3.0738
  416MOL0     H56118   3.464  11.575  10.881  1.8010  0.1098  0.0870
  416MOL0     H56119   3.416  11.722  10.961 -0.1528  1.2807 -0.3985
  416MOL0     H56120   3.855  11.759  10.870 -2.6567  0.2588 -0.6148
  416MOL0     H56121   4.115  11.714  11.087 -0.7504 -1.6559 -1.1826
  416MOL0     H56122   4.063  11.816  10.948  0.0123  1.2153  0.1448
  416MOL0     H56123   4.081  11.875  11.120 -0.5444 -0.7534  0.8985
  416MOL0     H56124   3.793  11.852  11.676  0.7200  0.7776  2.2481
  416MOL0     H56125   3.880  11.789  11.900  2.1297  0.8328  0.6516
  416MOL0     H56126   4.031  11.388  11.926 -0.5752  1.1581 -0.2276
  416MOL0     H56127   4.194  11.457  11.943 -0.5900  1.6517  0.8079
  416MOL0     H56128   3.984  11.445  12.153  0.3067  3.9643  0.6849
  416MOL0     H56129   4.105  11.315  12.122 -0.7260 -0.4758 -4.7260
  416MOL0     H56130   4.165  11.510  12.307  1.1686  0.5019 -0.0979
  416MOL0     H56131   4.213  11.595  12.168  0.6541 -0.7674 -1.0921
  416MOL0     H56132   4.323  11.333  12.257 -3.4253  1.3602  0.7710
  416MOL0     H56133   4.372  11.394  12.095  1.8423 -1.9341  0.3618
  416MOL0     H56134   4.451  11.612  12.203  0.9111  0.8371  0.9199
  416MOL0     H56135   4.554  11.485  12.262 -0.0328  1.5304  2.9602
  416MOL0     H56136   4.511  11.618  12.441  1.3101 -3.0541  0.1466
  416MOL0     H56137   4.327  11.623  12.412  0.9674  2.5132 -0.2887
  416MOL0     H56138   4.381  11.351  12.456  0.2519 -2.0627  2.9355
  416MOL0     H56139   4.319  11.457  12.571  0.7045 -3.2457  0.7525
  416MOL0     H56140   4.550  11.500  12.682 -2.3824  0.4604  0.2587
  416MOL0     H56141   4.628  11.398  12.548  0.1416 -1.4029  0.1884
  416MOL0     H56142   4.155  11.518  11.710  0.1644 -0.4259 -0.0451
  416MOL0     H56143   4.090  11.588  11.502  0.1678  1.6541 -2.2259
  416MOL0     H56144   3.669  11.713  11.316  3.0217  1.5526  1.3033
  416MOL0     H56145   3.520  11.705  11.131  0.4091 -0.2641  1.1221
  416MOL0     H56146   4.203  11.432   9.482  1.0044 -2.1738 -0.5322
  416MOL0     H56147   4.389  11.427   9.342 -0.0322 -0.4301  0.1198
  416MOL0     H56148   4.513  11.350   8.742 -2.0755  1.8750  2.2589
  416MOL0     H56149   4.716  11.383   8.629 -1.5301  0.7377 -1.4702
  416MOL0     H56150   5.086  11.499   8.683 -0.2493  3.9208 -0.8779
  416MOL0     H56151   4.958  11.381   8.681  1.1401 -0.1700  1.8820
  416MOL0     H56152   4.892  11.453   8.466 -0.1308 -1.0421 -2.6038
  416MOL0     H56153   5.065  11.430   8.474  0.2507  0.3054 -0.8513
  416MOL0     H56154   5.118  11.680   8.501 -0.1829  0.6974  0.9134
  416MOL0     H56155   4.953  11.708   8.552  1.6381  0.3519  2.2634
  416MOL0     H56156   4.898  11.637   8.297  1.5852 -3.3689  1.5806
  416MOL0     H56157   5.068  11.680   8.281 -1.6395  2.9026 -2.2338
  416MOL0     H56158   4.909  12.064   8.298 -0.0891 -0.0402 -0.5211
  416MOL0     H56159   4.810  11.682   8.932  1.8531 -1.5073  0.8688
  416MOL0     H56160   4.593  11.650   9.037 -2.0425  0.6602 -1.6842
  417MOL0     O56161   5.971   9.979   2.891  0.6562 -0.1121 -1.0254
  417MOL0     C56162   6.057  10.003   2.809 -0.0907 -0.0324 -0.0940
  417MOL0     O56163   6.189  10.001   2.831 -0.2459  0.3419 -0.2328
  417MOL0     C56164   6.237   9.984   2.958 -1.0906 -0.2993 -2.2402
  417MOL0     C56165   6.211   9.868   3.029  0.1505  0.0801  0.3738
  417MOL0     C56166   6.283   9.834   3.139 -1.1283  0.4062  0.0294
  417MOL0     C56167   6.386   9.914   3.191  0.3577 -0.4326  0.7424
  417MOL0     O56168   6.475   9.858   3.288  1.1082 -0.5547  0.0242
  417MOL0     C56169   6.555   9.951   3.354  0.7693 -0.8541  0.1490
  417MOL0     C56170   6.627   9.870   3.459  0.2628 -0.2411  0.2130
  417MOL0     C56171   6.735   9.808   3.381  0.2412  0.7485 -0.2759
  417MOL0     C56172   6.790   9.693   3.465 -0.2643 -0.5284 -0.5018
  417MOL0     C56173   6.913   9.641   3.403  0.2745  0.0592  0.0147
  417MOL0     C56174   7.042   9.669   3.470  0.0194  0.0421 -0.9708
  417MOL0     C56175   7.158   9.602   3.391 -0.2100 -0.5570 -0.4909
  417MOL0     C56176   7.268   9.576   3.496  0.1124 -0.3660  0.0145
  417MOL0     N56177   7.383   9.515   3.432 -0.1289  0.2912 -0.9231
  417MOL0     C56178   7.393   9.390   3.374 -0.1153 -0.8780 -0.4347
  417MOL0     C56179   7.505   9.398   3.300 -0.3037 -0.0172  0.6631
  417MOL0     C56180   7.570   9.286   3.214  0.1313 -0.0208 -0.3352
  417MOL0     C56181   7.699   9.228   3.275 -0.1619 -0.0784  0.2438
  417MOL0     C56182   7.712   9.087   3.221  0.1092 -0.2181 -0.1156
  417MOL0     C56183   7.818   9.018   3.307  0.5868  0.3080  0.2425
  417MOL0     O56184   7.953   9.069   3.278  0.8683  0.5725 -0.3927
  417MOL0     C56185   8.053   9.028   3.360 -0.2419 -0.0921  0.8494
  417MOL0     C56186   8.177   9.089   3.349  0.5681  0.3417  0.4539
  417MOL0     C56187   8.293   9.063   3.430  0.3219  0.4494  0.4948
  417MOL0     C56188   8.415   9.151   3.397 -0.1691  1.7424 -0.0150
  417MOL0     C56189   8.274   8.964   3.531 -0.0944 -0.0841 -0.4755
  417MOL0     C56190   8.381   8.913   3.621 -0.0423  0.0858  0.2125
  417MOL0     O56191   8.501   8.981   3.639 -0.6283 -0.5983  0.6660
  417MOL0     C56192   8.586   8.926   3.733 -0.2938 -0.3052 -0.4982
  417MOL0     C56193   8.689   8.830   3.715  0.1024  0.5800  0.3457
  417MOL0     C56194   8.777   8.796   3.826  0.5392 -0.2430  0.6401
  417MOL0     C56195   8.767   8.869   3.952  0.3441  0.2629  0.7204
  417MOL0     O56196   8.849   8.825   4.056 -0.1414 -0.1722 -0.1931
  417MOL0     C56197   8.800   8.844   4.192  0.4063 -0.5561 -0.4311
  417MOL0     C56198   8.888   8.759   4.281 -0.2989 -0.5472 -0.1326
  417MOL0     C56199   8.832   8.789   4.424 -0.7345 -0.7394  0.6643
  417MOL0     C56200   8.905   8.690   4.524 -0.6766 -0.0202  0.5755
  417MOL0     C56201   8.814   8.638   4.645  0.4921  0.5843  0.2564
  417MOL0     C56202   8.897   8.542   4.726 -0.0330  0.6836  0.6526
  417MOL0     C56203   8.804   8.481   4.834  0.6789  0.3455 -0.2294
  417MOL0     C56204   8.750   8.353   4.775 -0.0080 -0.7996  0.4561
  417MOL0    Cl56205   8.864   8.224   4.800  0.0513 -0.2118 -0.8290
  417MOL0     C56206   8.663   8.960   3.962 -0.0739 -0.0807 -0.5697
  417MOL0     C56207   8.576   8.995   3.854  0.3439  0.7130  0.0403
  417MOL0     O56208   8.351   8.810   3.677  0.0128  0.3126 -0.6081
  417MOL0     C56209   8.155   8.892   3.540 -0.7590  0.0954  0.4396
  417MOL0     C56210   8.050   8.927   3.457  0.0112  0.2759 -0.0890
  417MOL0     N56211   7.561   9.518   3.320  0.3230  0.6335 -0.3464
  417MOL0     N56212   7.490   9.589   3.396  1.1565  0.4982 -0.4548
  417MOL0     C56213   6.403  10.037   3.129 -0.9575  0.0523  0.8957
  417MOL0     C56214   6.329  10.069   3.025 -0.2170 -0.1946  0.7415
  417MOL0     C56215   6.019  10.028   2.668  0.6286 -0.8723  0.3287
  417MOL0     C56216   5.885  10.047   2.633 -0.2395 -0.6774 -0.5937
  417MOL0     C56217   5.845  10.104   2.510  0.9723 -0.5221  0.1066
  417MOL0     C56218   5.933  10.130   2.405 -0.2555  0.2390 -0.9519
  417MOL0     O56219   5.894  10.192   2.282 -0.6521  0.9082 -0.7348
  417MOL0     C56220   5.767  10.255   2.271  0.3085  0.5636 -0.3189
  417MOL0     C56221   5.651  10.157   2.226  0.2647 -0.2270  1.0810
  417MOL0     C56222   5.515  10.227   2.234  0.5723  1.3085 -0.4200
  417MOL0     C56223   5.395  10.129   2.196 -0.0963  0.0054  0.2482
  417MOL0     C56224   5.371  10.114   2.047 -0.3669  0.6142 -0.2702
  417MOL0     C56225   5.361  10.084   1.934 -0.1145 -0.8006  0.2339
  417MOL0     C56226   6.065  10.089   2.434 -0.0061  0.2685  0.7256
  417MOL0     C56227   6.105  10.044   2.564  0.0213 -0.6875 -0.6532
  417MOL0     H56228   6.138   9.797   2.989 -0.4339  0.9123 -0.0718
  417MOL0     H56229   6.271   9.736   3.184  1.1998  0.9849  2.1300
  417MOL0     H56230   6.630  10.004   3.296  2.4968 -4.1591 -0.8558
  417MOL0     H56231   6.493  10.029   3.401 -0.2099  0.7365 -3.3989
  417MOL0     H56232   6.666   9.935   3.538  0.0140 -0.1999  0.3025
  417MOL0     H56233   6.574   9.791   3.515  2.3932 -0.1812  2.4973
  417MOL0     H56234   6.708   9.767   3.283 -1.0807 -1.4482  0.9181
  417MOL0     H56235   6.816   9.880   3.370  1.6771 -0.7529 -0.0465
  417MOL0     H56236   6.816   9.737   3.561 -0.3468 -0.4003 -0.5393
  417MOL0     H56237   6.716   9.615   3.484 -1.0351  0.8581  2.8344
  417MOL0     H56238   6.890   9.534   3.407 -0.8322  0.2987  0.2575
  417MOL0     H56239   6.919   9.661   3.296  1.8544 -0.7311 -0.0749
  417MOL0     H56240   7.057   9.777   3.479  0.6613 -0.0528 -0.8725
  417MOL0     H56241   7.045   9.637   3.575 -1.0785 -3.6953 -1.9047
  417MOL0     H56242   7.129   9.519   3.326  0.2229 -0.4239 -0.8613
  417MOL0     H56243   7.179   9.679   3.317 -3.8001 -0.2063 -1.3239
  417MOL0     H56244   7.224   9.501   3.562  0.6384  0.8138  1.7654
  417MOL0     H56245   7.289   9.667   3.553 -0.4468  0.8788 -1.6942
  417MOL0     H56246   7.327   9.304   3.376  0.6280 -1.4953 -1.6653
  417MOL0     H56247   7.500   9.203   3.208  1.7239 -1.3430 -1.6402
  417MOL0     H56248   7.596   9.329   3.117  2.2339 -0.2546  0.0753
  417MOL0     H56249   7.684   9.218   3.383  1.2086 -1.8932  0.3230
  417MOL0     H56250   7.784   9.293   3.248  0.7660 -1.6490 -0.7488
  417MOL0     H56251   7.741   9.079   3.116  0.9218  2.8894 -0.2145
  417MOL0     H56252   7.623   9.028   3.246  0.9115 -0.9619  1.0610
  417MOL0     H56253   7.815   8.915   3.271 -2.7779  1.4862 -3.6236
  417MOL0     H56254   7.802   9.027   3.415  2.8294 -0.8321  0.7349
  417MOL0     H56255   8.174   9.164   3.271 -2.1641  0.6345  0.7527
  417MOL0     H56256   8.480   9.163   3.485  0.2616 -1.1085  0.1430
  417MOL0     H56257   8.464   9.102   3.312 -1.9423  0.8489 -0.5686
  417MOL0     H56258   8.387   9.245   3.349 -1.7262  1.0736 -0.4679
  417MOL0     H56259   8.700   8.781   3.619 -0.0819  1.5033 -0.1614
  417MOL0     H56260   8.856   8.725   3.804  1.9467  2.3517 -3.9248
  417MOL0     H56261   8.801   8.951   4.213 -1.8088  0.0389 -2.8431
  417MOL0     H56262   8.696   8.810   4.198 -0.0514  0.8388 -0.0079
  417MOL0     H56263   8.869   8.656   4.249 -0.0231 -1.0082  1.1143
  417MOL0     H56264   8.993   8.786   4.265 -0.0312 -2.7906 -3.3029
  417MOL0     H56265   8.725   8.765   4.428 -2.0300  2.9239 -3.8091
  417MOL0     H56266   8.842   8.896   4.441  0.6250 -0.5713 -0.9297
  417MOL0     H56267   8.942   8.601   4.473 -1.7816  0.0336 -0.3730
  417MOL0     H56268   8.987   8.748   4.567 -1.8728  0.6874  2.0102
  417MOL0     H56269   8.721   8.594   4.608  1.8998 -1.3669 -1.1696
  417MOL0     H56270   8.791   8.724   4.709 -1.8659  0.5761 -0.4947
  417MOL0     H56271   8.937   8.461   4.663 -1.7951 -0.4782  0.9470
  417MOL0     H56272   8.985   8.588   4.771 -0.4712  1.5314  0.6634
  417MOL0     H56273   8.716   8.543   4.852 -0.6723 -1.3956 -0.5129
  417MOL0     H56274   8.848   8.468   4.934  0.7205 -3.7703 -0.6059
  417MOL0     H56275   8.735   8.367   4.668 -0.7779  0.4964  0.7055
  417MOL0     H56276   8.664   8.329   4.838 -1.7843 -0.1594 -1.5977
  417MOL0     H56277   8.647   9.008   4.059 -1.1219  0.9466 -1.2259
  417MOL0     H56278   8.496   9.066   3.872  0.7221  1.5382 -1.3772
  417MOL0     H56279   8.141   8.814   3.614 -0.6901  1.4718  1.9563
  417MOL0     H56280   7.958   8.869   3.469  1.5051 -2.9913 -2.6962
  417MOL0     H56281   6.485  10.106   3.147  0.1798 -0.3080 -2.2930
  417MOL0     H56282   6.348  10.158   2.966 -1.7128  0.8510  1.7868
  417MOL0     H56283   5.810  10.023   2.707  0.0432 -1.1317 -0.4444
  417MOL0     H56284   5.743  10.136   2.489  1.3629 -0.2107 -1.4858
  417MOL0     H56285   5.738  10.299   2.367 -1.1110 -2.5077  0.8060
  417MOL0     H56286   5.771  10.323   2.186  0.7603  0.5808 -0.2822
  417MOL0     H56287   5.640  10.060   2.277  1.8609 -1.2864 -0.4634
  417MOL0     H56288   5.657  10.125   2.121 -3.1252  0.9023  0.4294
  417MOL0     H56289   5.492  10.313   2.171 -3.2208 -0.6017 -1.9865
  417MOL0     H56290   5.519  10.263   2.337  2.6775  0.8231 -0.2878
  417MOL0     H56291   5.309  10.176   2.246  0.6604  2.0510 -0.2675
  417MOL0     H56292   5.420  10.030   2.234  1.7771  0.2418 -0.2920
  417MOL0     H56293   5.353  10.076   1.827 -2.1203 -1.3858  0.3741
  417MOL0     H56294   6.143  10.094   2.358 -0.6617 -0.4855 -0.0168
  417MOL0     H56295   6.211  10.027   2.580  0.9911  3.7515 -1.1986
  418MOL0     O56296   8.138   1.444   3.777  1.0445 -0.5736 -0.8853
  418MOL0     C56297   8.140   1.565   3.754 -0.1470 -0.0598 -1.3018
  418MOL0     O56298   8.249   1.641   3.781  0.0135  0.4399 -0.9717
  418MOL0     C56299   8.355   1.614   3.871  0.2928 -0.1073 -0.3933
  418MOL0     C56300   8.419   1.491   3.897 -0.2887  1.0153  0.7477
  418MOL0     C56301   8.528   1.477   3.985  0.1638 -0.1854 -0.5964
  418MOL0     C56302   8.581   1.588   4.051 -0.9960  1.0923 -0.5767
  418MOL0     O56303   8.697   1.581   4.120  0.0620 -0.0615 -0.4165
  418MOL0     C56304   8.708   1.471   4.215  0.0985  0.4589 -0.0016
  418MOL0     C56305   8.855   1.440   4.258  0.8603  0.0375 -0.9311
  418MOL0     C56306   8.850   1.339   4.376 -0.2635 -0.9926  1.3854
  418MOL0     C56307   8.987   1.290   4.409  0.6848 -0.4851 -0.2419
  418MOL0     C56308   8.973   1.215   4.546  0.9127 -0.8667  0.6133
  418MOL0     C56309   9.085   1.127   4.572 -0.1457  0.3284 -0.1741
  418MOL0     C56310   9.073   1.039   4.696 -0.6387 -0.3878  0.0504
  418MOL0     C56311   9.003   1.104   4.817 -0.1872 -0.6454  0.4379
  418MOL0     N56312   8.986   1.006   4.916  0.1393 -0.1339 -0.6321
  418MOL0     C56313   9.077   0.911   4.953 -0.0594 -0.0644 -0.3286
  418MOL0     C56314   9.004   0.833   5.035 -0.2912  0.4265  0.0379
  418MOL0     C56315   9.059   0.713   5.107  0.4554 -0.4188  0.0546
  418MOL0     C56316   9.031   0.723   5.266  0.9155  0.8193  0.7191
  418MOL0     C56317   9.077   0.603   5.352  0.2448 -0.3304 -0.9425
  418MOL0     C56318   9.219   0.605   5.401  0.5896  0.2487  0.1110
  418MOL0     O56319   9.239   0.495   5.494  0.6139  0.3327  0.1591
  418MOL0     C56320   9.371   0.472   5.536  0.8628 -0.7020 -1.1512
  418MOL0     C56321   9.489   0.507   5.460 -0.3886 -0.8730 -0.5714
  418MOL0     C56322   9.618   0.509   5.522 -0.8547 -0.1063  0.6358
  418MOL0     C56323   9.732   0.572   5.446 -0.2432  0.1326  0.3936
  418MOL0     C56324   9.630   0.469   5.656 -0.7072  0.7763  0.5169
  418MOL0     C56325   9.761   0.471   5.726  0.7337 -0.1454 -0.6692
  418MOL0     O56326   9.856   0.387   5.686 -0.4985  0.0135 -0.9080
  418MOL0     C56327   9.974   0.406   5.744 -0.7520  0.0935  1.0059
  418MOL0     C56328  10.044   0.294   5.795 -0.0668  0.0431  0.6578
  418MOL0     C56329  10.180   0.316   5.851  0.8873  0.2324  0.1420
  418MOL0     C56330  10.238   0.447   5.847 -0.3089  0.5966 -0.3228
  418MOL0     O56331  10.362   0.468   5.906 -0.7519 -0.7951  0.0478
  418MOL0     C56332  10.382   0.450   6.042 -0.3632  0.3985 -0.5495
  418MOL0     C56333  10.510   0.367   6.059 -0.5034  0.4013  0.6477
  418MOL0     C56334  10.496   0.223   6.002  0.6426 -0.8770 -0.2432
  418MOL0     C56335  10.584   0.113   6.056 -0.0650  0.0329  0.1651
  418MOL0     C56336  10.613  -0.005   5.959 -0.0215 -0.1486 -0.4332
  418MOL0     C56337  10.679   0.041   5.825 -0.2558 -0.2697  0.5002
  418MOL0     C56338  10.805   0.138   5.834 -0.4262  0.6831  1.3652
  418MOL0     C56339  10.837   0.205   5.702  1.3204  0.3882 -0.0418
  418MOL0    Cl56340  10.796   0.105   5.555  0.3473  0.3785 -0.2432
  418MOL0     C56341  10.179   0.548   5.782  0.4319 -0.5880  0.1186
  418MOL0     C56342  10.043   0.528   5.737 -0.3118 -0.3426 -0.1483
  418MOL0     O56343   9.765   0.538   5.825  0.5460 -0.6047 -0.7441
  418MOL0     C56344   9.524   0.403   5.714  0.3637 -0.4449 -0.3443
  418MOL0     C56345   9.397   0.412   5.656 -0.2892  0.5264  0.0199
  418MOL0     N56346   8.868   0.863   5.032  0.0943  0.4342 -0.1013
  418MOL0     N56347   8.858   0.972   4.959 -0.6963 -0.6752 -0.7689
  418MOL0     C56348   8.526   1.709   4.017  1.6749  0.8702 -0.0938
  418MOL0     C56349   8.411   1.719   3.934 -0.0260 -0.0800  0.0858
  418MOL0     C56350   8.021   1.623   3.690  0.4361 -0.0908  0.2780
  418MOL0     C56351   8.036   1.763   3.670  0.4850 -0.3220  0.4283
  418MOL0     C56352   7.927   1.842   3.613 -1.0594  0.6121  0.5067
  418MOL0     C56353   7.814   1.776   3.567  0.3498 -0.2838  0.0160
  418MOL0     O56354   7.699   1.846   3.518 -0.8632  0.4439 -0.2083
  418MOL0     C56355   7.607   1.778   3.430 -0.2253 -0.0164 -0.3832
  418MOL0     C56356   7.559   1.858   3.312 -0.0539 -0.4411 -0.3999
  418MOL0     C56357   7.461   1.778   3.227  0.2638 -0.3993 -0.0579
  418MOL0     C56358   7.317   1.791   3.275  0.8155  0.3788  0.4120
  418MOL0     C56359   7.291   1.710   3.395 -0.0786  0.1174  0.3148
  418MOL0     C56360   7.244   1.644   3.488 -0.8169  0.5448  0.1750
  418MOL0     C56361   7.806   1.635   3.591  0.3137 -0.1669 -0.1963
  418MOL0     C56362   7.902   1.557   3.655 -1.1413  0.1640  0.1002
  418MOL0     H56363   8.376   1.404   3.848 -1.1177  1.4820  0.6190
  418MOL0     H56364   8.566   1.377   3.999 -1.5199 -0.7860 -0.0044
  418MOL0     H56365   8.658   1.494   4.309  0.3179 -2.3382  0.9066
  418MOL0     H56366   8.664   1.379   4.174  0.6242  0.1475  0.1242
  418MOL0     H56367   8.918   1.385   4.188  0.8261 -0.7121 -0.3773
  418MOL0     H56368   8.908   1.532   4.285  0.1815  0.5812 -1.3824
  418MOL0     H56369   8.785   1.364   4.460 -0.4780 -1.6294  1.4125
  418MOL0     H56370   8.794   1.259   4.328 -2.2343  1.3017 -0.3745
  418MOL0     H56371   9.026   1.215   4.339  1.3013 -1.0913  0.7284
  418MOL0     H56372   9.065   1.367   4.411  0.3579 -0.0430  3.9732
  418MOL0     H56373   8.954   1.286   4.627 -1.0669 -2.8088  1.9816
  418MOL0     H56374   8.883   1.155   4.533  0.9641 -0.4095 -2.6882
  418MOL0     H56375   9.104   1.056   4.491 -0.5773 -0.5970  0.5028
  418MOL0     H56376   9.179   1.180   4.589  1.8335 -2.8276 -0.4197
  418MOL0     H56377   9.038   0.937   4.677  1.6190 -0.9344 -1.7038
  418MOL0     H56378   9.179   1.020   4.717 -0.2023 -0.1718 -1.7127
  418MOL0     H56379   8.912   1.155   4.785  0.7231 -0.0639 -1.4423
  418MOL0     H56380   9.070   1.181   4.857  0.1938 -1.2440  0.9710
  418MOL0     H56381   9.181   0.891   4.929 -0.8579 -0.8792 -3.5838
  418MOL0     H56382   9.021   0.627   5.051 -1.1804  1.0632 -1.2087
  418MOL0     H56383   9.165   0.719   5.084  0.1107 -0.4061 -1.6480
  418MOL0     H56384   8.922   0.729   5.274  0.8397 -1.6892  2.8226
  418MOL0     H56385   9.080   0.814   5.301  0.8326  0.2416  2.4090
  418MOL0     H56386   9.046   0.509   5.306 -1.2164  0.7103 -2.2066
  418MOL0     H56387   9.019   0.608   5.444  1.8619 -0.3176  0.1198
  418MOL0     H56388   9.233   0.692   5.466  1.7119 -0.2067  0.4958
  418MOL0     H56389   9.281   0.607   5.311  1.7939 -3.7356  0.6300
  418MOL0     H56390   9.480   0.550   5.361 -1.2258 -0.2023 -0.2160
  418MOL0     H56391   9.830   0.582   5.495  0.1996 -0.4432 -0.3519
  418MOL0     H56392   9.747   0.502   5.364  0.1226 -0.8049  1.2302
  418MOL0     H56393   9.697   0.668   5.410  0.4949  0.9052  1.6460
  418MOL0     H56394   9.991   0.199   5.798 -1.4335  0.3584 -4.2719
  418MOL0     H56395  10.212   0.227   5.903  1.8427  0.8428  0.6214
  418MOL0     H56396  10.396   0.543   6.097  0.2366 -1.3686  2.5158
  418MOL0     H56397  10.316   0.388   6.104 -0.4683  3.9426  3.2909
  418MOL0     H56398  10.590   0.432   6.020 -2.0954  2.3540  0.4711
  418MOL0     H56399  10.532   0.361   6.166 -4.1051  0.3529  1.5044
  418MOL0     H56400  10.506   0.231   5.894 -1.7824 -2.3136 -0.6410
  418MOL0     H56401  10.397   0.179   6.016  1.5474 -3.0176 -0.1340
  418MOL0     H56402  10.681   0.155   6.082 -1.7081  3.0205  2.0947
  418MOL0     H56403  10.530   0.074   6.143  2.3084 -2.2866  0.7034
  418MOL0     H56404  10.524  -0.058   5.925  1.7898 -3.2517 -0.6740
  418MOL0     H56405  10.685  -0.069   6.011  1.0633  1.2313 -0.1663
  418MOL0     H56406  10.714  -0.047   5.771 -0.6317  0.8198 -1.6463
  418MOL0     H56407  10.600   0.086   5.765  0.4153 -1.2070 -1.1476
  418MOL0     H56408  10.886   0.072   5.868 -0.8744 -0.5737  0.0455
  418MOL0     H56409  10.782   0.224   5.897 -1.1964  2.2429 -0.9154
  418MOL0     H56410  10.940   0.242   5.707  1.9273 -1.3827  4.3748
  418MOL0     H56411  10.763   0.285   5.694  0.3868 -0.5450 -1.1684
  418MOL0     H56412  10.218   0.649   5.769  0.3347 -0.4754  0.6734
  418MOL0     H56413  10.006   0.612   5.679  0.6160 -1.0034 -1.7563
  418MOL0     H56414   9.520   0.374   5.819 -0.9848 -1.3437 -0.6156
  418MOL0     H56415   9.310   0.377   5.711 -1.8297  0.3023 -2.4081
  418MOL0     H56416   8.568   1.803   4.050  1.3985  0.2235  2.2783
  418MOL0     H56417   8.369   1.815   3.906  0.5043 -1.1233 -5.2548
  418MOL0     H56418   8.134   1.802   3.694  0.6670 -0.3780 -0.2065
  418MOL0     H56419   7.929   1.949   3.594 -0.1598 -0.0462 -4.4093
  418MOL0     H56420   7.654   1.686   3.394  1.1851  0.8645 -0.8770
  418MOL0     H56421   7.525   1.751   3.497 -1.0096  0.6466 -1.0585
  418MOL0     H56422   7.640   1.872   3.240 -1.1105 -1.7602 -1.9093
  418MOL0     H56423   7.523   1.959   3.334  2.1448  0.4223 -0.5272
  418MOL0     H56424   7.481   1.671   3.224  1.5538 -0.3015  2.4634
  418MOL0     H56425   7.484   1.812   3.126 -1.2302 -2.2415 -1.0939
  418MOL0     H56426   7.260   1.755   3.189 -0.3644  0.3522  1.1841
  418MOL0     H56427   7.296   1.898   3.288  1.3599  0.3004  2.3331
  418MOL0     H56428   7.192   1.572   3.549 -1.8141 -0.6798 -2.0052
  418MOL0     H56429   7.714   1.588   3.557 -1.5061  3.2485 -0.4804
  418MOL0     H56430   7.898   1.450   3.667  2.0150 -0.3036 -1.9695
  419MOL0     O56431   1.147   0.249   6.081 -0.2789  0.5218  0.1129
  419MOL0     C56432   1.097   0.153   6.145 -0.3500  0.0486  0.5127
  419MOL0     O56433   1.091   0.133   6.281  0.1961 -1.0379 -0.1063
  419MOL0     C56434   1.141   0.225   6.370  0.0062  0.6720 -0.7317
  419MOL0     C56435   1.204   0.176   6.487  0.5281  0.2209  0.4833
  419MOL0     C56436   1.232   0.265   6.591  0.8098 -0.0322  0.0034
  419MOL0     C56437   1.205   0.408   6.580 -0.2550 -0.1072  0.5725
  419MOL0     O56438   1.258   0.509   6.659  0.2567  0.2729 -0.6925
  419MOL0     C56439   1.315   0.466   6.785 -1.2006 -0.1549 -0.2248
  419MOL0     C56440   1.408   0.570   6.844  0.6513 -0.4524 -0.5204
  419MOL0     C56441   1.532   0.577   6.751 -0.2450  0.3005  0.5456
  419MOL0     C56442   1.635   0.681   6.816  0.2632  0.1562  0.5572
  419MOL0     C56443   1.757   0.711   6.733 -0.6640 -0.0222 -1.4103
  419MOL0     C56444   1.844   0.596   6.691  0.5600 -0.6576 -0.3890
  419MOL0     C56445   1.945   0.622   6.578  0.2319 -0.3412 -0.2145
  419MOL0     C56446   2.026   0.755   6.583 -0.9656 -0.4782  0.6620
  419MOL0     N56447   2.138   0.768   6.485  0.3456  0.2764 -0.4001
  419MOL0     C56448   2.244   0.685   6.468 -0.1500 -0.2591 -0.4913
  419MOL0     C56449   2.321   0.747   6.374 -0.2250 -0.0479  0.7359
  419MOL0     C56450   2.446   0.698   6.313  0.4360 -0.1509 -0.2969
  419MOL0     C56451   2.576   0.768   6.371 -0.7955  0.2185 -0.5481
  419MOL0     C56452   2.590   0.782   6.518  0.8813  1.2636 -0.0362
  419MOL0     C56453   2.707   0.883   6.561  0.1255  0.3752 -0.0390
  419MOL0     O56454   2.678   1.015   6.515  0.6280 -0.1180  0.3193
  419MOL0     C56455   2.752   1.122   6.564  1.3283  0.7910 -0.0410
  419MOL0     C56456   2.854   1.108   6.657  0.2277 -0.6983  0.5732
  419MOL0     C56457   2.932   1.216   6.710 -0.5002 -0.8684  0.4326
  419MOL0     C56458   3.036   1.190   6.819  0.8908 -0.7733  0.3022
  419MOL0     C56459   2.897   1.348   6.660  1.2704 -0.2902  0.4262
  419MOL0     C56460   2.954   1.475   6.715  0.0758  0.2735  0.0486
  419MOL0     O56461   2.956   1.597   6.641  0.2044 -0.6743 -0.6263
  419MOL0     C56462   3.021   1.709   6.685 -0.1157  0.0276  0.1065
  419MOL0     C56463   2.974   1.779   6.796  0.1278 -0.1797 -0.4086
  419MOL0     C56464   3.040   1.882   6.848 -0.6558 -0.2223  0.1595
  419MOL0     C56465   3.155   1.931   6.791 -0.1599 -1.0039  0.6310
  419MOL0     O56466   3.231   2.021   6.866  0.0033  0.2666 -0.1951
  419MOL0     C56467   3.170   2.124   6.948  1.0439 -0.1283 -0.6921
  419MOL0     C56468   3.159   2.116   7.101 -0.8212  0.5286 -0.7079
  419MOL0     C56469   3.282   2.061   7.162 -1.0537  0.5357 -0.4587
  419MOL0     C56470   3.289   2.064   7.321  0.3936  0.4825 -0.0591
  419MOL0     C56471   3.340   2.199   7.371  0.4120  0.8910  0.4662
  419MOL0     C56472   3.291   2.227   7.513 -0.2609 -0.8774 -0.0762
  419MOL0     C56473   3.255   2.377   7.517  0.4560  0.8410 -0.0490
  419MOL0     C56474   3.184   2.409   7.652 -0.3215 -0.1301 -0.1357
  419MOL0    Cl56475   3.092   2.558   7.637 -0.2557 -0.5568 -0.1788
  419MOL0     C56476   3.209   1.863   6.686  0.3794  1.0878  0.2712
  419MOL0     C56477   3.134   1.759   6.621  0.0988 -0.4967 -0.0767
  419MOL0     O56478   2.977   1.469   6.833 -0.3133 -0.0671  0.6509
  419MOL0     C56479   2.806   1.365   6.565  0.4678 -0.5104 -0.5202
  419MOL0     C56480   2.736   1.256   6.512  0.3234 -0.4033 -0.4457
  419MOL0     N56481   2.268   0.873   6.345  0.4408 -0.4053 -0.0147
  419MOL0     N56482   2.157   0.880   6.408  1.0348  0.6961 -0.3534
  419MOL0     C56483   1.156   0.450   6.458  0.3961 -0.4098  0.4190
  419MOL0     C56484   1.106   0.361   6.365  0.4875 -0.4045  0.3934
  419MOL0     C56485   1.019   0.056   6.073  0.2426 -0.2177  0.9349
  419MOL0     C56486   0.998   0.074   5.935  0.1719 -0.7877  0.1106
  419MOL0     C56487   0.934  -0.026   5.864 -0.6117  0.2445  0.0435
  419MOL0     C56488   0.896  -0.146   5.917 -0.3710 -0.0981  0.7206
  419MOL0     O56489   0.834  -0.235   5.835  0.1911  0.3781 -0.1735
  419MOL0     C56490   0.782  -0.356   5.885 -1.5519 -0.2215 -0.3192
  419MOL0     C56491   0.745  -0.442   5.761 -0.0747 -0.1856 -0.9012
  419MOL0     C56492   0.852  -0.497   5.674 -0.5885 -0.3869 -0.4020
  419MOL0     C56493   0.919  -0.389   5.593  0.3290 -0.6534  0.5137
  419MOL0     C56494   0.989  -0.445   5.480  0.8039 -0.4514  0.3075
  419MOL0     C56495   1.052  -0.476   5.389 -0.3178  0.2659  0.6824
  419MOL0     C56496   0.921  -0.166   6.046 -0.8244 -0.4246 -0.2838
  419MOL0     C56497   0.979  -0.070   6.127  1.5527 -0.4480  0.4862
  419MOL0     H56498   1.221   0.069   6.494  0.1860  0.1487  0.2683
  419MOL0     H56499   1.255   0.217   6.686  0.5864 -1.2584 -0.5482
  419MOL0     H56500   1.237   0.446   6.858  1.1127 -2.5818  1.8079
  419MOL0     H56501   1.373   0.373   6.785 -0.9162  0.0094  0.9032
  419MOL0     H56502   1.351   0.664   6.844 -2.1516 -2.0322 -0.3344
  419MOL0     H56503   1.438   0.546   6.946  2.8168 -2.9971 -1.6419
  419MOL0     H56504   1.588   0.484   6.734  0.1411  0.6958 -0.4611
  419MOL0     H56505   1.520   0.616   6.649  3.1745 -1.3498 -0.6680
  419MOL0     H56506   1.587   0.777   6.837  0.8400  1.5064 -3.4463
  419MOL0     H56507   1.664   0.628   6.908 -1.0355 -1.2555  0.2062
  419MOL0     H56508   1.718   0.761   6.644 -2.2905  1.5907  0.1242
  419MOL0     H56509   1.817   0.785   6.785 -0.9989 -0.5349 -0.2711
  419MOL0     H56510   1.908   0.557   6.770 -1.4453  1.2447  2.3729
  419MOL0     H56511   1.778   0.512   6.667  2.8228 -2.1462 -1.8352
  419MOL0     H56512   2.023   0.546   6.581  3.7573  2.9557 -0.9512
  419MOL0     H56513   1.893   0.617   6.482 -2.0684 -1.1463  0.9994
  419MOL0     H56514   2.074   0.775   6.679  1.0425  2.7341 -0.8267
  419MOL0     H56515   1.953   0.834   6.565 -2.9815 -2.9202 -2.9277
  419MOL0     H56516   2.271   0.591   6.514 -1.2640 -0.1398  0.4386
  419MOL0     H56517   2.451   0.588   6.314 -2.1068 -0.3126  0.0616
  419MOL0     H56518   2.442   0.725   6.207  0.8590  2.7369  0.3452
  419MOL0     H56519   2.589   0.870   6.334  0.8142 -0.0959 -0.9197
  419MOL0     H56520   2.654   0.709   6.323  0.3411  1.4000 -0.2264
  419MOL0     H56521   2.604   0.688   6.572 -2.4259  0.1794 -0.8231
  419MOL0     H56522   2.498   0.820   6.562  0.3761  1.0516 -0.8743
  419MOL0     H56523   2.798   0.855   6.507 -1.3396 -0.8320 -2.0480
  419MOL0     H56524   2.721   0.876   6.670 -2.5711 -0.4632  0.3313
  419MOL0     H56525   2.884   1.014   6.702 -1.0941 -1.5386 -0.2038
  419MOL0     H56526   3.129   1.240   6.790  0.3804  1.5679  2.3684
  419MOL0     H56527   3.016   1.242   6.913  1.2424  1.9786 -1.0410
  419MOL0     H56528   3.046   1.083   6.843 -1.5869 -1.3801 -1.0583
  419MOL0     H56529   2.887   1.750   6.854 -0.5948 -0.9512 -1.7966
  419MOL0     H56530   3.011   1.917   6.946 -0.3345 -1.8441  0.8583
  419MOL0     H56531   3.226   2.217   6.934  0.1894  1.0663  2.8108
  419MOL0     H56532   3.070   2.133   6.905  1.4347 -1.1095 -1.8599
  419MOL0     H56533   3.140   2.217   7.139  1.5088  0.4367  0.8824
  419MOL0     H56534   3.074   2.051   7.126 -1.3968 -0.0184 -3.7425
  419MOL0     H56535   3.366   2.116   7.122 -1.2819  0.5512 -0.9244
  419MOL0     H56536   3.289   1.956   7.132  0.7158  1.2430 -2.7876
  419MOL0     H56537   3.197   2.036   7.373 -0.6644 -1.5710 -2.7607
  419MOL0     H56538   3.356   1.981   7.345  0.1618  0.2401 -0.2417
  419MOL0     H56539   3.306   2.276   7.300 -0.3687 -1.3519 -1.7477
  419MOL0     H56540   3.447   2.196   7.351  0.2067  1.5413 -0.8926
  419MOL0     H56541   3.198   2.174   7.537  0.0859 -2.4509 -1.9642
  419MOL0     H56542   3.371   2.197   7.582  0.7934 -1.0988 -1.3708
  419MOL0     H56543   3.175   2.387   7.443  0.6213 -0.5311 -0.4336
  419MOL0     H56544   3.334   2.452   7.516 -0.1569  1.5017 -1.4327
  419MOL0     H56545   3.258   2.412   7.733 -0.9472  0.3606  0.4268
  419MOL0     H56546   3.113   2.329   7.675 -0.3153  0.0348  0.4741
  419MOL0     H56547   3.307   1.892   6.650 -0.0838  1.7639 -0.4741
  419MOL0     H56548   3.178   1.706   6.538  0.0562 -0.8926  0.1510
  419MOL0     H56549   2.783   1.463   6.524 -0.7135 -0.5862 -0.0768
  419MOL0     H56550   2.659   1.278   6.438  1.4131  2.6545 -0.8083
  419MOL0     H56551   1.137   0.556   6.440 -0.6270 -0.5583  0.5667
  419MOL0     H56552   1.049   0.392   6.278 -0.7539 -2.6181  0.3548
  419MOL0     H56553   1.019   0.164   5.877 -0.3638 -0.2992  0.6666
  419MOL0     H56554   0.927  -0.022   5.756  3.6910 -0.6991 -0.4225
  419MOL0     H56555   0.853  -0.410   5.949 -1.7332 -0.1571 -0.0597
  419MOL0     H56556   0.702  -0.340   5.959 -0.9768 -1.0553  0.5067
  419MOL0     H56557   0.669  -0.396   5.698 -1.4082  0.0089  0.7582
  419MOL0     H56558   0.692  -0.530   5.799  0.3906 -0.4038 -0.7480
  419MOL0     H56559   0.817  -0.580   5.612  2.9928 -1.2091 -1.5286
  419MOL0     H56560   0.930  -0.542   5.736  0.8995 -0.5543 -2.3227
  419MOL0     H56561   0.992  -0.327   5.646  0.8179 -1.0584  0.3148
  419MOL0     H56562   0.837  -0.328   5.554 -0.7014 -3.1286 -1.4010
  419MOL0     H56563   1.115  -0.512   5.309  0.0848  1.4853  0.4326
  419MOL0     H56564   0.907  -0.263   6.093 -1.7258 -0.1461  0.0479
  419MOL0     H56565   1.003  -0.092   6.230  1.8028 -0.9331  0.3282
  420MOL0     O56566   2.617   2.197   0.715  0.5889  0.5736  0.5789
  420MOL0     C56567   2.536   2.105   0.723  0.3434 -0.1961  0.1507
  420MOL0     O56568   2.565   1.973   0.764 -0.9426  0.0389  0.4142
  420MOL0     C56569   2.691   1.965   0.818 -0.6396 -0.2085  0.6173
  420MOL0     C56570   2.785   1.880   0.753 -0.0990  0.3491 -0.1591
  420MOL0     C56571   2.908   1.855   0.813 -0.6709  0.5982  0.6697
  420MOL0     C56572   2.945   1.912   0.931  0.2910 -0.5954  0.1513
  420MOL0     O56573   3.053   1.883   1.014 -0.3164  0.5871 -1.0557
  420MOL0     C56574   3.142   1.794   0.967 -0.6942 -0.1763 -0.3556
  420MOL0     C56575   3.243   1.743   1.078  0.1479 -0.4117  0.0693
  420MOL0     C56576   3.330   1.862   1.113  0.6929  0.3453 -0.8439
  420MOL0     C56577   3.360   1.839   1.263 -0.0210  0.5627  0.2738
  420MOL0     C56578   3.478   1.932   1.302 -0.4030  1.2177  0.5654
  420MOL0     C56579   3.536   1.888   1.439  0.3384 -0.4623 -1.0057
  420MOL0     C56580   3.645   1.963   1.518  1.5847  0.2951  0.3597
  420MOL0     C56581   3.577   2.075   1.595  0.2085 -0.0901  0.3503
  420MOL0     N56582   3.543   2.034   1.731 -0.2444  0.6630 -0.2412
  420MOL0     C56583   3.439   1.964   1.789  0.2657  0.1809 -0.1397
  420MOL0     C56584   3.479   1.933   1.907  0.1531  0.0238 -0.8392
  420MOL0     C56585   3.396   1.848   2.006  0.0006 -0.5910 -0.0042
  420MOL0     C56586   3.293   1.935   2.073 -0.2786  0.3610  0.2440
  420MOL0     C56587   3.233   1.853   2.185  0.6203 -0.0963  0.2490
  420MOL0     C56588   3.142   1.951   2.269 -0.0246 -0.4473  0.0601
  420MOL0     O56589   3.007   1.960   2.215  0.2774  0.4550 -0.0893
  420MOL0     C56590   2.907   1.891   2.286  0.1186  0.3409 -0.3577
  420MOL0     C56591   2.787   1.958   2.308  0.1440 -0.1089 -0.4966
  420MOL0     C56592   2.688   1.904   2.381  0.5237 -0.3674 -0.1779
  420MOL0     C56593   2.561   1.990   2.389 -0.6143  0.9354 -0.7011
  420MOL0     C56594   2.699   1.772   2.432  0.2790  0.0989 -0.4648
  420MOL0     C56595   2.588   1.691   2.502 -0.4152 -0.2335  0.2728
  420MOL0     O56596   2.615   1.560   2.537  0.4961  0.7347  0.3238
  420MOL0     C56597   2.515   1.488   2.606 -0.1426 -0.1869 -0.0993
  420MOL0     C56598   2.415   1.430   2.524 -0.2401  0.6043 -0.0315
  420MOL0     C56599   2.316   1.351   2.583 -0.6529  0.1939 -0.1998
  420MOL0     C56600   2.305   1.331   2.723  0.7339 -0.8405  0.5858
  420MOL0     O56601   2.195   1.276   2.791  0.6711 -0.0282  0.2115
  420MOL0     C56602   2.093   1.220   2.713  0.4699 -0.7902  0.6994
  420MOL0     C56603   1.966   1.175   2.808 -0.5248  0.5476  0.4483
  420MOL0     C56604   2.008   1.085   2.923 -0.4088  0.9067  0.4723
  420MOL0     C56605   2.075   0.948   2.898 -0.9458 -0.6596  0.5108
  420MOL0     C56606   2.150   0.889   3.015 -0.1044 -0.0145  0.8998
  420MOL0     C56607   2.063   0.865   3.133 -0.0386 -0.3185  0.8629
  420MOL0     C56608   2.135   0.792   3.251 -0.4062 -0.0408  0.5667
  420MOL0     C56609   2.035   0.737   3.358 -0.4013 -0.8328 -0.2477
  420MOL0    Cl56610   1.969   0.571   3.330 -0.1611 -0.6333 -0.5013
  420MOL0     C56611   2.400   1.399   2.798 -0.1287  0.0307 -0.1426
  420MOL0     C56612   2.503   1.478   2.747 -0.2105  0.3205 -0.0820
  420MOL0     O56613   2.485   1.747   2.509 -0.2870  0.6855 -0.2815
  420MOL0     C56614   2.822   1.714   2.412 -0.8130  0.2786  0.7673
  420MOL0     C56615   2.922   1.766   2.337 -0.1957 -0.1701 -0.3644
  420MOL0     N56616   3.597   1.989   1.930  0.4483 -0.9923 -0.1805
  420MOL0     N56617   3.633   2.059   1.825  1.0683 -0.6715  0.6129
  420MOL0     C56618   2.851   1.994   0.999  0.6538  0.1089  0.4384
  420MOL0     C56619   2.722   2.012   0.941 -1.0157  0.6282  0.6469
  420MOL0     C56620   2.394   2.125   0.690 -0.3672 -0.4344  0.3517
  420MOL0     C56621   2.288   2.042   0.732  0.0164  0.3573  0.8887
  420MOL0     C56622   2.151   2.066   0.683 -0.1694  0.2910 -0.8494
  420MOL0     C56623   2.127   2.162   0.592  0.0521 -0.3782  0.7165
  420MOL0     O56624   1.992   2.174   0.560 -0.0304 -0.1261  0.3146
  420MOL0     C56625   1.974   2.214   0.416 -1.4464 -1.1411 -0.1446
  420MOL0     C56626   1.843   2.170   0.352  0.6277 -0.8611  0.2297
  420MOL0     C56627   1.783   2.030   0.399  0.1502  0.6256 -0.6404
  420MOL0     C56628   1.646   1.977   0.347 -0.1549  0.2434  0.0714
  420MOL0     C56629   1.661   1.950   0.204  0.3747 -0.4292 -0.5833
  420MOL0     C56630   1.675   1.929   0.082 -0.9279  0.4445 -0.0667
  420MOL0     C56631   2.231   2.247   0.552  0.0614 -0.5773  0.3474
  420MOL0     C56632   2.361   2.229   0.601 -0.2921  0.8722  0.1671
  420MOL0     H56633   2.756   1.840   0.656 -2.7064  1.1929  0.2133
  420MOL0     H56634   2.971   1.782   0.764 -0.1105  1.6634 -0.2349
  420MOL0     H56635   3.092   1.706   0.924  0.0630 -0.0316 -1.5761
  420MOL0     H56636   3.201   1.841   0.888  0.9682  0.0731  0.9905
  420MOL0     H56637   3.177   1.704   1.156 -0.6949  0.0812 -0.3808
  420MOL0     H56638   3.317   1.673   1.040  1.2628  0.3543  0.7690
  420MOL0     H56639   3.420   1.877   1.054  0.5839  0.8817 -0.8776
  420MOL0     H56640   3.285   1.961   1.111 -0.9004 -0.2164  1.9680
  420MOL0     H56641   3.266   1.868   1.310 -2.0294  0.7224 -3.4582
  420MOL0     H56642   3.382   1.732   1.272 -1.9663  0.0253 -0.8501
  420MOL0     H56643   3.563   1.935   1.232 -1.4247 -0.5603 -0.8483
  420MOL0     H56644   3.440   2.034   1.296 -1.6160  0.8909  2.1384
  420MOL0     H56645   3.467   1.833   1.504  1.2435 -1.7405 -1.0898
  420MOL0     H56646   3.595   1.801   1.410  2.2686  1.0442 -1.7868
  420MOL0     H56647   3.701   1.895   1.583  1.3464 -1.1287 -0.8999
  420MOL0     H56648   3.715   2.009   1.448  0.6031 -0.3890 -1.1280
  420MOL0     H56649   3.482   2.107   1.551  0.0526 -1.3799 -0.3056
  420MOL0     H56650   3.645   2.160   1.595 -2.1125  2.0500 -2.8950
  420MOL0     H56651   3.340   1.947   1.748 -1.1497  2.3719  2.0545
  420MOL0     H56652   3.356   1.768   1.944 -0.8077  0.5235 -0.9881
  420MOL0     H56653   3.461   1.808   2.085 -2.2978  1.1018  2.9765
  420MOL0     H56654   3.207   1.950   2.007 -2.5316 -2.0161  2.4106
  420MOL0     H56655   3.331   2.034   2.101 -1.4450 -0.6649  7.2688
  420MOL0     H56656   3.310   1.815   2.252  2.0439 -0.5356 -1.5609
  420MOL0     H56657   3.177   1.763   2.159 -0.2771  0.4893  0.0785
  420MOL0     H56658   3.168   2.057   2.273  0.7465 -0.6732  1.1101
  420MOL0     H56659   3.153   1.918   2.372 -0.5611 -2.8203 -0.5758
  420MOL0     H56660   2.773   2.057   2.267 -2.8944 -0.1284  0.2340
  420MOL0     H56661   2.532   2.005   2.494  1.9221  0.8439  0.0789
  420MOL0     H56662   2.582   2.088   2.347  1.8213  1.6697  1.9116
  420MOL0     H56663   2.485   1.945   2.325 -0.5471  1.3672 -1.0816
  420MOL0     H56664   2.413   1.418   2.417 -2.2110 -0.3372  0.0664
  420MOL0     H56665   2.253   1.299   2.512  0.9369 -2.0720 -0.0535
  420MOL0     H56666   2.060   1.305   2.651 -2.2666  0.1349  3.1558
  420MOL0     H56667   2.126   1.139   2.648 -0.6350 -0.5203 -0.2300
  420MOL0     H56668   1.922   1.270   2.840  0.7905  1.8561 -1.3748
  420MOL0     H56669   1.885   1.130   2.750 -0.6191  1.1709  0.0823
  420MOL0     H56670   1.926   1.063   2.991 -1.0962  1.5334 -0.1299
  420MOL0     H56671   2.079   1.143   2.983  1.1108 -0.4260  0.0482
  420MOL0     H56672   1.997   0.876   2.871 -2.0252  0.6337  0.0912
  420MOL0     H56673   2.133   0.965   2.807 -0.8465  1.5755  0.9400
  420MOL0     H56674   2.217   0.969   3.045  0.3275 -0.2085  0.4573
  420MOL0     H56675   2.202   0.797   2.988  0.6786  0.3663  1.1056
  420MOL0     H56676   2.024   0.958   3.177  1.3886 -0.1627  1.8618
  420MOL0     H56677   1.977   0.804   3.105  1.1402 -0.8212 -1.8690
  420MOL0     H56678   2.192   0.867   3.308  0.5104  0.8345 -1.4198
  420MOL0     H56679   2.214   0.718   3.234  0.6383  0.4277  2.8500
  420MOL0     H56680   1.954   0.808   3.378 -1.4839 -1.7194 -1.3104
  420MOL0     H56681   2.087   0.734   3.454  0.8831  0.0064 -0.8901
  420MOL0     H56682   2.402   1.399   2.906  0.4009  0.2702 -0.1498
  420MOL0     H56683   2.562   1.518   2.829  0.4297 -4.4089  2.0917
  420MOL0     H56684   2.824   1.608   2.436 -4.0482 -0.4074 -1.4999
  420MOL0     H56685   3.008   1.713   2.297  2.5570  2.9405  0.9490
  420MOL0     H56686   2.884   2.037   1.093 -1.7695 -2.6158  2.7463
  420MOL0     H56687   2.641   2.072   0.979 -1.2863  0.4156  0.4121
  420MOL0     H56688   2.325   1.967   0.801 -1.5803 -2.2955 -0.9485
  420MOL0     H56689   2.074   1.995   0.711 -0.9550  1.4935  0.1388
  420MOL0     H56690   1.969   2.323   0.421 -1.8187 -1.1970  0.9958
  420MOL0     H56691   2.051   2.183   0.344 -2.3555 -0.5824 -1.3923
  420MOL0     H56692   1.851   2.178   0.243 -2.3155  3.1828  0.0716
  420MOL0     H56693   1.760   2.237   0.377 -1.7406 -2.9057 -1.5695
  420MOL0     H56694   1.772   2.010   0.506 -2.3584 -0.7217 -1.0666
  420MOL0     H56695   1.847   1.960   0.345 -2.9858 -0.6781 -2.9853
  420MOL0     H56696   1.572   2.057   0.360 -1.2020 -0.7284  0.1442
  420MOL0     H56697   1.606   1.889   0.397  1.0842 -0.8102 -0.7547
  420MOL0     H56698   1.703   1.914  -0.020  3.8941  2.8625  0.6115
  420MOL0     H56699   2.202   2.330   0.489  1.6307  1.5224  2.2327
  420MOL0     H56700   2.445   2.290   0.570 -0.1741  2.4763  3.1959
  421MOL0     O56701  10.113   5.269   9.592  0.8357  0.2001 -0.0645
  421MOL0     C56702  10.226   5.269   9.635 -1.0960  0.4258 -0.2921
  421MOL0     O56703  10.321   5.176   9.606  0.2741  0.3640  0.1540
  421MOL0     C56704  10.281   5.058   9.549 -0.4469 -0.5566  0.4453
  421MOL0     C56705  10.213   5.053   9.432  0.1371 -1.0921 -0.7747
  421MOL0     C56706  10.194   4.931   9.367 -0.3357  0.0912  0.0773
  421MOL0     C56707  10.231   4.808   9.431 -0.8919  0.2260  0.4624
  421MOL0     O56708  10.206   4.690   9.372 -0.3385 -0.1196 -0.4410
  421MOL0     C56709  10.076   4.631   9.403 -0.2851  0.4418  0.4658
  421MOL0     C56710  10.068   4.479   9.338 -0.0544 -0.1230 -1.0341
  421MOL0     C56711  10.161   4.441   9.226 -0.5475  0.3884  0.3616
  421MOL0     C56712  10.300   4.401   9.285 -0.1390  0.2762 -1.0030
  421MOL0     C56713  10.396   4.337   9.182  0.0449 -1.3711 -0.3960
  421MOL0     C56714  10.467   4.435   9.094 -0.6851 -0.2766 -0.4661
  421MOL0     C56715  10.588   4.500   9.171  0.0906 -0.1673 -0.6283
  421MOL0     C56716  10.666   4.607   9.092 -0.0675 -0.3324  1.2312
  421MOL0     N56717  10.730   4.695   9.184 -1.1376  0.4803 -0.1601
  421MOL0     C56718  10.688   4.744   9.303  0.7347 -0.5778  0.2988
  421MOL0     C56719  10.794   4.801   9.366  0.1524 -0.4714  0.8899
  421MOL0     C56720  10.798   4.862   9.502 -0.4044 -0.4162  0.2197
  421MOL0     C56721  10.668   4.936   9.541  0.4158  1.3828  0.5381
  421MOL0     C56722  10.690   5.029   9.662 -0.0597 -0.3334  0.4003
  421MOL0     C56723  10.719   4.953   9.797 -0.1160  0.1447 -0.6917
  421MOL0     O56724  10.853   4.905   9.808  0.3037 -0.3119  0.3859
  421MOL0     C56725  10.925   4.910   9.928  0.0586  0.0003  0.3517
  421MOL0     C56726  10.856   4.922  10.052 -1.2634 -0.0198  0.4012
  421MOL0     C56727  10.928   4.956  10.168  0.0473 -0.3990  0.1820
  421MOL0     C56728  10.836   4.980  10.286 -0.1159 -0.2763 -0.1827
  421MOL0     C56729  11.067   4.962  10.159 -0.0253  0.0881 -0.5384
  421MOL0     C56730  11.155   4.989  10.275  0.1468  0.9226  0.5069
  421MOL0     O56731  11.276   5.042  10.243  0.2861 -0.1692 -0.4313
  421MOL0     C56732  11.359   5.105  10.331  0.5497  0.7002  0.5654
  421MOL0     C56733  11.321   5.154  10.452  0.1619 -0.1825  0.5560
  421MOL0     C56734  11.408   5.234  10.531  0.1241  0.5426  0.0113
  421MOL0     C56735  11.541   5.266  10.482 -0.5476  0.7527 -0.2965
  421MOL0     O56736  11.635   5.333  10.555  0.0967  0.5289 -0.3987
  421MOL0     C56737  11.628   5.312  10.696 -0.0387  0.0519  0.0934
  421MOL0     C56738  11.774   5.337  10.754 -0.0480 -0.6763 -0.8298
  421MOL0     C56739  11.858   5.462  10.715 -0.1855 -0.4031  0.9353
  421MOL0     C56740  11.981   5.449  10.792  1.0412  0.1626  0.9366
  421MOL0     C56741  12.082   5.561  10.768 -1.2278  0.0546  0.2858
  421MOL0     C56742  12.147   5.527  10.633  0.2744  0.6963 -0.4475
  421MOL0     C56743  12.283   5.596  10.611  0.2154 -0.4606  1.1670
  421MOL0     C56744  12.314   5.591  10.467  0.0771 -0.2019 -0.1271
  421MOL0    Cl56745  12.484   5.652  10.445  0.3245 -0.0647 -0.0474
  421MOL0     C56746  11.578   5.205  10.361 -1.0794 -0.6780 -0.1898
  421MOL0     C56747  11.484   5.132  10.290 -0.5830 -0.7377 -0.0621
  421MOL0     O56748  11.116   4.955  10.390  0.0957 -0.7858  0.2198
  421MOL0     C56749  11.144   4.940  10.038  0.0025  0.4377  0.8496
  421MOL0     C56750  11.065   4.918   9.926 -0.6588 -0.7341 -1.6358
  421MOL0     N56751  10.905   4.783   9.280  0.2998 -0.0321 -0.0988
  421MOL0     N56752  10.858   4.738   9.160 -0.2860 -0.4967  0.5401
  421MOL0     C56753  10.302   4.815   9.547 -0.8487 -0.7286  0.0875
  421MOL0     C56754  10.330   4.935   9.606  0.4601 -0.5694  0.1540
  421MOL0     C56755  10.287   5.381   9.710 -0.3209 -0.2827 -0.1946
  421MOL0     C56756  10.426   5.387   9.742 -0.9085  0.3972 -0.4031
  421MOL0     C56757  10.483   5.501   9.797  0.1880 -0.1491 -0.0186
  421MOL0     C56758  10.400   5.612   9.837 -0.0985 -0.4227 -0.3452
  421MOL0     O56759  10.453   5.729   9.890 -0.6318  0.2038  0.2348
  421MOL0     C56760  10.580   5.773   9.844  0.0773 -0.3517 -0.6181
  421MOL0     C56761  10.676   5.771   9.958  0.5745  1.0527 -0.2769
  421MOL0     C56762  10.726   5.638  10.001  0.3233  0.1022 -0.3893
  421MOL0     C56763  10.845   5.596   9.911  0.0701  0.3237 -0.1358
  421MOL0     C56764  10.847   5.454   9.885  0.0886  0.5224 -0.0459
  421MOL0     C56765  10.841   5.331   9.865  0.0331 -0.2329 -0.6276
  421MOL0     C56766  10.257   5.598   9.814 -0.4288 -0.6044  0.1887
  421MOL0     C56767  10.211   5.490   9.750 -0.3710  0.4777 -0.0453
  421MOL0     H56768  10.183   5.149   9.392 -5.1356 -0.8822  2.7062
  421MOL0     H56769  10.150   4.929   9.268 -1.6704  0.3723  0.6381
  421MOL0     H56770  10.066   4.628   9.512 -1.6718  2.8339  0.4718
  421MOL0     H56771  10.003   4.700   9.361  1.0318  3.0939  2.2566
  421MOL0     H56772  10.078   4.408   9.420 -2.0501  0.1628 -0.4973
  421MOL0     H56773   9.965   4.461   9.307 -0.4908 -3.0894  1.6521
  421MOL0     H56774  10.125   4.355   9.170 -1.2209  2.4599 -2.6430
  421MOL0     H56775  10.178   4.509   9.142  0.2187  0.3148  0.4519
  421MOL0     H56776  10.346   4.492   9.326  2.5118 -1.6174  0.4919
  421MOL0     H56777  10.289   4.332   9.369 -0.8916  0.7925 -0.6641
  421MOL0     H56778  10.467   4.279   9.243 -2.1512 -1.3613  2.3865
  421MOL0     H56779  10.325   4.268   9.135 -2.9190  1.5694 -0.5857
  421MOL0     H56780  10.517   4.377   9.016 -3.1523 -3.4142  0.0889
  421MOL0     H56781  10.404   4.511   9.046 -2.2789 -0.8849  0.5677
  421MOL0     H56782  10.554   4.536   9.269  2.1843 -0.9895  0.4629
  421MOL0     H56783  10.669   4.430   9.192 -0.2752 -0.6966 -0.9537
  421MOL0     H56784  10.582   4.653   9.039  2.0995  0.4167 -1.8343
  421MOL0     H56785  10.733   4.569   9.014  1.5504  1.6589  1.5680
  421MOL0     H56786  10.584   4.738   9.334  0.8850 -1.3805  0.6691
  421MOL0     H56787  10.825   4.790   9.580 -1.4580 -0.4283  0.5835
  421MOL0     H56788  10.882   4.932   9.498 -1.3135  0.6425 -0.9916
  421MOL0     H56789  10.591   4.861   9.562  0.1570  1.2762 -0.6951
  421MOL0     H56790  10.633   4.984   9.449 -0.6561 -1.9377 -0.9512
  421MOL0     H56791  10.598   5.088   9.669  0.5442  0.5797  0.9956
  421MOL0     H56792  10.774   5.098   9.648  1.5264 -1.7362  2.3028
  421MOL0     H56793  10.649   4.869   9.800 -1.1906  0.8480 -3.3976
  421MOL0     H56794  10.687   5.010   9.885 -3.8628  0.2351 -1.9150
  421MOL0     H56795  10.748   4.914  10.063 -1.4862 -1.0330 -2.0376
  421MOL0     H56796  10.803   4.891  10.339 -0.8559  0.8853  1.3983
  421MOL0     H56797  10.877   5.053  10.357 -0.1531 -0.1364 -0.3044
  421MOL0     H56798  10.743   5.028  10.253  1.3481  0.9850 -2.7764
  421MOL0     H56799  11.221   5.150  10.494 -0.3383  0.3558 -0.5303
  421MOL0     H56800  11.377   5.250  10.633  0.3971 -3.5639  0.9087
  421MOL0     H56801  11.559   5.380  10.745 -1.2665  0.1848 -1.7447
  421MOL0     H56802  11.592   5.209  10.703 -1.0797  0.5573  4.0228
  421MOL0     H56803  11.754   5.344  10.861  0.4520 -1.1927 -0.6990
  421MOL0     H56804  11.830   5.243  10.750 -0.1138 -0.8191  1.0132
  421MOL0     H56805  11.814   5.560  10.735 -0.0473 -0.4735  1.6153
  421MOL0     H56806  11.882   5.462  10.608  0.3731  0.0207  1.0581
  421MOL0     H56807  11.950   5.461  10.896 -2.3984  0.1986  0.0154
  421MOL0     H56808  12.033   5.353  10.791  1.7112  0.5204  0.3977
  421MOL0     H56809  12.169   5.573  10.833 -0.8424  3.6588 -0.6772
  421MOL0     H56810  12.028   5.655  10.758  0.2268  0.7701 -1.6451
  421MOL0     H56811  12.152   5.424  10.597 -0.0254  1.2331 -2.1412
  421MOL0     H56812  12.077   5.576  10.564 -1.3863 -1.2840 -0.2889
  421MOL0     H56813  12.363   5.549  10.669  0.6102 -1.7084 -0.3372
  421MOL0     H56814  12.260   5.699  10.639 -4.1730 -0.3271 -1.9389
  421MOL0     H56815  12.242   5.655  10.415 -2.1336  0.0473  2.9797
  421MOL0     H56816  12.303   5.490  10.428  0.5853 -0.9404  1.5423
  421MOL0     H56817  11.680   5.227  10.329 -0.0172  0.7110  3.7025
  421MOL0     H56818  11.517   5.105  10.190 -1.0186 -0.8534 -0.1789
  421MOL0     H56819  11.252   4.938  10.038  0.1714 -5.3605  0.9758
  421MOL0     H56820  11.134   4.899   9.844 -1.4534 -3.4679 -1.7454
  421MOL0     H56821  10.358   4.730   9.584  0.7179  0.2639  0.1283
  421MOL0     H56822  10.382   4.942   9.702  1.7963  0.4052 -0.6053
  421MOL0     H56823  10.502   5.310   9.729  0.9168  2.1075 -0.3017
  421MOL0     H56824  10.591   5.508   9.807  0.1663 -1.6934  1.9234
  421MOL0     H56825  10.620   5.724   9.755 -0.5993 -3.6665  0.7504
  421MOL0     H56826  10.575   5.879   9.818  4.0455 -0.1669 -1.1788
  421MOL0     H56827  10.618   5.815  10.040 -0.5122 -0.4523 -0.1844
  421MOL0     H56828  10.757   5.843   9.943  2.2170 -0.5752  0.3273
  421MOL0     H56829  10.653   5.557  10.004  3.9373 -3.5738  3.7794
  421MOL0     H56830  10.763   5.659  10.102 -2.5445 -1.2522  1.0407
  421MOL0     H56831  10.939   5.632   9.954 -0.7653 -0.2354  2.3115
  421MOL0     H56832  10.829   5.643   9.814 -1.2702 -0.2061 -0.1929
  421MOL0     H56833  10.828   5.226   9.852  0.0913 -0.3567  0.2583
  421MOL0     H56834  10.192   5.685   9.828  1.2245  0.6132  0.6078
  421MOL0     H56835  10.106   5.492   9.723 -0.9256  1.3097  1.9948
  422MOL0     O56836   7.773  11.183   7.695  0.2606  0.1033 -0.0517
  422MOL0     C56837   7.664  11.230   7.719 -0.0648  0.0092 -0.1012
  422MOL0     O56838   7.583  11.179   7.810  0.1280  0.2432 -0.1938
  422MOL0     C56839   7.617  11.101   7.913 -0.1321  0.2664  0.1676
  422MOL0     C56840   7.504  11.024   7.960 -0.0576 -0.5712 -0.4033
  422MOL0     C56841   7.531  10.934   8.065 -0.0077  0.2294 -0.3371
  422MOL0     C56842   7.659  10.917   8.124  0.1350 -0.5712  0.5263
  422MOL0     O56843   7.668  10.840   8.239  0.3359  0.6265  0.2102
  422MOL0     C56844   7.640  10.698   8.222  0.3849  0.0977 -0.6213
  422MOL0     C56845   7.605  10.634   8.354  0.6154  0.3282 -0.3695
  422MOL0     C56846   7.702  10.677   8.460 -0.4325  0.5941 -0.7214
  422MOL0     C56847   7.668  10.583   8.578 -0.9497 -0.9303 -0.5938
  422MOL0     C56848   7.780  10.581   8.688 -0.1837 -0.2775  0.2502
  422MOL0     C56849   7.907  10.511   8.633  0.6376  0.3223 -0.2021
  422MOL0     C56850   8.009  10.517   8.751 -1.1030  0.2468 -0.3844
  422MOL0     C56851   8.149  10.453   8.715  0.6447 -0.3808  0.5671
  422MOL0     N56852   8.251  10.440   8.820  0.3060 -0.3581 -0.3586
  422MOL0     C56853   8.383  10.480   8.824  0.2877 -0.0749  0.7621
  422MOL0     C56854   8.434  10.411   8.923 -0.1388  0.6243 -0.3258
  422MOL0     C56855   8.581  10.421   8.963 -0.5638 -0.5415 -0.1424
  422MOL0     C56856   8.634  10.364   9.096 -0.3985  0.5193  0.1488
  422MOL0     C56857   8.769  10.413   9.146 -0.0589  0.3388  0.2183
  422MOL0     C56858   8.769  10.537   9.236 -0.3531  0.2435 -0.6760
  422MOL0     O56859   8.734  10.659   9.169 -0.3975  0.6478 -0.5401
  422MOL0     C56860   8.686  10.766   9.228 -0.4755 -0.5909 -1.1640
  422MOL0     C56861   8.660  10.873   9.142  0.0190 -0.1369  0.0897
  422MOL0     C56862   8.615  10.994   9.190 -0.2831  0.5307  0.3733
  422MOL0     C56863   8.565  11.090   9.091  0.4220 -0.0064  0.1070
  422MOL0     C56864   8.597  11.007   9.327  1.0543 -0.5041 -0.9314
  422MOL0     C56865   8.532  11.122   9.395 -0.3178 -0.5310 -0.6364
  422MOL0     O56866   8.575  11.153   9.521 -0.1352  0.1611 -0.3411
  422MOL0     C56867   8.582  11.289   9.526  0.0313  0.7120  0.4296
  422MOL0     C56868   8.480  11.368   9.580 -0.7990  0.5005 -0.0473
  422MOL0     C56869   8.511  11.508   9.607  0.3406 -0.6847 -0.9873
  422MOL0     C56870   8.638  11.558   9.566 -0.3599 -0.6135 -0.3945
  422MOL0     O56871   8.661  11.697   9.579  0.3650  0.8619  0.1424
  422MOL0     C56872   8.789  11.725   9.634 -0.0541 -0.9288 -0.1688
  422MOL0     C56873   8.791  11.683   9.777 -0.4538 -0.4311  0.0550
  422MOL0     C56874   8.682  11.743   9.869  0.2486  0.1249 -0.6013
  422MOL0     C56875   8.700  11.724  10.023 -0.0145  0.8510  0.6646
  422MOL0     C56876   8.588  11.790  10.085 -0.2249 -0.0818 -0.0054
  422MOL0     C56877   8.611  11.738  10.228 -0.7525 -1.1624 -0.0840
  422MOL0     C56878   8.532  11.821  10.345 -0.1635 -0.5174  0.9058
  422MOL0     C56879   8.386  11.821  10.325  0.6260  0.2222 -0.1982
  422MOL0    Cl56880   8.320  11.653  10.342 -0.5630 -0.2027  0.1912
  422MOL0     C56881   8.730  11.469   9.513  0.6424  1.0330  0.1052
  422MOL0     C56882   8.704  11.331   9.493  0.2323  0.0068 -0.4029
  422MOL0     O56883   8.438  11.174   9.336 -0.0671  0.3357 -0.1035
  422MOL0     C56884   8.628  10.901   9.415 -0.1481 -0.7174  0.9470
  422MOL0     C56885   8.675  10.783   9.364  0.6960 -0.1799 -0.1829
  422MOL0     N56886   8.333  10.354   8.998  0.2329  1.1677  0.0427
  422MOL0     N56887   8.227  10.358   8.928  0.9841 -0.1068 -0.1838
  422MOL0     C56888   7.764  10.997   8.077 -0.0239 -0.1423 -0.3255
  422MOL0     C56889   7.744  11.094   7.979 -0.1968  0.2886 -0.1678
  422MOL0     C56890   7.619  11.344   7.633  0.1376  1.1115 -0.1225
  422MOL0     C56891   7.689  11.376   7.517  0.5644  0.2911 -0.2048
  422MOL0     C56892   7.636  11.472   7.429 -0.8359 -0.1783  0.0182
  422MOL0     C56893   7.517  11.532   7.450 -0.4893  0.0735  0.3506
  422MOL0     O56894   7.466  11.633   7.368 -0.5227  0.1875 -0.4649
  422MOL0     C56895   7.516  11.644   7.236  0.2641  0.2310  0.9865
  422MOL0     C56896   7.438  11.738   7.152  0.3778  0.0666 -0.1461
  422MOL0     C56897   7.288  11.706   7.123 -0.1505  0.4132  0.3916
  422MOL0     C56898   7.246  11.827   7.030 -0.1269 -0.1048 -0.2971
  422MOL0     C56899   7.211  11.942   7.110 -0.3637  0.1425 -0.5629
  422MOL0     C56900   7.193  12.041   7.179 -0.0832 -0.0426  0.2036
  422MOL0     C56901   7.444  11.500   7.559 -0.1809  0.8215  0.3395
  422MOL0     C56902   7.490  11.401   7.653  0.3057 -0.0761 -0.6682
  422MOL0     H56903   7.411  11.040   7.907  0.0633 -0.5044 -0.5975
  422MOL0     H56904   7.459  10.864   8.107 -1.3174  1.3101 -0.7024
  422MOL0     H56905   7.567  10.684   8.141 -1.0304  0.7793  0.4963
  422MOL0     H56906   7.731  10.643   8.197 -0.3973 -0.2577 -2.9541
  422MOL0     H56907   7.505  10.663   8.389  0.9424 -0.6276  1.4656
  422MOL0     H56908   7.600  10.526   8.341 -0.2642  0.2707  0.3690
  422MOL0     H56909   7.799  10.639   8.426 -0.6920 -0.5065 -0.2920
  422MOL0     H56910   7.700  10.784   8.483  2.1620  0.5385  0.1514
  422MOL0     H56911   7.577  10.625   8.621 -0.8115 -0.7949 -0.4325
  422MOL0     H56912   7.648  10.482   8.540  0.1417 -0.5134 -2.3739
  422MOL0     H56913   7.810  10.685   8.700 -1.6631  0.6375 -3.0703
  422MOL0     H56914   7.744  10.550   8.787 -2.2465  2.6018  0.4939
  422MOL0     H56915   7.887  10.408   8.605  2.3776  0.5150 -2.4279
  422MOL0     H56916   7.955  10.560   8.547 -2.1641  2.5953 -0.6276
  422MOL0     H56917   8.031  10.620   8.781  1.2309 -0.4317  0.4309
  422MOL0     H56918   7.969  10.465   8.838  0.3345  0.0285  0.1654
  422MOL0     H56919   8.185  10.512   8.630 -2.9291 -0.0658 -0.9081
  422MOL0     H56920   8.122  10.352   8.684 -0.5878 -0.6523  2.3564
  422MOL0     H56921   8.429  10.551   8.756  0.2775 -1.8270 -1.1853
  422MOL0     H56922   8.637  10.372   8.883  0.5093 -0.2682  0.4266
  422MOL0     H56923   8.588  10.530   8.972 -0.1753 -0.5112 -0.7950
  422MOL0     H56924   8.638  10.256   9.076 -0.9087  0.1737  1.7836
  422MOL0     H56925   8.563  10.360   9.179  1.3627 -2.5135  1.6967
  422MOL0     H56926   8.835  10.438   9.063 -0.3912  3.6335  0.7877
  422MOL0     H56927   8.813  10.331   9.203 -0.5700  0.1397  0.3328
  422MOL0     H56928   8.869  10.554   9.277  0.2431  2.4625 -2.7660
  422MOL0     H56929   8.701  10.521   9.320  1.9489 -1.0785  1.0234
  422MOL0     H56930   8.679  10.847   9.038 -0.7558 -0.3653 -0.0040
  422MOL0     H56931   8.594  11.077   8.986  0.0885  0.6165 -0.0698
  422MOL0     H56932   8.455  11.087   9.098  0.5386 -1.1267  3.0645
  422MOL0     H56933   8.571  11.196   9.115 -2.3709 -0.0856  1.5884
  422MOL0     H56934   8.378  11.336   9.595 -1.5295  1.2864 -2.7776
  422MOL0     H56935   8.441  11.577   9.653  2.3285  0.3914  0.6349
  422MOL0     H56936   8.854  11.685   9.555  0.1422  0.1898 -0.5947
  422MOL0     H56937   8.806  11.833   9.629 -2.8734 -0.4389 -2.7773
  422MOL0     H56938   8.770  11.576   9.776  1.9055 -0.9404 -0.9335
  422MOL0     H56939   8.889  11.713   9.815 -0.8502 -1.2687  1.8147
  422MOL0     H56940   8.583  11.705   9.841 -0.0142 -0.6990  1.2847
  422MOL0     H56941   8.692  11.851   9.857  1.2050  0.2354  0.8633
  422MOL0     H56942   8.697  11.615  10.031 -0.2817  0.9109  1.4653
  422MOL0     H56943   8.802  11.752  10.053  0.4056  1.4683 -1.2080
  422MOL0     H56944   8.493  11.763  10.037 -0.1363 -0.1717 -0.1318
  422MOL0     H56945   8.594  11.898  10.065  1.9491 -0.1616  0.0617
  422MOL0     H56946   8.582  11.634  10.241 -2.4216 -0.5832  1.2110
  422MOL0     H56947   8.718  11.736  10.247 -1.1303 -1.9247  2.2117
  422MOL0     H56948   8.573  11.922  10.339 -0.8879 -0.2341  0.6946
  422MOL0     H56949   8.556  11.788  10.447 -1.2591  1.1743  1.7558
  422MOL0     H56950   8.362  11.857  10.224 -0.7460 -1.2896 -0.4620
  422MOL0     H56951   8.332  11.889  10.391 -2.6842 -2.0199 -0.3464
  422MOL0     H56952   8.827  11.506   9.483  0.0396  2.7648  0.1220
  422MOL0     H56953   8.774  11.260   9.450  2.9448  0.6029  2.5778
  422MOL0     H56954   8.622  10.909   9.523  1.2253  2.4469  0.8926
  422MOL0     H56955   8.693  10.703   9.435  3.0297 -0.8438 -1.4133
  422MOL0     H56956   7.864  10.989   8.117  1.3699 -0.3655 -3.5854
  422MOL0     H56957   7.833  11.139   7.935 -0.6456  2.2709  0.8687
  422MOL0     H56958   7.782  11.334   7.481 -0.5826 -0.8339 -2.0257
  422MOL0     H56959   7.694  11.497   7.341 -1.2356  1.7275  0.2484
  422MOL0     H56960   7.621  11.673   7.235  1.0949 -2.4880 -0.2492
  422MOL0     H56961   7.522  11.545   7.192  0.6814 -0.1107  1.7813
  422MOL0     H56962   7.493  11.755   7.059  3.5449 -0.9589  1.3949
  422MOL0     H56963   7.436  11.835   7.202  0.1834  0.3094 -0.6136
  422MOL0     H56964   7.234  11.712   7.218  1.1902  0.6215  1.1634
  422MOL0     H56965   7.274  11.610   7.071 -2.8628  0.2630  1.2580
  422MOL0     H56966   7.169  11.795   6.959  1.5986  1.5961 -3.1040
  422MOL0     H56967   7.327  11.863   6.966 -0.2707  0.1291 -0.3488
  422MOL0     H56968   7.161  12.128   7.233 -0.5268  0.4378 -0.8025
  422MOL0     H56969   7.347  11.548   7.557 -1.2175 -1.1282 -2.1853
  422MOL0     H56970   7.419  11.377   7.731 -1.2565  0.5101 -1.8397
  423MOL0     O56971   9.049   0.250   8.220  0.0431 -0.5762 -0.5461
  423MOL0     C56972   9.128   0.334   8.261 -1.1950 -0.3608  0.6955
  423MOL0     O56973   9.099   0.465   8.297 -0.2251  1.1011  0.7736
  423MOL0     C56974   8.982   0.526   8.269 -0.2599 -0.0815  0.2865
  423MOL0     C56975   8.909   0.544   8.382 -0.4410 -0.0572 -0.2543
  423MOL0     C56976   8.775   0.594   8.367 -0.0272 -0.3225 -0.5199
  423MOL0     C56977   8.711   0.586   8.243  0.6626 -0.6490  1.2146
  423MOL0     O56978   8.574   0.614   8.243  0.1996 -0.1464 -0.5866
  423MOL0     C56979   8.506   0.568   8.130  0.7972  0.0314  0.1119
  423MOL0     C56980   8.454   0.671   8.038  0.1565  0.0343 -1.1160
  423MOL0     C56981   8.410   0.797   8.103  0.3592  0.2328  0.4277
  423MOL0     C56982   8.279   0.784   8.171  0.9924 -0.3582  0.2582
  423MOL0     C56983   8.233   0.916   8.240 -0.8029  0.1285  0.3262
  423MOL0     C56984   8.094   0.885   8.306 -0.2143 -0.9693  0.4891
  423MOL0     C56985   8.084   0.867   8.458 -0.5711 -0.2572  0.0297
  423MOL0     C56986   7.943   0.906   8.513  0.3183 -0.0128  0.7031
  423MOL0     N56987   7.836   0.823   8.466  0.2599 -0.2084 -0.2860
  423MOL0     C56988   7.832   0.690   8.483  0.4895  0.9418  1.1205
  423MOL0     C56989   7.707   0.646   8.442 -0.7314 -0.9988 -0.0610
  423MOL0     C56990   7.665   0.500   8.432  0.5486 -0.4570 -0.0098
  423MOL0     C56991   7.587   0.457   8.301 -0.3456  0.0874 -0.4079
  423MOL0     C56992   7.531   0.313   8.316  0.2198 -0.2970 -0.4536
  423MOL0     C56993   7.401   0.319   8.384  0.0100 -1.1738 -0.8977
  423MOL0     O56994   7.300   0.370   8.291 -0.1382  0.9108  0.5155
  423MOL0     C56995   7.170   0.339   8.318 -0.6154  1.3212  0.4628
  423MOL0     C56996   7.077   0.385   8.231  0.2902 -0.7784  0.4417
  423MOL0     C56997   6.941   0.359   8.235 -0.0033  0.3214 -0.4202
  423MOL0     C56998   6.843   0.424   8.139 -0.0145  0.0573  0.9095
  423MOL0     C56999   6.900   0.275   8.340  0.0434  0.9008  0.1743
  423MOL0     C57000   6.759   0.241   8.362  0.2307 -0.6256 -0.3542
  423MOL0     O57001   6.667   0.341   8.387 -0.1126  0.3233  0.2033
  423MOL0     C57002   6.540   0.311   8.444 -0.0035  0.3726  0.1628
  423MOL0     C57003   6.492   0.193   8.514  0.1025 -0.2551  0.3834
  423MOL0     C57004   6.355   0.191   8.548 -0.8041 -0.4732  0.2855
  423MOL0     C57005   6.271   0.305   8.536 -0.5549 -0.2736  0.4511
  423MOL0     O57006   6.140   0.292   8.574  0.2949 -0.0185 -0.1091
  423MOL0     C57007   6.106   0.375   8.684  0.6959 -0.3611 -0.3702
  423MOL0     C57008   6.197   0.364   8.814  0.7295  0.2550  0.2965
  423MOL0     C57009   6.121   0.418   8.944  0.4382  0.6288  0.4448
  423MOL0     C57010   6.196   0.423   9.079 -0.6849  0.1301  0.6459
  423MOL0     C57011   6.106   0.465   9.187 -0.0429  0.0457  0.1123
  423MOL0     C57012   6.189   0.457   9.320 -0.1248 -0.1752 -0.4265
  423MOL0     C57013   6.200   0.595   9.384 -0.8170  0.2597  0.1253
  423MOL0     C57014   6.080   0.610   9.483 -1.5166  0.0050  0.3895
  423MOL0    Cl57015   6.082   0.777   9.538 -0.2857 -0.0799  0.3717
  423MOL0     C57016   6.318   0.418   8.472  0.5950  0.3496  0.5262
  423MOL0     C57017   6.454   0.420   8.434 -0.2269  0.2564 -0.4198
  423MOL0     O57018   6.739   0.121   8.345  0.3256 -0.8596 -0.5752
  423MOL0     C57019   6.987   0.230   8.446  0.5962 -0.1563 -0.2561
  423MOL0     C57020   7.121   0.263   8.435  0.2903  0.3057 -0.3405
  423MOL0     N57021   7.642   0.761   8.391  0.6517  0.2029 -0.4877
  423MOL0     N57022   7.714   0.866   8.401 -0.2159 -0.2465 -0.2861
  423MOL0     C57023   8.788   0.574   8.119 -0.0518 -0.2325  0.2858
  423MOL0     C57024   8.927   0.544   8.134 -0.2674  2.1043  0.1225
  423MOL0     C57025   9.265   0.289   8.306 -0.3688  0.0980 -1.0866
  423MOL0     C57026   9.312   0.160   8.258 -0.3959 -0.5718 -0.8239
  423MOL0     C57027   9.430   0.099   8.302  0.0139 -0.4350  0.8287
  423MOL0     C57028   9.516   0.173   8.375 -1.1494  0.0163  0.3317
  423MOL0     O57029   9.646   0.142   8.421  0.1504  0.0738 -0.4478
  423MOL0     C57030   9.717   0.030   8.355 -1.1441 -0.5117 -0.6375
  423MOL0     C57031   9.758   0.061   8.207 -0.1017 -0.1794  0.2940
  423MOL0     C57032   9.810  -0.048   8.107  0.5059  0.4257  0.3204
  423MOL0     C57033   9.779  -0.037   7.957 -0.3314  0.5175  0.9323
  423MOL0     C57034   9.890   0.008   7.875  0.6705  1.2680  1.4858
  423MOL0     C57035   9.994   0.036   7.807  0.0363 -0.3233 -0.8389
  423MOL0     C57036   9.487   0.309   8.410 -0.7079  0.5650  0.4947
  423MOL0     C57037   9.356   0.364   8.382  0.2996  1.3896 -0.5016
  423MOL0     H57038   8.958   0.531   8.478 -0.2130  2.5811  0.0401
  423MOL0     H57039   8.709   0.622   8.448  0.2242  3.5505 -1.4218
  423MOL0     H57040   8.553   0.488   8.072 -1.1478 -1.1222  0.0138
  423MOL0     H57041   8.414   0.515   8.157  0.6692 -0.3980 -1.0970
  423MOL0     H57042   8.533   0.703   7.969  2.1083  0.4287  1.1799
  423MOL0     H57043   8.365   0.628   7.991 -1.3591 -0.3717  1.8828
  423MOL0     H57044   8.482   0.831   8.178 -1.5459  0.0611  2.4542
  423MOL0     H57045   8.392   0.868   8.023 -4.1066 -0.6546  0.3648
  423MOL0     H57046   8.209   0.750   8.094 -1.3879  3.3707  0.5318
  423MOL0     H57047   8.279   0.715   8.256 -0.1309  1.9921  2.2865
  423MOL0     H57048   8.307   0.956   8.310  1.4452 -2.3169 -0.5043
  423MOL0     H57049   8.225   0.992   8.162  0.5327  0.6129  0.6440
  423MOL0     H57050   8.036   0.973   8.275 -0.1189 -1.6523 -1.8506
  423MOL0     H57051   8.049   0.800   8.254  1.6075 -0.6872 -1.7124
  423MOL0     H57052   8.111   0.767   8.494  0.8464 -0.5153 -1.6150
  423MOL0     H57053   8.159   0.926   8.511  0.9475 -2.4828  0.4879
  423MOL0     H57054   7.922   1.008   8.479  0.1206 -0.3361 -0.1449
  423MOL0     H57055   7.941   0.908   8.623 -5.3136 -2.2807  0.9539
  423MOL0     H57056   7.925   0.638   8.507  1.7917  2.2224 -0.8349
  423MOL0     H57057   7.740   0.423   8.450 -1.1278 -2.6017 -1.7446
  423MOL0     H57058   7.589   0.492   8.511 -1.0648 -1.2142 -1.5964
  423MOL0     H57059   7.663   0.466   8.223  0.8767 -0.6293  0.6659
  423MOL0     H57060   7.504   0.527   8.283 -1.1998  1.0581  5.4328
  423MOL0     H57061   7.601   0.260   8.381  2.5424 -0.8216 -3.1671
  423MOL0     H57062   7.519   0.263   8.219 -2.8875 -3.0462  1.1307
  423MOL0     H57063   7.410   0.382   8.472  0.0789  2.6126 -3.3736
  423MOL0     H57064   7.376   0.217   8.414  1.5603 -0.7848  2.0716
  423MOL0     H57065   7.111   0.450   8.150 -0.9070 -1.3456 -0.5539
  423MOL0     H57066   6.816   0.340   8.073  0.4392 -0.0407  0.8476
  423MOL0     H57067   6.758   0.459   8.197  1.0120 -0.6329  2.9049
  423MOL0     H57068   6.887   0.498   8.071  1.0063  2.4044  3.9072
  423MOL0     H57069   6.547   0.103   8.541 -1.9526 -1.7543 -0.1829
  423MOL0     H57070   6.316   0.104   8.599 -0.8525  0.5923  2.1510
  423MOL0     H57071   6.105   0.480   8.651  1.8619  0.2701  1.4893
  423MOL0     H57072   5.999   0.364   8.705 -0.1177  0.0916 -3.6207
  423MOL0     H57073   6.248   0.269   8.833 -3.5822 -2.0383  1.7176
  423MOL0     H57074   6.270   0.444   8.801  2.4246 -0.8242  2.5084
  423MOL0     H57075   6.035   0.351   8.950  0.2515  0.9606  1.5945
  423MOL0     H57076   6.092   0.523   8.935 -2.6204 -0.1024  0.7516
  423MOL0     H57077   6.242   0.325   9.089 -1.9182 -0.7897 -1.7279
  423MOL0     H57078   6.281   0.491   9.066 -0.5640  0.2358  1.8976
  423MOL0     H57079   6.024   0.393   9.193  1.2355 -1.3164  2.0701
  423MOL0     H57080   6.064   0.565   9.169  1.1611  0.1926 -2.4314
  423MOL0     H57081   6.145   0.394   9.398 -0.2557  1.1267  0.5938
  423MOL0     H57082   6.288   0.411   9.309 -0.4001 -1.1518  0.8986
  423MOL0     H57083   6.188   0.672   9.307  0.7588 -0.9327 -1.3723
  423MOL0     H57084   6.304   0.609   9.415  0.2140 -2.1950 -1.9272
  423MOL0     H57085   6.090   0.552   9.575  1.2072  1.9658  1.4392
  423MOL0     H57086   5.993   0.579   9.425 -0.6225  1.2671 -1.7492
  423MOL0     H57087   6.239   0.491   8.463 -1.3122 -1.6567  0.1047
  423MOL0     H57088   6.504   0.510   8.399  0.2086  0.6467  1.1602
  423MOL0     H57089   6.952   0.183   8.538  1.0687  1.9015  1.0534
  423MOL0     H57090   7.186   0.243   8.519 -0.4832 -3.5874 -0.4808
  423MOL0     H57091   8.732   0.586   8.027 -0.8646  2.4434  1.0423
  423MOL0     H57092   8.981   0.527   8.042  0.3618  1.9375  0.5160
  423MOL0     H57093   9.243   0.097   8.201 -2.6698 -0.1562  1.2965
  423MOL0     H57094   9.452  -0.001   8.266 -0.9255 -0.4011  0.1353
  423MOL0     H57095   9.804   0.002   8.416 -0.8785  1.3580 -0.1118
  423MOL0     H57096   9.660  -0.064   8.359 -1.8282 -0.1692 -2.0114
  423MOL0     H57097   9.845   0.127   8.209  0.9273 -1.2142 -2.9898
  423MOL0     H57098   9.670   0.108   8.162  1.2870 -0.7817 -3.3738
  423MOL0     H57099   9.770  -0.143   8.143 -3.3591  2.5927  2.4894
  423MOL0     H57100   9.918  -0.056   8.123  0.2434 -0.9173  1.7104
  423MOL0     H57101   9.695   0.029   7.934  0.3159  0.5973 -1.5122
  423MOL0     H57102   9.749  -0.138   7.930  1.2418  0.4404 -0.6973
  423MOL0     H57103  10.094   0.064   7.780 -0.0918  1.1918  0.1664
  423MOL0     H57104   9.552   0.370   8.471 -0.6750  1.3928 -0.3545
  423MOL0     H57105   9.318   0.458   8.421  2.2453  1.9991  0.0567
  424MOL0     O57106  10.774  11.158   1.600  0.1090 -0.1114  0.0131
  424MOL0     C57107  10.713  11.067   1.651  0.3046  0.6675 -0.4147
  424MOL0     O57108  10.713  10.946   1.600 -0.8662  0.5792 -0.6265
  424MOL0     C57109  10.809  10.892   1.510  0.1684  0.8487 -0.1277
  424MOL0     C57110  10.762  10.779   1.439 -0.2594 -0.8559 -0.0111
  424MOL0     C57111  10.849  10.718   1.351  0.1591 -0.5087 -0.6397
  424MOL0     C57112  10.963  10.780   1.313  0.1783  0.1453  1.1777
  424MOL0     O57113  11.032  10.709   1.208  0.0389 -0.7486 -0.0432
  424MOL0     C57114  11.174  10.738   1.188  0.1570 -0.0621  0.0467
  424MOL0     C57115  11.264  10.691   1.302 -0.6601  0.6793  0.2594
  424MOL0     C57116  11.271  10.541   1.296 -0.1930  0.6413  0.2653
  424MOL0     C57117  11.155  10.451   1.331  0.4081  0.0612 -0.2011
  424MOL0     C57118  11.156  10.306   1.276  0.3932 -0.2402  0.2272
  424MOL0     C57119  11.039  10.211   1.313  0.7055 -0.1609 -0.1745
  424MOL0     C57120  11.068  10.086   1.231  0.4556  0.4287 -0.0682
  424MOL0     C57121  10.973   9.959   1.261 -0.2393 -0.5269 -0.2317
  424MOL0     N57122  10.981   9.856   1.157  0.0621  0.0721  0.0401
  424MOL0     C57123  11.082   9.764   1.143  0.0383 -0.6159  0.1000
  424MOL0     C57124  11.073   9.710   1.018  1.0108  0.4228  0.0624
  424MOL0     C57125  11.139   9.593   0.955 -0.7412 -0.2753 -0.1319
  424MOL0     C57126  11.297   9.621   0.939 -0.3983 -1.0463 -0.3277
  424MOL0     C57127  11.327   9.738   0.841  0.0121  0.3171  0.7027
  424MOL0     C57128  11.306   9.872   0.890 -0.0268  0.2032  1.1861
  424MOL0     O57129  11.405   9.896   0.990 -0.2772  0.2591  0.2727
  424MOL0     C57130  11.444  10.024   1.016 -0.0903  0.1005 -0.5266
  424MOL0     C57131  11.565  10.031   1.091  0.2631  0.5236  0.1389
  424MOL0     C57132  11.625  10.153   1.120  0.2408 -0.1816 -0.5441
  424MOL0     C57133  11.763  10.142   1.169  0.4176 -0.5212  0.2955
  424MOL0     C57134  11.551  10.274   1.088  0.8133 -0.5935 -0.0724
  424MOL0     C57135  11.615  10.409   1.119 -1.2710 -0.7334 -0.1770
  424MOL0     O57136  11.620  10.445   1.258  0.2441  0.0927  0.4351
  424MOL0     C57137  11.678  10.553   1.297  0.9052 -0.6700 -0.0566
  424MOL0     C57138  11.764  10.526   1.396 -0.6105  0.1055  0.3879
  424MOL0     C57139  11.838  10.636   1.450 -0.8639  0.2723 -0.5268
  424MOL0     C57140  11.829  10.770   1.402  0.3966 -0.3902 -0.1682
  424MOL0     O57141  11.903  10.869   1.456 -0.3678 -0.4804 -0.2131
  424MOL0     C57142  11.889  11.009   1.420  0.2971  0.4213 -0.6795
  424MOL0     C57143  11.922  11.115   1.525  0.3692 -0.6198  0.3060
  424MOL0     C57144  12.051  11.090   1.594  0.1840  0.1227 -0.6109
  424MOL0     C57145  12.174  11.111   1.508 -0.4485 -0.4404  0.3060
  424MOL0     C57146  12.282  11.185   1.575 -0.0146  0.2347 -1.2504
  424MOL0     C57147  12.410  11.168   1.490 -0.3054  0.3555 -0.4973
  424MOL0     C57148  12.393  11.167   1.336 -0.1018 -0.0908  0.0233
  424MOL0     C57149  12.522  11.227   1.280  0.1685  0.4837  0.0543
  424MOL0    Cl57150  12.543  11.183   1.107 -0.1476 -0.5019  0.2803
  424MOL0     C57151  11.731  10.790   1.295 -0.4314 -0.0472  0.1718
  424MOL0     C57152  11.658  10.680   1.245  0.0712 -0.5039  0.0320
  424MOL0     O57153  11.671  10.476   1.030  0.6642 -0.4135  0.3435
  424MOL0     C57154  11.423  10.266   1.025  0.8754 -0.0786 -0.4944
  424MOL0     C57155  11.376  10.143   0.989  0.1366  0.2919 -1.0210
  424MOL0     N57156  10.975   9.782   0.959  0.0457  0.0773 -0.1679
  424MOL0     N57157  10.920   9.868   1.034 -0.4250 -1.2936  0.3938
  424MOL0     C57158  11.008  10.897   1.379 -0.5221  0.1324 -0.7877
  424MOL0     C57159  10.932  10.943   1.489 -0.2271 -1.0005  0.2688
  424MOL0     C57160  10.627  11.099   1.764 -0.9572  0.1282 -0.7369
  424MOL0     C57161  10.589  10.995   1.846 -0.0706  0.0184 -0.0577
  424MOL0     C57162  10.520  11.026   1.967  0.2907 -0.5846  0.0395
  424MOL0     C57163  10.484  11.152   1.999  0.4020 -0.8274 -0.1517
  424MOL0     O57164  10.417  11.170   2.118 -0.6565  0.1230  0.1807
  424MOL0     C57165  10.422  11.296   2.184 -0.3126 -0.1885 -0.2390
  424MOL0     C57166  10.335  11.292   2.310  0.2423  0.0656  0.0045
  424MOL0     C57167  10.190  11.266   2.282  0.1533  0.1729  0.6073
  424MOL0     C57168  10.108  11.388   2.260 -0.1274 -0.5182 -0.5626
  424MOL0     C57169   9.970  11.362   2.243 -0.9240  0.2080 -1.2335
  424MOL0     C57170   9.854  11.343   2.215  0.5264 -0.1836 -0.2453
  424MOL0     C57171  10.535  11.256   1.919  0.4090 -0.3101 -0.1182
  424MOL0     C57172  10.593  11.224   1.793 -0.2553 -1.1915 -0.1889
  424MOL0     H57173  10.671  10.733   1.476 -0.0348 -1.8051 -0.6108
  424MOL0     H57174  10.831  10.623   1.302  1.8942 -1.5019  0.5778
  424MOL0     H57175  11.214  10.693   1.096 -1.8745  0.6721 -1.2824
  424MOL0     H57176  11.190  10.844   1.165  0.7252 -0.2580 -0.5002
  424MOL0     H57177  11.366  10.730   1.290 -0.0393 -1.5581 -3.3755
  424MOL0     H57178  11.231  10.718   1.403 -1.1805 -1.2029  0.6305
  424MOL0     H57179  11.321  10.506   1.205 -2.9440 -1.6811 -0.5083
  424MOL0     H57180  11.331  10.519   1.385  0.6961 -1.4571 -0.7799
  424MOL0     H57181  11.129  10.453   1.437 -0.6485  0.7301 -0.4506
  424MOL0     H57182  11.063  10.489   1.286 -1.1697 -0.1566  2.6215
  424MOL0     H57183  11.178  10.310   1.169  0.5965  2.1507  0.2974
  424MOL0     H57184  11.242  10.265   1.329 -0.2602  1.7811  3.0665
  424MOL0     H57185  11.044  10.177   1.417  2.3355  0.2977 -0.0793
  424MOL0     H57186  10.944  10.259   1.288  1.7624  2.5132  0.6956
  424MOL0     H57187  11.064  10.114   1.125  1.9954  1.1617  0.0402
  424MOL0     H57188  11.167  10.051   1.263  0.0159 -1.9687 -1.1356
  424MOL0     H57189  10.867   9.987   1.259 -0.3976 -1.1555 -1.6447
  424MOL0     H57190  10.988   9.907   1.357  0.1935 -0.1018 -0.0641
  424MOL0     H57191  11.143   9.737   1.228  1.2750 -1.0746 -0.9135
  424MOL0     H57192  11.140   9.511   1.027  1.7345 -0.0714  0.1585
  424MOL0     H57193  11.091   9.552   0.866 -0.4230 -3.1879  0.9176
  424MOL0     H57194  11.340   9.524   0.912  0.4754 -0.4587 -1.1100
  424MOL0     H57195  11.327   9.654   1.040 -0.6200 -1.6402 -0.0624
  424MOL0     H57196  11.261   9.717   0.756  0.4503 -0.1139  0.4637
  424MOL0     H57197  11.429   9.729   0.804 -0.1722 -1.1727  0.4869
  424MOL0     H57198  11.205   9.890   0.929 -0.5433 -1.2772  0.6072
  424MOL0     H57199  11.316   9.940   0.805  0.7557 -0.7419  0.4942
  424MOL0     H57200  11.614   9.936   1.108  0.3353  0.2807 -1.2461
  424MOL0     H57201  11.839  10.175   1.098  2.7264 -3.0380  1.4277
  424MOL0     H57202  11.776  10.201   1.261 -0.4349 -0.7992  0.6110
  424MOL0     H57203  11.803  10.042   1.185  1.2802 -0.0460  1.2911
  424MOL0     H57204  11.784  10.424   1.430  1.9844  0.6773  0.7823
  424MOL0     H57205  11.904  10.625   1.536 -0.1120  0.6450 -1.0381
  424MOL0     H57206  11.951  11.018   1.330  1.5234  3.2629  0.3498
  424MOL0     H57207  11.784  11.022   1.393 -0.7143 -5.2189 -0.7146
  424MOL0     H57208  11.906  11.202   1.461  2.5454 -0.2938  0.1428
  424MOL0     H57209  11.846  11.125   1.604  0.8135  2.4064  0.4519
  424MOL0     H57210  12.049  10.989   1.636  2.0453  0.8084  1.3671
  424MOL0     H57211  12.061  11.166   1.672 -0.0880  0.1220 -0.5730
  424MOL0     H57212  12.208  11.021   1.456  1.3247  0.3690  0.0130
  424MOL0     H57213  12.139  11.173   1.425 -2.0171 -0.8964  0.5753
  424MOL0     H57214  12.296  11.142   1.675 -0.3851  1.2370 -0.7542
  424MOL0     H57215  12.272  11.292   1.592 -0.1606  0.0747 -0.2564
  424MOL0     H57216  12.470  11.254   1.522 -0.1418  0.1654 -0.2858
  424MOL0     H57217  12.479  11.094   1.531 -0.5916  1.2319  1.7242
  424MOL0     H57218  12.300  11.211   1.299 -1.5666 -0.7037  2.7502
  424MOL0     H57219  12.392  11.063   1.302  1.8769 -0.1561  0.0615
  424MOL0     H57220  12.606  11.185   1.338  1.6573  2.0083 -0.9028
  424MOL0     H57221  12.518  11.332   1.308  1.7817  0.0913  2.0378
  424MOL0     H57222  11.720  10.884   1.243 -0.3448 -1.1733 -1.9841
  424MOL0     H57223  11.593  10.690   1.159  0.9885 -1.1720 -0.7624
  424MOL0     H57224  11.366  10.356   1.003  0.3167 -0.1889  0.4559
  424MOL0     H57225  11.276  10.124   0.949  0.1016 -1.5205 -0.1903
  424MOL0     H57226  11.109  10.933   1.368 -1.1179  2.1099 -0.1895
  424MOL0     H57227  10.980  11.024   1.544  2.0919 -0.6301 -2.1162
  424MOL0     H57228  10.609  10.891   1.823 -5.9386 -0.6953 -4.1805
  424MOL0     H57229  10.472  10.957   2.036 -0.8268  1.1357  1.0621
  424MOL0     H57230  10.524  11.319   2.217 -0.8189 -2.0472  3.0956
  424MOL0     H57231  10.385  11.375   2.119  3.0132  1.5023 -0.3310
  424MOL0     H57232  10.337  11.382   2.373 -1.5875  1.4150 -1.7538
  424MOL0     H57233  10.376  11.200   2.354  0.9074  0.2111 -0.3025
  424MOL0     H57234  10.145  11.213   2.366 -1.5437 -0.2107 -0.5071
  424MOL0     H57235  10.172  11.199   2.198  0.3817 -1.2507  1.6509
  424MOL0     H57236  10.139  11.449   2.175  1.1354  0.6828  0.7073
  424MOL0     H57237  10.124  11.441   2.355  1.6059  1.5243 -1.9100
  424MOL0     H57238   9.751  11.317   2.206  0.0741  0.8763  1.4102
  424MOL0     H57239  10.513  11.362   1.925  4.1816  0.9183 -3.5574
  424MOL0     H57240  10.626  11.304   1.728 -0.9452 -1.0947 -0.4248
  425MOL0     O57241   2.004   2.027  11.295 -0.4949 -0.2252  0.5912
  425MOL0     C57242   2.061   1.945  11.222  0.6264  0.0416 -0.3450
  425MOL0     O57243   2.172   1.866  11.249  0.6579  0.3727  0.2544
  425MOL0     C57244   2.220   1.866  11.376 -0.1439  0.8895 -0.4293
  425MOL0     C57245   2.145   1.849  11.501 -0.4497 -0.4053 -0.6747
  425MOL0     C57246   2.210   1.827  11.623  0.2156 -0.0940  0.1568
  425MOL0     C57247   2.341   1.833  11.640  0.5775 -0.4085 -0.1994
  425MOL0     O57248   2.413   1.824  11.757 -1.1392 -1.3909  0.4974
  425MOL0     C57249   2.352   1.786  11.879 -0.5189 -0.3223 -0.2251
  425MOL0     C57250   2.472   1.723  11.961  0.8409  0.1546  0.0505
  425MOL0     C57251   2.428   1.684  12.103  0.4645  0.6870 -0.4866
  425MOL0     C57252   2.549   1.613  12.163 -0.3558 -1.3187  0.3305
  425MOL0     C57253   2.543   1.612  12.318 -0.1724 -0.0223 -0.1652
  425MOL0     C57254   2.667   1.553  12.384 -0.4337  0.1789 -0.2616
  425MOL0     C57255   2.660   1.538  12.539  0.2000  0.1384  0.4187
  425MOL0     C57256   2.796   1.515  12.602  0.2165 -0.5799 -0.3329
  425MOL0     N57257   2.801   1.509  12.744 -0.7094 -0.4364 -0.3135
  425MOL0     C57258   2.803   1.391  12.815  0.9905  0.6682 -0.3430
  425MOL0     C57259   2.809   1.448  12.944 -1.1477  0.6393  0.0883
  425MOL0     C57260   2.836   1.360  13.057  0.2696 -0.3175 -0.1548
  425MOL0     C57261   2.981   1.375  13.116  0.0288  0.0910  0.4845
  425MOL0     C57262   3.094   1.347  13.021  0.2795  0.7292  0.1927
  425MOL0     C57263   3.107   1.200  12.986  0.6748 -0.3207  0.1379
  425MOL0     O57264   3.206   1.194  12.883  0.4655  0.3227  1.3221
  425MOL0     C57265   3.333   1.150  12.912  0.6886  0.2524 -0.3277
  425MOL0     C57266   3.367   1.019  12.940 -0.0149 -0.8134 -0.0991
  425MOL0     C57267   3.501   1.002  12.976  0.2551 -0.3686 -0.0748
  425MOL0     C57268   3.533   0.859  13.037 -0.3033  0.1181  0.2304
  425MOL0     C57269   3.597   1.113  12.979  0.4579  0.1885  0.1742
  425MOL0     C57270   3.727   1.106  13.027 -1.9210 -0.6045 -0.1538
  425MOL0     O57271   3.809   1.009  12.977  0.0678 -0.0278 -0.3533
  425MOL0     C57272   3.939   1.017  13.030  0.7592  0.8776  0.5002
  425MOL0     C57273   4.042   1.081  12.965 -1.1440 -0.2023  0.1627
  425MOL0     C57274   4.177   1.065  13.014  0.2794 -0.3459 -0.1768
  425MOL0     C57275   4.205   0.985  13.128  0.3543 -0.8731  0.0408
  425MOL0     O57276   4.326   0.948  13.181 -0.1383 -0.2653 -0.4125
  425MOL0     C57277   4.431   1.044  13.169 -0.2746  0.3320  0.5458
  425MOL0     C57278   4.556   1.002  13.243  0.1440  0.0469 -0.1612
  425MOL0     C57279   4.685   1.066  13.185 -0.2722  0.1438 -0.5085
  425MOL0     C57280   4.750   1.010  13.057 -0.0580  1.1699 -0.3709
  425MOL0     C57281   4.886   1.069  13.054  0.3154  0.0786 -0.1960
  425MOL0     C57282   4.967   0.995  12.944 -0.0190  0.3248  0.3376
  425MOL0     C57283   5.090   1.075  12.910 -0.3916  0.4998 -1.1849
  425MOL0     C57284   5.187   1.002  12.818 -0.0965  0.2730  0.7871
  425MOL0    Cl57285   5.283   0.885  12.901 -0.3296  0.1022 -0.2526
  425MOL0     C57286   4.096   0.927  13.186 -0.0234 -0.0397 -0.0313
  425MOL0     C57287   3.966   0.936  13.137 -0.7691 -0.6007 -0.5945
  425MOL0     O57288   3.763   1.204  13.100 -0.2606 -0.0137  0.2570
  425MOL0     C57289   3.560   1.229  12.910  0.8655  0.2899 -0.0351
  425MOL0     C57290   3.426   1.249  12.883  0.4733  0.0688 -0.2322
  425MOL0     N57291   2.825   1.584  12.950  0.9121 -0.0288 -0.5608
  425MOL0     N57292   2.818   1.615  12.823 -0.2943  0.1673  0.3437
  425MOL0     C57293   2.417   1.844  11.528 -0.2466  0.8263 -0.4439
  425MOL0     C57294   2.356   1.856  11.401 -0.9189  0.1817 -0.3990
  425MOL0     C57295   2.015   1.931  11.091  0.5562  1.3983  0.5049
  425MOL0     C57296   2.071   1.836  11.001  0.2115 -0.9748  0.2380
  425MOL0     C57297   2.034   1.838  10.867 -0.2605  0.3857  0.4103
  425MOL0     C57298   1.933   1.925  10.817 -0.1187 -0.1071  0.0015
  425MOL0     O57299   1.911   1.943  10.682 -0.4354 -0.3145  0.3332
  425MOL0     C57300   1.971   1.837  10.602  0.6006 -0.0649  0.5550
  425MOL0     C57301   1.928   1.846  10.459  0.6374 -0.1708  0.0337
  425MOL0     C57302   1.778   1.806  10.445 -0.9410 -0.0729  0.5213
  425MOL0     C57303   1.714   1.836  10.306  1.2629  0.4723  1.0038
  425MOL0     C57304   1.802   1.765  10.210  0.4935 -0.0571 -1.0646
  425MOL0     C57305   1.880   1.705  10.134  0.6936  0.2033 -0.1548
  425MOL0     C57306   1.866   2.013  10.908  0.1547  0.4898  0.1072
  425MOL0     C57307   1.919   2.020  11.042 -0.4374 -0.6662 -0.1519
  425MOL0     H57308   2.038   1.861  11.490 -1.0340 -1.8699  2.4627
  425MOL0     H57309   2.149   1.819  11.712 -3.1739 -1.1187 -2.0482
  425MOL0     H57310   2.314   1.874  11.932 -0.1727 -0.3236  0.0320
  425MOL0     H57311   2.266   1.720  11.872 -1.0290 -0.1308  2.9028
  425MOL0     H57312   2.515   1.633  11.918 -0.0426 -1.1574  1.7619
  425MOL0     H57313   2.549   1.800  11.954  1.0128  0.1422  1.5085
  425MOL0     H57314   2.405   1.769  12.169  0.9526  1.0850 -0.8246
  425MOL0     H57315   2.342   1.616  12.108  2.1073 -1.5746 -1.4898
  425MOL0     H57316   2.566   1.514  12.121 -1.6861 -1.6425  0.5352
  425MOL0     H57317   2.641   1.665  12.133  1.4988 -3.2082  2.3946
  425MOL0     H57318   2.528   1.711  12.363 -0.1763 -1.2329  2.7024
  425MOL0     H57319   2.448   1.562  12.339 -0.2134  0.4196  0.7719
  425MOL0     H57320   2.690   1.455  12.341  2.1669  0.8748 -0.6500
  425MOL0     H57321   2.749   1.621  12.358 -1.1902  0.6973 -1.3739
  425MOL0     H57322   2.637   1.637  12.580 -0.1426  0.8117 -1.3148
  425MOL0     H57323   2.578   1.467  12.553 -0.0770  0.2527 -0.5755
  425MOL0     H57324   2.859   1.593  12.558  0.4369 -1.8833 -2.5136
  425MOL0     H57325   2.836   1.420  12.564  1.4780 -1.6299  3.2451
  425MOL0     H57326   2.812   1.286  12.789 -0.5902 -0.4296  2.9881
  425MOL0     H57327   2.764   1.388  13.134 -0.9576  0.9465 -1.6731
  425MOL0     H57328   2.825   1.253  13.037  2.2767 -0.4468 -0.8165
  425MOL0     H57329   2.994   1.318  13.209 -1.6340 -0.8774  0.1695
  425MOL0     H57330   2.989   1.480  13.146  0.1208  0.7619 -1.7234
  425MOL0     H57331   3.184   1.372  13.078  0.3363 -0.5691  0.7066
  425MOL0     H57332   3.116   1.411  12.935  0.9130 -0.3435 -0.4636
  425MOL0     H57333   3.013   1.153  12.959 -1.6544  3.4948  0.8217
  425MOL0     H57334   3.146   1.140  13.069  2.1562  1.0156  0.4758
  425MOL0     H57335   3.289   0.943  12.942 -0.4467 -0.3729  0.1533
  425MOL0     H57336   3.503   0.783  12.964 -1.8824  2.5363 -1.7893
  425MOL0     H57337   3.639   0.865  13.062 -0.5194 -0.5631  1.3818
  425MOL0     H57338   3.483   0.837  13.132  1.0150 -0.5705  0.7862
  425MOL0     H57339   4.021   1.143  12.879  1.4476  0.9845  0.3029
  425MOL0     H57340   4.263   1.114  12.968 -1.1582  3.2354  0.6458
  425MOL0     H57341   4.465   1.060  13.066 -0.1530  2.8472  0.9233
  425MOL0     H57342   4.404   1.146  13.195 -0.7257  0.3973 -0.1482
  425MOL0     H57343   4.547   1.021  13.350  0.1440 -1.9420  0.2344
  425MOL0     H57344   4.566   0.894  13.230  2.2914  0.0797  0.7623
  425MOL0     H57345   4.764   1.041  13.257 -0.3775  1.9167  0.2800
  425MOL0     H57346   4.679   1.176  13.182  1.4195  0.2576 -1.9492
  425MOL0     H57347   4.756   0.903  13.080  0.4630  1.5855  1.5946
  425MOL0     H57348   4.698   1.029  12.963  0.7790 -0.7804 -1.2914
  425MOL0     H57349   4.938   1.059  13.150  1.1682  1.3655 -0.4854
  425MOL0     H57350   4.879   1.176  13.033  0.8782  0.6113  2.0152
  425MOL0     H57351   4.990   0.895  12.982  1.9941  0.3030 -0.8007
  425MOL0     H57352   4.914   0.982  12.849  1.1554 -0.0558 -0.2810
  425MOL0     H57353   5.152   1.106  12.994 -0.7473  1.8937 -1.4043
  425MOL0     H57354   5.065   1.167  12.856  0.0374 -0.1692 -2.5492
  425MOL0     H57355   5.245   1.073  12.758  1.1283 -2.1472 -1.0926
  425MOL0     H57356   5.141   0.942  12.739 -1.1499 -0.4210  1.8887
  425MOL0     H57357   4.111   0.853  13.264  1.4239 -0.9446 -1.1378
  425MOL0     H57358   3.883   0.888  13.188 -0.8751  0.7212  0.5421
  425MOL0     H57359   3.634   1.307  12.893  0.3662  0.9585  0.7942
  425MOL0     H57360   3.397   1.337  12.827  1.7157 -0.8757 -2.4997
  425MOL0     H57361   2.526   1.848  11.534 -0.2002  0.2572 -0.9091
  425MOL0     H57362   2.425   1.839  11.319  1.1751 -1.8084  1.6261
  425MOL0     H57363   2.145   1.765  11.036 -0.2080  0.0148  3.3914
  425MOL0     H57364   2.081   1.760  10.808  0.0788  0.6910  0.2681
  425MOL0     H57365   2.079   1.849  10.607  0.6396  1.6757 -2.2599
  425MOL0     H57366   1.946   1.739  10.643 -0.7546 -0.7462 -1.7675
  425MOL0     H57367   1.988   1.763  10.421  0.0037 -0.7702  0.3383
  425MOL0     H57368   1.949   1.940  10.406 -1.0277 -1.3771 -3.0395
  425MOL0     H57369   1.712   1.863  10.512 -2.7322 -1.3338 -0.0933
  425MOL0     H57370   1.752   1.704  10.472  2.4967 -2.2531 -3.2485
  425MOL0     H57371   1.699   1.940  10.276  2.4655  0.2067 -0.5906
  425MOL0     H57372   1.616   1.790  10.291  0.3049  2.3575  1.1364
  425MOL0     H57373   1.939   1.666  10.054 -2.3968 -0.2904 -2.3958
  425MOL0     H57374   1.787   2.082  10.881  0.7735  1.6743  1.2446
  425MOL0     H57375   1.859   2.074  11.114 -2.8711 -2.6165 -0.5723
  426MOL0     O57376   0.721   8.198   8.765  0.6005 -0.3298  0.1276
  426MOL0     C57377   0.792   8.103   8.774  0.1831 -0.1948  0.5085
  426MOL0     O57378   0.919   8.095   8.727  0.2057  0.8009  0.2497
  426MOL0     C57379   0.979   8.194   8.653 -0.3699 -0.6819 -0.2021
  426MOL0     C57380   1.097   8.244   8.703 -0.2381 -0.7969  0.8243
  426MOL0     C57381   1.154   8.362   8.648  0.0486  0.3937 -0.2275
  426MOL0     C57382   1.092   8.429   8.539 -0.2927  0.2435 -0.3319
  426MOL0     O57383   1.157   8.537   8.477 -0.0039  0.3765 -0.5184
  426MOL0     C57384   1.090   8.607   8.380  0.4228 -0.1146 -0.3759
  426MOL0     C57385   1.146   8.745   8.363  0.2819 -0.6575 -0.4060
  426MOL0     C57386   1.073   8.796   8.236 -0.1400 -0.2068  0.2029
  426MOL0     C57387   1.111   8.939   8.215  0.4912 -0.0118 -0.8996
  426MOL0     C57388   1.046   9.014   8.090  0.3178 -0.6916  0.1108
  426MOL0     C57389   1.047   8.948   7.953 -0.0966 -0.0168 -0.3827
  426MOL0     C57390   0.926   8.986   7.872 -0.1626 -0.0503  0.3194
  426MOL0     C57391   0.935   8.894   7.743  0.5343  0.5784  0.1530
  426MOL0     N57392   0.826   8.950   7.652  1.0113  0.6783  0.1056
  426MOL0     C57393   0.837   9.041   7.553  0.5485  0.2581  0.4197
  426MOL0     C57394   0.710   9.067   7.515 -0.1949  0.4731 -1.0478
  426MOL0     C57395   0.664   9.148   7.400 -0.4541 -0.6052 -0.8130
  426MOL0     C57396   0.514   9.142   7.356  0.2450  0.0338 -0.4994
  426MOL0     C57397   0.434   9.202   7.475 -0.5007 -0.5174  0.5071
  426MOL0     C57398   0.286   9.198   7.450 -0.7330  0.0851 -0.6113
  426MOL0     O57399   0.229   9.301   7.536 -0.3438 -0.1335 -0.1920
  426MOL0     C57400   0.137   9.387   7.481  1.0057 -0.0378 -1.2755
  426MOL0     C57401   0.154   9.522   7.494  0.6982 -0.0479  1.0006
  426MOL0     C57402   0.063   9.618   7.443 -0.1228 -0.2958  0.3510
  426MOL0     C57403   0.113   9.761   7.436  0.6169 -0.2185 -0.0191
  426MOL0     C57404  -0.060   9.575   7.390  0.5090 -0.0909  0.4990
  426MOL0     C57405  -0.175   9.659   7.344  0.1936 -0.1380  0.1596
  426MOL0     O57406  -0.284   9.591   7.320  0.8112  0.2146  0.1306
  426MOL0     C57407  -0.413   9.641   7.316 -0.2397  0.0318  0.2077
  426MOL0     C57408  -0.485   9.611   7.207 -1.0743 -0.0620  0.0109
  426MOL0     C57409  -0.623   9.641   7.192 -0.1560 -0.0440 -0.5512
  426MOL0     C57410  -0.680   9.717   7.291  0.7283 -0.2169 -0.1068
  426MOL0     O57411  -0.810   9.759   7.272  0.2626 -0.3348 -0.8632
  426MOL0     C57412  -0.899   9.750   7.388  0.2415 -0.2561 -0.2079
  426MOL0     C57413  -0.985   9.879   7.392 -0.7139 -0.7524  0.2269
  426MOL0     C57414  -1.113   9.847   7.476  0.2563 -0.4043  0.9804
  426MOL0     C57415  -1.195   9.976   7.473 -0.4101  0.9721  0.5604
  426MOL0     C57416  -1.327   9.977   7.561  0.5976 -0.0684  0.3023
  426MOL0     C57417  -1.272  10.017   7.700  0.0280  0.1041 -0.4413
  426MOL0     C57418  -1.384  10.007   7.805  0.4310  0.5543 -0.5167
  426MOL0     C57419  -1.338  10.073   7.944  0.0711  0.4179  0.3752
  426MOL0    Cl57420  -1.174  10.004   7.979  0.0054 -0.0197 -0.1146
  426MOL0     C57421  -0.605   9.753   7.402 -0.9202 -0.1776  0.4789
  426MOL0     C57422  -0.473   9.714   7.414  0.2481 -1.2742  0.4857
  426MOL0     O57423  -0.169   9.781   7.341  0.2743 -0.5337  0.5992
  426MOL0     C57424  -0.079   9.437   7.389 -0.3667  0.2271 -0.3274
  426MOL0     C57425   0.013   9.345   7.429  0.4824 -0.1369  0.1098
  426MOL0     N57426   0.624   8.989   7.592  0.8700  0.3040 -0.2717
  426MOL0     N57427   0.692   8.922   7.681 -0.4614 -0.3220 -0.4168
  426MOL0     C57428   0.987   8.357   8.480  0.5515  0.4608 -0.4627
  426MOL0     C57429   0.928   8.233   8.530 -0.8277 -0.1763 -0.9903
  426MOL0     C57430   0.727   7.990   8.840 -0.0298  0.3532  0.7864
  426MOL0     C57431   0.799   7.885   8.899 -0.7668  0.2359 -0.2778
  426MOL0     C57432   0.736   7.775   8.953 -0.1956 -0.0695  0.4702
  426MOL0     C57433   0.599   7.756   8.953 -0.4074 -0.1936 -0.5775
  426MOL0     O57434   0.550   7.643   9.007  1.0029  0.0732  0.2545
  426MOL0     C57435   0.402   7.620   8.999 -1.5847  0.0235  0.1207
  426MOL0     C57436   0.367   7.583   8.857 -0.4480 -1.2292 -1.3189
  426MOL0     C57437   0.426   7.457   8.819 -0.1244  0.2772  0.5781
  426MOL0     C57438   0.395   7.420   8.673 -0.5223 -0.7745  0.9752
  426MOL0     C57439   0.479   7.313   8.611 -0.0866 -0.6421  0.2238
  426MOL0     C57440   0.541   7.223   8.554  0.2661 -0.1088  0.1589
  426MOL0     C57441   0.526   7.869   8.914  1.0087 -0.0509  0.5061
  426MOL0     C57442   0.583   7.982   8.855 -0.5050 -0.1853 -0.0836
  426MOL0     H57443   1.147   8.216   8.795  1.4609  0.6675  0.4213
  426MOL0     H57444   1.240   8.411   8.692 -0.5569  1.8928 -0.6553
  426MOL0     H57445   1.086   8.546   8.289 -1.7494 -2.2230  0.9970
  426MOL0     H57446   0.993   8.639   8.419  2.3434  3.8326  1.7423
  426MOL0     H57447   1.124   8.814   8.445 -0.3679 -0.2538 -0.9097
  426MOL0     H57448   1.255   8.741   8.358  0.4571  1.1455  0.9825
  426MOL0     H57449   1.104   8.727   8.157 -0.4193 -1.2277  0.9778
  426MOL0     H57450   0.964   8.788   8.240 -0.7524  4.9335  1.2893
  426MOL0     H57451   1.097   8.989   8.311 -0.5186  0.8608 -1.4761
  426MOL0     H57452   1.219   8.952   8.202  0.7948 -0.4976  0.9235
  426MOL0     H57453   0.940   9.016   8.117  0.5792 -1.2304  1.2461
  426MOL0     H57454   1.083   9.117   8.090 -0.5179 -0.3238  2.5994
  426MOL0     H57455   1.134   8.991   7.902 -0.1683  3.4569  2.0864
  426MOL0     H57456   1.062   8.840   7.957  3.2754  0.3708  1.7530
  426MOL0     H57457   0.830   8.977   7.924 -0.0557 -1.0223  0.3579
  426MOL0     H57458   0.930   9.089   7.835  1.3929  0.1509  0.9673
  426MOL0     H57459   0.906   8.793   7.774  0.1828  0.8109  0.5873
  426MOL0     H57460   1.038   8.894   7.705  0.2727  1.6825 -0.6004
  426MOL0     H57461   0.926   9.090   7.515 -0.0074  1.1913  0.2995
  426MOL0     H57462   0.692   9.252   7.421  1.1265 -0.6419 -2.4449
  426MOL0     H57463   0.717   9.112   7.312  0.2172  0.2841 -0.7841
  426MOL0     H57464   0.494   9.035   7.347 -0.0321 -0.1255  1.5038
  426MOL0     H57465   0.490   9.200   7.267  0.6089 -0.3171 -0.8311
  426MOL0     H57466   0.472   9.304   7.486  1.8503 -1.2784  0.1430
  426MOL0     H57467   0.444   9.154   7.573 -2.5966  0.1294  1.0818
  426MOL0     H57468   0.244   9.098   7.463 -1.1095  0.2100 -0.8501
  426MOL0     H57469   0.279   9.218   7.343 -0.1568 -0.5787 -0.7849
  426MOL0     H57470   0.239   9.559   7.551 -0.3575 -0.2227  2.7900
  426MOL0     H57471   0.217   9.782   7.464  1.7685 -3.0230 -1.7361
  426MOL0     H57472   0.098   9.798   7.334  2.2307 -1.0443 -0.5887
  426MOL0     H57473   0.048   9.824   7.498 -3.2171 -2.9050 -0.9302
  426MOL0     H57474  -0.428   9.545   7.143 -0.4605  0.7108 -0.2500
  426MOL0     H57475  -0.677   9.608   7.104  2.5832 -1.8160 -1.7345
  426MOL0     H57476  -0.962   9.666   7.357 -1.0991  0.8666 -0.6000
  426MOL0     H57477  -0.855   9.736   7.487 -1.1802  2.6480  0.9486
  426MOL0     H57478  -0.932   9.966   7.431 -1.5005 -0.7348  1.3061
  426MOL0     H57479  -1.013   9.900   7.288 -2.9150 -2.0026  0.4975
  426MOL0     H57480  -1.093   9.822   7.581  1.8186  0.3924  0.9047
  426MOL0     H57481  -1.174   9.768   7.431  0.9003  0.9014 -2.4641
  426MOL0     H57482  -1.128  10.056   7.508  0.3258  0.2988  0.7307
  426MOL0     H57483  -1.214   9.989   7.366  3.7121 -0.6693 -0.5836
  426MOL0     H57484  -1.385   9.885   7.550  1.0138 -0.1244 -2.0826
  426MOL0     H57485  -1.385  10.064   7.527  2.2410  0.6323 -0.8280
  426MOL0     H57486  -1.196   9.946   7.737 -2.9897 -1.4834  3.4134
  426MOL0     H57487  -1.234  10.119   7.687  0.7213 -0.2323 -1.1664
  426MOL0     H57488  -1.408   9.901   7.810  1.3437  0.3543 -0.3065
  426MOL0     H57489  -1.477  10.056   7.774 -0.8689  0.8027  3.1857
  426MOL0     H57490  -1.409  10.054   8.025  0.9737 -1.1166  0.8469
  426MOL0     H57491  -1.316  10.178   7.926  0.0585 -0.0126 -2.8294
  426MOL0     H57492  -0.638   9.819   7.482 -1.1680  0.6200 -0.2709
  426MOL0     H57493  -0.414   9.732   7.503  0.5958  0.3785 -0.0576
  426MOL0     H57494  -0.167   9.396   7.341 -0.7239  2.8667 -2.1363
  426MOL0     H57495  -0.012   9.241   7.414  0.4020 -0.1113  0.0672
  426MOL0     H57496   0.953   8.410   8.391 -2.1496  2.9356  1.8251
  426MOL0     H57497   0.839   8.194   8.481 -1.0805  1.0122 -1.5141
  426MOL0     H57498   0.908   7.893   8.892 -0.6150  2.7077  2.5422
  426MOL0     H57499   0.794   7.699   9.003 -1.4585 -1.7920 -0.5500
  426MOL0     H57500   0.373   7.542   9.069 -0.4653 -0.7558 -0.2572
  426MOL0     H57501   0.345   7.708   9.031  0.7946  1.3017  1.1388
  426MOL0     H57502   0.388   7.674   8.801  1.3359 -0.4100  0.5467
  426MOL0     H57503   0.259   7.566   8.860 -0.6984  0.3148 -0.4525
  426MOL0     H57504   0.388   7.375   8.879 -1.7905 -1.6293 -2.7651
  426MOL0     H57505   0.535   7.466   8.828 -0.2848  1.0203  1.9644
  426MOL0     H57506   0.416   7.516   8.625  3.0403 -1.7267  0.3090
  426MOL0     H57507   0.290   7.390   8.665 -0.5787 -0.6128  1.1088
  426MOL0     H57508   0.591   7.149   8.495  0.3733  1.4186 -1.7616
  426MOL0     H57509   0.420   7.860   8.932  0.3912 -0.8784 -2.8971
  426MOL0     H57510   0.519   8.059   8.814 -2.2333 -1.7673 -0.4753
  427MOL0     O57511   1.029   2.113   5.574 -0.2152  0.1074 -0.2417
  427MOL0     C57512   1.079   2.058   5.478  1.2759 -0.2757  0.1061
  427MOL0     O57513   1.154   1.945   5.485 -1.0927  0.5429 -0.1736
  427MOL0     C57514   1.173   1.900   5.613 -0.6247  0.9680  0.5578
  427MOL0     C57515   1.095   1.787   5.646 -0.5861 -0.6378 -0.6244
  427MOL0     C57516   1.119   1.713   5.768 -0.9326 -0.5626  0.0726
  427MOL0     C57517   1.217   1.753   5.852  0.4213  0.3647  0.0525
  427MOL0     O57518   1.234   1.709   5.983 -0.0921 -0.0872 -0.4779
  427MOL0     C57519   1.185   1.570   5.995 -0.9686 -1.0153  0.3750
  427MOL0     C57520   1.253   1.505   6.115 -0.4181  0.1570  0.2762
  427MOL0     C57521   1.227   1.581   6.253 -0.3351  0.1710 -0.0074
  427MOL0     C57522   1.282   1.503   6.375  0.8735 -0.0341  0.2272
  427MOL0     C57523   1.279   1.571   6.509 -0.8829 -0.4284  0.4471
  427MOL0     C57524   1.415   1.621   6.555 -0.6183 -0.2090 -0.2651
  427MOL0     C57525   1.402   1.675   6.697  0.9987 -0.1145  0.4570
  427MOL0     C57526   1.535   1.711   6.754  0.0730  0.5255  0.1096
  427MOL0     N57527   1.559   1.850   6.708  0.0379  1.1593 -0.7844
  427MOL0     C57528   1.516   1.967   6.776 -0.1022  0.5853  0.7602
  427MOL0     C57529   1.573   2.077   6.717  0.4414  0.3484 -0.4304
  427MOL0     C57530   1.550   2.218   6.760  0.0131 -0.8531 -0.2094
  427MOL0     C57531   1.460   2.230   6.883  0.0487  0.0420  0.2421
  427MOL0     C57532   1.399   2.374   6.911 -0.7718  0.5371  0.6208
  427MOL0     C57533   1.305   2.383   7.026 -0.1506  1.1159  0.8059
  427MOL0     O57534   1.260   2.513   7.048 -0.6513  0.7309 -0.9984
  427MOL0     C57535   1.190   2.526   7.166 -1.0829 -0.3142  0.4274
  427MOL0     C57536   1.150   2.421   7.251 -0.6221  0.0406  0.4541
  427MOL0     C57537   1.085   2.450   7.377  1.0348 -0.2041  0.1330
  427MOL0     C57538   1.044   2.328   7.473  0.0235 -0.1785 -0.8867
  427MOL0     C57539   1.054   2.591   7.403 -1.1312  0.1968  0.5018
  427MOL0     C57540   0.973   2.626   7.509  0.9442 -1.1288 -0.4815
  427MOL0     O57541   0.956   2.757   7.523 -0.1772 -0.2695 -0.5845
  427MOL0     C57542   0.860   2.810   7.611 -0.0468  0.1822 -0.1483
  427MOL0     C57543   0.892   2.919   7.672  0.1826 -0.9021 -0.5999
  427MOL0     C57544   0.809   2.990   7.763 -0.4639 -0.8254  0.5467
  427MOL0     C57545   0.682   2.943   7.786 -0.8985 -0.1822 -0.0990
  427MOL0     O57546   0.582   3.006   7.855 -0.1303  0.5613  0.1972
  427MOL0     C57547   0.608   3.140   7.893  0.6762 -0.3249 -0.7215
  427MOL0     C57548   0.488   3.218   7.962  1.6144  0.0625  0.2867
  427MOL0     C57549   0.468   3.187   8.111  0.6013  0.3795  1.3985
  427MOL0     C57550   0.461   3.039   8.145  0.2111 -0.7381  0.0904
  427MOL0     C57551   0.432   3.023   8.293  1.2812 -0.5587  0.5986
  427MOL0     C57552   0.314   3.095   8.346 -0.0838  0.2076  0.3413
  427MOL0     C57553   0.175   3.037   8.302  0.2472  1.0081  0.7093
  427MOL0     C57554   0.065   3.133   8.330 -0.5071  0.7238 -0.4097
  427MOL0    Cl57555  -0.076   3.098   8.225 -0.0843  0.1149  0.0879
  427MOL0     C57556   0.649   2.821   7.723 -0.4396 -0.0366 -0.0863
  427MOL0     C57557   0.734   2.755   7.636  0.4498  0.3296  0.0931
  427MOL0     O57558   0.931   2.540   7.582 -0.2878 -0.1018  0.5917
  427MOL0     C57559   1.104   2.695   7.313 -0.2961  1.0444  0.5162
  427MOL0     C57560   1.183   2.661   7.201  0.5726  0.2485  0.0490
  427MOL0     N57561   1.662   2.027   6.620 -0.2275 -0.5389 -0.1715
  427MOL0     N57562   1.657   1.891   6.621  0.3609 -0.0712 -0.1372
  427MOL0     C57563   1.294   1.859   5.820 -0.0196 -0.5308 -0.0308
  427MOL0     C57564   1.273   1.935   5.700  0.4530 -1.1627  0.2836
  427MOL0     C57565   1.065   2.127   5.344 -0.4554 -0.0348 -1.4030
  427MOL0     C57566   0.966   2.222   5.320  0.8377 -1.1052  0.9112
  427MOL0     C57567   0.967   2.298   5.201 -0.7043 -0.3121 -0.6383
  427MOL0     C57568   1.057   2.262   5.106 -1.2049 -0.2695  0.0594
  427MOL0     O57569   1.036   2.314   4.975  0.2182  0.1888 -1.0050
  427MOL0     C57570   1.103   2.257   4.859  0.2876  0.2984  0.7826
  427MOL0     C57571   1.025   2.291   4.738  0.2159  0.5987  0.3290
  427MOL0     C57572   0.999   2.441   4.703 -0.8627 -0.4411  0.1307
  427MOL0     C57573   0.952   2.462   4.555  0.3214  0.3663  0.0017
  427MOL0     C57574   0.888   2.595   4.549 -0.8380  0.0480 -0.7839
  427MOL0     C57575   0.859   2.704   4.513 -0.5753 -0.1590  0.2514
  427MOL0     C57576   1.158   2.166   5.129  0.0611 -0.0012  0.0487
  427MOL0     C57577   1.165   2.099   5.251  0.1198 -0.2815  0.4657
  427MOL0     H57578   1.027   1.748   5.571  0.9616  0.1478 -2.5222
  427MOL0     H57579   1.039   1.642   5.782  0.4963 -2.5880 -1.4621
  427MOL0     H57580   1.077   1.575   6.009 -1.2136 -1.5327 -1.1803
  427MOL0     H57581   1.215   1.510   5.908 -0.8269 -1.0364  0.4387
  427MOL0     H57582   1.211   1.405   6.118  1.6495 -0.8272 -0.9872
  427MOL0     H57583   1.361   1.493   6.103 -0.5178 -0.1266 -0.3901
  427MOL0     H57584   1.269   1.681   6.260  0.1871 -0.1364  1.8044
  427MOL0     H57585   1.118   1.587   6.257 -0.2409  2.2611  0.0571
  427MOL0     H57586   1.222   1.413   6.390  0.5134  0.3980  1.5401
  427MOL0     H57587   1.383   1.473   6.347  2.8047  1.8212  4.4355
  427MOL0     H57588   1.209   1.655   6.511 -3.3338 -2.3239 -0.8304
  427MOL0     H57589   1.255   1.492   6.580  3.1000 -0.6774  1.7855
  427MOL0     H57590   1.479   1.533   6.547  0.0843  0.4592 -2.5461
  427MOL0     H57591   1.469   1.690   6.491  0.3000 -0.0956  0.6044
  427MOL0     H57592   1.331   1.758   6.700 -0.6899 -1.5413  1.0421
  427MOL0     H57593   1.353   1.603   6.763  1.1618 -2.1146 -1.4993
  427MOL0     H57594   1.614   1.640   6.728 -1.4353 -1.2379  0.1406
  427MOL0     H57595   1.532   1.699   6.863  2.3080  1.5239  0.3411
  427MOL0     H57596   1.443   1.961   6.856 -0.3144 -1.8023  0.4840
  427MOL0     H57597   1.646   2.264   6.786  0.9322 -2.2691 -0.9538
  427MOL0     H57598   1.509   2.283   6.683 -1.2162  2.5517  3.0196
  427MOL0     H57599   1.504   2.183   6.972  1.1079  0.2042 -0.1750
  427MOL0     H57600   1.377   2.160   6.870  1.2465 -1.3176 -0.4031
  427MOL0     H57601   1.341   2.395   6.820 -0.9130  0.2059  0.6363
  427MOL0     H57602   1.478   2.450   6.915  0.1011 -0.1810 -1.4884
  427MOL0     H57603   1.358   2.345   7.114 -0.7532 -3.0020 -0.4065
  427MOL0     H57604   1.219   2.323   6.995 -0.8413  4.0340 -3.9203
  427MOL0     H57605   1.168   2.317   7.228 -0.2561  0.0032  0.8951
  427MOL0     H57606   0.938   2.322   7.499 -0.2122  4.3483 -0.0327
  427MOL0     H57607   1.073   2.234   7.425  1.1078  0.1870 -0.9695
  427MOL0     H57608   1.088   2.338   7.573  0.1804  1.3695 -1.0985
  427MOL0     H57609   0.994   2.955   7.663  0.3666 -1.7493 -2.3571
  427MOL0     H57610   0.843   3.080   7.813 -3.0864  0.5077  0.1267
  427MOL0     H57611   0.689   3.148   7.967  0.4922 -3.2126 -0.0947
  427MOL0     H57612   0.649   3.204   7.814  0.7199  0.0598 -0.3899
  427MOL0     H57613   0.505   3.324   7.943 -0.4255  0.1801 -1.1826
  427MOL0     H57614   0.399   3.184   7.909  0.1247  3.4574  0.3795
  427MOL0     H57615   0.371   3.227   8.143  0.1038 -0.0529  0.4453
  427MOL0     H57616   0.551   3.232   8.167  2.0262  0.8438 -0.9667
  427MOL0     H57617   0.378   2.995   8.089  0.0453 -0.1718 -0.1229
  427MOL0     H57618   0.554   2.989   8.116  1.3115  1.0945  0.3208
  427MOL0     H57619   0.528   3.044   8.341  2.9332 -0.3962 -2.5443
  427MOL0     H57620   0.413   2.916   8.305  1.1070 -0.5509  0.3947
  427MOL0     H57621   0.315   3.077   8.454  1.9863 -1.1316  0.1595
  427MOL0     H57622   0.317   3.204   8.335  0.8599  0.0960 -0.6844
  427MOL0     H57623   0.164   2.936   8.342 -0.2519 -0.7185 -3.2911
  427MOL0     H57624   0.182   3.031   8.193 -2.1696  1.4577  0.4581
  427MOL0     H57625   0.097   3.234   8.301  3.5558 -0.7211 -1.6997
  427MOL0     H57626   0.059   3.134   8.439 -0.8118  3.1440 -0.3920
  427MOL0     H57627   0.558   2.773   7.757  1.3476 -2.8544  1.1305
  427MOL0     H57628   0.701   2.659   7.600  0.9676  0.1297  0.1311
  427MOL0     H57629   1.082   2.801   7.307 -0.3530  0.9679 -2.9341
  427MOL0     H57630   1.223   2.736   7.133 -0.1812 -1.0432 -1.9083
  427MOL0     H57631   1.376   1.897   5.880 -0.4850  4.6872 -2.1431
  427MOL0     H57632   1.337   2.023   5.694  0.7499 -1.1137  2.8822
  427MOL0     H57633   0.890   2.241   5.395 -0.4157 -3.5825  0.3533
  427MOL0     H57634   0.883   2.359   5.170 -0.8927 -0.7529 -1.0147
  427MOL0     H57635   1.205   2.296   4.849  1.5173 -2.9168 -0.2485
  427MOL0     H57636   1.099   2.148   4.862  1.0165  0.1804 -1.1295
  427MOL0     H57637   0.927   2.242   4.732  1.1570 -1.4794  1.0424
  427MOL0     H57638   1.066   2.244   4.648 -0.7735 -2.9089  1.5315
  427MOL0     H57639   1.099   2.480   4.724 -1.3854 -0.3893  2.9622
  427MOL0     H57640   0.929   2.488   4.774 -1.7904  1.0968 -1.7168
  427MOL0     H57641   0.883   2.384   4.521  0.1026  0.1449  0.9356
  427MOL0     H57642   1.040   2.469   4.491  0.4512 -0.0280  0.1359
  427MOL0     H57643   0.838   2.804   4.483  1.2607  0.6061  1.4121
  427MOL0     H57644   1.228   2.141   5.051 -0.7306 -2.8183  0.1054
  427MOL0     H57645   1.242   2.025   5.271  1.2980  0.9849  0.8427
  428MOL0     O57646   0.595   0.142   9.755  0.8665 -0.0305 -0.2804
  428MOL0     C57647   0.487   0.156   9.693  0.0464 -0.1604  0.4525
  428MOL0     O57648   0.378   0.076   9.696  0.4629 -0.0138 -0.2161
  428MOL0     C57649   0.360   0.002   9.804 -0.1043 -0.5121 -0.2773
  428MOL0     C57650   0.294   0.057   9.915 -0.4455  0.4312  0.5412
  428MOL0     C57651   0.267  -0.020  10.023 -1.2346  0.0405 -0.4659
  428MOL0     C57652   0.312  -0.155  10.024 -1.0012  0.7594 -1.1582
  428MOL0     O57653   0.293  -0.248  10.124 -0.2448  0.4434 -0.6574
  428MOL0     C57654   0.195  -0.212  10.225  0.8882 -0.5381  0.4836
  428MOL0     C57655   0.190  -0.311  10.342  0.1882  0.0471  0.1406
  428MOL0     C57656   0.081  -0.418  10.323  0.6073  0.8774 -0.4158
  428MOL0     C57657  -0.048  -0.398  10.410 -0.0241 -0.8336 -0.8960
  428MOL0     C57658  -0.153  -0.500  10.374 -0.1614  1.0705  1.0292
  428MOL0     C57659  -0.278  -0.459  10.445 -0.4007 -0.1529  0.2888
  428MOL0     C57660  -0.394  -0.565  10.459  0.5487 -0.2103  0.1757
  428MOL0     C57661  -0.527  -0.511  10.500 -0.4071  0.0655 -0.1458
  428MOL0     N57662  -0.632  -0.608  10.506 -0.0272  0.6278  0.3077
  428MOL0     C57663  -0.702  -0.654  10.399  0.2075  0.4721  0.0568
  428MOL0     C57664  -0.778  -0.753  10.448 -0.3491  0.0252 -0.1407
  428MOL0     C57665  -0.871  -0.849  10.371 -0.7734 -0.5114 -1.1623
  428MOL0     C57666  -0.899  -0.803  10.227 -1.2512  0.0574  0.2125
  428MOL0     C57667  -0.900  -0.919  10.124 -0.6772 -0.2293  0.2270
  428MOL0     C57668  -0.903  -0.870   9.985 -0.1575  0.4379  0.0537
  428MOL0     O57669  -0.770  -0.846   9.949 -1.1374 -0.8124 -0.0661
  428MOL0     C57670  -0.742  -0.785   9.826  0.2488 -0.6201 -0.1199
  428MOL0     C57671  -0.624  -0.708   9.813  0.2967 -0.2345  0.8720
  428MOL0     C57672  -0.592  -0.648   9.693 -0.0599  0.2492 -0.1046
  428MOL0     C57673  -0.464  -0.568   9.700  0.3620  0.8129  0.1372
  428MOL0     C57674  -0.685  -0.643   9.578  0.2955  0.9115 -0.8730
  428MOL0     C57675  -0.662  -0.571   9.453  0.0388  0.4162 -0.6897
  428MOL0     O57676  -0.745  -0.596   9.341 -0.0104 -0.2179 -0.1489
  428MOL0     C57677  -0.716  -0.533   9.227 -0.4681  0.7093  0.2287
  428MOL0     C57678  -0.819  -0.471   9.159 -0.1711  1.0914 -0.2677
  428MOL0     C57679  -0.794  -0.415   9.029  0.0441 -0.1229  0.1280
  428MOL0     C57680  -0.676  -0.422   8.957 -0.6771  0.0406 -0.0821
  428MOL0     O57681  -0.682  -0.374   8.829  0.4731 -0.7929 -0.3198
  428MOL0     C57682  -0.564  -0.355   8.754  0.0549 -0.4813 -0.4077
  428MOL0     C57683  -0.592  -0.294   8.623  0.2897 -0.8727  0.0238
  428MOL0     C57684  -0.467  -0.283   8.541 -0.0109 -0.4057 -0.0609
  428MOL0     C57685  -0.504  -0.231   8.398 -0.0638 -0.5973 -0.5542
  428MOL0     C57686  -0.374  -0.207   8.303  0.2998 -0.0228 -0.1722
  428MOL0     C57687  -0.416  -0.170   8.166 -0.1359  0.2884 -0.5740
  428MOL0     C57688  -0.320  -0.084   8.092 -0.3223  0.2459 -0.6446
  428MOL0     C57689  -0.317   0.060   8.134  0.1237 -1.1134  0.3436
  428MOL0    Cl57690  -0.190   0.149   8.050  0.4656  0.1789  0.0065
  428MOL0     C57691  -0.578  -0.501   9.020  0.5014  0.0407  0.7129
  428MOL0     C57692  -0.596  -0.556   9.146  0.1232 -0.3495 -0.1492
  428MOL0     O57693  -0.570  -0.487   9.456  0.1128  0.1613  0.2730
  428MOL0     C57694  -0.794  -0.731   9.597  0.6602 -0.5940 -0.5059
  428MOL0     C57695  -0.819  -0.810   9.708 -0.3219 -0.0788  0.9224
  428MOL0     N57696  -0.749  -0.763  10.585  0.7562  0.2244 -0.0340
  428MOL0     N57697  -0.655  -0.677  10.614  0.2174 -0.5701 -0.3978
  428MOL0     C57698   0.402  -0.201   9.922 -0.8086 -0.2192  0.3680
  428MOL0     C57699   0.427  -0.118   9.807  0.1626 -1.0916  0.6573
  428MOL0     C57700   0.482   0.269   9.598 -0.8070  1.3919 -0.0879
  428MOL0     C57701   0.594   0.363   9.585  0.1456 -0.3426  0.1860
  428MOL0     C57702   0.583   0.482   9.498 -0.5921 -0.3047 -1.1902
  428MOL0     C57703   0.479   0.495   9.410 -0.5596  0.2396  0.0408
  428MOL0     O57704   0.494   0.592   9.320  0.3157 -0.0305  0.6746
  428MOL0     C57705   0.380   0.614   9.233 -0.6068 -0.2457 -1.3336
  428MOL0     C57706   0.424   0.717   9.127 -0.0304  0.2955  1.1580
  428MOL0     C57707   0.481   0.845   9.178  0.4257  0.4244 -0.1884
  428MOL0     C57708   0.503   0.946   9.062  0.3133  0.8203 -0.0318
  428MOL0     C57709   0.556   1.070   9.100  0.0745 -0.9488 -0.5213
  428MOL0     C57710   0.588   1.176   9.149  0.4936 -0.3056  0.7066
  428MOL0     C57711   0.379   0.396   9.419  1.0462  0.2468 -0.6515
  428MOL0     C57712   0.376   0.283   9.515  0.7197 -0.3755  0.0774
  428MOL0     H57713   0.244   0.152   9.902 -3.6989 -1.3745 -1.2967
  428MOL0     H57714   0.215   0.031  10.104 -0.6679 -0.1852  0.0542
  428MOL0     H57715   0.231  -0.113  10.253  0.9290 -0.3261 -0.2948
  428MOL0     H57716   0.093  -0.206  10.187  0.7190  1.1180  1.1494
  428MOL0     H57717   0.286  -0.360  10.361 -0.4144 -1.1350  0.2235
  428MOL0     H57718   0.176  -0.255  10.435 -3.8651 -0.5277  0.0752
  428MOL0     H57719   0.050  -0.431  10.219 -0.0513  0.0586 -0.1246
  428MOL0     H57720   0.135  -0.512  10.339  1.9015  1.8176  1.0706
  428MOL0     H57721  -0.012  -0.396  10.513  1.0656 -0.0847 -1.2732
  428MOL0     H57722  -0.087  -0.296  10.398 -1.8631 -1.4440 -0.3819
  428MOL0     H57723  -0.173  -0.518  10.269  0.9266  1.9835  0.6439
  428MOL0     H57724  -0.123  -0.598  10.411 -0.1259 -0.9013 -3.5998
  428MOL0     H57725  -0.248  -0.429  10.545  2.9874 -0.6823 -0.4430
  428MOL0     H57726  -0.319  -0.376  10.385  1.5924 -0.7059 -1.9886
  428MOL0     H57727  -0.385  -0.627  10.369  2.4646  0.6089 -0.2427
  428MOL0     H57728  -0.367  -0.633  10.541  0.1593  1.3168  1.6290
  428MOL0     H57729  -0.556  -0.413  10.459  2.4753  1.1868  0.2485
  428MOL0     H57730  -0.524  -0.477  10.604  1.5737  1.4492 -0.5923
  428MOL0     H57731  -0.707  -0.616  10.298  1.4895 -0.0914 -0.2443
  428MOL0     H57732  -0.819  -0.945  10.370 -0.1010 -0.1590 -0.9433
  428MOL0     H57733  -0.968  -0.855  10.421 -1.4399 -1.1013 -2.4935
  428MOL0     H57734  -0.813  -0.755  10.178  0.7722 -1.1249  2.4216
  428MOL0     H57735  -0.991  -0.743  10.226 -0.2001  1.7400 -0.0188
  428MOL0     H57736  -0.986  -0.985  10.142 -0.5103 -0.9722 -1.4635
  428MOL0     H57737  -0.816  -0.988  10.135  0.2187  0.6828 -0.7168
  428MOL0     H57738  -0.963  -0.779   9.982  0.6827  1.0231  0.5455
  428MOL0     H57739  -0.953  -0.941   9.919  1.3666  0.6733 -1.4064
  428MOL0     H57740  -0.567  -0.712   9.905 -1.4009 -2.9520  1.9168
  428MOL0     H57741  -0.467  -0.459   9.687  2.5066  1.4049  3.4140
  428MOL0     H57742  -0.400  -0.588   9.786 -2.6305  0.5114  2.4401
  428MOL0     H57743  -0.410  -0.607   9.613 -1.0606 -0.7085 -0.1269
  428MOL0     H57744  -0.917  -0.460   9.205 -0.7346 -0.4827 -1.0005
  428MOL0     H57745  -0.874  -0.352   8.992 -1.0522 -0.6315  1.5181
  428MOL0     H57746  -0.489  -0.303   8.813  2.8089 -1.0762 -3.1323
  428MOL0     H57747  -0.529  -0.455   8.726  0.0375 -0.0003 -2.3413
  428MOL0     H57748  -0.678  -0.339   8.573 -1.3227  3.1143 -1.1592
  428MOL0     H57749  -0.629  -0.192   8.635  1.6835 -0.1859 -1.2156
  428MOL0     H57750  -0.414  -0.378   8.540 -3.1725 -2.3215 -1.0499
  428MOL0     H57751  -0.415  -0.202   8.593  0.2570 -0.1486 -0.7152
  428MOL0     H57752  -0.571  -0.307   8.357  0.8698 -1.8383  0.1512
  428MOL0     H57753  -0.560  -0.137   8.397  1.8854  0.6295 -0.4613
  428MOL0     H57754  -0.311  -0.294   8.283  0.9987 -0.0313  1.8133
  428MOL0     H57755  -0.317  -0.122   8.342 -2.5565  0.9103  2.4469
  428MOL0     H57756  -0.437  -0.261   8.110  0.9650 -1.3401  1.4949
  428MOL0     H57757  -0.513  -0.120   8.177 -0.8553 -1.1868  0.1061
  428MOL0     H57758  -0.335  -0.095   7.984 -0.8434 -3.2666 -0.3337
  428MOL0     H57759  -0.226  -0.133   8.119 -0.8231  0.6323  2.1727
  428MOL0     H57760  -0.289   0.078   8.238  2.3722  1.1574 -0.5670
  428MOL0     H57761  -0.411   0.110   8.106  1.6291  1.3968 -0.5458
  428MOL0     H57762  -0.504  -0.530   8.946 -0.0756  1.4737 -0.4922
  428MOL0     H57763  -0.524  -0.627   9.186 -0.4819 -0.5941  0.5347
  428MOL0     H57764  -0.861  -0.737   9.512 -0.8120 -0.4400  0.6061
  428MOL0     H57765  -0.913  -0.865   9.711 -1.1491  1.3367  2.5862
  428MOL0     H57766   0.431  -0.304   9.942 -1.6051 -0.1905  1.7869
  428MOL0     H57767   0.484  -0.157   9.723 -0.4607 -1.0231  0.1996
  428MOL0     H57768   0.687   0.355   9.641  1.0999  2.6441 -0.8000
  428MOL0     H57769   0.672   0.542   9.489  0.2571 -1.2532  0.4185
  428MOL0     H57770   0.334   0.525   9.189 -1.4596 -2.7540  3.8520
  428MOL0     H57771   0.307   0.668   9.295  0.9885  2.5346 -1.6917
  428MOL0     H57772   0.331   0.738   9.073  0.9157 -0.5917 -0.9038
  428MOL0     H57773   0.506   0.667   9.076  0.5031  0.4148  1.8876
  428MOL0     H57774   0.573   0.820   9.230 -0.3376 -1.2268  0.4371
  428MOL0     H57775   0.406   0.887   9.246 -0.3052 -1.0134 -0.0651
  428MOL0     H57776   0.409   0.953   9.006 -0.0537 -2.6702 -0.0651
  428MOL0     H57777   0.577   0.901   8.995  1.9694 -0.1529  2.2974
  428MOL0     H57778   0.631   1.271   9.174  2.0714  0.0598 -2.7664
  428MOL0     H57779   0.298   0.375   9.350  0.8138  0.6097 -0.4878
  428MOL0     H57780   0.299   0.208   9.503  1.2522 -0.6594 -2.2098
  429MOL0     O57781  10.060   4.872   6.468 -0.6088 -0.9065 -0.0839
  429MOL0     C57782   9.984   4.897   6.373 -0.6011 -0.7777 -1.1562
  429MOL0     O57783  10.024   4.948   6.246  0.1321  0.0813 -0.3933
  429MOL0     C57784  10.144   4.903   6.199  0.9824  0.0928 -0.6801
  429MOL0     C57785  10.166   4.772   6.188 -0.3803 -0.5624  0.2616
  429MOL0     C57786  10.292   4.722   6.145 -0.4047 -0.4699 -0.1970
  429MOL0     C57787  10.395   4.804   6.113  0.4813  0.7838 -0.2099
  429MOL0     O57788  10.511   4.747   6.083 -0.2713 -0.5554 -0.1468
  429MOL0     C57789  10.620   4.830   6.049  0.2239  0.2454  0.3282
  429MOL0     C57790  10.719   4.719   6.019  0.2615  0.2291 -1.0605
  429MOL0     C57791  10.775   4.635   6.140  0.0599 -0.0014 -0.7446
  429MOL0     C57792  10.862   4.733   6.228  0.2640 -0.1272 -0.7448
  429MOL0     C57793  10.918   4.661   6.349  0.9727  1.0535  0.0349
  429MOL0     C57794  10.812   4.645   6.460 -0.2392  0.5233  0.1888
  429MOL0     C57795  10.828   4.749   6.563  0.0378  0.3315  0.9821
  429MOL0     C57796  10.726   4.731   6.686 -0.8474  0.0700  1.1339
  429MOL0     N57797  10.730   4.858   6.759  0.5953  0.2905  0.4193
  429MOL0     C57798  10.625   4.947   6.791  0.1398  0.4945 -0.5793
  429MOL0     C57799  10.687   5.052   6.858  0.4675  1.2081  0.0931
  429MOL0     C57800  10.622   5.173   6.925  0.4813 -0.3724 -0.3468
  429MOL0     C57801  10.673   5.308   6.863  0.6953  0.0206 -0.7331
  429MOL0     C57802  10.597   5.415   6.934  0.7638 -0.7150  0.0823
  429MOL0     C57803  10.630   5.557   6.891 -0.1047  0.0286  0.1913
  429MOL0     O57804  10.593   5.581   6.752  0.6763 -0.0513  0.5812
  429MOL0     C57805  10.595   5.717   6.713  0.9941 -0.6805 -0.8790
  429MOL0     C57806  10.681   5.808   6.771  0.0560 -0.7735 -0.3848
  429MOL0     C57807  10.687   5.940   6.728 -0.2593 -0.8762  0.7103
  429MOL0     C57808  10.781   6.037   6.804 -1.2029  0.2182 -0.1388
  429MOL0     C57809  10.595   5.973   6.612  0.3935 -0.5831 -0.6191
  429MOL0     C57810  10.592   6.104   6.531 -0.3657  0.0889 -0.2495
  429MOL0     O57811  10.560   6.105   6.393  0.0018  0.6171 -0.4796
  429MOL0     C57812  10.566   6.204   6.302  0.3304  0.2339 -0.4523
  429MOL0     C57813  10.649   6.307   6.328 -1.0367  0.1612  0.3894
  429MOL0     C57814  10.654   6.408   6.236 -0.2663  0.5301  0.3037
  429MOL0     C57815  10.566   6.418   6.133 -0.2905  0.0710  0.7015
  429MOL0     O57816  10.581   6.529   6.044  0.2169  0.3935 -0.7020
  429MOL0     C57817  10.467   6.616   6.031 -0.0478 -0.0320  0.5077
  429MOL0     C57818  10.444   6.723   6.132  0.5912  0.2661 -0.2327
  429MOL0     C57819  10.579   6.790   6.179 -0.2943  0.7013 -0.4763
  429MOL0     C57820  10.531   6.911   6.269 -0.6314  0.9429  1.2772
  429MOL0     C57821  10.527   6.875   6.410 -0.3781  0.0984 -0.4309
  429MOL0     C57822  10.485   6.996   6.496 -0.5293  0.3321 -0.0534
  429MOL0     C57823  10.419   6.946   6.632 -0.8785  0.5806 -0.3698
  429MOL0     C57824  10.402   7.064   6.725  0.2018 -0.4628 -1.4715
  429MOL0    Cl57825  10.301   7.005   6.861  0.7888 -0.1818  0.1694
  429MOL0     C57826  10.478   6.305   6.107  0.2077  0.0051  0.6650
  429MOL0     C57827  10.488   6.194   6.192 -0.2304 -0.7647  0.4626
  429MOL0     O57828  10.610   6.205   6.598 -0.5056  0.1463  0.2931
  429MOL0     C57829  10.506   5.883   6.563 -0.2519 -0.3459 -0.0744
  429MOL0     C57830  10.503   5.759   6.623  0.2372  0.3356  0.0715
  429MOL0     N57831  10.824   5.022   6.854  0.7424  0.2182  0.1596
  429MOL0     N57832  10.848   4.911   6.802  0.0806  0.0853 -0.2883
  429MOL0     C57833  10.377   4.945   6.125  0.6159  0.9915  0.1094
  429MOL0     C57834  10.250   4.986   6.170 -0.2509 -0.5881  0.5131
  429MOL0     C57835   9.838   4.876   6.401 -1.0450  0.8373  0.9875
  429MOL0     C57836   9.800   4.817   6.515  0.4999  0.6058  0.0922
  429MOL0     C57837   9.662   4.787   6.545  0.0470 -0.3646 -0.1658
  429MOL0     C57838   9.567   4.820   6.447 -0.4626 -0.0067  0.2088
  429MOL0     O57839   9.430   4.793   6.467  0.3658  0.0002 -0.9121
  429MOL0     C57840   9.341   4.902   6.501 -0.3926  0.5515  0.1003
  429MOL0     C57841   9.295   5.000   6.388 -0.5661  1.1248  0.5048
  429MOL0     C57842   9.233   4.910   6.285  0.0150 -0.5958  0.1278
  429MOL0     C57843   9.144   4.993   6.180  0.2274 -0.0961 -0.2519
  429MOL0     C57844   9.174   5.132   6.150 -0.8162 -0.2935 -0.5362
  429MOL0     C57845   9.201   5.246   6.126  0.1397 -0.5715 -0.4761
  429MOL0     C57846   9.604   4.890   6.331  0.6125  0.6846  0.7072
  429MOL0     C57847   9.741   4.917   6.307 -0.5679  0.1923 -0.9042
  429MOL0     H57848  10.087   4.701   6.211 -0.2584 -0.8385 -0.1601
  429MOL0     H57849  10.316   4.617   6.137 -3.1386 -1.3256  1.2843
  429MOL0     H57850  10.592   4.893   5.964  0.3112  2.3922  1.8043
  429MOL0     H57851  10.640   4.903   6.128 -0.2386  2.4315 -1.4466
  429MOL0     H57852  10.673   4.656   5.942  0.2192  0.7224 -1.4515
  429MOL0     H57853  10.809   4.752   5.967  1.6740 -1.6955  0.0719
  429MOL0     H57854  10.705   4.590   6.212 -0.1906  1.2549 -0.1814
  429MOL0     H57855  10.838   4.562   6.089 -0.1449  0.6260 -1.9333
  429MOL0     H57856  10.948   4.772   6.172 -0.6781  1.3946 -1.1740
  429MOL0     H57857  10.804   4.815   6.271  1.8823 -0.3540  2.0798
  429MOL0     H57858  10.948   4.561   6.315  1.5962  0.8121  1.2577
  429MOL0     H57859  11.004   4.719   6.382  1.8970  1.4634 -2.7890
  429MOL0     H57860  10.711   4.646   6.419 -0.8031  3.1141  1.4269
  429MOL0     H57861  10.822   4.549   6.513 -0.8020  0.9652  1.1120
  429MOL0     H57862  10.933   4.736   6.589  0.4284  2.4409  0.6442
  429MOL0     H57863  10.815   4.849   6.521  0.9191 -0.7353 -2.1015
  429MOL0     H57864  10.748   4.638   6.738 -2.5520  0.0009  1.7888
  429MOL0     H57865  10.626   4.724   6.642  1.2643 -2.0531 -4.2238
  429MOL0     H57866  10.518   4.936   6.793  0.2988 -1.1835  1.0501
  429MOL0     H57867  10.514   5.162   6.913  0.8473 -2.4004 -2.4349
  429MOL0     H57868  10.655   5.187   7.028  2.4233 -0.3143 -0.9403
  429MOL0     H57869  10.645   5.310   6.757 -0.2726  0.5753 -0.4775
  429MOL0     H57870  10.781   5.315   6.881  1.2008 -4.0199 -1.2135
  429MOL0     H57871  10.623   5.400   7.039 -0.5101 -2.5992  0.1852
  429MOL0     H57872  10.490   5.395   6.921  0.0117  1.2778  2.4684
  429MOL0     H57873  10.735   5.581   6.906 -0.1820  0.8189 -0.4550
  429MOL0     H57874  10.582   5.621   6.966  0.3421 -0.5887  1.0223
  429MOL0     H57875  10.746   5.789   6.855 -1.5186 -3.8648  0.2697
  429MOL0     H57876  10.879   6.014   6.763 -1.0306 -0.3555  0.5683
  429MOL0     H57877  10.757   6.142   6.788 -1.2434  0.2452  0.0965
  429MOL0     H57878  10.773   6.003   6.908  1.0588 -0.8762 -0.2703
  429MOL0     H57879  10.720   6.319   6.409  0.2074 -0.8087 -0.5120
  429MOL0     H57880  10.717   6.492   6.261 -0.8743  1.7611 -1.9827
  429MOL0     H57881  10.489   6.655   5.931 -2.4184 -2.5750 -1.1601
  429MOL0     H57882  10.377   6.556   6.018 -0.0194 -0.0732  0.5011
  429MOL0     H57883  10.381   6.795   6.078 -0.6525 -1.3949 -1.0993
  429MOL0     H57884  10.390   6.671   6.212  1.0498 -1.0311 -0.7347
  429MOL0     H57885  10.622   6.820   6.083 -1.0669 -1.0002 -1.4012
  429MOL0     H57886  10.652   6.735   6.238 -0.8861  1.8022  1.3890
  429MOL0     H57887  10.613   6.981   6.251  1.4661 -1.6361  0.0468
  429MOL0     H57888  10.440   6.964   6.240  0.9137  2.7666 -0.5812
  429MOL0     H57889  10.623   6.834   6.441 -0.7760 -1.0115 -0.5879
  429MOL0     H57890  10.456   6.792   6.421  0.5327 -0.7762 -0.9505
  429MOL0     H57891  10.570   7.064   6.506 -0.5508  0.1169  2.0751
  429MOL0     H57892  10.403   7.047   6.444 -0.3280  1.5044  0.7326
  429MOL0     H57893  10.475   6.866   6.681  1.3036  1.5422 -1.1255
  429MOL0     H57894  10.325   6.906   6.594 -0.5610  0.4735 -1.0789
  429MOL0     H57895  10.361   7.154   6.679  3.6559  1.6526 -0.7466
  429MOL0     H57896  10.493   7.101   6.774 -0.9932 -1.6352  1.9451
  429MOL0     H57897  10.402   6.322   6.031  1.4512  1.4989 -0.3097
  429MOL0     H57898  10.441   6.098   6.174  1.5690 -1.5712 -0.1986
  429MOL0     H57899  10.433   5.907   6.486  1.0686 -2.3041 -2.0551
  429MOL0     H57900  10.436   5.674   6.613  0.4196 -0.1566  2.4574
  429MOL0     H57901  10.450   5.024   6.109  0.8189  0.6058 -0.9658
  429MOL0     H57902  10.222   5.091   6.177 -0.0062 -0.4343 -0.6553
  429MOL0     H57903   9.872   4.782   6.589 -0.0173  3.2737  1.9840
  429MOL0     H57904   9.637   4.753   6.645 -1.0864 -1.5221 -0.8138
  429MOL0     H57905   9.255   4.854   6.549 -0.3480 -0.2670 -0.6005
  429MOL0     H57906   9.387   4.956   6.584 -1.4858  0.2505  0.9221
  429MOL0     H57907   9.376   5.062   6.348 -0.4069 -1.8398 -4.5911
  429MOL0     H57908   9.220   5.062   6.437 -1.0461  0.1274  1.0718
  429MOL0     H57909   9.177   4.830   6.335  2.1086 -1.1430  1.7484
  429MOL0     H57910   9.312   4.861   6.227 -0.2939  0.1877 -0.9886
  429MOL0     H57911   9.047   5.013   6.225  0.1269  0.1476 -0.5705
  429MOL0     H57912   9.134   4.940   6.085 -0.3796  2.0244 -1.4557
  429MOL0     H57913   9.219   5.351   6.128 -1.0899 -0.3539  0.4188
  429MOL0     H57914   9.529   4.921   6.259  0.4689  0.1487  0.6233
  429MOL0     H57915   9.775   4.963   6.214 -0.7413  0.6892 -0.7233
  430MOL0     O57916   7.224   1.229   8.839  0.2562 -0.5904 -0.6830
  430MOL0     C57917   7.168   1.295   8.921 -0.3055 -0.1796 -0.4105
  430MOL0     O57918   7.129   1.262   9.054  1.0051  0.0902 -0.1986
  430MOL0     C57919   7.132   1.123   9.091 -0.2227 -0.1791  0.2070
  430MOL0     C57920   7.170   1.089   9.222  0.2619 -0.0486 -0.3394
  430MOL0     C57921   7.163   0.963   9.254 -0.6822  0.0011 -0.2909
  430MOL0     C57922   7.127   0.860   9.170  0.2545  0.6776  0.2000
  430MOL0     O57923   7.134   0.728   9.212  0.2509 -0.6437 -0.3658
  430MOL0     C57924   7.086   0.628   9.113 -0.3690  0.0592 -0.6767
  430MOL0     C57925   7.108   0.485   9.168 -0.5691 -0.4466 -0.9641
  430MOL0     C57926   7.260   0.444   9.185 -0.9534  0.4447 -0.6203
  430MOL0     C57927   7.278   0.312   9.235  0.4549  0.0269 -0.5106
  430MOL0     C57928   7.415   0.287   9.302  0.6877  0.7443  0.4530
  430MOL0     C57929   7.518   0.299   9.187  0.0970 -0.0250 -0.0448
  430MOL0     C57930   7.658   0.240   9.237  0.2558 -0.4964 -0.9068
  430MOL0     C57931   7.723   0.332   9.340 -0.0937  0.1616  0.1610
  430MOL0     N57932   7.860   0.282   9.370  0.4876  0.2851 -0.0335
  430MOL0     C57933   7.881   0.162   9.431  0.1093 -0.7621 -0.2606
  430MOL0     C57934   8.021   0.156   9.437 -1.5591 -0.8965  0.1566
  430MOL0     C57935   8.118   0.063   9.500 -0.4705  0.3146 -0.5496
  430MOL0     C57936   8.159  -0.048   9.398  0.0401 -0.1123 -0.8146
  430MOL0     C57937   8.228  -0.001   9.264  0.9104 -0.2126 -0.4208
  430MOL0     C57938   8.116  -0.012   9.151 -1.0683  0.0994  0.9730
  430MOL0     O57939   8.064  -0.138   9.150  0.0398  0.7260 -0.3241
  430MOL0     C57940   7.965  -0.170   9.060 -0.5548  0.2712 -0.0717
  430MOL0     C57941   7.891  -0.292   9.083 -0.1884  0.4976  0.3649
  430MOL0     C57942   7.792  -0.338   8.996 -0.1802 -0.4055 -0.1460
  430MOL0     C57943   7.742  -0.483   9.024 -0.8190  0.9103  0.7953
  430MOL0     C57944   7.746  -0.237   8.893  0.0392 -0.0547  0.2425
  430MOL0     C57945   7.628  -0.269   8.798 -0.3253 -0.3940  0.0428
  430MOL0     O57946   7.570  -0.397   8.796 -0.3668 -0.0265  0.4553
  430MOL0     C57947   7.503  -0.442   8.689 -0.0266 -0.9154 -0.4191
  430MOL0     C57948   7.549  -0.431   8.557  0.4857 -0.1288 -0.4775
  430MOL0     C57949   7.471  -0.478   8.447  0.2205  0.7584 -0.8045
  430MOL0     C57950   7.347  -0.538   8.466  0.1186 -0.4503 -0.4932
  430MOL0     O57951   7.273  -0.581   8.357  0.9579  0.5210  0.7669
  430MOL0     C57952   7.214  -0.703   8.361  0.5729 -1.4126  0.0872
  430MOL0     C57953   7.126  -0.726   8.236 -1.0523  0.3837  0.4089
  430MOL0     C57954   7.034  -0.603   8.217  0.1831  0.6099  0.6076
  430MOL0     C57955   6.981  -0.615   8.078 -0.2903 -0.4188  0.1171
  430MOL0     C57956   7.069  -0.551   7.972 -0.4311  0.3731 -0.0244
  430MOL0     C57957   7.033  -0.591   7.833  0.2271 -0.7376  0.4601
  430MOL0     C57958   6.907  -0.519   7.768 -0.5772 -0.0960 -0.0308
  430MOL0     C57959   6.907  -0.497   7.618  0.3936  0.5209 -0.2303
  430MOL0    Cl57960   6.856  -0.636   7.518  0.3729 -0.5807 -0.0409
  430MOL0     C57961   7.305  -0.554   8.594  0.7355  0.0210 -0.0306
  430MOL0     C57962   7.382  -0.502   8.704  0.4215 -0.2040 -0.3263
  430MOL0     O57963   7.577  -0.171   8.740  0.1637  0.5936 -0.4181
  430MOL0     C57964   7.824  -0.123   8.874  0.4709  0.2359 -0.2240
  430MOL0     C57965   7.929  -0.091   8.953  0.5223 -0.6854 -1.6384
  430MOL0     N57966   8.072   0.272   9.380  0.8112 -0.3365  0.8065
  430MOL0     N57967   7.971   0.347   9.334 -0.8031  0.5550  0.6936
  430MOL0     C57968   7.083   0.895   9.038  1.7867  0.5221 -0.5206
  430MOL0     C57969   7.077   1.027   9.004  1.2878  0.6085 -0.4210
  430MOL0     C57970   7.164   1.435   8.883 -0.0310 -0.5878  0.1539
  430MOL0     C57971   7.207   1.469   8.754  0.3609 -0.7074 -0.0434
  430MOL0     C57972   7.190   1.594   8.707  0.1477 -0.2972 -0.3322
  430MOL0     C57973   7.135   1.696   8.784  0.4993  0.0430  0.0095
  430MOL0     O57974   7.102   1.824   8.744  0.2670  0.8070  1.1758
  430MOL0     C57975   7.182   1.880   8.643 -0.1211 -0.4320 -0.1547
  430MOL0     C57976   7.087   1.977   8.573  0.7330 -0.1024  0.0030
  430MOL0     C57977   7.154   2.003   8.436 -0.4340 -0.4087  0.2693
  430MOL0     C57978   7.078   2.117   8.365 -0.1295  0.1680 -0.8099
  430MOL0     C57979   7.186   2.213   8.343  0.0553  0.2510  1.0768
  430MOL0     C57980   7.266   2.296   8.304 -0.0693  0.5134 -0.4159
  430MOL0     C57981   7.093   1.661   8.913 -0.0339 -1.6847  0.3133
  430MOL0     C57982   7.119   1.538   8.969 -0.0246 -0.1686 -0.5559
  430MOL0     H57983   7.201   1.168   9.290  0.3929  1.0595 -1.6387
  430MOL0     H57984   7.211   0.939   9.348  1.0153  1.8434 -0.6310
  430MOL0     H57985   6.979   0.644   9.101 -0.7468  2.1998  3.7345
  430MOL0     H57986   7.139   0.641   9.018  0.5830 -1.2423 -0.3584
  430MOL0     H57987   7.057   0.486   9.265  1.0376  1.7798 -0.0621
  430MOL0     H57988   7.056   0.409   9.110 -3.2857 -1.2232  2.1581
  430MOL0     H57989   7.315   0.438   9.091  1.8802 -0.3728  0.9614
  430MOL0     H57990   7.314   0.517   9.246 -2.6077 -0.6771  2.4133
  430MOL0     H57991   7.201   0.311   9.314 -0.0952  2.9657 -0.9020
  430MOL0     H57992   7.258   0.236   9.159 -2.0771  0.3566 -0.2618
  430MOL0     H57993   7.441   0.353   9.385  0.0364  0.4225  0.9161
  430MOL0     H57994   7.405   0.186   9.342 -3.2804  0.6348 -0.4495
  430MOL0     H57995   7.479   0.246   9.099 -1.7484  2.0501 -0.5628
  430MOL0     H57996   7.546   0.398   9.151  0.7861  0.1463  0.9453
  430MOL0     H57997   7.640   0.145   9.288 -1.0982 -0.3977 -1.1642
  430MOL0     H57998   7.729   0.212   9.158  2.0520  1.2696 -0.0317
  430MOL0     H57999   7.663   0.337   9.431  0.2266  1.7990  0.3237
  430MOL0     H58000   7.732   0.425   9.284 -0.5583  0.3594  0.4082
  430MOL0     H58001   7.819   0.091   9.485 -2.0610 -0.0521 -1.6888
  430MOL0     H58002   8.203   0.123   9.535 -0.4939  0.5328 -0.8672
  430MOL0     H58003   8.071   0.016   9.587  3.0652 -3.3528 -0.3148
  430MOL0     H58004   8.069  -0.104   9.370  0.2045  0.8284 -3.4960
  430MOL0     H58005   8.228  -0.113   9.453  0.1611  1.5376  1.0778
  430MOL0     H58006   8.305  -0.075   9.238  0.9659 -0.4252  0.3181
  430MOL0     H58007   8.277   0.096   9.271  2.5012 -1.0871  3.1150
  430MOL0     H58008   8.169  -0.005   9.055  1.3085 -1.5239  2.0656
  430MOL0     H58009   8.036   0.062   9.157  0.6259  2.0965  0.2116
  430MOL0     H58010   7.931  -0.356   9.161 -2.3615  1.3666  2.3389
  430MOL0     H58011   7.809  -0.526   9.098 -5.4712 -1.5284  4.1363
  430MOL0     H58012   7.644  -0.497   9.071 -1.3675 -2.8120 -1.0570
  430MOL0     H58013   7.746  -0.538   8.929 -0.0615 -1.9877  2.4184
  430MOL0     H58014   7.648  -0.390   8.540  0.9590 -1.5919 -1.4351
  430MOL0     H58015   7.489  -0.451   8.343  1.4103  0.2234 -0.7519
  430MOL0     H58016   7.295  -0.776   8.363 -0.0800 -2.1741 -0.7269
  430MOL0     H58017   7.145  -0.703   8.446 -0.9522 -2.4191 -1.1028
  430MOL0     H58018   7.193  -0.748   8.152 -0.9946 -2.8873  1.1674
  430MOL0     H58019   7.083  -0.824   8.256  1.6228 -1.0647 -0.3872
  430MOL0     H58020   7.076  -0.503   8.227 -0.3883  1.0481 -1.0039
  430MOL0     H58021   6.956  -0.596   8.293 -0.3815  1.7359 -0.0465
  430MOL0     H58022   6.951  -0.717   8.055  1.1750 -1.0442  0.8600
  430MOL0     H58023   6.893  -0.550   8.073  1.0006  1.4242  0.3889
  430MOL0     H58024   7.174  -0.578   7.986  0.3721  3.1511 -0.0312
  430MOL0     H58025   7.076  -0.447   8.004  0.3113 -0.2313  1.9255
  430MOL0     H58026   7.120  -0.565   7.772  0.0622 -0.6245  0.2753
  430MOL0     H58027   7.022  -0.700   7.839  3.0170 -1.0656  1.4625
  430MOL0     H58028   6.883  -0.425   7.818 -6.1672 -2.3516  2.4694
  430MOL0     H58029   6.815  -0.574   7.792 -0.3150  0.1135  1.5672
  430MOL0     H58030   7.005  -0.462   7.584 -0.1977  1.1827 -1.3242
  430MOL0     H58031   6.837  -0.415   7.596  0.8954  0.9724 -0.1621
  430MOL0     H58032   7.212  -0.604   8.620  0.8031  0.4413  1.0313
  430MOL0     H58033   7.343  -0.505   8.805  0.2596 -0.6085 -0.3991
  430MOL0     H58034   7.808  -0.053   8.793 -3.2445  1.3261  1.2474
  430MOL0     H58035   7.974   0.007   8.945 -2.4254  1.0389  0.7593
  430MOL0     H58036   7.042   0.822   8.969  1.9840 -1.1109  1.0117
  430MOL0     H58037   7.035   1.059   8.910  2.2992  0.3213 -0.9795
  430MOL0     H58038   7.244   1.390   8.690  0.9204 -0.0977 -0.4750
  430MOL0     H58039   7.215   1.617   8.605  0.8770  0.3027 -0.0255
  430MOL0     H58040   7.263   1.938   8.689 -2.0087 -1.0978  4.6661
  430MOL0     H58041   7.229   1.810   8.573 -1.2807 -2.7639  1.2713
  430MOL0     H58042   7.079   2.067   8.635 -1.7251 -1.0044  1.1286
  430MOL0     H58043   6.988   1.929   8.570  1.0172 -0.8364  1.4851
  430MOL0     H58044   7.153   1.915   8.371 -1.2279 -1.8753  2.1701
  430MOL0     H58045   7.260   2.026   8.445  0.0773 -1.5061 -2.1059
  430MOL0     H58046   7.010   2.163   8.438 -2.2276 -2.4646 -0.9381
  430MOL0     H58047   7.021   2.091   8.275  1.4352 -0.7760 -1.5789
  430MOL0     H58048   7.345   2.363   8.274  0.8237 -0.0878  0.5326
  430MOL0     H58049   7.038   1.733   8.974 -0.8138 -2.0484  0.0637
  430MOL0     H58050   7.106   1.515   9.075  0.1041 -1.4723 -0.8043
  431MOL0     O58051   2.006   4.301   9.897  0.2042  0.3028  0.0779
  431MOL0     C58052   2.037   4.286  10.017 -0.2734 -0.2830 -0.3583
  431MOL0     O58053   2.059   4.386  10.116  0.1308  0.0462 -0.2931
  431MOL0     C58054   2.063   4.520  10.083 -0.7361 -0.1603 -0.2531
  431MOL0     C58055   2.192   4.584  10.092  0.4470 -0.1703  0.0942
  431MOL0     C58056   2.214   4.718  10.061  0.5247  0.4545  0.3893
  431MOL0     C58057   2.101   4.786  10.005 -0.3559 -0.2579 -0.5026
  431MOL0     O58058   2.117   4.912   9.962 -0.9151 -0.0263  0.5544
  431MOL0     C58059   2.245   4.964   9.927 -0.2000 -0.3120  0.4158
  431MOL0     C58060   2.232   5.090   9.837  0.1589 -0.6642 -0.6594
  431MOL0     C58061   2.178   5.074   9.693  0.0988  1.3633 -0.3087
  431MOL0     C58062   2.136   5.215   9.647 -0.0720 -0.7472 -0.2504
  431MOL0     C58063   2.057   5.215   9.521  0.2132 -1.0268  0.3542
  431MOL0     C58064   1.998   5.353   9.484 -0.6284  0.2517  0.5576
  431MOL0     C58065   2.104   5.462   9.471  0.8217  0.0182 -0.4890
  431MOL0     C58066   2.042   5.592   9.420  0.3186 -0.4302 -0.1751
  431MOL0     N58067   2.152   5.682   9.381 -0.3578  0.1333 -0.5770
  431MOL0     C58068   2.265   5.702   9.454  0.2890  0.7163 -0.8851
  431MOL0     C58069   2.338   5.786   9.375  0.6226  0.1638 -0.1780
  431MOL0     C58070   2.480   5.838   9.397 -0.0332 -0.5772  0.2440
  431MOL0     C58071   2.517   5.836   9.550  0.2927 -0.7517 -0.4663
  431MOL0     C58072   2.436   5.930   9.641  0.5275  0.4746  0.3710
  431MOL0     C58073   2.495   5.946   9.775 -0.6114 -1.5951 -0.7141
  431MOL0     O58074   2.406   6.006   9.871  0.4189 -0.5154 -0.1847
  431MOL0     C58075   2.423   6.139   9.898  0.3929  0.2156 -0.3643
  431MOL0     C58076   2.481   6.191  10.017  0.0218 -0.1311  0.5358
  431MOL0     C58077   2.499   6.322  10.045  0.3953  0.1837  0.1314
  431MOL0     C58078   2.540   6.349  10.185 -0.7939 -0.2732 -0.6893
  431MOL0     C58079   2.454   6.419   9.956  0.2666 -0.4704  0.0282
  431MOL0     C58080   2.460   6.560   9.986  0.3901 -0.0049 -0.3636
  431MOL0     O58081   2.393   6.644   9.904 -0.1314  0.1649 -0.0794
  431MOL0     C58082   2.436   6.772   9.887  1.5416  0.1942  0.7895
  431MOL0     C58083   2.553   6.791   9.806 -1.2221  0.8601  0.4004
  431MOL0     C58084   2.594   6.921   9.784 -0.8834  0.2740 -0.5181
  431MOL0     C58085   2.525   7.033   9.839  0.2874  0.3549  0.3565
  431MOL0     O58086   2.569   7.162   9.824  0.1156 -0.0726 -0.4646
  431MOL0     C58087   2.480   7.251   9.756  0.8678 -1.3921 -0.1290
  431MOL0     C58088   2.552   7.364   9.683  0.1429 -0.3169 -0.0059
  431MOL0     C58089   2.453   7.460   9.616  1.1295 -1.0636 -0.5314
  431MOL0     C58090   2.520   7.505   9.494  0.4037  0.7840  0.1347
  431MOL0     C58091   2.431   7.614   9.431 -0.8898 -0.3917 -0.5226
  431MOL0     C58092   2.299   7.561   9.362 -0.4427 -0.3641 -0.7296
  431MOL0     C58093   2.231   7.666   9.285  0.5148 -0.6369 -0.7698
  431MOL0     C58094   2.099   7.607   9.238  0.3051 -0.1445  0.4335
  431MOL0    Cl58095   1.979   7.592   9.376  0.2416  0.2326 -0.4594
  431MOL0     C58096   2.406   7.012   9.901  0.6679  0.8522 -1.2711
  431MOL0     C58097   2.365   6.876   9.930  0.4831  0.4461  0.1054
  431MOL0     O58098   2.512   6.597  10.089 -0.2813 -0.5364  0.6576
  431MOL0     C58099   2.388   6.376   9.843 -0.5501 -0.2716 -0.2416
  431MOL0     C58100   2.373   6.236   9.810 -0.7218 -0.5039  0.2623
  431MOL0     N58101   2.261   5.827   9.271 -0.7507 -0.1164  0.5061
  431MOL0     N58102   2.151   5.764   9.273  0.4256 -0.4076  0.1288
  431MOL0     C58103   1.973   4.726   9.993 -0.3959  1.2355  0.7941
  431MOL0     C58104   1.954   4.588  10.032  0.1063 -0.5618  0.3875
  431MOL0     C58105   2.034   4.143  10.063 -0.0420 -0.5004 -0.0915
  431MOL0     C58106   2.049   4.037   9.969  0.0333  0.7841 -0.2070
  431MOL0     C58107   2.036   3.905  10.009 -0.8801  0.4867  0.1973
  431MOL0     C58108   2.005   3.873  10.142  1.0287  0.5808 -0.1149
  431MOL0     O58109   1.963   3.748  10.160  0.9375 -0.2448 -0.6791
  431MOL0     C58110   1.873   3.717  10.273  0.1755  0.2430 -0.2033
  431MOL0     C58111   1.824   3.575  10.262  0.0800 -0.1205 -0.2946
  431MOL0     C58112   1.928   3.467  10.264 -0.2186 -0.6075 -0.4286
  431MOL0     C58113   1.864   3.329  10.225 -1.2458 -0.1083 -0.6729
  431MOL0     C58114   1.950   3.217  10.274 -0.2800 -0.2507 -0.1423
  431MOL0     C58115   2.018   3.143  10.333  0.2470 -0.7832 -0.2031
  431MOL0     C58116   2.008   3.978  10.238  0.0240 -0.3033 -0.3092
  431MOL0     C58117   2.017   4.114  10.198 -1.4200  0.4952 -0.3450
  431MOL0     H58118   2.281   4.532  10.124  0.9218  1.0028  0.7069
  431MOL0     H58119   2.313   4.762  10.066  0.8909  0.0158 -2.0267
  431MOL0     H58120   2.300   4.979  10.020  3.4259  0.3730 -1.6593
  431MOL0     H58121   2.299   4.885   9.874 -1.1859 -1.2785  0.8001
  431MOL0     H58122   2.163   5.149   9.899 -0.0610  1.4492 -2.8022
  431MOL0     H58123   2.324   5.149   9.834  0.9108 -1.8374 -0.9441
  431MOL0     H58124   2.246   5.027   9.622 -2.9466 -1.9925 -1.3108
  431MOL0     H58125   2.083   5.021   9.682  1.2236 -0.4526 -1.8439
  431MOL0     H58126   2.071   5.249   9.728  0.2719  1.0781 -0.6983
  431MOL0     H58127   2.220   5.284   9.639 -0.0317 -0.8994 -1.1907
  431MOL0     H58128   2.134   5.183   9.450  1.1355 -2.0925  1.7871
  431MOL0     H58129   1.978   5.144   9.545 -0.5101 -0.7101 -0.9979
  431MOL0     H58130   1.953   5.342   9.385 -0.7499 -1.9496  0.8198
  431MOL0     H58131   1.923   5.401   9.548 -2.6153  0.6114 -1.8815
  431MOL0     H58132   2.144   5.486   9.570  1.2873 -2.4234 -0.0196
  431MOL0     H58133   2.187   5.430   9.408  0.8810  1.2247 -1.0586
  431MOL0     H58134   1.984   5.641   9.498  1.2709  0.8228 -0.2173
  431MOL0     H58135   1.978   5.574   9.333 -0.3563 -0.7732  0.3859
  431MOL0     H58136   2.281   5.668   9.556  3.0311  0.8655 -1.1717
  431MOL0     H58137   2.551   5.772   9.348  1.1993  1.9297 -1.5376
  431MOL0     H58138   2.494   5.937   9.352 -0.7250 -2.2617 -4.1234
  431MOL0     H58139   2.614   5.887   9.551 -0.7989  1.5329 -1.7729
  431MOL0     H58140   2.520   5.734   9.589 -3.2213 -0.0280  2.1709
  431MOL0     H58141   2.334   5.889   9.642  1.1261 -1.0953 -0.1107
  431MOL0     H58142   2.414   6.024   9.589  3.8896 -0.0356 -2.2954
  431MOL0     H58143   2.582   6.012   9.770 -2.1983  1.2285  3.2998
  431MOL0     H58144   2.529   5.850   9.813  0.0750 -1.3593 -0.7232
  431MOL0     H58145   2.496   6.108  10.085 -1.8381 -0.7049  0.3045
  431MOL0     H58146   2.464   6.383  10.256 -1.4021 -0.8156 -1.0632
  431MOL0     H58147   2.588   6.260  10.229  0.7967  0.3522 -1.0820
  431MOL0     H58148   2.620   6.424  10.187 -1.0044 -0.0413 -0.9295
  431MOL0     H58149   2.605   6.706   9.763  3.7759  2.9785  1.4969
  431MOL0     H58150   2.678   6.949   9.722 -1.5378  0.1670 -1.4778
  431MOL0     H58151   2.414   7.204   9.683 -1.1668  1.7929 -0.5409
  431MOL0     H58152   2.419   7.295   9.835  2.1711  0.1481  0.0784
  431MOL0     H58153   2.629   7.416   9.740  0.5568 -1.6685  0.7137
  431MOL0     H58154   2.611   7.305   9.613  4.5553  1.8243  1.4999
  431MOL0     H58155   2.423   7.537   9.688  1.4913 -0.2568 -1.2188
  431MOL0     H58156   2.358   7.415   9.589 -0.1707  0.1397  1.7348
  431MOL0     H58157   2.616   7.552   9.516  1.2514 -1.3281  1.2333
  431MOL0     H58158   2.535   7.426   9.420 -3.0611 -0.3758  0.4976
  431MOL0     H58159   2.485   7.663   9.349  0.7080  2.3371  1.9739
  431MOL0     H58160   2.411   7.694   9.503  2.9138  1.6474 -1.4502
  431MOL0     H58161   2.328   7.470   9.308 -1.2335  0.1352 -2.0247
  431MOL0     H58162   2.237   7.530   9.446 -1.4809  0.0382 -1.3354
  431MOL0     H58163   2.298   7.691   9.202  0.7451 -0.5191 -0.5478
  431MOL0     H58164   2.212   7.746   9.357 -0.7647 -1.8177  0.2366
  431MOL0     H58165   2.113   7.516   9.180  0.7218  0.9600 -1.2806
  431MOL0     H58166   2.054   7.680   9.169  0.3302  0.0731  0.6470
  431MOL0     H58167   2.346   7.094   9.938 -1.0740 -0.1343 -1.8142
  431MOL0     H58168   2.278   6.839   9.982  0.3752 -0.3376 -0.6121
  431MOL0     H58169   2.345   6.438   9.765  2.4330  1.5847 -0.5917
  431MOL0     H58170   2.321   6.205   9.720 -2.4949 -2.0605  1.7302
  431MOL0     H58171   1.888   4.785   9.960 -0.1436  1.5174  0.6530
  431MOL0     H58172   1.856   4.545  10.013 -0.5879  1.0739  0.1122
  431MOL0     H58173   2.059   4.049   9.862  0.8702  1.6983 -0.0374
  431MOL0     H58174   2.040   3.836   9.926  0.1517  2.0743 -1.1153
  431MOL0     H58175   1.924   3.731  10.369 -0.0224 -0.4177  0.0042
  431MOL0     H58176   1.783   3.779  10.263 -1.8887 -2.7459 -1.9235
  431MOL0     H58177   1.775   3.569  10.164 -0.8509 -3.6141  0.2231
  431MOL0     H58178   1.749   3.546  10.336 -0.8218  1.0681 -0.7136
  431MOL0     H58179   1.977   3.479  10.361  0.4599  1.8136 -1.0071
  431MOL0     H58180   1.993   3.484  10.178  0.1480 -1.2082 -0.2741
  431MOL0     H58181   1.869   3.322  10.116  0.4631  3.5885 -0.9884
  431MOL0     H58182   1.760   3.316  10.255 -1.1412 -0.8625 -0.6223
  431MOL0     H58183   2.094   3.090  10.386  1.9510  1.7797  0.0957
  431MOL0     H58184   1.976   3.952  10.338 -3.5636  0.7153 -1.0517
  431MOL0     H58185   2.000   4.193  10.271  1.8950 -0.3088  1.5085
  432MOL0     O58186   5.190   8.875   7.713 -0.3109  0.3254 -0.1889
  432MOL0     C58187   5.090   8.934   7.754  0.6582 -0.5351 -0.0621
  432MOL0     O58188   4.982   8.985   7.673 -0.5119  0.0078 -0.2866
  432MOL0     C58189   5.007   8.978   7.543 -0.1011  0.9276  0.1487
  432MOL0     C58190   4.970   8.871   7.458  0.0913  0.0682  0.1248
  432MOL0     C58191   4.988   8.881   7.326  0.3157  0.0994  0.3650
  432MOL0     C58192   5.040   8.997   7.266  0.5414 -0.5903  0.7062
  432MOL0     O58193   5.063   9.014   7.134  0.1456  0.4251  1.2397
  432MOL0     C58194   5.105   8.898   7.066  0.9543 -0.0215  1.1517
  432MOL0     C58195   5.118   8.946   6.917 -0.2950  0.2940 -0.4210
  432MOL0     C58196   5.183   8.840   6.832  0.5903  0.3369 -0.0665
  432MOL0     C58197   5.328   8.813   6.877  0.5778 -0.8900 -0.1101
  432MOL0     C58198   5.375   8.676   6.813 -0.2067 -0.4003 -0.3500
  432MOL0     C58199   5.502   8.625   6.888  0.2655 -0.5990 -0.0066
  432MOL0     C58200   5.557   8.490   6.824 -0.1316  0.3853 -0.0647
  432MOL0     C58201   5.475   8.374   6.893  0.0739 -0.0208 -0.5136
  432MOL0     N58202   5.539   8.334   7.019  0.1869  0.6238  0.2896
  432MOL0     C58203   5.478   8.341   7.146 -0.2622 -0.2097 -0.8393
  432MOL0     C58204   5.578   8.296   7.223  1.4048 -0.8538  0.0077
  432MOL0     C58205   5.560   8.288   7.379  0.6838 -0.1851  0.2448
  432MOL0     C58206   5.653   8.185   7.458  0.5465 -0.0389  0.6029
  432MOL0     C58207   5.635   8.208   7.612 -0.0837  1.0169  0.5463
  432MOL0     C58208   5.766   8.169   7.685 -0.0096 -0.5196  0.6080
  432MOL0     O58209   5.874   8.258   7.647  0.5007  0.5979  0.1168
  432MOL0     C58210   6.000   8.216   7.671  0.5242 -1.1990  0.4478
  432MOL0     C58211   6.042   8.112   7.754  0.5614  0.3067  1.3757
  432MOL0     C58212   6.178   8.078   7.776  0.1455 -0.0099 -0.1529
  432MOL0     C58213   6.206   7.969   7.871 -0.4965 -0.0130 -0.0650
  432MOL0     C58214   6.276   8.164   7.720  0.4315  0.5565  0.7915
  432MOL0     C58215   6.429   8.156   7.739  0.4166  0.0499  0.2751
  432MOL0     O58216   6.508   8.267   7.720  1.0097  0.3075 -0.4577
  432MOL0     C58217   6.642   8.259   7.743 -0.9472  0.6281 -0.8617
  432MOL0     C58218   6.726   8.334   7.662  0.7037 -0.4860 -0.4898
  432MOL0     C58219   6.860   8.321   7.660  0.4295 -0.2107  0.3071
  432MOL0     C58220   6.923   8.232   7.747  0.8304 -0.3665  0.1533
  432MOL0     O58221   7.062   8.221   7.770  0.6765 -0.3498 -0.7917
  432MOL0     C58222   7.165   8.263   7.677 -0.0964 -1.4676 -0.2519
  432MOL0     C58223   7.288   8.204   7.726  0.4065  0.0082 -0.0453
  432MOL0     C58224   7.402   8.213   7.612 -0.1472 -0.0937 -0.3953
  432MOL0     C58225   7.543   8.189   7.675  0.4073 -0.2353 -0.2453
  432MOL0     C58226   7.650   8.202   7.574 -0.7788  0.3344  0.0949
  432MOL0     C58227   7.788   8.158   7.625 -0.7739 -1.2207  0.0104
  432MOL0     C58228   7.894   8.188   7.520  0.2095  0.4465 -0.1461
  432MOL0     C58229   8.035   8.156   7.582 -0.9900 -0.1894  0.3630
  432MOL0    Cl58230   8.037   7.995   7.651 -0.5808 -0.0109 -0.5032
  432MOL0     C58231   6.845   8.163   7.836  0.7544 -0.8228 -1.0735
  432MOL0     C58232   6.705   8.173   7.836  0.0069  0.3245  0.8628
  432MOL0     O58233   6.470   8.043   7.765  0.7829  0.3890 -0.3400
  432MOL0     C58234   6.229   8.273   7.645 -0.9699 -0.0369  0.2502
  432MOL0     C58235   6.096   8.302   7.621 -0.7925 -0.3969 -0.2315
  432MOL0     N58236   5.689   8.260   7.146  0.2720 -0.0478  0.0350
  432MOL0     N58237   5.664   8.288   7.023  0.3506  0.8894  0.2808
  432MOL0     C58238   5.076   9.104   7.347  0.7326 -0.0528 -0.2427
  432MOL0     C58239   5.054   9.099   7.487  0.2360 -0.1232  0.9742
  432MOL0     C58240   5.072   8.938   7.901  0.4436  0.3188 -0.2526
  432MOL0     C58241   5.177   8.926   7.993  0.2615 -0.5478 -1.3262
  432MOL0     C58242   5.144   8.925   8.133 -0.1824  0.5852 -0.3741
  432MOL0     C58243   5.015   8.933   8.176  0.0838  0.0867  0.9228
  432MOL0     O58244   4.982   8.937   8.310 -0.4945 -0.7603  0.8175
  432MOL0     C58245   5.047   8.850   8.401  0.4236 -0.8803 -0.8653
  432MOL0     C58246   4.982   8.712   8.409  0.2480 -0.0958 -0.3424
  432MOL0     C58247   5.031   8.623   8.290 -0.1858  1.0770 -0.3596
  432MOL0     C58248   4.984   8.485   8.303  0.1449  1.0816 -0.2526
  432MOL0     C58249   5.031   8.428   8.436 -0.4032 -0.4229 -0.0312
  432MOL0     C58250   5.084   8.378   8.532  0.1453  0.0312  0.2662
  432MOL0     C58251   4.908   8.946   8.084  0.4184 -0.9375 -0.8272
  432MOL0     C58252   4.936   8.964   7.950  0.5546 -0.7148  0.3772
  432MOL0     H58253   4.924   8.786   7.508 -3.6551  2.4014  1.1047
  432MOL0     H58254   4.961   8.799   7.259 -3.6203  1.2339  0.3584
  432MOL0     H58255   5.197   8.863   7.114  1.0411  1.7151  2.3017
  432MOL0     H58256   5.019   8.829   7.062 -1.9995  3.4211 -1.2334
  432MOL0     H58257   5.019   8.966   6.874  0.7847 -0.1933 -3.3888
  432MOL0     H58258   5.175   9.040   6.921  1.1021 -0.5180 -0.7214
  432MOL0     H58259   5.122   8.750   6.822  1.3506 -0.0146 -2.0255
  432MOL0     H58260   5.184   8.882   6.731  0.8381  0.4288 -0.0253
  432MOL0     H58261   5.382   8.891   6.822 -1.3094  1.2962  0.9751
  432MOL0     H58262   5.348   8.834   6.982  0.5808  1.1942 -0.4814
  432MOL0     H58263   5.300   8.598   6.830 -1.0386  0.6598  0.9984
  432MOL0     H58264   5.397   8.694   6.707 -3.4793  0.6716 -0.9722
  432MOL0     H58265   5.580   8.700   6.873 -1.2879  1.1167  0.2034
  432MOL0     H58266   5.476   8.619   6.994  1.0081  3.4468  0.5774
  432MOL0     H58267   5.537   8.486   6.717 -2.7067  0.6223  0.3618
  432MOL0     H58268   5.664   8.472   6.839 -0.6565 -0.4615  3.5705
  432MOL0     H58269   5.472   8.276   6.843 -2.0616  0.2891 -1.0756
  432MOL0     H58270   5.371   8.407   6.898  0.8197  2.2566  1.7398
  432MOL0     H58271   5.386   8.387   7.181  1.2733  2.7091 -0.3150
  432MOL0     H58272   5.599   8.386   7.406 -0.6331  0.1926  0.8267
  432MOL0     H58273   5.456   8.275   7.408  1.1447 -1.4903  1.4267
  432MOL0     H58274   5.755   8.207   7.426  1.7520 -4.9287  0.1799
  432MOL0     H58275   5.644   8.078   7.435  0.2288  0.2725 -0.7760
  432MOL0     H58276   5.556   8.151   7.660  1.3703  1.6387  3.9773
  432MOL0     H58277   5.614   8.311   7.642  2.4169  1.8885 -0.4006
  432MOL0     H58278   5.786   8.067   7.650 -2.8133 -1.4588  1.4311
  432MOL0     H58279   5.753   8.159   7.793  3.1687  2.8148  1.4756
  432MOL0     H58280   5.964   8.046   7.790  1.4059 -0.8133  1.1951
  432MOL0     H58281   6.122   7.941   7.936  0.5951  0.2258  1.5147
  432MOL0     H58282   6.227   7.889   7.800  4.0271  2.0426 -1.3733
  432MOL0     H58283   6.300   7.974   7.926 -0.8838 -4.5621  1.4418
  432MOL0     H58284   6.680   8.397   7.587  2.8981  1.5830 -0.2258
  432MOL0     H58285   6.913   8.398   7.605 -2.9186  1.6386 -0.6116
  432MOL0     H58286   7.141   8.241   7.573 -0.0004  0.2334 -0.6730
  432MOL0     H58287   7.174   8.372   7.688  0.1139 -1.5912  0.9718
  432MOL0     H58288   7.329   8.248   7.818  0.8284 -2.0208  0.8063
  432MOL0     H58289   7.285   8.095   7.740 -0.2499 -0.0775 -0.8235
  432MOL0     H58290   7.396   8.312   7.566  0.1616  1.5589  2.8593
  432MOL0     H58291   7.376   8.132   7.543 -1.8658 -0.9284  1.1530
  432MOL0     H58292   7.555   8.272   7.745 -1.2586  0.3850 -0.6485
  432MOL0     H58293   7.546   8.095   7.732  0.0992  1.9110  3.6559
  432MOL0     H58294   7.649   8.305   7.539  1.5054  1.1794  2.2284
  432MOL0     H58295   7.622   8.128   7.497  0.3811  0.2122 -0.2379
  432MOL0     H58296   7.809   8.201   7.724  2.3187 -2.4166  0.0074
  432MOL0     H58297   7.783   8.050   7.642  0.8360 -1.1283  1.3484
  432MOL0     H58298   7.904   8.294   7.494  2.2164  1.0747  2.6325
  432MOL0     H58299   7.885   8.130   7.428  0.4583  2.3362 -1.4108
  432MOL0     H58300   8.059   8.231   7.658  0.1814  1.3477 -1.4056
  432MOL0     H58301   8.121   8.156   7.514 -0.1125  0.3966  1.4363
  432MOL0     H58302   6.894   8.091   7.902 -2.6086 -0.4867  2.1287
  432MOL0     H58303   6.642   8.110   7.898 -1.0031  0.6038  0.1540
  432MOL0     H58304   6.298   8.348   7.609  1.5826 -0.9264  2.8803
  432MOL0     H58305   6.065   8.385   7.558  1.5321  1.6429  1.1257
  432MOL0     H58306   5.113   9.198   7.307  1.1684  0.5076  1.3825
  432MOL0     H58307   5.077   9.185   7.548 -3.4599  1.4912  0.3344
  432MOL0     H58308   5.275   8.919   7.948  0.8893  1.0861 -0.3205
  432MOL0     H58309   5.228   8.914   8.201 -0.1104  0.9236 -0.4052
  432MOL0     H58310   5.157   8.844   8.400  0.3787 -1.8574 -0.8128
  432MOL0     H58311   5.009   8.894   8.493  1.7953 -0.4213 -0.4810
  432MOL0     H58312   4.878   8.737   8.386 -0.1544 -1.1140  0.3065
  432MOL0     H58313   4.985   8.661   8.506  1.9243  0.0307 -0.2999
  432MOL0     H58314   5.139   8.611   8.281 -0.3998 -2.8790  0.6967
  432MOL0     H58315   4.988   8.667   8.199  0.5330 -1.7119 -2.1946
  432MOL0     H58316   5.031   8.430   8.222  1.2562  1.2926  0.2289
  432MOL0     H58317   4.875   8.476   8.295 -0.0147 -0.1928  2.3119
  432MOL0     H58318   5.119   8.335   8.624  0.1387 -2.8890 -0.9745
  432MOL0     H58319   4.805   8.966   8.111  1.2348  0.7561  1.3556
  432MOL0     H58320   4.863   8.988   7.874  0.5005 -0.0394  0.6379
  433MOL0     O58321  10.071   5.363   1.004  0.3340 -0.5083 -0.2355
  433MOL0     C58322  10.156   5.360   1.098  0.4683  0.4193  0.0317
  433MOL0     O58323  10.130   5.381   1.234  0.0193  0.0952  0.4338
  433MOL0     C58324  10.003   5.430   1.262 -0.2735  1.2337 -0.8835
  433MOL0     C58325   9.874   5.358   1.240 -0.0727 -0.9885 -0.0825
  433MOL0     C58326   9.750   5.418   1.294 -0.1674 -0.1903  0.1585
  433MOL0     C58327   9.756   5.539   1.368 -0.6024  0.2932  0.7893
  433MOL0     O58328   9.649   5.604   1.422  0.4245  0.6478 -0.1744
  433MOL0     C58329   9.530   5.519   1.442  0.5012  0.4821  0.1699
  433MOL0     C58330   9.537   5.423   1.556  0.3948 -0.2726 -0.2663
  433MOL0     C58331   9.418   5.332   1.583  0.1729 -0.1585 -0.0789
  433MOL0     C58332   9.360   5.274   1.451  0.4113  0.4819 -0.3787
  433MOL0     C58333   9.236   5.188   1.479 -0.1797 -0.8145 -0.8647
  433MOL0     C58334   9.189   5.121   1.358 -0.4183 -0.4730  0.5953
  433MOL0     C58335   9.058   5.054   1.391  0.8132  0.4273  0.5509
  433MOL0     C58336   9.003   4.981   1.273  0.2595  0.3393 -0.1743
  433MOL0     N58337   9.070   4.853   1.249  0.2641  0.4234  0.0874
  433MOL0     C58338   9.189   4.813   1.183 -0.6062 -1.6467  0.3460
  433MOL0     C58339   9.203   4.684   1.211  0.1068 -0.0514  0.3841
  433MOL0     C58340   9.306   4.597   1.156  0.4559  0.8291  0.3961
  433MOL0     C58341   9.287   4.558   1.012 -0.0298 -0.1968 -0.2855
  433MOL0     C58342   9.189   4.445   1.002 -0.3722  0.4078  0.1413
  433MOL0     C58343   9.261   4.312   1.034 -0.0228  0.3702 -0.1436
  433MOL0     O58344   9.373   4.271   0.950  0.4106 -0.3839 -0.8620
  433MOL0     C58345   9.442   4.164   0.986  0.3728  0.2598  0.0523
  433MOL0     C58346   9.508   4.092   0.886 -0.2895 -0.2216  1.8984
  433MOL0     C58347   9.588   3.979   0.903  0.0805 -0.2656 -0.9276
  433MOL0     C58348   9.649   3.919   0.783  1.0385 -0.4930 -0.4010
  433MOL0     C58349   9.604   3.935   1.033 -0.3256  0.4108  0.7706
  433MOL0     C58350   9.696   3.824   1.063  0.3648 -0.0595  0.0391
  433MOL0     O58351   9.636   3.706   1.116 -0.4933  0.5579 -0.0417
  433MOL0     C58352   9.499   3.702   1.125 -0.0628 -0.6161 -0.2112
  433MOL0     C58353   9.418   3.761   1.222  0.8225 -1.3695 -0.1660
  433MOL0     C58354   9.283   3.777   1.209  0.0784  0.0786  0.1352
  433MOL0     C58355   9.210   3.709   1.104  0.5610 -0.5075  0.7751
  433MOL0     O58356   9.078   3.728   1.105  0.7658 -0.5094 -0.3941
  433MOL0     C58357   9.015   3.728   0.977 -0.1194 -0.2238 -0.3811
  433MOL0     C58358   9.040   3.863   0.903  0.8953  0.7325 -0.8198
  433MOL0     C58359   8.951   3.859   0.778 -0.2350 -0.0592 -0.2120
  433MOL0     C58360   8.962   3.982   0.691 -0.4792  0.1623  0.0111
  433MOL0     C58361   9.098   4.004   0.618  0.3642 -0.1657  0.3132
  433MOL0     C58362   9.113   4.143   0.548 -0.2164  0.6683  0.1501
  433MOL0     C58363   9.160   4.248   0.649 -0.4668  0.0304  0.0563
  433MOL0     C58364   9.194   4.378   0.571  0.0599  0.1110  0.4338
  433MOL0    Cl58365   9.056   4.441   0.479 -0.4136 -0.5544 -0.3288
  433MOL0     C58366   9.287   3.642   1.006  0.3030 -0.1265 -1.6489
  433MOL0     C58367   9.424   3.649   1.017 -0.7300  0.9783 -0.4242
  433MOL0     O58368   9.817   3.845   1.048  1.1661 -0.2722 -0.6330
  433MOL0     C58369   9.542   4.003   1.139 -0.2273  0.6964 -0.1717
  433MOL0     C58370   9.465   4.119   1.116  0.0513 -0.4563  1.1437
  433MOL0     N58371   9.095   4.643   1.292 -0.8730 -0.2886  0.2582
  433MOL0     N58372   9.012   4.741   1.301  0.8140  0.0041 -0.0357
  433MOL0     C58373   9.876   5.604   1.387 -0.0881 -0.9798  1.0057
  433MOL0     C58374   9.999   5.551   1.329  0.2537 -1.2640 -0.4734
  433MOL0     C58375  10.294   5.327   1.064  0.0921  0.1219  0.1331
  433MOL0     C58376  10.387   5.264   1.154  0.2936 -0.1349  0.0718
  433MOL0     C58377  10.514   5.239   1.122 -0.0201  0.0043  0.5623
  433MOL0     C58378  10.571   5.271   0.998  0.4115 -0.8417 -0.3069
  433MOL0     O58379  10.697   5.236   0.960  0.3222  0.1132  0.3149
  433MOL0     C58380  10.719   5.169   0.837 -0.0555  0.1268 -0.1992
  433MOL0     C58381  10.709   5.016   0.861 -0.0091  0.5634  0.4550
  433MOL0     C58382  10.835   4.964   0.937 -0.2178  1.1895 -0.0821
  433MOL0     C58383  10.952   4.945   0.835 -0.5590  0.2340  0.4656
  433MOL0     C58384  11.050   4.863   0.900 -0.1039  0.0901  0.5790
  433MOL0     C58385  11.141   4.786   0.948 -0.0909 -0.5625  0.2793
  433MOL0     C58386  10.483   5.335   0.898  0.0752  0.7797 -0.4168
  433MOL0     C58387  10.350   5.355   0.932  0.3109 -0.3103  0.5663
  433MOL0     H58388   9.874   5.274   1.172 -0.7210 -1.4646  0.4831
  433MOL0     H58389   9.660   5.362   1.273 -0.4888 -0.8562  2.9070
  433MOL0     H58390   9.452   5.593   1.461 -0.0391  0.5306 -1.9785
  433MOL0     H58391   9.497   5.478   1.346  3.2014 -1.3295 -0.0958
  433MOL0     H58392   9.635   5.374   1.549  0.9587  0.2422  2.6827
  433MOL0     H58393   9.562   5.485   1.643 -0.4732 -0.4794  0.1420
  433MOL0     H58394   9.458   5.251   1.644  0.9571  2.0608  2.5317
  433MOL0     H58395   9.334   5.377   1.636 -2.2067 -0.8982 -2.9571
  433MOL0     H58396   9.323   5.348   1.380 -0.1647  0.0286 -0.5569
  433MOL0     H58397   9.431   5.204   1.407  1.0434 -0.9350  2.6279
  433MOL0     H58398   9.260   5.102   1.542  0.3945 -2.5505 -3.2915
  433MOL0     H58399   9.158   5.247   1.527 -0.9088 -1.8072 -0.7798
  433MOL0     H58400   9.170   5.191   1.276  2.0629  1.0260  1.2125
  433MOL0     H58401   9.261   5.041   1.337  1.0134  0.1915  2.6788
  433MOL0     H58402   9.063   4.980   1.472  0.0959  0.4568  0.6329
  433MOL0     H58403   8.988   5.135   1.413  2.9871  2.1056  1.5532
  433MOL0     H58404   9.007   5.035   1.178 -2.1380 -1.2495 -1.2903
  433MOL0     H58405   8.898   4.978   1.304  1.1746  0.1811  3.2852
  433MOL0     H58406   9.257   4.884   1.137  0.3451 -0.0716  3.8487
  433MOL0     H58407   9.410   4.631   1.161  1.4209 -1.5570 -1.3559
  433MOL0     H58408   9.293   4.504   1.212  0.8429 -1.0586 -2.4380
  433MOL0     H58409   9.381   4.523   0.969 -0.2969 -0.5551 -0.5780
  433MOL0     H58410   9.247   4.640   0.951 -0.0382  0.2402  0.3000
  433MOL0     H58411   9.165   4.423   0.897  0.4355 -1.9340  0.3885
  433MOL0     H58412   9.096   4.469   1.054 -1.6238 -1.3539 -1.1171
  433MOL0     H58413   9.184   4.235   1.022 -0.1093  0.6509 -1.6078
  433MOL0     H58414   9.282   4.308   1.141 -0.6242 -0.6847 -0.0473
  433MOL0     H58415   9.481   4.118   0.784 -1.0844  0.6020  2.3020
  433MOL0     H58416   9.722   3.987   0.738  0.6433 -0.6657 -1.3161
  433MOL0     H58417   9.688   3.817   0.787  4.0286  0.4625 -2.1090
  433MOL0     H58418   9.569   3.904   0.710 -0.1513  1.5587  0.3922
  433MOL0     H58419   9.459   3.809   1.311 -1.7373 -1.9215  1.3984
  433MOL0     H58420   9.235   3.844   1.281 -2.3104 -2.0240  0.6451
  433MOL0     H58421   9.039   3.636   0.923  3.5962 -0.4822  1.4197
  433MOL0     H58422   8.913   3.716   1.016  0.9203 -2.1306  2.0655
  433MOL0     H58423   9.005   3.946   0.964  0.5784 -1.8266  2.8078
  433MOL0     H58424   9.145   3.873   0.874  0.5602  1.2142 -1.9446
  433MOL0     H58425   8.846   3.847   0.806 -0.1108 -1.5314 -0.3070
  433MOL0     H58426   8.987   3.775   0.718 -0.5293 -0.7486  0.5628
  433MOL0     H58427   8.883   3.998   0.618 -3.4009 -0.2423  2.8549
  433MOL0     H58428   8.942   4.068   0.755 -0.6861 -0.5640  0.9479
  433MOL0     H58429   9.107   3.923   0.545 -3.7554 -0.8212  0.2551
  433MOL0     H58430   9.183   3.990   0.685  1.6274 -2.7981 -1.6548
  433MOL0     H58431   9.187   4.125   0.470 -0.4796 -0.0581  0.0594
  433MOL0     H58432   9.020   4.170   0.497 -1.1278 -2.9297 -0.3421
  433MOL0     H58433   9.251   4.214   0.699 -1.3163  1.9752  3.1994
  433MOL0     H58434   9.076   4.271   0.715 -2.3214  0.2194 -2.2318
  433MOL0     H58435   9.274   4.350   0.501  0.8831  0.1210  1.3437
  433MOL0     H58436   9.242   4.443   0.645 -0.5951 -2.5310  3.3797
  433MOL0     H58437   9.250   3.616   0.907 -0.7173  1.6791 -1.7936
  433MOL0     H58438   9.490   3.628   0.933 -0.1980 -0.7038  0.3574
  433MOL0     H58439   9.566   3.984   1.243  2.9608  3.0675 -0.3131
  433MOL0     H58440   9.437   4.177   1.203 -1.4529 -1.6315  1.4761
  433MOL0     H58441   9.886   5.707   1.419  3.8372 -1.9373  3.6275
  433MOL0     H58442  10.088   5.612   1.342 -1.8620  1.6852  1.1841
  433MOL0     H58443  10.345   5.256   1.254  1.0791  5.9581  1.2694
  433MOL0     H58444  10.580   5.188   1.192 -1.6045 -1.6100  0.9609
  433MOL0     H58445  10.650   5.202   0.758 -1.4328 -1.5309  0.2649
  433MOL0     H58446  10.820   5.199   0.805  1.6908 -1.9326  2.8730
  433MOL0     H58447  10.692   4.970   0.763 -1.5027 -0.4000  1.1436
  433MOL0     H58448  10.621   4.994   0.922 -0.1655 -3.8710 -0.9627
  433MOL0     H58449  10.801   4.866   0.972 -0.1563  1.7489  1.6286
  433MOL0     H58450  10.846   5.025   1.027  0.9276 -1.1832  1.4829
  433MOL0     H58451  10.989   5.035   0.786 -1.0864 -0.2538 -0.8645
  433MOL0     H58452  10.914   4.882   0.754 -1.1565  1.4810 -0.2456
  433MOL0     H58453  11.224   4.720   0.961 -1.5319 -2.7028 -0.8051
  433MOL0     H58454  10.522   5.364   0.800  5.8944 -1.1968  0.9231
  433MOL0     H58455  10.292   5.395   0.849  0.5717 -1.1589 -0.0435
  434MOL0     O58456   9.397  10.480   0.635  0.2603 -0.0665  0.2967
  434MOL0     C58457   9.385  10.567   0.544 -1.4529  0.3172 -0.5376
  434MOL0     O58458   9.315  10.543   0.425  0.2931 -0.1738 -0.4378
  434MOL0     C58459   9.253  10.425   0.421  0.0786  0.3631  0.1396
  434MOL0     C58460   9.127  10.400   0.468  0.3673  0.9039 -0.2262
  434MOL0     C58461   9.060  10.276   0.460 -0.3505  0.2312  0.3706
  434MOL0     C58462   9.118  10.175   0.381  0.0587  0.4763  0.0697
  434MOL0     O58463   9.070  10.042   0.367  0.1164  0.0551  0.5035
  434MOL0     C58464   8.982   9.990   0.467 -0.8833 -0.5555  0.6453
  434MOL0     C58465   8.909   9.861   0.419 -0.2392 -0.2052 -0.7233
  434MOL0     C58466   8.783   9.884   0.348  0.6028 -1.5765 -0.3710
  434MOL0     C58467   8.679   9.956   0.431  0.5097  0.4474  0.6554
  434MOL0     C58468   8.602  10.058   0.345 -0.0688  0.1766  1.5585
  434MOL0     C58469   8.472  10.089   0.408  0.0944  0.4705 -0.1970
  434MOL0     C58470   8.358   9.984   0.407 -0.5044  0.1947 -0.8324
  434MOL0     C58471   8.250   9.998   0.509  0.5139 -0.0569 -0.9440
  434MOL0     N58472   8.283  10.011   0.655  0.1666 -0.2768  0.0695
  434MOL0     C58473   8.388   9.949   0.719 -0.1598  0.0185  0.5018
  434MOL0     C58474   8.383   9.976   0.849 -0.6895 -0.2083  0.0353
  434MOL0     C58475   8.489   9.914   0.941 -1.1700 -0.1505  0.1239
  434MOL0     C58476   8.627   9.972   0.941 -0.0016  0.2323 -0.7603
  434MOL0     C58477   8.729   9.852   0.961  0.1403 -0.2503 -0.6359
  434MOL0     C58478   8.875   9.892   0.920 -0.5260  0.8518  1.3027
  434MOL0     O58479   8.914  10.005   0.993  0.0147 -0.0394 -0.6455
  434MOL0     C58480   9.043  10.036   0.984  0.1688 -0.6344  0.1453
  434MOL0     C58481   9.131   9.996   0.886  0.4193 -0.3264 -0.3475
  434MOL0     C58482   9.262  10.032   0.867  0.3581  0.2167  0.2951
  434MOL0     C58483   9.333   9.996   0.732  0.8005 -0.3375  0.2133
  434MOL0     C58484   9.311  10.122   0.967  0.0878 -1.1233  0.1057
  434MOL0     C58485   9.448  10.174   0.962 -0.2900  0.5397 -0.3240
  434MOL0     O58486   9.474  10.270   1.057 -0.0169  0.0518 -0.5681
  434MOL0     C58487   9.595  10.320   1.056  0.3375 -0.2626 -0.1026
  434MOL0     C58488   9.627  10.406   0.949 -0.3074  0.3303  0.2853
  434MOL0     C58489   9.751  10.465   0.936 -0.0973 -0.2677  0.0908
  434MOL0     C58490   9.846  10.457   1.028 -0.5318 -0.0416 -0.0509
  434MOL0     O58491   9.969  10.520   1.005  0.0140 -0.0378  0.4911
  434MOL0     C58492  10.082  10.499   1.089 -0.1645  0.2527 -0.7764
  434MOL0     C58493  10.196  10.563   1.015 -0.4473 -0.7332 -0.6172
  434MOL0     C58494  10.210  10.506   0.870 -0.8711 -0.7388 -0.3942
  434MOL0     C58495  10.354  10.525   0.821 -1.2608 -0.6484  0.3015
  434MOL0     C58496  10.379  10.643   0.727 -0.0019  0.5304 -0.6292
  434MOL0     C58497  10.525  10.640   0.675 -1.4006  0.2765  0.4992
  434MOL0     C58498  10.577  10.774   0.619  0.4933 -0.9151  0.4344
  434MOL0     C58499  10.723  10.759   0.586  0.3673 -0.2729 -0.4843
  434MOL0    Cl58500  10.783  10.919   0.556 -0.0588  0.0995 -0.1541
  434MOL0     C58501   9.818  10.376   1.140 -0.1349 -0.1611  0.0856
  434MOL0     C58502   9.696  10.300   1.148  0.4428 -0.1797 -0.9988
  434MOL0     O58503   9.528  10.137   0.877  0.0634  0.3458 -0.4671
  434MOL0     C58504   9.222  10.159   1.070  0.6437 -0.2386  0.7425
  434MOL0     C58505   9.090  10.123   1.080 -0.5168  0.4026 -0.1290
  434MOL0     N58506   8.265  10.045   0.869 -0.0584 -0.6686 -0.0749
  434MOL0     N58507   8.211  10.075   0.753  0.7118  0.1235 -0.2544
  434MOL0     C58508   9.244  10.208   0.327 -0.1814  0.7911  0.0726
  434MOL0     C58509   9.312  10.328   0.339  0.3327 -0.6235  0.3781
  434MOL0     C58510   9.441  10.698   0.567 -0.8116 -0.3760  0.1559
  434MOL0     C58511   9.568  10.704   0.632  0.3180 -0.3951  0.5414
  434MOL0     C58512   9.638  10.823   0.641 -0.4180 -0.7558  0.6013
  434MOL0     C58513   9.579  10.937   0.600  1.5714  0.2420 -0.4550
  434MOL0     O58514   9.639  11.063   0.606  0.3962  0.1998  0.1549
  434MOL0     C58515   9.738  11.091   0.500  0.0970  0.1827  0.5786
  434MOL0     C58516   9.749  11.239   0.463  0.5241  0.6071 -0.0747
  434MOL0     C58517   9.647  11.275   0.359 -0.1506 -0.7474 -0.1667
  434MOL0     C58518   9.663  11.420   0.302 -0.5102 -0.0764  0.5199
  434MOL0     C58519   9.611  11.423   0.164 -0.7961 -0.8082 -0.1352
  434MOL0     C58520   9.560  11.438   0.054  0.3585 -0.9915 -0.6345
  434MOL0     C58521   9.448  10.942   0.563  0.2769 -0.2242  0.1561
  434MOL0     C58522   9.379  10.823   0.551  0.2368  0.4341  0.7073
  434MOL0     H58523   9.069  10.470   0.527 -3.2244  0.6281 -3.0810
  434MOL0     H58524   8.959  10.271   0.498 -1.7791  0.2344 -3.0297
  434MOL0     H58525   9.039   9.968   0.558  0.7324 -1.3090 -0.4988
  434MOL0     H58526   8.914  10.074   0.485  0.1565  0.2652  0.8893
  434MOL0     H58527   8.976   9.798   0.360 -0.7724 -2.5721  1.0478
  434MOL0     H58528   8.888   9.800   0.507  0.1206  2.9463  1.7104
  434MOL0     H58529   8.815   9.948   0.266 -1.0951  0.2482  0.2943
  434MOL0     H58530   8.735   9.798   0.302 -3.2118 -1.2178  2.4304
  434MOL0     H58531   8.607   9.882   0.468  1.2946 -1.3159 -1.1990
  434MOL0     H58532   8.718  10.013   0.516  0.7915  2.2296 -0.6045
  434MOL0     H58533   8.652  10.151   0.317 -2.4329  0.9457 -0.4174
  434MOL0     H58534   8.573  10.016   0.248  0.0167  1.0296  1.1546
  434MOL0     H58535   8.495  10.110   0.512 -1.9843 -2.2303  0.9348
  434MOL0     H58536   8.432  10.175   0.353 -0.2215  0.0442 -0.6438
  434MOL0     H58537   8.319   9.987   0.305  0.0279 -0.3571 -1.0579
  434MOL0     H58538   8.398   9.883   0.401  0.0588  0.3157  0.5211
  434MOL0     H58539   8.185   9.910   0.500  0.4511 -0.1600  0.3999
  434MOL0     H58540   8.194  10.087   0.479 -0.6313  0.3004  1.9363
  434MOL0     H58541   8.459   9.882   0.670  0.2816  0.5612  0.3919
  434MOL0     H58542   8.459   9.892   1.044  2.3291  2.4509  1.9020
  434MOL0     H58543   8.504   9.816   0.895 -2.6862 -0.3620  0.0065
  434MOL0     H58544   8.647  10.055   1.009  4.5872 -0.3388 -1.0385
  434MOL0     H58545   8.658  10.015   0.844  0.5010 -0.2582 -0.8221
  434MOL0     H58546   8.698   9.761   0.910 -0.9609  0.4822 -1.3322
  434MOL0     H58547   8.728   9.835   1.070 -0.7436 -0.2589 -0.6349
  434MOL0     H58548   8.875   9.922   0.814 -0.9042 -0.3914  0.9363
  434MOL0     H58549   8.940   9.805   0.930 -1.2263 -0.0648 -1.3160
  434MOL0     H58550   9.087   9.920   0.823  0.9393 -0.4806 -0.5320
  434MOL0     H58551   9.395   9.906   0.743  0.7549 -0.1558  2.3082
  434MOL0     H58552   9.247   9.972   0.669 -1.5457  0.6944  2.8151
  434MOL0     H58553   9.386  10.077   0.681 -1.4222  0.5825 -0.7410
  434MOL0     H58554   9.557  10.451   0.880  0.7091  1.9564  0.2659
  434MOL0     H58555   9.783  10.534   0.859  1.3379 -0.0915  0.8116
  434MOL0     H58556  10.077  10.534   1.192  0.1857 -2.7777  0.3870
  434MOL0     H58557  10.098  10.391   1.097 -0.7645  0.1582 -0.8297
  434MOL0     H58558  10.162  10.667   1.013  0.6151 -0.3832 -2.1114
  434MOL0     H58559  10.286  10.554   1.077 -0.5392 -0.8725 -0.5047
  434MOL0     H58560  10.149  10.565   0.801 -0.3821 -0.5979 -0.7146
  434MOL0     H58561  10.199  10.398   0.882  0.8226 -0.6744  2.7211
  434MOL0     H58562  10.423  10.529   0.906  0.4013  3.5651 -1.0011
  434MOL0     H58563  10.390  10.431   0.778  0.5009 -1.7965  3.8251
  434MOL0     H58564  10.362  10.734   0.786 -4.4742 -0.4993  0.0422
  434MOL0     H58565  10.309  10.655   0.643  1.2463  2.8671 -1.4278
  434MOL0     H58566  10.580  10.603   0.761  1.9088 -3.2536 -2.7536
  434MOL0     H58567  10.523  10.557   0.604  0.7192 -3.5126  4.4595
  434MOL0     H58568  10.564  10.861   0.685  1.2649  0.9335 -1.7368
  434MOL0     H58569  10.519  10.797   0.529 -0.3532  1.1078  1.4377
  434MOL0     H58570  10.727  10.687   0.504 -2.2805 -1.7087  0.5120
  434MOL0     H58571  10.780  10.703   0.662  1.2773 -0.6385 -1.4134
  434MOL0     H58572   9.897  10.355   1.212  0.1582  2.7706  0.7338
  434MOL0     H58573   9.680  10.225   1.225 -1.8396 -0.9599 -2.1391
  434MOL0     H58574   9.246  10.237   1.142  1.9476  0.2407 -0.1660
  434MOL0     H58575   9.020  10.156   1.156  0.1108 -0.0654  0.6639
  434MOL0     H58576   9.299  10.131   0.276  0.7026 -1.2680  3.7736
  434MOL0     H58577   9.404  10.354   0.288 -1.5494  2.6756 -1.7525
  434MOL0     H58578   9.614  10.614   0.671  0.1307 -0.8838 -0.3432
  434MOL0     H58579   9.733  10.834   0.694 -1.2734  0.8189  1.9159
  434MOL0     H58580   9.839  11.051   0.515 -1.3382 -3.4920  1.4848
  434MOL0     H58581   9.705  11.033   0.414  1.2244 -0.1254  0.3276
  434MOL0     H58582   9.846  11.270   0.423  0.5959  1.4554  0.7263
  434MOL0     H58583   9.732  11.290   0.558  0.3859 -2.1059  1.4455
  434MOL0     H58584   9.554  11.247   0.409  0.1176 -4.5681 -1.5001
  434MOL0     H58585   9.670  11.213   0.273  2.5046 -0.2528  0.0940
  434MOL0     H58586   9.770  11.442   0.298 -0.1624 -1.7135  0.1323
  434MOL0     H58587   9.604  11.488   0.364 -2.8442  0.6147 -2.2622
  434MOL0     H58588   9.526  11.446  -0.048 -0.7777 -0.2126 -0.2125
  434MOL0     H58589   9.406  11.041   0.554 -1.0850 -0.6621  1.2513
  434MOL0     H58590   9.279  10.829   0.510  0.4642  2.3954  0.3538
  435MOL0     O58591   5.135   0.990   4.065 -0.1352 -0.0892 -0.1490
  435MOL0     C58592   5.172   1.037   3.951 -0.5749 -0.5097  0.5373
  435MOL0     O58593   5.226   0.966   3.853 -0.8232  0.3191  0.5620
  435MOL0     C58594   5.263   0.836   3.889  0.5693 -0.0600 -0.2792
  435MOL0     C58595   5.368   0.810   3.974  0.3918 -0.3035 -0.9709
  435MOL0     C58596   5.420   0.684   4.005  0.9159 -0.1896  0.5840
  435MOL0     C58597   5.348   0.572   3.949 -0.0799 -0.2610  0.2457
  435MOL0     O58598   5.375   0.437   3.982  0.9227 -0.3612  0.2063
  435MOL0     C58599   5.506   0.384   3.952 -0.1790 -0.2831  0.2078
  435MOL0     C58600   5.514   0.354   3.801 -0.9556  0.4335  0.6033
  435MOL0     C58601   5.636   0.264   3.786  0.1900 -1.2894 -0.1192
  435MOL0     C58602   5.602   0.116   3.812 -0.6820 -0.1367 -0.1344
  435MOL0     C58603   5.692   0.018   3.748 -0.0634 -0.1518  0.0077
  435MOL0     C58604   5.652  -0.118   3.806 -0.7105 -0.0358 -0.8321
  435MOL0     C58605   5.729  -0.236   3.752  0.8444 -0.0861 -0.6357
  435MOL0     C58606   5.678  -0.369   3.799  1.0150 -0.3635  0.1575
  435MOL0     N58607   5.756  -0.496   3.779  0.4533  0.0621 -0.5543
  435MOL0     C58608   5.692  -0.613   3.740  0.6431  0.1727  0.4981
  435MOL0     C58609   5.782  -0.709   3.715 -1.1148  0.0442 -0.1426
  435MOL0     C58610   5.775  -0.841   3.661  0.2589  0.2496 -0.2476
  435MOL0     C58611   5.696  -0.849   3.526 -0.0396 -0.5955 -0.7196
  435MOL0     C58612   5.784  -0.783   3.414  0.0809 -0.1951  0.6755
  435MOL0     C58613   5.714  -0.801   3.280  0.6896  0.1925 -0.9546
  435MOL0     O58614   5.804  -0.760   3.173 -0.4223  0.3742  0.4955
  435MOL0     C58615   5.748  -0.726   3.048  0.8796 -0.8415  0.1455
  435MOL0     C58616   5.780  -0.603   2.977 -0.0994  0.0070  0.9446
  435MOL0     C58617   5.713  -0.567   2.861  0.4653 -0.1209  0.0155
  435MOL0     C58618   5.754  -0.438   2.790 -0.4943 -0.3441  0.3144
  435MOL0     C58619   5.609  -0.646   2.805  1.1917  1.4476 -0.4957
  435MOL0     C58620   5.515  -0.593   2.699 -1.0795 -0.0451 -0.2204
  435MOL0     O58621   5.469  -0.680   2.608 -0.0807 -0.4259  0.0857
  435MOL0     C58622   5.342  -0.647   2.567 -0.2972  1.0954 -0.5218
  435MOL0     C58623   5.323  -0.560   2.465 -0.0793 -0.7881  1.0231
  435MOL0     C58624   5.201  -0.533   2.403  0.2980  0.2265 -0.9517
  435MOL0     C58625   5.082  -0.586   2.455  1.4230 -0.2725  0.0472
  435MOL0     O58626   4.960  -0.569   2.405 -0.0536  0.6772 -0.3136
  435MOL0     C58627   4.929  -0.453   2.328  0.1822  0.2729  0.9530
  435MOL0     C58628   4.925  -0.474   2.172 -0.7716 -0.3025 -0.0923
  435MOL0     C58629   4.792  -0.517   2.120 -0.2793  1.0736  0.7093
  435MOL0     C58630   4.802  -0.553   1.967  0.4722  0.5499 -0.5246
  435MOL0     C58631   4.667  -0.625   1.922  0.7706 -0.0731  0.3392
  435MOL0     C58632   4.645  -0.641   1.772 -0.0713 -0.1405 -0.3770
  435MOL0     C58633   4.517  -0.705   1.757 -0.1781  0.5044 -0.5333
  435MOL0     C58634   4.531  -0.855   1.770  0.3172 -0.5475  0.3982
  435MOL0    Cl58635   4.642  -0.937   1.663  0.5752  0.4430 -0.5797
  435MOL0     C58636   5.104  -0.670   2.570  0.6615  0.8411  0.0775
  435MOL0     C58637   5.231  -0.710   2.617  0.0370  1.4232  0.2354
  435MOL0     O58638   5.494  -0.474   2.710  0.2604 -0.8943 -0.1845
  435MOL0     C58639   5.602  -0.781   2.866  1.1454  0.2476 -0.1431
  435MOL0     C58640   5.657  -0.814   2.987  0.3574 -0.4778  0.4785
  435MOL0     N58641   5.901  -0.643   3.740 -0.8516  0.0596  0.3048
  435MOL0     N58642   5.888  -0.520   3.781 -0.6077 -0.4955 -0.4382
  435MOL0     C58643   5.246   0.596   3.863 -0.3648 -0.7781 -0.0134
  435MOL0     C58644   5.209   0.726   3.822  0.2826 -0.5396 -0.6625
  435MOL0     C58645   5.138   1.175   3.915 -1.1367 -0.1145  0.1486
  435MOL0     C58646   5.154   1.276   4.010 -0.6895 -0.5061  0.6438
  435MOL0     C58647   5.122   1.410   3.971 -0.1448 -0.5160 -1.2633
  435MOL0     C58648   5.086   1.442   3.848 -0.0425  0.3323  0.3940
  435MOL0     O58649   5.053   1.572   3.798  0.1611  0.2903  0.1713
  435MOL0     C58650   5.044   1.685   3.879  0.1254 -0.8294 -0.5030
  435MOL0     C58651   4.969   1.794   3.804  0.5576  0.1720  0.0859
  435MOL0     C58652   5.042   1.832   3.677  0.2025  0.3249  0.0909
  435MOL0     C58653   4.964   1.919   3.576  0.8345  0.4214 -0.7361
  435MOL0     C58654   5.046   1.986   3.467 -0.3076  0.5380 -0.3258
  435MOL0     C58655   5.115   2.053   3.393 -0.0237  0.3447  0.7445
  435MOL0     C58656   5.073   1.337   3.758 -0.1986 -0.8352  0.5274
  435MOL0     C58657   5.091   1.209   3.790 -0.0167  0.1012  0.4833
  435MOL0     H58658   5.412   0.896   4.023 -1.3225  2.0008 -3.2031
  435MOL0     H58659   5.498   0.670   4.079  2.1743 -2.1328 -1.0316
  435MOL0     H58660   5.586   0.453   3.979 -0.6602  1.5375 -2.5444
  435MOL0     H58661   5.521   0.295   4.014  1.2625 -0.0304  0.2552
  435MOL0     H58662   5.422   0.309   3.762 -0.1170 -1.2559  0.4719
  435MOL0     H58663   5.525   0.439   3.734 -1.5774 -2.1062 -2.9908
  435MOL0     H58664   5.660   0.267   3.679 -0.0964  0.6189 -0.1698
  435MOL0     H58665   5.720   0.308   3.841 -1.7706 -0.4305  2.3791
  435MOL0     H58666   5.612   0.106   3.920 -3.0307 -1.0439  0.0622
  435MOL0     H58667   5.497   0.098   3.787 -1.5606  2.1559  1.5412
  435MOL0     H58668   5.674   0.014   3.641  1.8802  2.2945 -0.4951
  435MOL0     H58669   5.794   0.054   3.764  0.5073 -0.7754 -1.9749
  435MOL0     H58670   5.670  -0.121   3.913 -2.1883 -2.9926 -0.5720
  435MOL0     H58671   5.544  -0.133   3.795 -1.2488 -0.3739  3.3937
  435MOL0     H58672   5.717  -0.240   3.643 -0.7925  2.0057 -0.5975
  435MOL0     H58673   5.834  -0.223   3.780  0.9296 -1.5101 -0.2116
  435MOL0     H58674   5.581  -0.392   3.753  1.2822  0.7093 -0.9948
  435MOL0     H58675   5.651  -0.363   3.905 -2.9380  1.1160 -0.7409
  435MOL0     H58676   5.584  -0.619   3.733  0.3911  0.6055  3.1022
  435MOL0     H58677   5.877  -0.879   3.646 -0.5719 -1.0830 -3.1651
  435MOL0     H58678   5.721  -0.885   3.745  0.6489  1.7773  0.8518
  435MOL0     H58679   5.599  -0.801   3.540 -0.0108 -1.1372  1.8317
  435MOL0     H58680   5.663  -0.950   3.500  0.3712 -0.0376 -3.8192
  435MOL0     H58681   5.885  -0.826   3.413 -0.7344 -2.2409  0.5590
  435MOL0     H58682   5.791  -0.676   3.433 -0.8591  0.0320 -0.1762
  435MOL0     H58683   5.634  -0.726   3.277  2.6353  2.6503  2.3394
  435MOL0     H58684   5.684  -0.904   3.262  1.5213 -0.2450  0.0936
  435MOL0     H58685   5.863  -0.536   3.001  0.7969 -2.0835  4.3619
  435MOL0     H58686   5.732  -0.432   2.683  0.4169  1.1202  0.1888
  435MOL0     H58687   5.705  -0.355   2.843 -1.4852 -0.5355 -0.2648
  435MOL0     H58688   5.861  -0.420   2.801 -0.7745  0.0179  3.6004
  435MOL0     H58689   5.403  -0.495   2.429 -0.4942 -2.2345 -3.0823
  435MOL0     H58690   5.182  -0.475   2.313  0.8621  1.2948 -0.4016
  435MOL0     H58691   4.828  -0.429   2.363  0.8838  0.5036  2.9020
  435MOL0     H58692   4.990  -0.366   2.352 -1.5927  1.7831  0.1778
  435MOL0     H58693   4.968  -0.386   2.124  3.2122 -0.5576  2.5345
  435MOL0     H58694   4.998  -0.555   2.157 -0.4472 -0.6187  2.7598
  435MOL0     H58695   4.716  -0.440   2.137 -2.9506 -0.5817 -2.5428
  435MOL0     H58696   4.755  -0.599   2.182 -0.1072  1.9247  1.9836
  435MOL0     H58697   4.828  -0.473   1.897  0.5410 -0.9192 -2.2499
  435MOL0     H58698   4.880  -0.629   1.957  0.8602  1.1151 -2.2269
  435MOL0     H58699   4.591  -0.553   1.951  0.8162 -0.0633  0.4343
  435MOL0     H58700   4.654  -0.723   1.970  0.1353  0.3810  1.1072
  435MOL0     H58701   4.645  -0.546   1.717 -1.9497  0.2185  0.1902
  435MOL0     H58702   4.724  -0.708   1.736 -0.8849 -3.0386  2.7060
  435MOL0     H58703   4.478  -0.676   1.659  0.2851  2.0735 -0.2703
  435MOL0     H58704   4.445  -0.667   1.829  1.5486  1.8481  0.5708
  435MOL0     H58705   4.435  -0.908   1.759 -0.0220  0.0504  0.4559
  435MOL0     H58706   4.568  -0.881   1.869  0.1257 -3.1703 -0.1274
  435MOL0     H58707   5.012  -0.710   2.610  0.4042 -0.3569 -1.6049
  435MOL0     H58708   5.232  -0.776   2.703 -1.3118  3.1504  1.6609
  435MOL0     H58709   5.532  -0.850   2.820  0.2123 -0.8903  2.7839
  435MOL0     H58710   5.642  -0.916   3.021  1.6399 -0.2753  1.7377
  435MOL0     H58711   5.189   0.516   3.818 -0.0104 -1.9194  1.4955
  435MOL0     H58712   5.128   0.731   3.749 -0.4630 -2.7402 -0.0609
  435MOL0     H58713   5.196   1.263   4.110 -0.0025 -2.5505  0.1290
  435MOL0     H58714   5.125   1.490   4.044  3.7099 -0.9575 -0.7142
  435MOL0     H58715   4.975   1.666   3.962  0.7803 -1.1571 -0.0243
  435MOL0     H58716   5.145   1.709   3.912 -1.1811  2.5453  1.5873
  435MOL0     H58717   4.955   1.881   3.869 -3.2241  0.2583 -0.6375
  435MOL0     H58718   4.864   1.772   3.782  1.2847 -2.6550 -1.0242
  435MOL0     H58719   5.089   1.747   3.626  2.4381  0.9579  0.9780
  435MOL0     H58720   5.120   1.897   3.718 -1.1504  2.2818 -0.2819
  435MOL0     H58721   4.910   1.991   3.638  0.8846 -1.3994  1.5549
  435MOL0     H58722   4.890   1.863   3.519  0.2349 -1.9599  2.1434
  435MOL0     H58723   5.196   2.097   3.338  0.6683 -1.3808  0.3297
  435MOL0     H58724   5.047   1.371   3.658  0.0087 -0.0823  0.7229
  435MOL0     H58725   5.093   1.144   3.703  1.8147  0.6380  0.0796
  436MOL0     O58726   0.433  11.341   2.704 -0.3010  0.6207  0.1603
  436MOL0     C58727   0.473  11.447   2.658  0.6395 -0.6407  0.3132
  436MOL0     O58728   0.487  11.485   2.520  0.4952  0.1982 -0.2913
  436MOL0     C58729   0.453  11.394   2.427 -0.9071  0.4042 -0.9998
  436MOL0     C58730   0.535  11.388   2.322 -0.2350  0.5481 -0.9634
  436MOL0     C58731   0.529  11.277   2.238 -0.5990 -0.2461  0.4117
  436MOL0     C58732   0.440  11.180   2.255  0.4954  0.4393 -0.1688
  436MOL0     O58733   0.444  11.087   2.155  0.7433 -0.3214  0.8376
  436MOL0     C58734   0.391  10.959   2.199 -0.4279 -0.5106  0.0698
  436MOL0     C58735   0.439  10.860   2.091  0.0738 -0.4955  0.3028
  436MOL0     C58736   0.384  10.895   1.943  0.2325  0.2456 -0.5249
  436MOL0     C58737   0.254  10.835   1.908  0.4382  0.0167 -0.1169
  436MOL0     C58738   0.213  10.885   1.770 -0.5363 -0.2777  0.2658
  436MOL0     C58739   0.068  10.847   1.740  0.2707  0.1173  0.0960
  436MOL0     C58740   0.027  10.845   1.588 -0.0411  0.0795 -0.4479
  436MOL0     C58741   0.059  10.982   1.523  0.9213 -0.2697 -0.5495
  436MOL0     N58742  -0.033  11.096   1.567 -0.2236  0.6493 -0.4169
  436MOL0     C58743   0.001  11.233   1.558  0.1282  0.1778 -0.6151
  436MOL0     C58744  -0.112  11.299   1.606  0.2503  0.5546  0.1382
  436MOL0     C58745  -0.141  11.439   1.601 -0.7268  0.5778 -0.2538
  436MOL0     C58746  -0.058  11.516   1.702 -0.6423 -0.3764  0.1487
  436MOL0     C58747  -0.075  11.668   1.664 -0.3343 -0.2266 -0.5746
  436MOL0     C58748  -0.003  11.752   1.768 -0.2688 -0.0705 -0.1808
  436MOL0     O58749   0.127  11.716   1.794 -0.2974  0.6970 -0.3536
  436MOL0     C58750   0.206  11.798   1.873 -0.2239  0.1759  0.0786
  436MOL0     C58751   0.165  11.907   1.953  0.2294 -0.1911 -0.5115
  436MOL0     C58752   0.259  11.986   2.025  0.3390 -0.0665  0.1902
  436MOL0     C58753   0.212  12.110   2.099 -0.3002 -0.3330 -0.2887
  436MOL0     C58754   0.397  11.951   2.025 -0.2509 -0.6259 -0.3172
  436MOL0     C58755   0.506  12.015   2.089 -0.1331 -0.3288  0.0274
  436MOL0     O58756   0.635  11.954   2.114 -0.5586 -0.1311 -0.0153
  436MOL0     C58757   0.747  12.031   2.131  1.6006 -0.7186 -0.3935
  436MOL0     C58758   0.784  12.070   2.255 -0.0962 -0.7041 -0.4371
  436MOL0     C58759   0.898  12.129   2.277 -0.5320 -0.3118  0.2078
  436MOL0     C58760   0.988  12.160   2.171  0.1549  0.9515 -0.8694
  436MOL0     O58761   1.090  12.251   2.192 -0.0957 -0.8729 -0.1192
  436MOL0     C58762   1.111  12.352   2.094  0.0082 -0.1243  0.2526
  436MOL0     C58763   1.198  12.469   2.136  0.5345 -0.4480 -0.5264
  436MOL0     C58764   1.346  12.433   2.145 -0.7011  1.0083  0.9420
  436MOL0     C58765   1.437  12.551   2.164  0.2810  0.3434 -0.1053
  436MOL0     C58766   1.517  12.604   2.049 -0.1842  0.4610  0.5028
  436MOL0     C58767   1.615  12.506   1.993 -1.0335  0.0543  0.2178
  436MOL0     C58768   1.685  12.426   2.113 -0.7297  0.9795 -0.2021
  436MOL0     C58769   1.808  12.353   2.071  0.5404 -0.2613  0.8580
  436MOL0    Cl58770   1.780  12.274   1.917 -0.0408  0.4768  0.3796
  436MOL0     C58771   0.963  12.107   2.045  0.1125 -0.1063  0.1410
  436MOL0     C58772   0.837  12.043   2.024 -0.4538  0.2079 -0.0860
  436MOL0     O58773   0.488  12.132   2.118  0.1422 -0.7550 -0.9623
  436MOL0     C58774   0.430  11.836   1.956 -0.0894 -0.4630  0.5662
  436MOL0     C58775   0.337  11.758   1.884  0.9970  0.5123 -0.2504
  436MOL0     N58776  -0.205  11.201   1.653 -0.0474  0.0723  0.3993
  436MOL0     N58777  -0.159  11.083   1.627 -0.4018  0.2014  0.6519
  436MOL0     C58778   0.343  11.191   2.355  0.4671 -0.1913 -0.2086
  436MOL0     C58779   0.348  11.307   2.438  0.0833  0.9932 -0.3622
  436MOL0     C58780   0.513  11.557   2.760 -0.5830 -0.2679  0.5059
  436MOL0     C58781   0.506  11.695   2.735 -0.1855  0.8044 -0.1845
  436MOL0     C58782   0.552  11.785   2.830 -0.2494  0.0190  0.2410
  436MOL0     C58783   0.603  11.749   2.950 -0.3718  0.8830  0.1113
  436MOL0     O58784   0.668  11.828   3.043  0.6294 -0.5251  0.3194
  436MOL0     C58785   0.718  11.963   3.020 -0.4852  0.6050  0.9042
  436MOL0     C58786   0.782  12.015   3.140  0.0008  0.7893 -0.3415
  436MOL0     C58787   0.817  12.166   3.133 -0.0719  0.2165  0.2882
  436MOL0     C58788   0.873  12.240   3.263 -0.1431  0.1618  0.2750
  436MOL0     C58789   0.948  12.361   3.212  0.3202  0.3275  1.3921
  436MOL0     C58790   1.008  12.463   3.190 -0.4176 -0.8706  0.0120
  436MOL0     C58791   0.609  11.607   2.980  0.8601 -0.8069 -0.7048
  436MOL0     C58792   0.555  11.513   2.888 -1.1186  0.1030  0.2630
  436MOL0     H58793   0.609  11.467   2.317  1.3644 -0.6336  1.7238
  436MOL0     H58794   0.593  11.270   2.151 -0.7080 -0.2029  0.3289
  436MOL0     H58795   0.428  10.933   2.298  0.9784  1.9943  0.2765
  436MOL0     H58796   0.282  10.958   2.187 -0.8193 -0.9546  2.9850
  436MOL0     H58797   0.547  10.876   2.080 -0.6013  3.6117 -3.1259
  436MOL0     H58798   0.403  10.760   2.116  0.1043 -0.1022  1.9888
  436MOL0     H58799   0.383  11.002   1.921  3.8529  1.1945  2.7633
  436MOL0     H58800   0.449  10.836   1.878 -0.0244  1.3727 -1.8402
  436MOL0     H58801   0.266  10.726   1.918  1.5907  0.1558  0.0693
  436MOL0     H58802   0.180  10.873   1.979 -1.3443 -1.5491 -1.0350
  436MOL0     H58803   0.218  10.993   1.782  2.7127 -0.3707  0.7593
  436MOL0     H58804   0.281  10.859   1.689  0.4875  1.7551  0.4120
  436MOL0     H58805   0.042  10.750   1.782 -0.9669  1.0146  1.5170
  436MOL0     H58806   0.005  10.917   1.796  1.7142  1.2404  0.3968
  436MOL0     H58807   0.071  10.769   1.523 -1.0640  2.6603 -4.5464
  436MOL0     H58808  -0.081  10.831   1.590  0.0894 -0.9717 -0.2351
  436MOL0     H58809   0.049  10.956   1.417 -0.1281  0.6614 -0.7048
  436MOL0     H58810   0.161  11.010   1.548  0.2026  1.4885  0.6185
  436MOL0     H58811   0.088  11.277   1.509  0.1827 -0.8444 -1.4774
  436MOL0     H58812  -0.122  11.467   1.497 -1.2011  1.5954 -0.0793
  436MOL0     H58813  -0.244  11.469   1.619 -1.1161  0.3589 -1.9289
  436MOL0     H58814   0.046  11.483   1.695 -0.2764  1.0890 -2.0426
  436MOL0     H58815  -0.098  11.495   1.802  0.0509  1.8607  0.9338
  436MOL0     H58816  -0.181  11.689   1.651 -0.4261 -0.9479 -1.0919
  436MOL0     H58817  -0.015  11.680   1.573  2.1216 -0.4064  0.9177
  436MOL0     H58818  -0.050  11.749   1.867 -0.9069  1.4687 -0.3971
  436MOL0     H58819  -0.020  11.855   1.733  1.3100  0.0667 -0.6298
  436MOL0     H58820   0.059  11.929   1.953  0.8144  3.0484  0.2428
  436MOL0     H58821   0.212  12.197   2.033 -3.4185 -1.0115 -1.3541
  436MOL0     H58822   0.104  12.096   2.112 -0.0926 -0.0064  2.4716
  436MOL0     H58823   0.266  12.123   2.194  1.6691  2.0465 -1.6066
  436MOL0     H58824   0.736  12.040   2.348  0.7951 -2.9606 -0.6469
  436MOL0     H58825   0.935  12.146   2.377  2.1842 -1.4539 -0.5337
  436MOL0     H58826   1.152  12.304   2.004  1.9060  2.1089 -0.1750
  436MOL0     H58827   1.015  12.400   2.074  0.7478  2.4551  2.3545
  436MOL0     H58828   1.177  12.550   2.066  1.7347  1.4313  1.1617
  436MOL0     H58829   1.173  12.497   2.239  1.4049 -2.3194  0.2356
  436MOL0     H58830   1.375  12.373   2.058  1.3296 -0.2212  2.3808
  436MOL0     H58831   1.354  12.376   2.238 -1.7345  0.0783  0.4820
  436MOL0     H58832   1.380  12.635   2.206 -1.1671  1.1604 -3.3845
  436MOL0     H58833   1.502  12.527   2.248 -0.1350  1.1919  0.4800
  436MOL0     H58834   1.571  12.697   2.067 -1.8343  1.7510 -0.9470
  436MOL0     H58835   1.436  12.619   1.978  1.3014  0.1201 -1.3639
  436MOL0     H58836   1.570  12.438   1.919  1.1965 -0.8478 -0.3813
  436MOL0     H58837   1.693  12.562   1.941  1.4995 -0.7432  2.9035
  436MOL0     H58838   1.614  12.356   2.157 -0.1403 -0.3092 -1.2374
  436MOL0     H58839   1.715  12.498   2.189  2.7281 -0.2489 -0.2393
  436MOL0     H58840   1.818  12.275   2.147  1.5345 -0.5306  0.4708
  436MOL0     H58841   1.900  12.412   2.067 -0.4434  1.2677 -2.0692
  436MOL0     H58842   1.031  12.124   1.963  1.1103  1.6511  1.2501
  436MOL0     H58843   0.810  12.014   1.922 -2.9233 -1.7598  1.0235
  436MOL0     H58844   0.529  11.801   1.932  0.2196 -1.7286  3.3421
  436MOL0     H58845   0.361  11.684   1.808  2.3822 -0.8148  1.4016
  436MOL0     H58846   0.258  11.129   2.384  0.0862  1.8649  3.6425
  436MOL0     H58847   0.285  11.309   2.526  0.7526 -0.7307  0.2035
  436MOL0     H58848   0.450  11.733   2.650  0.5563  0.0458 -1.0275
  436MOL0     H58849   0.555  11.889   2.800  1.1719 -0.0322  0.1495
  436MOL0     H58850   0.795  11.970   2.943  2.9981 -2.1657  3.7785
  436MOL0     H58851   0.630  12.025   3.002  0.4956  1.1307 -2.8654
  436MOL0     H58852   0.871  11.953   3.154 -2.8425 -3.1403  2.8177
  436MOL0     H58853   0.717  12.008   3.228 -1.0136  0.7514 -1.0677
  436MOL0     H58854   0.721  12.213   3.109 -1.6246 -2.0318  1.7681
  436MOL0     H58855   0.881  12.181   3.046 -2.1113 -0.3478 -1.4090
  436MOL0     H58856   0.946  12.182   3.321  0.0839  3.0860  3.1972
  436MOL0     H58857   0.784  12.261   3.323 -1.0954  1.6077 -1.5432
  436MOL0     H58858   1.059  12.557   3.177 -3.1658  0.7353  0.0643
  436MOL0     H58859   0.645  11.572   3.076 -1.7828  0.9006  1.0277
  436MOL0     H58860   0.563  11.409   2.915 -2.3876 -0.5017 -1.4493
  437MOL0     O58861   6.867   3.992   8.593 -0.5679 -0.2521 -0.1606
  437MOL0     C58862   6.838   3.921   8.680 -0.0948  0.0614 -0.8183
  437MOL0     O58863   6.823   3.781   8.670  0.2638  0.3812 -0.0417
  437MOL0     C58864   6.885   3.710   8.566  0.7844  0.4520 -0.3603
  437MOL0     C58865   6.811   3.603   8.513 -0.7483 -0.2662  0.1632
  437MOL0     C58866   6.863   3.515   8.405  0.1129 -0.0651 -0.5870
  437MOL0     C58867   6.988   3.547   8.353 -0.3232  0.6027  0.9117
  437MOL0     O58868   7.036   3.477   8.242 -0.6103 -0.0219  0.0708
  437MOL0     C58869   7.028   3.336   8.257  0.2240 -0.1411 -0.8300
  437MOL0     C58870   7.158   3.279   8.315  0.2676 -1.3778  0.7403
  437MOL0     C58871   7.284   3.329   8.235 -0.9860  0.0486 -0.6040
  437MOL0     C58872   7.400   3.221   8.257  0.3166 -0.4104  0.5550
  437MOL0     C58873   7.509   3.262   8.165 -0.6072 -1.2297  0.6580
  437MOL0     C58874   7.631   3.161   8.184 -0.3966 -0.1515  1.4994
  437MOL0     C58875   7.756   3.200   8.097  0.4233 -0.7750  0.1586
  437MOL0     C58876   7.882   3.113   8.109  0.2165 -0.4474  0.6387
  437MOL0     N58877   7.930   3.103   8.256  0.0690  0.6090 -0.4516
  437MOL0     C58878   7.937   3.192   8.361 -0.5428  0.4859  0.5986
  437MOL0     C58879   7.989   3.109   8.452  0.1013 -0.7944  0.2386
  437MOL0     C58880   8.006   3.157   8.600 -0.0100  1.1443 -0.6152
  437MOL0     C58881   7.898   3.106   8.700  0.1733  0.4619  0.1622
  437MOL0     C58882   7.822   3.229   8.759 -0.2030  0.2355  0.7027
  437MOL0     C58883   7.688   3.191   8.823  0.0407 -1.1037  0.9077
  437MOL0     O58884   7.593   3.143   8.725  0.6487 -0.0690 -0.8566
  437MOL0     C58885   7.498   3.058   8.755  1.6619  0.5856  1.4938
  437MOL0     C58886   7.430   3.002   8.643  0.0610  0.0065  0.6967
  437MOL0     C58887   7.320   2.926   8.654 -0.0165  0.3445 -0.3567
  437MOL0     C58888   7.244   2.872   8.536  0.8538  0.0194  0.3753
  437MOL0     C58889   7.273   2.897   8.783  0.3377 -0.0429 -0.7012
  437MOL0     C58890   7.152   2.810   8.816 -0.0029  0.3076  0.4247
  437MOL0     O58891   7.091   2.838   8.931 -0.1395  0.1110 -0.7335
  437MOL0     C58892   6.992   2.765   8.984  0.3287  0.2568 -0.0022
  437MOL0     C58893   6.930   2.808   9.104 -0.2695 -0.6943  0.4734
  437MOL0     C58894   6.839   2.731   9.184  0.4975 -0.5384  1.0127
  437MOL0     C58895   6.806   2.604   9.140  0.3483  0.8050 -0.8590
  437MOL0     O58896   6.737   2.512   9.219  0.4111  0.3487 -0.2604
  437MOL0     C58897   6.603   2.495   9.183  0.2238  0.2346 -0.6093
  437MOL0     C58898   6.556   2.361   9.240  0.7548 -0.2736  0.6609
  437MOL0     C58899   6.585   2.327   9.391  0.5141  0.3801 -0.1690
  437MOL0     C58900   6.536   2.438   9.485 -0.6073  0.6281  0.4184
  437MOL0     C58901   6.562   2.401   9.626 -0.1548  0.0714 -0.5599
  437MOL0     C58902   6.714   2.381   9.666  0.1417 -0.4822  0.0376
  437MOL0     C58903   6.738   2.352   9.814 -0.1037  0.4204 -0.1841
  437MOL0     C58904   6.713   2.208   9.851 -0.1417  0.7338  0.8719
  437MOL0    Cl58905   6.795   2.099   9.737 -0.3289 -0.2271  0.3878
  437MOL0     C58906   6.848   2.558   9.018 -0.4616  0.1902 -0.2747
  437MOL0     C58907   6.938   2.641   8.938 -0.0771  0.3449  0.1090
  437MOL0     O58908   7.127   2.727   8.731 -0.4387  0.5394  0.2756
  437MOL0     C58909   7.346   2.948   8.891  0.6694  0.7914 -0.6301
  437MOL0     C58910   7.451   3.032   8.882 -0.0551 -0.1470 -0.3188
  437MOL0     N58911   8.019   2.985   8.407  0.5341 -0.0988  0.5355
  437MOL0     N58912   7.971   2.975   8.291 -0.4497  0.3475  0.2919
  437MOL0     C58913   7.046   3.669   8.392 -0.3896 -0.1998  0.3804
  437MOL0     C58914   7.000   3.747   8.498  0.4155  0.5144 -0.2452
  437MOL0     C58915   6.771   3.990   8.801  0.1963  0.3607 -0.3469
  437MOL0     C58916   6.737   4.129   8.793 -0.9512  0.9185  0.5075
  437MOL0     C58917   6.661   4.190   8.886 -0.0343 -0.2088  0.3012
  437MOL0     C58918   6.617   4.118   9.003  0.4304 -0.0275  0.6250
  437MOL0     O58919   6.539   4.189   9.088  0.0639 -0.4104  0.4531
  437MOL0     C58920   6.468   4.122   9.197  0.0873 -0.0969  0.8713
  437MOL0     C58921   6.359   4.218   9.241 -0.0310  0.1784  0.4468
  437MOL0     C58922   6.328   4.217   9.393 -0.5743 -0.2982  0.4278
  437MOL0     C58923   6.260   4.344   9.434  0.1612 -0.5688  0.2747
  437MOL0     C58924   6.196   4.314   9.564  0.7029  0.0056  0.3735
  437MOL0     C58925   6.152   4.304   9.678 -0.8307  0.5618  0.1578
  437MOL0     C58926   6.647   3.978   9.007  1.8464  0.5776  0.7677
  437MOL0     C58927   6.729   3.916   8.915  0.1025 -0.5383  1.3202
  437MOL0     H58928   6.711   3.587   8.552  0.2997 -1.5261  2.5547
  437MOL0     H58929   6.797   3.434   8.375  1.4351 -1.5965  0.5071
  437MOL0     H58930   6.940   3.297   8.308  1.1901  0.2684  1.2520
  437MOL0     H58931   7.013   3.293   8.157 -1.4850 -1.9559  0.1342
  437MOL0     H58932   7.164   3.311   8.419 -1.2508  0.0534  0.4428
  437MOL0     H58933   7.150   3.170   8.306  0.3305 -1.2492 -1.5568
  437MOL0     H58934   7.258   3.339   8.129 -2.1012  4.1632 -0.1240
  437MOL0     H58935   7.321   3.428   8.263  0.5801 -0.3261 -1.2504
  437MOL0     H58936   7.438   3.227   8.359 -0.6302 -0.7861  0.9424
  437MOL0     H58937   7.367   3.122   8.223  0.8330 -0.8671  1.3506
  437MOL0     H58938   7.488   3.263   8.058  0.8888 -0.8025  0.3381
  437MOL0     H58939   7.539   3.362   8.199 -0.9357 -1.1550  0.7257
  437MOL0     H58940   7.660   3.155   8.289  1.8409 -0.1205  0.9356
  437MOL0     H58941   7.597   3.061   8.155  0.0056 -0.1102  0.8550
  437MOL0     H58942   7.730   3.198   7.991 -2.6713 -4.4623  0.7599
  437MOL0     H58943   7.781   3.302   8.128  1.8914 -0.5335 -1.6439
  437MOL0     H58944   7.970   3.146   8.053 -1.2272  1.4140 -0.6455
  437MOL0     H58945   7.857   3.008   8.089 -1.5887  0.0825 -0.0652
  437MOL0     H58946   7.915   3.298   8.354 -0.3544  0.4003 -2.3597
  437MOL0     H58947   8.106   3.123   8.627 -0.6220 -0.4080 -0.1834
  437MOL0     H58948   8.014   3.265   8.590 -1.1608  1.2204 -0.8793
  437MOL0     H58949   7.943   3.044   8.777  0.0233  0.9294  0.6284
  437MOL0     H58950   7.827   3.041   8.646  0.5009 -0.2330  0.5535
  437MOL0     H58951   7.791   3.296   8.679 -0.3335  0.2725  0.7831
  437MOL0     H58952   7.883   3.281   8.833  1.6447 -0.4812 -0.2445
  437MOL0     H58953   7.647   3.279   8.874 -1.1287 -2.0539  1.6645
  437MOL0     H58954   7.704   3.115   8.901 -0.3146 -2.9350 -0.7318
  437MOL0     H58955   7.474   3.007   8.544 -3.8432 -4.0893 -1.6613
  437MOL0     H58956   7.136   2.868   8.551  1.2560 -2.0700  3.5504
  437MOL0     H58957   7.274   2.936   8.452  1.5654 -1.4371 -0.5303
  437MOL0     H58958   7.292   2.778   8.507  1.2439  0.7340 -1.4199
  437MOL0     H58959   6.965   2.899   9.153  1.1234 -0.9621  0.0132
  437MOL0     H58960   6.811   2.763   9.284  1.3928  2.4227  0.4143
  437MOL0     H58961   6.548   2.570   9.241  2.9754  1.3703  0.7125
  437MOL0     H58962   6.586   2.512   9.076  0.0998 -0.3468 -0.6832
  437MOL0     H58963   6.451   2.344   9.215  0.9369  0.1606 -0.4209
  437MOL0     H58964   6.615   2.288   9.184  1.1647 -1.1808  2.2044
  437MOL0     H58965   6.689   2.315   9.423 -0.4965 -1.8433  2.7560
  437MOL0     H58966   6.534   2.234   9.416  1.5532 -0.0159  0.5268
  437MOL0     H58967   6.585   2.534   9.469  1.9113 -0.3186  1.8057
  437MOL0     H58968   6.429   2.458   9.470 -0.4165  0.0603 -2.0646
  437MOL0     H58969   6.512   2.308   9.656 -0.7056 -0.5928 -3.2958
  437MOL0     H58970   6.524   2.477   9.694 -3.4997 -1.6055 -0.3494
  437MOL0     H58971   6.760   2.299   9.609  1.1442 -0.0875  0.2546
  437MOL0     H58972   6.771   2.465   9.625 -0.2350 -0.3994 -0.3173
  437MOL0     H58973   6.684   2.413   9.887  2.5369  1.4010  1.1148
  437MOL0     H58974   6.843   2.372   9.839 -0.3831  0.5059  0.9766
  437MOL0     H58975   6.604   2.193   9.847 -0.1148  0.0087  2.4046
  437MOL0     H58976   6.749   2.184   9.951  1.0767 -0.6672  0.1307
  437MOL0     H58977   6.804   2.466   8.982 -2.3425  1.2738 -0.9168
  437MOL0     H58978   6.963   2.602   8.840 -1.1220 -0.0265 -0.0253
  437MOL0     H58979   7.314   2.925   8.992  1.1181 -2.7361 -1.1614
  437MOL0     H58980   7.494   3.082   8.968  3.1932  1.0170 -2.4318
  437MOL0     H58981   7.136   3.701   8.339 -2.0740  1.2345 -1.7882
  437MOL0     H58982   7.052   3.835   8.533  2.5736 -1.1590  1.0913
  437MOL0     H58983   6.761   4.190   8.706  0.2835 -2.1662 -1.4652
  437MOL0     H58984   6.630   4.293   8.873 -3.4214 -1.2031 -0.3018
  437MOL0     H58985   6.419   4.031   9.160 -1.0551  1.3116 -1.2750
  437MOL0     H58986   6.534   4.090   9.278  1.3597  1.3567  0.4499
  437MOL0     H58987   6.267   4.193   9.188  1.1854  1.4403 -2.4536
  437MOL0     H58988   6.387   4.320   9.213  2.7912 -0.5411  0.3574
  437MOL0     H58989   6.427   4.203   9.437  0.0336 -0.8699 -1.0170
  437MOL0     H58990   6.268   4.129   9.421  2.3564 -2.9714 -1.0262
  437MOL0     H58991   6.180   4.377   9.366 -0.4191 -2.0995  0.1810
  437MOL0     H58992   6.331   4.426   9.447  0.4851 -1.2772  3.9999
  437MOL0     H58993   6.103   4.294   9.773 -2.1926  0.0298 -0.5745
  437MOL0     H58994   6.620   3.916   9.092 -0.7004  1.1804  0.4803
  437MOL0     H58995   6.756   3.812   8.928  1.8149 -0.9372 -3.5382
  438MOL0     O58996   9.821  11.105   8.972 -0.2278 -0.7004 -0.6347
  438MOL0     C58997   9.924  11.040   8.941  0.0467 -0.5337  0.7217
  438MOL0     O58998   9.977  10.928   8.999 -0.0830  0.2829 -0.1447
  438MOL0     C58999   9.930  10.885   9.118 -0.3079  0.2148 -0.6942
  438MOL0     C59000   9.931  10.748   9.133  0.1547 -0.9340 -0.2703
  438MOL0     C59001   9.905  10.678   9.253 -0.2238  0.1575 -0.2657
  438MOL0     C59002   9.886  10.751   9.372  0.2314  0.1743  0.6722
  438MOL0     O59003   9.887  10.689   9.488  0.1767  0.0934  0.2624
  438MOL0     C59004   9.864  10.544   9.491 -0.5072  0.2932 -0.6203
  438MOL0     C59005   9.817  10.514   9.631  0.5578  0.2511  0.3679
  438MOL0     C59006   9.818  10.366   9.668  0.6326  0.9549 -0.4771
  438MOL0     C59007   9.730  10.274   9.595 -0.8795 -0.2722  0.0446
  438MOL0     C59008   9.736  10.131   9.629  0.5986 -0.8469 -0.2826
  438MOL0     C59009   9.850  10.051   9.567  0.3465  0.3332 -0.4791
  438MOL0     C59010   9.830   9.902   9.566  0.3391  0.4488  1.0102
  438MOL0     C59011   9.832   9.813   9.694  0.0263 -0.6571 -0.4413
  438MOL0     N59012   9.716   9.847   9.778  0.1526  0.9618 -0.5299
  438MOL0     C59013   9.591   9.793   9.760  0.6497  0.0418 -0.1931
  438MOL0     C59014   9.517   9.854   9.857  0.0872 -0.5905 -0.6257
  438MOL0     C59015   9.368   9.852   9.881  0.5033 -0.1917  0.9981
  438MOL0     C59016   9.320   9.947   9.765  0.3361  0.6205  0.3672
  438MOL0     C59017   9.168   9.941   9.725 -0.1459  1.1847  0.2528
  438MOL0     C59018   9.077   9.985   9.837  1.0957  0.3759 -0.2368
  438MOL0     O59019   8.945  10.012   9.784  0.2693  0.6170 -0.4689
  438MOL0     C59020   8.841   9.920   9.785 -0.2826  0.2482  0.0492
  438MOL0     C59021   8.856   9.794   9.834  0.7217 -0.8094 -1.4659
  438MOL0     C59022   8.745   9.702   9.817  0.3629  0.2075 -0.3001
  438MOL0     C59023   8.785   9.552   9.836  0.7030 -1.3307 -0.0262
  438MOL0     C59024   8.618   9.746   9.773  0.6499 -0.3717  0.5462
  438MOL0     C59025   8.497   9.660   9.776  0.7615 -1.4044  0.6998
  438MOL0     O59026   8.500   9.530   9.822  0.5486 -0.5894  0.1631
  438MOL0     C59027   8.375   9.466   9.819 -0.4506  0.9801  0.0911
  438MOL0     C59028   8.249   9.511   9.853  0.2990 -0.4379 -0.4264
  438MOL0     C59029   8.137   9.434   9.838 -0.2263 -0.3758  0.1332
  438MOL0     C59030   8.141   9.307   9.793 -0.5071  0.2735 -0.2378
  438MOL0     O59031   8.019   9.243   9.768  0.6504 -0.2794 -0.6685
  438MOL0     C59032   7.990   9.220   9.626  0.3132 -0.6074 -0.2659
  438MOL0     C59033   7.910   9.333   9.549 -0.6546  0.4186  0.8886
  438MOL0     C59034   7.856   9.278   9.422  0.0007  0.2575 -0.0632
  438MOL0     C59035   7.720   9.336   9.374 -0.6666 -0.2582 -0.6106
  438MOL0     C59036   7.723   9.357   9.225 -1.0392  0.1366  0.0673
  438MOL0     C59037   7.583   9.387   9.171 -0.6226 -0.0170  0.5310
  438MOL0     C59038   7.596   9.428   9.022 -0.4628 -0.5637  1.2383
  438MOL0     C59039   7.466   9.389   8.940 -0.1703 -0.7348  0.9135
  438MOL0    Cl59040   7.485   9.398   8.759  0.1670  0.2915 -0.2619
  438MOL0     C59041   8.268   9.252   9.779  0.3823  0.5626 -0.1146
  438MOL0     C59042   8.386   9.330   9.795 -0.1167  0.0485  1.1619
  438MOL0     O59043   8.390   9.721   9.735 -1.2685  0.3259 -0.0805
  438MOL0     C59044   8.617   9.866   9.723  0.2770 -0.0542 -0.1381
  438MOL0     C59045   8.725   9.953   9.721  0.2756 -0.2444 -0.2938
  438MOL0     N59046   9.602   9.936   9.940  0.1280  0.2244  0.5220
  438MOL0     N59047   9.718   9.934   9.885 -0.8603 -0.5308 -1.3086
  438MOL0     C59048   9.884  10.892   9.365  0.0947 -0.4238  0.4746
  438MOL0     C59049   9.904  10.960   9.243 -0.3064 -0.6909  0.6898
  438MOL0     C59050   9.974  11.087   8.809  0.5665  0.2518 -0.7338
  438MOL0     C59051  10.086  11.017   8.758  0.7919 -0.2988 -0.1663
  438MOL0     C59052  10.122  11.041   8.631 -0.9273  0.3091  0.3271
  438MOL0     C59053  10.075  11.143   8.552  0.7341  0.6521 -0.8035
  438MOL0     O59054  10.140  11.164   8.435  0.8174  0.0733  0.2314
  438MOL0     C59055  10.075  11.235   8.327  0.4498  0.6018  1.0429
  438MOL0     C59056  10.116  11.182   8.189  0.0500 -0.3575 -0.2342
  438MOL0     C59057  10.048  11.045   8.152 -0.6197  0.6013  0.0126
  438MOL0     C59058  10.127  10.919   8.220  1.3032  0.1381  0.4692
  438MOL0     C59059  10.074  10.785   8.172  0.2984  0.6231  0.0042
  438MOL0     C59060  10.033  10.671   8.166 -0.0185  0.2232 -0.7982
  438MOL0     C59061   9.966  11.216   8.603 -1.2854  0.0319 -0.6966
  438MOL0     C59062   9.921  11.189   8.730  0.1872  0.0623 -0.4207
  438MOL0     H59063   9.959  10.679   9.054  2.5797 -4.4745  3.2698
  438MOL0     H59064   9.918  10.571   9.262  2.1838  0.5593  3.6484
  438MOL0     H59065   9.793  10.511   9.414  2.4932  0.1695 -3.5320
  438MOL0     H59066   9.953  10.487   9.464 -0.5268  0.9235 -2.1111
  438MOL0     H59067   9.881  10.574   9.696 -1.8748  3.5617 -0.0299
  438MOL0     H59068   9.717  10.553   9.650  0.5185 -1.0214  3.4581
  438MOL0     H59069   9.915  10.319   9.654 -1.2579 -3.3384 -0.6499
  438MOL0     H59070   9.784  10.344   9.769  0.4582  0.5931 -0.6113
  438MOL0     H59071   9.627  10.312   9.601 -0.5211  0.6762  0.3653
  438MOL0     H59072   9.763  10.280   9.491  0.7820 -0.2646  0.5459
  438MOL0     H59073   9.733  10.126   9.738 -3.4443 -0.8356 -0.2246
  438MOL0     H59074   9.645  10.101   9.575  0.2168  2.6920 -1.8841
  438MOL0     H59075   9.867  10.085   9.465  1.6124 -3.1604 -1.5797
  438MOL0     H59076   9.940  10.079   9.623 -0.1206  2.4450 -0.7087
  438MOL0     H59077   9.736   9.874   9.517 -0.4557  2.7390  1.0930
  438MOL0     H59078   9.908   9.866   9.500 -0.9163  1.3483 -1.0626
  438MOL0     H59079   9.917   9.838   9.757 -0.6303  1.3579 -0.2531
  438MOL0     H59080   9.827   9.705   9.679  2.9736 -0.8225 -0.7497
  438MOL0     H59081   9.559   9.721   9.686 -1.0439 -0.3504  0.8738
  438MOL0     H59082   9.327   9.751   9.872 -0.7373  0.3905 -0.2635
  438MOL0     H59083   9.336   9.895   9.976  1.8930  0.7244  1.0744
  438MOL0     H59084   9.378   9.936   9.674  0.8222 -0.5743  0.8037
  438MOL0     H59085   9.334  10.054   9.788 -1.4561  0.5754  1.9679
  438MOL0     H59086   9.145   9.840   9.689 -0.9167  0.9565  1.3383
  438MOL0     H59087   9.147  10.014   9.647  1.1172  1.9871  0.6406
  438MOL0     H59088   9.104  10.080   9.885 -1.7563  0.3465  1.6339
  438MOL0     H59089   9.067   9.922   9.926  2.7127  0.8027  0.2781
  438MOL0     H59090   8.942   9.747   9.881  0.2154  0.6985  1.1789
  438MOL0     H59091   8.730   9.476   9.779  0.6518 -1.5204  0.2703
  438MOL0     H59092   8.888   9.537   9.803 -0.4295 -2.4376 -3.4532
  438MOL0     H59093   8.771   9.524   9.941 -1.2364 -2.5078 -0.5237
  438MOL0     H59094   8.218   9.612   9.875  0.1586 -0.6515  0.3944
  438MOL0     H59095   8.038   9.477   9.844 -1.7443 -3.5668 -0.3477
  438MOL0     H59096   8.075   9.192   9.564 -0.1823 -1.6445 -0.4965
  438MOL0     H59097   7.928   9.130   9.622  0.8842 -0.9929 -0.5226
  438MOL0     H59098   7.829   9.354   9.619  0.2289 -0.6045  2.2633
  438MOL0     H59099   7.971   9.423   9.538 -0.7855  0.6928  2.2695
  438MOL0     H59100   7.824   9.175   9.439 -0.6590  0.7077  1.6519
  438MOL0     H59101   7.934   9.269   9.346  1.2975 -0.0605  1.2490
  438MOL0     H59102   7.638   9.263   9.380 -0.6856 -0.1173  1.3590
  438MOL0     H59103   7.693   9.430   9.422 -1.0621 -0.6754 -0.0066
  438MOL0     H59104   7.763   9.269   9.174 -0.7081  1.8018 -2.7461
  438MOL0     H59105   7.786   9.442   9.196 -3.2894  1.1482 -2.2160
  438MOL0     H59106   7.520   9.298   9.188 -0.3712  0.0513  2.0126
  438MOL0     H59107   7.545   9.472   9.228  1.4894  0.3646  1.4550
  438MOL0     H59108   7.689   9.380   8.990  0.0032  1.1965 -0.1849
  438MOL0     H59109   7.613   9.535   9.010  2.2117 -1.2043 -2.2288
  438MOL0     H59110   7.395   9.466   8.970 -1.1795 -0.9993 -0.7128
  438MOL0     H59111   7.423   9.290   8.960 -4.5214  0.6913 -0.3189
  438MOL0     H59112   8.287   9.148   9.754 -0.7420  0.7593 -2.0659
  438MOL0     H59113   8.482   9.283   9.772 -2.2725 -2.9394 -3.1166
  438MOL0     H59114   8.522   9.910   9.695 -0.4698 -0.4975  1.5388
  438MOL0     H59115   8.718  10.054   9.683  1.3373  1.1347  2.8056
  438MOL0     H59116   9.873  10.950   9.456  1.5042 -1.2994  1.2355
  438MOL0     H59117   9.884  11.066   9.243  2.9473  0.0284 -0.2083
  438MOL0     H59118  10.136  10.939   8.814 -1.3043 -1.8782 -0.3566
  438MOL0     H59119  10.200  10.975   8.595 -0.5752 -0.4109  2.2672
  438MOL0     H59120   9.966  11.222   8.327  0.4983 -0.4309 -1.4009
  438MOL0     H59121  10.101  11.341   8.326 -0.9353  0.9655  1.3490
  438MOL0     H59122  10.224  11.184   8.173 -0.2117 -0.0544 -2.1626
  438MOL0     H59123  10.071  11.252   8.119  2.9217  2.1288  0.1964
  438MOL0     H59124  10.050  11.029   8.043 -0.4795 -1.3089  0.2527
  438MOL0     H59125   9.945  11.053   8.187 -0.7664 -2.5537  0.5851
  438MOL0     H59126  10.092  10.919   8.324 -3.4664 -1.0580 -0.8434
  438MOL0     H59127  10.236  10.918   8.212  1.2246  0.8074 -1.0264
  438MOL0     H59128   9.974  10.584   8.187 -1.0907  0.9492 -0.7002
  438MOL0     H59129   9.924  11.296   8.542 -2.5524  0.7506  1.0465
  438MOL0     H59130   9.835  11.237   8.774 -1.4711 -0.1245 -3.2415
  439MOL0     O59131   4.495   7.519   9.487 -0.2977 -0.4549  0.2097
  439MOL0     C59132   4.383   7.572   9.502 -0.6711 -0.2449 -0.4282
  439MOL0     O59133   4.296   7.606   9.410  0.0275 -0.5993 -0.1659
  439MOL0     C59134   4.334   7.630   9.285 -0.0872 -0.1176 -0.7918
  439MOL0     C59135   4.444   7.705   9.258  0.3209 -0.2540 -0.0947
  439MOL0     C59136   4.476   7.743   9.125 -0.1047  0.4775 -0.5716
  439MOL0     C59137   4.386   7.706   9.017 -0.5030 -0.7751 -0.8416
  439MOL0     O59138   4.424   7.743   8.885 -0.7189 -0.2890 -0.0556
  439MOL0     C59139   4.445   7.879   8.862  1.0032  0.7251 -0.4548
  439MOL0     C59140   4.416   7.903   8.716 -0.3110  0.6505 -0.4626
  439MOL0     C59141   4.442   8.046   8.676  0.5803  0.6254  0.0461
  439MOL0     C59142   4.421   8.054   8.528  0.1961  0.0425 -0.9402
  439MOL0     C59143   4.416   8.211   8.475  0.1424  0.9681 -0.0748
  439MOL0     C59144   4.293   8.300   8.515 -0.0612  1.1806  0.0977
  439MOL0     C59145   4.315   8.447   8.479 -0.5043 -0.0902 -0.0367
  439MOL0     C59146   4.332   8.474   8.330  0.0303 -0.1724 -0.6290
  439MOL0     N59147   4.212   8.442   8.252  0.0743  0.4472  0.4182
  439MOL0     C59148   4.077   8.476   8.287 -0.8175  0.1536  0.7884
  439MOL0     C59149   3.997   8.400   8.204 -1.6786  0.0721 -0.0403
  439MOL0     C59150   3.850   8.396   8.198 -0.1270  0.4498  0.1402
  439MOL0     C59151   3.797   8.408   8.341 -0.0384  0.6236 -0.7085
  439MOL0     C59152   3.643   8.412   8.353 -0.2314  0.2045 -0.2323
  439MOL0     C59153   3.572   8.279   8.391  0.6366  0.1252  0.1219
  439MOL0     O59154   3.591   8.238   8.528  1.0530 -0.8441  0.4101
  439MOL0     C59155   3.594   8.114   8.573 -0.2151  0.2672 -0.4105
  439MOL0     C59156   3.539   8.005   8.492  0.4039 -0.8368 -0.7244
  439MOL0     C59157   3.550   7.874   8.533  0.1274  0.0559  0.3298
  439MOL0     C59158   3.485   7.777   8.440  0.0954  0.6285 -0.3822
  439MOL0     C59159   3.605   7.849   8.663 -0.5086 -0.7537 -0.5263
  439MOL0     C59160   3.639   7.715   8.712 -1.0103 -0.8174  0.1422
  439MOL0     O59161   3.616   7.693   8.841 -0.2812  0.1650 -0.3327
  439MOL0     C59162   3.674   7.576   8.883 -0.7545  0.1538  0.0410
  439MOL0     C59163   3.615   7.453   8.871  0.0569  0.4895 -0.6675
  439MOL0     C59164   3.667   7.324   8.907  0.7821  0.2997  0.2530
  439MOL0     C59165   3.805   7.341   8.950  0.8452  0.1118  0.0035
  439MOL0     O59166   3.882   7.229   8.964 -0.5928  1.1129  0.1005
  439MOL0     C59167   3.808   7.099   8.973  0.2433 -0.1822 -1.0458
  439MOL0     C59168   3.911   6.988   8.992  0.0683  0.6903 -0.4222
  439MOL0     C59169   4.019   6.995   8.886 -0.2774 -1.3357 -0.1479
  439MOL0     C59170   3.957   6.998   8.746  1.0693  0.6796 -0.1864
  439MOL0     C59171   4.061   6.988   8.639  0.1927  0.2567 -1.3919
  439MOL0     C59172   3.995   6.988   8.501 -0.6941 -0.1200 -0.2011
  439MOL0     C59173   4.100   6.974   8.392  0.3951  0.6422  0.3688
  439MOL0     C59174   4.035   6.937   8.256 -0.1068 -0.8462 -0.3734
  439MOL0    Cl59175   3.914   7.061   8.189 -0.0587  0.5879  0.1097
  439MOL0     C59176   3.866   7.464   8.974  0.3021  0.3244 -0.0131
  439MOL0     C59177   3.799   7.584   8.945 -0.2175  0.3415  0.0026
  439MOL0     O59178   3.708   7.642   8.635  0.1856  0.1638  0.4190
  439MOL0     C59179   3.644   7.956   8.743  1.3425  0.2219  0.5317
  439MOL0     C59180   3.653   8.083   8.698 -0.9207  0.3218 -0.0097
  439MOL0     N59181   4.087   8.327   8.123 -0.5029 -0.6077  0.4307
  439MOL0     N59182   4.204   8.359   8.149  0.0495 -0.1981  0.0828
  439MOL0     C59183   4.277   7.625   9.051 -0.1577  0.1968  0.3420
  439MOL0     C59184   4.245   7.595   9.187  0.6193  0.4184  0.7041
  439MOL0     C59185   4.338   7.599   9.635 -0.1308 -0.3822 -0.3327
  439MOL0     C59186   4.433   7.605   9.733 -0.7090  0.1915  0.9177
  439MOL0     C59187   4.402   7.597   9.870  0.4950  0.2099  0.2648
  439MOL0     C59188   4.264   7.605   9.905 -0.8332 -0.2487 -0.3139
  439MOL0     O59189   4.210   7.593  10.035 -0.4444 -0.7623  0.2416
  439MOL0     C59190   4.304   7.637  10.138  0.3274  1.0552  0.3435
  439MOL0     C59191   4.317   7.792  10.125  0.8886  0.3975 -0.9725
  439MOL0     C59192   4.434   7.840  10.211 -0.3478 -0.2850 -0.4821
  439MOL0     C59193   4.423   7.815  10.364 -0.6490  0.4149  0.0342
  439MOL0     C59194   4.329   7.916  10.424 -0.3435  0.6998  0.0609
  439MOL0     C59195   4.227   7.983  10.456  0.9022 -0.4295 -0.4474
  439MOL0     C59196   4.168   7.594   9.802 -0.3406  0.1502  0.6378
  439MOL0     C59197   4.203   7.588   9.669 -0.7213 -0.4791 -0.1956
  439MOL0     H59198   4.518   7.740   9.330 -1.3456  1.2455  0.9959
  439MOL0     H59199   4.569   7.798   9.109  1.4161 -1.7238  0.1454
  439MOL0     H59200   4.371   7.943   8.910 -2.9566 -0.8541 -3.8438
  439MOL0     H59201   4.543   7.913   8.896  0.4868  0.7916  1.0744
  439MOL0     H59202   4.487   7.839   8.664  2.2374  0.3179  3.0800
  439MOL0     H59203   4.312   7.879   8.691 -0.0842 -0.5700 -0.2775
  439MOL0     H59204   4.369   8.105   8.732 -0.5524 -1.9349  1.4469
  439MOL0     H59205   4.541   8.089   8.694  1.5202 -1.4692  0.1907
  439MOL0     H59206   4.510   8.013   8.480  2.2199  1.9319  0.9673
  439MOL0     H59207   4.327   8.000   8.507 -2.0445  3.6365 -1.0497
  439MOL0     H59208   4.504   8.264   8.514  2.1187 -3.4026  2.0306
  439MOL0     H59209   4.426   8.205   8.367  2.7226  0.3979  0.1336
  439MOL0     H59210   4.204   8.265   8.462 -0.9062  1.8960  1.0056
  439MOL0     H59211   4.246   8.290   8.613 -2.1331 -2.8063 -1.1031
  439MOL0     H59212   4.230   8.503   8.519 -1.2203  1.3463 -3.2627
  439MOL0     H59213   4.405   8.486   8.527 -0.0651 -4.1802  3.0728
  439MOL0     H59214   4.422   8.420   8.297  0.8064  0.7674 -0.0947
  439MOL0     H59215   4.346   8.582   8.330 -1.2285  0.0478  1.9993
  439MOL0     H59216   4.064   8.564   8.349 -1.6515 -0.2038  1.1347
  439MOL0     H59217   3.801   8.467   8.132  0.1008 -1.5185 -2.2986
  439MOL0     H59218   3.804   8.302   8.166 -2.5511  1.4288  0.5360
  439MOL0     H59219   3.834   8.502   8.383 -0.1531  0.1259  0.5669
  439MOL0     H59220   3.834   8.329   8.407 -0.6847  1.3898  0.6159
  439MOL0     H59221   3.593   8.444   8.261 -2.4558 -0.9127  0.5036
  439MOL0     H59222   3.610   8.479   8.433  1.4999  0.5925  0.2054
  439MOL0     H59223   3.605   8.203   8.319  0.6989  0.6396 -0.4005
  439MOL0     H59224   3.464   8.283   8.373  0.3777 -3.2035  0.2300
  439MOL0     H59225   3.478   8.033   8.407 -1.1574  0.1096  0.6498
  439MOL0     H59226   3.402   7.727   8.492  1.4425  0.7679  2.0810
  439MOL0     H59227   3.448   7.824   8.349  2.1074  1.0061 -1.0535
  439MOL0     H59228   3.557   7.699   8.411 -2.1542 -0.6491 -2.9399
  439MOL0     H59229   3.514   7.451   8.831  0.2932  0.6687 -1.2875
  439MOL0     H59230   3.612   7.230   8.916  2.7947 -0.6994  4.0504
  439MOL0     H59231   3.744   7.096   9.062  1.0418  2.2042 -0.3198
  439MOL0     H59232   3.736   7.073   8.894 -3.6510 -1.5342  2.5437
  439MOL0     H59233   3.957   7.006   9.089 -3.0757  2.2480  0.9226
  439MOL0     H59234   3.856   6.894   8.981  1.6438  0.0550 -4.6464
  439MOL0     H59235   4.084   6.908   8.899 -0.7821 -1.5890  0.8536
  439MOL0     H59236   4.068   7.092   8.898 -2.3957  0.1339 -2.5135
  439MOL0     H59237   3.893   6.910   8.735  1.5448  0.0538  1.6537
  439MOL0     H59238   3.896   7.084   8.717  0.9393  0.6132 -0.1119
  439MOL0     H59239   4.119   6.897   8.661  0.9784  1.4946  2.5271
  439MOL0     H59240   4.131   7.070   8.657 -2.9305  2.9740 -0.5905
  439MOL0     H59241   3.922   6.907   8.496 -1.3090  0.3502  0.9377
  439MOL0     H59242   3.947   7.086   8.493  0.7119  1.0210  3.4788
  439MOL0     H59243   4.169   6.894   8.421  0.9606  0.6216 -0.9683
  439MOL0     H59244   4.156   7.067   8.382 -1.7704  2.3266  2.7053
  439MOL0     H59245   3.996   6.837   8.272 -2.7329 -0.3534 -2.9563
  439MOL0     H59246   4.120   6.921   8.189  1.4737 -3.6113  2.0533
  439MOL0     H59247   3.968   7.472   9.008  0.4100  3.4714 -0.7282
  439MOL0     H59248   3.850   7.679   8.948 -0.8838  0.7272 -0.6396
  439MOL0     H59249   3.708   7.928   8.827 -0.1417  1.7109  2.2282
  439MOL0     H59250   3.713   8.150   8.758  2.2296 -2.0248 -0.2430
  439MOL0     H59251   4.223   7.586   8.965 -3.0119  0.2483  1.9780
  439MOL0     H59252   4.153   7.542   9.209 -0.7201  0.3107 -4.1538
  439MOL0     H59253   4.530   7.598   9.685 -2.1159  2.2936 -2.6822
  439MOL0     H59254   4.481   7.583   9.942 -1.5672  2.0405  3.1290
  439MOL0     H59255   4.269   7.608  10.237 -0.5097  1.5394  0.2022
  439MOL0     H59256   4.404   7.594  10.132 -0.4043 -0.6189 -0.6639
  439MOL0     H59257   4.224   7.839  10.157 -0.0190 -2.1231  0.4238
  439MOL0     H59258   4.332   7.827  10.022  1.9917 -0.0085 -0.9677
  439MOL0     H59259   4.457   7.947  10.202 -4.6629  0.9322  0.4993
  439MOL0     H59260   4.520   7.784  10.173  0.3128  0.1156  0.4055
  439MOL0     H59261   4.522   7.828  10.410 -0.1751 -1.0892 -0.5107
  439MOL0     H59262   4.388   7.716  10.396 -0.7565  0.7747  1.0827
  439MOL0     H59263   4.145   8.039  10.496 -0.0977 -1.3697 -1.1247
  439MOL0     H59264   4.060   7.587   9.811 -0.4258  1.2899  0.5804
  439MOL0     H59265   4.134   7.580   9.586  0.8735  1.9692 -1.8980
  440MOL0     O59266  11.193   5.346  10.779 -0.0136 -0.1086 -0.1530
  440MOL0     C59267  11.261   5.386  10.878 -0.1871  0.5770  0.6029
  440MOL0     O59268  11.228   5.497  10.947 -0.1728 -0.4689  0.9634
  440MOL0     C59269  11.145   5.599  10.901 -0.2010  0.5504  0.0194
  440MOL0     C59270  11.089   5.687  10.989 -0.3619  1.0807  0.0225
  440MOL0     C59271  10.994   5.781  10.959 -0.2087 -0.2164  0.7302
  440MOL0     C59272  10.944   5.792  10.826 -0.5979  0.6832 -0.8748
  440MOL0     O59273  10.843   5.876  10.795  0.6022 -0.3423  0.6980
  440MOL0     C59274  10.717   5.852  10.860  0.8969  0.3018  0.2955
  440MOL0     C59275  10.596   5.882  10.772  0.3704  0.6085 -0.2162
  440MOL0     C59276  10.462   5.834  10.820 -0.4094  0.4002  0.7225
  440MOL0     C59277  10.358   5.881  10.716  0.0521 -1.3720  0.1447
  440MOL0     C59278  10.213   5.856  10.756  0.1329  0.5085 -0.5985
  440MOL0     C59279  10.117   5.881  10.647 -0.0744  0.9071  0.7620
  440MOL0     C59280   9.974   5.860  10.687  0.1950  0.1911 -0.4074
  440MOL0     C59281   9.868   5.893  10.592 -0.2155 -0.0984 -0.1191
  440MOL0     N59282   9.859   6.039  10.568 -0.8218  0.0895  0.1215
  440MOL0     C59283   9.795   6.139  10.645  0.5805 -0.4711  0.0218
  440MOL0     C59284   9.792   6.241  10.556 -0.2150  1.0789  0.6847
  440MOL0     C59285   9.700   6.361  10.580  0.2323 -0.8431 -0.1180
  440MOL0     C59286   9.762   6.488  10.546  0.0496 -0.7728  0.3254
  440MOL0     C59287   9.849   6.546  10.657  0.7146 -1.2762 -0.9544
  440MOL0     C59288   9.960   6.464  10.704 -1.1190  1.0781 -0.6235
  440MOL0     O59289  10.020   6.524  10.825  0.0094  0.9957 -0.0268
  440MOL0     C59290  10.134   6.465  10.882 -1.2674 -0.3146  0.3014
  440MOL0     C59291  10.154   6.488  11.016 -0.0234  0.8464 -0.3903
  440MOL0     C59292  10.262   6.440  11.083 -0.8968 -0.0859 -1.0808
  440MOL0     C59293  10.306   6.510  11.213 -0.5218  0.0024 -0.7671
  440MOL0     C59294  10.346   6.349  11.019  0.1790  0.7296  0.2463
  440MOL0     C59295  10.467   6.291  11.085  0.7828 -0.3687  0.7159
  440MOL0     O59296  10.564   6.386  11.115  0.3313 -0.4073 -0.0348
  440MOL0     C59297  10.694   6.345  11.135  0.8566  0.0814 -0.4607
  440MOL0     C59298  10.794   6.427  11.084 -1.1305  0.3776 -0.5314
  440MOL0     C59299  10.927   6.401  11.125 -0.3496 -0.1764  0.5992
  440MOL0     C59300  10.959   6.297  11.207  0.3797 -0.4326 -0.4679
  440MOL0     O59301  11.084   6.262  11.239 -0.0581  0.2106  0.0672
  440MOL0     C59302  11.151   6.181  11.146 -0.5489  0.1553  0.6060
  440MOL0     C59303  11.309   6.196  11.172 -0.2244 -0.6537  0.3232
  440MOL0     C59304  11.364   6.337  11.134 -0.1876  0.8120  0.6938
  440MOL0     C59305  11.506   6.345  11.164 -0.4830 -0.3526  0.2852
  440MOL0     C59306  11.573   6.477  11.115  0.0072  0.0642  0.1374
  440MOL0     C59307  11.718   6.496  11.157  0.5001 -0.0348  0.3846
  440MOL0     C59308  11.767   6.634  11.117 -0.1937 -0.0105  0.2417
  440MOL0     C59309  11.917   6.649  11.093 -0.4248 -0.2687 -0.7002
  440MOL0    Cl59310  12.000   6.514  11.000  0.2369  0.4401 -0.3843
  440MOL0     C59311  10.860   6.212  11.253  0.2254 -0.6753 -0.1059
  440MOL0     C59312  10.727   6.239  11.222 -0.3900 -1.7302 -0.0810
  440MOL0     O59313  10.492   6.173  11.063 -0.3984 -0.0877  0.4828
  440MOL0     C59314  10.325   6.314  10.889  0.6198 -0.1198 -0.8104
  440MOL0     C59315  10.214   6.367  10.818 -0.4576 -0.3514  0.1141
  440MOL0     N59316   9.864   6.209  10.443 -0.1285  0.3233 -0.5477
  440MOL0     N59317   9.916   6.092  10.459 -1.0597  0.6421  0.2023
  440MOL0     C59318  11.004   5.706  10.725  1.6422 -1.1183  0.6954
  440MOL0     C59319  11.100   5.607  10.767  0.0301  0.1065 -0.1219
  440MOL0     C59320  11.361   5.305  10.942  0.2226  0.5903 -0.4702
  440MOL0     C59321  11.456   5.371  11.028  0.0288  0.3721  0.9801
  440MOL0     C59322  11.552   5.294  11.089  0.0105  1.3645  0.0153
  440MOL0     C59323  11.570   5.153  11.060  0.1800 -1.0862  0.0143
  440MOL0     O59324  11.674   5.087  11.122 -0.9032  0.8070 -0.4246
  440MOL0     C59325  11.694   4.939  11.097  0.5587  0.0885  0.0409
  440MOL0     C59326  11.807   4.908  11.187 -0.4879 -0.7726  0.2030
  440MOL0     C59327  11.927   4.986  11.146  0.6137  0.0966  0.8824
  440MOL0     C59328  12.043   4.958  11.246  0.9456 -0.0443  0.2535
  440MOL0     C59329  12.140   4.869  11.199 -0.6074  1.2011 -0.0136
  440MOL0     C59330  12.224   4.783  11.172  0.5215  0.5159 -0.0638
  440MOL0     C59331  11.473   5.094  10.981  0.0158 -0.2251 -0.3506
  440MOL0     C59332  11.371   5.171  10.923  0.5529  0.0569  0.6374
  440MOL0     H59333  11.112   5.669  11.094  0.4705 -2.8870 -0.6757
  440MOL0     H59334  10.944   5.839  11.036  0.9029 -1.0577  2.1385
  440MOL0     H59335  10.717   5.745  10.885  1.3564  0.1349 -0.3977
  440MOL0     H59336  10.713   5.905  10.956 -1.8365  1.1346 -0.1856
  440MOL0     H59337  10.595   5.991  10.759 -0.3675  0.5461 -0.7401
  440MOL0     H59338  10.605   5.843  10.670 -0.1044 -0.8419  0.2761
  440MOL0     H59339  10.458   5.726  10.840 -1.2616  0.3768  0.4532
  440MOL0     H59340  10.448   5.877  10.920  2.7771  3.5589  0.0240
  440MOL0     H59341  10.364   5.990  10.706  4.4331 -1.3930  0.5788
  440MOL0     H59342  10.386   5.837  10.620 -0.2581  1.7676 -1.5143
  440MOL0     H59343  10.217   5.749  10.780  0.5615  0.7796  0.6245
  440MOL0     H59344  10.186   5.901  10.852  1.2259 -1.7668  0.8712
  440MOL0     H59345  10.128   5.984  10.612 -2.1605  0.6299 -0.9373
  440MOL0     H59346  10.135   5.812  10.564  2.3596 -0.0478  1.9861
  440MOL0     H59347   9.971   5.757  10.724  3.4584  0.6243  1.4261
  440MOL0     H59348   9.945   5.926  10.769  0.4057 -0.2698  0.0493
  440MOL0     H59349   9.764   5.870  10.620 -0.4868  1.9773  0.7248
  440MOL0     H59350   9.897   5.839  10.501  0.1182 -0.7046  0.3467
  440MOL0     H59351   9.748   6.127  10.742  3.5656  1.0094  1.8040
  440MOL0     H59352   9.609   6.349  10.521 -1.4558  4.4418  0.8231
  440MOL0     H59353   9.674   6.352  10.686 -1.9980 -2.7281 -0.7661
  440MOL0     H59354   9.689   6.566  10.522  2.6615  0.9819 -2.8067
  440MOL0     H59355   9.827   6.473  10.459  0.9466 -0.7656  0.9779
  440MOL0     H59356   9.787   6.569  10.744  2.3314  2.2803 -0.5474
  440MOL0     H59357   9.888   6.644  10.628  0.7898 -0.9600  0.1900
  440MOL0     H59358  10.048   6.464  10.639 -1.0274 -1.2716 -0.5671
  440MOL0     H59359   9.928   6.362  10.728 -1.3833  1.1743 -0.5676
  440MOL0     H59360  10.098   6.568  11.063 -2.8114 -0.6277 -1.0028
  440MOL0     H59361  10.241   6.594  11.239  0.0768 -0.8422  4.4878
  440MOL0     H59362  10.284   6.444  11.297  0.9758 -0.7207 -0.9075
  440MOL0     H59363  10.407   6.552  11.218 -0.7336  0.3522  2.4981
  440MOL0     H59364  10.774   6.513  11.021  1.4068  2.0730  0.7787
  440MOL0     H59365  11.005   6.460  11.080  0.4094 -0.4926  1.4692
  440MOL0     H59366  11.121   6.077  11.151  0.4071 -0.0958  1.3002
  440MOL0     H59367  11.134   6.219  11.044  0.7949 -0.6007  0.0643
  440MOL0     H59368  11.322   6.178  11.279 -0.3170  3.3981  1.1760
  440MOL0     H59369  11.361   6.116  11.119 -1.5252  0.7721 -3.3969
  440MOL0     H59370  11.303   6.420  11.171 -0.9393  0.3208  0.5853
  440MOL0     H59371  11.343   6.323  11.028 -3.9388  0.2065  1.3797
  440MOL0     H59372  11.522   6.337  11.272 -0.5131 -1.6514  0.2165
  440MOL0     H59373  11.555   6.259  11.117  1.8018  0.4908  0.9902
  440MOL0     H59374  11.509   6.559  11.149 -3.3707 -1.8883 -0.9617
  440MOL0     H59375  11.572   6.487  11.006 -0.0601 -0.0524  0.1263
  440MOL0     H59376  11.733   6.479  11.264  2.8639 -0.5216  0.0300
  440MOL0     H59377  11.779   6.425  11.101 -2.0500  1.4373 -4.8276
  440MOL0     H59378  11.723   6.709  11.184  0.8874  2.7904 -1.9790
  440MOL0     H59379  11.730   6.656  11.017  0.5230  1.1093  0.2119
  440MOL0     H59380  11.963   6.655  11.192  0.9807 -1.8518 -1.1976
  440MOL0     H59381  11.930   6.746  11.046 -1.6213  0.7991  1.0511
  440MOL0     H59382  10.881   6.121  11.309 -1.4028 -0.2652  1.2140
  440MOL0     H59383  10.651   6.182  11.274 -0.1585 -0.4665  1.7619
  440MOL0     H59384  10.387   6.253  10.824  0.4704 -1.3760  0.1920
  440MOL0     H59385  10.205   6.328  10.717  0.2668  3.0486 -1.4052
  440MOL0     H59386  10.974   5.708  10.621  1.6667 -2.1792  0.6621
  440MOL0     H59387  11.158   5.559  10.688  0.6108  2.2227 -1.0578
  440MOL0     H59388  11.445   5.477  11.045  0.4063  0.3236  1.5722
  440MOL0     H59389  11.631   5.335  11.150 -0.8064  0.4729  1.7390
  440MOL0     H59390  11.605   4.891  11.137  1.6185 -0.5925  1.7173
  440MOL0     H59391  11.699   4.919  10.990 -0.4429  0.2832 -0.0509
  440MOL0     H59392  11.843   4.805  11.182 -1.2156 -1.0478  0.5668
  440MOL0     H59393  11.791   4.932  11.293  3.0202  4.4877 -0.0439
  440MOL0     H59394  11.909   5.093  11.141  2.4874  0.5056  1.9049
  440MOL0     H59395  11.961   4.963  11.044  4.8211 -0.8127  2.2816
  440MOL0     H59396  12.007   4.929  11.345  1.2968 -1.7987 -0.0944
  440MOL0     H59397  12.091   5.055  11.260  0.4299  0.2254  0.1876
  440MOL0     H59398  12.298   4.713  11.140  0.9812  0.9510  0.0317
  440MOL0     H59399  11.492   4.990  10.958 -1.0741  0.2703 -4.1098
  440MOL0     H59400  11.305   5.111  10.861  1.2715 -2.4343  2.1888
  441MOL0     O59401   7.029   6.348   0.271 -0.6246 -0.5791  0.0527
  441MOL0     C59402   7.109   6.433   0.285 -1.0701  0.1707  0.5593
  441MOL0     O59403   7.185   6.483   0.185  0.4446 -0.2440  0.0237
  441MOL0     C59404   7.168   6.443   0.051 -0.3553 -0.2429  0.1240
  441MOL0     C59405   7.261   6.365  -0.008 -0.1917  0.3267 -0.2781
  441MOL0     C59406   7.262   6.327  -0.139  0.0856  0.0676  0.0184
  441MOL0     C59407   7.160   6.372  -0.215  0.4304  0.1880  0.4212
  441MOL0     O59408   7.182   6.358  -0.348 -0.0559  0.9181  0.1029
  441MOL0     C59409   7.141   6.461  -0.438 -0.4905 -0.7260  0.2199
  441MOL0     C59410   7.252   6.562  -0.465 -0.0201  0.2049  0.3166
  441MOL0     C59411   7.380   6.508  -0.539  0.1361  1.2325 -0.7794
  441MOL0     C59412   7.357   6.409  -0.659  0.1942  0.6180  0.0079
  441MOL0     C59413   7.490   6.379  -0.732 -0.9376  0.8597  0.3282
  441MOL0     C59414   7.475   6.289  -0.858 -0.6530  0.8042  0.0249
  441MOL0     C59415   7.575   6.306  -0.972 -1.5008  0.4162  0.2312
  441MOL0     C59416   7.544   6.193  -1.076  0.6534 -0.3585  0.5544
  441MOL0     N59417   7.631   6.170  -1.187 -0.3907 -0.1367 -0.4374
  441MOL0     C59418   7.766   6.157  -1.188 -0.6727  0.5018  0.3412
  441MOL0     C59419   7.788   6.110  -1.313  0.6874  0.4398 -1.2011
  441MOL0     C59420   7.931   6.079  -1.363  0.6671  0.3803  0.6729
  441MOL0     C59421   7.973   6.166  -1.488 -0.0369  0.0319 -0.0025
  441MOL0     C59422   8.057   6.082  -1.585 -0.1197  0.1313 -0.6360
  441MOL0     C59423   8.203   6.042  -1.541 -1.1482  0.3487 -0.9074
  441MOL0     O59424   8.219   6.014  -1.403  0.1111  0.8709 -0.2278
  441MOL0     C59425   8.322   5.922  -1.380 -0.6022  0.7128 -0.9974
  441MOL0     C59426   8.429   5.976  -1.318  0.3878  0.2058 -0.2323
  441MOL0     C59427   8.545   5.903  -1.274  0.7354  0.7242  0.4483
  441MOL0     C59428   8.638   5.964  -1.170  0.5740  0.1425 -0.3135
  441MOL0     C59429   8.545   5.767  -1.310  0.0744 -1.0323 -0.3746
  441MOL0     C59430   8.647   5.675  -1.267 -0.7214  0.0111  0.4010
  441MOL0     O59431   8.620   5.574  -1.176  1.7219  0.3207  0.2773
  441MOL0     C59432   8.716   5.474  -1.154  0.6888 -0.2195 -1.1804
  441MOL0     C59433   8.764   5.388  -1.252 -0.1209 -0.5473  0.0445
  441MOL0     C59434   8.866   5.295  -1.225  0.5362 -0.3428 -0.5531
  441MOL0     C59435   8.921   5.281  -1.094  0.2936  0.3855 -0.3519
  441MOL0     O59436   9.008   5.179  -1.051 -0.7372 -0.4784  0.4119
  441MOL0     C59437   9.073   5.103  -1.151  0.0457  0.0753  0.0027
  441MOL0     C59438   9.134   4.975  -1.088  0.5319 -0.8602  0.4401
  441MOL0     C59439   9.197   4.975  -0.949  0.2338 -0.4474 -1.2646
  441MOL0     C59440   9.320   5.071  -0.948  0.2058  0.3674 -0.3993
  441MOL0     C59441   9.419   5.029  -0.838  0.8394  0.9455 -0.9217
  441MOL0     C59442   9.547   5.111  -0.827 -0.0905  0.2609  0.3569
  441MOL0     C59443   9.663   5.043  -0.743  0.4246 -0.2886 -0.5277
  441MOL0     C59444   9.781   4.985  -0.835  0.0162  0.4043  0.7273
  441MOL0    Cl59445   9.851   4.846  -0.747 -0.0778 -0.2807  0.3649
  441MOL0     C59446   8.863   5.365  -0.996 -0.0868 -0.0974 -0.4903
  441MOL0     C59447   8.754   5.449  -1.026 -0.3671 -0.2228 -1.0120
  441MOL0     O59448   8.757   5.680  -1.327 -0.0058  1.0613 -0.4719
  441MOL0     C59449   8.430   5.711  -1.373 -0.3987  0.2875  0.8956
  441MOL0     C59450   8.321   5.787  -1.403 -0.2896  0.6451 -0.2700
  441MOL0     N59451   7.674   6.091  -1.381  0.5173  0.4905  0.0643
  441MOL0     N59452   7.580   6.125  -1.303  0.4509 -0.3440 -0.1297
  441MOL0     C59453   7.045   6.431  -0.157  0.4854 -0.1554  0.6710
  441MOL0     C59454   7.054   6.473  -0.023 -0.0598  0.6024 -0.5980
  441MOL0     C59455   7.118   6.491   0.421  0.7250  0.4569 -0.7476
  441MOL0     C59456   7.191   6.616   0.441  0.6291 -0.6174  0.4363
  441MOL0     C59457   7.177   6.683   0.560 -0.2930  0.0687  0.2250
  441MOL0     C59458   7.108   6.629   0.671 -0.5316  0.2341 -0.2326
  441MOL0     O59459   7.104   6.689   0.794 -0.3809  0.2107  0.0427
  441MOL0     C59460   6.999   6.781   0.805 -0.5681  1.1636 -0.0271
  441MOL0     C59461   6.859   6.716   0.841 -0.5511 -0.0423  0.6359
  441MOL0     C59462   6.871   6.637   0.975  0.1142 -0.4111  0.4961
  441MOL0     C59463   6.874   6.726   1.102  0.8440 -0.2444 -0.9993
  441MOL0     C59464   6.785   6.669   1.212 -0.5893 -0.1177  0.2234
  441MOL0     C59465   6.712   6.611   1.283 -0.1467  0.3372  0.2446
  441MOL0     C59466   7.065   6.504   0.652 -0.5606  0.8763 -0.1790
  441MOL0     C59467   7.061   6.437   0.535  1.3130  0.3562  0.3515
  441MOL0     H59468   7.345   6.324   0.047  1.8635  1.9281 -2.0341
  441MOL0     H59469   7.344   6.267  -0.178  0.5799  1.1004 -0.5648
  441MOL0     H59470   7.103   6.416  -0.531  0.3377 -0.0225 -0.4730
  441MOL0     H59471   7.066   6.527  -0.393 -0.1626 -1.0490  1.2765
  441MOL0     H59472   7.215   6.651  -0.517  2.4720  2.7935  2.6392
  441MOL0     H59473   7.292   6.606  -0.373  0.0168  1.5059 -0.3061
  441MOL0     H59474   7.445   6.594  -0.554 -0.6763  2.2060  1.0433
  441MOL0     H59475   7.447   6.448  -0.477  1.0481 -1.8662 -4.3904
  441MOL0     H59476   7.287   6.329  -0.632  2.1491 -0.8597  0.8815
  441MOL0     H59477   7.286   6.465  -0.721  0.2284 -0.0712 -0.6646
  441MOL0     H59478   7.533   6.479  -0.748 -1.8770  1.1212 -0.7259
  441MOL0     H59479   7.544   6.317  -0.660  0.4706 -1.4956 -2.5137
  441MOL0     H59480   7.477   6.182  -0.835  1.1072  0.9644  0.7710
  441MOL0     H59481   7.374   6.320  -0.884 -0.6715  1.4545  0.8021
  441MOL0     H59482   7.580   6.399  -1.029  0.8615 -1.3978 -2.8155
  441MOL0     H59483   7.673   6.277  -0.933 -1.5784 -0.1823 -0.0138
  441MOL0     H59484   7.448   6.219  -1.121  1.2752  3.4885  1.1088
  441MOL0     H59485   7.529   6.092  -1.034  1.6458 -1.0579 -0.7338
  441MOL0     H59486   7.832   6.172  -1.102 -1.9564 -2.8540  2.0985
  441MOL0     H59487   8.011   6.092  -1.290  1.0168  0.9899  0.1956
  441MOL0     H59488   7.937   5.972  -1.384  0.4571  0.7986 -1.9287
  441MOL0     H59489   8.015   6.257  -1.445 -2.4811  1.8618 -1.2288
  441MOL0     H59490   7.888   6.201  -1.548 -0.3034 -1.4247 -0.5169
  441MOL0     H59491   8.068   6.137  -1.679  0.4160 -0.6553 -1.0532
  441MOL0     H59492   8.014   5.988  -1.622  2.7016 -2.3293  1.7682
  441MOL0     H59493   8.262   6.132  -1.559 -1.7100  0.7605 -0.6953
  441MOL0     H59494   8.244   5.966  -1.608  2.2813 -0.2799  1.6667
  441MOL0     H59495   8.406   6.074  -1.278  0.7300  0.1138  0.1991
  441MOL0     H59496   8.643   6.071  -1.189 -0.7521 -0.4351 -5.0726
  441MOL0     H59497   8.623   5.930  -1.067 -0.8360  0.6269 -0.3372
  441MOL0     H59498   8.732   5.918  -1.200  0.1804 -3.0097  2.5904
  441MOL0     H59499   8.728   5.421  -1.349 -1.1584  1.0162  0.8902
  441MOL0     H59500   8.893   5.222  -1.301 -1.1390  1.6133 -3.2149
  441MOL0     H59501   9.012   5.067  -1.235 -1.9600 -1.0834  1.8502
  441MOL0     H59502   9.155   5.157  -1.198 -0.1527 -0.8039 -1.4185
  441MOL0     H59503   9.039   4.922  -1.078 -0.9339  1.9366  2.7546
  441MOL0     H59504   9.202   4.927  -1.159  1.3497 -1.0047  1.3070
  441MOL0     H59505   9.225   4.870  -0.940 -2.1595 -1.2442 -2.1497
  441MOL0     H59506   9.125   4.986  -0.867  2.2077  0.0955  0.4604
  441MOL0     H59507   9.367   5.062  -1.046  0.7624 -5.1901  0.0903
  441MOL0     H59508   9.289   5.176  -0.942  0.2553  0.4368 -1.2286
  441MOL0     H59509   9.451   4.925  -0.852 -0.2596  0.1601  1.6936
  441MOL0     H59510   9.367   5.037  -0.742  1.4101 -0.7531 -0.4169
  441MOL0     H59511   9.592   5.120  -0.926 -0.0667 -0.1152  0.3320
  441MOL0     H59512   9.526   5.211  -0.788  0.9903  0.7213 -0.2243
  441MOL0     H59513   9.625   4.970  -0.671  2.5790 -0.4573  0.5406
  441MOL0     H59514   9.705   5.117  -0.674 -1.8306  0.6706 -0.1091
  441MOL0     H59515   9.860   5.060  -0.851 -1.6079  1.9429 -0.5445
  441MOL0     H59516   9.737   4.959  -0.932 -1.6768 -0.9529  1.7996
  441MOL0     H59517   8.901   5.344  -0.897  0.9072  1.1362 -0.5831
  441MOL0     H59518   8.711   5.498  -0.939 -1.0188 -0.7638 -1.0169
  441MOL0     H59519   8.427   5.605  -1.396 -0.2214 -0.4768  3.8929
  441MOL0     H59520   8.243   5.756  -1.471  1.7412  0.8380 -2.8676
  441MOL0     H59521   6.957   6.471  -0.207  1.0001 -0.2655 -0.3524
  441MOL0     H59522   6.967   6.516   0.025 -1.1511 -0.6091 -1.4230
  441MOL0     H59523   7.256   6.674   0.376 -0.5102  1.4865  1.0753
  441MOL0     H59524   7.210   6.787   0.564  2.6372 -0.4643 -3.7040
  441MOL0     H59525   7.019   6.843   0.893  1.8727  0.0430  0.2826
  441MOL0     H59526   6.987   6.836   0.712  0.3796  0.7213 -0.4208
  441MOL0     H59527   6.829   6.641   0.768  1.0063 -3.5035  3.2698
  441MOL0     H59528   6.787   6.798   0.842 -1.4786 -0.7790 -1.1660
  441MOL0     H59529   6.965   6.581   0.983 -0.1675 -0.7049  2.1002
  441MOL0     H59530   6.792   6.562   0.972 -0.5136  0.2702 -1.5541
  441MOL0     H59531   6.837   6.823   1.069 -0.3815 -0.9546 -1.8311
  441MOL0     H59532   6.973   6.729   1.148  1.5011 -0.8039 -2.3119
  441MOL0     H59533   6.636   6.556   1.335 -3.4816  0.8639 -3.5325
  441MOL0     H59534   7.032   6.449   0.740 -1.3225 -0.4635 -1.2697
  441MOL0     H59535   7.005   6.346   0.516 -1.3187  2.4158 -3.2219
  442MOL0     O59536   2.571   3.833   5.096  0.1687  0.0930  0.3907
  442MOL0     C59537   2.466   3.789   5.045  0.5081 -0.2017  0.6826
  442MOL0     O59538   2.342   3.787   5.111  0.6256 -0.5267 -0.4132
  442MOL0     C59539   2.320   3.860   5.223  0.2351  0.1462  0.0589
  442MOL0     C59540   2.257   3.788   5.331  0.1223  0.4357 -1.0090
  442MOL0     C59541   2.227   3.858   5.452 -1.2782 -0.2487  0.6522
  442MOL0     C59542   2.267   3.992   5.468 -0.2964  0.4373  0.2949
  442MOL0     O59543   2.219   4.055   5.582 -0.0265  0.6237 -0.2775
  442MOL0     C59544   2.314   4.122   5.668 -0.6019  1.0323 -1.1172
  442MOL0     C59545   2.265   4.133   5.813 -0.3097  0.3414  0.0011
  442MOL0     C59546   2.113   4.159   5.822  0.8586  0.4155  0.8766
  442MOL0     C59547   2.059   4.106   5.960 -0.6718  0.4133 -0.0765
  442MOL0     C59548   1.908   4.098   5.985  0.1495 -0.1869 -0.0240
  442MOL0     C59549   1.838   4.225   5.953 -0.1055 -0.1401  0.0823
  442MOL0     C59550   1.864   4.334   6.052  0.7041 -0.7673 -0.1597
  442MOL0     C59551   1.777   4.293   6.164 -0.2335 -0.4060  0.3934
  442MOL0     N59552   1.763   4.403   6.260  0.4887 -0.3907  0.1794
  442MOL0     C59553   1.871   4.461   6.323 -0.0395  0.3173  0.0542
  442MOL0     C59554   1.805   4.551   6.413 -0.4676  0.2080  0.7010
  442MOL0     C59555   1.883   4.637   6.504 -0.2934 -0.0972  0.1821
  442MOL0     C59556   1.791   4.701   6.618  0.3791 -0.1301 -0.0278
  442MOL0     C59557   1.885   4.771   6.720  0.3321 -0.2010  0.7259
  442MOL0     C59558   1.808   4.859   6.824  0.1695  0.0434  0.3253
  442MOL0     O59559   1.725   4.942   6.747  0.5087 -0.1369  0.0414
  442MOL0     C59560   1.659   5.039   6.810  0.1704 -0.2031 -0.2746
  442MOL0     C59561   1.603   5.141   6.731  0.0879 -0.1924  0.5501
  442MOL0     C59562   1.536   5.246   6.783  1.3127 -0.6264  0.0729
  442MOL0     C59563   1.447   5.325   6.683  0.4790 -0.0521  0.9311
  442MOL0     C59564   1.516   5.260   6.919  0.8268 -1.0791 -1.0562
  442MOL0     C59565   1.446   5.375   6.978  0.1720  0.2226 -0.6877
  442MOL0     O59566   1.497   5.494   6.954  0.4317  0.6733  0.1231
  442MOL0     C59567   1.420   5.603   6.987 -0.6003 -0.5845 -0.4798
  442MOL0     C59568   1.470   5.683   7.094 -0.2051 -0.6733  0.0386
  442MOL0     C59569   1.394   5.797   7.133 -1.0971  0.2528  0.1602
  442MOL0     C59570   1.273   5.840   7.074 -0.2534 -0.3157 -0.4721
  442MOL0     O59571   1.216   5.950   7.133  0.6420 -0.0330  0.9084
  442MOL0     C59572   1.076   5.968   7.135 -0.3339  0.1135  0.4145
  442MOL0     C59573   0.989   5.880   7.236  0.8010 -0.4173  0.9056
  442MOL0     C59574   1.049   5.859   7.376 -0.6907  0.0515  0.1103
  442MOL0     C59575   1.166   5.756   7.378 -0.8343 -0.5123 -1.1803
  442MOL0     C59576   1.161   5.673   7.507 -0.2227 -0.6147  0.7971
  442MOL0     C59577   1.252   5.547   7.483  0.7583 -1.1713  0.2518
  442MOL0     C59578   1.252   5.454   7.607  0.1533 -0.1109  1.1068
  442MOL0     C59579   1.325   5.326   7.571  0.0447  0.1693 -0.0719
  442MOL0    Cl59580   1.326   5.211   7.705  0.5890  0.0744 -0.1217
  442MOL0     C59581   1.226   5.755   6.971  1.0726  0.0579 -0.1629
  442MOL0     C59582   1.293   5.633   6.935 -0.1501 -1.0536 -0.4809
  442MOL0     O59583   1.349   5.345   7.046  0.2442  0.0514  0.2877
  442MOL0     C59584   1.552   5.153   6.998 -0.5437  0.2300  0.0245
  442MOL0     C59585   1.629   5.045   6.945  0.3436  0.1026 -0.9167
  442MOL0     N59586   1.669   4.528   6.407  0.0140  0.2649  0.3336
  442MOL0     N59587   1.644   4.437   6.319 -0.0221  0.7670 -0.6920
  442MOL0     C59588   2.332   4.064   5.368  0.1497 -0.1342  0.5579
  442MOL0     C59589   2.357   3.995   5.240 -0.3098  0.0171 -0.6611
  442MOL0     C59590   2.474   3.723   4.910 -0.3685  0.4572  1.9893
  442MOL0     C59591   2.597   3.681   4.855 -0.0330 -1.0775  0.5426
  442MOL0     C59592   2.603   3.614   4.737 -0.0199 -0.4918  0.1864
  442MOL0     C59593   2.484   3.574   4.674  0.4951  0.2546 -0.5703
  442MOL0     O59594   2.468   3.501   4.554  0.3764 -0.6987 -0.3738
  442MOL0     C59595   2.586   3.484   4.469 -0.1295 -0.5548 -1.5971
  442MOL0     C59596   2.561   3.421   4.332 -0.0091 -0.3371  0.0034
  442MOL0     C59597   2.499   3.533   4.233 -0.5813 -0.3180 -0.4695
  442MOL0     C59598   2.431   3.473   4.115 -0.4585 -0.8280  0.4388
  442MOL0     C59599   2.532   3.419   4.022  0.3895  0.4850  0.3171
  442MOL0     C59600   2.621   3.369   3.948  0.2298 -0.5323  0.5453
  442MOL0     C59601   2.369   3.620   4.725  0.8649  0.0196 -0.2217
  442MOL0     C59602   2.353   3.695   4.842  0.5242  0.7180  0.8145
  442MOL0     H59603   2.241   3.681   5.318  0.4027 -0.4552  4.0092
  442MOL0     H59604   2.203   3.799   5.540  0.1854 -2.9203 -0.6171
  442MOL0     H59605   2.408   4.067   5.667  0.1858  2.3161 -0.3278
  442MOL0     H59606   2.324   4.222   5.626 -0.4087 -0.4489 -5.0727
  442MOL0     H59607   2.293   4.046   5.873  1.2455 -0.3371 -1.6127
  442MOL0     H59608   2.305   4.219   5.867  1.3040  0.0202 -0.6309
  442MOL0     H59609   2.092   4.266   5.816  0.5507  0.3472  0.7258
  442MOL0     H59610   2.052   4.124   5.739 -2.0601  3.8251  1.3444
  442MOL0     H59611   2.109   4.012   5.987  1.0283  1.3815  0.2707
  442MOL0     H59612   2.113   4.170   6.030  0.3187 -2.2538  1.7843
  442MOL0     H59613   1.879   4.029   5.905  0.3920 -0.8749  0.4758
  442MOL0     H59614   1.875   4.053   6.079 -1.2092 -2.0241 -1.2920
  442MOL0     H59615   1.855   4.261   5.851 -0.9779  0.0958  0.0172
  442MOL0     H59616   1.732   4.201   5.948 -0.3184  0.8360 -0.3700
  442MOL0     H59617   1.969   4.341   6.080  0.4538  2.7664  0.2986
  442MOL0     H59618   1.837   4.433   6.015  2.7818  0.5799  1.6478
  442MOL0     H59619   1.803   4.197   6.210  1.3803  2.0521  5.3513
  442MOL0     H59620   1.677   4.268   6.128  0.3411 -1.9414 -0.2644
  442MOL0     H59621   1.975   4.451   6.295  0.3930 -1.6030  2.0389
  442MOL0     H59622   1.959   4.573   6.547 -0.0623 -0.8470 -1.2764
  442MOL0     H59623   1.934   4.722   6.457 -0.6077  1.2017  2.0581
  442MOL0     H59624   1.727   4.625   6.663  0.7381 -0.9203 -0.8244
  442MOL0     H59625   1.724   4.775   6.573 -0.2122 -1.0660 -0.7154
  442MOL0     H59626   1.957   4.831   6.663  0.5167 -0.7615  0.3609
  442MOL0     H59627   1.944   4.689   6.763 -0.2354 -1.3682 -0.6362
  442MOL0     H59628   1.880   4.914   6.886 -0.0717  0.4541  0.2501
  442MOL0     H59629   1.757   4.788   6.890  1.4350 -1.9098 -0.7291
  442MOL0     H59630   1.616   5.135   6.623 -1.3435  0.1362  0.3313
  442MOL0     H59631   1.488   5.306   6.583 -0.7933  2.3813 -0.1459
  442MOL0     H59632   1.345   5.287   6.676  0.0022  1.0274  1.8488
  442MOL0     H59633   1.449   5.432   6.701 -2.9415  0.1490  0.7634
  442MOL0     H59634   1.560   5.649   7.144  0.4630  1.4166  0.3431
  442MOL0     H59635   1.427   5.847   7.224  1.9194  0.7892 -1.1213
  442MOL0     H59636   1.056   6.075   7.140 -0.3776  0.2959 -2.2918
  442MOL0     H59637   1.037   5.946   7.036  1.5894 -0.3249 -0.2966
  442MOL0     H59638   0.889   5.924   7.241  1.0062 -0.1143  3.9551
  442MOL0     H59639   0.967   5.779   7.201  1.3782 -1.1337  2.5089
  442MOL0     H59640   0.972   5.824   7.447 -0.0070  1.6211  1.6959
  442MOL0     H59641   1.088   5.950   7.422  1.4314 -2.0738  2.8970
  442MOL0     H59642   1.163   5.688   7.292 -1.6675 -2.3906  0.2575
  442MOL0     H59643   1.265   5.802   7.384  0.2218 -2.8040 -0.0610
  442MOL0     H59644   1.061   5.641   7.540 -0.0847 -0.8171  1.0188
  442MOL0     H59645   1.201   5.734   7.588  2.9975 -1.4633 -0.0162
  442MOL0     H59646   1.215   5.490   7.398 -0.5783 -0.0754  0.0733
  442MOL0     H59647   1.350   5.588   7.457 -0.4412  0.6709 -1.6825
  442MOL0     H59648   1.154   5.433   7.649 -0.7586  0.0771 -0.8224
  442MOL0     H59649   1.313   5.508   7.680  0.8470 -1.5828  1.6579
  442MOL0     H59650   1.428   5.355   7.548  1.0679 -0.8842  2.7134
  442MOL0     H59651   1.292   5.276   7.480 -1.0146 -0.4359  0.6257
  442MOL0     H59652   1.129   5.771   6.924 -0.6164 -0.1506  2.9293
  442MOL0     H59653   1.235   5.570   6.868 -2.4270  1.5730 -1.1385
  442MOL0     H59654   1.525   5.149   7.103 -2.4535  1.6612 -0.3512
  442MOL0     H59655   1.651   4.959   7.007 -0.5080  0.0142 -0.7271
  442MOL0     H59656   2.353   4.170   5.378 -0.0273 -0.1186  0.7718
  442MOL0     H59657   2.412   4.055   5.168  2.2476 -1.1584  0.1928
  442MOL0     H59658   2.682   3.710   4.915 -1.2341  2.4317  0.7451
  442MOL0     H59659   2.698   3.587   4.692 -0.6842 -0.0144 -1.6083
  442MOL0     H59660   2.635   3.581   4.455 -0.2391  0.1168  1.7865
  442MOL0     H59661   2.658   3.418   4.519  1.3717  2.4377  0.4930
  442MOL0     H59662   2.491   3.339   4.346 -0.0129 -0.0568  1.7804
  442MOL0     H59663   2.654   3.379   4.291  0.2928 -1.1970  1.5146
  442MOL0     H59664   2.566   3.612   4.199 -1.0112  1.8310  3.1815
  442MOL0     H59665   2.419   3.581   4.290  0.3299  1.5381 -0.6985
  442MOL0     H59666   2.364   3.547   4.071 -0.3395 -0.0931  1.4449
  442MOL0     H59667   2.370   3.387   4.142  2.2508 -2.2730  2.4292
  442MOL0     H59668   2.702   3.327   3.893 -0.7665 -0.3705 -1.0948
  442MOL0     H59669   2.277   3.605   4.670  0.0341 -1.9310  1.6006
  442MOL0     H59670   2.260   3.732   4.884  0.0117 -0.1367  0.4563
  443MOL0     O59671   7.317   5.419   0.377 -0.5908  0.3437  0.0430
  443MOL0     C59672   7.256   5.348   0.300 -0.6368 -0.3246  0.5491
  443MOL0     O59673   7.308   5.300   0.183  0.5084  0.6104 -0.4692
  443MOL0     C59674   7.436   5.305   0.145  0.2885 -0.6492  0.3950
  443MOL0     C59675   7.504   5.434   0.147  0.4961  0.0360  1.3116
  443MOL0     C59676   7.631   5.445   0.095  0.4317  0.8702  0.2941
  443MOL0     C59677   7.684   5.338   0.030  0.0392 -0.0967  0.3286
  443MOL0     O59678   7.797   5.369  -0.036 -0.3279  0.2571  0.2075
  443MOL0     C59679   7.885   5.277  -0.104  0.1578  0.5346 -1.0639
  443MOL0     C59680   8.024   5.328  -0.109  0.0750 -0.4040 -0.1508
  443MOL0     C59681   8.126   5.236  -0.170  0.4149  0.5209  0.4886
  443MOL0     C59682   8.088   5.175  -0.317 -0.0440 -0.4127 -0.6022
  443MOL0     C59683   8.025   5.033  -0.303 -0.7969 -0.1767  0.2555
  443MOL0     C59684   7.945   5.003  -0.433  0.9493  0.1756  0.1308
  443MOL0     C59685   7.839   4.893  -0.408 -0.7745  0.4721  0.8219
  443MOL0     C59686   7.758   4.878  -0.541 -0.5745 -0.1168 -0.6289
  443MOL0     N59687   7.839   4.838  -0.653  0.3497 -0.5143  0.4322
  443MOL0     C59688   7.866   4.910  -0.767 -0.6361  0.7289  0.2480
  443MOL0     C59689   7.952   4.828  -0.846 -0.2152 -0.2660 -0.0281
  443MOL0     C59690   8.023   4.855  -0.975 -0.8075 -0.2735  0.5967
  443MOL0     C59691   8.173   4.820  -0.945  0.0220  0.6018  0.0972
  443MOL0     C59692   8.237   4.887  -0.815 -0.0321  0.4655  0.9890
  443MOL0     C59693   8.386   4.836  -0.785  0.3663  0.5750 -0.3284
  443MOL0     O59694   8.425   4.697  -0.803 -0.4904  0.0702  0.4174
  443MOL0     C59695   8.364   4.588  -0.741 -0.9093 -0.6998  0.5190
  443MOL0     C59696   8.283   4.598  -0.632  0.1679 -0.0653 -0.0941
  443MOL0     C59697   8.246   4.488  -0.551  0.3058 -1.1338 -0.1664
  443MOL0     C59698   8.163   4.513  -0.424  1.4728 -0.2516  0.8211
  443MOL0     C59699   8.289   4.362  -0.584  1.1843  0.0939  0.1257
  443MOL0     C59700   8.266   4.237  -0.517  0.6565  0.2267  0.0171
  443MOL0     O59701   8.368   4.147  -0.536 -0.1433  0.2626 -1.9003
  443MOL0     C59702   8.381   4.032  -0.453  0.6212 -0.7868  0.1477
  443MOL0     C59703   8.419   3.907  -0.507 -1.1709  0.9102  0.3689
  443MOL0     C59704   8.434   3.790  -0.428 -0.6481  0.5716 -0.1276
  443MOL0     C59705   8.408   3.799  -0.287  0.4024  0.9331  0.2507
  443MOL0     O59706   8.425   3.699  -0.194  0.2436 -0.5506 -0.2412
  443MOL0     C59707   8.525   3.720  -0.097 -0.1391  0.7059 -0.3715
  443MOL0     C59708   8.650   3.629  -0.095  1.1446 -0.5797  0.6481
  443MOL0     C59709   8.628   3.481  -0.096 -0.6830  0.7719 -0.3812
  443MOL0     C59710   8.767   3.406  -0.087 -0.0389 -0.0956  1.4764
  443MOL0     C59711   8.768   3.256  -0.090 -0.8081 -1.0583  0.7458
  443MOL0     C59712   8.683   3.193   0.023  0.6716 -0.1906 -0.8146
  443MOL0     C59713   8.713   3.058   0.048  0.0413  0.1055  0.7640
  443MOL0     C59714   8.589   2.983   0.105  0.4953 -0.4723  0.7342
  443MOL0    Cl59715   8.622   2.802   0.102 -0.0545 -0.0387  0.3149
  443MOL0     C59716   8.356   3.914  -0.235 -0.1137 -0.7536 -0.2863
  443MOL0     C59717   8.353   4.031  -0.315 -0.0859  0.4667  0.2716
  443MOL0     O59718   8.160   4.214  -0.454  0.3332 -0.1619  0.4788
  443MOL0     C59719   8.355   4.347  -0.707  0.0289  0.0961 -0.2369
  443MOL0     C59720   8.399   4.458  -0.788  0.7856  0.3430  0.1218
  443MOL0     N59721   7.958   4.709  -0.771 -0.0592 -0.0992  0.3576
  443MOL0     N59722   7.894   4.721  -0.666 -0.4695  0.7188  0.0201
  443MOL0     C59723   7.621   5.218   0.021  0.3046 -0.5571  0.8895
  443MOL0     C59724   7.496   5.197   0.081 -0.6506  0.5828 -0.1239
  443MOL0     C59725   7.121   5.331   0.352  0.8949  0.3122  0.5401
  443MOL0     C59726   7.072   5.384   0.473  0.3597  0.1180  0.0756
  443MOL0     C59727   6.939   5.355   0.503  0.9875  0.9254  0.7508
  443MOL0     C59728   6.860   5.279   0.415 -0.5256 -0.5137 -0.5088
  443MOL0     O59729   6.732   5.258   0.441  0.2542 -0.4781 -0.6043
  443MOL0     C59730   6.715   5.140   0.522 -0.0640 -0.0982 -1.5254
  443MOL0     C59731   6.626   5.171   0.640 -0.3773  0.1841 -0.4299
  443MOL0     C59732   6.691   5.261   0.746 -0.8804 -1.0022 -0.2596
  443MOL0     C59733   6.599   5.281   0.858  0.0157  0.1805 -0.6130
  443MOL0     C59734   6.563   5.148   0.918  0.0997  0.5319 -0.1054
  443MOL0     C59735   6.517   5.037   0.963 -0.1069  0.2457 -0.5573
  443MOL0     C59736   6.909   5.222   0.299 -0.2083  0.4611  0.2054
  443MOL0     C59737   7.044   5.248   0.266  0.0999  0.0842  0.5750
  443MOL0     H59738   7.450   5.526   0.171  0.8365  0.3656  0.8286
  443MOL0     H59739   7.673   5.545   0.082  1.3391  0.1764 -3.1668
  443MOL0     H59740   7.876   5.174  -0.066 -0.6556  0.8635 -0.3131
  443MOL0     H59741   7.837   5.284  -0.202 -2.8705  4.4189  0.4103
  443MOL0     H59742   8.033   5.427  -0.154  2.1815 -1.1066 -1.4070
  443MOL0     H59743   8.047   5.345  -0.003 -0.7155  0.9613 -0.1842
  443MOL0     H59744   8.217   5.293  -0.188  1.2269  0.7734  4.4324
  443MOL0     H59745   8.164   5.162  -0.100 -0.9919 -0.5934  0.1308
  443MOL0     H59746   8.019   5.244  -0.366 -0.9936 -0.5822  0.4425
  443MOL0     H59747   8.175   5.166  -0.382  0.6695 -0.7280  0.3647
  443MOL0     H59748   8.099   4.955  -0.284  3.1726  3.2261  0.1496
  443MOL0     H59749   7.951   5.045  -0.223 -2.7374  1.6755 -1.6997
  443MOL0     H59750   7.883   5.085  -0.470 -0.9505 -1.3431 -0.2436
  443MOL0     H59751   8.017   4.970  -0.508  0.6160 -1.1852  0.3885
  443MOL0     H59752   7.886   4.798  -0.379 -1.5201 -0.0543  0.3449
  443MOL0     H59753   7.768   4.926  -0.332 -2.5661 -1.1982 -0.0185
  443MOL0     H59754   7.709   4.974  -0.561  0.8069  0.3701 -1.9053
  443MOL0     H59755   7.686   4.797  -0.523  0.6837 -0.4875  3.8179
  443MOL0     H59756   7.840   5.014  -0.783 -0.5657  1.4372  3.9577
  443MOL0     H59757   7.980   4.804  -1.061  0.7756 -2.1541  0.8511
  443MOL0     H59758   8.012   4.960  -1.005  1.5227 -0.5464 -1.4726
  443MOL0     H59759   8.247   4.845  -1.021  1.4704 -0.7709  0.9783
  443MOL0     H59760   8.178   4.712  -0.926 -0.0831  0.8524  1.6368
  443MOL0     H59761   8.182   4.869  -0.722 -1.1033 -3.2592 -0.1756
  443MOL0     H59762   8.246   4.995  -0.830  1.3995  0.0092 -2.6205
  443MOL0     H59763   8.417   4.857  -0.682  1.8038  0.5070 -0.7320
  443MOL0     H59764   8.447   4.895  -0.853 -0.0379  2.4068  0.8314
  443MOL0     H59765   8.262   4.699  -0.600  0.7462  0.5051 -1.4313
  443MOL0     H59766   8.132   4.618  -0.419 -0.1283 -0.7552  2.9288
  443MOL0     H59767   8.073   4.452  -0.438  1.4313  0.3492 -2.4136
  443MOL0     H59768   8.220   4.489  -0.334 -1.8177  1.3449  3.5592
  443MOL0     H59769   8.436   3.884  -0.612 -0.2159 -0.0678  0.7135
  443MOL0     H59770   8.484   3.699  -0.460 -0.6177  0.3259  0.6017
  443MOL0     H59771   8.550   3.826  -0.105 -1.0477  1.0271  0.7750
  443MOL0     H59772   8.477   3.706   0.000 -3.0703 -0.8046 -1.9206
  443MOL0     H59773   8.722   3.642  -0.176  0.8690  0.3699  0.5409
  443MOL0     H59774   8.708   3.648  -0.005  3.6880 -3.1371 -0.3190
  443MOL0     H59775   8.594   3.441  -0.193 -2.8590 -0.7256  0.8997
  443MOL0     H59776   8.562   3.439  -0.020 -0.2892 -1.6401 -1.2795
  443MOL0     H59777   8.838   3.447  -0.159  0.9531 -1.5116  1.5838
  443MOL0     H59778   8.802   3.436   0.012 -1.2676  0.4436  1.7658
  443MOL0     H59779   8.869   3.217  -0.078 -0.0734 -0.5259 -2.6400
  443MOL0     H59780   8.732   3.232  -0.191 -0.6713  0.1235  0.4019
  443MOL0     H59781   8.702   3.241   0.119 -0.4175  1.8217 -1.5443
  443MOL0     H59782   8.579   3.205  -0.011  1.2795 -1.5508 -3.4136
  443MOL0     H59783   8.799   3.060   0.116  0.1485  1.4214  0.6211
  443MOL0     H59784   8.739   3.017  -0.050 -0.4675  2.6504 -0.5303
  443MOL0     H59785   8.499   3.011   0.048 -1.2470  1.6683  4.2009
  443MOL0     H59786   8.562   3.021   0.204 -1.9477 -0.5740  0.1676
  443MOL0     H59787   8.328   3.912  -0.130  0.5353  0.3704 -0.0710
  443MOL0     H59788   8.324   4.121  -0.262  1.1471  1.5597 -0.8246
  443MOL0     H59789   8.384   4.250  -0.744  0.2306 -0.3034  0.9344
  443MOL0     H59790   8.464   4.451  -0.874  3.1127  4.3255  1.3044
  443MOL0     H59791   7.665   5.137  -0.037  1.8489  0.5288  0.4803
  443MOL0     H59792   7.438   5.106   0.076  0.2437 -0.0291  0.4213
  443MOL0     H59793   7.130   5.451   0.535 -2.4613  2.8291  0.0161
  443MOL0     H59794   6.899   5.379   0.602  2.9568  1.5026  1.4463
  443MOL0     H59795   6.676   5.061   0.458 -0.8212  2.0151 -3.8631
  443MOL0     H59796   6.806   5.108   0.575 -2.2086 -0.9093  1.9646
  443MOL0     H59797   6.602   5.075   0.685  1.4124  0.3092  0.8888
  443MOL0     H59798   6.538   5.216   0.592 -0.0295  0.6019 -0.6819
  443MOL0     H59799   6.711   5.357   0.697  0.2527 -0.3211  1.4178
  443MOL0     H59800   6.787   5.227   0.786 -0.2458  2.1854  1.3230
  443MOL0     H59801   6.508   5.317   0.809  0.5618  1.4008 -0.7657
  443MOL0     H59802   6.630   5.356   0.931 -0.9805  0.8932 -0.8904
  443MOL0     H59803   6.469   4.951   1.006 -1.1126  1.1793  0.2230
  443MOL0     H59804   6.853   5.180   0.216  2.2798 -0.4680 -1.1218
  443MOL0     H59805   7.089   5.209   0.176 -3.3808 -1.4371 -0.6699
  444MOL0     O59806   8.459   1.290   2.719 -0.0573  0.1316 -1.0831
  444MOL0     C59807   8.549   1.215   2.766  0.4054 -0.6941 -0.0377
  444MOL0     O59808   8.682   1.246   2.762  0.5920 -0.0322  0.1242
  444MOL0     C59809   8.724   1.370   2.749 -0.6812 -0.0753 -1.5281
  444MOL0     C59810   8.653   1.478   2.801 -0.4721  0.7036 -0.1586
  444MOL0     C59811   8.711   1.599   2.797 -0.1376 -0.6187  0.6438
  444MOL0     C59812   8.847   1.616   2.767  0.1154  0.2355 -0.5685
  444MOL0     O59813   8.909   1.738   2.765  1.1188 -0.7955  0.4462
  444MOL0     C59814   8.846   1.867   2.795  0.8940 -0.0727 -0.5428
  444MOL0     C59815   8.942   1.973   2.770 -0.2447 -0.0454 -0.1057
  444MOL0     C59816   8.880   2.109   2.799 -0.5174 -0.5830  0.5681
  444MOL0     C59817   8.852   2.137   2.958  0.7581  0.2902  0.1501
  444MOL0     C59818   8.842   2.287   2.995  0.2787 -1.3164  0.0714
  444MOL0     C59819   8.723   2.356   2.919 -0.0775  0.7231  0.2316
  444MOL0     C59820   8.586   2.287   2.929 -0.3620 -0.3809 -1.0548
  444MOL0     C59821   8.506   2.373   3.028  0.4361  0.2085  0.1473
  444MOL0     N59822   8.563   2.373   3.166  0.3717 -0.4028  0.0849
  444MOL0     C59823   8.597   2.263   3.227  0.2504 -0.6865 -0.7678
  444MOL0     C59824   8.636   2.289   3.352 -1.0493 -0.5982 -0.4458
  444MOL0     C59825   8.673   2.195   3.462 -0.0236  0.6415  1.0880
  444MOL0     C59826   8.814   2.122   3.426  0.0597 -0.2197 -0.3547
  444MOL0     C59827   8.938   2.211   3.422  0.2218 -0.8628  1.3408
  444MOL0     C59828   9.040   2.151   3.325  0.2542 -0.7472 -0.3472
  444MOL0     O59829   9.139   2.247   3.287  0.5776 -0.0273  0.9101
  444MOL0     C59830   9.238   2.214   3.192 -0.2502  0.1395 -0.1840
  444MOL0     C59831   9.339   2.307   3.164 -0.6205  0.3123 -0.1519
  444MOL0     C59832   9.441   2.283   3.063  0.3231  0.7306  0.6752
  444MOL0     C59833   9.544   2.392   3.059  1.0622  0.0447 -0.6628
  444MOL0     C59834   9.454   2.153   3.001 -0.1848  0.5634 -1.0357
  444MOL0     C59835   9.567   2.131   2.903  0.3201  0.5962  0.2593
  444MOL0     O59836   9.629   2.231   2.833  0.7680 -0.5863 -0.1990
  444MOL0     C59837   9.735   2.211   2.753 -0.0703  0.8346 -0.6691
  444MOL0     C59838   9.725   2.127   2.636 -0.5395 -0.2775  0.2150
  444MOL0     C59839   9.827   2.121   2.539  0.1848  0.7003 -0.6407
  444MOL0     C59840   9.946   2.192   2.564 -0.2668 -0.5021  0.7238
  444MOL0     O59841  10.042   2.186   2.464  0.3060  0.4064 -0.7767
  444MOL0     C59842  10.153   2.262   2.488 -0.0167 -0.2593 -0.3263
  444MOL0     C59843  10.236   2.226   2.373  0.8058 -0.0709 -0.7332
  444MOL0     C59844  10.166   2.273   2.247  0.3384  0.0070 -0.3630
  444MOL0     C59845  10.260   2.273   2.132 -0.5437 -0.8988  0.0100
  444MOL0     C59846  10.197   2.329   1.996 -0.4180 -0.5586 -0.0962
  444MOL0     C59847  10.318   2.353   1.908  0.8875 -0.1400  0.8102
  444MOL0     C59848  10.309   2.245   1.794 -0.2095  0.2814  0.3777
  444MOL0     C59849  10.447   2.260   1.722 -0.4341  0.5702 -0.0268
  444MOL0    Cl59850  10.576   2.187   1.818 -0.1461  0.3249 -0.5039
  444MOL0     C59851   9.963   2.262   2.685 -0.5872 -0.5547 -0.2365
  444MOL0     C59852   9.857   2.277   2.776  0.3076  0.1405 -0.0667
  444MOL0     O59853   9.598   2.010   2.899 -0.9411  0.6826  0.3598
  444MOL0     C59854   9.355   2.052   3.038  0.7797 -0.1457  0.2371
  444MOL0     C59855   9.257   2.084   3.139  0.1225  0.4840 -0.1515
  444MOL0     N59856   8.623   2.431   3.360 -0.0704  0.0321 -0.0027
  444MOL0     N59857   8.579   2.479   3.246 -0.1811  0.8353  0.5335
  444MOL0     C59858   8.923   1.505   2.720 -0.3638 -0.0830 -0.9073
  444MOL0     C59859   8.856   1.383   2.710  0.1574  0.2551 -0.1935
  444MOL0     C59860   8.520   1.104   2.857  0.9293  0.6645 -0.1222
  444MOL0     C59861   8.404   1.106   2.937  0.4275 -0.2942  0.1663
  444MOL0     C59862   8.372   1.002   3.025 -0.3983  0.0895 -0.4012
  444MOL0     C59863   8.449   0.890   3.022 -0.6339  0.4174 -0.5285
  444MOL0     O59864   8.408   0.781   3.095  0.3308 -0.7317  0.0990
  444MOL0     C59865   8.391   0.806   3.230 -0.2990 -0.5690  0.1983
  444MOL0     C59866   8.385   0.679   3.306  0.1260 -0.3506  0.1169
  444MOL0     C59867   8.263   0.587   3.274 -0.0659 -0.4210 -0.4887
  444MOL0     C59868   8.150   0.628   3.373 -0.3509 -0.5218 -0.0535
  444MOL0     C59869   8.064   0.522   3.426 -0.4091  0.5192 -0.3216
  444MOL0     C59870   7.997   0.444   3.483 -0.3604 -0.1351  0.7033
  444MOL0     C59871   8.565   0.881   2.942  0.4782  0.7642 -1.0869
  444MOL0     C59872   8.605   0.991   2.862 -0.4084 -1.3182 -0.5435
  444MOL0     H59873   8.562   1.492   2.858  0.5978  4.0745  0.9295
  444MOL0     H59874   8.660   1.692   2.821  2.6970  2.2078 -2.9355
  444MOL0     H59875   8.752   1.882   2.742  0.0227 -1.9193  0.4063
  444MOL0     H59876   8.812   1.876   2.898 -1.4534 -1.3261 -1.1454
  444MOL0     H59877   9.031   1.958   2.833 -2.7186  1.1930  4.0450
  444MOL0     H59878   8.961   1.983   2.662 -1.7776  0.6098 -0.3336
  444MOL0     H59879   8.939   2.187   2.751 -1.9395 -0.5338 -1.1843
  444MOL0     H59880   8.783   2.114   2.749 -0.6979  0.8372  1.0175
  444MOL0     H59881   8.764   2.084   2.995 -0.8648  1.3259 -1.9950
  444MOL0     H59882   8.937   2.101   3.016 -0.0686 -0.4667  0.9235
  444MOL0     H59883   8.824   2.291   3.103  0.1709 -0.3802  0.0309
  444MOL0     H59884   8.935   2.344   2.985 -0.9434  0.6433 -0.7582
  444MOL0     H59885   8.726   2.461   2.950  1.6383  0.7160  0.1729
  444MOL0     H59886   8.753   2.348   2.814  0.9641 -2.5951  0.6573
  444MOL0     H59887   8.541   2.291   2.829 -1.8658 -2.0205 -0.4970
  444MOL0     H59888   8.585   2.182   2.959  1.6949 -0.1781 -0.1509
  444MOL0     H59889   8.404   2.332   3.034 -0.5878  2.2214 -1.8635
  444MOL0     H59890   8.501   2.477   2.995  2.0279  0.3052  0.1588
  444MOL0     H59891   8.585   2.164   3.185 -0.3959  0.2762 -3.0124
  444MOL0     H59892   8.675   2.249   3.557 -1.6555  0.2422  1.3780
  444MOL0     H59893   8.585   2.132   3.480  1.1139 -0.8824  1.5432
  444MOL0     H59894   8.788   2.071   3.332 -2.1162 -1.0721  0.6322
  444MOL0     H59895   8.821   2.045   3.503  1.2749  2.1906  2.1291
  444MOL0     H59896   8.985   2.212   3.521  2.1960  0.8908  0.4631
  444MOL0     H59897   8.917   2.314   3.393  3.4656 -0.6913 -0.8805
  444MOL0     H59898   8.995   2.128   3.228  2.1932 -3.2286 -0.7653
  444MOL0     H59899   9.075   2.057   3.370  2.9298  0.8387  1.1812
  444MOL0     H59900   9.324   2.403   3.213 -0.1350  2.2631 -3.5086
  444MOL0     H59901   9.527   2.466   2.980  0.3116 -1.0621 -1.5705
  444MOL0     H59902   9.535   2.442   3.156  2.1801  1.2359 -1.1469
  444MOL0     H59903   9.643   2.345   3.054  1.0072 -0.3586  1.2292
  444MOL0     H59904   9.637   2.066   2.616  0.3816 -1.3186 -0.7918
  444MOL0     H59905   9.810   2.051   2.458  0.5730 -1.3607  0.9464
  444MOL0     H59906  10.146   2.370   2.471  0.5914 -0.0263  0.8137
  444MOL0     H59907  10.207   2.248   2.582  0.1093  1.3997 -0.1122
  444MOL0     H59908  10.332   2.277   2.389  0.4036  0.4775 -0.0510
  444MOL0     H59909  10.238   2.116   2.371 -1.4087 -0.1596 -0.1423
  444MOL0     H59910  10.129   2.374   2.265 -1.1586 -0.8005  1.5245
  444MOL0     H59911  10.085   2.205   2.220  1.1823 -0.5825 -1.4867
  444MOL0     H59912  10.352   2.323   2.165  0.1045 -4.2453  4.2518
  444MOL0     H59913  10.295   2.173   2.108 -0.0092 -0.5183 -0.8402
  444MOL0     H59914  10.134   2.417   2.013  0.5522  0.1165  0.1159
  444MOL0     H59915  10.124   2.259   1.955  1.3158 -1.4247 -1.8997
  444MOL0     H59916  10.323   2.458   1.877  1.7547 -0.0953  1.0662
  444MOL0     H59917  10.416   2.348   1.957  1.1559  2.6071  0.7411
  444MOL0     H59918  10.222   2.268   1.731 -0.4105 -2.2865 -0.4017
  444MOL0     H59919  10.301   2.139   1.820 -0.5698 -0.7020 -3.2007
  444MOL0     H59920  10.487   2.360   1.705  2.0866 -0.5258 -1.0245
  444MOL0     H59921  10.450   2.215   1.623  1.5691 -0.7221  0.5573
  444MOL0     H59922  10.051   2.320   2.709  2.2471 -4.1286 -1.1350
  444MOL0     H59923   9.871   2.347   2.857 -1.1649  0.0320  0.3087
  444MOL0     H59924   9.369   1.951   3.000 -3.6031 -0.1979 -1.8072
  444MOL0     H59925   9.182   2.007   3.157  0.6943  0.0167  0.2844
  444MOL0     H59926   9.030   1.519   2.705  0.1244 -2.9013 -0.5591
  444MOL0     H59927   8.910   1.294   2.679  1.0297  0.5570  0.4108
  444MOL0     H59928   8.332   1.186   2.926 -2.0421 -2.6119 -1.9397
  444MOL0     H59929   8.282   1.005   3.084  0.0775 -2.5402  0.5918
  444MOL0     H59930   8.471   0.871   3.264 -1.5334  0.5681  1.0077
  444MOL0     H59931   8.296   0.858   3.240 -1.2625 -0.7732 -5.0224
  444MOL0     H59932   8.400   0.697   3.413  2.5946  0.1950 -0.2501
  444MOL0     H59933   8.471   0.614   3.286 -0.8324 -1.4684 -0.4397
  444MOL0     H59934   8.290   0.481   3.277 -1.7436 -0.9015 -0.7559
  444MOL0     H59935   8.228   0.608   3.173 -1.0315  1.4521  0.1762
  444MOL0     H59936   8.096   0.702   3.314  0.6393 -1.2210 -1.9086
  444MOL0     H59937   8.186   0.687   3.458 -1.3227  1.9038 -1.2211
  444MOL0     H59938   7.923   0.373   3.514 -0.1395 -1.0571 -0.7682
  444MOL0     H59939   8.628   0.794   2.954 -1.0125 -0.1778  0.1492
  444MOL0     H59940   8.687   0.994   2.790  0.7566 -0.9276  0.7516
  445MOL0     O59941   9.596   2.110   9.962 -0.5168 -0.3789  1.0011
  445MOL0     C59942   9.538   2.037  10.040 -0.0300  0.3771  0.2063
  445MOL0     O59943   9.423   2.065  10.098  0.9898  1.1378 -0.5693
  445MOL0     C59944   9.344   2.170  10.081  0.4055 -0.0852  0.2497
  445MOL0     C59945   9.247   2.180  10.176  0.3108 -0.0834  0.5562
  445MOL0     C59946   9.143   2.281  10.169 -1.0353  0.9487  1.3321
  445MOL0     C59947   9.133   2.357  10.061 -0.9658 -0.2068  0.4044
  445MOL0     O59948   9.029   2.445  10.049 -0.0056 -0.4950  0.3235
  445MOL0     C59949   8.963   2.484   9.926  0.3154  0.1104  0.1099
  445MOL0     C59950   8.875   2.617   9.946 -0.6151  0.4741  0.0256
  445MOL0     C59951   8.771   2.648   9.830  0.0149 -0.2760 -0.1354
  445MOL0     C59952   8.769   2.798   9.779 -0.2760  0.2457 -0.4767
  445MOL0     C59953   8.723   2.891   9.886 -0.9643 -0.1459 -0.5356
  445MOL0     C59954   8.733   3.040   9.861 -0.8129 -0.7474 -0.4264
  445MOL0     C59955   8.670   3.088   9.732  0.1545  0.1722 -0.4555
  445MOL0     C59956   8.765   3.108   9.617 -0.0404  0.6783  0.0150
  445MOL0     N59957   8.852   3.222   9.640  0.6991 -0.6447  0.1794
  445MOL0     C59958   8.833   3.347   9.594  0.5308  0.4108  0.3653
  445MOL0     C59959   8.948   3.417   9.610 -0.3770 -0.0446  0.2607
  445MOL0     C59960   8.954   3.564   9.584 -0.3105 -0.3328  0.7467
  445MOL0     C59961   9.091   3.622   9.529  0.2725 -1.0529  0.5494
  445MOL0     C59962   9.078   3.780   9.526  0.2992 -0.0695 -0.9116
  445MOL0     C59963   9.212   3.852   9.494  0.7251 -0.2403 -1.3131
  445MOL0     O59964   9.169   3.968   9.421  0.2664 -0.0291  0.1705
  445MOL0     C59965   9.217   4.095   9.459 -0.1393 -0.0053 -0.1927
  445MOL0     C59966   9.322   4.119   9.537 -0.4780  0.6745  0.3294
  445MOL0     C59967   9.357   4.248   9.570  0.0172 -0.2844  0.0126
  445MOL0     C59968   9.498   4.261   9.618 -0.0385 -0.2273 -0.3696
  445MOL0     C59969   9.272   4.352   9.546  0.3433 -0.5470 -0.9261
  445MOL0     C59970   9.290   4.491   9.585 -0.6010  0.3519  0.8156
  445MOL0     O59971   9.255   4.592   9.502  0.5637  0.3098  0.9739
  445MOL0     C59972   9.245   4.721   9.550 -0.1724  0.4062 -0.1526
  445MOL0     C59973   9.124   4.785   9.556  0.9246 -0.3547 -0.8082
  445MOL0     C59974   9.127   4.922   9.562 -1.0388 -0.2760 -0.7214
  445MOL0     C59975   9.245   4.996   9.601 -0.5127  0.3596 -0.0564
  445MOL0     O59976   9.238   5.133   9.615  0.1264  0.1265 -0.2094
  445MOL0     C59977   9.353   5.210   9.585 -0.0426 -0.6519 -0.8175
  445MOL0     C59978   9.307   5.312   9.488 -0.2190 -0.5072  0.5650
  445MOL0     C59979   9.206   5.424   9.547 -0.0040 -0.1706  0.2033
  445MOL0     C59980   9.059   5.395   9.506 -1.2601  0.3732 -0.2546
  445MOL0     C59981   8.964   5.503   9.540 -0.4213 -0.4185 -0.3798
  445MOL0     C59982   8.831   5.462   9.484  0.9619  0.3711  0.2409
  445MOL0     C59983   8.723   5.569   9.476 -0.5284 -0.8132 -1.0280
  445MOL0     C59984   8.612   5.537   9.377 -0.0014  0.3292 -0.4084
  445MOL0    Cl59985   8.480   5.661   9.375  0.5539  0.1101  0.5278
  445MOL0     C59986   9.363   4.916   9.612 -1.0299 -0.4222 -0.5103
  445MOL0     C59987   9.363   4.780   9.590 -0.3940 -0.0333  0.1008
  445MOL0     O59988   9.335   4.508   9.701 -0.1350  0.0739 -0.0630
  445MOL0     C59989   9.164   4.318   9.463 -0.7487 -0.5581 -0.1009
  445MOL0     C59990   9.137   4.193   9.421  0.4076  0.1089  0.2241
  445MOL0     N59991   9.037   3.333   9.664  0.0988  0.3671  0.1258
  445MOL0     N59992   8.983   3.220   9.678  0.4340  0.3004 -0.0262
  445MOL0     C59993   9.230   2.342   9.958  0.3516 -0.7511  0.5542
  445MOL0     C59994   9.335   2.251   9.965  0.7145  0.1517  0.3074
  445MOL0     C59995   9.611   1.916  10.092  0.0362 -1.3828  0.8039
  445MOL0     C59996   9.744   1.891  10.045 -0.4047  0.1577  0.2935
  445MOL0     C59997   9.814   1.777  10.093 -0.2956 -0.3591  0.0228
  445MOL0     C59998   9.757   1.700  10.198  0.4730 -0.1251  1.3807
  445MOL0     O59999   9.827   1.590  10.230  0.4996  0.4448  0.3703
  445MOL0     C60000   9.767   1.499  10.325  0.0793  1.1506 -0.4146
  445MOL0     C60001   9.854   1.370  10.329  0.2280 -0.5706  0.2098
  445MOL0     C60002   9.847   1.311  10.472  0.0556  0.2545 -0.0202
  445MOL0     C60003   9.960   1.366  10.557 -0.5744  0.6667  0.1123
  445MOL0     C60004  10.087   1.295  10.522  0.2669  0.1746 -0.4160
  445MOL0     C60005  10.191   1.243  10.507  0.2390 -0.5213 -0.0005
  445MOL0     C60006   9.625   1.738  10.244  0.3298  0.0670  0.5120
  445MOL0     C60007   9.552   1.836  10.180  0.2575  0.5798 -0.0775
  445MOL0     H60008   9.258   2.118  10.265 -1.2735 -0.4570  0.5300
  445MOL0     H60009   9.065   2.294  10.243 -1.9083  1.8151  0.2998
  445MOL0     H60010   9.029   2.515   9.845 -2.3944  1.8846 -1.5976
  445MOL0     H60011   8.905   2.396   9.896 -0.7389  0.9326 -0.3107
  445MOL0     H60012   8.815   2.587  10.032 -1.1461  1.1973 -0.0846
  445MOL0     H60013   8.935   2.698   9.990  1.1622 -1.1406  0.7103
  445MOL0     H60014   8.798   2.587   9.743  0.9660  2.3905 -1.8371
  445MOL0     H60015   8.672   2.611   9.858 -2.6729  2.4773 -4.5920
  445MOL0     H60016   8.872   2.824   9.754 -0.8560  0.4808 -2.8590
  445MOL0     H60017   8.700   2.797   9.694 -4.7270 -0.4241  2.7495
  445MOL0     H60018   8.622   2.864   9.918  0.5386  0.0765  5.5416
  445MOL0     H60019   8.779   2.876   9.978 -1.2128 -0.0278 -0.3657
  445MOL0     H60020   8.685   3.093   9.943 -1.3218 -1.5170 -0.2190
  445MOL0     H60021   8.841   3.056   9.867 -0.3392 -3.6201  0.2671
  445MOL0     H60022   8.596   3.011   9.707  1.5633 -1.6190  0.6168
  445MOL0     H60023   8.610   3.178   9.747 -0.2211  0.4097 -2.8625
  445MOL0     H60024   8.725   3.115   9.516 -0.6212  0.7442  0.2506
  445MOL0     H60025   8.825   3.016   9.621  0.1071  0.8052  1.1378
  445MOL0     H60026   8.737   3.381   9.556  1.4207  2.8220  0.0940
  445MOL0     H60027   8.879   3.595   9.511 -0.5429  0.0689  1.1539
  445MOL0     H60028   8.928   3.605   9.681 -0.2596 -0.5915  0.8717
  445MOL0     H60029   9.109   3.586   9.427 -2.0287  1.1383 -0.7420
  445MOL0     H60030   9.181   3.593   9.584  2.0141 -0.6908 -1.9328
  445MOL0     H60031   9.039   3.818   9.621 -2.2003  0.0259 -1.9223
  445MOL0     H60032   9.000   3.802   9.453 -0.6032 -1.2609 -0.3317
  445MOL0     H60033   9.280   3.795   9.429  0.6457  0.3473 -1.9270
  445MOL0     H60034   9.260   3.866   9.591 -1.1587  2.8634 -0.7215
  445MOL0     H60035   9.382   4.037   9.577 -1.3193 -1.0502 -1.7388
  445MOL0     H60036   9.537   4.363   9.627  0.6802 -0.6256  1.4173
  445MOL0     H60037   9.505   4.203   9.710 -1.0338 -2.4648 -1.6059
  445MOL0     H60038   9.574   4.205   9.563 -1.0555 -2.1267  0.0606
  445MOL0     H60039   9.035   4.737   9.518  0.5294  1.8665 -2.9646
  445MOL0     H60040   9.033   4.968   9.535 -1.5007 -1.1834 -0.7032
  445MOL0     H60041   9.368   5.263   9.679  0.3653  2.4085 -2.4710
  445MOL0     H60042   9.441   5.149   9.566  0.2699 -0.8489  1.0632
  445MOL0     H60043   9.399   5.369   9.470  0.3667 -1.3975  0.6961
  445MOL0     H60044   9.283   5.280   9.386 -0.6846  2.3505 -0.3264
  445MOL0     H60045   9.236   5.520   9.504  2.5921  0.6187  3.3879
  445MOL0     H60046   9.219   5.440   9.654 -1.5681 -1.4536  0.6212
  445MOL0     H60047   9.068   5.381   9.398 -1.3024 -5.0606  0.1903
  445MOL0     H60048   9.029   5.297   9.543 -2.8999  1.1709  0.6982
  445MOL0     H60049   8.985   5.599   9.491 -2.2866 -0.7913 -2.0352
  445MOL0     H60050   8.950   5.522   9.647 -0.1308 -0.7118 -0.2888
  445MOL0     H60051   8.828   5.435   9.378 -2.2860  0.4550  0.2025
  445MOL0     H60052   8.806   5.369   9.536  2.6788 -1.0337 -1.3087
  445MOL0     H60053   8.774   5.656   9.434 -0.2951 -0.2738  0.3239
  445MOL0     H60054   8.690   5.594   9.577  3.2754 -1.3489  0.5034
  445MOL0     H60055   8.570   5.437   9.392  2.7575 -0.7610  0.7074
  445MOL0     H60056   8.660   5.539   9.279 -2.2969  1.6681 -1.5978
  445MOL0     H60057   9.460   4.961   9.633 -0.8349 -1.0115 -0.1186
  445MOL0     H60058   9.453   4.720   9.582 -0.0357  0.6859 -1.6643
  445MOL0     H60059   9.105   4.397   9.418  1.7952  1.0277 -0.8988
  445MOL0     H60060   9.053   4.171   9.356 -0.6675 -2.6934  2.3565
  445MOL0     H60061   9.228   2.387   9.859 -1.0844 -2.7718 -0.4005
  445MOL0     H60062   9.398   2.232   9.879 -1.4318 -0.2411 -1.2534
  445MOL0     H60063   9.789   1.956   9.971 -1.1340 -0.7738 -1.0354
  445MOL0     H60064   9.909   1.751  10.047 -1.1970  0.7389 -2.6122
  445MOL0     H60065   9.752   1.555  10.418 -0.3667  1.0051 -0.3952
  445MOL0     H60066   9.671   1.464  10.286  0.9871  1.3793 -2.9970
  445MOL0     H60067   9.958   1.388  10.298  0.9599 -1.7585  1.8313
  445MOL0     H60068   9.826   1.283  10.269  1.4279 -2.6014  2.4203
  445MOL0     H60069   9.844   1.202  10.468 -2.2246  0.3061 -2.2617
  445MOL0     H60070   9.750   1.332  10.518  0.9717  1.6491  1.3917
  445MOL0     H60071   9.932   1.346  10.661 -0.0859 -0.3974  0.0552
  445MOL0     H60072   9.977   1.474  10.548  1.9688  0.1738 -2.9965
  445MOL0     H60073  10.290   1.205  10.494  0.2163 -0.3968 -0.5294
  445MOL0     H60074   9.590   1.677  10.327 -0.6959 -1.2059 -0.8206
  445MOL0     H60075   9.458   1.857  10.229 -0.6963 -2.6604 -0.2820
  446MOL0     O60076   0.483  11.145   3.991 -0.8899  0.7566 -0.0239
  446MOL0     C60077   0.470  11.268   3.965 -0.2213  0.4667 -0.1389
  446MOL0     O60078   0.358  11.344   3.997  0.0704  0.1406 -0.7062
  446MOL0     C60079   0.271  11.275   4.086 -0.1972 -0.1165 -0.2543
  446MOL0     C60080   0.140  11.256   4.045 -0.7619  0.3819 -0.7410
  446MOL0     C60081   0.060  11.173   4.119  1.0622 -0.2180 -0.4103
  446MOL0     C60082   0.098  11.119   4.242 -1.0903  0.8216 -0.5228
  446MOL0     O60083   0.018  11.040   4.323 -0.2844 -0.5368 -0.7794
  446MOL0     C60084  -0.127  11.038   4.308 -0.6840  0.0941 -0.0140
  446MOL0     C60085  -0.180  11.162   4.363 -0.2706  0.4327  0.7709
  446MOL0     C60086  -0.328  11.154   4.384  0.4827  0.2818  0.7866
  446MOL0     C60087  -0.385  11.294   4.420 -0.6117  0.6907 -0.1757
  446MOL0     C60088  -0.536  11.306   4.384  0.7109 -0.3538  0.1959
  446MOL0     C60089  -0.623  11.187   4.441 -0.0525 -0.7171  0.6264
  446MOL0     C60090  -0.635  11.198   4.590 -0.3937  0.4994  0.5329
  446MOL0     C60091  -0.712  11.079   4.643  0.2380 -1.0681  0.2917
  446MOL0     N60092  -0.715  11.095   4.789 -0.3790  0.5333 -0.0559
  446MOL0     C60093  -0.776  11.193   4.867 -0.2462  0.8581  0.3617
  446MOL0     C60094  -0.749  11.162   4.993  0.9644  0.5273  0.8762
  446MOL0     C60095  -0.786  11.245   5.102 -0.8565  0.0206 -0.6393
  446MOL0     C60096  -0.832  11.167   5.228 -0.6575  0.2943  0.3964
  446MOL0     C60097  -0.840  11.265   5.348 -0.2417  0.1833 -0.1865
  446MOL0     C60098  -0.863  11.191   5.473 -0.0622  0.7663  0.0771
  446MOL0     O60099  -0.996  11.120   5.487  0.5730 -0.5987  0.4612
  446MOL0     C60100  -1.017  11.051   5.607  0.2107  0.2531 -0.0047
  446MOL0     C60101  -0.940  11.077   5.725  0.2272  1.1012 -0.1454
  446MOL0     C60102  -0.983  11.030   5.845 -0.2997  0.6234 -0.4641
  446MOL0     C60103  -0.897  11.027   5.964  0.3347  0.2728 -0.3670
  446MOL0     C60104  -1.108  10.963   5.855 -0.6682  0.0388 -0.0985
  446MOL0     C60105  -1.166  10.912   5.981  0.0960 -0.2656  0.6596
  446MOL0     O60106  -1.182  11.003   6.078  0.1819 -0.3960 -0.4632
  446MOL0     C60107  -1.219  10.948   6.201  0.2601 -0.1755  0.3329
  446MOL0     C60108  -1.131  10.852   6.266  0.3429 -0.1433 -0.3817
  446MOL0     C60109  -1.184  10.787   6.379 -0.5801  0.1985 -0.4664
  446MOL0     C60110  -1.303  10.816   6.429  0.3800  0.2256  0.2203
  446MOL0     O60111  -1.370  10.757   6.536 -0.1772  0.0377  0.1587
  446MOL0     C60112  -1.299  10.651   6.615  1.0242 -1.3445 -0.3883
  446MOL0     C60113  -1.182  10.714   6.717  0.6453 -0.0609  0.0921
  446MOL0     C60114  -1.072  10.611   6.719 -0.2851  0.4673  0.5188
  446MOL0     C60115  -0.951  10.647   6.810 -0.2997  0.6715  0.3526
  446MOL0     C60116  -0.829  10.561   6.768 -1.7760 -0.2276 -1.0632
  446MOL0     C60117  -0.851  10.415   6.790 -0.1524  0.8376 -0.1568
  446MOL0     C60118  -0.732  10.316   6.779  0.3268 -0.1558 -0.0674
  446MOL0     C60119  -0.797  10.176   6.777 -0.3573  0.0702 -0.1686
  446MOL0    Cl60120  -0.670  10.050   6.773  0.5608  0.1942  0.0318
  446MOL0     C60121  -1.378  10.926   6.377 -0.3225  0.7426  0.3453
  446MOL0     C60122  -1.342  10.988   6.265 -0.4826  0.0838  0.6966
  446MOL0     O60123  -1.207  10.793   5.977 -1.1473 -0.2840 -0.3029
  446MOL0     C60124  -1.184  10.943   5.741 -0.6087 -0.5004  0.0230
  446MOL0     C60125  -1.138  10.980   5.617  0.3872  0.4005 -0.1086
  446MOL0     N60126  -0.672  11.046   4.987 -0.8273  0.7268 -0.4428
  446MOL0     N60127  -0.644  11.005   4.867 -0.2359 -0.9070  0.3360
  446MOL0     C60128   0.232  11.144   4.287  0.2206  0.5797 -0.1414
  446MOL0     C60129   0.311  11.228   4.217 -0.8864 -0.9189  0.0170
  446MOL0     C60130   0.592  11.310   3.887  0.6522 -0.0160  0.4489
  446MOL0     C60131   0.590  11.434   3.822 -0.8785  0.7041  0.0231
  446MOL0     C60132   0.689  11.467   3.725  0.2414  0.0506 -0.5671
  446MOL0     C60133   0.796  11.386   3.694 -0.0143  0.6338 -0.1113
  446MOL0     O60134   0.900  11.444   3.627  0.1239 -0.3928 -0.2562
  446MOL0     C60135   1.030  11.390   3.618 -0.1905  0.1163 -0.1610
  446MOL0     C60136   1.144  11.513   3.621 -0.3126  0.4309 -0.1417
  446MOL0     C60137   1.130  11.599   3.751  0.8029  0.3105 -0.0505
  446MOL0     C60138   1.253  11.674   3.791 -1.2531  0.8404  0.1515
  446MOL0     C60139   1.307  11.762   3.688 -0.3368 -0.4201  0.0473
  446MOL0     C60140   1.344  11.835   3.602  0.8913  0.5105  0.0011
  446MOL0     C60141   0.797  11.255   3.758 -0.9431 -0.5808  0.5229
  446MOL0     C60142   0.696  11.215   3.846 -0.0458  1.5537 -0.0736
  446MOL0     H60143   0.105  11.305   3.954  4.0154  0.5253 -2.7956
  446MOL0     H60144  -0.040  11.159   4.080  1.5914 -4.3199 -0.8100
  446MOL0     H60145  -0.162  11.040   4.204 -1.8286 -1.8272  0.2823
  446MOL0     H60146  -0.173  10.949   4.353  1.8386 -0.6555  1.2434
  446MOL0     H60147  -0.126  11.190   4.454 -1.6709  1.8720  1.2114
  446MOL0     H60148  -0.155  11.241   4.291  0.7956 -1.3699 -0.9301
  446MOL0     H60149  -0.370  11.115   4.291  0.0401 -2.1751  1.9353
  446MOL0     H60150  -0.363  11.081   4.456  1.6181  0.1582  1.2392
  446MOL0     H60151  -0.372  11.308   4.528  0.9732 -0.3460 -0.1952
  446MOL0     H60152  -0.322  11.367   4.369  2.0806 -1.1262  0.3579
  446MOL0     H60153  -0.581  11.399   4.420 -0.0270 -0.6298 -0.0053
  446MOL0     H60154  -0.537  11.313   4.275  2.9479  1.5527  0.2299
  446MOL0     H60155  -0.724  11.197   4.401 -0.4047  2.8750  2.0424
  446MOL0     H60156  -0.586  11.090   4.408 -0.1904 -0.5943  0.0981
  446MOL0     H60157  -0.534  11.199   4.632  0.1262  0.3231 -0.6684
  446MOL0     H60158  -0.691  11.288   4.616  0.2414  0.8934  0.5519
  446MOL0     H60159  -0.663  10.988   4.608  0.1553 -0.4239 -1.6214
  446MOL0     H60160  -0.818  11.081   4.614  0.1740 -1.2284  0.5100
  446MOL0     H60161  -0.824  11.286   4.837  1.8232  1.6005 -0.8455
  446MOL0     H60162  -0.711  11.314   5.142 -2.6223  1.4628  0.3297
  446MOL0     H60163  -0.873  11.310   5.085 -0.2580  2.0971  3.2132
  446MOL0     H60164  -0.769  11.084   5.261 -1.7347 -1.6087 -2.0428
  446MOL0     H60165  -0.923  11.111   5.204 -0.0992 -0.8058  0.7980
  446MOL0     H60166  -0.921  11.338   5.330 -2.2887 -2.2093 -1.3042
  446MOL0     H60167  -0.748  11.320   5.371 -0.0569 -1.0302  2.2226
  446MOL0     H60168  -0.848  11.258   5.558  0.5228  0.1360  0.4844
  446MOL0     H60169  -0.784  11.115   5.475 -1.5548 -0.9562 -2.1580
  446MOL0     H60170  -0.848  11.134   5.731  1.4378 -0.9184  1.6975
  446MOL0     H60171  -0.885  10.933   6.018  0.6618  0.6846  0.2884
  446MOL0     H60172  -0.793  11.052   5.939  0.7884 -0.7960  0.3626
  446MOL0     H60173  -0.937  11.095   6.039 -3.1889 -0.0493 -1.7566
  446MOL0     H60174  -1.039  10.821   6.217 -0.2340  0.8970 -2.2243
  446MOL0     H60175  -1.119  10.711   6.422 -0.6419  1.6570  2.4378
  446MOL0     H60176  -1.367  10.587   6.670  0.7296 -0.3688  0.4112
  446MOL0     H60177  -1.246  10.581   6.550 -0.4051 -1.7008 -1.2072
  446MOL0     H60178  -1.154  10.808   6.668 -1.5639 -0.6481 -2.5156
  446MOL0     H60179  -1.224  10.726   6.817 -5.4288 -1.4414 -1.8726
  446MOL0     H60180  -1.024  10.617   6.621  0.6265  2.5141  1.0322
  446MOL0     H60181  -1.104  10.507   6.726 -0.0246 -0.0698 -3.5879
  446MOL0     H60182  -0.927  10.753   6.798 -1.7522  0.7497 -2.7625
  446MOL0     H60183  -0.987  10.638   6.913 -0.5241  0.0971  0.2263
  446MOL0     H60184  -0.742  10.589   6.827 -3.2747  3.1357 -0.1926
  446MOL0     H60185  -0.806  10.570   6.661 -1.0645 -0.3203 -0.9194
  446MOL0     H60186  -0.897  10.394   6.887 -1.7185  0.0926 -1.0205
  446MOL0     H60187  -0.923  10.376   6.717  1.9312 -2.1752 -0.7952
  446MOL0     H60188  -0.668  10.329   6.867  0.1190  3.5510 -0.3089
  446MOL0     H60189  -0.671  10.322   6.688 -1.0937  0.1173 -1.0242
  446MOL0     H60190  -0.863  10.165   6.691  0.3636 -0.1668 -0.7077
  446MOL0     H60191  -0.847  10.157   6.873  1.2790 -1.6639  0.4281
  446MOL0     H60192  -1.480  10.942   6.410 -1.3299 -1.6154 -1.3069
  446MOL0     H60193  -1.403  11.068   6.226  3.1206  2.9402  0.3594
  446MOL0     H60194  -1.273  10.885   5.718 -1.1623  2.0307 -6.2980
  446MOL0     H60195  -1.196  10.939   5.535 -1.0687  1.8136  0.1588
  446MOL0     H60196   0.264  11.111   4.385 -0.0329  3.5244  1.0454
  446MOL0     H60197   0.412  11.257   4.245 -0.2350 -1.3870 -1.7652
  446MOL0     H60198   0.504  11.499   3.837 -0.1877  1.4151  1.0150
  446MOL0     H60199   0.686  11.560   3.670 -1.2286  0.9718  0.9876
  446MOL0     H60200   1.047  11.327   3.706  0.1028 -1.7345 -1.4623
  446MOL0     H60201   1.036  11.331   3.526 -2.6733 -1.2348  0.4474
  446MOL0     H60202   1.118  11.578   3.537  0.4039  1.1453  0.1883
  446MOL0     H60203   1.246  11.479   3.599 -0.5911  1.5198 -3.7010
  446MOL0     H60204   1.113  11.532   3.835  1.5795  1.0269  0.6979
  446MOL0     H60205   1.045  11.668   3.744  0.6885  0.2573  0.7842
  446MOL0     H60206   1.335  11.604   3.808  0.7133  2.4911 -1.9441
  446MOL0     H60207   1.224  11.734   3.878 -2.8336 -1.1369  1.0752
  446MOL0     H60208   1.372  11.886   3.512  2.3063 -1.5024 -0.7678
  446MOL0     H60209   0.873  11.182   3.732  1.0982  1.7897 -0.5663
  446MOL0     H60210   0.681  11.115   3.884 -2.6817  3.0816  3.4451
  447MOL0     O60211  10.611   9.400   6.576 -0.1872  0.1391  0.3423
  447MOL0     C60212  10.569   9.509   6.534 -0.8039  0.0039  0.5099
  447MOL0     O60213  10.642   9.620   6.542 -0.7716 -0.0153 -0.1648
  447MOL0     C60214  10.767   9.618   6.610  0.7081 -0.0300  0.4999
  447MOL0     C60215  10.786   9.717   6.716  0.0664 -1.0208  0.1398
  447MOL0     C60216  10.916   9.727   6.783 -0.5105 -1.1403 -0.8338
  447MOL0     C60217  11.024   9.651   6.737 -0.2302 -0.1192 -0.1349
  447MOL0     O60218  11.147   9.651   6.789  0.2292 -1.1844 -0.1455
  447MOL0     C60219  11.194   9.744   6.894 -0.5530 -0.0800 -0.1689
  447MOL0     C60220  11.340   9.718   6.929  1.1729  0.5066 -0.3527
  447MOL0     C60221  11.428   9.725   6.798 -0.3170  0.1548 -0.2223
  447MOL0     C60222  11.573   9.773   6.818  0.2379 -0.3538  0.5492
  447MOL0     C60223  11.646   9.802   6.684  0.2249 -0.3792  0.1666
  447MOL0     C60224  11.580   9.923   6.601  0.1668 -0.0503 -0.0198
  447MOL0     C60225  11.547  10.047   6.679  0.5270  0.2706 -0.1046
  447MOL0     C60226  11.499  10.156   6.589 -0.2546 -0.4969  0.6731
  447MOL0     N60227  11.445  10.267   6.678  0.0992  0.7629  0.1983
  447MOL0     C60228  11.516  10.360   6.741  1.0552  0.0103  0.0579
  447MOL0     C60229  11.424  10.439   6.802  0.0515  0.3385 -0.6343
  447MOL0     C60230  11.446  10.549   6.907  0.5473 -0.6387  0.0447
  447MOL0     C60231  11.515  10.500   7.040 -0.1818  0.4967 -0.0065
  447MOL0     C60232  11.412  10.472   7.151  0.3002 -0.5011  0.1390
  447MOL0     C60233  11.486  10.460   7.291  1.0529  0.3959  0.5759
  447MOL0     O60234  11.563  10.339   7.292  0.4805  0.1930  0.7809
  447MOL0     C60235  11.675  10.328   7.367 -0.2086  0.1955  0.2186
  447MOL0     C60236  11.703  10.417   7.470 -0.0923  0.1491  1.2829
  447MOL0     C60237  11.812  10.405   7.553  0.1407  0.7895  0.8115
  447MOL0     C60238  11.836  10.503   7.665  0.6726 -0.5509 -0.6000
  447MOL0     C60239  11.907  10.308   7.528  0.2079  0.2687 -0.2674
  447MOL0     C60240  12.017  10.279   7.618 -0.3723 -0.0244  0.0098
  447MOL0     O60241  12.001  10.174   7.693 -0.0794  1.0370  0.2032
  447MOL0     C60242  12.084  10.170   7.802  0.4546 -0.7039  1.1400
  447MOL0     C60243  12.219  10.122   7.783  1.0729  0.0738 -0.0371
  447MOL0     C60244  12.304  10.125   7.890 -0.1626  0.2445 -0.6037
  447MOL0     C60245  12.265  10.161   8.022  0.3377  0.4180 -0.1649
  447MOL0     O60246  12.350  10.142   8.128  0.5235  0.1398 -0.0942
  447MOL0     C60247  12.423  10.022   8.142 -0.2499  0.2049 -0.6415
  447MOL0     C60248  12.339   9.894   8.126  0.4898  0.0760  0.3312
  447MOL0     C60249  12.222   9.878   8.227 -0.7688 -0.1555  1.4030
  447MOL0     C60250  12.143   9.757   8.206 -0.3823  0.7001  0.3758
  447MOL0     C60251  12.054   9.713   8.324  0.2538 -1.2200  0.2896
  447MOL0     C60252  11.957   9.829   8.379  0.4401  0.9264  0.2559
  447MOL0     C60253  11.874   9.898   8.257  0.3658 -0.1895 -0.0166
  447MOL0     C60254  11.856  10.057   8.277  0.3502  1.4336 -0.8974
  447MOL0    Cl60255  11.776  10.106   8.142 -0.0061  0.0892  0.2249
  447MOL0     C60256  12.136  10.210   8.043  0.5247 -0.3263 -0.1781
  447MOL0     C60257  12.042  10.214   7.929 -0.2470  0.7088 -0.7301
  447MOL0     O60258  12.105  10.359   7.617 -0.4930  0.0138 -0.1861
  447MOL0     C60259  11.888  10.206   7.418  0.1643 -0.3316 -0.6686
  447MOL0     C60260  11.772  10.234   7.341 -0.3039  0.1986  0.0479
  447MOL0     N60261  11.299  10.386   6.788  0.8843  0.5391  0.4060
  447MOL0     N60262  11.313  10.283   6.706 -0.2568 -0.2140 -0.3497
  447MOL0     C60263  11.006   9.560   6.637  0.1159 -0.0393  0.4876
  447MOL0     C60264  10.884   9.543   6.573  1.1249  0.0624  0.4598
  447MOL0     C60265  10.442   9.516   6.467  0.6448  0.5162  0.2061
  447MOL0     C60266  10.386   9.626   6.405  0.3199 -0.0262 -0.4790
  447MOL0     C60267  10.259   9.630   6.343 -0.3945 -0.6900 -0.2730
  447MOL0     C60268  10.185   9.514   6.353  0.3945 -0.5960 -0.6935
  447MOL0     O60269  10.061   9.504   6.302 -0.4234  0.5800  0.2005
  447MOL0     C60270   9.965   9.432   6.382 -0.0923  0.2813 -0.3653
  447MOL0     C60271   9.829   9.484   6.346 -0.4237 -0.2563  0.3261
  447MOL0     C60272   9.806   9.627   6.378  0.4834  0.5092 -0.2440
  447MOL0     C60273   9.656   9.655   6.370  0.7631  0.0009  0.1596
  447MOL0     C60274   9.629   9.801   6.383 -0.0134  0.0681  0.8514
  447MOL0     C60275   9.598   9.919   6.377 -0.2944 -0.1295 -0.9825
  447MOL0     C60276  10.236   9.399   6.417  0.0037  0.3648  0.6630
  447MOL0     C60277  10.363   9.402   6.470  0.4480 -0.0447 -0.1354
  447MOL0     H60278  10.698   9.780   6.723  1.0771  0.6085 -1.1145
  447MOL0     H60279  10.933   9.801   6.861 -0.9544  1.2374 -2.8600
  447MOL0     H60280  11.191   9.849   6.867 -1.8309  0.9044  3.2767
  447MOL0     H60281  11.137   9.734   6.987 -1.6045 -0.5451 -0.8384
  447MOL0     H60282  11.382   9.789   7.000  2.6710 -2.5325  2.0550
  447MOL0     H60283  11.348   9.621   6.979 -3.1460 -0.0785 -0.4020
  447MOL0     H60284  11.440   9.630   6.745 -3.0608  0.1481 -0.9803
  447MOL0     H60285  11.379   9.802   6.740 -2.2590  0.6312  1.8899
  447MOL0     H60286  11.577   9.869   6.869 -0.7231 -0.4345  0.7985
  447MOL0     H60287  11.626   9.698   6.879  0.5943  0.1477  0.8618
  447MOL0     H60288  11.750   9.819   6.711  0.2250 -0.2463  0.0822
  447MOL0     H60289  11.646   9.717   6.616 -0.3077  0.5604 -1.0374
  447MOL0     H60290  11.647   9.949   6.519 -2.8011 -0.5028 -2.8023
  447MOL0     H60291  11.494   9.880   6.548  0.6783 -2.4029  0.9276
  447MOL0     H60292  11.481  10.022   6.762  0.8274 -1.8520 -0.4295
  447MOL0     H60293  11.641  10.082   6.721  0.3601  1.3034 -0.5678
  447MOL0     H60294  11.410  10.119   6.538 -1.6531  0.7982  2.0603
  447MOL0     H60295  11.576  10.193   6.520 -0.3889 -0.9736  0.2636
  447MOL0     H60296  11.624  10.372   6.745  1.5512 -2.6433  6.2539
  447MOL0     H60297  11.516  10.618   6.860 -0.7733 -0.8369 -2.3667
  447MOL0     H60298  11.358  10.610   6.932  3.6168  3.0202  3.1314
  447MOL0     H60299  11.580  10.581   7.076 -3.1205  3.0537 -0.0580
  447MOL0     H60300  11.572  10.407   7.037  0.3370  0.7808  0.7908
  447MOL0     H60301  11.362  10.380   7.120 -0.9280  0.1586  0.1002
  447MOL0     H60302  11.337  10.550   7.165  1.9363  0.6602  3.7173
  447MOL0     H60303  11.409  10.463   7.368  0.6887  0.5921  0.2080
  447MOL0     H60304  11.554  10.545   7.305 -0.3695  1.2045  3.1355
  447MOL0     H60305  11.639  10.501   7.495  0.8984  1.1341  0.5454
  447MOL0     H60306  11.917  10.470   7.731 -0.2979 -0.3676  0.7189
  447MOL0     H60307  11.858  10.606   7.635 -2.7764  1.7574  3.6939
  447MOL0     H60308  11.739  10.511   7.715  0.3484 -1.0346 -1.1285
  447MOL0     H60309  12.262  10.098   7.687  2.4282 -1.3142  0.8704
  447MOL0     H60310  12.407  10.097   7.872  0.2177  1.6044 -0.6834
  447MOL0     H60311  12.509  10.017   8.074  1.2574 -2.6694  1.2622
  447MOL0     H60312  12.462  10.021   8.244 -1.0741 -2.1056 -0.2922
  447MOL0     H60313  12.315   9.894   8.020  4.7673 -3.1224 -0.9080
  447MOL0     H60314  12.398   9.804   8.144 -0.7710 -1.0726 -1.1598
  447MOL0     H60315  12.158   9.968   8.223  0.4981  0.7352 -0.6879
  447MOL0     H60316  12.264   9.877   8.328  0.9592 -1.1732  0.7067
  447MOL0     H60317  12.083   9.766   8.115  1.9415  3.2001 -1.0600
  447MOL0     H60318  12.216   9.679   8.182  2.6771  2.9220  1.7722
  447MOL0     H60319  12.124   9.681   8.403  0.5284  1.5908  1.3142
  447MOL0     H60320  12.005   9.623   8.288 -0.5845 -1.4021  1.7884
  447MOL0     H60321  11.887   9.796   8.457 -0.2417  1.3583 -0.1617
  447MOL0     H60322  12.025   9.905   8.417 -0.2103  1.0338  1.2375
  447MOL0     H60323  11.778   9.856   8.226 -0.0809  1.2731 -0.6916
  447MOL0     H60324  11.932   9.891   8.164 -3.8789 -0.2218 -2.9403
  447MOL0     H60325  11.952  10.103   8.302  0.6497  0.0384  0.6409
  447MOL0     H60326  11.786  10.083   8.357  1.3264  1.4348 -0.0272
  447MOL0     H60327  12.100  10.246   8.139  0.0609 -0.2109 -0.3905
  447MOL0     H60328  11.936  10.237   7.930 -0.3977  0.1146  1.0500
  447MOL0     H60329  11.957  10.124   7.399  2.2971  1.5827 -1.6208
  447MOL0     H60330  11.766  10.173   7.252  0.1810  0.2252 -0.0072
  447MOL0     H60331  11.092   9.501   6.607  0.3673  0.3774  0.3896
  447MOL0     H60332  10.875   9.466   6.497  0.1705 -0.7313  1.3399
  447MOL0     H60333  10.452   9.712   6.396 -1.3348  1.3390 -0.0315
  447MOL0     H60334  10.228   9.728   6.309  2.0773  0.6167  0.9375
  447MOL0     H60335   9.976   9.326   6.359  2.6814  0.6729 -1.2919
  447MOL0     H60336   9.982   9.456   6.487 -2.0598  1.5500 -0.2952
  447MOL0     H60337   9.748   9.420   6.383 -4.1982  2.7034 -2.0318
  447MOL0     H60338   9.813   9.459   6.241 -0.4064 -2.2269  0.7459
  447MOL0     H60339   9.855   9.692   6.305  2.0356  1.3154  1.4165
  447MOL0     H60340   9.843   9.661   6.476  0.6525 -0.4264  0.0271
  447MOL0     H60341   9.586   9.597   6.431 -2.0574  1.7784 -1.1676
  447MOL0     H60342   9.618   9.628   6.271 -0.3101 -2.3990  1.1417
  447MOL0     H60343   9.603  10.026   6.378  3.1032 -0.1899 -0.1277
  447MOL0     H60344  10.182   9.305   6.408  1.5660 -0.3864 -1.6697
  447MOL0     H60345  10.401   9.310   6.513 -0.3804 -1.0494 -1.4782
  448MOL0     O60346  11.134   2.532   2.813  0.0997 -0.4634  0.1632
  448MOL0     C60347  11.038   2.525   2.737  0.5457 -0.2833  0.4252
  448MOL0     O60348  10.914   2.495   2.776  0.3531 -0.0734 -0.2176
  448MOL0     C60349  10.907   2.496   2.916 -0.3872 -0.2580  0.1093
  448MOL0     C60350  10.862   2.597   3.000 -0.0545 -0.9289 -0.0361
  448MOL0     C60351  10.847   2.598   3.135  0.3277  0.5904 -0.6283
  448MOL0     C60352  10.893   2.486   3.208  0.1304  0.5016 -0.6724
  448MOL0     O60353  10.875   2.473   3.351 -0.4180  0.4215 -0.2655
  448MOL0     C60354  10.865   2.594   3.426  0.0887  0.2782  0.6255
  448MOL0     C60355  11.006   2.654   3.462 -0.0104  0.6265  0.4214
  448MOL0     C60356  10.985   2.790   3.547  0.0509 -0.5853  0.7762
  448MOL0     C60357  10.940   2.767   3.693  1.0521  0.6427  0.4276
  448MOL0     C60358  10.849   2.871   3.746  0.3322  1.2418 -1.0251
  448MOL0     C60359  10.700   2.845   3.712  0.7326 -0.3138 -0.1020
  448MOL0     C60360  10.593   2.929   3.795 -0.3173 -0.0003 -0.0995
  448MOL0     C60361  10.589   2.887   3.950  0.2286  0.6281 -0.2520
  448MOL0     N60362  10.589   2.732   3.964  0.5108  0.3351  0.3756
  448MOL0     C60363  10.474   2.650   3.976 -0.7698 -0.9708  1.4321
  448MOL0     C60364  10.523   2.534   4.018  0.8030  0.5222 -0.2603
  448MOL0     C60365  10.433   2.413   4.044 -0.8915 -0.7273 -0.4681
  448MOL0     C60366  10.456   2.366   4.176  0.1733  0.1420  0.3021
  448MOL0     C60367  10.361   2.249   4.207  0.1101 -0.8387  0.0165
  448MOL0     C60368  10.385   2.221   4.363  0.4823  0.0682 -0.3797
  448MOL0     O60369  10.280   2.125   4.402 -0.0036 -0.3226  0.1473
  448MOL0     C60370  10.281   2.072   4.524 -0.4228  0.2939 -1.1313
  448MOL0     C60371  10.389   1.994   4.570 -0.3337  0.0453  0.0767
  448MOL0     C60372  10.401   1.931   4.698 -0.1780  0.9533  1.4908
  448MOL0     C60373  10.511   1.828   4.721  0.0589  0.4014  0.3581
  448MOL0     C60374  10.304   1.949   4.797  0.2316  0.4802  0.1344
  448MOL0     C60375  10.303   1.886   4.926 -0.4844  0.7223  0.4856
  448MOL0     O60376  10.172   1.852   4.976 -0.0514  0.0069  0.8086
  448MOL0     C60377  10.150   1.835   5.112 -0.0251  0.1086 -0.2593
  448MOL0     C60378  10.221   1.887   5.213 -0.1036  0.1057 -0.4441
  448MOL0     C60379  10.177   1.870   5.342 -0.6857  0.4549 -0.1002
  448MOL0     C60380  10.073   1.794   5.377  0.9304  0.2606 -0.2386
  448MOL0     O60381  10.044   1.798   5.510  0.3710  0.2579 -0.7621
  448MOL0     C60382   9.946   1.718   5.571  0.3359 -0.5843  0.2219
  448MOL0     C60383   9.827   1.800   5.626 -0.3304  0.8402  0.8288
  448MOL0     C60384   9.704   1.718   5.669  0.2133  0.5324 -0.4696
  448MOL0     C60385   9.638   1.791   5.783 -0.3860 -0.1582 -0.6904
  448MOL0     C60386   9.490   1.744   5.790 -0.4366 -0.0927  0.2155
  448MOL0     C60387   9.430   1.752   5.928  0.2772 -0.0975  0.2161
  448MOL0     C60388   9.284   1.699   5.929  0.1707  0.2549  0.3828
  448MOL0     C60389   9.174   1.771   5.846  0.3194  0.0445 -0.0138
  448MOL0    Cl60390   9.167   1.943   5.866  0.0137  0.3287 -0.3628
  448MOL0     C60391   9.994   1.748   5.273  0.2158  0.4097 -0.1563
  448MOL0     C60392  10.030   1.773   5.140  0.3273 -0.3664  0.0026
  448MOL0     O60393  10.410   1.866   4.984  0.9990 -0.4594 -0.1127
  448MOL0     C60394  10.184   2.016   4.748 -0.4980  0.1348 -0.4407
  448MOL0     C60395  10.179   2.080   4.622  0.9826  0.0786 -0.0628
  448MOL0     N60396  10.655   2.553   4.044  0.3041  0.1969 -0.4677
  448MOL0     N60397  10.688   2.669   4.018 -0.7388 -0.6137  0.1122
  448MOL0     C60398  10.944   2.380   3.135  1.3701 -0.4864  0.5644
  448MOL0     C60399  10.948   2.380   2.991 -0.4308 -0.4615 -0.2325
  448MOL0     C60400  11.066   2.545   2.594  0.7750 -1.0227  0.5137
  448MOL0     C60401  11.192   2.595   2.543  0.1881 -0.9169 -0.3772
  448MOL0     C60402  11.210   2.589   2.408 -0.4726  0.1625  0.4764
  448MOL0     C60403  11.111   2.538   2.321 -0.2915 -0.2050  0.1716
  448MOL0     O60404  11.123   2.528   2.188 -0.7532 -0.2612 -0.5579
  448MOL0     C60405  11.253   2.545   2.137 -1.1892  1.0140  0.0610
  448MOL0     C60406  11.246   2.495   1.991  0.4108 -0.2265 -0.1167
  448MOL0     C60407  11.383   2.521   1.923 -0.9201  1.0504 -0.3056
  448MOL0     C60408  11.488   2.414   1.958  0.2648  0.1723  0.1279
  448MOL0     C60409  11.621   2.459   1.906  0.4175 -0.2269 -0.7648
  448MOL0     C60410  11.733   2.483   1.862 -0.8151  0.4092  0.7278
  448MOL0     C60411  10.991   2.503   2.367  1.0255 -0.2643 -0.2013
  448MOL0     C60412  10.971   2.491   2.508 -0.7815 -0.2135  0.4482
  448MOL0     H60413  10.824   2.689   2.958 -2.6640 -1.9878 -0.1600
  448MOL0     H60414  10.810   2.685   3.188  1.7754  2.9689 -3.2479
  448MOL0     H60415  10.812   2.683   3.392 -0.8219 -0.1368  0.9074
  448MOL0     H60416  10.818   2.559   3.519  1.4054  1.9966  2.0033
  448MOL0     H60417  11.051   2.563   3.503 -3.9060 -3.0823 -2.6332
  448MOL0     H60418  11.055   2.676   3.367  1.7289  2.5861  1.6944
  448MOL0     H60419  11.081   2.843   3.546 -0.4114  0.2497  0.5547
  448MOL0     H60420  10.907   2.843   3.493  0.4419 -2.2570 -1.5755
  448MOL0     H60421  10.887   2.673   3.706  1.0766  0.5585 -0.0617
  448MOL0     H60422  11.023   2.747   3.761  4.8608  0.5674 -3.7082
  448MOL0     H60423  10.850   2.846   3.853 -3.4354 -0.9345 -1.3066
  448MOL0     H60424  10.885   2.969   3.715  2.4779  0.3868 -1.4192
  448MOL0     H60425  10.686   2.878   3.609 -1.6553 -0.3065  0.1744
  448MOL0     H60426  10.679   2.738   3.714  3.1664 -0.8703 -0.8727
  448MOL0     H60427  10.627   3.033   3.794 -1.0268  0.2407 -1.8391
  448MOL0     H60428  10.498   2.904   3.747  0.1727 -1.1818 -0.5045
  448MOL0     H60429  10.494   2.923   3.989  0.2985  2.2801 -1.5062
  448MOL0     H60430  10.668   2.931   4.011  0.4240  2.5631 -1.8314
  448MOL0     H60431  10.372   2.669   3.944 -0.3179 -2.5041 -1.2668
  448MOL0     H60432  10.328   2.441   4.032 -0.8660 -0.7026 -0.6339
  448MOL0     H60433  10.459   2.342   3.965  5.1325  1.9250 -1.4544
  448MOL0     H60434  10.437   2.446   4.249 -1.1454 -1.1425  1.4300
  448MOL0     H60435  10.561   2.336   4.193 -0.3213 -1.3436  0.9422
  448MOL0     H60436  10.372   2.154   4.154 -0.5393 -1.1836  0.4810
  448MOL0     H60437  10.257   2.282   4.194 -0.2720 -1.6688  0.8605
  448MOL0     H60438  10.389   2.311   4.425  0.3805  0.6731 -1.2322
  448MOL0     H60439  10.484   2.179   4.382  1.9316  2.0083 -2.9541
  448MOL0     H60440  10.476   1.977   4.507  2.2179  1.0467  3.0419
  448MOL0     H60441  10.475   1.732   4.760  1.6271 -0.7060 -0.7858
  448MOL0     H60442  10.573   1.823   4.631 -3.2474  0.2509 -2.1317
  448MOL0     H60443  10.578   1.866   4.799  0.0710 -3.0182  2.1828
  448MOL0     H60444  10.302   1.950   5.178  1.2333 -1.7918 -0.9462
  448MOL0     H60445  10.233   1.925   5.417 -0.7353  0.8645 -0.3594
  448MOL0     H60446   9.905   1.645   5.500  0.8341  0.4270 -1.1636
  448MOL0     H60447   9.987   1.662   5.656  2.7869 -1.2927 -1.3266
  448MOL0     H60448   9.873   1.863   5.703  0.3299 -0.1166  1.2368
  448MOL0     H60449   9.798   1.857   5.537 -1.8239 -0.0674  0.7090
  448MOL0     H60450   9.733   1.617   5.699  0.5967  0.7550 -0.0906
  448MOL0     H60451   9.649   1.712   5.575 -0.1347 -0.8339 -0.1979
  448MOL0     H60452   9.694   1.762   5.872 -0.1506  0.2338 -0.7095
  448MOL0     H60453   9.634   1.900   5.783  0.4051 -0.0740 -2.7892
  448MOL0     H60454   9.503   1.637   5.770 -3.1832 -0.7486  1.4641
  448MOL0     H60455   9.425   1.804   5.726  1.1390  0.0935 -1.2994
  448MOL0     H60456   9.499   1.703   5.997 -0.5901  2.2949  2.9826
  448MOL0     H60457   9.429   1.858   5.952  1.7389 -0.3520  1.5488
  448MOL0     H60458   9.245   1.725   6.028  1.0171  0.6214  0.6249
  448MOL0     H60459   9.274   1.591   5.914 -0.4337 -0.1234  2.9776
  448MOL0     H60460   9.083   1.723   5.883  1.1699 -0.4211  1.5981
  448MOL0     H60461   9.182   1.756   5.739  0.4765  1.0000 -0.1497
  448MOL0     H60462   9.897   1.708   5.301  0.4192  1.7883  2.9391
  448MOL0     H60463   9.976   1.720   5.062 -0.8517 -0.5339  0.9019
  448MOL0     H60464  10.101   2.017   4.818  0.5636  1.0224  0.8717
  448MOL0     H60465  10.088   2.139   4.610  1.3832  0.5932 -0.5810
  448MOL0     H60466  10.971   2.282   3.173  2.2928 -0.9857 -1.2798
  448MOL0     H60467  10.976   2.293   2.932 -0.9380 -0.9177  0.1831
  448MOL0     H60468  11.263   2.622   2.621  0.3024 -1.0346 -0.4393
  448MOL0     H60469  11.310   2.621   2.381 -0.6352  0.2933  0.0148
  448MOL0     H60470  11.287   2.648   2.148  0.3386  0.3274  2.5934
  448MOL0     H60471  11.333   2.488   2.185  1.6108  2.9951 -1.9501
  448MOL0     H60472  11.169   2.558   1.945 -1.7132 -3.8132 -1.9687
  448MOL0     H60473  11.223   2.388   1.983  0.1901 -0.1917  0.0663
  448MOL0     H60474  11.424   2.622   1.938  0.8983  0.3737 -0.4993
  448MOL0     H60475  11.374   2.510   1.815  1.1264 -0.4868 -0.3687
  448MOL0     H60476  11.461   2.311   1.935 -1.0372  0.9678 -2.2984
  448MOL0     H60477  11.493   2.410   2.067  2.3550  3.0866  0.2460
  448MOL0     H60478  11.833   2.508   1.830 -1.7116  3.9485  0.2510
  448MOL0     H60479  10.923   2.452   2.300  0.4364 -2.1521  1.7458
  448MOL0     H60480  10.875   2.450   2.539 -3.6950  0.8552 -5.6807
  449MOL0     O60481   3.427  10.235  11.042 -0.5072 -0.5497 -0.1628
  449MOL0     C60482   3.369  10.135  11.083 -0.0455  0.3609  0.9545
  449MOL0     O60483   3.444  10.024  11.120  0.4516 -0.1878 -0.0624
  449MOL0     C60484   3.372   9.906  11.158 -0.6413  0.3579  0.2617
  449MOL0     C60485   3.346   9.899  11.294 -0.0755  0.0401  0.0313
  449MOL0     C60486   3.281   9.789  11.351 -0.0076  0.6290 -0.4391
  449MOL0     C60487   3.237   9.683  11.266  0.2714 -0.3905 -0.7256
  449MOL0     O60488   3.155   9.582  11.306  0.7213  0.4468 -0.2660
  449MOL0     C60489   3.052   9.602  11.412  0.4364  0.6132  0.3052
  449MOL0     C60490   2.973   9.479  11.434  0.3100  0.6428 -0.3915
  449MOL0     C60491   2.903   9.477  11.569  0.1267 -1.1643  0.3713
  449MOL0     C60492   2.832   9.344  11.597 -0.1616  0.4195 -0.5777
  449MOL0     C60493   2.928   9.248  11.674 -0.0741  0.8374  0.0205
  449MOL0     C60494   2.895   9.102  11.656 -0.7415 -0.0705  0.2672
  449MOL0     C60495   2.761   9.072  11.736 -1.0914 -0.6968 -0.2392
  449MOL0     C60496   2.788   9.085  11.891 -0.3018 -0.7076  0.3267
  449MOL0     N60497   2.674   9.043  11.964  0.4183  0.4985 -0.1051
  449MOL0     C60498   2.599   9.130  12.039  0.5968 -0.6185  0.0846
  449MOL0     C60499   2.531   9.057  12.132  0.5790 -0.0798  0.5561
  449MOL0     C60500   2.462   9.086  12.266  0.1195  0.4933  0.7209
  449MOL0     C60501   2.350   9.178  12.264 -0.2664  0.0717  0.0889
  449MOL0     C60502   2.222   9.125  12.188 -0.6353 -0.5477 -0.0479
  449MOL0     C60503   2.221   9.150  12.034  0.3127 -0.4746 -0.8989
  449MOL0     O60504   2.252   9.284  11.995 -0.1643  0.1434 -0.4006
  449MOL0     C60505   2.301   9.315  11.872 -0.5316  0.1579  0.9427
  449MOL0     C60506   2.350   9.441  11.849 -0.8736 -0.0159  0.2236
  449MOL0     C60507   2.398   9.484  11.721 -0.9689  0.4330  0.2661
  449MOL0     C60508   2.468   9.614  11.715  1.2601  0.5642  0.0742
  449MOL0     C60509   2.393   9.390  11.615  0.1216  0.4834  0.3380
  449MOL0     C60510   2.450   9.416  11.474 -0.6583 -0.1473  0.2503
  449MOL0     O60511   2.455   9.310  11.390 -0.8185 -0.3934 -0.5812
  449MOL0     C60512   2.477   9.326  11.254 -0.1448  0.2428  0.0792
  449MOL0     C60513   2.430   9.439  11.178  0.5032  0.0428  0.5612
  449MOL0     C60514   2.452   9.446  11.038  0.3291 -0.0497  0.8288
  449MOL0     C60515   2.500   9.342  10.970 -0.0061 -0.3172 -0.0033
  449MOL0     O60516   2.517   9.328  10.837 -0.0657  0.2624  0.3949
  449MOL0     C60517   2.469   9.431  10.745 -0.1197  0.0925 -0.0667
  449MOL0     C60518   2.504   9.388  10.602 -0.1135  0.1247 -0.4166
  449MOL0     C60519   2.654   9.390  10.576 -0.8713 -0.3997 -0.2252
  449MOL0     C60520   2.698   9.325  10.445 -0.7521  0.8110 -0.7480
  449MOL0     C60521   2.847   9.320  10.421  0.7189 -1.1197  0.8195
  449MOL0     C60522   2.877   9.263  10.280  0.5094  0.1479  0.2038
  449MOL0     C60523   3.018   9.292  10.247 -1.0158 -0.3362 -0.1733
  449MOL0     C60524   3.087   9.186  10.164 -0.0763 -0.2181 -0.6519
  449MOL0    Cl60525   3.178   9.052  10.241  0.0293 -0.1096  0.1776
  449MOL0     C60526   2.542   9.227  11.042 -0.3164 -0.9912  0.4444
  449MOL0     C60527   2.526   9.221  11.179  0.4739  0.0824 -0.5309
  449MOL0     O60528   2.477   9.533  11.442  0.1816 -0.3018  0.7155
  449MOL0     C60529   2.336   9.264  11.636 -0.6761  0.5507  0.0712
  449MOL0     C60530   2.295   9.229  11.763 -0.4756  0.0590  0.7175
  449MOL0     N60531   2.575   8.925  12.106  0.2266 -0.5708  0.2176
  449MOL0     N60532   2.650   8.920  11.998  0.1613 -0.7879 -0.2852
  449MOL0     C60533   3.265   9.685  11.130  0.1712 -0.2893  0.8125
  449MOL0     C60534   3.342   9.799  11.079  0.2161 -0.0121  0.0609
  449MOL0     C60535   3.230  10.141  11.106  0.0836 -0.0411 -0.0959
  449MOL0     C60536   3.134  10.075  11.023  0.2107 -0.3967 -0.6917
  449MOL0     C60537   2.997  10.102  11.046  0.7409 -0.6417 -0.0304
  449MOL0     C60538   2.957  10.181  11.157 -0.0633 -0.7011  0.1102
  449MOL0     O60539   2.825  10.200  11.193  0.0436  0.9050 -0.3058
  449MOL0     C60540   2.719  10.195  11.095  1.5789  0.7742  0.5557
  449MOL0     C60541   2.609  10.283  11.148 -0.2412  0.0830 -0.5164
  449MOL0     C60542   2.493  10.295  11.034  0.1255  0.2911 -0.2298
  449MOL0     C60543   2.373  10.380  11.068  1.0307 -0.4634  0.2344
  449MOL0     C60544   2.333  10.351  11.212 -0.4245 -0.0108  0.2330
  449MOL0     C60545   2.296  10.337  11.323  0.5998 -0.3418 -0.0530
  449MOL0     C60546   3.057  10.235  11.241  0.5446  0.3158 -0.3212
  449MOL0     C60547   3.191  10.215  11.215 -0.6481 -0.1018 -1.1096
  449MOL0     H60548   3.380   9.983  11.354 -0.6067 -1.2753  2.2559
  449MOL0     H60549   3.260   9.793  11.457 -0.5474 -0.1682 -0.5099
  449MOL0     H60550   3.097   9.632  11.507 -2.4693  3.3558  0.9713
  449MOL0     H60551   2.987   9.682  11.375  4.8148  2.8470 -3.5073
  449MOL0     H60552   2.907   9.451  11.352 -0.1929 -0.0226  0.2266
  449MOL0     H60553   3.042   9.393  11.439 -3.3826 -2.5408  0.6361
  449MOL0     H60554   2.982   9.494  11.643 -0.1149  1.6562  0.0632
  449MOL0     H60555   2.839   9.564  11.576  3.4202  1.5539 -0.6121
  449MOL0     H60556   2.741   9.360  11.654 -0.2626  0.6591 -0.8024
  449MOL0     H60557   2.799   9.299  11.502 -1.4313 -0.8210  0.4038
  449MOL0     H60558   3.023   9.274  11.629 -0.6037  0.2882 -1.4640
  449MOL0     H60559   2.927   9.283  11.778 -1.6988 -2.0948  1.1022
  449MOL0     H60560   2.885   9.071  11.551  2.7116 -1.0474  0.1054
  449MOL0     H60561   2.976   9.038  11.692  0.4691  1.2307 -0.0534
  449MOL0     H60562   2.680   9.142  11.714  0.4091  0.9117 -0.8546
  449MOL0     H60563   2.731   8.968  11.717 -1.9479 -0.4110 -0.4780
  449MOL0     H60564   2.806   9.190  11.913 -3.7337  0.7527 -2.7149
  449MOL0     H60565   2.880   9.031  11.914 -0.3908 -0.2470  1.8665
  449MOL0     H60566   2.599   9.238  12.032 -2.2091 -0.2510  3.4056
  449MOL0     H60567   2.431   8.987  12.302  0.1769  1.1028  2.5100
  449MOL0     H60568   2.534   9.127  12.336  2.3328  1.3802 -1.8974
  449MOL0     H60569   2.382   9.277  12.229  2.4236 -0.6781  0.2533
  449MOL0     H60570   2.315   9.193  12.367  0.9436  1.2021  0.3553
  449MOL0     H60571   2.140   9.189  12.221 -0.6588 -0.5538 -0.0934
  449MOL0     H60572   2.205   9.018  12.205 -1.4332 -0.3358  0.5787
  449MOL0     H60573   2.123   9.129  11.989  0.7498  0.0273 -2.1335
  449MOL0     H60574   2.289   9.079  11.986  0.6813  1.1907 -2.9610
  449MOL0     H60575   2.355   9.507  11.935 -0.0752 -1.1385  1.0817
  449MOL0     H60576   2.571   9.608  11.680  1.2898 -1.2893  0.3722
  449MOL0     H60577   2.413   9.679  11.646  2.4784  1.6978  0.1257
  449MOL0     H60578   2.471   9.665  11.812  3.3541 -1.6993  1.3238
  449MOL0     H60579   2.380   9.516  11.235  1.5287  0.1983  1.2774
  449MOL0     H60580   2.430   9.533  10.977 -0.5891 -0.0056  1.1971
  449MOL0     H60581   2.361   9.441  10.762 -0.0948  0.4501 -0.1058
  449MOL0     H60582   2.518   9.527  10.758 -0.4334  0.2421  0.0394
  449MOL0     H60583   2.483   9.281  10.595  1.2887 -0.1897 -0.1039
  449MOL0     H60584   2.450   9.440  10.522  0.3784 -0.2747 -1.0211
  449MOL0     H60585   2.719   9.353  10.656  0.5135  2.5785  0.1632
  449MOL0     H60586   2.695   9.491  10.567 -0.3670 -0.6887 -1.2451
  449MOL0     H60587   2.652   9.226  10.433 -0.4579  0.6463 -0.5414
  449MOL0     H60588   2.654   9.386  10.366 -2.3037 -2.0253 -2.2424
  449MOL0     H60589   2.907   9.265  10.494  0.1593  1.5836  3.5354
  449MOL0     H60590   2.892   9.420  10.415 -2.7211  0.4835 -1.5744
  449MOL0     H60591   2.869   9.155  10.298  0.0401  0.1215 -0.1497
  449MOL0     H60592   2.803   9.306  10.212  0.6681 -1.0382 -0.7733
  449MOL0     H60593   3.083   9.302  10.335  0.5602 -5.3427 -0.4676
  449MOL0     H60594   3.013   9.385  10.190  0.7191  0.6624  1.1853
  449MOL0     H60595   3.165   9.240  10.111  0.7320  0.7077  1.3936
  449MOL0     H60596   3.014   9.148  10.091 -0.1793  1.4745 -1.4834
  449MOL0     H60597   2.579   9.138  10.991 -0.2643  0.0992 -1.5282
  449MOL0     H60598   2.549   9.121  11.215  0.1908 -1.5610 -4.4270
  449MOL0     H60599   2.331   9.190  11.557 -0.6900 -0.1530  0.7306
  449MOL0     H60600   2.255   9.129  11.776  0.4325 -0.9515 -3.0794
  449MOL0     H60601   3.218   9.615  11.062 -3.8463  2.6821  0.2138
  449MOL0     H60602   3.366   9.806  10.974  2.9661 -0.4962  0.5786
  449MOL0     H60603   3.169  10.010  10.944 -1.5752 -1.1156 -0.9411
  449MOL0     H60604   2.918  10.071  10.978 -2.0371 -0.9081  3.1160
  449MOL0     H60605   2.759  10.229  10.999  1.2463 -0.2238  0.0451
  449MOL0     H60606   2.672  10.096  11.084  2.7458  0.5222 -4.1826
  449MOL0     H60607   2.646  10.385  11.160  2.0352 -0.3860 -2.7690
  449MOL0     H60608   2.584  10.237  11.244  0.9179 -4.2498 -2.0749
  449MOL0     H60609   2.461  10.195  11.005  0.0255  0.2962 -0.1379
  449MOL0     H60610   2.538  10.350  10.951  1.7365  0.8224  0.9384
  449MOL0     H60611   2.301  10.361  10.988  0.2639  0.3973  0.6999
  449MOL0     H60612   2.393  10.487  11.056 -2.6565  0.1702 -1.7279
  449MOL0     H60613   2.267  10.307  11.422 -0.5703 -0.2926 -0.3713
  449MOL0     H60614   3.027  10.302  11.320  0.9018  1.9297 -1.4971
  449MOL0     H60615   3.264  10.255  11.284 -6.3654  1.0022  5.5046
  450MOL0     O60616   4.638   2.112   3.001 -0.4894 -0.8499  0.2917
  450MOL0     C60617   4.533   2.179   3.008  0.5066  0.1773  0.6632
  450MOL0     O60618   4.458   2.197   3.115  0.2158  0.9718  0.0465
  450MOL0     C60619   4.491   2.135   3.235  0.1030  0.0318 -0.0768
  450MOL0     C60620   4.532   2.218   3.342 -0.0800 -1.0016 -0.5317
  450MOL0     C60621   4.555   2.158   3.469  0.0340 -0.4006 -0.1237
  450MOL0     C60622   4.544   2.017   3.488  0.6022 -0.5828 -0.8112
  450MOL0     O60623   4.538   1.966   3.621  0.3530 -0.3934  0.1026
  450MOL0     C60624   4.478   2.054   3.720 -0.2221 -0.4595  0.3122
  450MOL0     C60625   4.445   1.977   3.846 -0.1928  0.5950 -0.1617
  450MOL0     C60626   4.558   1.909   3.912 -0.3156 -1.2288  0.5204
  450MOL0     C60627   4.512   1.837   4.047  0.4736 -0.2926  0.0044
  450MOL0     C60628   4.642   1.779   4.118 -0.5502 -0.3854  1.4812
  450MOL0     C60629   4.622   1.684   4.228  0.1392  0.2535  0.5460
  450MOL0     C60630   4.750   1.619   4.262 -0.5166  0.3855 -0.1428
  450MOL0     C60631   4.834   1.711   4.340  0.2120 -1.8593  0.3414
  450MOL0     N60632   4.979   1.689   4.340 -0.1339 -0.4888 -0.4571
  450MOL0     C60633   5.047   1.591   4.413 -0.4144  0.3379  0.0900
  450MOL0     C60634   5.165   1.564   4.350  0.4668  0.0245  0.3791
  450MOL0     C60635   5.288   1.480   4.385 -0.4557  0.0886  0.0368
  450MOL0     C60636   5.252   1.340   4.427  0.7042  0.1670  0.3467
  450MOL0     C60637   5.377   1.270   4.472 -0.1808  0.6808 -0.1076
  450MOL0     C60638   5.351   1.123   4.535 -0.0586 -0.1545  0.0157
  450MOL0     O60639   5.234   1.056   4.490  0.1392 -1.1462 -0.5059
  450MOL0     C60640   5.256   0.922   4.501 -0.1652 -1.0139 -0.1919
  450MOL0     C60641   5.299   0.863   4.613  0.1163  0.1023 -1.1385
  450MOL0     C60642   5.324   0.725   4.635 -0.2370  0.0100  0.5403
  450MOL0     C60643   5.371   0.688   4.771 -0.7892 -0.3401  0.1909
  450MOL0     C60644   5.316   0.636   4.524  0.6374 -0.1068  0.0992
  450MOL0     C60645   5.359   0.498   4.523 -0.5158 -0.6837 -0.3452
  450MOL0     O60646   5.458   0.461   4.620  0.2702  0.2212  0.4906
  450MOL0     C60647   5.498   0.330   4.619 -0.3608  1.0160 -0.2834
  450MOL0     C60648   5.517   0.276   4.748  0.1152  0.3296 -0.4957
  450MOL0     C60649   5.559   0.150   4.771 -0.7037  0.0802 -0.6765
  450MOL0     C60650   5.598   0.075   4.658 -0.7532  0.0933  1.1364
  450MOL0     O60651   5.644  -0.055   4.675  0.5571 -0.0367  0.4946
  450MOL0     C60652   5.604  -0.152   4.581 -0.0174 -0.1409  0.5999
  450MOL0     C60653   5.737  -0.218   4.539 -0.2884 -1.1828  0.9149
  450MOL0     C60654   5.709  -0.358   4.475 -0.2893  0.7745  0.2547
  450MOL0     C60655   5.829  -0.458   4.497  0.1154 -1.4186 -0.2222
  450MOL0     C60656   5.775  -0.594   4.485  0.1332  1.3610 -0.2724
  450MOL0     C60657   5.885  -0.701   4.523  0.1695 -0.3828 -0.0207
  450MOL0     C60658   5.832  -0.840   4.498 -0.7067  0.1622  0.5655
  450MOL0     C60659   5.938  -0.953   4.544  0.1318  0.1267 -0.1554
  450MOL0    Cl60660   5.956  -0.958   4.722 -0.1251  0.3891  0.7024
  450MOL0     C60661   5.592   0.129   4.522  0.3772  0.6986 -1.1309
  450MOL0     C60662   5.542   0.258   4.509  0.0059  0.1336  0.2137
  450MOL0     O60663   5.321   0.440   4.427 -0.2598 -0.3682 -0.2570
  450MOL0     C60664   5.263   0.696   4.407  0.2758  0.1092  0.1906
  450MOL0     C60665   5.245   0.835   4.392  0.5252 -0.7026  0.0073
  450MOL0     N60666   5.167   1.649   4.247  0.2338  0.3335  0.3160
  450MOL0     N60667   5.057   1.714   4.238 -0.7436  0.5267 -0.7101
  450MOL0     C60668   4.492   1.943   3.384  0.4363  0.3442  0.5022
  450MOL0     C60669   4.475   1.995   3.253 -0.3042  0.3908 -0.7857
  450MOL0     C60670   4.484   2.222   2.878  0.5791 -0.2922  0.1494
  450MOL0     C60671   4.541   2.183   2.756 -0.6721  0.2046  0.2953
  450MOL0     C60672   4.494   2.234   2.638  0.1167 -0.7212 -0.1378
  450MOL0     C60673   4.384   2.317   2.632 -0.4516  0.7160  0.2715
  450MOL0     O60674   4.325   2.354   2.512  0.6642  0.0643  0.2663
  450MOL0     C60675   4.385   2.322   2.382  0.6031 -0.8405  0.3036
  450MOL0     C60676   4.365   2.181   2.333 -0.3810 -0.2595  0.7284
  450MOL0     C60677   4.235   2.156   2.245 -0.6137 -0.2404 -0.4814
  450MOL0     C60678   4.132   2.079   2.330 -0.2430 -0.1292  0.5547
  450MOL0     C60679   4.024   2.010   2.255  0.1709  0.1786 -0.7684
  450MOL0     C60680   3.919   1.980   2.200 -1.0711 -0.4044 -0.0275
  450MOL0     C60681   4.322   2.348   2.756 -0.4560 -0.6507  0.3957
  450MOL0     C60682   4.370   2.308   2.878 -0.1069  0.1816 -0.9901
  450MOL0     H60683   4.550   2.320   3.308 -1.3362 -0.6676 -0.2437
  450MOL0     H60684   4.591   2.211   3.557 -1.8309  0.2571  0.3134
  450MOL0     H60685   4.547   2.132   3.753 -0.5447 -0.2191  0.4257
  450MOL0     H60686   4.382   2.099   3.695  0.2587 -0.6754 -2.1465
  450MOL0     H60687   4.414   2.057   3.913  0.0133  1.1274 -0.6893
  450MOL0     H60688   4.364   1.907   3.823  0.4935  0.0950 -1.1326
  450MOL0     H60689   4.608   1.836   3.847  1.8536  0.0332  0.6749
  450MOL0     H60690   4.630   1.988   3.935 -0.3028 -0.5822 -1.6232
  450MOL0     H60691   4.466   1.907   4.117  0.7418 -1.6780  1.6191
  450MOL0     H60692   4.453   1.747   4.028 -0.0622  0.1842 -0.6112
  450MOL0     H60693   4.687   1.730   4.031  0.4630  2.7255  0.0900
  450MOL0     H60694   4.709   1.859   4.152  2.2205 -1.8865 -0.0656
  450MOL0     H60695   4.577   1.740   4.310  1.3237  2.3411 -0.1490
  450MOL0     H60696   4.555   1.605   4.195  1.0658 -0.8698  1.2854
  450MOL0     H60697   4.733   1.525   4.315  1.2821 -0.1784 -0.4921
  450MOL0     H60698   4.814   1.575   4.185 -0.4379  1.3125 -0.6250
  450MOL0     H60699   4.785   1.703   4.437  0.7395  0.2043  0.8276
  450MOL0     H60700   4.824   1.816   4.311 -0.1330 -2.5992 -2.5415
  450MOL0     H60701   5.004   1.539   4.498 -1.4162  1.0658  0.0488
  450MOL0     H60702   5.348   1.470   4.294  1.9152  1.0517  1.4319
  450MOL0     H60703   5.335   1.531   4.469 -0.1321 -0.0223 -0.0786
  450MOL0     H60704   5.205   1.300   4.337  0.2201 -1.1107  1.1384
  450MOL0     H60705   5.179   1.334   4.508 -0.2877  1.6276 -0.4005
  450MOL0     H60706   5.429   1.333   4.545  1.5084 -2.8099  1.9809
  450MOL0     H60707   5.456   1.272   4.397 -1.1249  1.9827 -1.1351
  450MOL0     H60708   5.346   1.133   4.644  2.2642  0.1212  0.1507
  450MOL0     H60709   5.441   1.063   4.514 -0.6544 -1.2672  0.5435
  450MOL0     H60710   5.291   0.922   4.704  0.8324  1.3415 -1.8581
  450MOL0     H60711   5.320   0.599   4.809 -1.4135  0.4215  1.1987
  450MOL0     H60712   5.476   0.660   4.766 -0.2737  1.5486 -0.4994
  450MOL0     H60713   5.340   0.763   4.844 -1.1912 -1.1463  0.8620
  450MOL0     H60714   5.497   0.338   4.835  3.0463 -1.0727  1.2983
  450MOL0     H60715   5.559   0.115   4.873  1.7151  2.9081  0.4487
  450MOL0     H60716   5.548  -0.229   4.635 -2.1322 -0.4779 -1.8512
  450MOL0     H60717   5.550  -0.113   4.494  1.5676  2.9019  0.8517
  450MOL0     H60718   5.781  -0.153   4.462 -1.7582  0.6838  1.5913
  450MOL0     H60719   5.802  -0.229   4.626 -1.0724  0.9824  1.8287
  450MOL0     H60720   5.686  -0.355   4.368 -0.5028 -1.2108  0.2121
  450MOL0     H60721   5.626  -0.394   4.536  0.9654 -1.5788  0.6991
  450MOL0     H60722   5.902  -0.442   4.418 -1.6428  0.4655 -1.5900
  450MOL0     H60723   5.861  -0.435   4.599 -5.0713 -1.5244  1.7754
  450MOL0     H60724   5.747  -0.609   4.380  1.4035 -1.2629 -0.3129
  450MOL0     H60725   5.688  -0.609   4.551 -1.5054 -1.1695 -2.7693
  450MOL0     H60726   5.970  -0.698   4.454 -1.3954 -2.2594 -2.1607
  450MOL0     H60727   5.913  -0.671   4.625 -1.6185  1.9188 -0.1233
  450MOL0     H60728   5.819  -0.843   4.389  3.1491  0.0904 -0.0114
  450MOL0     H60729   5.743  -0.859   4.558 -1.1719  1.8088  0.4216
  450MOL0     H60730   6.033  -0.934   4.493  0.4008 -1.4664 -0.2938
  450MOL0     H60731   5.903  -1.049   4.505 -1.0637 -0.3453  1.9249
  450MOL0     H60732   5.608   0.067   4.434  3.9582  1.0165 -0.8454
  450MOL0     H60733   5.533   0.308   4.413  1.5580  1.3432  0.6366
  450MOL0     H60734   5.246   0.636   4.318  0.3582 -1.0748  0.9491
  450MOL0     H60735   5.205   0.864   4.295  2.0828 -3.5546 -1.6279
  450MOL0     H60736   4.475   1.836   3.392  0.5997  0.1956 -0.8157
  450MOL0     H60737   4.424   1.935   3.178  1.8260 -1.2161 -1.0385
  450MOL0     H60738   4.625   2.115   2.749 -1.5231 -0.8143 -0.2860
  450MOL0     H60739   4.550   2.214   2.547  1.5495  1.9926  0.0523
  450MOL0     H60740   4.339   2.396   2.316 -0.3899 -1.1839  0.5832
  450MOL0     H60741   4.492   2.341   2.392  1.0050 -2.5618 -0.2317
  450MOL0     H60742   4.368   2.111   2.417 -1.2233  0.8828  1.7591
  450MOL0     H60743   4.443   2.161   2.260 -1.1531 -0.1963 -0.1309
  450MOL0     H60744   4.254   2.096   2.155 -1.4152 -1.4119  0.1050
  450MOL0     H60745   4.198   2.251   2.205  2.3099  1.0808 -0.3236
  450MOL0     H60746   4.081   2.150   2.397  0.5692 -0.6252  1.7207
  450MOL0     H60747   4.182   2.007   2.394  0.9166 -0.3995 -0.6232
  450MOL0     H60748   3.836   1.975   2.133  0.0761 -1.7269 -1.4494
  450MOL0     H60749   4.237   2.415   2.753 -2.1447 -2.7061 -0.0617
  450MOL0     H60750   4.318   2.342   2.967  3.0824  0.3167  1.0097
  451MOL0     O60751   8.098   8.281   6.680 -0.0949  0.7058  0.1404
  451MOL0     C60752   8.009   8.252   6.757 -0.1650  0.2094 -0.7544
  451MOL0     O60753   7.933   8.345   6.831  0.1436 -0.0142  0.2478
  451MOL0     C60754   7.969   8.478   6.834  0.4172  0.4676  0.2200
  451MOL0     C60755   7.863   8.570   6.853  0.5928  0.5597  0.0671
  451MOL0     C60756   7.892   8.710   6.870 -0.4204 -0.2669 -0.0330
  451MOL0     C60757   8.027   8.754   6.860  0.6273  0.0517  1.0998
  451MOL0     O60758   8.068   8.884   6.877  0.3725  0.5408 -0.1359
  451MOL0     C60759   8.036   8.974   6.771  0.7784  0.5202 -0.0878
  451MOL0     C60760   8.154   8.978   6.670 -0.1654  0.7373 -0.3164
  451MOL0     C60761   8.150   9.076   6.560 -0.1475  0.1923  0.1458
  451MOL0     C60762   8.152   9.229   6.597  0.1481  0.8880 -0.4827
  451MOL0     C60763   8.162   9.319   6.476  1.0906 -0.4517 -0.1523
  451MOL0     C60764   8.183   9.468   6.501 -0.3086  0.1412 -0.5756
  451MOL0     C60765   8.170   9.551   6.363  0.5807  0.6995 -0.3015
  451MOL0     C60766   8.028   9.560   6.300 -0.1864 -0.3269 -0.3487
  451MOL0     N60767   8.038   9.661   6.194 -0.5232  0.5928  0.1474
  451MOL0     C60768   8.115   9.636   6.080 -1.0520  0.1571  0.7355
  451MOL0     C60769   8.119   9.759   6.019  0.3903  0.3331  0.5404
  451MOL0     C60770   8.202   9.789   5.897  0.1347 -0.7744 -0.4921
  451MOL0     C60771   8.141   9.913   5.830 -0.0649 -1.4452 -0.1549
  451MOL0     C60772   8.214   9.922   5.697  0.5901  0.3742  0.2618
  451MOL0     C60773   8.178  10.046   5.618 -0.4552  0.3680  0.0892
  451MOL0     O60774   8.234  10.159   5.694  0.1131  0.5973 -0.0806
  451MOL0     C60775   8.203  10.293   5.660 -0.3880  0.2177  0.2062
  451MOL0     C60776   8.148  10.329   5.537 -0.1991 -0.2304 -0.3376
  451MOL0     C60777   8.099  10.459   5.525 -0.4022  0.3114 -0.3958
  451MOL0     C60778   8.059  10.487   5.385  0.0479 -0.1982 -0.1766
  451MOL0     C60779   8.103  10.558   5.626  0.2282  0.0155 -0.3871
  451MOL0     C60780   8.040  10.694   5.627 -0.9022 -0.3654 -0.1622
  451MOL0     O60781   8.077  10.775   5.725 -0.0986 -0.7770  0.0759
  451MOL0     C60782   8.028  10.900   5.748 -1.2350  0.8422  1.2347
  451MOL0     C60783   8.099  11.016   5.714 -0.3825  0.4490 -0.3596
  451MOL0     C60784   8.039  11.145   5.732  0.1419 -0.0015  0.4134
  451MOL0     C60785   7.920  11.156   5.804  1.4871  0.9881 -0.8280
  451MOL0     O60786   7.860  11.279   5.829 -0.1780  0.0209 -0.0422
  451MOL0     C60787   7.789  11.316   5.948  0.1789  0.3881 -0.2282
  451MOL0     C60788   7.764  11.465   5.960  0.6518  0.4998 -0.1155
  451MOL0     C60789   7.876  11.548   5.911 -0.1436 -0.1273 -0.3207
  451MOL0     C60790   7.847  11.684   5.971 -0.5416 -0.0456  0.8711
  451MOL0     C60791   7.926  11.795   5.905  0.2606 -1.0632  0.1354
  451MOL0     C60792   7.895  11.933   5.967 -0.3383 -1.3473 -0.9321
  451MOL0     C60793   7.756  11.994   5.919  0.2592  1.3156  0.6904
  451MOL0     C60794   7.693  12.112   5.997  0.5797 -1.0639  0.3235
  451MOL0    Cl60795   7.603  12.045   6.134  0.2460 -0.3610 -0.1425
  451MOL0     C60796   7.852  11.037   5.836  0.4625  0.4507  0.2222
  451MOL0     C60797   7.912  10.907   5.814  0.1646 -0.7051  0.9226
  451MOL0     O60798   7.969  10.728   5.532  0.0503  0.2028 -0.6329
  451MOL0     C60799   8.164  10.517   5.741 -0.1612 -0.8202 -0.0899
  451MOL0     C60800   8.216  10.384   5.759  0.7011  0.4812 -0.4415
  451MOL0     N60801   8.048   9.851   6.103  0.2970 -0.0046  0.5596
  451MOL0     N60802   7.999   9.789   6.204  0.0153  0.0238 -0.8773
  451MOL0     C60803   8.126   8.656   6.835 -0.1389  0.3435 -0.0752
  451MOL0     C60804   8.102   8.522   6.834 -0.0841 -0.2794 -0.3916
  451MOL0     C60805   7.984   8.113   6.784  0.3501 -0.0892  0.0871
  451MOL0     C60806   8.054   8.011   6.718 -0.0098 -0.5265  0.3917
  451MOL0     C60807   8.013   7.876   6.722 -0.6592 -0.5567  0.2094
  451MOL0     C60808   7.903   7.845   6.799 -0.6238 -0.2261  0.0215
  451MOL0     O60809   7.891   7.713   6.811  0.3806  0.2889  0.4960
  451MOL0     C60810   7.769   7.656   6.862  0.6160  0.4009 -0.5097
  451MOL0     C60811   7.794   7.547   6.970  0.2250 -0.2488 -0.4290
  451MOL0     C60812   7.892   7.440   6.921 -0.3090 -0.2065  0.6597
  451MOL0     C60813   7.850   7.304   6.967  0.3936  0.2878  0.6555
  451MOL0     C60814   7.717   7.271   6.920  1.3448  0.4681 -0.2545
  451MOL0     C60815   7.602   7.268   6.874 -0.7552  0.7367 -0.1800
  451MOL0     C60816   7.832   7.937   6.869 -0.0171  0.3989 -0.7825
  451MOL0     C60817   7.865   8.071   6.850 -0.4315  0.1957 -0.0883
  451MOL0     H60818   7.761   8.533   6.848  0.2769  1.0555  1.9083
  451MOL0     H60819   7.824   8.793   6.886  1.2886  0.9221  1.5514
  451MOL0     H60820   7.940   8.955   6.721  0.2469 -0.6677  1.3024
  451MOL0     H60821   8.020   9.071   6.818 -2.1073  0.0671  0.0322
  451MOL0     H60822   8.240   9.008   6.730  0.7687 -0.6673 -0.9205
  451MOL0     H60823   8.164   8.878   6.627 -3.2419 -0.9159  2.3516
  451MOL0     H60824   8.239   9.058   6.499  3.0309 -2.2467  4.8164
  451MOL0     H60825   8.058   9.058   6.504 -0.5751  2.3046  0.0828
  451MOL0     H60826   8.055   9.255   6.638 -0.6687 -1.5523 -0.6838
  451MOL0     H60827   8.236   9.248   6.663  1.5862  0.1706 -2.0173
  451MOL0     H60828   8.243   9.277   6.415  1.1401  1.6757 -1.6618
  451MOL0     H60829   8.061   9.317   6.435  0.2207 -2.6181  1.8727
  451MOL0     H60830   8.123   9.498   6.588  0.9089  2.8369 -0.5498
  451MOL0     H60831   8.285   9.472   6.539  1.6154 -1.2012 -5.0434
  451MOL0     H60832   8.188   9.652   6.401  1.1550  0.3862  0.2599
  451MOL0     H60833   8.246   9.538   6.285  0.8101  3.0530 -0.5411
  451MOL0     H60834   7.954   9.587   6.376  2.3941  0.4049  2.0761
  451MOL0     H60835   8.010   9.458   6.266  0.9710 -0.4900 -0.5049
  451MOL0     H60836   8.172   9.548   6.054 -3.6720 -1.4938  0.2202
  451MOL0     H60837   8.311   9.797   5.905  0.1048 -0.6102 -0.2352
  451MOL0     H60838   8.188   9.714   5.819  0.3671 -0.7172 -0.5893
  451MOL0     H60839   8.145  10.000   5.897  0.1263  0.1264 -2.1123
  451MOL0     H60840   8.035   9.887   5.823 -0.0882 -1.2880 -0.4085
  451MOL0     H60841   8.176   9.840   5.635  1.3180  2.1960 -2.7777
  451MOL0     H60842   8.323   9.924   5.703  0.8144  1.1582 -2.6310
  451MOL0     H60843   8.071  10.067   5.614 -0.2522  1.7461  1.0886
  451MOL0     H60844   8.227  10.030   5.522 -1.0059 -0.7026 -0.0203
  451MOL0     H60845   8.140  10.258   5.455  0.9955 -0.1076 -0.5715
  451MOL0     H60846   7.951  10.505   5.386 -0.1812 -1.1859 -2.1731
  451MOL0     H60847   8.110  10.579   5.355  1.5556 -1.4513 -1.7142
  451MOL0     H60848   8.082  10.405   5.316 -1.2912 -1.0367  0.3257
  451MOL0     H60849   8.197  11.010   5.668  1.1140 -2.7246  2.7017
  451MOL0     H60850   8.078  11.238   5.693 -0.5299 -0.6982 -2.0613
  451MOL0     H60851   7.693  11.262   5.948  1.8014 -3.0132  3.3464
  451MOL0     H60852   7.844  11.279   6.035 -0.1809 -0.8293 -0.4942
  451MOL0     H60853   7.680  11.498   5.897 -0.6565 -1.6773  0.3737
  451MOL0     H60854   7.737  11.485   6.065 -1.9127 -3.2964  0.1612
  451MOL0     H60855   7.887  11.558   5.803  1.7682  1.9151 -0.0127
  451MOL0     H60856   7.963  11.504   5.960  0.3542  1.9024  0.6885
  451MOL0     H60857   7.741  11.712   5.964 -0.3542  1.4242  3.0112
  451MOL0     H60858   7.855  11.682   6.080 -2.8680 -0.3599  1.0916
  451MOL0     H60859   7.900  11.794   5.799  1.0344 -1.4873 -0.0559
  451MOL0     H60860   8.034  11.787   5.918  0.6551 -0.0971 -2.1629
  451MOL0     H60861   7.887  11.921   6.075 -0.0527 -2.2052 -1.0051
  451MOL0     H60862   7.982  11.994   5.942  0.3746 -1.6307  0.7640
  451MOL0     H60863   7.679  11.917   5.912  1.1462  0.5245 -0.8097
  451MOL0     H60864   7.777  12.028   5.817  0.1319 -1.3917 -0.2973
  451MOL0     H60865   7.617  12.163   5.937 -0.5815 -1.0702  1.7259
  451MOL0     H60866   7.762  12.195   6.013  2.6215 -2.1307 -2.3235
  451MOL0     H60867   7.756  11.037   5.887  0.7204  0.2492  0.7104
  451MOL0     H60868   7.863  10.821   5.858 -0.1588  0.6282  3.3010
  451MOL0     H60869   8.162  10.574   5.834  2.1886 -1.6507  0.5388
  451MOL0     H60870   8.267  10.346   5.847  0.8306 -2.4616 -1.6731
  451MOL0     H60871   8.228   8.693   6.834  1.0984 -2.7616 -1.2766
  451MOL0     H60872   8.179   8.445   6.831 -2.2593 -2.6534  0.5976
  451MOL0     H60873   8.140   8.038   6.658  1.0514 -1.2855  1.5112
  451MOL0     H60874   8.069   7.796   6.674  0.4204 -1.7935  3.3269
  451MOL0     H60875   7.693   7.721   6.906 -1.0037 -0.9083 -1.2689
  451MOL0     H60876   7.721   7.606   6.778 -1.3337  2.4617 -0.7262
  451MOL0     H60877   7.697   7.502   6.992  0.9343 -2.8306 -2.1479
  451MOL0     H60878   7.840   7.596   7.058  2.0622 -1.4077 -0.6823
  451MOL0     H60879   7.986   7.474   6.965 -1.0530 -0.1310  2.2771
  451MOL0     H60880   7.911   7.446   6.814  0.5081  0.2032  0.8217
  451MOL0     H60881   7.857   7.295   7.076  2.6774 -1.9667  0.3988
  451MOL0     H60882   7.912   7.226   6.922 -1.3900  0.2810 -1.9803
  451MOL0     H60883   7.511   7.254   6.819 -2.4031  2.1273  2.0507
  451MOL0     H60884   7.751   7.917   6.938  0.3235 -1.7882 -0.9478
  451MOL0     H60885   7.800   8.140   6.903 -1.2683 -1.0172  0.4948
  452MOL0     O60886   7.813  11.267   2.385  0.2034 -0.4495 -0.3302
  452MOL0     C60887   7.883  11.334   2.314  0.0986  0.4906  0.5220
  452MOL0     O60888   7.851  11.385   2.196 -0.4830  0.1232  0.4006
  452MOL0     C60889   7.734  11.353   2.132  0.7114 -0.3468 -0.6671
  452MOL0     C60890   7.613  11.285   2.187 -0.1964 -0.0211  0.5428
  452MOL0     C60891   7.501  11.280   2.109  0.0570  0.4558  0.1725
  452MOL0     C60892   7.504  11.322   1.976 -0.0652 -0.5559 -0.6635
  452MOL0     O60893   7.389  11.296   1.897 -0.7631 -0.9841 -0.4338
  452MOL0     C60894   7.395  11.221   1.780  0.1609 -0.2980 -0.6798
  452MOL0     C60895   7.427  11.070   1.787 -0.1332  0.3649 -1.0612
  452MOL0     C60896   7.570  11.039   1.815 -0.3687  0.2107 -0.1337
  452MOL0     C60897   7.593  10.947   1.943 -0.0091  0.3398 -0.3865
  452MOL0     C60898   7.738  10.914   1.972 -0.3789  0.4997  0.6408
  452MOL0     C60899   7.818  11.035   2.017  0.6055 -0.3240 -0.5568
  452MOL0     C60900   7.969  10.998   2.018  0.1667  0.4919  0.3626
  452MOL0     C60901   8.032  11.047   2.152  0.6950 -0.0153  1.1463
  452MOL0     N60902   8.175  11.015   2.158  0.6916  0.2950  0.1727
  452MOL0     C60903   8.267  11.017   2.047 -0.8869 -0.2971  0.1806
  452MOL0     C60904   8.378  10.969   2.098  0.2690 -0.0767  0.0440
  452MOL0     C60905   8.496  10.937   2.008 -0.0350  0.4963 -0.4422
  452MOL0     C60906   8.484  10.795   1.979  0.4493  0.2118 -0.6019
  452MOL0     C60907   8.614  10.754   1.904  0.1120 -0.3583 -0.6217
  452MOL0     C60908   8.580  10.626   1.837  1.0073 -0.1267  0.1646
  452MOL0     O60909   8.527  10.519   1.917 -0.3415 -0.4891  0.2324
  452MOL0     C60910   8.607  10.442   1.983 -0.2953 -0.6030 -0.1364
  452MOL0     C60911   8.750  10.452   1.986  0.8193  0.0251  0.3328
  452MOL0     C60912   8.828  10.354   2.060 -0.2091 -0.1016  1.2064
  452MOL0     C60913   8.976  10.370   2.044  0.3364  0.3332  0.0648
  452MOL0     C60914   8.769  10.250   2.131  0.7218 -0.3897  0.3035
  452MOL0     C60915   8.838  10.138   2.212  0.1399  0.9186 -0.0922
  452MOL0     O60916   8.751  10.050   2.280 -0.2958  0.1343 -0.7714
  452MOL0     C60917   8.813   9.944   2.342  0.4291 -0.4174  0.6691
  452MOL0     C60918   8.843   9.961   2.481  0.4522 -0.0847  0.0468
  452MOL0     C60919   8.911   9.869   2.558 -0.1976  0.8465  0.2639
  452MOL0     C60920   8.960   9.750   2.487 -0.2118 -0.4074 -0.2193
  452MOL0     O60921   9.050   9.673   2.554  0.5432  0.5456 -0.7148
  452MOL0     C60922   9.057   9.651   2.697  1.2354 -0.1530 -0.0465
  452MOL0     C60923   9.083   9.501   2.711  0.0931  0.6780 -0.3413
  452MOL0     C60924   9.083   9.465   2.864  0.0965  0.0887  0.7228
  452MOL0     C60925   9.055   9.316   2.885 -0.3351 -1.3247  0.3151
  452MOL0     C60926   9.106   9.265   3.015 -0.6751  0.0868 -0.6392
  452MOL0     C60927   9.094   9.112   3.018 -0.6475 -0.6923  0.4572
  452MOL0     C60928   9.071   9.042   3.148 -0.2399 -0.7990 -0.3037
  452MOL0     C60929   9.182   9.085   3.243 -0.0147  0.3311 -1.0836
  452MOL0    Cl60930   9.181   9.006   3.396  0.1009 -0.1286  0.1454
  452MOL0     C60931   8.919   9.728   2.355  0.1166  0.0746 -0.2981
  452MOL0     C60932   8.848   9.823   2.280 -0.2108 -0.7538  0.3360
  452MOL0     O60933   8.961  10.136   2.214 -0.4825  0.2165 -0.2601
  452MOL0     C60934   8.632  10.249   2.127  0.2446  0.7428 -0.8953
  452MOL0     C60935   8.550  10.338   2.054  0.1092  0.4644 -0.2600
  452MOL0     N60936   8.362  10.925   2.227  0.6902  0.2150 -0.5867
  452MOL0     N60937   8.238  10.947   2.253 -0.4234 -0.1353 -0.3694
  452MOL0     C60938   7.619  11.395   1.924  0.3368 -0.7284  0.2564
  452MOL0     C60939   7.726  11.405   1.998 -0.1239 -0.2611 -0.6049
  452MOL0     C60940   8.025  11.363   2.355  0.5749 -0.0417  0.3333
  452MOL0     C60941   8.107  11.451   2.287 -0.1652  0.4226  0.4159
  452MOL0     C60942   8.231  11.476   2.343  0.6662 -0.4384  0.0890
  452MOL0     C60943   8.284  11.407   2.456 -0.9480 -0.1799 -0.4623
  452MOL0     O60944   8.416  11.435   2.495 -0.3098  0.2928  0.2319
  452MOL0     C60945   8.439  11.454   2.637  0.2130  0.7221 -0.4365
  452MOL0     C60946   8.347  11.562   2.699 -0.8560  1.9483  0.3995
  452MOL0     C60947   8.409  11.700   2.679 -0.4174 -0.0139 -0.3202
  452MOL0     C60948   8.312  11.801   2.729 -0.0984 -0.1857 -0.6146
  452MOL0     C60949   8.216  11.816   2.625  0.0426  1.0067  0.3071
  452MOL0     C60950   8.140  11.806   2.531 -0.5438  0.6380 -0.3568
  452MOL0     C60951   8.211  11.299   2.505  0.2871 -0.0465 -0.4729
  452MOL0     C60952   8.082  11.278   2.458  0.1380 -0.8776 -0.3792
  452MOL0     H60953   7.596  11.235   2.282 -4.9233 -1.8181 -0.9515
  452MOL0     H60954   7.418  11.233   2.160  0.5956 -0.0454  0.6047
  452MOL0     H60955   7.295  11.246   1.741  0.4334  4.5561  0.9881
  452MOL0     H60956   7.461  11.270   1.708 -0.3960  0.3878 -0.7430
  452MOL0     H60957   7.368  11.020   1.864  1.5504 -0.1766 -0.0635
  452MOL0     H60958   7.397  11.030   1.690  1.3249 -2.7788 -0.3666
  452MOL0     H60959   7.593  10.972   1.732 -2.6224  0.1203 -0.7524
  452MOL0     H60960   7.643  11.120   1.811 -0.2313  0.0908 -0.1080
  452MOL0     H60961   7.548  10.993   2.031  0.3575 -0.3368  0.1612
  452MOL0     H60962   7.551  10.847   1.929  1.9326 -0.5370 -0.3585
  452MOL0     H60963   7.745  10.838   2.051 -0.5861  0.4815  0.6420
  452MOL0     H60964   7.777  10.879   1.876 -0.6782  0.1379  0.6489
  452MOL0     H60965   7.799  11.121   1.952  1.9344 -2.4668 -4.0618
  452MOL0     H60966   7.782  11.051   2.119 -1.1535  3.5992 -1.6193
  452MOL0     H60967   7.984  10.890   2.004  1.6535  0.8468 -1.2157
  452MOL0     H60968   8.016  11.048   1.933 -0.5001  3.0679  1.3946
  452MOL0     H60969   7.973  11.026   2.242  0.0350 -1.7906  0.3490
  452MOL0     H60970   8.048  11.155   2.153 -1.7037  0.3969  0.7907
  452MOL0     H60971   8.249  11.053   1.947 -0.2292  0.1392  0.2106
  452MOL0     H60972   8.477  10.982   1.910  0.5172 -1.9819 -1.7734
  452MOL0     H60973   8.588  10.980   2.050  1.5979  0.8358 -3.9660
  452MOL0     H60974   8.401  10.763   1.916  2.6363 -3.0748 -2.1088
  452MOL0     H60975   8.483  10.731   2.068  1.1243  0.0166 -0.7298
  452MOL0     H60976   8.700  10.748   1.972 -1.0782 -0.5222  0.9330
  452MOL0     H60977   8.643  10.819   1.821 -0.7714  1.6134  0.5439
  452MOL0     H60978   8.671  10.607   1.780 -0.1672 -0.4980 -1.6625
  452MOL0     H60979   8.514  10.643   1.751  2.1135  1.2868 -0.4333
  452MOL0     H60980   8.801  10.527   1.926  0.1033  2.3806  2.5146
  452MOL0     H60981   9.010  10.290   1.977 -3.1607 -2.9773  1.9169
  452MOL0     H60982   8.997  10.471   2.007 -2.2069  1.3168  1.0576
  452MOL0     H60983   9.023  10.363   2.143  0.6323  1.0486 -0.0134
  452MOL0     H60984   8.821  10.053   2.534  2.8720  1.3431 -1.2656
  452MOL0     H60985   8.928   9.896   2.661 -0.2593  2.4570 -0.1235
  452MOL0     H60986   9.142   9.710   2.732 -0.4325  0.6040  3.1831
  452MOL0     H60987   8.963   9.670   2.750  1.3506 -1.5666  0.7127
  452MOL0     H60988   8.998   9.440   2.679  2.0839 -2.5800  0.1711
  452MOL0     H60989   9.175   9.478   2.656 -1.1620 -1.4950 -1.6796
  452MOL0     H60990   9.012   9.531   2.914  0.7629  2.9975 -1.8721
  452MOL0     H60991   9.188   9.473   2.892  1.4456 -4.5147 -2.0091
  452MOL0     H60992   8.951   9.293   2.860 -0.9068  0.2145  1.1299
  452MOL0     H60993   9.118   9.270   2.809 -0.4435 -0.8425 -0.0691
  452MOL0     H60994   9.035   9.321   3.077  0.4201  3.7927 -2.4123
  452MOL0     H60995   9.204   9.296   3.053  0.1923 -3.2535  0.1987
  452MOL0     H60996   9.011   9.078   2.954 -0.6228  1.3166 -0.7412
  452MOL0     H60997   9.183   9.066   2.974 -1.8259  1.0967 -4.4191
  452MOL0     H60998   9.075   8.935   3.126  0.3366 -0.8005 -0.2022
  452MOL0     H60999   8.969   9.061   3.184 -1.0868  1.4242 -3.4758
  452MOL0     H61000   9.171   9.192   3.262  1.5140  0.7532 -2.4206
  452MOL0     H61001   9.277   9.070   3.191  0.0409 -3.6196 -0.2054
  452MOL0     H61002   8.947   9.640   2.297 -0.0762  0.5023 -1.0651
  452MOL0     H61003   8.825   9.810   2.174 -1.7987 -3.2064  0.8950
  452MOL0     H61004   8.572  10.175   2.180  1.5341  2.4585  3.3335
  452MOL0     H61005   8.442  10.336   2.062  0.1863  1.4867  1.5758
  452MOL0     H61006   7.616  11.438   1.824 -0.4948  3.3455  1.8487
  452MOL0     H61007   7.810  11.466   1.965 -1.9939  2.5508 -0.5109
  452MOL0     H61008   8.072  11.510   2.203 -0.1715  4.5403  3.0564
  452MOL0     H61009   8.300  11.547   2.299 -2.2624 -0.5595 -5.5117
  452MOL0     H61010   8.449  11.361   2.694  1.4232 -0.9970 -3.2490
  452MOL0     H61011   8.543  11.488   2.634  0.9729 -1.2985  0.7115
  452MOL0     H61012   8.351  11.531   2.804  1.1605 -1.8611 -0.6377
  452MOL0     H61013   8.241  11.558   2.669 -1.1188 -0.3085  1.4231
  452MOL0     H61014   8.433  11.722   2.575  0.1576 -1.4286 -0.5175
  452MOL0     H61015   8.502  11.699   2.737 -0.9820 -1.3904  0.6238
  452MOL0     H61016   8.360  11.899   2.736 -0.4083 -0.1362  2.0264
  452MOL0     H61017   8.270  11.778   2.828  2.3166  3.8607  1.5943
  452MOL0     H61018   8.073  11.790   2.449  1.1494  1.6350 -2.0138
  452MOL0     H61019   8.241  11.225   2.579  2.8345 -0.6689 -1.9864
  452MOL0     H61020   8.013  11.199   2.489  1.1794 -1.6236  0.0896
  453MOL0     O61021  11.319   1.464   2.974 -1.0495 -0.6956 -0.5511
  453MOL0     C61022  11.431   1.406   2.999  0.2678 -0.0354 -0.5253
  453MOL0     O61023  11.463   1.265   2.988  0.7691 -0.4970  0.4930
  453MOL0     C61024  11.362   1.177   2.958 -0.7336  0.0546 -0.2299
  453MOL0     C61025  11.338   1.135   2.831 -1.3940 -0.1834  0.3653
  453MOL0     C61026  11.236   1.049   2.801 -1.1436 -0.5490 -1.3063
  453MOL0     C61027  11.152   1.006   2.909  1.5179  0.2226  1.2873
  453MOL0     O61028  11.047   0.918   2.891  0.4022 -0.0222  0.9296
  453MOL0     C61029  10.998   0.901   2.758 -0.4479  0.2534  1.2070
  453MOL0     C61030  10.855   0.827   2.766  0.7195 -0.8395 -0.1447
  453MOL0     C61031  10.876   0.685   2.814  0.4293 -0.6250 -0.3595
  453MOL0     C61032  10.746   0.598   2.785 -0.7775 -0.0470  0.1116
  453MOL0     C61033  10.677   0.557   2.920  0.7228 -0.2248 -1.4412
  453MOL0     C61034  10.550   0.490   2.888  0.2375  0.6194  0.5265
  453MOL0     C61035  10.448   0.576   2.804 -0.0277 -0.9233 -0.3694
  453MOL0     C61036  10.326   0.487   2.768  0.6427  1.3706 -0.2121
  453MOL0     N61037  10.227   0.559   2.691 -0.7932 -0.9264 -0.5523
  453MOL0     C61038  10.119   0.628   2.751 -0.3147 -0.1691 -0.9639
  453MOL0     C61039  10.053   0.684   2.653 -0.9213  0.0288 -0.0440
  453MOL0     C61040   9.920   0.764   2.666 -0.2209 -0.4876 -0.5787
  453MOL0     C61041   9.952   0.891   2.746 -0.4410  0.6066 -0.2531
  453MOL0     C61042  10.013   1.000   2.657 -0.7755 -0.2313  0.4336
  453MOL0     C61043  10.041   1.116   2.739  0.5594 -0.0421 -0.5764
  453MOL0     O61044  10.117   1.209   2.659  0.1368 -1.0301 -0.5309
  453MOL0     C61045  10.252   1.197   2.655 -0.7143 -0.4032 -0.3595
  453MOL0     C61046  10.321   1.083   2.694  0.4063 -0.4637  0.7785
  453MOL0     C61047  10.459   1.082   2.683  0.1770 -0.5882 -0.7451
  453MOL0     C61048  10.538   0.964   2.742  0.2703 -0.2078 -0.3043
  453MOL0     C61049  10.528   1.197   2.637 -0.4023  0.3841  0.1176
  453MOL0     C61050  10.679   1.202   2.626 -0.5796 -0.2573  0.2231
  453MOL0     O61051  10.738   1.249   2.515 -0.3090  0.2196  0.1594
  453MOL0     C61052  10.874   1.239   2.504  0.2462  1.0572  0.3317
  453MOL0     C61053  10.917   1.194   2.380 -0.0840  0.5891 -0.5608
  453MOL0     C61054  11.063   1.171   2.360  0.0057 -0.6978 -0.5145
  453MOL0     C61055  11.153   1.196   2.461  0.5035 -0.0581 -0.3678
  453MOL0     O61056  11.288   1.177   2.440 -0.2872  0.6127  0.1370
  453MOL0     C61057  11.337   1.250   2.329 -0.2802 -0.7130 -0.5592
  453MOL0     C61058  11.483   1.293   2.370  0.0177 -0.7893  0.2347
  453MOL0     C61059  11.482   1.423   2.452 -0.1219 -0.9491 -0.4107
  453MOL0     C61060  11.620   1.497   2.482 -0.7560  0.7244  0.9128
  453MOL0     C61061  11.589   1.647   2.516 -0.4878 -0.0123 -0.3482
  453MOL0     C61062  11.491   1.672   2.632 -1.5223  0.1194  0.0993
  453MOL0     C61063  11.428   1.804   2.636  0.2542  0.3172  1.1192
  453MOL0     C61064  11.400   1.850   2.781 -0.1288 -0.3800 -0.4897
  453MOL0    Cl61065  11.552   1.862   2.887  0.1642 -0.0933  0.3413
  453MOL0     C61066  11.116   1.242   2.585  0.2925 -1.6221 -1.1691
  453MOL0     C61067  10.978   1.267   2.604 -0.7918  0.4591  0.3823
  453MOL0     O61068  10.741   1.147   2.716  0.4409 -0.2558  0.1203
  453MOL0     C61069  10.455   1.310   2.602 -0.0636 -0.7564 -0.5131
  453MOL0     C61070  10.323   1.313   2.611 -0.0678  0.0939 -0.5643
  453MOL0     N61071  10.130   0.657   2.538  0.4714  0.5147  0.3382
  453MOL0     N61072  10.233   0.589   2.562 -0.2560 -0.1232  0.6355
  453MOL0     C61073  11.172   1.047   3.038 -0.3514  0.1129  0.6891
  453MOL0     C61074  11.285   1.135   3.063  0.0759  0.0371  1.2399
  453MOL0     C61075  11.546   1.491   3.041  0.6511  0.5793 -0.8239
  453MOL0     C61076  11.675   1.449   3.035 -0.0448  0.2053  0.4086
  453MOL0     C61077  11.782   1.528   3.076  0.3618 -0.7207 -0.3040
  453MOL0     C61078  11.758   1.656   3.129 -0.0930 -0.4432 -0.5706
  453MOL0     O61079  11.854   1.745   3.169 -0.0872  0.0203 -0.4710
  453MOL0     C61080  11.997   1.725   3.151  0.0025 -0.3305  0.2465
  453MOL0     C61081  12.056   1.854   3.080 -0.1657 -0.0737 -0.4545
  453MOL0     C61082  11.974   1.909   2.959 -0.4534  0.0325 -0.3667
  453MOL0     C61083  12.000   1.819   2.841 -0.5733  0.7761  0.2575
  453MOL0     C61084  11.905   1.841   2.732  0.5809 -0.0183 -0.6499
  453MOL0     C61085  11.827   1.871   2.642  0.4670 -0.6126 -0.4476
  453MOL0     C61086  11.625   1.693   3.143  0.4083 -0.6254 -0.1081
  453MOL0     C61087  11.515   1.613   3.108 -0.1242  0.5678 -0.6412
  453MOL0     H61088  11.409   1.175   2.759  2.0085 -3.0451  1.8468
  453MOL0     H61089  11.233   1.022   2.696 -1.3931  0.7966 -1.6729
  453MOL0     H61090  10.990   0.994   2.703 -0.5513 -0.9872 -0.9839
  453MOL0     H61091  11.072   0.839   2.707 -2.3972 -0.9993 -0.2671
  453MOL0     H61092  10.789   0.875   2.839  2.6358 -0.6550  1.5758
  453MOL0     H61093  10.805   0.824   2.669  2.5575 -2.7246 -1.1128
  453MOL0     H61094  10.959   0.641   2.757  1.8080 -0.8872  1.7533
  453MOL0     H61095  10.904   0.690   2.919 -0.0778  1.1965 -0.2825
  453MOL0     H61096  10.681   0.663   2.725  0.2286  0.7163 -0.1660
  453MOL0     H61097  10.762   0.502   2.735 -2.0020 -0.5045  0.5420
  453MOL0     H61098  10.743   0.493   2.980  1.1384  0.9487 -0.6058
  453MOL0     H61099  10.655   0.645   2.982  0.5889 -0.2197 -1.4968
  453MOL0     H61100  10.574   0.404   2.824  0.6760 -0.1458  1.6757
  453MOL0     H61101  10.503   0.446   2.976  0.6535 -1.1181 -0.0690
  453MOL0     H61102  10.398   0.662   2.849  1.7102  0.4434 -0.9336
  453MOL0     H61103  10.495   0.607   2.710 -3.3788 -1.5356 -2.4310
  453MOL0     H61104  10.279   0.436   2.852 -0.8813 -0.0696 -1.8699
  453MOL0     H61105  10.348   0.404   2.702 -1.1112 -0.2982  1.2016
  453MOL0     H61106  10.099   0.643   2.857 -2.8327 -2.1015 -1.0820
  453MOL0     H61107   9.879   0.804   2.573 -0.6085 -0.5047 -0.4180
  453MOL0     H61108   9.846   0.699   2.715  0.2349 -0.5678  0.0120
  453MOL0     H61109  10.028   0.864   2.820  0.3014 -2.7664 -2.0299
  453MOL0     H61110   9.865   0.939   2.791 -1.6525 -1.0654 -0.6874
  453MOL0     H61111   9.940   1.018   2.578  0.3756 -1.0730 -0.8749
  453MOL0     H61112  10.101   0.965   2.602 -1.2531  0.8157 -1.0590
  453MOL0     H61113  10.096   1.078   2.825 -2.8726 -1.6716  1.1327
  453MOL0     H61114   9.954   1.165   2.784  0.3452 -0.9014 -0.0296
  453MOL0     H61115  10.274   0.989   2.721 -2.9636  1.0258  0.5235
  453MOL0     H61116  10.599   0.915   2.665  0.7529 -1.2993  0.7364
  453MOL0     H61117  10.596   0.999   2.827 -0.2402 -0.5148  0.1754
  453MOL0     H61118  10.469   0.889   2.784 -1.5386  2.1724  1.2169
  453MOL0     H61119  10.835   1.193   2.309 -0.0204  0.2561 -0.6313
  453MOL0     H61120  11.109   1.150   2.264 -2.1861 -0.0721 -1.7850
  453MOL0     H61121  11.335   1.182   2.243  0.1347  1.2205 -2.1823
  453MOL0     H61122  11.278   1.340   2.306 -3.7927 -1.4845  3.9420
  453MOL0     H61123  11.522   1.214   2.435  1.1326 -1.5182 -1.2350
  453MOL0     H61124  11.545   1.306   2.281 -3.1690  1.3284 -1.8861
  453MOL0     H61125  11.445   1.391   2.550  1.8119 -0.7193  0.4301
  453MOL0     H61126  11.411   1.491   2.403 -1.3279  0.1821  2.6726
  453MOL0     H61127  11.672   1.451   2.567 -3.1502  3.0514  3.8868
  453MOL0     H61128  11.680   1.498   2.391 -3.4638  0.4327 -1.0072
  453MOL0     H61129  11.534   1.684   2.428 -0.0834  0.8268 -0.2575
  453MOL0     H61130  11.676   1.711   2.531  0.2212 -1.2320  0.9147
  453MOL0     H61131  11.410   1.599   2.625 -2.3389  0.8710  1.2987
  453MOL0     H61132  11.541   1.640   2.725 -3.0839 -2.3665  0.1914
  453MOL0     H61133  11.336   1.782   2.580  1.9385 -2.9438 -0.6909
  453MOL0     H61134  11.483   1.878   2.579 -2.6855 -0.2258 -2.8600
  453MOL0     H61135  11.339   1.775   2.832 -1.7511  0.0262 -1.7799
  453MOL0     H61136  11.342   1.941   2.764  0.4420 -0.0383 -0.6291
  453MOL0     H61137  11.188   1.266   2.663  0.0078  0.0824 -1.3722
  453MOL0     H61138  10.951   1.312   2.699  0.0798  0.4632  0.6386
  453MOL0     H61139  10.508   1.400   2.572 -1.4609 -0.1832 -1.3319
  453MOL0     H61140  10.276   1.406   2.581  1.9009  0.9753 -1.0611
  453MOL0     H61141  11.111   1.016   3.123 -0.5083  0.6196  0.7647
  453MOL0     H61142  11.305   1.162   3.166 -0.9447  1.8396  1.0094
  453MOL0     H61143  11.691   1.348   3.002 -2.0215 -0.5278  1.4940
  453MOL0     H61144  11.880   1.489   3.051 -1.1859 -3.2686 -2.9369
  453MOL0     H61145  12.031   1.715   3.254  1.2459 -0.1525 -0.1289
  453MOL0     H61146  12.028   1.638   3.093  1.0529 -0.5101  1.0475
  453MOL0     H61147  12.164   1.841   3.067  0.1392  1.1907  0.5807
  453MOL0     H61148  12.047   1.937   3.150  1.6126 -1.5167  1.6009
  453MOL0     H61149  11.994   2.014   2.932 -0.3824 -0.3086 -1.7069
  453MOL0     H61150  11.867   1.893   2.975 -0.2994 -1.3749 -0.6528
  453MOL0     H61151  11.993   1.714   2.871 -2.2734  1.8145  4.0209
  453MOL0     H61152  12.099   1.835   2.797 -1.4038  2.2477 -1.1931
  453MOL0     H61153  11.760   1.912   2.569 -1.2159 -0.8154  0.9229
  453MOL0     H61154  11.618   1.791   3.190 -0.0683  0.0574 -1.5290
  453MOL0     H61155  11.411   1.634   3.128 -0.2616  0.6640 -1.4177
  454MOL0     O61156   7.331   6.728   3.808  0.2858  0.4452  0.0574
  454MOL0     C61157   7.436   6.775   3.765 -0.5126  0.1373 -0.0873
  454MOL0     O61158   7.563   6.736   3.796  0.1742 -0.2170  0.6756
  454MOL0     C61159   7.589   6.617   3.867 -0.2793 -0.2545 -0.5877
  454MOL0     C61160   7.711   6.549   3.841 -0.1968 -0.0578  0.2589
  454MOL0     C61161   7.746   6.435   3.915  0.2214  0.2366  0.6463
  454MOL0     C61162   7.670   6.394   4.024 -0.3560  0.1742  0.5391
  454MOL0     O61163   7.694   6.294   4.111  0.1695  0.4312 -0.2916
  454MOL0     C61164   7.805   6.213   4.079 -0.6367  0.7083 -0.4515
  454MOL0     C61165   7.926   6.299   4.130 -0.2089  0.0107  0.2909
  454MOL0     C61166   8.066   6.246   4.105 -0.2821 -0.3818 -0.0280
  454MOL0     C61167   8.172   6.351   4.150 -0.7229  0.1109  0.9313
  454MOL0     C61168   8.317   6.311   4.135  0.7425  0.1537  0.1960
  454MOL0     C61169   8.362   6.174   4.191  0.4189 -0.4606 -0.3639
  454MOL0     C61170   8.402   6.202   4.344 -0.7381 -1.1522  0.5386
  454MOL0     C61171   8.433   6.073   4.421 -0.0143  0.4564  0.5786
  454MOL0     N61172   8.518   5.989   4.334 -0.1062 -0.5978 -0.3736
  454MOL0     C61173   8.649   6.005   4.305  1.2799 -0.0741 -0.4151
  454MOL0     C61174   8.679   5.920   4.202 -0.1289 -0.4428 -0.7956
  454MOL0     C61175   8.811   5.935   4.139  0.0458  0.4727 -0.0714
  454MOL0     C61176   8.921   5.894   4.229 -0.3345  0.2509  0.4752
  454MOL0     C61177   9.063   5.915   4.183  0.0151 -0.4554 -0.4021
  454MOL0     C61178   9.160   5.853   4.288 -0.2643 -1.0142  0.5443
  454MOL0     O61179   9.298   5.888   4.263  0.4433 -0.4843 -0.4635
  454MOL0     C61180   9.386   5.819   4.334  0.2117 -0.8855  0.0812
  454MOL0     C61181   9.443   5.706   4.282 -1.1978 -0.1403  0.5723
  454MOL0     C61182   9.521   5.622   4.362 -0.2895  0.7797 -0.6831
  454MOL0     C61183   9.577   5.500   4.299 -0.6554 -0.6697 -0.2222
  454MOL0     C61184   9.545   5.654   4.503 -0.2524  0.0394 -0.8700
  454MOL0     C61185   9.632   5.572   4.601 -0.6685  1.0868  0.5708
  454MOL0     O61186   9.670   5.639   4.715 -0.2463 -0.1081 -0.5124
  454MOL0     C61187   9.745   5.562   4.804  0.7253  0.5783  0.3277
  454MOL0     C61188   9.881   5.535   4.808  0.6999  0.5564 -0.0083
  454MOL0     C61189   9.943   5.452   4.910  0.3097  0.5543  0.2291
  454MOL0     C61190   9.861   5.404   5.012 -0.8079  0.8994  0.2879
  454MOL0     O61191   9.902   5.319   5.113  0.4666  0.8221  0.1125
  454MOL0     C61192  10.038   5.276   5.120 -0.6086  0.3481  0.3521
  454MOL0     C61193  10.059   5.191   5.255 -0.5622  0.0678  0.1477
  454MOL0     C61194   9.991   5.259   5.383 -0.7787  0.1756 -0.7967
  454MOL0     C61195   9.998   5.161   5.497  0.3325 -0.3528  0.7585
  454MOL0     C61196   9.903   5.208   5.611 -0.2034  0.1348  0.2028
  454MOL0     C61197   9.886   5.115   5.740 -0.0464  0.2029  0.4244
  454MOL0     C61198   9.844   4.973   5.703  0.4547 -0.3368 -0.1869
  454MOL0     C61199   9.827   4.904   5.837 -0.2435  0.1986  0.5496
  454MOL0    Cl61200   9.773   4.736   5.806  0.3000  0.0105 -0.4204
  454MOL0     C61201   9.722   5.430   5.005 -0.4694  0.5773 -0.5128
  454MOL0     C61202   9.665   5.505   4.901 -0.8495  0.7967 -0.5413
  454MOL0     O61203   9.671   5.458   4.562  0.6879  0.4275 -0.1304
  454MOL0     C61204   9.471   5.765   4.560 -0.6951 -0.9643  0.1816
  454MOL0     C61205   9.396   5.844   4.469 -0.3985  0.3456 -0.5627
  454MOL0     N61206   8.563   5.849   4.177  0.4050  1.0102  0.3484
  454MOL0     N61207   8.465   5.887   4.259  0.8387 -0.2197 -0.2715
  454MOL0     C61208   7.549   6.460   4.056 -0.1857 -0.1956  0.4713
  454MOL0     C61209   7.507   6.565   3.970 -0.0586 -0.0630 -0.4046
  454MOL0     C61210   7.417   6.880   3.669  0.3624 -0.1431  0.1658
  454MOL0     C61211   7.498   6.881   3.556 -0.2156 -0.0747 -0.1522
  454MOL0     C61212   7.477   6.983   3.459  0.5667  0.3214 -0.4627
  454MOL0     C61213   7.362   7.077   3.479 -0.9202  0.1182  0.2741
  454MOL0     O61214   7.344   7.177   3.389 -0.6857 -0.0921  0.1497
  454MOL0     C61215   7.457   7.226   3.318  0.0098  0.3570 -0.3132
  454MOL0     C61216   7.410   7.350   3.253  0.4109 -0.0384 -0.0435
  454MOL0     C61217   7.488   7.395   3.121  0.1189  0.6869 -0.3671
  454MOL0     C61218   7.432   7.523   3.062  0.6241  0.8224 -0.2423
  454MOL0     C61219   7.291   7.523   3.027 -0.3073  0.4763  0.1353
  454MOL0     C61220   7.185   7.519   2.985  0.2426  0.0333 -0.3563
  454MOL0     C61221   7.274   7.063   3.584 -0.2261  0.4119  0.9438
  454MOL0     C61222   7.301   6.961   3.678  0.5561 -0.2304  1.2364
  454MOL0     H61223   7.757   6.591   3.752 -2.4488 -1.3264 -1.6223
  454MOL0     H61224   7.836   6.385   3.882 -1.1535 -1.3658 -0.8568
  454MOL0     H61225   7.809   6.120   4.136 -2.3542  0.9966  0.2142
  454MOL0     H61226   7.803   6.195   3.971 -2.2703  0.2290 -0.3625
  454MOL0     H61227   7.918   6.397   4.083 -0.2442 -0.5190 -0.8284
  454MOL0     H61228   7.917   6.330   4.235  1.3515  1.3898  0.0528
  454MOL0     H61229   8.076   6.155   4.165  2.5338  0.4104  0.8804
  454MOL0     H61230   8.079   6.221   4.000 -0.4721  0.5850 -0.2967
  454MOL0     H61231   8.147   6.444   4.098  2.8339  0.3235 -0.6810
  454MOL0     H61232   8.160   6.371   4.257  1.6093  0.7783  1.1202
  454MOL0     H61233   8.334   6.306   4.027  0.4740 -0.5107  0.1828
  454MOL0     H61234   8.371   6.397   4.176 -0.7604  3.3909 -3.9435
  454MOL0     H61235   8.281   6.101   4.182 -0.8958  0.4241  2.7082
  454MOL0     H61236   8.456   6.157   4.138  1.4677  0.9664  0.9372
  454MOL0     H61237   8.487   6.271   4.338 -0.7766 -1.1532 -0.1179
  454MOL0     H61238   8.316   6.244   4.396 -0.6756 -1.8085  1.1902
  454MOL0     H61239   8.334   6.038   4.451 -1.7100  2.3474 -2.2210
  454MOL0     H61240   8.484   6.098   4.514 -0.3719 -0.5283  1.0575
  454MOL0     H61241   8.711   6.073   4.363 -1.6709  2.2448  0.2868
  454MOL0     H61242   8.813   5.892   4.039  2.6014 -1.5878  0.7650
  454MOL0     H61243   8.828   6.039   4.111  0.8166  0.2570 -0.4067
  454MOL0     H61244   8.905   5.787   4.248  2.9460  0.0885  3.2550
  454MOL0     H61245   8.908   5.941   4.327 -0.2827  2.0554 -0.3455
  454MOL0     H61246   9.085   6.021   4.168 -1.8706 -0.0366 -0.4394
  454MOL0     H61247   9.086   5.876   4.083 -0.9753  3.8289 -2.5108
  454MOL0     H61248   9.137   5.746   4.284 -0.7386 -0.9600 -4.9848
  454MOL0     H61249   9.128   5.879   4.390  0.1383 -0.7528  0.6061
  454MOL0     H61250   9.441   5.698   4.174  0.8115 -0.0747  0.4918
  454MOL0     H61251   9.685   5.512   4.289 -0.9190  0.0806 -3.2431
  454MOL0     H61252   9.562   5.402   4.345 -0.3261  0.0604  1.5015
  454MOL0     H61253   9.543   5.497   4.195 -0.3851  0.4406 -0.3571
  454MOL0     H61254   9.937   5.577   4.725 -0.8274  0.2746 -1.2395
  454MOL0     H61255  10.048   5.425   4.907  0.7977  2.0787  1.9420
  454MOL0     H61256  10.076   5.221   5.034  1.4094  2.0596  0.0618
  454MOL0     H61257  10.102   5.365   5.128 -0.0131  0.2406 -2.3632
  454MOL0     H61258  10.008   5.097   5.233  2.5530 -1.3986 -1.3664
  454MOL0     H61259  10.166   5.174   5.271 -0.3930  1.2443  0.3880
  454MOL0     H61260   9.891   5.289   5.351 -1.3061 -0.7888 -0.1227
  454MOL0     H61261  10.058   5.339   5.417  1.8569 -1.8324 -0.8884
  454MOL0     H61262   9.979   5.059   5.463  1.4848 -0.3505  0.0540
  454MOL0     H61263  10.098   5.154   5.541  0.1230 -0.7585  1.1747
  454MOL0     H61264   9.809   5.212   5.557 -0.1653  1.3834  0.1856
  454MOL0     H61265   9.922   5.307   5.654  3.9633 -0.9669  1.3331
  454MOL0     H61266   9.986   5.098   5.783  1.9334  3.0162 -2.6295
  454MOL0     H61267   9.815   5.165   5.806 -3.3742 -2.6130 -0.7328
  454MOL0     H61268   9.922   4.927   5.641 -0.8449 -0.5421 -1.7110
  454MOL0     H61269   9.751   4.984   5.646  1.7275  0.4394 -2.2514
  454MOL0     H61270   9.753   4.952   5.902 -0.8709 -0.8011  0.6084
  454MOL0     H61271   9.922   4.902   5.890 -0.5393 -3.1934  1.1954
  454MOL0     H61272   9.669   5.410   5.097 -4.0637 -0.6340 -2.6561
  454MOL0     H61273   9.559   5.517   4.922 -0.7993  1.0528 -0.4248
  454MOL0     H61274   9.471   5.768   4.668  0.2773 -0.2141  0.1718
  454MOL0     H61275   9.328   5.915   4.516  0.0111  0.7952 -0.6387
  454MOL0     H61276   7.476   6.438   4.133  1.1715 -0.9844  1.5788
  454MOL0     H61277   7.406   6.594   3.996 -0.0487  0.8483 -1.3055
  454MOL0     H61278   7.573   6.805   3.538 -0.3177 -0.4898  1.1136
  454MOL0     H61279   7.551   6.986   3.380  0.5905  0.5045 -0.4343
  454MOL0     H61280   7.552   7.238   3.372  0.7128 -2.2653 -0.7843
  454MOL0     H61281   7.475   7.149   3.242 -1.3356  0.8038 -1.1121
  454MOL0     H61282   7.410   7.440   3.315  0.2028 -0.8594  1.1785
  454MOL0     H61283   7.305   7.341   3.224  0.6705  1.4608 -1.5912
  454MOL0     H61284   7.491   7.317   3.045  1.1823  0.5090 -0.1555
  454MOL0     H61285   7.593   7.406   3.150  0.0908  1.0624 -0.4009
  454MOL0     H61286   7.484   7.531   2.966  1.6204 -2.1190 -0.0488
  454MOL0     H61287   7.440   7.610   3.128 -1.1090  1.5218 -0.8853
  454MOL0     H61288   7.093   7.513   2.929  1.5471 -0.3681 -2.5948
  454MOL0     H61289   7.188   7.129   3.589  1.1642  2.2556  1.4832
  454MOL0     H61290   7.244   6.950   3.769  0.3411 -1.6661  0.9511
  455MOL0     O61291  10.966   7.698   7.619 -0.8441  0.5579  0.9245
  455MOL0     C61292  11.034   7.589   7.623  1.0167 -0.3137  1.0232
  455MOL0     O61293  11.126   7.537   7.530 -0.4084 -0.0076  0.2919
  455MOL0     C61294  11.173   7.633   7.434 -0.3937  0.0538  0.2820
  455MOL0     C61295  11.276   7.722   7.460 -0.0244  0.1643 -0.3493
  455MOL0     C61296  11.325   7.815   7.365 -0.6662  0.1106 -0.0879
  455MOL0     C61297  11.276   7.827   7.240  0.7086 -0.2281 -0.2731
  455MOL0     O61298  11.325   7.926   7.166 -0.0006  0.2371  0.8647
  455MOL0     C61299  11.328   7.904   7.023 -0.0499  0.4541  0.3818
  455MOL0     C61300  11.380   8.030   6.940 -0.0597 -0.6178  0.2382
  455MOL0     C61301  11.272   8.140   6.913 -0.0913 -0.3983  0.2378
  455MOL0     C61302  11.194   8.105   6.790  0.5749 -0.8284  0.4389
  455MOL0     C61303  11.119   8.229   6.737 -0.6931  0.0213  0.0716
  455MOL0     C61304  11.037   8.182   6.619  0.8494 -0.6778  0.4354
  455MOL0     C61305  10.944   8.293   6.566 -0.7266  0.8434  0.0429
  455MOL0     C61306  10.829   8.329   6.655  0.4090  0.5822  0.5516
  455MOL0     N61307  10.713   8.280   6.593  0.4398  0.0403  0.7770
  455MOL0     C61308  10.645   8.178   6.641 -0.4279 -0.3348 -0.3115
  455MOL0     C61309  10.527   8.167   6.570 -0.2381 -0.3202  0.5045
  455MOL0     C61310  10.411   8.071   6.603 -1.1930 -0.4235  0.1910
  455MOL0     C61311  10.282   8.154   6.625 -0.8372 -0.1534 -0.1038
  455MOL0     C61312  10.165   8.071   6.672  0.2428  0.0906 -0.2304
  455MOL0     C61313  10.169   7.924   6.652 -0.0427  0.1810 -0.3804
  455MOL0     O61314  10.169   7.904   6.509  0.7379  0.3071  0.3334
  455MOL0     C61315  10.230   7.789   6.474 -0.6182 -0.5063  0.4325
  455MOL0     C61316  10.251   7.678   6.558 -0.7493  0.8476  0.1713
  455MOL0     C61317  10.317   7.565   6.510  0.4552 -0.2742 -0.1907
  455MOL0     C61318  10.325   7.443   6.595  0.1877 -0.8885 -0.4828
  455MOL0     C61319  10.374   7.563   6.372  0.5105 -0.1797 -0.1318
  455MOL0     C61320  10.442   7.453   6.297  0.0034  0.1956  0.5967
  455MOL0     O61321  10.423   7.436   6.165 -0.1172 -0.7000 -0.2895
  455MOL0     C61322  10.479   7.343   6.085 -0.2072  0.0570 -0.4807
  455MOL0     C61323  10.418   7.344   5.959  1.0491 -1.2214 -0.6077
  455MOL0     C61324  10.470   7.259   5.863 -0.3950  0.5069 -0.0836
  455MOL0     C61325  10.576   7.172   5.894  0.3924 -0.3017  0.7770
  455MOL0     O61326  10.626   7.094   5.787  0.7030 -0.3849  0.4322
  455MOL0     C61327  10.739   7.011   5.809 -1.5497  0.6505 -0.5191
  455MOL0     C61328  10.750   6.919   5.691  0.1305 -0.4117 -0.2594
  455MOL0     C61329  10.630   6.828   5.682 -0.3303 -1.2499 -0.1475
  455MOL0     C61330  10.655   6.746   5.559  0.2909 -0.3555  0.9868
  455MOL0     C61331  10.567   6.626   5.530  0.1448  0.4058 -0.4039
  455MOL0     C61332  10.421   6.676   5.503  0.0785 -0.0955 -0.7320
  455MOL0     C61333  10.327   6.614   5.597  0.1139 -0.9299 -1.1076
  455MOL0     C61334  10.319   6.460   5.584 -0.5793 -0.1430  0.7098
  455MOL0    Cl61335  10.248   6.388   5.722 -0.2634  0.0939  0.2179
  455MOL0     C61336  10.631   7.171   6.022 -0.2844  0.5037 -0.3879
  455MOL0     C61337  10.584   7.261   6.119 -0.0328  0.3877  0.3815
  455MOL0     O61338  10.519   7.387   6.364  0.5865  0.0414 -0.5212
  455MOL0     C61339  10.366   7.681   6.302  0.0358 -0.1695 -0.1487
  455MOL0     C61340  10.286   7.786   6.350 -0.2335 -0.0570  0.3148
  455MOL0     N61341  10.527   8.268   6.477  0.1032  0.7744 -0.0416
  455MOL0     N61342  10.634   8.340   6.492 -0.7215  0.3379 -0.1532
  455MOL0     C61343  11.181   7.736   7.204  0.3900  0.0515 -0.3008
  455MOL0     C61344  11.126   7.638   7.301  0.7158  0.3592  0.8930
  455MOL0     C61345  11.008   7.507   7.744 -0.6998 -0.3381  0.4125
  455MOL0     C61346  10.935   7.557   7.852  0.1870 -0.6311  0.0866
  455MOL0     C61347  10.904   7.476   7.964 -0.5303  0.5141  0.3966
  455MOL0     C61348  10.952   7.341   7.960 -0.0982  0.0907 -0.4368
  455MOL0     O61349  10.951   7.270   8.072 -0.1059 -0.0400  0.0902
  455MOL0     C61350  11.066   7.209   8.125 -0.1238 -0.6649  0.2882
  455MOL0     C61351  11.189   7.300   8.116  0.3283 -0.6135 -0.4355
  455MOL0     C61352  11.169   7.432   8.200  0.1708 -0.0438 -0.2101
  455MOL0     C61353  11.120   7.414   8.339 -0.4212 -0.3586 -0.2041
  455MOL0     C61354  10.979   7.433   8.374  0.7204  0.1596 -0.7776
  455MOL0     C61355  10.865   7.441   8.421 -0.1988  0.0376  0.3157
  455MOL0     C61356  11.013   7.290   7.839 -0.1686  0.0605 -0.1686
  455MOL0     C61357  11.044   7.375   7.736  0.1337 -0.0685 -0.4256
  455MOL0     H61358  11.312   7.721   7.562  0.9864 -0.1205 -0.6932
  455MOL0     H61359  11.406   7.880   7.396  0.7237 -1.1680 -0.8750
  455MOL0     H61360  11.393   7.818   7.007 -0.7956 -0.2748  1.1694
  455MOL0     H61361  11.227   7.872   6.996 -0.5715  0.1240  2.5365
  455MOL0     H61362  11.471   8.064   6.990 -0.3041 -1.5352  1.3457
  455MOL0     H61363  11.396   7.989   6.840 -1.3896 -1.7437  0.4584
  455MOL0     H61364  11.198   8.137   6.993  0.1477  1.3506  0.5815
  455MOL0     H61365  11.314   8.240   6.892 -1.8306 -0.0636 -1.9696
  455MOL0     H61366  11.252   8.059   6.709  0.9671  2.9552 -1.6789
  455MOL0     H61367  11.129   8.024   6.821  0.0569 -0.4338  0.4028
  455MOL0     H61368  11.056   8.266   6.819  1.8926  0.6136  1.9279
  455MOL0     H61369  11.187   8.310   6.710 -0.3272  0.7484  2.8357
  455MOL0     H61370  11.097   8.140   6.538  0.3197  1.0232 -0.8958
  455MOL0     H61371  10.987   8.092   6.657  1.0478 -0.7117  0.6196
  455MOL0     H61372  10.993   8.391   6.563 -1.4890  1.2140 -0.6804
  455MOL0     H61373  10.925   8.273   6.461  3.0827 -0.3563 -0.5798
  455MOL0     H61374  10.817   8.438   6.657 -0.4611  0.5200 -0.6007
  455MOL0     H61375  10.837   8.303   6.761 -0.1012  3.6872  1.4696
  455MOL0     H61376  10.657   8.124   6.734  0.4312 -1.8102 -1.2420
  455MOL0     H61377  10.401   8.005   6.517  3.1474  2.3955 -2.9293
  455MOL0     H61378  10.437   8.025   6.699 -1.4521  0.4746  0.7073
  455MOL0     H61379  10.255   8.211   6.536 -3.6121  0.5380  1.0847
  455MOL0     H61380  10.300   8.228   6.703 -1.9988  2.0359 -1.8054
  455MOL0     H61381  10.083   8.127   6.628  1.0899 -0.0669 -2.0885
  455MOL0     H61382  10.153   8.080   6.781  0.7503 -0.9062 -0.0815
  455MOL0     H61383  10.077   7.886   6.698 -0.8836  1.5939 -0.8260
  455MOL0     H61384  10.261   7.896   6.705 -1.0159 -0.2871  1.1268
  455MOL0     H61385  10.226   7.680   6.664  1.9740  0.5731  0.9052
  455MOL0     H61386  10.290   7.358   6.536  2.5188 -0.3294 -2.8688
  455MOL0     H61387  10.431   7.429   6.618 -0.4837 -4.2280  1.2005
  455MOL0     H61388  10.279   7.463   6.692 -1.0695 -0.9410 -1.0473
  455MOL0     H61389  10.343   7.413   5.923  2.5884 -0.6089 -2.8753
  455MOL0     H61390  10.431   7.255   5.762 -2.5544  0.5566  0.7123
  455MOL0     H61391  10.835   7.062   5.825  0.2197 -3.1227  2.6369
  455MOL0     H61392  10.716   6.955   5.901  1.6323 -0.2605 -0.1664
  455MOL0     H61393  10.764   6.973   5.597  0.6144 -1.1102 -0.5936
  455MOL0     H61394  10.839   6.858   5.710  0.2628  0.8461  4.6131
  455MOL0     H61395  10.535   6.878   5.701  0.0598 -0.5155 -0.0919
  455MOL0     H61396  10.637   6.756   5.764 -2.6758  0.2635  1.5109
  455MOL0     H61397  10.638   6.800   5.465 -0.2525 -0.0576  1.2532
  455MOL0     H61398  10.757   6.705   5.560 -0.0965 -1.4111 -0.3474
  455MOL0     H61399  10.578   6.559   5.616  0.0824 -0.8442 -1.3386
  455MOL0     H61400  10.596   6.578   5.436 -2.9899  1.9733 -2.3563
  455MOL0     H61401  10.412   6.783   5.521 -1.2495 -0.5265  1.6176
  455MOL0     H61402  10.404   6.654   5.397  4.3230  0.2509 -1.6816
  455MOL0     H61403  10.236   6.674   5.606  1.2825  0.6375  1.1837
  455MOL0     H61404  10.363   6.635   5.698 -2.2768  1.2744 -0.6118
  455MOL0     H61405  10.421   6.423   5.569 -1.4184 -1.5277 -2.6067
  455MOL0     H61406  10.258   6.421   5.501 -2.3912  0.3010  1.7841
  455MOL0     H61407  10.722   7.113   6.032 -1.3885 -1.3208 -0.4204
  455MOL0     H61408  10.641   7.257   6.211 -0.1447  0.7328  0.4665
  455MOL0     H61409  10.413   7.676   6.204 -0.5895  0.0206 -0.4633
  455MOL0     H61410  10.278   7.870   6.281 -1.2599  0.3040  0.8453
  455MOL0     H61411  11.117   7.740   7.116 -2.0438 -1.1541  1.2748
  455MOL0     H61412  11.038   7.589   7.261  1.8943 -1.1136 -0.0327
  455MOL0     H61413  10.888   7.655   7.852  1.6807  0.1532  1.9000
  455MOL0     H61414  10.849   7.509   8.051 -2.6332  0.4052 -0.8414
  455MOL0     H61415  11.062   7.182   8.231  0.1612  0.2259  0.5365
  455MOL0     H61416  11.095   7.115   8.078  3.7795 -0.0015  1.0056
  455MOL0     H61417  11.214   7.331   8.014  1.8649 -0.2334  0.0292
  455MOL0     H61418  11.277   7.250   8.157 -1.6252 -2.1501  2.2454
  455MOL0     H61419  11.105   7.505   8.151  0.5048  0.0692 -0.4850
  455MOL0     H61420  11.267   7.476   8.218 -0.4413  1.2991 -0.0882
  455MOL0     H61421  11.171   7.485   8.405 -1.8403 -0.6460  1.3093
  455MOL0     H61422  11.151   7.316   8.378  5.9056  0.5415 -2.0041
  455MOL0     H61423  10.766   7.455   8.460  0.2345 -1.1501  1.9343
  455MOL0     H61424  11.042   7.185   7.841 -1.9689 -0.4513  0.4365
  455MOL0     H61425  11.095   7.329   7.652 -0.7469 -1.4121 -0.2469
  456MOL0     O61426   6.627   5.984   0.202 -0.2169 -0.2243  0.5035
  456MOL0     C61427   6.727   5.903   0.203 -0.1373  0.3668  0.7929
  456MOL0     O61428   6.805   5.875   0.094 -0.1246  1.0302 -0.2934
  456MOL0     C61429   6.779   5.941  -0.023 -0.0222 -0.0675 -0.4694
  456MOL0     C61430   6.863   6.048  -0.058  0.3079 -0.3537  0.3067
  456MOL0     C61431   6.834   6.120  -0.176 -0.4625  0.0538  0.1306
  456MOL0     C61432   6.729   6.081  -0.257  0.2637  0.1956 -0.3748
  456MOL0     O61433   6.722   6.146  -0.377  0.1301 -0.5684  0.7281
  456MOL0     C61434   6.691   6.072  -0.491 -1.2653  0.2722 -0.1803
  456MOL0     C61435   6.746   6.140  -0.614  0.1507  0.3508  0.0557
  456MOL0     C61436   6.903   6.137  -0.617  0.3555  0.0970 -1.1830
  456MOL0     C61437   6.951   6.211  -0.739 -0.0478  0.0684 -0.3846
  456MOL0     C61438   7.090   6.163  -0.772  0.1350 -0.7559 -0.5713
  456MOL0     C61439   7.083   6.045  -0.857  0.4599 -0.7423  0.5907
  456MOL0     C61440   7.225   5.997  -0.895 -0.0425 -0.2778 -0.2688
  456MOL0     C61441   7.215   5.901  -1.015  0.5010 -0.1525  0.2442
  456MOL0     N61442   7.346   5.841  -1.051  0.0120  0.4108  0.7373
  456MOL0     C61443   7.429   5.868  -1.161  0.4237  0.7121  0.6186
  456MOL0     C61444   7.535   5.787  -1.153  0.0282  0.4927  1.0765
  456MOL0     C61445   7.640   5.773  -1.249 -1.3168  1.2380  0.4984
  456MOL0     C61446   7.791   5.792  -1.206 -0.3991  1.3770  0.4253
  456MOL0     C61447   7.851   5.683  -1.115  0.2837  0.2443 -0.1821
  456MOL0     C61448   8.002   5.701  -1.105  0.1615  0.0795  0.6718
  456MOL0     O61449   8.029   5.799  -1.002  0.2973  0.7298  0.7414
  456MOL0     C61450   8.143   5.797  -0.934 -0.3228 -0.6367  1.0000
  456MOL0     C61451   8.145   5.890  -0.827  0.1689 -0.2048  0.6803
  456MOL0     C61452   8.241   5.892  -0.730  0.1234 -0.2986  1.3527
  456MOL0     C61453   8.239   5.993  -0.628 -0.1994 -0.0036 -0.9977
  456MOL0     C61454   8.347   5.801  -0.745 -0.5035  1.2944  0.0511
  456MOL0     C61455   8.459   5.770  -0.646  1.0109 -0.5908  0.2247
  456MOL0     O61456   8.570   5.713  -0.700  0.4683 -0.2475 -0.5528
  456MOL0     C61457   8.671   5.678  -0.613 -0.9627  0.6883  0.2561
  456MOL0     C61458   8.803   5.696  -0.659  0.2767  0.1687  0.5301
  456MOL0     C61459   8.906   5.658  -0.581  0.3392  0.2228 -0.2174
  456MOL0     C61460   8.897   5.622  -0.449 -0.5724 -0.5765  0.3689
  456MOL0     O61461   9.019   5.600  -0.385  0.0687  0.6742  0.3673
  456MOL0     C61462   9.017   5.648  -0.246  0.5351 -0.3575 -0.6004
  456MOL0     C61463   9.001   5.512  -0.175  0.7263  0.6207 -0.2673
  456MOL0     C61464   8.913   5.545  -0.050 -0.0302 -0.5665 -0.3808
  456MOL0     C61465   8.949   5.656   0.045 -0.1820 -0.2082  0.0142
  456MOL0     C61466   8.857   5.642   0.170  0.0497  0.8913  0.6221
  456MOL0     C61467   8.739   5.747   0.175 -0.2555 -0.0256  0.0977
  456MOL0     C61468   8.776   5.882   0.233  0.1567  0.1311  0.0525
  456MOL0     C61469   8.670   5.989   0.228  0.0022  0.1621 -0.5414
  456MOL0    Cl61470   8.688   6.098   0.080  0.2118  0.3631 -0.1107
  456MOL0     C61471   8.771   5.608  -0.394  0.2281 -0.7153 -0.3750
  456MOL0     C61472   8.657   5.632  -0.475 -0.0241  0.7561 -0.2456
  456MOL0     O61473   8.447   5.812  -0.527  0.0320  0.9156  0.0123
  456MOL0     C61474   8.351   5.714  -0.861  0.3059  0.3634  0.7860
  456MOL0     C61475   8.247   5.717  -0.957 -0.2445 -0.6768 -0.2948
  456MOL0     N61476   7.513   5.717  -1.038 -0.6428  0.0739 -0.2156
  456MOL0     N61477   7.414   5.758  -0.971 -0.8421 -0.0448 -0.1151
  456MOL0     C61478   6.638   5.979  -0.220  0.2179 -0.5320  1.0946
  456MOL0     C61479   6.669   5.903  -0.104 -0.0417  0.4875 -0.1487
  456MOL0     C61480   6.757   5.832   0.323  0.2740  0.5443  0.8419
  456MOL0     C61481   6.872   5.749   0.346 -0.7791 -1.2956 -0.1694
  456MOL0     C61482   6.896   5.701   0.470 -0.0877 -0.3127 -0.7583
  456MOL0     C61483   6.801   5.709   0.575 -0.5000 -0.0150  0.4105
  456MOL0     O61484   6.824   5.659   0.699 -0.8518  0.5336  0.0790
  456MOL0     C61485   6.948   5.694   0.766  0.8586  0.0954 -0.0874
  456MOL0     C61486   6.910   5.701   0.919  0.2285 -0.5615 -0.3386
  456MOL0     C61487   6.833   5.830   0.964  0.3044 -0.5602  0.5443
  456MOL0     C61488   6.804   5.827   1.111  0.5982  0.1615  0.2612
  456MOL0     C61489   6.671   5.766   1.125 -0.0393 -0.0662 -0.5734
  456MOL0     C61490   6.559   5.709   1.126 -0.2351  0.3450 -0.2121
  456MOL0     C61491   6.675   5.771   0.547  0.8604  0.5792 -0.1173
  456MOL0     C61492   6.655   5.849   0.426 -0.0032  0.2007  0.3899
  456MOL0     H61493   6.945   6.071   0.008  1.3936  0.6503 -1.3251
  456MOL0     H61494   6.897   6.193  -0.225  3.9318 -3.9488 -0.9087
  456MOL0     H61495   6.730   5.970  -0.485  2.9597  1.7419  1.1378
  456MOL0     H61496   6.582   6.069  -0.490 -1.3663 -0.2382  3.6926
  456MOL0     H61497   6.710   6.089  -0.703  1.7793  2.3940 -1.8837
  456MOL0     H61498   6.711   6.243  -0.622 -0.1620  0.1669 -0.9785
  456MOL0     H61499   6.941   6.187  -0.527 -2.2656  0.3441 -0.1186
  456MOL0     H61500   6.931   6.032  -0.625 -0.9664 -0.1036 -4.7161
  456MOL0     H61501   6.883   6.177  -0.818 -0.6499 -1.3303  0.7031
  456MOL0     H61502   6.947   6.319  -0.723  1.1257  0.4913 -2.4608
  456MOL0     H61503   7.136   6.251  -0.818  2.7649 -2.4103 -1.2919
  456MOL0     H61504   7.152   6.168  -0.682  1.4933  1.5500 -1.5250
  456MOL0     H61505   7.021   5.966  -0.813 -3.7111  1.1355 -1.3599
  456MOL0     H61506   7.032   6.057  -0.953 -0.3882 -2.2675  0.8124
  456MOL0     H61507   7.283   6.083  -0.931  0.1156 -1.1467 -2.2444
  456MOL0     H61508   7.270   5.942  -0.812 -0.9718 -2.1852 -0.9481
  456MOL0     H61509   7.166   5.953  -1.097 -0.1741  1.2000  1.4598
  456MOL0     H61510   7.144   5.822  -0.989  0.0820 -0.7719 -2.4549
  456MOL0     H61511   7.406   5.937  -1.242  3.5485  0.0679 -0.9848
  456MOL0     H61512   7.630   5.672  -1.291 -0.9739  1.3243  0.1948
  456MOL0     H61513   7.612   5.847  -1.325 -0.0969 -0.5726 -1.8450
  456MOL0     H61514   7.804   5.890  -1.160 -2.4532  2.5256 -1.2760
  456MOL0     H61515   7.844   5.781  -1.301  0.6378 -4.4556  1.2803
  456MOL0     H61516   7.822   5.582  -1.145 -1.6980  0.5886  0.4627
  456MOL0     H61517   7.814   5.687  -1.012 -0.8125  0.1362 -0.5568
  456MOL0     H61518   8.059   5.719  -1.196 -1.9176  0.6034 -0.6008
  456MOL0     H61519   8.034   5.605  -1.063 -3.2835 -0.7021  1.8889
  456MOL0     H61520   8.063   5.960  -0.814  0.0470 -0.1359 -0.3267
  456MOL0     H61521   8.186   6.086  -0.652 -1.0109 -0.2721 -0.3066
  456MOL0     H61522   8.173   5.957  -0.548  0.2077  0.1208 -0.6000
  456MOL0     H61523   8.335   6.017  -0.582 -1.9960  1.2983  2.4264
  456MOL0     H61524   8.815   5.744  -0.755  1.8648  0.0492  0.6429
  456MOL0     H61525   9.005   5.671  -0.622  0.0399  0.4915 -0.8735
  456MOL0     H61526   9.102   5.700  -0.201 -1.4137  0.3703  2.5315
  456MOL0     H61527   8.943   5.729  -0.240  2.5976  1.5354  0.4538
  456MOL0     H61528   8.968   5.429  -0.238  1.2458  1.1962 -1.3400
  456MOL0     H61529   9.101   5.488  -0.139 -0.7565 -0.5275  3.5187
  456MOL0     H61530   8.934   5.454   0.006  3.8048  0.5473  0.2802
  456MOL0     H61531   8.811   5.554  -0.089  0.0418  0.1444 -0.4278
  456MOL0     H61532   9.053   5.637   0.070 -0.3564  2.0081  3.0270
  456MOL0     H61533   8.939   5.750  -0.009  0.3666  0.7912  1.5807
  456MOL0     H61534   8.913   5.654   0.263  2.4064  0.2024 -0.6401
  456MOL0     H61535   8.813   5.542   0.179  0.2031  0.3512 -3.0796
  456MOL0     H61536   8.703   5.762   0.073  0.0860  0.0338 -0.0131
  456MOL0     H61537   8.662   5.691   0.231  2.1729 -1.1830  2.5213
  456MOL0     H61538   8.869   5.920   0.190  1.6459 -1.4054  1.7810
  456MOL0     H61539   8.789   5.860   0.339 -2.4317  0.3583  0.4796
  456MOL0     H61540   8.675   6.057   0.314 -1.1756  1.7063 -1.6379
  456MOL0     H61541   8.571   5.943   0.222 -0.7714  1.7637 -0.6234
  456MOL0     H61542   8.760   5.586  -0.289 -2.6860  1.6217 -0.0437
  456MOL0     H61543   8.554   5.611  -0.451  0.3062  0.7729  1.2746
  456MOL0     H61544   8.435   5.653  -0.890  0.6514  0.8181  0.8134
  456MOL0     H61545   8.257   5.664  -1.051  0.8485  3.1331 -2.5534
  456MOL0     H61546   6.553   5.956  -0.284  3.3877 -5.6400 -2.0408
  456MOL0     H61547   6.623   5.808  -0.078  4.0634 -2.2132 -1.7391
  456MOL0     H61548   6.943   5.727   0.267 -0.4745 -1.1941  0.0708
  456MOL0     H61549   6.985   5.643   0.494 -0.9737 -2.0324 -1.4706
  456MOL0     H61550   7.009   5.603   0.759 -0.3701 -0.7083 -0.7277
  456MOL0     H61551   6.995   5.786   0.730  1.0209 -0.0740 -0.3167
  456MOL0     H61552   7.010   5.701   0.963  0.5737 -1.0560 -1.1123
  456MOL0     H61553   6.852   5.612   0.947 -0.2660  0.3540  1.8175
  456MOL0     H61554   6.746   5.825   0.898  0.1390 -1.8381  0.8458
  456MOL0     H61555   6.906   5.907   0.936  1.5350 -1.9607 -0.2037
  456MOL0     H61556   6.816   5.919   1.169 -2.3122 -0.8349  2.7688
  456MOL0     H61557   6.878   5.756   1.151 -0.4364 -2.1224 -1.6286
  456MOL0     H61558   6.475   5.646   1.108 -0.6761  0.7854  0.2705
  456MOL0     H61559   6.591   5.760   0.615 -0.6638 -1.3813 -2.1401
  456MOL0     H61560   6.558   5.896   0.412  0.0497  0.2883  0.3159
  457MOL0     O61561  11.225   0.629   6.228  0.0730  0.3084 -0.3930
  457MOL0     C61562  11.340   0.625   6.184  0.5458  0.4780  0.1842
  457MOL0     O61563  11.384   0.664   6.054 -0.1830 -0.6206  0.5395
  457MOL0     C61564  11.304   0.761   5.993  0.2493 -0.3821 -1.4022
  457MOL0     C61565  11.175   0.723   5.958 -0.2586  0.5151  0.5306
  457MOL0     C61566  11.092   0.818   5.898  0.0803  0.2038 -0.3203
  457MOL0     C61567  11.153   0.942   5.853  1.7052  0.1855  0.2775
  457MOL0     O61568  11.094   1.044   5.785 -0.5810 -0.0115  0.3099
  457MOL0     C61569  10.971   1.013   5.715  0.4442 -0.3095 -0.8691
  457MOL0     C61570  10.908   1.117   5.624  0.6978 -0.5346 -0.1077
  457MOL0     C61571  11.016   1.163   5.519 -0.6627 -0.6325  1.0234
  457MOL0     C61572  10.949   1.216   5.395  0.1761 -0.8195  0.5016
  457MOL0     C61573  11.038   1.211   5.265 -0.6327 -0.7645  0.3170
  457MOL0     C61574  11.100   1.358   5.254  0.0067  0.0597  0.4913
  457MOL0     C61575  11.153   1.384   5.106  1.1652 -1.0923  0.4888
  457MOL0     C61576  11.180   1.539   5.099 -0.2503  0.2425 -0.5605
  457MOL0     N61577  11.047   1.604   5.094  0.1276 -0.1969  0.0598
  457MOL0     C61578  10.953   1.592   4.995  0.6943  0.2368  0.0944
  457MOL0     C61579  10.847   1.684   5.049  0.6705  0.2345  0.2349
  457MOL0     C61580  10.709   1.686   4.989 -0.5352  0.0416  0.5317
  457MOL0     C61581  10.606   1.610   5.066  0.2148 -0.0287 -0.1816
  457MOL0     C61582  10.656   1.474   5.135  0.1567  0.2353 -0.6356
  457MOL0     C61583  10.553   1.385   5.209 -0.0859 -1.2774  0.0493
  457MOL0     O61584  10.470   1.463   5.301  0.6547  0.1565  0.8355
  457MOL0     C61585  10.511   1.503   5.416  0.2351  0.2854  0.3482
  457MOL0     C61586  10.419   1.580   5.492  0.3134  0.8677  0.2229
  457MOL0     C61587  10.458   1.639   5.619 -0.5815 -0.6162  0.6223
  457MOL0     C61588  10.353   1.724   5.685  0.1013  0.0264 -0.9207
  457MOL0     C61589  10.584   1.604   5.677 -0.6704 -1.0052  0.1655
  457MOL0     C61590  10.631   1.637   5.817  0.1434  0.0272 -0.3595
  457MOL0     O61591  10.739   1.567   5.859  0.0655 -0.1484 -1.1668
  457MOL0     C61592  10.829   1.620   5.952 -0.1755  0.7292 -0.8557
  457MOL0     C61593  10.867   1.755   5.960  0.8367  0.0217 -0.2414
  457MOL0     C61594  10.958   1.803   6.057  0.2337  0.1637 -0.1110
  457MOL0     C61595  11.018   1.716   6.151  0.3960  0.8743  0.2245
  457MOL0     O61596  11.090   1.764   6.259 -0.2367 -0.5692  0.7836
  457MOL0     C61597  11.228   1.794   6.230 -0.3044 -0.1332 -0.0158
  457MOL0     C61598  11.305   1.805   6.369 -0.9441 -0.4668 -0.3269
  457MOL0     C61599  11.304   1.672   6.452 -0.3190  0.0856 -0.6068
  457MOL0     C61600  11.344   1.552   6.359 -0.3712  0.1407 -0.8764
  457MOL0     C61601  11.346   1.418   6.438  0.2585 -0.3144 -0.0097
  457MOL0     C61602  11.213   1.346   6.472  0.3991 -0.2319  0.1115
  457MOL0     C61603  11.140   1.396   6.597  0.5826  0.0788 -0.5280
  457MOL0     C61604  11.028   1.295   6.646 -0.7319 -0.3987 -0.1611
  457MOL0    Cl61605  11.103   1.139   6.698 -0.4919 -0.2845 -0.5086
  457MOL0     C61606  11.000   1.580   6.130 -0.1243  1.2166 -0.1374
  457MOL0     C61607  10.902   1.533   6.038 -0.2704  0.5283  0.3257
  457MOL0     O61608  10.579   1.733   5.871 -0.1594 -0.7084 -0.4957
  457MOL0     C61609  10.672   1.524   5.597 -1.6311 -0.1808 -0.2436
  457MOL0     C61610  10.642   1.479   5.466 -0.1779  0.2493 -1.1451
  457MOL0     N61611  10.893   1.734   5.167 -0.5687 -0.6379  0.5183
  457MOL0     N61612  11.010   1.691   5.186  0.3521 -0.2684  0.3843
  457MOL0     C61613  11.284   0.970   5.892  0.3045 -0.1386  0.4950
  457MOL0     C61614  11.360   0.881   5.971 -1.3039 -0.0794 -0.3851
  457MOL0     C61615  11.445   0.559   6.270 -0.7900  0.6004 -0.2865
  457MOL0     C61616  11.410   0.466   6.367 -0.5349  0.7569 -0.6212
  457MOL0     C61617  11.493   0.437   6.475 -0.2508  0.2566 -0.4999
  457MOL0     C61618  11.628   0.469   6.470  0.4889  0.7988  0.0866
  457MOL0     O61619  11.733   0.428   6.551  0.2885 -0.0781  0.1964
  457MOL0     C61620  11.723   0.291   6.597 -0.3660 -0.2611  0.3740
  457MOL0     C61621  11.854   0.254   6.664 -0.1972 -1.1103  0.4318
  457MOL0     C61622  11.953   0.185   6.564 -0.1754  1.0476  0.2243
  457MOL0     C61623  12.005   0.280   6.451 -0.0037 -0.4765  0.0327
  457MOL0     C61624  12.126   0.354   6.494  0.1677  0.2790 -0.8188
  457MOL0     C61625  12.224   0.405   6.538 -0.1850  0.1550  0.0422
  457MOL0     C61626  11.659   0.566   6.374 -0.5582 -0.0388  0.9447
  457MOL0     C61627  11.575   0.617   6.278 -0.0485  0.0764  0.3621
  457MOL0     H61628  11.137   0.629   5.997 -1.4256  1.3377  1.4618
  457MOL0     H61629  10.991   0.784   5.877  0.4381  0.5355 -3.0202
  457MOL0     H61630  10.985   0.919   5.660 -2.0229 -0.7910 -0.7685
  457MOL0     H61631  10.902   0.995   5.798  1.0809  0.2585 -0.2003
  457MOL0     H61632  10.824   1.070   5.571 -0.2702  1.3727 -0.3289
  457MOL0     H61633  10.866   1.196   5.686 -1.9616 -0.2073 -2.1630
  457MOL0     H61634  11.079   1.241   5.564  2.6848 -1.7414 -1.4159
  457MOL0     H61635  11.079   1.081   5.484  1.8517  1.6099 -0.0509
  457MOL0     H61636  10.865   1.149   5.375 -1.8458  0.6116  3.4376
  457MOL0     H61637  10.891   1.306   5.417  0.3158 -0.6056 -0.0049
  457MOL0     H61638  11.120   1.140   5.279 -0.5401 -0.6534  0.3413
  457MOL0     H61639  10.976   1.194   5.177 -1.3062 -1.1854  0.8554
  457MOL0     H61640  11.022   1.433   5.267  0.3596  0.2929  1.2992
  457MOL0     H61641  11.168   1.378   5.337  0.1680  0.4214  0.2756
  457MOL0     H61642  11.244   1.333   5.074  1.5850 -0.3850  0.5271
  457MOL0     H61643  11.082   1.346   5.031  0.4020 -1.6235  1.4516
  457MOL0     H61644  11.246   1.567   5.016  2.8173 -3.0764  0.5107
  457MOL0     H61645  11.245   1.573   5.180 -1.1093  0.7058 -0.0466
  457MOL0     H61646  10.948   1.531   4.905 -2.4348 -1.7124  1.4243
  457MOL0     H61647  10.673   1.789   4.990  2.1317  1.2425 -3.1490
  457MOL0     H61648  10.707   1.659   4.883 -1.7375 -1.0544  0.8111
  457MOL0     H61649  10.531   1.584   4.991 -2.9354 -1.1039  3.0715
  457MOL0     H61650  10.568   1.674   5.146  2.1139 -2.5362  2.9895
  457MOL0     H61651  10.731   1.497   5.210 -0.1305  0.0651 -0.2923
  457MOL0     H61652  10.707   1.421   5.054  2.9278  2.7303 -0.6527
  457MOL0     H61653  10.601   1.299   5.257 -0.3712 -1.2346  0.4141
  457MOL0     H61654  10.488   1.345   5.130 -0.8915 -1.2412  0.6810
  457MOL0     H61655  10.324   1.588   5.439 -0.1536 -0.6883  0.7725
  457MOL0     H61656  10.269   1.742   5.618 -1.3582 -1.6810  0.3503
  457MOL0     H61657  10.316   1.670   5.773 -0.6196 -1.1888 -1.9369
  457MOL0     H61658  10.408   1.812   5.720 -1.8014 -0.0654  2.8778
  457MOL0     H61659  10.813   1.828   5.900  0.3952 -1.3443 -1.5756
  457MOL0     H61660  10.968   1.911   6.064 -2.7516  0.5352 -0.0082
  457MOL0     H61661  11.275   1.721   6.163  1.8848 -0.1889  1.4945
  457MOL0     H61662  11.235   1.890   6.177  2.1473 -0.9864 -1.4256
  457MOL0     H61663  11.407   1.833   6.342 -0.5922 -0.9183  0.4897
  457MOL0     H61664  11.265   1.886   6.431 -2.0797  0.3578 -2.0557
  457MOL0     H61665  11.206   1.657   6.498 -1.1562  1.3589 -1.8863
  457MOL0     H61666  11.377   1.690   6.531  0.1265 -1.0488 -0.7373
  457MOL0     H61667  11.268   1.532   6.282 -1.1847 -2.1106  0.4201
  457MOL0     H61668  11.444   1.568   6.317  0.8050 -1.2583  1.2222
  457MOL0     H61669  11.390   1.438   6.536 -2.3547 -1.3550  1.4823
  457MOL0     H61670  11.424   1.349   6.404 -0.3524 -0.2911 -1.5501
  457MOL0     H61671  11.144   1.349   6.387 -2.1328  2.6364  2.0660
  457MOL0     H61672  11.238   1.241   6.491 -1.0915 -0.4094  1.2851
  457MOL0     H61673  11.089   1.484   6.557  0.0346 -0.4861 -1.1154
  457MOL0     H61674  11.204   1.425   6.680 -1.9388  0.7976  1.3134
  457MOL0     H61675  10.955   1.280   6.566 -2.7641  1.5454  1.2140
  457MOL0     H61676  10.973   1.346   6.725 -2.6291  1.7737 -2.6931
  457MOL0     H61677  11.042   1.505   6.196 -3.9937  0.0588  1.2955
  457MOL0     H61678  10.888   1.425   6.040  1.3106  0.2240 -1.4961
  457MOL0     H61679  10.759   1.489   5.654 -0.5770  2.0413 -0.3915
  457MOL0     H61680  10.711   1.410   5.420 -1.1131 -0.0044 -2.2144
  457MOL0     H61681  11.337   1.064   5.877 -1.5890  1.0973  1.1621
  457MOL0     H61682  11.467   0.882   5.989  0.1243  1.3046 -6.5030
  457MOL0     H61683  11.313   0.418   6.368  0.3442 -1.1794 -1.7894
  457MOL0     H61684  11.470   0.371   6.558  4.1612  1.6126  2.1366
  457MOL0     H61685  11.654   0.284   6.682 -0.5559 -0.0103  0.2396
  457MOL0     H61686  11.689   0.229   6.513  3.5458 -0.4260 -1.3001
  457MOL0     H61687  11.829   0.190   6.750 -0.4117  0.2414  1.3970
  457MOL0     H61688  11.889   0.341   6.720 -4.1925  1.2886 -0.4299
  457MOL0     H61689  11.901   0.093   6.536 -1.6700  1.4150  1.6522
  457MOL0     H61690  12.037   0.157   6.628 -1.4552  0.7231  1.8246
  457MOL0     H61691  11.938   0.360   6.420  0.5370 -0.9014 -2.3756
  457MOL0     H61692  12.026   0.226   6.359 -1.1779  0.6562 -0.9313
  457MOL0     H61693  12.299   0.464   6.586 -0.0705 -2.2025  3.0773
  457MOL0     H61694  11.762   0.595   6.357 -0.1162 -1.5388  0.8924
  457MOL0     H61695  11.606   0.698   6.212  1.4387  1.0167  2.0991
  458MOL0     O61696   8.116   1.531   6.673  0.0589 -0.2821  0.2672
  458MOL0     C61697   8.176   1.493   6.568 -0.0167 -1.4906  0.7105
  458MOL0     O61698   8.220   1.577   6.466 -0.7350  0.3224  0.4310
  458MOL0     C61699   8.257   1.710   6.492  1.0970 -0.4561 -0.1805
  458MOL0     C61700   8.239   1.799   6.386  0.8932  1.2183 -0.0692
  458MOL0     C61701   8.249   1.934   6.394  0.2755  0.2719 -0.3376
  458MOL0     C61702   8.278   1.993   6.518 -0.7182  0.2128 -0.0030
  458MOL0     O61703   8.283   2.127   6.537  0.6640  0.3347 -0.4737
  458MOL0     C61704   8.198   2.211   6.460  0.2325 -0.5319  0.6265
  458MOL0     C61705   8.188   2.343   6.538  0.2211  0.4034  0.0622
  458MOL0     C61706   8.111   2.442   6.448  0.0016 -0.9254 -0.2673
  458MOL0     C61707   8.054   2.556   6.532  0.1801  0.4205  0.7186
  458MOL0     C61708   7.996   2.676   6.444 -0.1394  0.3788 -0.1002
  458MOL0     C61709   7.940   2.793   6.522 -0.5037 -0.5803 -0.3412
  458MOL0     C61710   7.873   2.913   6.449 -0.4774 -0.1077 -0.4946
  458MOL0     C61711   7.979   3.017   6.399  1.7309  0.6028  0.2152
  458MOL0     N61712   8.056   3.097   6.510 -0.5089  1.0271  0.7958
  458MOL0     C61713   8.012   3.218   6.547  0.2408 -0.2606  0.3683
  458MOL0     C61714   8.085   3.263   6.656 -1.1059  0.3638  0.3845
  458MOL0     C61715   8.079   3.399   6.729  0.1418 -0.5435 -0.9385
  458MOL0     C61716   7.963   3.390   6.829  0.6431  0.2156 -0.0907
  458MOL0     C61717   7.952   3.536   6.895  0.3615 -0.0788  1.1209
  458MOL0     C61718   7.818   3.562   6.963 -0.5449  0.4568  0.6871
  458MOL0     O61719   7.802   3.474   7.080  0.3674  0.7821 -0.3766
  458MOL0     C61720   7.878   3.508   7.187  0.0231  0.6970  0.2747
  458MOL0     C61721   7.963   3.620   7.206 -0.6196 -0.2766  0.7317
  458MOL0     C61722   8.027   3.655   7.326 -0.2523 -0.1250  0.6738
  458MOL0     C61723   8.132   3.762   7.322 -0.1007 -0.7693 -0.4368
  458MOL0     C61724   8.011   3.571   7.438  0.9775  0.6068 -0.1316
  458MOL0     C61725   8.062   3.597   7.582 -0.2535  0.6778  0.1788
  458MOL0     O61726   8.091   3.487   7.654 -0.2459  0.2112  1.1958
  458MOL0     C61727   8.167   3.494   7.757  0.7503  0.5228  0.0169
  458MOL0     C61728   8.290   3.553   7.765  0.6729 -0.2558 -0.1273
  458MOL0     C61729   8.360   3.557   7.883 -0.6871  0.4621  0.0273
  458MOL0     C61730   8.316   3.492   7.996  1.5695 -1.2212 -0.0062
  458MOL0     O61731   8.390   3.503   8.111 -0.5630  0.6827 -0.4973
  458MOL0     C61732   8.361   3.408   8.225 -0.1043  0.3300 -0.0640
  458MOL0     C61733   8.251   3.456   8.324 -0.5103 -0.3296 -0.8140
  458MOL0     C61734   8.264   3.607   8.341 -0.3167 -0.5447  0.7850
  458MOL0     C61735   8.392   3.641   8.429  0.1673 -0.2735  0.8498
  458MOL0     C61736   8.394   3.795   8.458  0.2285  0.5758  1.0180
  458MOL0     C61737   8.530   3.830   8.512 -0.4333 -0.3100 -1.2251
  458MOL0     C61738   8.553   3.973   8.571 -0.3604 -0.1340  0.2779
  458MOL0     C61739   8.528   3.977   8.722  0.1599  0.2939 -0.2969
  458MOL0    Cl61740   8.684   3.950   8.808 -0.0695 -0.1198 -0.0096
  458MOL0     C61741   8.198   3.416   7.979 -0.2621 -0.9692  0.9316
  458MOL0     C61742   8.124   3.427   7.865  0.8817 -0.4229  0.0417
  458MOL0     O61743   8.055   3.708   7.633  0.9540  0.1899  0.1567
  458MOL0     C61744   7.934   3.456   7.418  0.3586 -0.2410  0.3154
  458MOL0     C61745   7.874   3.416   7.292 -0.6040 -0.7485 -0.1761
  458MOL0     N61746   8.177   3.160   6.683 -0.3840 -0.5216  0.2052
  458MOL0     N61747   8.155   3.059   6.600 -0.4866  0.5086 -0.1020
  458MOL0     C61748   8.307   1.910   6.624 -0.4252  0.1638  1.0212
  458MOL0     C61749   8.303   1.768   6.611 -0.5384  0.5903  0.0746
  458MOL0     C61750   8.191   1.352   6.543 -0.2212  0.5570  0.1645
  458MOL0     C61751   8.115   1.263   6.615  0.0243  0.9268 -0.0370
  458MOL0     C61752   8.110   1.130   6.565  0.1166 -0.9751 -0.9068
  458MOL0     C61753   8.178   1.083   6.457  0.2364  0.2319  0.1683
  458MOL0     O61754   8.167   0.957   6.401  0.8634  0.3992 -0.3246
  458MOL0     C61755   8.134   0.847   6.485 -0.2652  0.3284  0.1416
  458MOL0     C61756   8.117   0.704   6.413  1.2288 -0.4151 -0.3864
  458MOL0     C61757   7.996   0.718   6.318 -0.7429  0.8127 -0.7247
  458MOL0     C61758   7.867   0.662   6.383  0.1771  0.2778 -0.4194
  458MOL0     C61759   7.817   0.755   6.481 -0.3460  0.3079 -0.1364
  458MOL0     C61760   7.769   0.830   6.567  0.1419  0.4762 -0.2365
  458MOL0     C61761   8.264   1.172   6.399  1.2567  0.8937  0.4436
  458MOL0     C61762   8.274   1.301   6.438  0.0442  0.7677  0.0079
  458MOL0     H61763   8.203   1.764   6.290 -1.8065 -1.8341  1.8655
  458MOL0     H61764   8.240   1.998   6.306 -1.3684  0.1064 -0.3013
  458MOL0     H61765   8.249   2.227   6.365  0.6396  2.4191  1.2529
  458MOL0     H61766   8.096   2.172   6.454  1.2647 -3.3965  0.0019
  458MOL0     H61767   8.134   2.328   6.632  0.4514  2.6735  0.6212
  458MOL0     H61768   8.288   2.375   6.568  2.3518 -6.5765  2.2949
  458MOL0     H61769   8.191   2.484   6.387 -0.9333  2.6824  0.7169
  458MOL0     H61770   8.037   2.396   6.383  3.5113 -4.1772 -2.3458
  458MOL0     H61771   7.962   2.520   6.580 -1.2700  1.4432 -1.1340
  458MOL0     H61772   8.120   2.590   6.612 -0.8795  3.0460  0.5958
  458MOL0     H61773   8.085   2.710   6.389  0.9071  1.3262  2.0437
  458MOL0     H61774   7.913   2.640   6.382 -0.9820 -2.5330  2.4650
  458MOL0     H61775   7.872   2.759   6.601  0.6760 -0.5192  0.7404
  458MOL0     H61776   8.028   2.833   6.572 -1.3818 -1.7968  2.3709
  458MOL0     H61777   7.808   2.878   6.369 -0.3775 -2.0289  0.2197
  458MOL0     H61778   7.803   2.955   6.523  0.7882  0.6869  0.2837
  458MOL0     H61779   7.929   3.086   6.330 -2.2731 -1.8388  0.2954
  458MOL0     H61780   8.051   2.960   6.340  1.5448  2.1429 -1.6102
  458MOL0     H61781   7.928   3.271   6.503  1.9547  3.0644  0.8355
  458MOL0     H61782   8.178   3.401   6.776 -0.7814 -2.1323  1.2841
  458MOL0     H61783   8.073   3.480   6.656  1.4853 -0.8789 -1.4538
  458MOL0     H61784   7.972   3.310   6.902 -3.3925 -1.1166 -0.7749
  458MOL0     H61785   7.877   3.376   6.762  0.9816  1.2283 -0.7635
  458MOL0     H61786   7.957   3.612   6.816 -1.3193 -0.8243  0.2462
  458MOL0     H61787   8.037   3.550   6.962  3.9335 -3.3060 -2.2089
  458MOL0     H61788   7.742   3.533   6.889 -1.7249  0.3500  1.9034
  458MOL0     H61789   7.806   3.668   6.986 -3.1674  0.1296  1.1260
  458MOL0     H61790   7.982   3.689   7.125 -0.9358  0.6235  1.4046
  458MOL0     H61791   8.111   3.828   7.407  1.6702  0.4272 -0.8741
  458MOL0     H61792   8.229   3.720   7.351 -1.6465 -2.7873  2.4009
  458MOL0     H61793   8.129   3.820   7.230  0.4297  2.4156  1.4167
  458MOL0     H61794   8.337   3.591   7.674 -1.1323 -2.1144 -1.9395
  458MOL0     H61795   8.450   3.618   7.884 -1.9600  2.4744 -1.0497
  458MOL0     H61796   8.324   3.314   8.184  3.4214 -1.7405  1.1067
  458MOL0     H61797   8.454   3.380   8.275  0.7500  1.8628 -0.7391
  458MOL0     H61798   8.155   3.425   8.281 -0.6830 -0.7327 -0.1494
  458MOL0     H61799   8.260   3.414   8.424  1.2679  3.7584  0.9765
  458MOL0     H61800   8.181   3.647   8.401 -1.0723  0.6295 -0.9400
  458MOL0     H61801   8.278   3.665   8.249  2.9056 -0.6099  1.1275
  458MOL0     H61802   8.382   3.584   8.522  1.0248 -1.1712  0.4073
  458MOL0     H61803   8.486   3.608   8.385  1.1958 -1.8991  3.9936
  458MOL0     H61804   8.315   3.825   8.528  0.6420  0.4244  1.5540
  458MOL0     H61805   8.366   3.854   8.370 -0.8032  2.1616  2.3542
  458MOL0     H61806   8.566   3.755   8.584 -0.3946 -1.6598 -2.6024
  458MOL0     H61807   8.595   3.814   8.426  0.0336 -0.2915 -0.8810
  458MOL0     H61808   8.481   4.037   8.520 -3.0773 -1.7830  1.7743
  458MOL0     H61809   8.655   4.006   8.551 -0.1920 -2.0187 -2.6741
  458MOL0     H61810   8.462   3.900   8.765 -1.5941  0.8347 -1.8823
  458MOL0     H61811   8.489   4.077   8.744  2.5445  0.6729  3.1207
  458MOL0     H61812   8.155   3.366   8.066 -0.1161  3.1491  3.6909
  458MOL0     H61813   8.025   3.385   7.855  1.1735 -1.0665 -0.2025
  458MOL0     H61814   7.931   3.373   7.488 -2.4255 -1.0861 -0.6829
  458MOL0     H61815   7.822   3.321   7.287  0.2874 -1.6234  3.8122
  458MOL0     H61816   8.334   1.961   6.715 -0.6974  3.8854 -0.7838
  458MOL0     H61817   8.324   1.701   6.693  0.6275 -0.7668 -1.2668
  458MOL0     H61818   8.072   1.292   6.711 -0.8400 -0.4722  0.0232
  458MOL0     H61819   8.053   1.062   6.629 -1.4624  2.5127  1.7492
  458MOL0     H61820   8.214   0.843   6.559 -1.3185  1.6900  1.3991
  458MOL0     H61821   8.041   0.868   6.539 -0.5960 -2.1529  0.6870
  458MOL0     H61822   8.114   0.618   6.480  0.9889  0.5462  0.8625
  458MOL0     H61823   8.206   0.681   6.353  1.2823 -1.1079 -0.0556
  458MOL0     H61824   8.028   0.666   6.227  3.7890 -1.5825  1.8567
  458MOL0     H61825   7.996   0.817   6.271  0.6063  0.7111 -0.9882
  458MOL0     H61826   7.872   0.563   6.429  4.2005  0.6635  0.3523
  458MOL0     H61827   7.792   0.667   6.304 -1.8506 -1.9902  1.2239
  458MOL0     H61828   7.729   0.871   6.657 -2.4940 -2.2532 -0.0132
  458MOL0     H61829   8.315   1.136   6.310 -0.1094  4.3163 -1.9464
  458MOL0     H61830   8.332   1.361   6.368  0.7776 -1.6147 -1.5246
  459MOL0     O61831   5.573   7.993   7.854  0.5527 -0.3424  0.0168
  459MOL0     C61832   5.533   7.937   7.956 -0.3745 -0.6051 -0.4775
  459MOL0     O61833   5.410   7.892   7.985 -0.1325 -0.1026  0.9562
  459MOL0     C61834   5.312   7.918   7.898 -0.0629 -0.1289  0.5433
  459MOL0     C61835   5.319   7.895   7.761 -0.0187 -0.6926 -0.6781
  459MOL0     C61836   5.215   7.931   7.674 -1.0263 -0.5744 -0.5505
  459MOL0     C61837   5.096   7.984   7.727  0.6625 -0.0318  0.9619
  459MOL0     O61838   4.996   8.004   7.630 -0.4581  0.6628  0.5957
  459MOL0     C61839   4.863   8.029   7.680  0.1581 -0.0454  0.1892
  459MOL0     C61840   4.776   8.063   7.555 -0.0143 -0.2806 -0.3412
  459MOL0     C61841   4.739   7.953   7.449 -0.6513 -0.1003  0.5490
  459MOL0     C61842   4.589   7.942   7.419 -0.3706 -0.6290  0.5690
  459MOL0     C61843   4.507   8.053   7.339  0.6205  0.5120  0.0924
  459MOL0     C61844   4.537   8.061   7.186 -0.2581  0.5019  0.3190
  459MOL0     C61845   4.469   7.956   7.102 -0.2803  1.1076  0.0796
  459MOL0     C61846   4.323   7.995   7.071 -0.7330 -0.5266  0.3464
  459MOL0     N61847   4.243   7.900   6.991 -0.6957 -0.3925 -0.2372
  459MOL0     C61848   4.291   7.781   6.929 -0.0312 -0.3922  0.0722
  459MOL0     C61849   4.190   7.749   6.845 -0.3081  0.5531  0.3755
  459MOL0     C61850   4.188   7.621   6.745  0.2986  0.0564  0.2775
  459MOL0     C61851   4.313   7.618   6.652  0.1928 -0.3854 -0.4769
  459MOL0     C61852   4.313   7.493   6.559 -1.0179 -0.6440  0.8091
  459MOL0     C61853   4.200   7.500   6.453 -0.2831  0.5997 -0.2096
  459MOL0     O61854   4.201   7.621   6.375  0.6100 -0.1122 -0.1533
  459MOL0     C61855   4.230   7.602   6.241  0.1473  0.9140  1.0174
  459MOL0     C61856   4.134   7.607   6.135  0.3115 -0.2219 -0.3439
  459MOL0     C61857   4.180   7.609   5.998 -0.3336 -1.3951  0.2387
  459MOL0     C61858   4.069   7.615   5.893 -0.8525 -0.0613 -0.3123
  459MOL0     C61859   4.316   7.579   5.966  0.0052 -0.2495  0.2865
  459MOL0     C61860   4.366   7.566   5.830 -0.2734  0.3648 -0.1994
  459MOL0     O61861   4.498   7.598   5.820  0.2862  0.2115 -0.4929
  459MOL0     C61862   4.569   7.605   5.701  0.6938 -0.9174 -0.1903
  459MOL0     C61863   4.502   7.628   5.574  0.0287 -0.4651  0.4066
  459MOL0     C61864   4.575   7.644   5.456 -1.6154  0.3522  0.5778
  459MOL0     C61865   4.717   7.636   5.458  0.0935  0.4229 -0.2444
  459MOL0     O61866   4.783   7.645   5.343  0.0610  0.6611  0.0814
  459MOL0     C61867   4.791   7.783   5.278  0.4177  0.7256 -0.7491
  459MOL0     C61868   4.866   7.774   5.141 -0.5993 -0.1516  0.0655
  459MOL0     C61869   4.822   7.675   5.028  0.5308  0.0115 -0.3483
  459MOL0     C61870   4.681   7.663   4.981 -0.3325 -0.6910 -1.0009
  459MOL0     C61871   4.628   7.798   4.945 -0.0538 -0.8370  0.2132
  459MOL0     C61872   4.479   7.804   4.989  0.3493 -0.6966 -0.4565
  459MOL0     C61873   4.392   7.723   4.900  0.5353 -0.6756 -0.0810
  459MOL0     C61874   4.251   7.729   4.956  0.1757 -0.4044  0.6435
  459MOL0    Cl61875   4.185   7.887   5.007  0.2796 -0.2334  0.0098
  459MOL0     C61876   4.773   7.608   5.586 -0.2551 -0.0220  0.8285
  459MOL0     C61877   4.705   7.610   5.699 -0.8344 -0.1857  0.2451
  459MOL0     O61878   4.304   7.513   5.744  0.0768  0.0181 -0.7363
  459MOL0     C61879   4.411   7.577   6.072  1.4389 -0.5963  1.9270
  459MOL0     C61880   4.362   7.587   6.207 -1.2571  0.6718 -0.2991
  459MOL0     N61881   4.088   7.836   6.865 -0.7721 -0.6811 -0.5341
  459MOL0     N61882   4.122   7.931   6.939 -0.6091 -0.0108 -0.3744
  459MOL0     C61883   5.078   7.998   7.875 -1.0149 -0.5260 -0.1706
  459MOL0     C61884   5.195   7.971   7.955  0.5765 -0.3110  1.0802
  459MOL0     C61885   5.639   7.905   8.058  0.5237 -0.7348  0.4260
  459MOL0     C61886   5.780   7.931   8.035 -0.6539  0.5314  0.1623
  459MOL0     C61887   5.875   7.889   8.127  0.3136 -0.9121  0.2946
  459MOL0     C61888   5.838   7.840   8.251 -0.4528 -0.5209 -0.4203
  459MOL0     O61889   5.919   7.818   8.364 -0.2649 -0.0958 -0.2340
  459MOL0     C61890   6.062   7.821   8.351  0.6290  0.0454  0.3782
  459MOL0     C61891   6.150   7.763   8.454  0.1767  0.3150 -0.3632
  459MOL0     C61892   6.100   7.625   8.503 -0.2478 -0.2945  0.0503
  459MOL0     C61893   6.180   7.529   8.587  0.2493  0.4575 -0.0190
  459MOL0     C61894   6.196   7.594   8.719 -0.4404  0.5954  0.4165
  459MOL0     C61895   6.217   7.639   8.825  0.4041 -0.3340 -0.9543
  459MOL0     C61896   5.704   7.809   8.271  1.1076  0.7586  0.2295
  459MOL0     C61897   5.609   7.841   8.174 -1.2365  0.0222  0.6941
  459MOL0     H61898   5.413   7.860   7.717 -0.5523 -0.7041 -1.8461
  459MOL0     H61899   5.228   7.901   7.570 -0.2539 -0.0685 -0.6086
  459MOL0     H61900   4.818   7.945   7.733 -1.5875  2.3861  2.8718
  459MOL0     H61901   4.861   8.115   7.748  0.8453  1.8585 -2.0751
  459MOL0     H61902   4.683   8.089   7.605  0.5120  1.5176 -0.2151
  459MOL0     H61903   4.813   8.154   7.507  4.1297 -1.9897 -0.8335
  459MOL0     H61904   4.799   7.956   7.358  1.3746 -0.6722  1.8210
  459MOL0     H61905   4.771   7.858   7.493  0.1442 -0.7505 -1.3372
  459MOL0     H61906   4.563   7.852   7.363 -2.4140 -0.6130  1.3902
  459MOL0     H61907   4.538   7.937   7.516 -1.1302  4.1448  0.6929
  459MOL0     H61908   4.399   8.036   7.343  0.5312 -0.4234 -3.0307
  459MOL0     H61909   4.521   8.146   7.394 -2.5249 -0.1873  2.3787
  459MOL0     H61910   4.505   8.159   7.151  0.3390  0.1681 -1.2507
  459MOL0     H61911   4.647   8.059   7.184 -0.2151  1.4973  1.1033
  459MOL0     H61912   4.527   7.967   7.010 -1.3533  1.2744 -0.5876
  459MOL0     H61913   4.485   7.865   7.160 -4.7178 -0.0901 -0.2238
  459MOL0     H61914   4.327   8.100   7.039 -0.2364 -0.7994 -0.5308
  459MOL0     H61915   4.270   8.006   7.166 -0.2938  1.4832  0.4058
  459MOL0     H61916   4.375   7.716   6.952 -1.7803 -1.5787  3.9420
  459MOL0     H61917   4.191   7.528   6.803  0.4380 -0.1692 -0.0837
  459MOL0     H61918   4.098   7.640   6.685 -0.0573 -0.8712  0.4996
  459MOL0     H61919   4.400   7.606   6.718 -2.0409 -1.5057  2.4878
  459MOL0     H61920   4.314   7.708   6.589 -0.8984  0.6367  0.8880
  459MOL0     H61921   4.294   7.401   6.615  0.8953 -1.8182 -0.3383
  459MOL0     H61922   4.409   7.483   6.506 -2.1890  2.6060 -2.3468
  459MOL0     H61923   4.107   7.495   6.511 -0.7666  3.0317 -0.6651
  459MOL0     H61924   4.214   7.417   6.383  0.2713  2.7506 -2.7967
  459MOL0     H61925   4.035   7.633   6.170  1.2197  1.7690  0.9026
  459MOL0     H61926   4.015   7.521   5.887  1.2248 -1.3632  0.1850
  459MOL0     H61927   4.005   7.701   5.914  0.4251  1.4509 -2.1766
  459MOL0     H61928   4.096   7.632   5.788 -1.2814 -1.6113 -0.6955
  459MOL0     H61929   4.396   7.649   5.562  0.9349  4.0820 -2.0036
  459MOL0     H61930   4.525   7.656   5.360  1.5779 -0.4229 -1.3267
  459MOL0     H61931   4.690   7.822   5.259  0.5946  0.8966 -1.3668
  459MOL0     H61932   4.844   7.848   5.348 -0.5096  0.7981 -0.0972
  459MOL0     H61933   4.855   7.880   5.119 -1.4201 -0.5170 -1.4710
  459MOL0     H61934   4.975   7.769   5.143 -0.3180 -2.4106 -5.1804
  459MOL0     H61935   4.838   7.572   5.061  1.9161 -0.1917 -1.5543
  459MOL0     H61936   4.882   7.711   4.944  1.8240 -0.6339  0.2672
  459MOL0     H61937   4.689   7.616   4.882  2.4302  2.4492 -2.4608
  459MOL0     H61938   4.617   7.621   5.060 -0.3263 -0.0502 -0.6504
  459MOL0     H61939   4.647   7.808   4.838 -1.2812  1.4908  0.1691
  459MOL0     H61940   4.677   7.881   4.996  0.1461  0.2765 -1.6964
  459MOL0     H61941   4.472   7.770   5.093  4.2989 -0.0215  0.1977
  459MOL0     H61942   4.455   7.910   5.000  1.6479 -0.4291  0.0815
  459MOL0     H61943   4.432   7.627   4.866 -0.3533 -1.1776  0.2702
  459MOL0     H61944   4.374   7.786   4.812  2.4221  0.6252  0.3927
  459MOL0     H61945   4.233   7.649   5.027  1.2620 -0.3490  1.0083
  459MOL0     H61946   4.183   7.701   4.875  3.0410 -1.2748 -1.6722
  459MOL0     H61947   4.881   7.597   5.597  0.3909  0.4575 -3.4601
  459MOL0     H61948   4.760   7.608   5.792 -3.4045 -0.9489  1.8366
  459MOL0     H61949   4.518   7.567   6.055  1.2001 -0.7109  0.3918
  459MOL0     H61950   4.436   7.600   6.285  0.4555 -2.3826 -1.2365
  459MOL0     H61951   4.987   8.023   7.928 -1.8838 -0.4330 -1.6325
  459MOL0     H61952   5.200   7.982   8.063  0.5524 -2.4813  1.3511
  459MOL0     H61953   5.815   7.979   7.945  3.7651 -1.6112  0.5049
  459MOL0     H61954   5.979   7.916   8.111  0.3783 -2.0089 -1.4348
  459MOL0     H61955   6.082   7.766   8.259  1.6673  0.7179  0.1878
  459MOL0     H61956   6.094   7.926   8.344  1.4065 -0.2094 -0.0019
  459MOL0     H61957   6.147   7.827   8.542 -1.3787  0.3563 -0.4116
  459MOL0     H61958   6.246   7.759   8.401  0.9143  0.5058  0.9272
  459MOL0     H61959   6.086   7.559   8.416  1.2774 -3.3011  1.9175
  459MOL0     H61960   6.011   7.642   8.564  0.5798 -1.1361  1.5420
  459MOL0     H61961   6.274   7.503   8.538 -0.4677 -2.8767  0.1903
  459MOL0     H61962   6.133   7.432   8.604  0.9100 -0.4239 -2.7503
  459MOL0     H61963   6.245   7.664   8.925  1.1837 -1.6524 -0.8234
  459MOL0     H61964   5.667   7.769   8.365  0.3110  0.9236 -0.0021
  459MOL0     H61965   5.510   7.803   8.196 -2.6574  1.8495 -1.9756
  460MOL0     O61966   8.395   1.433  10.952  1.2878 -0.1395  0.3201
  460MOL0     C61967   8.449   1.323  10.916  0.2106 -0.9890  0.2358
  460MOL0     O61968   8.389   1.213  10.865 -0.1390  0.4837 -0.6306
  460MOL0     C61969   8.258   1.198  10.831  0.0176 -0.2119  0.1191
  460MOL0     C61970   8.194   1.263  10.730 -0.1821  0.5610  0.3149
  460MOL0     C61971   8.056   1.243  10.716 -0.2750 -0.2185 -1.0391
  460MOL0     C61972   7.990   1.140  10.784 -0.2520  0.3529  0.8217
  460MOL0     O61973   7.857   1.125  10.742 -0.4980  0.2267  0.3464
  460MOL0     C61974   7.753   1.139  10.841 -0.0099 -0.5973 -0.0629
  460MOL0     C61975   7.635   1.054  10.798 -1.3054 -0.7340 -0.1867
  460MOL0     C61976   7.536   1.025  10.914 -1.1127 -0.9445  0.6270
  460MOL0     C61977   7.441   0.916  10.881  0.4962 -0.5420 -0.8539
  460MOL0     C61978   7.373   0.860  11.007  0.8723  0.0183 -0.1994
  460MOL0     C61979   7.251   0.763  10.988 -0.1374 -0.2424  0.2137
  460MOL0     C61980   7.308   0.626  10.958  0.7350  0.4300 -0.7603
  460MOL0     C61981   7.348   0.558  11.086 -0.3155  0.0992  0.0508
  460MOL0     N61982   7.257   0.547  11.198 -0.2517 -0.3728 -0.0864
  460MOL0     C61983   7.155   0.449  11.222  0.2867 -0.5578  0.2135
  460MOL0     C61984   7.110   0.477  11.349 -1.2313 -0.0640 -0.0729
  460MOL0     C61985   6.995   0.422  11.425 -0.1492  0.2271 -0.2175
  460MOL0     C61986   6.872   0.394  11.335 -0.3776  0.7200 -0.7346
  460MOL0     C61987   6.824   0.522  11.256  0.4103  0.4937  0.5555
  460MOL0     C61988   6.719   0.486  11.155  0.2195  0.3809  0.2087
  460MOL0     O61989   6.761   0.460  11.016  0.2156 -0.4060 -0.7292
  460MOL0     C61990   6.737   0.545  10.915 -0.9851 -0.1606  0.8181
  460MOL0     C61991   6.815   0.530  10.804  0.3238  0.0801 -0.1192
  460MOL0     C61992   6.811   0.612  10.691  0.1297  0.8116  0.3124
  460MOL0     C61993   6.918   0.572  10.587 -0.2903  0.2250  0.9233
  460MOL0     C61994   6.719   0.717  10.688  0.4159 -0.4190  0.6653
  460MOL0     C61995   6.686   0.805  10.564  0.1888  0.4396  0.0764
  460MOL0     O61996   6.574   0.875  10.559  1.0442 -0.0218 -0.6408
  460MOL0     C61997   6.572   1.001  10.501 -0.6245 -1.0791  1.0818
  460MOL0     C61998   6.672   1.072  10.432 -0.1957 -0.1295  0.0850
  460MOL0     C61999   6.666   1.196  10.375 -0.2440 -0.0335 -0.0317
  460MOL0     C62000   6.551   1.276  10.392 -0.7118 -0.4195  0.7852
  460MOL0     O62001   6.548   1.410  10.353  0.5343 -0.4133 -0.5798
  460MOL0     C62002   6.511   1.447  10.218  0.8083 -0.3588 -0.2171
  460MOL0     C62003   6.494   1.609  10.224  0.4706 -0.4853 -0.6692
  460MOL0     C62004   6.474   1.688  10.099  0.2481  1.2823  0.3675
  460MOL0     C62005   6.562   1.643   9.982  0.3545 -0.7955  0.2367
  460MOL0     C62006   6.708   1.661  10.023  0.3730 -0.7661  0.4597
  460MOL0     C62007   6.739   1.814  10.038  0.5253 -0.6811 -0.2299
  460MOL0     C62008   6.831   1.838  10.149  0.4710  0.0365  0.3511
  460MOL0     C62009   6.871   1.981  10.171  0.2389  0.5747  0.0713
  460MOL0    Cl62010   6.980   2.065  10.050 -0.1998 -0.1538  0.0651
  460MOL0     C62011   6.448   1.218  10.466  0.0556 -0.4195 -0.2292
  460MOL0     C62012   6.459   1.085  10.517  0.2495 -0.3882 -0.3800
  460MOL0     O62013   6.767   0.799  10.469  0.3057 -0.2700 -0.6784
  460MOL0     C62014   6.651   0.748  10.812  0.3587  0.7301  0.5506
  460MOL0     C62015   6.653   0.656  10.917  0.1553  0.2286  0.2083
  460MOL0     N62016   7.200   0.569  11.407  0.3551  0.7511 -0.7171
  460MOL0     N62017   7.283   0.610  11.317 -0.5750 -0.1148 -0.4610
  460MOL0     C62018   8.058   1.072  10.886 -0.6563 -0.7031 -0.5562
  460MOL0     C62019   8.195   1.101  10.908  0.4940 -0.0228  0.2668
  460MOL0     C62020   8.595   1.307  10.938 -0.0137 -0.3898 -0.1598
  460MOL0     C62021   8.671   1.198  10.899  1.0640  0.0527 -0.1710
  460MOL0     C62022   8.797   1.181  10.937 -0.3683 -0.1823 -0.1742
  460MOL0     C62023   8.866   1.272  11.009  0.2845 -0.5176 -0.2208
  460MOL0     O62024   8.997   1.230  11.034 -0.3096  0.0099 -0.0474
  460MOL0     C62025   9.092   1.333  11.063 -0.1462 -0.0050 -0.1059
  460MOL0     C62026   9.231   1.286  11.039  0.2134 -0.4620 -0.9185
  460MOL0     C62027   9.280   1.283  10.890 -0.1725  0.1912  0.3047
  460MOL0     C62028   9.376   1.165  10.880 -0.3829  1.0827 -0.1648
  460MOL0     C62029   9.434   1.144  10.752 -0.3877  0.0672  0.8713
  460MOL0     C62030   9.485   1.148  10.635  0.6023  0.3151  0.2201
  460MOL0     C62031   8.801   1.375  11.070 -0.0678  0.4459  0.5788
  460MOL0     C62032   8.670   1.400  11.029  0.8921 -0.7125  0.3419
  460MOL0     H62033   8.250   1.334  10.670 -0.2650 -1.9381 -3.0017
  460MOL0     H62034   7.988   1.300  10.653 -0.0915 -0.0038 -1.0436
  460MOL0     H62035   7.778   1.113  10.944  2.0324 -2.2801 -0.9187
  460MOL0     H62036   7.726   1.245  10.840  2.4527  0.1742  2.3538
  460MOL0     H62037   7.601   1.104  10.707  1.8473  1.2134 -0.4425
  460MOL0     H62038   7.683   0.963  10.760  3.2179  1.2652  0.1716
  460MOL0     H62039   7.599   1.002  11.001  1.3685  1.4751 -0.3750
  460MOL0     H62040   7.488   1.122  10.930 -0.1356 -0.5266  1.1113
  460MOL0     H62041   7.367   0.958  10.812  3.3352  2.6771 -2.1999
  460MOL0     H62042   7.493   0.837  10.826 -0.0803 -1.8178  0.3859
  460MOL0     H62043   7.442   0.817  11.080  0.1560 -2.9375 -1.1414
  460MOL0     H62044   7.332   0.947  11.059 -2.3588 -1.7412  0.3962
  460MOL0     H62045   7.179   0.752  11.069 -3.7640  1.3112 -2.5319
  460MOL0     H62046   7.202   0.798  10.896  1.7223  0.2662 -0.6301
  460MOL0     H62047   7.235   0.564  10.905  2.0404 -2.5589  0.7486
  460MOL0     H62048   7.393   0.617  10.889  0.1589 -1.5786 -1.2623
  460MOL0     H62049   7.447   0.590  11.122  0.0274 -2.4916  1.6752
  460MOL0     H62050   7.367   0.454  11.060  0.4308  0.4674 -0.9519
  460MOL0     H62051   7.104   0.389  11.147 -0.7619  4.3663 -3.5547
  460MOL0     H62052   7.023   0.328  11.473  0.1585  0.7055  0.5526
  460MOL0     H62053   6.970   0.490  11.506  2.1476 -1.1095  1.7347
  460MOL0     H62054   6.794   0.363  11.405  1.6574 -0.5469  1.1200
  460MOL0     H62055   6.901   0.314  11.267 -1.2982  1.2799 -1.8117
  460MOL0     H62056   6.903   0.574  11.201 -1.4891  0.9218 -1.9259
  460MOL0     H62057   6.792   0.597  11.329  3.1312  2.2106  0.1394
  460MOL0     H62058   6.646   0.568  11.163  0.8779  0.8055  2.5498
  460MOL0     H62059   6.661   0.400  11.190  0.0928 -0.2590 -1.4829
  460MOL0     H62060   6.877   0.441  10.812  0.9378  0.4182 -0.9548
  460MOL0     H62061   6.985   0.654  10.558 -1.9914  0.9022 -1.3761
  460MOL0     H62062   6.988   0.498  10.627  1.1362  1.1803  0.2821
  460MOL0     H62063   6.874   0.538  10.493  0.3937 -0.5716  0.8810
  460MOL0     H62064   6.769   1.025  10.418  0.0771  0.2848  0.5880
  460MOL0     H62065   6.759   1.243  10.344  0.1188  0.3930  1.6114
  460MOL0     H62066   6.589   1.419  10.147  1.4049 -2.3914  1.1466
  460MOL0     H62067   6.410   1.411  10.198 -0.9494  2.4034  2.6668
  460MOL0     H62068   6.404   1.632  10.282  0.4883 -0.1988 -0.7537
  460MOL0     H62069   6.571   1.650  10.290 -1.4435 -0.5814  1.7689
  460MOL0     H62070   6.489   1.792  10.132  2.4528  1.6433 -1.4595
  460MOL0     H62071   6.375   1.666  10.059  1.1100  1.4531 -2.0568
  460MOL0     H62072   6.550   1.538   9.953  2.6192 -0.3489 -2.9640
  460MOL0     H62073   6.542   1.709   9.897 -4.7590  2.9593  3.7414
  460MOL0     H62074   6.767   1.624   9.938  6.1148  1.3597  2.9900
  460MOL0     H62075   6.730   1.594  10.107 -1.3833 -2.0894 -0.0857
  460MOL0     H62076   6.781   1.850   9.944  0.0389  1.2900  0.2722
  460MOL0     H62077   6.659   1.885  10.062 -0.4260 -1.2056 -1.6797
  460MOL0     H62078   6.913   1.769  10.124  1.2141  1.5289 -1.5385
  460MOL0     H62079   6.776   1.802  10.236 -0.6841  0.1054 -0.3315
  460MOL0     H62080   6.919   1.990  10.269 -0.9202 -0.9066  0.8220
  460MOL0     H62081   6.775   2.031  10.183 -0.9841 -1.5754 -0.1520
  460MOL0     H62082   6.353   1.267  10.486 -0.9049 -1.7845 -1.2761
  460MOL0     H62083   6.375   1.045  10.572  1.0650  0.2425  1.3925
  460MOL0     H62084   6.585   0.834  10.816 -1.9142 -0.8480 -0.3550
  460MOL0     H62085   6.591   0.685  11.001  0.0610 -0.0253  0.2270
  460MOL0     H62086   8.000   0.992  10.931 -1.3017  0.8067  1.4511
  460MOL0     H62087   8.254   1.031  10.966  0.9453  0.6802  0.6787
  460MOL0     H62088   8.625   1.114  10.849  0.5264  0.7464 -0.8805
  460MOL0     H62089   8.846   1.090  10.905  0.2752 -1.0249  2.8162
  460MOL0     H62090   9.062   1.419  11.003 -1.6159  0.6590  1.4861
  460MOL0     H62091   9.085   1.386  11.159  1.4528 -1.6866  1.0152
  460MOL0     H62092   9.231   1.191  11.093 -1.4602  0.0991  0.1345
  460MOL0     H62093   9.302   1.354  11.088 -1.5280  1.7342 -1.2879
  460MOL0     H62094   9.331   1.377  10.868 -0.5252  0.8823  2.2277
  460MOL0     H62095   9.194   1.271  10.824  0.3703 -1.0849 -0.2170
  460MOL0     H62096   9.328   1.073  10.913  3.0820 -0.4786  0.8766
  460MOL0     H62097   9.463   1.177  10.945  1.4208 -3.8019 -1.2932
  460MOL0     H62098   9.514   1.147  10.532  0.9542 -2.2221  0.2770
  460MOL0     H62099   8.842   1.447  11.140  0.1139  0.4358  0.4842
  460MOL0     H62100   8.617   1.481  11.077  0.6769 -1.2455  1.0283
  461MOL0     O62101   7.826   5.595   7.395  0.0837 -0.6265  0.6326
  461MOL0     C62102   7.911   5.578   7.483  0.4558 -0.4959  0.2338
  461MOL0     O62103   8.024   5.657   7.499  0.6067 -0.5722  0.2592
  461MOL0     C62104   8.028   5.774   7.431 -0.3743 -0.0963 -0.3693
  461MOL0     C62105   8.079   5.781   7.309 -0.4859  0.5919 -0.1740
  461MOL0     C62106   8.055   5.890   7.221  0.0207  0.4851  1.0300
  461MOL0     C62107   8.007   6.010   7.278  1.0913  0.6040 -0.3041
  461MOL0     O62108   7.990   6.114   7.190  0.4084 -0.4148 -0.0138
  461MOL0     C62109   8.089   6.212   7.226 -0.7616 -1.2912  0.4822
  461MOL0     C62110   8.229   6.165   7.184  0.0948 -0.6934  0.6199
  461MOL0     C62111   8.243   6.124   7.036  0.0383  0.2116  0.5314
  461MOL0     C62112   8.387   6.087   7.006  0.4108 -0.0859  0.2616
  461MOL0     C62113   8.406   6.116   6.857 -0.5075 -0.8214  0.0643
  461MOL0     C62114   8.551   6.065   6.814  0.1962  0.8399  0.0841
  461MOL0     C62115   8.585   6.095   6.667  0.4430  0.4690 -0.5727
  461MOL0     C62116   8.721   6.066   6.637 -0.9891 -0.4109 -0.3761
  461MOL0     N62117   8.757   5.927   6.661 -0.1569  0.3295  0.3647
  461MOL0     C62118   8.856   5.889   6.748  0.0020  0.1723  0.8533
  461MOL0     C62119   8.838   5.756   6.747 -0.9065  0.4815 -0.4440
  461MOL0     C62120   8.913   5.658   6.834 -0.0915  0.0264  0.6781
  461MOL0     C62121   8.883   5.659   6.990 -0.5308 -0.4877  0.5802
  461MOL0     C62122   8.734   5.642   7.014  0.2334 -0.1985  1.0557
  461MOL0     C62123   8.686   5.647   7.162 -0.6055 -0.0528 -0.2404
  461MOL0     O62124   8.690   5.786   7.196 -0.0321 -0.2482 -0.3731
  461MOL0     C62125   8.604   5.835   7.289 -0.1818  0.4479  1.4371
  461MOL0     C62126   8.550   5.744   7.391 -0.1907 -0.3431  0.2981
  461MOL0     C62127   8.455   5.794   7.484  0.5924 -1.3452 -0.1708
  461MOL0     C62128   8.381   5.697   7.568  0.1007  0.2056 -0.3189
  461MOL0     C62129   8.423   5.936   7.481  0.1325  0.7907 -0.2344
  461MOL0     C62130   8.329   6.000   7.575  0.0438 -0.8074 -0.5767
  461MOL0     O62131   8.243   6.083   7.514  0.4429  0.3293 -1.5052
  461MOL0     C62132   8.198   6.180   7.600  0.1324 -0.3534 -0.6691
  461MOL0     C62133   8.114   6.149   7.708  0.4978 -0.8912 -0.2410
  461MOL0     C62134   8.052   6.258   7.787  0.2393 -0.2972  0.0643
  461MOL0     C62135   8.068   6.391   7.748 -0.0904 -0.5747  0.2911
  461MOL0     O62136   7.990   6.485   7.804  0.6530 -0.5351 -0.6426
  461MOL0     C62137   8.055   6.611   7.856 -0.2866  0.9397  0.8023
  461MOL0     C62138   7.957   6.724   7.881 -1.3041  1.1306 -0.2607
  461MOL0     C62139   7.870   6.758   7.763 -0.3633 -0.3774  0.1111
  461MOL0     C62140   7.768   6.864   7.800  0.2652  0.7012  0.0183
  461MOL0     C62141   7.634   6.838   7.717 -0.9882  0.1063  0.1304
  461MOL0     C62142   7.538   6.962   7.731 -0.4888  0.0283 -0.4061
  461MOL0     C62143   7.423   6.949   7.632 -0.1546 -0.0070  0.2742
  461MOL0     C62144   7.359   7.089   7.619  0.0337 -0.2211 -0.0633
  461MOL0    Cl62145   7.181   7.057   7.594 -0.0239 -0.2623  0.1718
  461MOL0     C62146   8.151   6.416   7.633 -0.2316 -0.5764 -0.7829
  461MOL0     C62147   8.221   6.316   7.565  0.3027 -0.2522  0.1483
  461MOL0     O62148   8.337   5.972   7.697  0.3583 -0.0834  0.0233
  461MOL0     C62149   8.490   6.022   7.383 -0.3391  0.4682  0.4733
  461MOL0     C62150   8.567   5.966   7.279 -0.1186 -0.7221  0.6286
  461MOL0     N62151   8.776   5.713   6.638  1.3374 -0.1118  0.5185
  461MOL0     N62152   8.710   5.817   6.588 -0.3836  0.1349 -1.0125
  461MOL0     C62153   7.954   6.004   7.409 -0.1241  0.1117 -1.0892
  461MOL0     C62154   7.969   5.889   7.487  0.4264  0.4026  0.3057
  461MOL0     C62155   7.888   5.456   7.559 -0.0931 -0.2528 -0.0003
  461MOL0     C62156   7.765   5.394   7.577 -0.5202 -0.2752 -0.8031
  461MOL0     C62157   7.759   5.281   7.652  0.0353 -0.2036  0.0838
  461MOL0     C62158   7.876   5.228   7.715 -0.3103 -0.4773 -0.0337
  461MOL0     O62159   7.864   5.136   7.811  0.2060  0.3501  0.1253
  461MOL0     C62160   7.907   5.001   7.770  0.8365 -0.5749  0.2566
  461MOL0     C62161   7.835   4.899   7.859 -0.0862  0.7269  0.3271
  461MOL0     C62162   7.698   4.879   7.809  0.9285  0.0664  0.9397
  461MOL0     C62163   7.621   4.770   7.879 -0.0668  0.6071  0.2682
  461MOL0     C62164   7.581   4.796   8.011  0.8331 -0.5763  0.1368
  461MOL0     C62165   7.535   4.828   8.120  0.6447  0.3330  1.6926
  461MOL0     C62166   7.998   5.283   7.686  0.0832 -0.0293  0.5485
  461MOL0     C62167   8.006   5.397   7.614  0.3291 -0.5912  1.0276
  461MOL0     H62168   8.144   5.697   7.289 -0.8554 -0.3356  2.1831
  461MOL0     H62169   8.077   5.897   7.115  3.9739 -2.0349  1.4859
  461MOL0     H62170   8.064   6.299   7.165  1.9474 -1.7551 -1.5045
  461MOL0     H62171   8.090   6.242   7.331  1.5878  0.4458  0.0349
  461MOL0     H62172   8.303   6.244   7.200 -0.0141 -0.0793 -1.5415
  461MOL0     H62173   8.254   6.088   7.258  3.0607  1.4427  2.0384
  461MOL0     H62174   8.191   6.031   7.013  1.5695 -0.7335  0.7397
  461MOL0     H62175   8.211   6.211   6.978  0.3087  2.7169  3.8058
  461MOL0     H62176   8.457   6.139   7.072  1.5307 -1.9770  0.6560
  461MOL0     H62177   8.407   5.982   7.032 -0.5716 -0.5155 -0.6496
  461MOL0     H62178   8.326   6.076   6.794 -0.1154 -0.7257 -0.5005
  461MOL0     H62179   8.401   6.223   6.837 -0.6228  0.0299  3.9187
  461MOL0     H62180   8.633   6.102   6.876 -0.9953  1.0281  1.6086
  461MOL0     H62181   8.556   5.955   6.816 -0.8194  0.7200 -2.2129
  461MOL0     H62182   8.524   6.024   6.612  1.1182 -0.8658  0.3316
  461MOL0     H62183   8.562   6.197   6.637 -4.0090 -0.5085 -1.1329
  461MOL0     H62184   8.780   6.128   6.704 -2.4388  0.4365  0.1542
  461MOL0     H62185   8.746   6.105   6.538  0.1742 -0.8263 -0.2577
  461MOL0     H62186   8.907   5.958   6.814  2.0798  0.4479 -0.9295
  461MOL0     H62187   8.893   5.557   6.797  1.6633 -0.4858  0.9905
  461MOL0     H62188   9.020   5.684   6.831  0.1928 -1.1671 -0.4662
  461MOL0     H62189   8.905   5.758   7.031 -1.8223  0.4406 -0.8504
  461MOL0     H62190   8.941   5.571   7.019 -1.3073 -1.1213  0.2576
  461MOL0     H62191   8.696   5.553   6.963 -1.5969  0.8367  0.5503
  461MOL0     H62192   8.681   5.724   6.967  0.0671 -0.4473  0.8078
  461MOL0     H62193   8.745   5.577   7.223 -1.9081 -1.4374 -0.4994
  461MOL0     H62194   8.581   5.617   7.172 -0.8958  0.9567 -0.1818
  461MOL0     H62195   8.581   5.641   7.401 -1.4700 -0.6185  1.7278
  461MOL0     H62196   8.401   5.725   7.672  0.0009  1.9954 -0.7463
  461MOL0     H62197   8.274   5.718   7.560 -0.1412 -0.3787  1.1022
  461MOL0     H62198   8.399   5.590   7.552 -0.6027 -0.2159  1.4765
  461MOL0     H62199   8.102   6.051   7.754  0.8353  0.3760  2.7928
  461MOL0     H62200   7.992   6.223   7.871 -1.7642 -2.8366 -2.2033
  461MOL0     H62201   8.106   6.590   7.951 -0.8784 -0.6978  0.7886
  461MOL0     H62202   8.125   6.659   7.786  0.7331 -0.2674  0.9482
  461MOL0     H62203   7.897   6.699   7.968 -1.1190  1.4031 -0.0537
  461MOL0     H62204   8.012   6.811   7.919 -0.1504 -1.1513  3.8823
  461MOL0     H62205   7.825   6.661   7.739 -0.0514 -0.1087 -1.7077
  461MOL0     H62206   7.931   6.795   7.680 -0.8601 -3.7995 -1.9660
  461MOL0     H62207   7.733   6.863   7.904 -2.3434 -0.8465 -0.7880
  461MOL0     H62208   7.806   6.962   7.767 -1.3680  1.8780  1.4415
  461MOL0     H62209   7.581   6.748   7.751 -0.7572  0.0298  0.2853
  461MOL0     H62210   7.658   6.816   7.612 -0.6837  1.5088 -0.1120
  461MOL0     H62211   7.477   6.962   7.822 -3.9995  1.0466 -2.5490
  461MOL0     H62212   7.588   7.058   7.711  1.0586 -0.9775 -1.6076
  461MOL0     H62213   7.350   6.872   7.660 -0.1880 -1.1196 -2.6244
  461MOL0     H62214   7.483   6.926   7.544  1.8531 -0.1580  1.6235
  461MOL0     H62215   7.404   7.142   7.534  0.8367 -0.8665 -0.0440
  461MOL0     H62216   7.370   7.141   7.714 -0.0223 -0.5263  0.1086
  461MOL0     H62217   8.168   6.520   7.607 -1.1723  0.1810  1.4308
  461MOL0     H62218   8.278   6.356   7.482 -1.0795  2.6496  0.4614
  461MOL0     H62219   8.460   6.126   7.387 -0.9864  0.6475 -3.7830
  461MOL0     H62220   8.603   6.042   7.210 -1.1864  1.0468  1.9089
  461MOL0     H62221   7.880   6.076   7.443 -2.7703 -1.4980 -3.0089
  461MOL0     H62222   7.931   5.880   7.588  0.9219  1.4640  0.5994
  461MOL0     H62223   7.672   5.434   7.537  0.4370 -0.0128 -2.8500
  461MOL0     H62224   7.670   5.219   7.661  0.7141 -1.1423  0.4845
  461MOL0     H62225   7.862   4.982   7.673  3.3734 -0.3460 -1.0397
  461MOL0     H62226   8.015   4.986   7.763  0.9022 -0.8188  1.4993
  461MOL0     H62227   7.846   4.922   7.966 -0.3139 -1.7568  0.9419
  461MOL0     H62228   7.883   4.801   7.855  1.0492  1.2031  1.4418
  461MOL0     H62229   7.688   4.869   7.701  0.0451 -1.5746  1.1526
  461MOL0     H62230   7.638   4.970   7.826  0.8046  0.3643 -0.8730
  461MOL0     H62231   7.691   4.686   7.879  1.4081  1.7853  1.3164
  461MOL0     H62232   7.542   4.735   7.813  0.9698  3.5331 -2.7653
  461MOL0     H62233   7.482   4.852   8.209 -1.7890 -2.6703  1.2369
  461MOL0     H62234   8.084   5.232   7.728  0.9405  1.1533  0.2718
  461MOL0     H62235   8.098   5.449   7.589  0.7433 -2.6251 -2.3837
  462MOL0     O62236   1.767   9.325   5.030 -0.0242  0.4252  0.5772
  462MOL0     C62237   1.863   9.379   5.077  0.6278 -0.2877 -0.2345
  462MOL0     O62238   1.898   9.509   5.051 -0.1260 -0.0811 -0.5257
  462MOL0     C62239   1.844   9.579   4.948  0.1388  0.1116 -0.2749
  462MOL0     C62240   1.714   9.611   4.933 -0.8379  0.7688 -1.2046
  462MOL0     C62241   1.672   9.688   4.827  0.2276 -0.1697  0.8024
  462MOL0     C62242   1.759   9.737   4.730  0.1318 -0.1041 -0.5126
  462MOL0     O62243   1.727   9.827   4.636  0.3000  0.6954  0.4396
  462MOL0     C62244   1.590   9.841   4.582  0.4029  0.3632 -0.1491
  462MOL0     C62245   1.510   9.936   4.662  0.6988 -0.6229  1.3230
  462MOL0     C62246   1.361   9.959   4.612 -0.2460  0.9754 -0.2430
  462MOL0     C62247   1.353   9.980   4.451 -0.1028  0.0623 -0.4667
  462MOL0     C62248   1.215  10.035   4.426 -0.1220 -0.4619  0.5011
  462MOL0     C62249   1.101   9.939   4.428 -1.1489  0.2970 -0.8619
  462MOL0     C62250   0.970   9.985   4.357  0.3188  0.5221  0.5959
  462MOL0     C62251   0.976   9.976   4.211  0.1707 -0.4429 -1.1944
  462MOL0     N62252   0.854  10.021   4.146  0.7003  0.7218  0.9658
  462MOL0     C62253   0.726   9.979   4.179 -0.4724 -0.8375  0.2444
  462MOL0     C62254   0.647  10.043   4.093 -0.0692 -0.4798 -0.4409
  462MOL0     C62255   0.500  10.039   4.078  0.3690 -0.6246 -0.1894
  462MOL0     C62256   0.461   9.900   4.023  0.2401  0.9481 -0.7287
  462MOL0     C62257   0.518   9.874   3.888 -0.1213 -0.4490 -0.9003
  462MOL0     C62258   0.463   9.753   3.818 -0.2118  0.2874 -0.5080
  462MOL0     O62259   0.521   9.737   3.688 -0.3959  0.6425 -0.1525
  462MOL0     C62260   0.483   9.640   3.599  0.7608 -0.3142  0.7685
  462MOL0     C62261   0.503   9.653   3.461 -0.9758  0.8565  0.7979
  462MOL0     C62262   0.473   9.551   3.367 -0.6780  0.0749 -0.2683
  462MOL0     C62263   0.510   9.571   3.223 -0.1990  0.3133 -0.0743
  462MOL0     C62264   0.402   9.442   3.415 -0.8268 -0.2684 -0.5442
  462MOL0     C62265   0.343   9.339   3.327 -0.6657 -0.2323  0.9828
  462MOL0     O62266   0.311   9.215   3.388  0.2403  0.0833 -0.2500
  462MOL0     C62267   0.276   9.113   3.306 -0.4367  0.4966  0.0476
  462MOL0     C62268   0.147   9.109   3.248 -0.1641  0.2857 -0.0299
  462MOL0     C62269   0.116   9.008   3.168 -0.0066 -0.2280 -0.5343
  462MOL0     C62270   0.215   8.907   3.144 -0.2314  0.1075  0.0725
  462MOL0     O62271   0.190   8.805   3.065  0.2388  0.0497 -0.2282
  462MOL0     C62272   0.284   8.776   2.954  0.4290 -1.2231  0.7081
  462MOL0     C62273   0.268   8.633   2.900  0.1477 -0.8492  0.2626
  462MOL0     C62274   0.118   8.629   2.856  0.3967 -0.4369 -0.1888
  462MOL0     C62275   0.064   8.482   2.823  1.0808 -0.3574 -0.7850
  462MOL0     C62276   0.072   8.389   2.946 -0.5418 -0.1894 -1.6408
  462MOL0     C62277  -0.026   8.276   2.957 -1.0007 -0.2288  0.0325
  462MOL0     C62278  -0.030   8.203   2.822 -0.1624 -0.7992 -0.8216
  462MOL0     C62279  -0.054   8.062   2.849  0.1101 -0.2619 -0.3156
  462MOL0    Cl62280  -0.076   7.992   2.690 -0.1966 -0.5320  0.0721
  462MOL0     C62281   0.348   8.923   3.195 -0.3770  0.5191 -0.4104
  462MOL0     C62282   0.377   9.023   3.275 -0.7149  0.4104 -0.9747
  462MOL0     O62283   0.301   9.366   3.211  0.2231  0.1821 -0.5436
  462MOL0     C62284   0.389   9.426   3.550 -0.0697  0.4761 -0.5130
  462MOL0     C62285   0.428   9.520   3.643 -0.5342  0.6145 -0.0619
  462MOL0     N62286   0.724  10.145   4.034  0.2397  0.6437 -0.6864
  462MOL0     N62287   0.846  10.116   4.052 -0.1135  0.5592 -0.4008
  462MOL0     C62288   1.900   9.714   4.751  0.1242  0.3698 -0.0405
  462MOL0     C62289   1.934   9.629   4.857  0.4073  0.2329  0.4902
  462MOL0     C62290   1.927   9.315   5.191 -0.0053  0.0675  1.0234
  462MOL0     C62291   2.054   9.356   5.226  0.0997  0.3811 -0.6470
  462MOL0     C62292   2.119   9.291   5.338 -0.7917 -0.2410  0.1600
  462MOL0     C62293   2.061   9.170   5.396 -0.0852  0.1500  0.1470
  462MOL0     O62294   2.145   9.112   5.493 -0.2634 -0.4140 -0.8867
  462MOL0     C62295   2.121   8.977   5.529  0.4446 -0.9595 -0.2491
  462MOL0     C62296   2.253   8.927   5.583 -0.6251  0.1903  0.2858
  462MOL0     C62297   2.254   8.776   5.601 -0.3926 -0.2541  0.2095
  462MOL0     C62298   2.294   8.703   5.476 -0.0505 -0.3328  0.2515
  462MOL0     C62299   2.433   8.715   5.433  0.1370 -0.2288 -0.5060
  462MOL0     C62300   2.549   8.721   5.403 -0.3301  0.1781 -0.3822
  462MOL0     C62301   1.929   9.134   5.359 -0.6179  0.3030  0.6806
  462MOL0     C62302   1.862   9.205   5.262 -0.0075 -0.3398 -0.3137
  462MOL0     H62303   1.647   9.580   5.013 -0.7208 -0.1374 -1.4484
  462MOL0     H62304   1.571   9.728   4.820  0.2889 -0.2710 -1.1705
  462MOL0     H62305   1.615   9.881   4.483  1.7896 -4.8331 -2.2790
  462MOL0     H62306   1.543   9.743   4.570  4.1173 -1.6208 -0.3051
  462MOL0     H62307   1.527   9.922   4.769  2.1746  2.5909  1.6222
  462MOL0     H62308   1.543  10.038   4.646 -0.5138 -0.5219 -0.8253
  462MOL0     H62309   1.291   9.880   4.638 -2.1844  2.4361 -0.8248
  462MOL0     H62310   1.333  10.054   4.658 -0.1716  0.4625  0.8926
  462MOL0     H62311   1.435  10.038   4.408  1.3976 -1.0862  0.7630
  462MOL0     H62312   1.357   9.881   4.405  0.0973 -0.2079  0.1263
  462MOL0     H62313   1.199  10.109   4.505  2.4925 -3.0077  3.7408
  462MOL0     H62314   1.218  10.084   4.328 -1.6354 -0.2789  0.5175
  462MOL0     H62315   1.128   9.837   4.400  1.6639  0.5882  0.4878
  462MOL0     H62316   1.068   9.927   4.532 -0.9075  0.8477 -0.7174
  462MOL0     H62317   0.882   9.930   4.391 -0.1914 -0.6895 -2.3892
  462MOL0     H62318   0.953  10.090   4.383 -0.3994  0.1883  1.5071
  462MOL0     H62319   0.996   9.875   4.175 -0.4352 -0.1453 -2.4253
  462MOL0     H62320   1.052  10.051   4.190 -0.2235 -0.0239 -1.1488
  462MOL0     H62321   0.703   9.886   4.230 -0.0746 -2.6334 -2.5982
  462MOL0     H62322   0.469  10.071   4.178  1.6110  2.4490 -0.6742
  462MOL0     H62323   0.456  10.105   4.003 -0.1728  0.3832  0.9849
  462MOL0     H62324   0.352   9.886   4.023  0.4198 -0.6378 -0.1625
  462MOL0     H62325   0.498   9.818   4.085 -2.5821 -0.6028 -0.9087
  462MOL0     H62326   0.626   9.868   3.905 -0.5887 -0.4905  2.8300
  462MOL0     H62327   0.496   9.961   3.825 -1.9072 -0.6248 -0.5829
  462MOL0     H62328   0.357   9.775   3.823 -0.5770 -1.5363  1.5197
  462MOL0     H62329   0.501   9.674   3.885  0.9989  2.2762  1.3136
  462MOL0     H62330   0.552   9.745   3.429 -1.5001  1.1551  0.8542
  462MOL0     H62331   0.558   9.482   3.183 -1.3518 -0.5520  0.3955
  462MOL0     H62332   0.421   9.598   3.165  1.2041  0.9628 -2.0354
  462MOL0     H62333   0.572   9.660   3.210 -1.0336  1.1660  1.4435
  462MOL0     H62334   0.075   9.184   3.280 -0.3116  0.6609 -1.1753
  462MOL0     H62335   0.015   8.983   3.136 -0.8005  0.4336  1.3157
  462MOL0     H62336   0.273   8.856   2.879  0.6240 -1.2142  0.6907
  462MOL0     H62337   0.385   8.765   2.992  1.6240 -1.7164 -2.3068
  462MOL0     H62338   0.332   8.615   2.813  1.3961 -1.0786  1.2021
  462MOL0     H62339   0.284   8.552   2.972 -2.4622 -0.1456  1.7773
  462MOL0     H62340   0.110   8.699   2.773 -0.3723  1.3504  1.3199
  462MOL0     H62341   0.048   8.670   2.929 -1.0288 -5.7983  1.9192
  462MOL0     H62342  -0.040   8.494   2.791  2.1551  3.6503 -3.5197
  462MOL0     H62343   0.119   8.451   2.734  0.3597  0.5014 -1.5469
  462MOL0     H62344   0.067   8.442   3.042 -2.8276  1.2305 -2.4492
  462MOL0     H62345   0.165   8.334   2.929 -2.1525 -5.3324  3.1333
  462MOL0     H62346  -0.004   8.215   3.045  0.7673 -0.8309 -0.7922
  462MOL0     H62347  -0.122   8.325   2.978 -1.4136 -0.5251 -1.0905
  462MOL0     H62348   0.061   8.226   2.766 -1.6003  3.4765 -1.8004
  462MOL0     H62349  -0.106   8.255   2.763  1.7300  1.4689 -1.3848
  462MOL0     H62350  -0.141   8.040   2.912  2.2229 -1.5352  2.3467
  462MOL0     H62351   0.035   8.018   2.893  1.3321  0.5636 -1.8505
  462MOL0     H62352   0.430   8.854   3.182 -1.4433 -0.7269 -0.6738
  462MOL0     H62353   0.468   9.034   3.332 -2.3299  0.4697  1.7550
  462MOL0     H62354   0.355   9.331   3.591 -1.4537  1.4750  0.7597
  462MOL0     H62355   0.423   9.501   3.750  1.7607  0.0621 -0.0112
  462MOL0     H62356   1.975   9.767   4.694 -0.2044 -2.1860 -3.1747
  462MOL0     H62357   2.039   9.613   4.881  0.2502  0.5883  1.4773
  462MOL0     H62358   2.103   9.433   5.168 -1.1858  2.8395  1.3432
  462MOL0     H62359   2.224   9.305   5.360 -1.0376 -0.2578  1.4127
  462MOL0     H62360   2.048   8.981   5.610  1.5316  0.4530  0.7037
  462MOL0     H62361   2.085   8.922   5.441 -0.2442 -2.3076  0.8394
  462MOL0     H62362   2.273   8.986   5.673  0.9252  1.2482 -0.7042
  462MOL0     H62363   2.336   8.951   5.515  1.3705 -1.8217  1.8702
  462MOL0     H62364   2.158   8.741   5.640 -0.7085  0.7375  0.3618
  462MOL0     H62365   2.330   8.742   5.672 -0.5148  0.3823  0.6577
  462MOL0     H62366   2.245   8.726   5.381  3.9165  2.6176 -1.3649
  462MOL0     H62367   2.277   8.596   5.487  0.1077 -0.7916 -2.9369
  462MOL0     H62368   2.651   8.726   5.369  0.2060 -1.6926  0.7956
  462MOL0     H62369   1.885   9.051   5.413 -1.3759 -0.8242 -1.5367
  462MOL0     H62370   1.756   9.187   5.253  0.0259 -0.4993 -0.3853
  463MOL0     O62371   5.140   2.892   4.499  0.4229 -0.4611 -0.8191
  463MOL0     C62372   5.117   3.012   4.489  0.4671  0.2267  0.2591
  463MOL0     O62373   5.189   3.103   4.408 -0.6614  0.3210 -0.2495
  463MOL0     C62374   5.291   3.042   4.333 -0.0161 -0.8593 -1.0485
  463MOL0     C62375   5.261   2.979   4.211  0.5923  0.0641  0.3680
  463MOL0     C62376   5.365   2.921   4.135 -0.0071 -0.7981 -0.0307
  463MOL0     C62377   5.499   2.914   4.188 -0.5596  1.0916  0.8336
  463MOL0     O62378   5.592   2.848   4.111  0.4153  1.0083 -0.2726
  463MOL0     C62379   5.739   2.850   4.136  0.4672  0.4204 -0.1089
  463MOL0     C62380   5.793   2.746   4.239 -0.0667  0.1362 -0.5860
  463MOL0     C62381   5.945   2.745   4.251 -0.0573  0.2171 -0.4336
  463MOL0     C62382   5.980   2.680   4.385 -0.2021 -0.9452  0.3456
  463MOL0     C62383   6.130   2.682   4.428 -0.5186 -0.8343 -0.9686
  463MOL0     C62384   6.150   2.649   4.575 -0.6551  0.4724  0.3228
  463MOL0     C62385   6.303   2.632   4.611  0.9018 -0.7283  0.5355
  463MOL0     C62386   6.336   2.527   4.711 -0.6129  0.2269 -0.6300
  463MOL0     N62387   6.349   2.391   4.648 -0.2058 -0.0668  0.6358
  463MOL0     C62388   6.460   2.305   4.669  1.5514 -0.4708  0.8027
  463MOL0     C62389   6.412   2.182   4.647 -0.5096 -0.5096  0.3829
  463MOL0     C62390   6.497   2.066   4.659 -0.7041 -0.2227 -0.1447
  463MOL0     C62391   6.584   2.050   4.788 -0.1031  0.1383  0.7301
  463MOL0     C62392   6.550   1.934   4.884  0.1503  0.2134  0.7960
  463MOL0     C62393   6.418   1.957   4.957  0.3920  0.0512 -0.5733
  463MOL0     O62394   6.364   1.830   4.998  0.0508  1.1187  0.0524
  463MOL0     C62395   6.416   1.750   5.103  0.7644 -0.3065 -0.6130
  463MOL0     C62396   6.511   1.786   5.202  0.3545  0.3697  0.2308
  463MOL0     C62397   6.544   1.700   5.311 -0.1576  0.1830  0.4569
  463MOL0     C62398   6.648   1.755   5.394 -0.1347 -0.1167 -0.3290
  463MOL0     C62399   6.482   1.577   5.321 -0.3251 -0.3153 -0.4877
  463MOL0     C62400   6.503   1.487   5.437 -0.3948  0.0443 -0.3687
  463MOL0     O62401   6.474   1.349   5.417  0.2069  0.1320 -0.2469
  463MOL0     C62402   6.487   1.257   5.524 -0.9770  0.0058 -0.7125
  463MOL0     C62403   6.438   1.281   5.649 -0.8953  0.4185  0.2752
  463MOL0     C62404   6.414   1.182   5.744  0.0775  0.9764  1.0340
  463MOL0     C62405   6.452   1.047   5.711 -0.6320 -1.0799 -0.9302
  463MOL0     O62406   6.442   0.942   5.797 -0.2654  0.2505 -0.3375
  463MOL0     C62407   6.515   0.820   5.772  0.0333 -0.7722  0.1740
  463MOL0     C62408   6.541   0.752   5.902  0.2526  0.2921  0.0921
  463MOL0     C62409   6.631   0.637   5.881  0.1328  0.9490 -0.6755
  463MOL0     C62410   6.691   0.580   6.021  0.4202  0.0422 -0.0156
  463MOL0     C62411   6.745   0.440   5.997  0.2164 -0.3304  0.1174
  463MOL0     C62412   6.790   0.372   6.130 -0.0238  0.4680  0.5852
  463MOL0     C62413   6.814   0.225   6.115 -0.3583  0.0034 -0.6705
  463MOL0     C62414   6.890   0.156   6.230 -0.2015  0.0476  0.5918
  463MOL0    Cl62415   6.860  -0.021   6.228  0.4120 -0.0840  0.1387
  463MOL0     C62416   6.508   1.029   5.580  0.5173 -0.3582  0.0007
  463MOL0     C62417   6.522   1.131   5.492 -0.8007 -1.0731  0.7771
  463MOL0     O62418   6.543   1.537   5.549 -0.1128  0.2373  0.8648
  463MOL0     C62419   6.388   1.535   5.220 -0.8661  1.6841  0.8403
  463MOL0     C62420   6.360   1.620   5.111  0.4928 -0.8124 -0.1814
  463MOL0     N62421   6.280   2.190   4.585  0.2800  0.1751 -0.3285
  463MOL0     N62422   6.240   2.310   4.602 -0.2185 -0.3578 -0.4470
  463MOL0     C62423   5.525   2.962   4.318  0.3756  0.1596 -0.0985
  463MOL0     C62424   5.426   3.044   4.380 -0.7743  0.5540 -1.0016
  463MOL0     C62425   5.018   3.073   4.582 -0.7920 -0.6717  0.4962
  463MOL0     C62426   4.930   3.002   4.654 -0.4047  0.3579 -0.8167
  463MOL0     C62427   4.838   3.062   4.739 -0.1054  1.0990  0.2279
  463MOL0     C62428   4.818   3.199   4.738 -0.1249 -0.0344 -1.1527
  463MOL0     O62429   4.725   3.266   4.806  0.2322  0.2671 -0.9059
  463MOL0     C62430   4.624   3.205   4.884  0.7569  0.3853 -0.0500
  463MOL0     C62431   4.528   3.302   4.957 -1.0257  0.2814 -0.8715
  463MOL0     C62432   4.427   3.219   5.040 -0.0655  0.0212 -0.1068
  463MOL0     C62433   4.381   3.311   5.152 -0.7388  0.0965  0.3897
  463MOL0     C62434   4.247   3.280   5.213 -1.0094  0.1388 -0.8275
  463MOL0     C62435   4.138   3.260   5.255  0.6639  0.2620  0.5156
  463MOL0     C62436   4.904   3.275   4.663  0.1584 -0.2965  0.9720
  463MOL0     C62437   5.010   3.216   4.594  0.4850  0.1839  0.9921
  463MOL0     H62438   5.161   2.967   4.169 -1.1710 -0.7914  4.3221
  463MOL0     H62439   5.341   2.871   4.042 -0.9383  1.7805 -1.2921
  463MOL0     H62440   5.790   2.809   4.048  1.4053  1.0531  0.1243
  463MOL0     H62441   5.773   2.954   4.145 -0.1472  0.4803  1.9440
  463MOL0     H62442   5.744   2.785   4.328 -3.3165  4.1783 -3.6958
  463MOL0     H62443   5.759   2.645   4.216 -2.6686  0.9789 -0.7243
  463MOL0     H62444   5.991   2.677   4.178  1.2921 -1.1183  1.5393
  463MOL0     H62445   5.999   2.839   4.237  0.9998 -0.7419 -3.6048
  463MOL0     H62446   5.918   2.733   4.458  2.8310  0.2614  2.2683
  463MOL0     H62447   5.964   2.572   4.391  0.1679 -0.9185  2.6789
  463MOL0     H62448   6.188   2.607   4.373 -0.4396 -1.4820 -0.0150
  463MOL0     H62449   6.172   2.779   4.401  0.9972 -1.1158  0.2442
  463MOL0     H62450   6.115   2.724   4.647 -3.9168 -1.4983  1.0072
  463MOL0     H62451   6.087   2.564   4.600 -1.7529  1.3110  0.4773
  463MOL0     H62452   6.356   2.612   4.518 -0.0512  2.2477 -0.8001
  463MOL0     H62453   6.329   2.728   4.656 -0.7234  0.0067  0.0028
  463MOL0     H62454   6.263   2.517   4.793  1.3488 -0.7336  1.0874
  463MOL0     H62455   6.436   2.553   4.746 -1.3150  0.2796  1.5314
  463MOL0     H62456   6.561   2.334   4.696  2.0658 -2.8177  1.5794
  463MOL0     H62457   6.443   1.972   4.647  0.8201 -0.9461 -1.8423
  463MOL0     H62458   6.570   2.065   4.578 -1.1201  0.5695 -0.5410
  463MOL0     H62459   6.586   2.145   4.841  2.5699  1.1558 -0.9654
  463MOL0     H62460   6.686   2.027   4.755 -0.0276 -0.7955  1.5628
  463MOL0     H62461   6.628   1.923   4.960  2.4504 -2.5300 -1.7454
  463MOL0     H62462   6.549   1.846   4.820 -2.5226  0.6585  0.1089
  463MOL0     H62463   6.353   1.998   4.880  1.8093 -0.6710 -2.2261
  463MOL0     H62464   6.426   2.028   5.039 -1.9074 -0.2213 -0.0455
  463MOL0     H62465   6.565   1.880   5.204  1.7278 -0.4143  1.6891
  463MOL0     H62466   6.602   1.814   5.474 -2.1814 -0.6892 -1.0173
  463MOL0     H62467   6.718   1.682   5.435  0.8481  0.6345 -0.6298
  463MOL0     H62468   6.707   1.829   5.339  1.0910 -3.1732 -3.5531
  463MOL0     H62469   6.404   1.381   5.675  2.3246  1.5740  0.5028
  463MOL0     H62470   6.353   1.221   5.825 -1.1012  2.7369 -0.6001
  463MOL0     H62471   6.457   0.744   5.719  1.0565 -3.1865  2.3606
  463MOL0     H62472   6.607   0.848   5.720 -0.4045  1.2267  0.3963
  463MOL0     H62473   6.583   0.813   5.981 -0.5588  0.7755  0.1645
  463MOL0     H62474   6.447   0.708   5.937 -0.4636 -0.1979 -2.2386
  463MOL0     H62475   6.704   0.657   5.802  1.5082 -0.8976  0.0567
  463MOL0     H62476   6.566   0.558   5.839 -2.2598  2.7569 -0.5947
  463MOL0     H62477   6.757   0.656   6.065  1.6131 -1.5092  0.9879
  463MOL0     H62478   6.607   0.558   6.087 -0.7827 -0.2838 -1.5972
  463MOL0     H62479   6.832   0.440   5.931  0.1202  2.2753 -0.1353
  463MOL0     H62480   6.671   0.387   5.938 -0.6324 -2.1051  2.6383
  463MOL0     H62481   6.888   0.415   6.155  1.9067 -2.6501 -0.9650
  463MOL0     H62482   6.711   0.383   6.205 -2.5447 -2.9037 -1.3020
  463MOL0     H62483   6.876   0.212   6.025  1.5750  0.9291  0.4545
  463MOL0     H62484   6.717   0.180   6.096 -0.8549  0.0873  1.4022
  463MOL0     H62485   6.874   0.179   6.336  2.4589  1.4575  0.7659
  463MOL0     H62486   6.994   0.175   6.204 -0.4536 -0.9220 -1.2662
  463MOL0     H62487   6.547   0.931   5.555  0.0194 -0.6182  0.2279
  463MOL0     H62488   6.569   1.116   5.395  1.0841  2.9133  0.8471
  463MOL0     H62489   6.342   1.437   5.217  0.4677  1.0514  0.3040
  463MOL0     H62490   6.284   1.582   5.043  1.0791  0.5573 -1.6583
  463MOL0     H62491   5.624   2.944   4.358  1.5545  2.1062 -1.9152
  463MOL0     H62492   5.450   3.085   4.477 -3.2315 -0.3412  0.0466
  463MOL0     H62493   4.929   2.896   4.630  1.3156 -0.2169  1.3664
  463MOL0     H62494   4.784   2.998   4.808  0.1725  1.5771  0.8938
  463MOL0     H62495   4.571   3.146   4.809  0.5495  1.4007 -0.7348
  463MOL0     H62496   4.672   3.140   4.957  0.7873 -0.7066 -1.0082
  463MOL0     H62497   4.470   3.367   4.891 -2.8342  1.3010  1.5732
  463MOL0     H62498   4.582   3.369   5.023 -2.8184 -0.0695  1.0509
  463MOL0     H62499   4.469   3.129   5.087 -1.1069  0.3446  1.5516
  463MOL0     H62500   4.342   3.178   4.985 -0.5602 -0.8313  1.2373
  463MOL0     H62501   4.375   3.418   5.128 -1.2061  0.1460  0.7144
  463MOL0     H62502   4.460   3.289   5.224  1.3864 -2.7078 -2.5229
  463MOL0     H62503   4.053   3.242   5.319  0.0546 -1.7632 -0.7930
  463MOL0     H62504   4.879   3.380   4.668 -3.5989 -1.0805  1.7199
  463MOL0     H62505   5.071   3.287   4.540  0.6764 -0.0481  0.9036
  464MOL0     O62506   7.328   5.885   3.277  0.1780  0.0393 -0.0998
  464MOL0     C62507   7.382   5.832   3.182  0.5735  0.1803  0.5537
  464MOL0     O62508   7.482   5.731   3.183 -0.7108  0.2804  0.3717
  464MOL0     C62509   7.540   5.690   3.301  0.3716  0.8880 -0.0093
  464MOL0     C62510   7.507   5.722   3.433  0.4463  0.2056  0.4577
  464MOL0     C62511   7.564   5.648   3.536 -0.6941  0.4425 -0.8536
  464MOL0     C62512   7.669   5.556   3.507  0.4638 -0.3265  0.5266
  464MOL0     O62513   7.728   5.499   3.615  0.4149  0.9548 -0.4064
  464MOL0     C62514   7.850   5.429   3.618  0.2014 -0.5604  0.9643
  464MOL0     C62515   7.926   5.421   3.744  1.2037 -0.6399 -0.0916
  464MOL0     C62516   7.843   5.370   3.856 -0.4421 -0.1127 -1.5402
  464MOL0     C62517   7.921   5.377   3.985 -0.5956  0.8487 -0.2482
  464MOL0     C62518   7.840   5.372   4.106 -0.5971  0.3586 -0.1397
  464MOL0     C62519   7.923   5.364   4.235  0.4690 -0.1896  0.1937
  464MOL0     C62520   7.832   5.370   4.354  0.7387 -0.2196 -0.4972
  464MOL0     C62521   7.910   5.353   4.488 -0.2033  0.2373 -1.1271
  464MOL0     N62522   7.996   5.469   4.526  0.5285  0.3499  0.0187
  464MOL0     C62523   8.128   5.490   4.503 -0.0752  0.9275 -0.7273
  464MOL0     C62524   8.149   5.619   4.533  0.3003  0.1778  0.4282
  464MOL0     C62525   8.286   5.696   4.541 -0.3035 -0.9040 -0.0671
  464MOL0     C62526   8.370   5.696   4.673  0.0969  0.0144 -0.0551
  464MOL0     C62527   8.411   5.556   4.726  0.1568 -0.5314 -0.0107
  464MOL0     C62528   8.539   5.555   4.798  0.2815 -0.5663  0.1517
  464MOL0     O62529   8.525   5.448   4.900  0.5092  0.6537 -0.5667
  464MOL0     C62530   8.636   5.387   4.946  0.5119  0.3750 -1.0858
  464MOL0     C62531   8.764   5.408   4.893 -0.0458  0.7429  0.7560
  464MOL0     C62532   8.872   5.339   4.945 -0.0765 -0.1983  0.7504
  464MOL0     C62533   9.007   5.376   4.878  1.1322 -1.0812 -0.2257
  464MOL0     C62534   8.858   5.259   5.055 -0.1039  0.2387  0.4091
  464MOL0     C62535   8.968   5.177   5.114  0.0784 -1.0713  0.5398
  464MOL0     O62536   8.922   5.093   5.214 -0.9633  0.1878 -0.7557
  464MOL0     C62537   9.008   5.009   5.290 -0.1536  0.9200 -0.7846
  464MOL0     C62538   9.104   4.925   5.225  0.6546 -0.7195 -0.1413
  464MOL0     C62539   9.173   4.832   5.295 -0.2470 -0.2996  1.2143
  464MOL0     C62540   9.151   4.824   5.427  0.0706  0.6040 -1.2337
  464MOL0     O62541   9.233   4.732   5.489  0.3281  0.0887  1.1740
  464MOL0     C62542   9.207   4.683   5.626  0.2057 -0.9662  0.4799
  464MOL0     C62543   9.339   4.643   5.701 -0.6580  0.0810 -0.0074
  464MOL0     C62544   9.387   4.507   5.657  0.5453 -0.0327 -0.1291
  464MOL0     C62545   9.504   4.466   5.731 -0.0208 -0.6364  0.1714
  464MOL0     C62546   9.555   4.332   5.676  0.6032 -0.8700 -0.7225
  464MOL0     C62547   9.697   4.278   5.717  1.0499 -0.7097 -0.0855
  464MOL0     C62548   9.728   4.137   5.669 -0.0300 -0.0788  0.2673
  464MOL0     C62549   9.875   4.099   5.689  0.2145 -0.3186  1.2661
  464MOL0    Cl62550   9.993   4.174   5.576 -0.0686  0.5303  0.0661
  464MOL0     C62551   9.041   4.890   5.487  0.0436  0.5896  0.4951
  464MOL0     C62552   8.973   4.980   5.423 -0.3079 -0.4139  0.1692
  464MOL0     O62553   9.084   5.193   5.074  0.2393 -0.1967  0.0651
  464MOL0     C62554   8.726   5.239   5.102 -0.2667  0.1122  0.4500
  464MOL0     C62555   8.614   5.302   5.053 -0.2231  0.2090  0.7116
  464MOL0     N62556   8.028   5.671   4.587  0.3126  0.1093  0.0555
  464MOL0     N62557   7.939   5.581   4.569 -0.4453  0.0214  0.4288
  464MOL0     C62558   7.717   5.544   3.384  0.1095  0.4191  0.4757
  464MOL0     C62559   7.653   5.611   3.274 -0.5590  0.3172  0.4769
  464MOL0     C62560   7.326   5.877   3.049  0.3573  0.2615  0.3112
  464MOL0     C62561   7.365   5.819   2.922  0.5487 -0.6810 -0.9857
  464MOL0     C62562   7.299   5.876   2.812 -0.6298 -1.4710  0.1605
  464MOL0     C62563   7.232   5.998   2.810  0.0105 -0.4513  0.0510
  464MOL0     O62564   7.182   6.083   2.706 -0.0456  0.8967 -0.3595
  464MOL0     C62565   7.173   6.033   2.573 -0.0285  0.4372 -0.0180
  464MOL0     C62566   7.274   6.118   2.487  0.0363  0.3729 -0.7276
  464MOL0     C62567   7.417   6.057   2.480 -0.0177 -0.3034 -0.3893
  464MOL0     C62568   7.504   6.155   2.412 -0.1110 -0.1747  0.3320
  464MOL0     C62569   7.626   6.100   2.368  0.4478  0.1540 -0.2443
  464MOL0     C62570   7.719   6.057   2.306 -0.3554 -0.3845  0.1493
  464MOL0     C62571   7.221   6.065   2.928  0.0856 -0.1819 -0.7958
  464MOL0     C62572   7.251   6.003   3.048 -0.6276 -0.1608  1.0623
  464MOL0     H62573   7.427   5.784   3.473  1.1424  1.7325 -0.3967
  464MOL0     H62574   7.539   5.660   3.641  0.5618 -0.8239 -0.3913
  464MOL0     H62575   7.834   5.329   3.577  0.8343 -0.4559  0.4490
  464MOL0     H62576   7.930   5.464   3.552 -0.7547 -3.2499 -1.8755
  464MOL0     H62577   8.011   5.355   3.726  0.2468 -1.4568 -1.9129
  464MOL0     H62578   7.951   5.526   3.759  0.3821 -0.5455  0.7489
  464MOL0     H62579   7.754   5.433   3.856 -1.5692 -1.6675 -1.2142
  464MOL0     H62580   7.817   5.265   3.842 -0.6946 -0.7112  2.5080
  464MOL0     H62581   7.992   5.294   3.987 -1.0351  0.4684  2.3636
  464MOL0     H62582   7.981   5.470   3.983 -0.2070  0.7218  2.3326
  464MOL0     H62583   7.780   5.463   4.116 -1.7398 -0.4848  1.1486
  464MOL0     H62584   7.765   5.292   4.109  0.0753 -0.3435  3.4880
  464MOL0     H62585   7.990   5.277   4.234 -0.8176 -1.2308 -1.2238
  464MOL0     H62586   7.988   5.451   4.244 -0.0618  0.1118  1.2175
  464MOL0     H62587   7.765   5.456   4.359 -1.6469 -1.7421 -3.2306
  464MOL0     H62588   7.757   5.291   4.338 -0.7716  0.5119  2.2890
  464MOL0     H62589   7.973   5.264   4.489 -0.6694 -0.0937 -0.6763
  464MOL0     H62590   7.844   5.329   4.572  1.4289 -0.6483 -0.0364
  464MOL0     H62591   8.206   5.420   4.472  0.5770  0.8420  0.9827
  464MOL0     H62592   8.355   5.669   4.460  1.5776  1.2020  0.7282
  464MOL0     H62593   8.261   5.800   4.518 -0.7460 -1.1372 -0.6592
  464MOL0     H62594   8.309   5.751   4.745 -0.2779  2.9894 -2.4929
  464MOL0     H62595   8.457   5.756   4.646  0.9046 -0.9038  0.4302
  464MOL0     H62596   8.411   5.494   4.636  0.9589  0.8827 -1.0314
  464MOL0     H62597   8.320   5.526   4.780 -0.6861 -0.9804 -1.6215
  464MOL0     H62598   8.550   5.655   4.842  1.5288 -0.2686 -0.7937
  464MOL0     H62599   8.625   5.546   4.731  0.3307  1.2737 -0.0862
  464MOL0     H62600   8.788   5.480   4.816  1.8580  0.5318  1.1017
  464MOL0     H62601   8.993   5.456   4.804  0.3247 -2.1413 -1.2430
  464MOL0     H62602   9.074   5.427   4.948  0.4670 -0.7371  0.1701
  464MOL0     H62603   9.048   5.286   4.831  1.9970  0.1231 -1.8984
  464MOL0     H62604   9.112   4.929   5.117 -1.0123  1.1826 -0.2513
  464MOL0     H62605   9.243   4.770   5.239 -3.2543 -0.8265 -2.3042
  464MOL0     H62606   9.176   4.773   5.680  1.2869  0.4136 -1.0864
  464MOL0     H62607   9.143   4.595   5.619 -1.1135 -0.0701  1.0294
  464MOL0     H62608   9.418   4.717   5.687 -0.3105  0.0671  1.7057
  464MOL0     H62609   9.329   4.643   5.810 -1.7822 -0.1259 -0.0925
  464MOL0     H62610   9.401   4.511   5.548  2.1489  0.8978  0.0778
  464MOL0     H62611   9.305   4.435   5.669  1.5311 -0.8341  2.4451
  464MOL0     H62612   9.583   4.538   5.711 -0.3416 -0.2283  0.3606
  464MOL0     H62613   9.491   4.467   5.840  2.0866 -1.6669  0.4842
  464MOL0     H62614   9.551   4.354   5.569 -0.9650  3.8670  0.0712
  464MOL0     H62615   9.480   4.253   5.689  0.9063 -1.0377  0.0857
  464MOL0     H62616   9.775   4.342   5.674  0.3836 -1.4139 -2.5244
  464MOL0     H62617   9.703   4.274   5.826  1.2942 -0.1367 -0.0711
  464MOL0     H62618   9.685   4.151   5.569 -0.8398  1.4447  0.7882
  464MOL0     H62619   9.664   4.066   5.722 -0.9715 -0.9336 -1.8956
  464MOL0     H62620   9.880   3.990   5.691  0.6812 -0.3022  1.0640
  464MOL0     H62621   9.899   4.124   5.793 -1.6268  0.3628  1.5521
  464MOL0     H62622   9.019   4.867   5.591 -0.0273  1.2144  0.6268
  464MOL0     H62623   8.888   5.028   5.469  0.5490  0.9742  0.3460
  464MOL0     H62624   8.703   5.160   5.174 -2.4167 -0.8739 -1.1947
  464MOL0     H62625   8.511   5.291   5.086 -0.8527  2.1805 -0.4393
  464MOL0     H62626   7.800   5.481   3.354  1.2657  2.3530 -0.5610
  464MOL0     H62627   7.692   5.584   3.177  0.0355  0.6813  0.6036
  464MOL0     H62628   7.428   5.730   2.926  1.3344 -0.1834  3.3703
  464MOL0     H62629   7.322   5.824   2.719 -1.6212 -1.5497 -0.0498
  464MOL0     H62630   7.191   5.926   2.558  0.1630  0.5538 -0.6419
  464MOL0     H62631   7.074   6.057   2.532  0.9023  2.4696 -1.2066
  464MOL0     H62632   7.283   6.222   2.521 -2.8638  1.1262 -1.9209
  464MOL0     H62633   7.237   6.109   2.384  0.9031 -4.0427 -0.8477
  464MOL0     H62634   7.410   5.960   2.431  0.4723 -0.8952  0.6648
  464MOL0     H62635   7.454   6.047   2.583 -0.7769  1.7928  0.1439
  464MOL0     H62636   7.518   6.242   2.476 -2.4871  1.0384 -0.6548
  464MOL0     H62637   7.463   6.197   2.319  0.0034  0.0593  0.3869
  464MOL0     H62638   7.804   6.024   2.250  1.4925  0.0914  2.4806
  464MOL0     H62639   7.182   6.166   2.927  0.2275 -0.1134 -0.0484
  464MOL0     H62640   7.219   6.062   3.133 -0.0473 -2.2832  2.8467
  465MOL0     O62641   7.320   5.573   0.828 -0.9925 -0.0950 -0.3748
  465MOL0     C62642   7.426   5.628   0.840  0.2120  0.0150  0.1867
  465MOL0     O62643   7.441   5.737   0.910 -0.8897 -0.2378 -0.4142
  465MOL0     C62644   7.342   5.773   1.002  0.4215  0.2137  0.1191
  465MOL0     C62645   7.335   5.702   1.121 -0.5765  0.2961  0.5067
  465MOL0     C62646   7.233   5.720   1.216  0.5424  0.4858  0.5204
  465MOL0     C62647   7.157   5.833   1.207 -0.3010  0.2651 -0.0203
  465MOL0     O62648   7.072   5.870   1.308 -1.0233 -0.1608  0.7370
  465MOL0     C62649   7.112   5.990   1.383  0.2599 -0.4556 -0.0830
  465MOL0     C62650   7.016   5.988   1.514 -0.3422  0.5118  0.1258
  465MOL0     C62651   6.869   6.005   1.470 -0.9271 -0.1879  0.2724
  465MOL0     C62652   6.777   6.028   1.599 -0.6655 -0.2087  0.7589
  465MOL0     C62653   6.628   6.009   1.545  0.7613  0.9228 -1.2135
  465MOL0     C62654   6.531   6.058   1.644 -0.1692  1.2646  0.6691
  465MOL0     C62655   6.503   5.956   1.754  0.5681 -1.0721  0.5932
  465MOL0     C62656   6.387   5.995   1.846 -0.1659 -0.8269  0.2102
  465MOL0     N62657   6.361   5.886   1.936 -0.6371  0.5784  0.4635
  465MOL0     C62658   6.267   5.792   1.930 -0.1566  0.3223  1.2285
  465MOL0     C62659   6.293   5.720   2.046  0.6003 -0.8690 -1.1045
  465MOL0     C62660   6.213   5.604   2.075  0.1197 -0.8139 -0.1543
  465MOL0     C62661   6.268   5.464   2.048  0.8705 -0.0451 -0.3218
  465MOL0     C62662   6.355   5.399   2.161 -0.5118  0.4482  0.5328
  465MOL0     C62663   6.325   5.249   2.197  0.0376  0.4262  0.0751
  465MOL0     O62664   6.389   5.225   2.321  1.1892 -0.4733  0.0240
  465MOL0     C62665   6.414   5.090   2.351 -0.2639  0.6846 -1.0053
  465MOL0     C62666   6.473   5.058   2.476  0.0858 -1.5185  0.0854
  465MOL0     C62667   6.509   4.930   2.509  0.6889  0.5596 -0.0995
  465MOL0     C62668   6.572   4.918   2.645 -0.2250  0.5994 -0.4579
  465MOL0     C62669   6.472   4.818   2.423 -0.4702  0.2491  0.6101
  465MOL0     C62670   6.515   4.678   2.453  1.1213 -1.5000  0.2694
  465MOL0     O62671   6.518   4.650   2.581 -0.5571 -0.2146  0.5227
  465MOL0     C62672   6.558   4.524   2.620 -0.1070 -0.1412  0.5787
  465MOL0     C62673   6.504   4.408   2.572  0.8548  0.6419 -0.4063
  465MOL0     C62674   6.533   4.291   2.631  0.6155 -0.0630  0.4322
  465MOL0     C62675   6.638   4.285   2.727  0.3907 -0.3955 -0.4657
  465MOL0     O62676   6.683   4.174   2.775 -0.7868 -0.2985 -0.0876
  465MOL0     C62677   6.702   4.061   2.687 -0.1692  0.3901  0.0185
  465MOL0     C62678   6.795   3.950   2.743  0.1214 -0.1072 -1.1206
  465MOL0     C62679   6.940   3.991   2.707 -0.1015 -0.8034 -0.7870
  465MOL0     C62680   7.038   3.893   2.772 -0.1318  1.3134 -0.0207
  465MOL0     C62681   7.036   3.759   2.699  1.2368 -0.4455  0.6147
  465MOL0     C62682   7.141   3.652   2.737 -0.8677 -0.2544  0.2628
  465MOL0     C62683   7.148   3.614   2.884  0.2911  0.6448  0.4083
  465MOL0     C62684   7.012   3.580   2.934 -0.2996 -0.6365  0.6715
  465MOL0    Cl62685   6.953   3.414   2.904 -0.3267  0.4919 -0.0026
  465MOL0     C62686   6.696   4.405   2.767  0.7473 -1.2751 -0.3867
  465MOL0     C62687   6.651   4.524   2.720  0.7599 -0.3806 -0.4028
  465MOL0     O62688   6.524   4.601   2.365 -0.0809 -0.0544 -0.0054
  465MOL0     C62689   6.409   4.850   2.304 -0.8506 -0.0467 -0.2310
  465MOL0     C62690   6.379   4.983   2.265  0.9890 -0.1282  0.4513
  465MOL0     N62691   6.388   5.778   2.129  0.1513  0.4913  0.6063
  465MOL0     N62692   6.427   5.880   2.060  0.1081 -0.1182 -0.1430
  465MOL0     C62693   7.170   5.914   1.090  0.4919  0.8565 -0.0583
  465MOL0     C62694   7.255   5.883   0.983 -0.6865  0.7179 -0.1188
  465MOL0     C62695   7.539   5.600   0.744 -0.5824 -0.5553  0.1226
  465MOL0     C62696   7.670   5.652   0.768 -0.5578 -0.7753  0.1338
  465MOL0     C62697   7.773   5.623   0.684 -0.4471 -0.0507  0.2306
  465MOL0     C62698   7.759   5.535   0.579 -0.0424 -0.0327 -0.4236
  465MOL0     O62699   7.864   5.520   0.490  0.6109 -0.4564 -0.3549
  465MOL0     C62700   7.865   5.390   0.430 -0.3116 -0.0678  0.5130
  465MOL0     C62701   8.010   5.359   0.361  0.4951 -0.1662 -0.6237
  465MOL0     C62702   8.071   5.475   0.272 -0.0815 -0.9931 -0.7657
  465MOL0     C62703   8.168   5.556   0.368  0.4379 -0.0447 -0.3548
  465MOL0     C62704   8.308   5.507   0.373  0.7881  0.1189  0.7568
  465MOL0     C62705   8.419   5.459   0.362  0.2551  0.4773  0.1784
  465MOL0     C62706   7.635   5.480   0.562 -0.0547 -0.1831 -0.0879
  465MOL0     C62707   7.526   5.508   0.638  0.1755 -0.5666  0.3928
  465MOL0     H62708   7.403   5.618   1.120  1.0664  1.5015  1.9296
  465MOL0     H62709   7.223   5.637   1.286  0.7342 -2.2842 -2.5036
  465MOL0     H62710   7.219   6.004   1.401  0.4201  0.9272 -1.8407
  465MOL0     H62711   7.076   6.080   1.332 -0.8100 -1.3753 -1.0341
  465MOL0     H62712   7.033   5.892   1.563 -0.8386 -0.2570 -1.1691
  465MOL0     H62713   7.052   6.069   1.578 -0.8919  0.3206  0.6870
  465MOL0     H62714   6.846   6.090   1.404 -2.2038  0.3121  1.3278
  465MOL0     H62715   6.854   5.911   1.416  2.1235 -0.0349 -1.0495
  465MOL0     H62716   6.800   5.946   1.668  0.9470 -0.9093 -0.5611
  465MOL0     H62717   6.796   6.129   1.637  1.3586  0.1089 -0.9595
  465MOL0     H62718   6.608   6.051   1.447 -0.2207  0.5284 -1.1922
  465MOL0     H62719   6.628   5.900   1.531 -1.6742  0.6902  0.0716
  465MOL0     H62720   6.558   6.150   1.697 -0.5313  0.8190  1.6677
  465MOL0     H62721   6.433   6.073   1.600 -0.4265 -0.6245  0.5233
  465MOL0     H62722   6.484   5.860   1.704  0.6429 -0.5099 -0.5508
  465MOL0     H62723   6.591   5.926   1.811  0.6383 -0.5364  0.7680
  465MOL0     H62724   6.301   6.021   1.784  1.6937  0.6182 -1.9213
  465MOL0     H62725   6.419   6.087   1.896  5.2426 -2.9077  1.3130
  465MOL0     H62726   6.201   5.770   1.847 -0.4259  5.3442 -0.2054
  465MOL0     H62727   6.178   5.597   2.179 -1.7606  0.6618 -0.6323
  465MOL0     H62728   6.118   5.617   2.023 -0.4337 -0.9858  0.7783
  465MOL0     H62729   6.311   5.465   1.948  0.9926  1.2733 -0.2689
  465MOL0     H62730   6.182   5.399   2.027  1.3362 -0.4741 -0.9411
  465MOL0     H62731   6.341   5.463   2.250 -3.8104 -0.0722  0.5318
  465MOL0     H62732   6.460   5.400   2.134 -0.5810 -2.6922 -0.1407
  465MOL0     H62733   6.369   5.190   2.116 -0.5087 -1.5732  1.1900
  465MOL0     H62734   6.219   5.223   2.205  0.1906 -0.6283 -1.0468
  465MOL0     H62735   6.506   5.139   2.542  1.0089 -1.6272 -0.2216
  465MOL0     H62736   6.594   5.019   2.681 -1.1266  0.6128  0.0655
  465MOL0     H62737   6.506   4.874   2.720  0.9964  1.7436  1.3775
  465MOL0     H62738   6.657   4.849   2.641  0.5182  1.4333  0.4830
  465MOL0     H62739   6.418   4.402   2.506  0.8868 -0.6818 -0.3469
  465MOL0     H62740   6.495   4.196   2.596  1.7530 -0.5442  0.4444
  465MOL0     H62741   6.601   4.024   2.667 -0.9127  2.8591 -1.2436
  465MOL0     H62742   6.738   4.115   2.598 -4.4676  5.2616  0.7731
  465MOL0     H62743   6.783   3.935   2.851  1.6491 -1.7726 -1.1393
  465MOL0     H62744   6.762   3.854   2.702  0.4806 -1.4315  1.4477
  465MOL0     H62745   6.965   4.091   2.745  2.4582 -1.4925 -0.4794
  465MOL0     H62746   6.948   3.982   2.598  0.2186  4.0388 -1.4012
  465MOL0     H62747   7.137   3.940   2.778 -0.5098  2.0598  0.4198
  465MOL0     H62748   7.001   3.884   2.874 -3.5280  0.8158 -1.1787
  465MOL0     H62749   7.042   3.780   2.592 -1.5417 -2.7229 -0.1236
  465MOL0     H62750   6.937   3.715   2.714  0.9829  0.1840  0.8485
  465MOL0     H62751   7.120   3.557   2.685  0.3399 -1.3158  1.6171
  465MOL0     H62752   7.231   3.699   2.697 -0.0953 -2.5179 -0.8530
  465MOL0     H62753   7.191   3.698   2.940  0.8873 -1.8645  4.1675
  465MOL0     H62754   7.220   3.531   2.896  1.3162  1.5112  0.3985
  465MOL0     H62755   6.937   3.654   2.904  0.8168 -0.3349 -1.5696
  465MOL0     H62756   7.017   3.600   3.042  0.8337  0.5209  0.4339
  465MOL0     H62757   6.767   4.399   2.849  0.3858  2.7244  0.4303
  465MOL0     H62758   6.686   4.620   2.756  0.5129 -2.2582  6.1534
  465MOL0     H62759   6.382   4.763   2.245 -1.0120  2.3067 -3.8931
  465MOL0     H62760   6.326   4.988   2.170  2.2733 -4.1798 -0.6704
  465MOL0     H62761   7.112   6.004   1.074  1.0129  1.5649  1.7395
  465MOL0     H62762   7.262   5.936   0.889 -3.9744  1.0451 -0.2995
  465MOL0     H62763   7.686   5.718   0.852 -3.3707  0.2376 -0.0376
  465MOL0     H62764   7.876   5.653   0.697 -0.2736  0.5102 -2.0121
  465MOL0     H62765   7.845   5.318   0.510  0.4679 -0.6679  0.1779
  465MOL0     H62766   7.791   5.394   0.350  0.7730  0.1518 -0.5216
  465MOL0     H62767   7.994   5.279   0.288  0.8410 -0.0766 -0.8012
  465MOL0     H62768   8.076   5.311   0.434 -0.1248 -0.8465 -0.4948
  465MOL0     H62769   7.998   5.538   0.220  0.8149 -0.5147 -1.4718
  465MOL0     H62770   8.147   5.429   0.208  1.3208 -0.1646  0.2293
  465MOL0     H62771   8.140   5.561   0.474  1.9567  2.7657  0.0038
  465MOL0     H62772   8.160   5.662   0.343 -1.3074  0.4780  2.0455
  465MOL0     H62773   8.515   5.412   0.358  0.1644  0.3912 -1.4329
  465MOL0     H62774   7.610   5.407   0.485  0.1043  0.0628 -0.3788
  465MOL0     H62775   7.431   5.461   0.613  1.1357 -2.4778  0.1167
  466MOL0     O62776   4.868   2.193   7.415 -0.4200  0.7926  0.5658
  466MOL0     C62777   4.931   2.213   7.520  0.3268 -0.0351  0.9308
  466MOL0     O62778   5.049   2.148   7.549  0.8774  0.8667 -0.7785
  466MOL0     C62779   5.090   2.037   7.478  0.5118 -0.2102 -0.0652
  466MOL0     C62780   5.145   2.046   7.351 -0.9891 -0.5899 -0.2963
  466MOL0     C62781   5.197   1.933   7.280 -0.0379 -0.8494  0.7435
  466MOL0     C62782   5.163   1.802   7.329 -0.2298 -0.1393  0.0516
  466MOL0     O62783   5.175   1.679   7.263 -0.2780  0.3515 -0.1316
  466MOL0     C62784   5.233   1.677   7.142  0.8517 -0.1020  0.3133
  466MOL0     C62785   5.135   1.718   7.034  0.6072  0.3390 -0.1453
  466MOL0     C62786   5.183   1.678   6.894  0.4636 -0.0179  0.4461
  466MOL0     C62787   5.321   1.734   6.857  0.1948  0.1569  0.4625
  466MOL0     C62788   5.330   1.744   6.702 -0.0957  0.2592 -0.4080
  466MOL0     C62789   5.466   1.812   6.668  1.0612 -0.2903  0.1406
  466MOL0     C62790   5.467   1.824   6.512  0.1581 -0.6507  0.3575
  466MOL0     C62791   5.616   1.851   6.462  1.1567 -1.1334 -0.0089
  466MOL0     N62792   5.708   1.742   6.505  0.5345  0.4363 -0.2914
  466MOL0     C62793   5.823   1.776   6.570 -0.9784 -0.5026  0.0207
  466MOL0     C62794   5.865   1.663   6.633  0.5773 -0.8263  1.1726
  466MOL0     C62795   6.007   1.642   6.693  0.4815  0.7991  0.1537
  466MOL0     C62796   6.022   1.677   6.851  0.6412  0.0466  0.7846
  466MOL0     C62797   5.982   1.829   6.870 -0.0999  0.0382 -0.9852
  466MOL0     C62798   5.972   1.865   7.019 -0.5142  0.1509  0.4944
  466MOL0     O62799   5.940   2.000   7.042 -0.5504 -0.0971  0.0042
  466MOL0     C62800   5.823   2.040   6.991  0.3896 -0.4499  0.1939
  466MOL0     C62801   5.793   2.106   6.866  0.3312  1.3346 -0.5216
  466MOL0     C62802   5.661   2.131   6.829 -0.4428  0.4982 -0.1682
  466MOL0     C62803   5.641   2.178   6.686 -0.5888 -0.7894  0.2198
  466MOL0     C62804   5.557   2.103   6.916 -0.4575 -0.1933  0.5342
  466MOL0     C62805   5.415   2.135   6.875 -0.9203 -0.3879 -0.6167
  466MOL0     O62806   5.320   2.082   6.948  0.3072  0.2793 -0.2862
  466MOL0     C62807   5.191   2.121   6.927  0.3323  0.1515 -0.7357
  466MOL0     C62808   5.105   2.047   6.836  1.0472  0.1867 -0.9574
  466MOL0     C62809   4.971   2.084   6.820 -0.2022  0.8827  0.1388
  466MOL0     C62810   4.916   2.174   6.912 -0.2188 -0.1624  0.2211
  466MOL0     O62811   4.787   2.200   6.917  0.2130 -1.8219 -0.0260
  466MOL0     C62812   4.734   2.259   6.793  0.3332  0.5261  0.0992
  466MOL0     C62813   4.583   2.272   6.825 -1.2910  0.0056 -0.0485
  466MOL0     C62814   4.510   2.361   6.722  0.8908  0.2241 -0.0975
  466MOL0     C62815   4.368   2.386   6.772  0.5179 -0.8412 -0.4239
  466MOL0     C62816   4.286   2.482   6.679 -0.2908 -0.0584  0.5322
  466MOL0     C62817   4.143   2.485   6.721  0.5258  0.2282  0.0939
  466MOL0     C62818   4.137   2.572   6.851 -0.0546 -0.9889  0.1960
  466MOL0     C62819   3.996   2.564   6.916 -0.0529  0.2388 -0.1675
  466MOL0    Cl62820   3.879   2.639   6.811  0.0675 -0.0287  0.0482
  466MOL0     C62821   4.996   2.221   7.018  0.5010  0.9016  0.7152
  466MOL0     C62822   5.134   2.208   7.017 -0.0815 -0.5395 -0.2568
  466MOL0     O62823   5.397   2.229   6.801 -0.7436  0.4177 -0.0137
  466MOL0     C62824   5.581   2.037   7.025 -0.0863  0.3601  0.0279
  466MOL0     C62825   5.710   2.008   7.074 -0.0925  0.3521 -0.1263
  466MOL0     N62826   5.774   1.558   6.605  0.4134  1.0121  0.3269
  466MOL0     N62827   5.681   1.614   6.540  0.6212  0.1660 -0.7506
  466MOL0     C62828   5.107   1.798   7.459 -0.0770  0.7234  1.2774
  466MOL0     C62829   5.074   1.910   7.527  0.2915 -0.4258 -0.9305
  466MOL0     C62830   4.881   2.329   7.605 -0.0822 -1.2482  0.2051
  466MOL0     C62831   4.757   2.395   7.589  0.3320  0.1959  1.2258
  466MOL0     C62832   4.710   2.507   7.661 -0.3333  0.2692 -0.7181
  466MOL0     C62833   4.784   2.556   7.763  0.4266 -0.9058  0.9211
  466MOL0     O62834   4.750   2.664   7.835 -0.2741  0.2210 -0.6691
  466MOL0     C62835   4.610   2.693   7.845 -0.9494 -0.4861  1.1488
  466MOL0     C62836   4.531   2.595   7.936 -0.7587  1.1515  0.1266
  466MOL0     C62837   4.382   2.643   7.949  0.3916  0.4644 -0.6590
  466MOL0     C62838   4.303   2.528   8.012 -0.1386 -0.4783 -0.4072
  466MOL0     C62839   4.217   2.590   8.110 -0.1849 -0.7923  0.7379
  466MOL0     C62840   4.130   2.637   8.180 -0.5942  0.1787 -0.3122
  466MOL0     C62841   4.904   2.494   7.785 -0.1767  0.0961 -0.5386
  466MOL0     C62842   4.954   2.385   7.711  0.5874  0.2732  0.5588
  466MOL0     H62843   5.150   2.143   7.304 -1.4773 -0.1534  0.5375
  466MOL0     H62844   5.233   1.946   7.178 -3.8584 -0.0562 -0.6791
  466MOL0     H62845   5.329   1.729   7.137  0.2803  1.2947  2.4278
  466MOL0     H62846   5.247   1.570   7.125 -0.3217 -0.4268  1.2838
  466MOL0     H62847   5.034   1.677   7.046 -1.0941  4.1517  0.0673
  466MOL0     H62848   5.119   1.826   7.039 -2.1028  0.1673 -2.4236
  466MOL0     H62849   5.194   1.570   6.883  1.1499  0.0096  0.7721
  466MOL0     H62850   5.115   1.722   6.821  0.3352 -0.6779  0.1678
  466MOL0     H62851   5.342   1.829   6.908  2.7666 -1.5175  2.8881
  466MOL0     H62852   5.401   1.668   6.893  0.3308 -0.2963 -0.6407
  466MOL0     H62853   5.326   1.645   6.657 -2.7229  0.0264  0.1841
  466MOL0     H62854   5.247   1.800   6.657 -1.6567 -2.1538 -0.7190
  466MOL0     H62855   5.481   1.916   6.701  0.3661 -0.0935 -0.1404
  466MOL0     H62856   5.544   1.752   6.715  1.3297  0.8551  1.2300
  466MOL0     H62857   5.421   1.735   6.469  0.6112 -0.3678 -0.7254
  466MOL0     H62858   5.413   1.919   6.500  1.1429 -0.1612 -0.2776
  466MOL0     H62859   5.664   1.939   6.506 -1.2354  0.1502  0.2068
  466MOL0     H62860   5.606   1.858   6.353 -1.1906  1.0889  0.2450
  466MOL0     H62861   5.860   1.877   6.579 -1.9988 -0.1779  0.6537
  466MOL0     H62862   6.028   1.535   6.697  2.7596  1.1104 -1.3690
  466MOL0     H62863   6.083   1.680   6.624  0.1586 -0.1654 -0.7665
  466MOL0     H62864   6.126   1.658   6.877  0.6788 -2.4129 -0.8415
  466MOL0     H62865   5.950   1.612   6.901 -0.4893  1.2275  0.7374
  466MOL0     H62866   5.887   1.847   6.820  1.0945  0.1668 -3.3616
  466MOL0     H62867   6.065   1.890   6.834 -0.4188  0.8816 -0.3082
  466MOL0     H62868   6.068   1.831   7.060 -0.0088  1.3647  0.3517
  466MOL0     H62869   5.894   1.808   7.070  1.2207 -0.2684  2.8185
  466MOL0     H62870   5.881   2.120   6.804  0.2962 -1.3320 -1.2850
  466MOL0     H62871   5.564   2.115   6.640  0.6717 -0.4437 -2.5738
  466MOL0     H62872   5.610   2.282   6.671 -1.0632 -0.9167  0.3058
  466MOL0     H62873   5.728   2.162   6.621 -1.1415  3.5989 -1.9951
  466MOL0     H62874   5.144   1.975   6.765 -1.3360 -0.4602 -1.7092
  466MOL0     H62875   4.901   2.033   6.755  0.6798  1.8253 -1.6459
  466MOL0     H62876   4.764   2.364   6.787 -2.3883  1.2955 -2.2934
  466MOL0     H62877   4.748   2.205   6.699  3.9947  1.7383 -0.1992
  466MOL0     H62878   4.529   2.177   6.830 -1.4925  0.0650 -0.8938
  466MOL0     H62879   4.576   2.328   6.919  2.6250  0.0007  0.4092
  466MOL0     H62880   4.523   2.312   6.625  1.6842  0.0556  0.0874
  466MOL0     H62881   4.566   2.454   6.711  0.3428  0.3983 -1.7125
  466MOL0     H62882   4.316   2.291   6.785  1.7593 -1.5404 -0.4345
  466MOL0     H62883   4.382   2.425   6.873 -0.0010  0.4754 -0.8383
  466MOL0     H62884   4.296   2.435   6.581 -0.0970 -0.1335  0.5882
  466MOL0     H62885   4.324   2.585   6.670 -2.2965  0.5821 -2.3560
  466MOL0     H62886   4.079   2.525   6.642 -0.5295  1.4570  1.5027
  466MOL0     H62887   4.113   2.384   6.752 -0.2516  0.9962  1.9960
  466MOL0     H62888   4.160   2.676   6.826 -1.0259 -1.1579 -1.5627
  466MOL0     H62889   4.193   2.536   6.937 -1.0082 -0.7860  0.9243
  466MOL0     H62890   4.001   2.617   7.011  1.5001 -0.9321  0.4435
  466MOL0     H62891   3.971   2.461   6.945 -0.4952  0.1702 -0.7809
  466MOL0     H62892   4.943   2.284   7.090 -1.1312  2.0544 -1.3841
  466MOL0     H62893   5.193   2.257   7.094 -2.7538 -0.7964  2.0917
  466MOL0     H62894   5.495   2.005   7.085  1.2509  0.9699  2.4141
  466MOL0     H62895   5.705   1.946   7.163 -0.4460  1.1348  0.4047
  466MOL0     H62896   5.070   1.705   7.501 -4.1148  1.3641 -0.3752
  466MOL0     H62897   5.029   1.900   7.625  0.8198  2.0350 -0.3499
  466MOL0     H62898   4.697   2.342   7.515  4.2199 -4.0725  0.6653
  466MOL0     H62899   4.615   2.553   7.640 -1.2432 -0.2434  1.8598
  466MOL0     H62900   4.601   2.792   7.891  0.7963  0.0728  0.3441
  466MOL0     H62901   4.555   2.708   7.752 -1.0698  0.9818  1.4257
  466MOL0     H62902   4.584   2.605   8.031  0.8722  1.0992 -0.7571
  466MOL0     H62903   4.539   2.490   7.906 -1.1187  0.9363  0.7598
  466MOL0     H62904   4.349   2.676   7.850  2.2337  1.2669 -1.0455
  466MOL0     H62905   4.377   2.728   8.018  0.4953 -1.0436  1.2979
  466MOL0     H62906   4.368   2.454   8.059  0.4218  1.7873  2.7086
  466MOL0     H62907   4.236   2.477   7.943 -2.6922  0.4309  1.2656
  466MOL0     H62908   4.039   2.681   8.216  0.0945  0.7909  0.7257
  466MOL0     H62909   4.956   2.546   7.865  2.0194  0.3920 -2.0726
  466MOL0     H62910   5.045   2.331   7.733 -0.4112 -1.6002  0.2525
  467MOL0     O62911   5.599   7.383   0.796 -0.0258 -0.2565  0.9100
  467MOL0     C62912   5.658   7.415   0.692  0.6254  0.6787  0.2193
  467MOL0     O62913   5.668   7.337   0.583  0.2754  0.1287  0.3806
  467MOL0     C62914   5.600   7.216   0.585  0.5180 -0.6706  0.9739
  467MOL0     C62915   5.470   7.209   0.532  0.1082  0.5112  0.2088
  467MOL0     C62916   5.407   7.079   0.514  0.5364  0.0218  0.3988
  467MOL0     C62917   5.471   6.965   0.558  0.0796  0.0820 -0.0850
  467MOL0     O62918   5.410   6.845   0.516 -0.9982 -0.6352 -0.2240
  467MOL0     C62919   5.491   6.745   0.461  0.4573 -0.1271  0.0281
  467MOL0     C62920   5.512   6.759   0.314 -0.1325 -0.7450  0.5771
  467MOL0     C62921   5.617   6.863   0.261 -0.0985  0.4122  0.3408
  467MOL0     C62922   5.579   6.913   0.116 -0.2958  0.7933 -0.0336
  467MOL0     C62923   5.618   7.050   0.092  0.4129  0.3423 -1.4301
  467MOL0     C62924   5.532   7.147   0.167 -1.6095 -1.3161 -0.4448
  467MOL0     C62925   5.566   7.296   0.151 -0.0148 -0.2529 -1.0375
  467MOL0     C62926   5.700   7.334   0.219  0.7208 -0.5548 -0.1450
  467MOL0     N62927   5.750   7.465   0.181 -0.6184  0.4930 -0.2300
  467MOL0     C62928   5.675   7.582   0.162  0.1443  0.4308 -0.0500
  467MOL0     C62929   5.764   7.681   0.185  0.1473  0.5747  0.4000
  467MOL0     C62930   5.743   7.828   0.165  1.2554  0.7500  0.0544
  467MOL0     C62931   5.775   7.871   0.017 -0.6541 -0.3349  0.2341
  467MOL0     C62932   5.927   7.883  -0.012 -0.7143  0.4933 -0.1149
  467MOL0     C62933   6.009   7.966   0.087  0.4819 -0.5132 -0.2188
  467MOL0     O62934   6.157   7.949   0.084  0.3370  0.5976 -0.4234
  467MOL0     C62935   6.232   8.000   0.183 -0.7169  0.8530  0.4830
  467MOL0     C62936   6.196   8.047   0.309  0.6045  0.0821  1.3448
  467MOL0     C62937   6.285   8.096   0.396 -0.5652 -0.5555 -0.4554
  467MOL0     C62938   6.239   8.111   0.546  0.2221 -0.6437 -0.3731
  467MOL0     C62939   6.422   8.114   0.356  0.1627 -0.2217 -0.1178
  467MOL0     C62940   6.531   8.182   0.442  0.4110 -0.5706 -0.1263
  467MOL0     O62941   6.658   8.175   0.401 -0.5089  0.1260 -1.0282
  467MOL0     C62942   6.757   8.238   0.476  0.3783  0.1773 -0.2267
  467MOL0     C62943   6.871   8.163   0.509 -1.1921  0.2870 -0.4313
  467MOL0     C62944   6.979   8.232   0.563  0.7781 -0.5502 -0.5157
  467MOL0     C62945   6.973   8.370   0.592 -0.3792 -0.1071 -0.3948
  467MOL0     O62946   7.089   8.421   0.647 -1.5083 -1.3182  0.6544
  467MOL0     C62947   7.121   8.551   0.599 -0.5168 -0.5803  0.8608
  467MOL0     C62948   7.261   8.589   0.663  0.5613 -0.4116 -0.8852
  467MOL0     C62949   7.337   8.697   0.570  0.1343 -0.4144  0.5627
  467MOL0     C62950   7.490   8.696   0.584 -0.1414 -0.1155 -0.3394
  467MOL0     C62951   7.565   8.789   0.495 -0.1107  0.6232 -0.6472
  467MOL0     C62952   7.560   8.936   0.552 -0.2764 -0.6178 -0.9859
  467MOL0     C62953   7.634   8.961   0.686 -0.3103  0.1165  0.7572
  467MOL0     C62954   7.738   9.076   0.662  0.1266 -0.9234  0.0437
  467MOL0    Cl62955   7.657   9.235   0.619 -0.1617  0.0832 -0.4116
  467MOL0     C62956   6.855   8.437   0.568 -0.1814  0.4860  0.5102
  467MOL0     C62957   6.752   8.370   0.510 -0.8196 -1.7189 -0.1909
  467MOL0     O62958   6.490   8.237   0.540 -0.0002  0.5357 -0.0158
  467MOL0     C62959   6.457   8.061   0.233 -1.3726 -0.2003 -0.3530
  467MOL0     C62960   6.366   8.007   0.145  0.5223  1.0573  0.4227
  467MOL0     N62961   5.884   7.618   0.229  0.0822 -0.1012  0.3112
  467MOL0     N62962   5.881   7.493   0.216  0.0814  0.1491  0.2278
  467MOL0     C62963   5.595   6.974   0.618 -0.3804  0.5044  0.2255
  467MOL0     C62964   5.658   7.097   0.628  0.7611  0.6376 -0.8620
  467MOL0     C62965   5.720   7.548   0.693 -0.1213 -0.0944  0.7767
  467MOL0     C62966   5.785   7.592   0.573  0.2091  0.2229 -0.0627
  467MOL0     C62967   5.837   7.719   0.571  0.5896  0.8933  0.2838
  467MOL0     C62968   5.822   7.805   0.678  0.6847 -1.5442 -0.4499
  467MOL0     O62969   5.902   7.919   0.684  0.0545 -0.1639  0.1466
  467MOL0     C62970   5.821   8.035   0.728  0.3092  0.4761  0.0278
  467MOL0     C62971   5.854   8.149   0.638  0.1067 -0.5886  0.0437
  467MOL0     C62972   5.769   8.129   0.510  0.2314 -0.6513  0.4388
  467MOL0     C62973   5.795   8.248   0.422 -0.6178 -0.7747  0.1521
  467MOL0     C62974   5.714   8.235   0.303 -0.6792  0.4737  0.1469
  467MOL0     C62975   5.676   8.187   0.199  0.0952  0.0986 -0.0360
  467MOL0     C62976   5.753   7.763   0.791  0.2547  0.3261  0.0136
  467MOL0     C62977   5.702   7.637   0.799 -0.3203  0.1288  0.5187
  467MOL0     H62978   5.426   7.304   0.502  1.5013 -0.1421 -4.8422
  467MOL0     H62979   5.318   7.072   0.452  1.5889  2.1071 -1.5047
  467MOL0     H62980   5.587   6.745   0.514  0.8964 -0.4761 -0.7607
  467MOL0     H62981   5.444   6.647   0.473  1.6046 -0.9492 -1.7561
  467MOL0     H62982   5.546   6.662   0.276  1.1230 -0.9651  2.1781
  467MOL0     H62983   5.413   6.782   0.273  0.5889 -0.8874 -1.3861
  467MOL0     H62984   5.606   6.943   0.334 -2.5589 -0.3895  0.9274
  467MOL0     H62985   5.717   6.817   0.263 -0.0951  0.3963 -0.0772
  467MOL0     H62986   5.623   6.849   0.039 -1.6756 -0.0773 -0.1350
  467MOL0     H62987   5.470   6.906   0.107 -0.1148 -1.0261 -1.2531
  467MOL0     H62988   5.721   7.062   0.128 -0.2524  1.3431  0.2700
  467MOL0     H62989   5.618   7.065  -0.016  3.4125 -3.3863 -2.1703
  467MOL0     H62990   5.430   7.123   0.135 -1.0095 -2.4914 -1.5666
  467MOL0     H62991   5.547   7.141   0.275  5.0325 -1.9832 -1.0208
  467MOL0     H62992   5.565   7.308   0.042 -0.8389 -2.7177 -1.3623
  467MOL0     H62993   5.480   7.355   0.183 -0.1256 -2.1714  2.7896
  467MOL0     H62994   5.777   7.257   0.209  0.6926 -1.1030  2.9083
  467MOL0     H62995   5.696   7.336   0.328  1.5375 -0.1873 -0.1166
  467MOL0     H62996   5.572   7.578   0.128  0.2831  3.8444 -1.2391
  467MOL0     H62997   5.635   7.845   0.177  0.9042  0.3853 -2.0812
  467MOL0     H62998   5.796   7.891   0.237  1.0807  0.2511  0.6265
  467MOL0     H62999   5.719   7.961  -0.007  0.1964 -0.6487 -3.5753
  467MOL0     H63000   5.737   7.798  -0.054  3.5056 -0.9399 -1.6839
  467MOL0     H63001   5.939   7.930  -0.109  1.7460 -3.9616 -2.2948
  467MOL0     H63002   5.963   7.779  -0.010 -0.3588  0.6153 -0.1339
  467MOL0     H63003   5.971   7.949   0.188  2.7637  0.5255  0.8887
  467MOL0     H63004   5.994   8.072   0.063 -0.4366  0.0713  2.5518
  467MOL0     H63005   6.091   8.050   0.337 -0.0965 -0.9278 -0.9152
  467MOL0     H63006   6.165   8.040   0.584 -0.5023  1.6390  2.9498
  467MOL0     H63007   6.319   8.106   0.621 -1.5513 -1.5611  1.5750
  467MOL0     H63008   6.208   8.216   0.552  2.4345 -0.0189  2.3193
  467MOL0     H63009   6.872   8.056   0.494  0.9020 -0.3552  3.1897
  467MOL0     H63010   7.060   8.168   0.598 -3.3294 -5.0392  2.0497
  467MOL0     H63011   7.117   8.560   0.490 -0.5196 -0.7182  0.8495
  467MOL0     H63012   7.053   8.627   0.640  0.4289  1.9869 -1.8974
  467MOL0     H63013   7.237   8.622   0.765  2.1080 -2.6848  0.3120
  467MOL0     H63014   7.327   8.502   0.670  1.3158  0.2796  1.7334
  467MOL0     H63015   7.301   8.795   0.600 -0.8724 -1.7635  4.2745
  467MOL0     H63016   7.315   8.681   0.464  2.3370 -0.5006  0.0569
  467MOL0     H63017   7.513   8.728   0.686 -0.5407  4.2201 -1.4296
  467MOL0     H63018   7.518   8.593   0.561 -0.7896  0.0149 -1.8294
  467MOL0     H63019   7.515   8.774   0.399 -0.0490 -1.3473 -0.4144
  467MOL0     H63020   7.671   8.764   0.484  0.0133  1.8178 -2.7974
  467MOL0     H63021   7.601   9.000   0.474 -4.5318  2.3639 -1.1015
  467MOL0     H63022   7.456   8.969   0.562  0.0068  0.0181 -0.0602
  467MOL0     H63023   7.676   8.873   0.736 -0.0143  0.9174  1.9719
  467MOL0     H63024   7.569   8.993   0.769 -2.1165 -1.2903 -0.0492
  467MOL0     H63025   7.802   9.042   0.581 -1.1394 -1.3416 -0.8217
  467MOL0     H63026   7.795   9.102   0.752 -0.6393  0.2461  0.2155
  467MOL0     H63027   6.838   8.540   0.594  2.1761  0.9239  0.4950
  467MOL0     H63028   6.665   8.435   0.501 -1.3991 -2.3406  0.6822
  467MOL0     H63029   6.558   8.067   0.196 -2.0606 -0.4968 -2.3782
  467MOL0     H63030   6.397   7.959   0.053  4.5962  1.7226  1.2262
  467MOL0     H63031   5.645   6.885   0.656 -0.2803  0.8671  0.9657
  467MOL0     H63032   5.757   7.119   0.665  0.6038  3.8616 -2.1047
  467MOL0     H63033   5.800   7.541   0.479 -1.6275 -0.1836 -0.1787
  467MOL0     H63034   5.883   7.763   0.483  1.7729 -0.9594 -0.0863
  467MOL0     H63035   5.716   8.015   0.751  0.5785 -0.4059  0.5372
  467MOL0     H63036   5.861   8.072   0.823  3.4630 -2.2607 -0.0264
  467MOL0     H63037   5.961   8.150   0.613  0.0008 -1.9702 -0.5461
  467MOL0     H63038   5.818   8.245   0.675 -0.0823 -0.0267 -1.5151
  467MOL0     H63039   5.663   8.119   0.534 -0.3540  0.9681 -1.2453
  467MOL0     H63040   5.790   8.039   0.450 -0.0025 -0.9202  0.7581
  467MOL0     H63041   5.904   8.249   0.410 -0.3472  3.3591  1.2239
  467MOL0     H63042   5.763   8.342   0.468  2.7667  1.3918 -1.4450
  467MOL0     H63043   5.632   8.136   0.116 -0.2590 -1.9998  1.3702
  467MOL0     H63044   5.745   7.823   0.881 -0.3849  0.0060  0.1743
  467MOL0     H63045   5.662   7.599   0.892  0.1449 -1.9154 -0.0691
  468MOL0     O63046   2.516  10.231   3.688 -0.5097  0.0178 -0.6004
  468MOL0     C63047   2.589  10.253   3.791  0.2761  0.2514 -0.8455
  468MOL0     O63048   2.629  10.158   3.879 -0.4843 -0.2092  0.2150
  468MOL0     C63049   2.564  10.035   3.855  0.9329 -0.1906  0.3534
  468MOL0     C63050   2.487   9.977   3.952  1.6066  0.8372  0.5887
  468MOL0     C63051   2.419   9.855   3.923 -0.4283  0.8328  0.5537
  468MOL0     C63052   2.434   9.776   3.802 -0.5656  0.8960  0.2144
  468MOL0     O63053   2.397   9.647   3.777  0.9481  0.9052  0.3342
  468MOL0     C63054   2.293   9.590   3.860 -0.1583  0.2214 -0.2071
  468MOL0     C63055   2.254   9.458   3.788  0.6547  0.4512 -0.5726
  468MOL0     C63056   2.359   9.349   3.800 -0.5507 -0.4653  0.0203
  468MOL0     C63057   2.285   9.215   3.843 -0.1662 -0.6635  0.1248
  468MOL0     C63058   2.379   9.097   3.842 -0.3319  0.8445 -0.6238
  468MOL0     C63059   2.307   8.966   3.846 -0.6832  0.1199 -0.3111
  468MOL0     C63060   2.268   8.935   3.992 -0.6944  0.2430  0.0498
  468MOL0     C63061   2.185   8.805   3.974 -0.0906 -0.2892  0.8629
  468MOL0     N63062   2.117   8.772   4.093  0.6530 -0.0852  0.3374
  468MOL0     C63063   1.994   8.814   4.138 -0.1619  0.6410 -0.6001
  468MOL0     C63064   1.980   8.746   4.252 -0.3671 -0.5989 -0.2012
  468MOL0     C63065   1.865   8.738   4.349 -0.3411  0.8461  0.5649
  468MOL0     C63066   1.735   8.784   4.292 -0.4421 -0.9188 -0.9385
  468MOL0     C63067   1.621   8.779   4.396 -0.9599  1.0392 -0.4088
  468MOL0     C63068   1.501   8.691   4.357 -0.4985 -0.5150  0.4138
  468MOL0     O63069   1.518   8.550   4.353 -0.2537  0.6472  0.3810
  468MOL0     C63070   1.416   8.461   4.326  0.1133 -0.2053  0.0240
  468MOL0     C63071   1.277   8.495   4.314 -0.3852 -0.4929  0.8477
  468MOL0     C63072   1.187   8.396   4.275  0.4554 -0.3460  0.0746
  468MOL0     C63073   1.031   8.440   4.274  0.0371 -0.0028  0.8485
  468MOL0     C63074   1.226   8.259   4.268  0.4268 -0.3729  0.9255
  468MOL0     C63075   1.138   8.154   4.239  0.9413 -0.1741 -0.7822
  468MOL0     O63076   1.164   8.037   4.301  0.1421  0.1897  0.4793
  468MOL0     C63077   1.066   7.938   4.287 -0.4787  0.4191  0.5255
  468MOL0     C63078   1.111   7.810   4.246 -0.2420 -0.2446 -0.1861
  468MOL0     C63079   1.027   7.707   4.242 -0.1128 -0.7640 -0.8371
  468MOL0     C63080   0.899   7.714   4.284  0.1568 -0.7829  1.3238
  468MOL0     O63081   0.807   7.615   4.269 -0.1843  0.3976 -0.1708
  468MOL0     C63082   0.851   7.479   4.249 -0.3890 -0.3982  0.3812
  468MOL0     C63083   0.748   7.375   4.288 -0.5935 -1.0659  0.5583
  468MOL0     C63084   0.812   7.234   4.296  0.2562  0.0299  0.2024
  468MOL0     C63085   0.707   7.122   4.333 -0.4584  0.3002 -0.8413
  468MOL0     C63086   0.670   7.124   4.484  0.0607  0.2933 -0.5675
  468MOL0     C63087   0.566   7.011   4.511 -0.4286 -0.4845  0.2127
  468MOL0     C63088   0.617   6.874   4.482  0.2478 -0.6681  0.3908
  468MOL0     C63089   0.502   6.769   4.484  0.8012 -0.3417  0.6928
  468MOL0    Cl63090   0.593   6.618   4.451  0.2175  0.3173  0.1287
  468MOL0     C63091   0.852   7.841   4.334 -0.4320  1.8193  0.5520
  468MOL0     C63092   0.938   7.950   4.328 -0.9175 -0.7090 -0.5900
  468MOL0     O63093   1.052   8.167   4.155 -0.2458 -0.6001  0.4008
  468MOL0     C63094   1.359   8.240   4.281  0.1818  1.1501 -0.7387
  468MOL0     C63095   1.455   8.332   4.307 -0.6742  0.1056  0.0099
  468MOL0     N63096   2.085   8.661   4.274  0.2132 -0.2130 -0.6001
  468MOL0     N63097   2.160   8.675   4.175 -0.8822  1.0401  0.1913
  468MOL0     C63098   2.521   9.832   3.710 -0.0790  0.2336  0.1843
  468MOL0     C63099   2.579   9.960   3.729  0.6241  0.3328 -0.2845
  468MOL0     C63100   2.658  10.378   3.820  0.4420 -0.5891 -0.8864
  468MOL0     C63101   2.755  10.392   3.927 -0.4370  0.3682  0.4940
  468MOL0     C63102   2.819  10.519   3.956  0.3003  0.8311 -0.6031
  468MOL0     C63103   2.787  10.630   3.878 -0.9415  0.4165  0.0338
  468MOL0     O63104   2.851  10.749   3.883 -0.5384 -0.0700  0.2127
  468MOL0     C63105   2.974  10.767   3.952 -0.0195 -0.0302  0.4988
  468MOL0     C63106   3.089  10.706   3.872  0.1374  0.1603  0.1475
  468MOL0     C63107   3.226  10.749   3.935  0.4653  0.9316  0.5036
  468MOL0     C63108   3.343  10.676   3.859 -0.4253  0.5762 -0.3247
  468MOL0     C63109   3.319  10.528   3.851  0.0679  0.4311  0.4878
  468MOL0     C63110   3.292  10.402   3.844 -0.1001  0.3231 -0.4568
  468MOL0     C63111   2.693  10.614   3.781  0.5690  0.4864  0.0105
  468MOL0     C63112   2.629  10.491   3.753 -0.6000  0.3436 -0.5364
  468MOL0     H63113   2.469  10.016   4.051  0.9826 -0.8969  1.2073
  468MOL0     H63114   2.354   9.818   4.001 -2.1531  4.1683  0.8926
  468MOL0     H63115   2.327   9.577   3.963  1.2772  0.2467 -0.6548
  468MOL0     H63116   2.204   9.654   3.851 -2.5393 -2.5780  1.5911
  468MOL0     H63117   2.170   9.411   3.839  0.6775 -2.3072 -2.8233
  468MOL0     H63118   2.225   9.474   3.684 -1.3134  0.6511 -0.0195
  468MOL0     H63119   2.410   9.340   3.703 -1.1198  0.3193 -0.3572
  468MOL0     H63120   2.442   9.379   3.864  0.2979 -0.0434 -1.2451
  468MOL0     H63121   2.244   9.216   3.945 -1.3448  1.0442 -0.3355
  468MOL0     H63122   2.209   9.185   3.771 -1.4925  3.1463 -0.2782
  468MOL0     H63123   2.439   9.097   3.751 -1.1922 -0.9657 -1.2538
  468MOL0     H63124   2.447   9.098   3.928 -0.4860 -4.4171 -0.1275
  468MOL0     H63125   2.220   8.965   3.780 -2.2853  1.9727  1.6007
  468MOL0     H63126   2.382   8.892   3.816 -0.8526 -0.2539  0.1775
  468MOL0     H63127   2.357   8.919   4.052  0.0604  2.1831 -0.4692
  468MOL0     H63128   2.214   9.021   4.034 -1.5895  0.4245 -1.3938
  468MOL0     H63129   2.248   8.726   3.932  0.4469 -0.3107  1.6715
  468MOL0     H63130   2.106   8.830   3.903 -2.6040 -2.0321  2.8794
  468MOL0     H63131   1.924   8.886   4.099  1.0243  4.4532  3.4443
  468MOL0     H63132   1.850   8.634   4.378 -0.0270  0.0443 -1.9430
  468MOL0     H63133   1.890   8.786   4.444  0.1154  0.3223  0.7117
  468MOL0     H63134   1.709   8.719   4.209  3.9188 -2.3430 -1.4306
  468MOL0     H63135   1.737   8.890   4.263  3.8677 -1.1869 -2.2616
  468MOL0     H63136   1.573   8.877   4.413 -1.2677  0.5676  1.6889
  468MOL0     H63137   1.648   8.744   4.496 -0.9090 -0.6309 -0.9787
  468MOL0     H63138   1.475   8.723   4.256 -2.2043  0.4226  1.1063
  468MOL0     H63139   1.414   8.714   4.419 -1.2104  1.5914 -1.2094
  468MOL0     H63140   1.242   8.593   4.342 -0.6765 -0.7526  1.4199
  468MOL0     H63141   0.991   8.451   4.172 -1.2317  0.5887  1.3899
  468MOL0     H63142   0.959   8.376   4.326 -2.1532 -0.6583 -2.6300
  468MOL0     H63143   1.016   8.540   4.314  1.0046 -1.1713  4.5401
  468MOL0     H63144   1.217   7.800   4.225 -0.0657 -2.5480  1.3746
  468MOL0     H63145   1.058   7.605   4.220  0.2674 -0.5959 -1.0820
  468MOL0     H63146   0.885   7.468   4.145  1.7134 -0.3738  1.0272
  468MOL0     H63147   0.940   7.467   4.311 -0.1224  1.0976  0.3203
  468MOL0     H63148   0.706   7.397   4.387  0.8827 -3.0835  1.7035
  468MOL0     H63149   0.662   7.375   4.221 -0.3548  1.8245  0.1127
  468MOL0     H63150   0.888   7.249   4.374  2.5013 -0.6432 -1.7424
  468MOL0     H63151   0.874   7.205   4.211 -1.5112  0.1516 -1.1877
  468MOL0     H63152   0.621   7.114   4.266 -2.4094 -0.8370  1.6219
  468MOL0     H63153   0.763   7.029   4.318 -3.6739 -1.6809 -1.3990
  468MOL0     H63154   0.623   7.221   4.505 -0.4937  0.1811 -1.2213
  468MOL0     H63155   0.753   7.114   4.555 -0.4779  2.1083  0.3937
  468MOL0     H63156   0.531   7.025   4.614  0.3301  2.0470  0.1891
  468MOL0     H63157   0.476   7.021   4.449 -1.0384  1.3846  1.2876
  468MOL0     H63158   0.689   6.838   4.556  1.7453 -1.0528 -1.1744
  468MOL0     H63159   0.676   6.871   4.390  0.6641  3.2328  0.3767
  468MOL0     H63160   0.436   6.790   4.400  0.3998  0.2885  1.1516
  468MOL0     H63161   0.450   6.757   4.580  1.8222  1.7983  1.5840
  468MOL0     H63162   0.747   7.848   4.362 -0.9518  1.8299 -1.2791
  468MOL0     H63163   0.907   8.051   4.355  2.3949  0.4525 -0.6409
  468MOL0     H63164   1.396   8.142   4.253  3.6253  2.7219 -2.3555
  468MOL0     H63165   1.562   8.317   4.310 -0.7922 -1.1541 -1.2084
  468MOL0     H63166   2.553   9.765   3.631  2.6588 -1.9470  2.8818
  468MOL0     H63167   2.632  10.014   3.651  1.8665  0.5454  0.6777
  468MOL0     H63168   2.769  10.312   3.999 -1.1896 -1.1358 -0.9685
  468MOL0     H63169   2.897  10.524   4.031 -0.4723  0.8544  0.2254
  468MOL0     H63170   2.985  10.876   3.958  0.7851  0.1923 -3.1157
  468MOL0     H63171   2.973  10.736   4.057  0.8224 -0.2399  0.4533
  468MOL0     H63172   3.094  10.739   3.768 -2.5411 -1.3005 -0.5312
  468MOL0     H63173   3.073  10.598   3.865  1.9513 -0.0240 -1.9204
  468MOL0     H63174   3.236  10.735   4.043 -2.0348  0.5278  0.7402
  468MOL0     H63175   3.241  10.854   3.910  0.0093 -0.0250 -5.0639
  468MOL0     H63176   3.438  10.695   3.909  0.1322 -1.2282 -0.6194
  468MOL0     H63177   3.365  10.723   3.763 -3.0420  1.1451 -0.7373
  468MOL0     H63178   3.293  10.296   3.828 -2.0412  0.3685 -1.1514
  468MOL0     H63179   2.654  10.707   3.740 -4.0013 -2.0844 -2.2311
  468MOL0     H63180   2.559  10.498   3.670 -1.7148  1.3409  0.4498
  469MOL0     O63181   2.811   5.126   7.030 -0.1007 -0.0177 -0.3856
  469MOL0     C63182   2.702   5.087   7.071 -1.0030  0.1281  0.1943
  469MOL0     O63183   2.666   4.960   7.087  0.7228 -0.3087 -0.2672
  469MOL0     C63184   2.740   4.855   7.050  0.0889  0.2672  0.3225
  469MOL0     C63185   2.874   4.848   7.059 -0.2107  0.1685  0.2465
  469MOL0     C63186   2.946   4.744   7.016  0.3108  0.8777 -0.3424
  469MOL0     C63187   2.889   4.630   6.965  0.1185  0.4276 -0.2672
  469MOL0     O63188   2.955   4.521   6.912  0.5798  0.7164 -0.5767
  469MOL0     C63189   3.088   4.533   6.882 -0.1645  0.5531  0.4386
  469MOL0     C63190   3.133   4.403   6.831 -0.0042  1.3919  0.2463
  469MOL0     C63191   3.144   4.297   6.945 -0.1430 -0.0815 -0.6653
  469MOL0     C63192   3.223   4.167   6.907  0.6419 -0.9778 -0.1411
  469MOL0     C63193   3.238   4.052   7.014 -0.6276 -0.6182 -0.4655
  469MOL0     C63194   3.120   3.953   7.013  0.0046 -0.3173  0.6429
  469MOL0     C63195   3.155   3.827   7.100 -0.0902  0.5699  0.0585
  469MOL0     C63196   3.151   3.864   7.248  0.6618 -0.5340  0.5086
  469MOL0     N63197   3.130   3.743   7.333  0.6768 -0.3081 -0.2534
  469MOL0     C63198   3.220   3.638   7.336 -0.0931 -0.0020  0.7191
  469MOL0     C63199   3.154   3.523   7.370 -1.1873 -1.0265 -0.6254
  469MOL0     C63200   3.227   3.397   7.400  0.3789  0.9777 -0.9193
  469MOL0     C63201   3.122   3.275   7.406 -0.0193 -0.3469  0.1378
  469MOL0     C63202   3.065   3.223   7.273 -0.5157  0.4585 -0.7432
  469MOL0     C63203   3.173   3.154   7.182 -0.6838  0.1278  0.5279
  469MOL0     O63204   3.231   3.035   7.250 -0.5934 -1.0193 -0.2525
  469MOL0     C63205   3.367   3.009   7.232 -0.3132  0.5264 -0.0485
  469MOL0     C63206   3.429   2.988   7.108 -0.2473  0.9550  0.8203
  469MOL0     C63207   3.567   2.989   7.103 -0.1051  0.5204 -0.0287
  469MOL0     C63208   3.625   2.982   6.962 -0.1742 -0.9731  1.0471
  469MOL0     C63209   3.648   2.991   7.222  0.1880 -0.9110  0.1495
  469MOL0     C63210   3.797   3.011   7.217  0.2867 -0.2933 -0.8062
  469MOL0     O63211   3.866   2.929   7.138  0.3304  0.5115 -0.0016
  469MOL0     C63212   4.003   2.939   7.118  0.6517  0.3623 -0.1479
  469MOL0     C63213   4.068   2.996   7.006  0.6211 -0.4616 -0.3734
  469MOL0     C63214   4.210   2.990   6.984  0.7080  0.4808 -0.4917
  469MOL0     C63215   4.288   2.924   7.073 -1.9929  0.2530  1.2534
  469MOL0     O63216   4.421   2.912   7.068  0.0428 -0.2369  0.1017
  469MOL0     C63217   4.489   2.915   6.935  0.8881 -0.7601 -0.8422
  469MOL0     C63218   4.610   2.822   6.965  0.6836 -0.2690  0.2592
  469MOL0     C63219   4.684   2.784   6.834  0.1665 -1.0415 -0.0452
  469MOL0     C63220   4.812   2.712   6.877 -0.7861  0.2599  0.2167
  469MOL0     C63221   4.903   2.669   6.760 -0.4158  0.3334 -0.3625
  469MOL0     C63222   5.053   2.665   6.804  0.1601  0.3993 -0.0890
  469MOL0     C63223   5.093   2.555   6.896 -0.2746  0.0270 -0.1632
  469MOL0     C63224   5.230   2.582   6.957  0.2051 -0.4311  0.1212
  469MOL0    Cl63225   5.223   2.673   7.124 -0.3224  0.3096 -0.4090
  469MOL0     C63226   4.225   2.863   7.178 -0.2955 -0.1399  0.1599
  469MOL0     C63227   4.084   2.864   7.207  0.1780 -0.2078  0.2458
  469MOL0     O63228   3.848   3.084   7.300  0.0201 -0.3925 -0.5781
  469MOL0     C63229   3.580   3.005   7.348 -0.3115  0.1961  0.1418
  469MOL0     C63230   3.443   3.020   7.341  0.4999 -0.0543 -0.4810
  469MOL0     N63231   3.019   3.563   7.388  0.0375  0.7473  0.3357
  469MOL0     N63232   3.002   3.694   7.361  0.4475  0.5756  0.5254
  469MOL0     C63233   2.750   4.633   6.958  0.1326 -0.1705  0.6951
  469MOL0     C63234   2.676   4.746   6.992  0.2959  0.5498 -0.6218
  469MOL0     C63235   2.612   5.194   7.102 -0.9178 -0.7228 -0.6436
  469MOL0     C63236   2.477   5.170   7.133 -1.3103 -0.5548 -0.1037
  469MOL0     C63237   2.394   5.274   7.167  0.2132  0.0103 -0.5684
  469MOL0     C63238   2.437   5.406   7.169  1.2135  0.4458  0.0324
  469MOL0     O63239   2.331   5.476   7.217  0.1751 -0.0167 -0.4734
  469MOL0     C63240   2.333   5.621   7.194 -0.0437  0.0341  0.0733
  469MOL0     C63241   2.265   5.659   7.061  0.0366  0.8585 -0.2483
  469MOL0     C63242   2.118   5.620   7.044 -0.2044 -0.2284  1.0623
  469MOL0     C63243   2.073   5.664   6.909  0.3584  0.1379  0.8089
  469MOL0     C63244   1.929   5.638   6.870 -0.5568 -1.0553  0.8646
  469MOL0     C63245   1.815   5.605   6.858 -0.1854 -1.1863  0.1062
  469MOL0     C63246   2.573   5.438   7.144 -0.0713 -0.3461 -0.0168
  469MOL0     C63247   2.656   5.330   7.104  0.7300  0.3766 -0.2239
  469MOL0     H63248   2.944   4.921   7.097  2.1483 -1.0515 -1.4927
  469MOL0     H63249   3.054   4.754   7.024  0.3058  0.8483 -0.2337
  469MOL0     H63250   3.091   4.607   6.801 -1.4421  1.1336  0.8868
  469MOL0     H63251   3.139   4.558   6.975 -2.4596 -2.0844  2.5412
  469MOL0     H63252   3.067   4.356   6.758  2.8659 -0.0545 -1.5895
  469MOL0     H63253   3.226   4.434   6.783  1.0051 -0.8456  0.6112
  469MOL0     H63254   3.189   4.355   7.026  1.9106 -0.3620 -1.5229
  469MOL0     H63255   3.042   4.265   6.969  0.3945 -0.2025  1.7341
  469MOL0     H63256   3.164   4.118   6.828 -1.9587 -0.5708  1.4136
  469MOL0     H63257   3.323   4.192   6.871 -1.2352  3.0407 -3.3449
  469MOL0     H63258   3.321   3.995   6.972 -0.2665 -0.2635 -0.2412
  469MOL0     H63259   3.263   4.099   7.110  2.7333  0.9801 -1.9240
  469MOL0     H63260   3.028   4.006   7.039 -0.1728 -0.8723  1.1856
  469MOL0     H63261   3.088   3.916   6.915  1.2181  1.1469 -0.3398
  469MOL0     H63262   3.080   3.750   7.082  0.0360  0.2545  0.8469
  469MOL0     H63263   3.252   3.788   7.067  0.7020  1.1107  1.6437
  469MOL0     H63264   3.062   3.924   7.266  0.3035 -1.4373  1.9100
  469MOL0     H63265   3.245   3.910   7.279  1.1235 -2.1906  1.6921
  469MOL0     H63266   3.326   3.654   7.318 -0.9382  1.7801 -4.0190
  469MOL0     H63267   3.303   3.377   7.323 -0.8300 -0.4686 -1.7954
  469MOL0     H63268   3.276   3.408   7.497  0.4595  2.5472 -1.1209
  469MOL0     H63269   3.036   3.298   7.470  1.6114  2.1249  1.5948
  469MOL0     H63270   3.176   3.191   7.450  1.5361 -0.3482 -1.6236
  469MOL0     H63271   3.022   3.303   7.212 -1.4958 -0.5956 -1.4884
  469MOL0     H63272   2.979   3.157   7.285 -2.0575  2.1095 -2.0096
  469MOL0     H63273   3.247   3.229   7.151  0.0611 -0.0556  1.7727
  469MOL0     H63274   3.115   3.121   7.096 -1.3843  1.4496  0.4593
  469MOL0     H63275   3.368   2.959   7.023 -0.7590 -1.5681  1.9335
  469MOL0     H63276   3.676   2.887   6.947  1.6323 -0.0824  1.3138
  469MOL0     H63277   3.544   2.982   6.889  0.5259 -2.2431  0.2354
  469MOL0     H63278   3.696   3.065   6.951  0.0184 -1.2649 -0.0403
  469MOL0     H63279   3.992   3.059   6.961 -1.7963 -0.7788  2.9387
  469MOL0     H63280   4.261   3.023   6.894  0.8944 -0.9711 -0.9457
  469MOL0     H63281   4.411   2.878   6.867 -0.8110 -2.7694  2.0224
  469MOL0     H63282   4.523   3.010   6.891 -1.1115  0.5006  0.2095
  469MOL0     H63283   4.673   2.875   7.037  0.0526 -1.3172  1.6434
  469MOL0     H63284   4.579   2.731   7.017  0.4326 -1.2002 -1.4557
  469MOL0     H63285   4.706   2.878   6.781  1.1535 -0.7648  0.8239
  469MOL0     H63286   4.625   2.711   6.777 -1.2973  1.9037 -2.6493
  469MOL0     H63287   4.865   2.785   6.939 -0.2531  2.2449 -2.3827
  469MOL0     H63288   4.787   2.629   6.942 -0.5608  0.9521  1.2168
  469MOL0     H63289   4.895   2.727   6.667  3.6019 -0.9616 -1.7107
  469MOL0     H63290   4.883   2.567   6.723  1.1202  1.1355 -3.8001
  469MOL0     H63291   5.117   2.667   6.715  1.5698  3.6413  0.8511
  469MOL0     H63292   5.055   2.762   6.855 -3.1360  0.8422 -0.5989
  469MOL0     H63293   5.091   2.468   6.831 -1.1772  1.4166 -2.0974
  469MOL0     H63294   5.023   2.531   6.977 -0.3929 -4.4021 -1.3488
  469MOL0     H63295   5.284   2.638   6.881  1.1540 -2.4647 -0.7793
  469MOL0     H63296   5.286   2.489   6.972 -0.9798 -1.0885  0.6130
  469MOL0     H63297   4.287   2.798   7.240 -0.1556  1.8160  2.2140
  469MOL0     H63298   4.038   2.811   7.289 -2.6295  1.2785 -0.2325
  469MOL0     H63299   3.635   3.002   7.441 -1.9947 -0.8324  1.1458
  469MOL0     H63300   3.383   3.038   7.430  0.0390 -1.2200 -0.5418
  469MOL0     H63301   2.696   4.551   6.912  1.0320 -0.0794 -0.5851
  469MOL0     H63302   2.569   4.753   6.974  0.1421 -0.4955 -0.1585
  469MOL0     H63303   2.425   5.075   7.144 -0.3511 -0.9636  1.1537
  469MOL0     H63304   2.294   5.250   7.199  0.0800 -0.0867 -1.0441
  469MOL0     H63305   2.269   5.665   7.271 -1.8027  0.2278 -1.4144
  469MOL0     H63306   2.435   5.661   7.196  0.1851 -0.3398 -2.1073
  469MOL0     H63307   2.332   5.605   6.994 -0.4522 -0.9484  0.6626
  469MOL0     H63308   2.287   5.765   7.044  0.6198  1.0189  1.3013
  469MOL0     H63309   2.052   5.662   7.121 -2.5597 -1.9255  0.0999
  469MOL0     H63310   2.118   5.512   7.059  1.1432 -0.2824  0.7796
  469MOL0     H63311   2.123   5.609   6.829 -0.3446  2.0552 -1.0259
  469MOL0     H63312   2.097   5.769   6.888 -0.2731  0.6573  2.4719
  469MOL0     H63313   1.709   5.587   6.856 -0.6234  1.1915 -0.8387
  469MOL0     H63314   2.615   5.538   7.136 -2.4582  0.5321 -4.4285
  469MOL0     H63315   2.760   5.359   7.091  0.9445 -0.0543  0.4881
  470MOL0     O63316  11.285   4.119   6.985 -0.3094 -0.3525  0.1921
  470MOL0     C63317  11.277   4.213   6.916  0.9923 -1.4911  0.7325
  470MOL0     O63318  11.371   4.287   6.857  0.1159  0.2522 -0.6536
  470MOL0     C63319  11.498   4.247   6.873 -0.1829  0.0012 -0.0088
  470MOL0     C63320  11.562   4.220   6.749 -0.8217 -1.1801 -0.4249
  470MOL0     C63321  11.696   4.189   6.741  0.6199 -0.2117 -0.0104
  470MOL0     C63322  11.769   4.166   6.855  0.7328 -0.0504  0.7677
  470MOL0     O63323  11.898   4.122   6.852  0.2840  0.4245 -0.1490
  470MOL0     C63324  11.980   4.134   6.969  0.5502 -0.0397 -0.8705
  470MOL0     C63325  12.014   4.272   7.010 -0.6022 -0.3181 -0.7292
  470MOL0     C63326  12.102   4.291   7.130 -1.0074 -0.7161  0.2746
  470MOL0     C63327  12.239   4.222   7.117  0.2326  0.3985  0.8427
  470MOL0     C63328  12.331   4.297   7.209 -0.3579  0.6794  0.3990
  470MOL0     C63329  12.277   4.268   7.358 -0.0452 -0.1917 -0.0331
  470MOL0     C63330  12.376   4.326   7.459  0.2682  0.4338 -0.0341
  470MOL0     C63331  12.372   4.476   7.463  0.5061  0.5676 -0.7809
  470MOL0     N63332  12.236   4.543   7.492 -1.0526  0.5102  0.0556
  470MOL0     C63333  12.150   4.597   7.400 -1.2057 -0.6609 -0.3479
  470MOL0     C63334  12.067   4.669   7.482  0.0007  0.8128 -0.1833
  470MOL0     C63335  11.929   4.728   7.449 -0.3656  0.1663  0.5860
  470MOL0     C63336  11.826   4.619   7.412  0.0555 -0.2951 -0.1312
  470MOL0     C63337  11.838   4.551   7.273  0.0770 -0.3912  0.6097
  470MOL0     C63338  11.706   4.487   7.225 -0.9044 -0.3777  0.0172
  470MOL0     O63339  11.613   4.572   7.151  0.7883 -0.6644 -0.1490
  470MOL0     C63340  11.616   4.575   7.008  0.3409 -0.6452 -0.5196
  470MOL0     C63341  11.732   4.569   6.931 -0.9694 -0.5719 -0.2365
  470MOL0     C63342  11.731   4.567   6.794  0.4762  0.0397  0.4083
  470MOL0     C63343  11.869   4.549   6.723  1.1674 -0.2813  1.3000
  470MOL0     C63344  11.603   4.547   6.730  0.2881 -0.2175 -1.4445
  470MOL0     C63345  11.590   4.520   6.581  0.1864  0.0498  0.3934
  470MOL0     O63346  11.458   4.532   6.529 -0.3175 -0.0018 -0.1303
  470MOL0     C63347  11.426   4.518   6.392  0.2696  0.1170  0.4988
  470MOL0     C63348  11.305   4.588   6.353 -0.6956  0.1202 -0.7193
  470MOL0     C63349  11.246   4.564   6.229 -0.1005 -0.5431 -0.5092
  470MOL0     C63350  11.315   4.484   6.141 -0.0158  0.4937 -0.1668
  470MOL0     O63351  11.251   4.447   6.031 -0.0068 -0.7524 -0.8423
  470MOL0     C63352  11.170   4.542   5.959  0.4955  0.1984  0.3990
  470MOL0     C63353  11.115   4.466   5.842  0.2973 -0.2148 -0.4189
  470MOL0     C63354  11.004   4.532   5.767  0.4697  0.1513 -0.1494
  470MOL0     C63355  11.002   4.520   5.614  0.0490  1.2036 -0.4500
  470MOL0     C63356  10.875   4.588   5.575  0.6857 -0.2416 -0.4234
  470MOL0     C63357  10.861   4.605   5.423 -0.1263 -0.4854 -0.7543
  470MOL0     C63358  10.717   4.604   5.385 -0.3152  0.2709 -0.2392
  470MOL0     C63359  10.669   4.461   5.392 -0.1540  0.7652 -0.0089
  470MOL0    Cl63360  10.492   4.432   5.385  0.1888  0.4029  0.1809
  470MOL0     C63361  11.432   4.410   6.175  0.9210  0.3118 -0.0680
  470MOL0     C63362  11.485   4.427   6.296  0.4584  0.2147  0.2182
  470MOL0     O63363  11.688   4.500   6.510 -0.3494  0.4518  0.2946
  470MOL0     C63364  11.475   4.555   6.807 -0.5275 -0.0417  0.4187
  470MOL0     C63365  11.490   4.579   6.945  0.7925  0.6304  0.1879
  470MOL0     N63366  12.110   4.662   7.613  1.0487 -0.3589  0.6541
  470MOL0     N63367  12.211   4.579   7.619  1.1236  0.3471 -0.7878
  470MOL0     C63368  11.705   4.187   6.985 -0.0688  0.6412  0.0954
  470MOL0     C63369  11.567   4.219   6.989  0.0367 -0.1912  0.1767
  470MOL0     C63370  11.132   4.252   6.895 -0.7057  0.1697  0.1063
  470MOL0     C63371  11.031   4.168   6.936  0.3903  0.6698  0.2138
  470MOL0     C63372  10.895   4.193   6.915  0.3460  0.4418  0.3096
  470MOL0     C63373  10.859   4.308   6.839 -0.3957  0.0461  0.7927
  470MOL0     O63374  10.740   4.329   6.794  0.0920 -0.4400  0.3411
  470MOL0     C63375  10.624   4.298   6.880 -0.2027 -0.6057  0.0400
  470MOL0     C63376  10.560   4.165   6.844 -0.6131  0.1615 -0.1099
  470MOL0     C63377  10.466   4.115   6.951 -0.3220  0.2121 -0.2044
  470MOL0     C63378  10.419   3.976   6.921 -0.7487  0.3843 -0.4320
  470MOL0     C63379  10.293   3.960   6.987 -0.4618  0.1359 -0.8177
  470MOL0     C63380  10.205   3.939   7.064  0.3507  1.1248 -0.5518
  470MOL0     C63381  10.964   4.390   6.785  0.0916 -0.1784  0.5430
  470MOL0     C63382  11.095   4.365   6.818  0.5815 -0.3310 -0.9051
  470MOL0     H63383  11.512   4.245   6.656  0.8685  2.0121 -0.5887
  470MOL0     H63384  11.741   4.177   6.643 -0.4904 -0.4777 -0.5051
  470MOL0     H63385  11.942   4.085   7.058 -1.1950  1.8671 -0.4997
  470MOL0     H63386  12.074   4.083   6.945 -0.1843 -2.2187  0.6747
  470MOL0     H63387  12.058   4.320   6.922  4.7069 -1.5670  0.9094
  470MOL0     H63388  11.922   4.328   7.032  0.5067  0.7086  1.7158
  470MOL0     H63389  12.110   4.400   7.136 -1.9048 -0.5294 -1.3424
  470MOL0     H63390  12.054   4.250   7.219 -1.2253 -1.0797 -0.0072
  470MOL0     H63391  12.251   4.116   7.141  2.9488  0.6535  0.9631
  470MOL0     H63392  12.269   4.238   7.013  0.3481  0.2912  0.8591
  470MOL0     H63393  12.429   4.250   7.201  0.4893  2.4554 -0.0867
  470MOL0     H63394  12.342   4.405   7.192 -2.3494  0.4073 -3.8260
  470MOL0     H63395  12.182   4.320   7.371  1.5828  2.4770  2.3245
  470MOL0     H63396  12.256   4.161   7.370 -4.6231  0.5158 -0.0919
  470MOL0     H63397  12.341   4.295   7.558 -1.5904 -3.3409 -1.6726
  470MOL0     H63398  12.475   4.283   7.444 -0.6846 -1.8052 -0.3712
  470MOL0     H63399  12.400   4.499   7.360  0.7147 -1.6658 -1.2789
  470MOL0     H63400  12.452   4.517   7.526 -0.6754  1.6655  0.0583
  470MOL0     H63401  12.131   4.583   7.294  0.3729 -0.6164 -0.6670
  470MOL0     H63402  11.881   4.789   7.525 -0.8274  1.0506 -0.3901
  470MOL0     H63403  11.936   4.798   7.365 -1.1907  1.2425  1.3951
  470MOL0     H63404  11.728   4.666   7.423  0.4683  0.0067  3.6750
  470MOL0     H63405  11.828   4.544   7.492  1.5741 -1.2397 -1.0189
  470MOL0     H63406  11.912   4.471   7.266 -1.0853 -1.4396 -0.1456
  470MOL0     H63407  11.864   4.631   7.202 -2.5403  0.2740  0.2742
  470MOL0     H63408  11.653   4.426   7.299  0.7780 -2.3052 -0.2828
  470MOL0     H63409  11.742   4.410   7.156  1.0778 -1.3946  2.0430
  470MOL0     H63410  11.829   4.581   6.978 -1.1815 -1.1409  0.3606
  470MOL0     H63411  11.881   4.440   6.725 -2.2482 -0.8197 -0.1499
  470MOL0     H63412  11.874   4.573   6.617  1.5042  0.9866  1.5838
  470MOL0     H63413  11.950   4.599   6.777  2.2681  0.5928 -1.0216
  470MOL0     H63414  11.241   4.646   6.418 -0.0625  0.3228 -0.2608
  470MOL0     H63415  11.144   4.598   6.216  0.0893  0.9447  1.5068
  470MOL0     H63416  11.081   4.576   6.012 -0.5597 -1.0687 -0.4834
  470MOL0     H63417  11.230   4.627   5.924  0.5665 -0.7766 -2.0943
  470MOL0     H63418  11.191   4.450   5.765 -0.9604 -1.5080 -1.4424
  470MOL0     H63419  11.090   4.366   5.878 -0.5551  1.0154  2.7060
  470MOL0     H63420  11.010   4.641   5.781  3.1508 -0.0306  0.6087
  470MOL0     H63421  10.914   4.480   5.802 -3.1022  1.9754 -5.3619
  470MOL0     H63422  11.088   4.562   5.560  1.4278 -2.2177 -1.1682
  470MOL0     H63423  11.003   4.414   5.589  0.3883  1.4763 -1.6641
  470MOL0     H63424  10.861   4.691   5.611  2.5283  0.9320 -2.7510
  470MOL0     H63425  10.797   4.522   5.615  0.8467 -1.0819 -1.4597
  470MOL0     H63426  10.914   4.697   5.397 -0.1111  1.4537  4.7491
  470MOL0     H63427  10.922   4.521   5.389  1.2955 -0.0047  0.5234
  470MOL0     H63428  10.700   4.638   5.282  1.7719  0.9087 -0.4197
  470MOL0     H63429  10.655   4.677   5.437 -0.0074  0.4985 -0.1928
  470MOL0     H63430  10.706   4.403   5.477  3.4149 -2.2854 -3.2477
  470MOL0     H63431  10.705   4.422   5.296 -1.3040 -1.3472  0.3574
  470MOL0     H63432  11.478   4.338   6.107  2.1320  1.8573 -0.9524
  470MOL0     H63433  11.559   4.353   6.323 -3.4771 -3.2376  2.7162
  470MOL0     H63434  11.377   4.547   6.760  1.2068 -1.0819 -3.3894
  470MOL0     H63435  11.405   4.606   7.007 -0.6544 -0.5131 -1.2166
  470MOL0     H63436  11.752   4.148   7.073 -1.7517  2.8652  2.1281
  470MOL0     H63437  11.524   4.217   7.088 -2.1240 -3.0610 -0.6787
  470MOL0     H63438  11.041   4.080   6.999 -1.3252  1.5164  1.7622
  470MOL0     H63439  10.825   4.118   6.951 -2.6289  2.5078 -0.8207
  470MOL0     H63440  10.662   4.278   6.981 -0.3711 -1.9561 -0.1511
  470MOL0     H63441  10.555   4.381   6.900 -1.9327 -2.3719  1.7597
  470MOL0     H63442  10.644   4.099   6.821 -1.2639 -1.0229  0.8207
  470MOL0     H63443  10.509   4.165   6.748 -2.3899  1.2944  0.7802
  470MOL0     H63444  10.372   4.172   6.955 -1.6935 -1.9557  0.2072
  470MOL0     H63445  10.518   4.129   7.046 -1.3465  3.5752 -0.0004
  470MOL0     H63446  10.497   3.903   6.946 -0.4906  0.3626 -1.2689
  470MOL0     H63447  10.401   3.965   6.814 -1.8408  1.9829 -0.4396
  470MOL0     H63448  10.120   3.933   7.130 -1.7541  1.2268 -3.0888
  470MOL0     H63449  10.947   4.474   6.718  0.8389 -2.2414 -2.4103
  470MOL0     H63450  11.163   4.445   6.792 -1.8109  1.8131 -0.9448
  471MOL0     O63451  10.440   4.963   0.627 -0.0043  0.6509  0.3391
  471MOL0     C63452  10.425   5.060   0.547 -0.1901  0.2936 -0.5473
  471MOL0     O63453  10.516   5.103   0.455 -0.3347  0.7165 -0.3163
  471MOL0     C63454  10.652   5.065   0.462  0.8354  0.4111 -0.2216
  471MOL0     C63455  10.693   4.932   0.503 -0.0770  0.0602  0.7043
  471MOL0     C63456  10.836   4.904   0.514  1.3567  0.0187  0.5645
  471MOL0     C63457  10.923   5.006   0.483 -0.0373  0.3748  0.2326
  471MOL0     O63458  11.051   4.969   0.504  0.0284 -0.2603  0.3104
  471MOL0     C63459  11.152   5.065   0.500  0.8039  0.0577  0.9580
  471MOL0     C63460  11.273   5.019   0.578  0.1391  0.1859  0.3186
  471MOL0     C63461  11.315   4.875   0.537  0.4502  0.6892 -0.5905
  471MOL0     C63462  11.423   4.820   0.636 -0.1797  0.2629 -0.7711
  471MOL0     C63463  11.467   4.686   0.599 -0.3667  0.6122  0.3136
  471MOL0     C63464  11.583   4.638   0.690 -0.0537  0.3935  0.2434
  471MOL0     C63465  11.641   4.494   0.635 -0.6911 -0.4304 -0.0519
  471MOL0     C63466  11.546   4.374   0.657 -0.3062  1.2309 -0.0192
  471MOL0     N63467  11.580   4.303   0.782 -0.6585 -0.3631  0.0643
  471MOL0     C63468  11.643   4.182   0.785 -0.3576  0.4242 -0.0589
  471MOL0     C63469  11.633   4.126   0.906  0.0845 -0.7276 -0.1987
  471MOL0     C63470  11.698   3.999   0.947 -0.1066 -0.0407 -0.2000
  471MOL0     C63471  11.622   3.889   0.878 -1.4681  0.5554 -0.3516
  471MOL0     C63472  11.681   3.743   0.911 -0.4650  0.5406 -0.2031
  471MOL0     C63473  11.822   3.720   0.851 -0.4329  0.3320  0.2062
  471MOL0     O63474  11.927   3.775   0.933 -0.3782  0.3845 -0.2930
  471MOL0     C63475  11.963   3.709   1.057 -0.2625  0.1115  0.6857
  471MOL0     C63476  11.921   3.575   1.068 -0.7724  0.2934 -0.2930
  471MOL0     C63477  11.982   3.496   1.170  0.0141  0.0064  0.2284
  471MOL0     C63478  11.970   3.343   1.177  0.4865 -0.3493  0.1998
  471MOL0     C63479  12.050   3.568   1.275  0.0135  0.1298 -0.1959
  471MOL0     C63480  12.109   3.502   1.389  0.4443  1.1558  0.0515
  471MOL0     O63481  12.047   3.512   1.507 -0.9354  0.4165 -0.0951
  471MOL0     C63482  12.130   3.474   1.611 -1.2651 -0.9576  0.1611
  471MOL0     C63483  12.234   3.553   1.660 -0.1106 -0.4180 -1.2969
  471MOL0     C63484  12.297   3.517   1.782  0.1165  0.9102  0.5802
  471MOL0     C63485  12.245   3.409   1.853  0.3830  0.2254 -0.7813
  471MOL0     O63486  12.282   3.370   1.981  0.5686  0.0923 -0.0874
  471MOL0     C63487  12.420   3.386   2.014 -0.6866  0.3750  0.5583
  471MOL0     C63488  12.526   3.323   1.917  0.1602  0.4044 -0.2582
  471MOL0     C63489  12.505   3.169   1.896 -0.3974  0.1313 -0.4885
  471MOL0     C63490  12.642   3.121   1.859 -0.6736  0.2988  0.3055
  471MOL0     C63491  12.636   2.985   1.798 -0.8191  0.0534 -0.4757
  471MOL0     C63492  12.725   2.968   1.669 -0.1462 -0.0761 -0.6954
  471MOL0     C63493  12.697   2.832   1.598  0.0031  0.0509 -0.5448
  471MOL0     C63494  12.795   2.816   1.485 -0.2645 -0.4514 -1.3621
  471MOL0    Cl63495  12.720   2.864   1.325  0.3685  0.1090 -0.3171
  471MOL0     C63496  12.143   3.329   1.802  0.5784 -0.0919  0.3032
  471MOL0     C63497  12.089   3.353   1.670 -0.6769  0.4482  0.0424
  471MOL0     O63498  12.220   3.456   1.370 -0.1021  0.2011  0.6598
  471MOL0     C63499  12.058   3.710   1.280  0.9155 -0.4323 -0.9155
  471MOL0     C63500  12.026   3.776   1.158  0.3980 -0.3274  0.3114
  471MOL0     N63501  11.566   4.219   0.988  0.3523  0.4926  0.2925
  471MOL0     N63502  11.533   4.320   0.913 -0.5533  0.2663 -0.3789
  471MOL0     C63503  10.891   5.132   0.449  0.9375  0.0547  0.7377
  471MOL0     C63504  10.754   5.159   0.434  0.1104 -0.0179  0.0294
  471MOL0     C63505  10.310   5.155   0.558 -0.1075  0.1549 -1.4737
  471MOL0     C63506  10.289   5.267   0.479 -0.2877 -0.2675  0.4774
  471MOL0     C63507  10.168   5.350   0.487  0.1184  0.0783  0.0874
  471MOL0     C63508  10.078   5.324   0.591 -0.5047 -0.1531 -0.1695
  471MOL0     O63509   9.976   5.406   0.610  0.0699 -0.3520 -0.3518
  471MOL0     C63510   9.863   5.401   0.525 -0.7400  0.3622 -0.0244
  471MOL0     C63511   9.794   5.537   0.549 -0.1305  0.3223  0.0894
  471MOL0     C63512   9.868   5.653   0.475 -0.3100  0.1017  0.8824
  471MOL0     C63513   9.825   5.800   0.508  0.4623 -0.0494 -0.3104
  471MOL0     C63514   9.684   5.825   0.537  0.1803 -0.4522  0.1768
  471MOL0     C63515   9.571   5.852   0.571  0.8026 -0.6562 -0.4166
  471MOL0     C63516  10.100   5.217   0.677 -0.3047  0.3758  0.3791
  471MOL0     C63517  10.209   5.130   0.652  0.2793 -0.9823  0.0683
  471MOL0     H63518  10.632   4.842   0.512  1.5233 -1.3664 -1.5078
  471MOL0     H63519  10.865   4.803   0.537  0.9789 -0.4270 -0.7836
  471MOL0     H63520  11.186   5.080   0.397  0.2456  2.8351  1.1033
  471MOL0     H63521  11.131   5.152   0.563  3.6753  1.4751  0.1550
  471MOL0     H63522  11.359   5.085   0.565 -0.6988  1.2517 -0.0500
  471MOL0     H63523  11.247   5.022   0.684  0.5805  1.1456  0.4100
  471MOL0     H63524  11.236   4.799   0.542 -1.1561  2.2615 -0.8490
  471MOL0     H63525  11.345   4.877   0.432 -1.0708  1.7911 -1.0397
  471MOL0     H63526  11.510   4.886   0.635  0.8043 -0.9760 -0.8685
  471MOL0     H63527  11.389   4.804   0.739 -0.2673 -1.0108 -0.9825
  471MOL0     H63528  11.384   4.618   0.623  0.8575 -0.6571  1.0852
  471MOL0     H63529  11.497   4.667   0.496  0.3189 -2.5055  0.9927
  471MOL0     H63530  11.669   4.704   0.676 -1.8027  2.1093 -4.5045
  471MOL0     H63531  11.549   4.632   0.793 -0.2206  2.7048  0.3899
  471MOL0     H63532  11.664   4.496   0.528  0.7898  4.0432  0.1097
  471MOL0     H63533  11.736   4.466   0.681 -1.0502 -3.0852 -0.7561
  471MOL0     H63534  11.559   4.300   0.578 -0.7683  2.7690 -1.6084
  471MOL0     H63535  11.438   4.391   0.650 -0.9978 -2.5315 -0.2858
  471MOL0     H63536  11.695   4.136   0.702  3.4819  0.3670  2.1143
  471MOL0     H63537  11.801   4.006   0.909  0.1548 -0.7846  0.3380
  471MOL0     H63538  11.710   3.987   1.055 -0.5646 -0.8542 -0.2323
  471MOL0     H63539  11.636   3.898   0.770  0.9567 -2.3626 -0.3968
  471MOL0     H63540  11.522   3.903   0.922 -0.8286 -1.3984  1.9212
  471MOL0     H63541  11.619   3.669   0.859 -3.4378  2.5424  0.2736
  471MOL0     H63542  11.678   3.711   1.016 -0.8635 -3.7841 -1.3309
  471MOL0     H63543  11.825   3.771   0.755 -0.4277  0.8058  0.4536
  471MOL0     H63544  11.839   3.616   0.822  0.0681  0.4704  0.0016
  471MOL0     H63545  11.874   3.511   0.993 -2.3602 -0.7728  1.5024
  471MOL0     H63546  11.863   3.319   1.186  0.9170 -3.1060 -1.1307
  471MOL0     H63547  12.000   3.301   1.081 -1.3645  0.0607 -0.5979
  471MOL0     H63548  12.020   3.295   1.262  0.4958  0.8473  0.8928
  471MOL0     H63549  12.271   3.638   1.604 -1.7746 -0.4486 -2.5357
  471MOL0     H63550  12.380   3.575   1.820  1.3969 -1.4467  1.5727
  471MOL0     H63551  12.452   3.490   2.021 -0.9859  0.4256  1.3398
  471MOL0     H63552  12.433   3.345   2.114  1.6966  1.9468  0.9693
  471MOL0     H63553  12.528   3.380   1.824  1.3014 -1.9185 -1.7537
  471MOL0     H63554  12.621   3.342   1.968  1.4845  0.8871 -2.7629
  471MOL0     H63555  12.424   3.152   1.825  0.5521 -0.4745 -1.4653
  471MOL0     H63556  12.474   3.135   1.995 -0.3733 -0.5682 -0.7111
  471MOL0     H63557  12.684   3.186   1.781 -0.5639  1.3610  1.2217
  471MOL0     H63558  12.710   3.132   1.944  1.8178  1.0994 -1.6504
  471MOL0     H63559  12.533   2.965   1.767 -1.0114  3.1916 -2.2883
  471MOL0     H63560  12.646   2.910   1.877 -0.4681  0.0797 -0.4957
  471MOL0     H63561  12.700   3.039   1.589 -4.9011  1.1169  1.5102
  471MOL0     H63562  12.832   2.967   1.692 -0.1886  1.4287 -0.3726
  471MOL0     H63563  12.592   2.829   1.567  0.1668 -2.0273 -1.0328
  471MOL0     H63564  12.726   2.754   1.669 -0.1212 -0.9855 -1.6120
  471MOL0     H63565  12.828   2.715   1.456  0.4758  0.0719 -2.4102
  471MOL0     H63566  12.884   2.876   1.506  0.6599 -2.0492 -0.5027
  471MOL0     H63567  12.099   3.245   1.855  2.7303 -1.2028  0.4548
  471MOL0     H63568  11.997   3.311   1.630 -2.2074  3.4206  0.2035
  471MOL0     H63569  12.090   3.752   1.375  0.1027 -1.1129 -0.3241
  471MOL0     H63570  12.028   3.883   1.145 -2.9446 -0.3051 -0.9898
  471MOL0     H63571  10.959   5.214   0.430 -0.0932  1.5527  3.0100
  471MOL0     H63572  10.721   5.255   0.396  0.4405 -0.5369 -1.6780
  471MOL0     H63573  10.353   5.292   0.395 -1.4169  0.2300 -0.2537
  471MOL0     H63574  10.154   5.435   0.421  1.2530 -1.8992 -2.9252
  471MOL0     H63575   9.891   5.375   0.422  0.3198 -2.3907  0.8532
  471MOL0     H63576   9.803   5.315   0.557 -0.5521 -1.1494 -3.3122
  471MOL0     H63577   9.788   5.551   0.657 -0.6305 -1.6833  0.3641
  471MOL0     H63578   9.692   5.518   0.516  1.0244 -3.2415 -2.0359
  471MOL0     H63579   9.859   5.642   0.367 -1.5743  0.3616  0.9407
  471MOL0     H63580   9.974   5.635   0.495 -0.7197 -2.3145  1.1875
  471MOL0     H63581   9.865   5.873   0.437  0.0213  2.3491  1.7628
  471MOL0     H63582   9.872   5.833   0.602  4.3924  1.4298 -2.5295
  471MOL0     H63583   9.470   5.876   0.597  0.0771 -3.0869 -0.7561
  471MOL0     H63584  10.039   5.187   0.761  0.5985  0.6259  1.1311
  471MOL0     H63585  10.235   5.057   0.727  0.8818 -1.1149 -0.2571
  472MOL0     O63586   8.189   4.017  10.687  0.0071  0.4977  0.2005
  472MOL0     C63587   8.088   4.091  10.695  0.0343  0.0026  0.2265
  472MOL0     O63588   8.069   4.205  10.620 -0.6209 -0.2110 -0.1931
  472MOL0     C63589   8.144   4.229  10.504 -0.7381 -0.4571 -0.4621
  472MOL0     C63590   8.197   4.126  10.431 -0.4355  0.1194  0.6424
  472MOL0     C63591   8.266   4.149  10.314 -1.0470 -0.4334  0.3160
  472MOL0     C63592   8.296   4.284  10.287 -0.0066  0.1097  1.3472
  472MOL0     O63593   8.362   4.312  10.169  0.9002 -0.5211 -0.2451
  472MOL0     C63594   8.508   4.336  10.194 -0.0970 -0.0733 -0.3669
  472MOL0     C63595   8.557   4.396  10.060 -0.1473 -0.2659 -0.0276
  472MOL0     C63596   8.704   4.442  10.059  0.1471  1.0982  0.2710
  472MOL0     C63597   8.765   4.399   9.929 -0.4237  0.8816 -0.2211
  472MOL0     C63598   8.911   4.442   9.907  0.3050  0.2599 -0.1054
  472MOL0     C63599   8.981   4.373   9.782 -0.1324 -0.2220  0.3090
  472MOL0     C63600   9.034   4.226   9.802  0.1976 -0.0765  0.2017
  472MOL0     C63601   9.141   4.217   9.911  0.0142  0.5966 -0.4935
  472MOL0     N63602   9.199   4.079   9.903  0.7306 -0.1504  0.0537
  472MOL0     C63603   9.134   3.965   9.946 -0.1232 -0.4936  0.7728
  472MOL0     C63604   9.231   3.871   9.933 -0.3115 -0.0122 -0.6876
  472MOL0     C63605   9.218   3.721   9.956 -0.1276 -0.1120  0.1222
  472MOL0     C63606   9.071   3.679   9.976  0.1576  0.2789  0.3361
  472MOL0     C63607   9.054   3.528   9.964  0.9386  0.5181 -0.0077
  472MOL0     C63608   9.137   3.451  10.072  1.0125 -0.3145 -0.6161
  472MOL0     O63609   9.085   3.478  10.213 -0.3532 -0.4763  0.1738
  472MOL0     C63610   9.013   3.386  10.286  0.0443  0.1083  1.2092
  472MOL0     C63611   8.986   3.259  10.231  0.0695 -0.1020 -0.6179
  472MOL0     C63612   8.924   3.156  10.301  0.2154 -0.3780 -0.0230
  472MOL0     C63613   8.905   3.017  10.238 -0.0283 -0.1063 -0.5339
  472MOL0     C63614   8.882   3.185  10.431 -0.5045 -0.8856 -0.2687
  472MOL0     C63615   8.808   3.085  10.512 -0.0145  0.9676 -0.7738
  472MOL0     O63616   8.855   3.046  10.631 -0.1621  0.5151 -0.0869
  472MOL0     C63617   8.768   2.975  10.713 -0.0513 -0.0416 -0.1376
  472MOL0     C63618   8.742   2.833  10.687 -0.5398 -1.1227 -0.2519
  472MOL0     C63619   8.676   2.756  10.783 -0.1224 -0.3281  0.2497
  472MOL0     C63620   8.621   2.821  10.898  0.3012 -0.0351  0.4832
  472MOL0     O63621   8.549   2.754  11.000  0.3568  0.7768  0.0487
  472MOL0     C63622   8.446   2.659  10.962  0.3619 -0.0278  0.4727
  472MOL0     C63623   8.315   2.680  11.032 -0.1332 -0.7102 -0.5032
  472MOL0     C63624   8.218   2.564  10.999 -0.4423  0.7751  0.5386
  472MOL0     C63625   8.070   2.612  11.038 -0.8393  0.3601 -0.3625
  472MOL0     C63626   7.963   2.529  10.977 -0.1589  1.4824  1.2743
  472MOL0     C63627   7.974   2.380  11.028 -0.4808 -0.4210  0.0688
  472MOL0     C63628   7.850   2.308  10.985  0.6873 -0.5327  0.2450
  472MOL0     C63629   7.732   2.329  11.089 -0.1210  0.5460  0.4840
  472MOL0    Cl63630   7.754   2.236  11.238 -0.4103  0.0248 -0.2444
  472MOL0     C63631   8.628   2.962  10.909  0.4164  0.4561 -0.4887
  472MOL0     C63632   8.702   3.041  10.820  1.1735  0.6949  0.7531
  472MOL0     O63633   8.716   3.036  10.453  0.0917 -0.2200  0.5035
  472MOL0     C63634   8.900   3.312  10.491  0.1577 -0.1672  0.1431
  472MOL0     C63635   8.970   3.413  10.417  0.4242 -0.4262  0.5372
  472MOL0     N63636   9.350   3.934   9.906  0.0115  0.0287 -0.9133
  472MOL0     N63637   9.330   4.058   9.880  0.9412 -0.4590 -0.1655
  472MOL0     C63638   8.252   4.394  10.366 -0.7809 -0.9258 -0.2563
  472MOL0     C63639   8.170   4.362  10.478 -0.2768  0.0598 -0.1783
  472MOL0     C63640   7.976   4.058  10.787 -0.0830 -0.3747  0.1172
  472MOL0     C63641   7.979   3.950  10.872  0.0201 -0.5735 -0.2898
  472MOL0     C63642   7.884   3.931  10.972 -1.0589 -0.5288  0.0758
  472MOL0     C63643   7.771   4.010  10.979  0.4985  0.5183  0.5663
  472MOL0     O63644   7.669   3.964  11.062  0.1743 -0.9532  0.5483
  472MOL0     C63645   7.542   4.026  11.070 -0.4869  0.0294 -0.3287
  472MOL0     C63646   7.468   3.950  11.180  0.3260 -0.8223  0.6664
  472MOL0     C63647   7.322   4.002  11.181  0.6389  0.0210  0.0326
  472MOL0     C63648   7.238   3.929  11.286  0.1017 -0.5057 -0.6469
  472MOL0     C63649   7.104   3.988  11.287  0.3419 -0.0140  0.1960
  472MOL0     C63650   6.998   4.043  11.295 -0.2694 -0.0302  1.1609
  472MOL0     C63651   7.763   4.126  10.898 -0.2198 -0.1501 -0.5293
  472MOL0     C63652   7.858   4.151  10.807 -0.8633 -0.8131 -0.3499
  472MOL0     H63653   8.173   4.022  10.453  0.9724 -0.2937  0.3292
  472MOL0     H63654   8.299   4.067  10.251  0.8661 -1.5493  2.6066
  472MOL0     H63655   8.535   4.411  10.268 -0.1701  0.4116 -0.8271
  472MOL0     H63656   8.549   4.240  10.228 -2.3818 -0.7534  0.7092
  472MOL0     H63657   8.540   4.318   9.985  0.1947 -3.0646  2.5726
  472MOL0     H63658   8.487   4.476  10.038 -2.3895 -0.8663  3.9076
  472MOL0     H63659   8.698   4.551  10.065 -2.5512  1.0017  0.8201
  472MOL0     H63660   8.765   4.403  10.141 -0.2792  0.5371  0.3303
  472MOL0     H63661   8.756   4.290   9.926  0.1023  0.8295 -0.1344
  472MOL0     H63662   8.717   4.452   9.847  2.3759  0.0430 -2.5775
  472MOL0     H63663   8.919   4.550   9.899  1.8309  0.1457 -0.6624
  472MOL0     H63664   8.965   4.410   9.997 -1.4672  1.3978  1.4107
  472MOL0     H63665   8.918   4.389   9.694  1.6032  2.0440 -0.6036
  472MOL0     H63666   9.072   4.432   9.766 -0.2541 -0.6950 -2.8917
  472MOL0     H63667   8.955   4.158   9.836  0.2011 -0.4505 -0.5225
  472MOL0     H63668   9.072   4.176   9.712  0.8401  2.1651 -0.8371
  472MOL0     H63669   9.111   4.238  10.014  1.8466  1.4763 -0.0881
  472MOL0     H63670   9.219   4.285   9.875  0.0296  0.3859 -0.8596
  472MOL0     H63671   9.028   3.950   9.962 -0.6826  1.7104 -0.4208
  472MOL0     H63672   9.266   3.674   9.870  0.9899 -1.6831  1.5417
  472MOL0     H63673   9.286   3.697  10.038 -1.4797  1.9661  1.9815
  472MOL0     H63674   9.006   3.721   9.899 -0.5639  2.5528  2.0700
  472MOL0     H63675   9.032   3.703  10.076 -1.7693  2.8296 -0.9172
  472MOL0     H63676   9.085   3.486   9.868 -0.5864  0.2606 -0.4116
  472MOL0     H63677   8.951   3.505   9.993  1.5702  0.7134  2.7414
  472MOL0     H63678   9.234   3.501  10.077  2.5172 -3.0887 -0.2344
  472MOL0     H63679   9.141   3.345  10.045 -3.4437 -0.7450 -0.2435
  472MOL0     H63680   9.019   3.230  10.132  0.9777  0.8578 -0.6162
  472MOL0     H63681   8.949   3.010  10.138 -1.3579  3.3727 -1.5203
  472MOL0     H63682   8.960   2.953  10.307  1.0344  2.2055  0.8945
  472MOL0     H63683   8.801   2.985  10.236  0.2600 -1.1457 -3.0708
  472MOL0     H63684   8.794   2.774  10.613  2.1543 -1.8243  2.0426
  472MOL0     H63685   8.642   2.653  10.779 -2.3957  0.3831 -1.8370
  472MOL0     H63686   8.434   2.667  10.854  1.8743  2.5296  0.4118
  472MOL0     H63687   8.474   2.557  10.990  1.0863  0.3082  1.0012
  472MOL0     H63688   8.315   2.690  11.141 -2.0330  0.5593 -0.5762
  472MOL0     H63689   8.282   2.780  11.002  0.9180  0.4376  1.8889
  472MOL0     H63690   8.251   2.474  11.051 -1.7199 -1.9647 -2.9619
  472MOL0     H63691   8.224   2.552  10.890  0.3400 -1.1395  0.7609
  472MOL0     H63692   8.057   2.614  11.146  1.5605  1.3122 -0.0285
  472MOL0     H63693   8.056   2.715  11.005  1.5266  1.3766  1.5127
  472MOL0     H63694   7.976   2.519  10.869 -2.2930 -2.3302  1.1633
  472MOL0     H63695   7.862   2.567  10.996 -2.2159 -1.1107 -2.8720
  472MOL0     H63696   8.056   2.329  10.976 -1.4821 -1.0967 -0.9068
  472MOL0     H63697   7.992   2.378  11.136 -0.8859  1.7590  0.2098
  472MOL0     H63698   7.859   2.199  10.980 -1.9176 -0.7670 -2.0132
  472MOL0     H63699   7.831   2.338  10.882 -2.5588 -2.4897  0.1327
  472MOL0     H63700   7.634   2.308  11.045 -0.2009  3.3572 -0.8667
  472MOL0     H63701   7.737   2.435  11.113 -0.8069  0.1643  2.4652
  472MOL0     H63702   8.589   3.016  10.994 -2.1486 -1.7896 -0.0948
  472MOL0     H63703   8.704   3.149  10.827  2.3438  0.6345  1.8176
  472MOL0     H63704   8.880   3.335  10.595  0.1031  1.6683 -0.2530
  472MOL0     H63705   9.003   3.509  10.457 -2.6997  0.3108  1.5981
  472MOL0     H63706   8.273   4.498  10.344 -0.0983 -0.5302  2.0130
  472MOL0     H63707   8.113   4.430  10.541 -1.6242 -2.1513  1.1056
  472MOL0     H63708   8.073   3.894  10.869 -0.8571 -2.1842  0.7837
  472MOL0     H63709   7.898   3.841  11.031  0.1774 -0.9169 -0.7632
  472MOL0     H63710   7.547   4.131  11.101 -1.9683  0.5746 -1.7548
  472MOL0     H63711   7.490   4.017  10.974  2.4705  1.8150 -2.2879
  472MOL0     H63712   7.518   3.978  11.273  1.9611  3.2486 -1.1626
  472MOL0     H63713   7.473   3.845  11.151 -1.9776 -0.1560 -2.6863
  472MOL0     H63714   7.278   3.975  11.084  3.4067  1.5748 -1.7978
  472MOL0     H63715   7.320   4.109  11.199  1.2936 -0.0246  0.4172
  472MOL0     H63716   7.284   3.937  11.385 -2.0833 -0.6743  0.4230
  472MOL0     H63717   7.234   3.823  11.259  2.9797 -0.6894 -0.6713
  472MOL0     H63718   6.908   4.098  11.314 -0.0498  0.6122  0.4032
  472MOL0     H63719   7.676   4.190  10.903 -1.4633 -1.7524 -1.0698
  472MOL0     H63720   7.848   4.236  10.740  0.8425  1.2644  1.8824
  473MOL0     O63721   1.807   2.881   8.008  0.2252 -0.0568 -0.1670
  473MOL0     C63722   1.725   2.925   8.084  0.6531  0.0097 -0.3481
  473MOL0     O63723   1.652   3.046   8.068 -0.1538  0.3897 -0.9711
  473MOL0     C63724   1.665   3.130   7.951  0.6421  0.6404 -0.0361
  473MOL0     C63725   1.738   3.116   7.831 -0.2292  0.2566  0.4032
  473MOL0     C63726   1.730   3.210   7.724 -0.2799  0.0450 -0.1389
  473MOL0     C63727   1.645   3.324   7.725 -0.0131 -0.0653  0.0730
  473MOL0     O63728   1.621   3.403   7.614 -0.0903 -1.1931 -0.7290
  473MOL0     C63729   1.710   3.402   7.505  0.1173  0.0787 -0.7771
  473MOL0     C63730   1.673   3.287   7.406  0.1643  0.1894  0.5809
  473MOL0     C63731   1.760   3.288   7.288 -0.0824 -0.5083 -0.2668
  473MOL0     C63732   1.747   3.159   7.198  0.2521  0.7518 -0.2025
  473MOL0     C63733   1.804   3.192   7.065 -0.3397 -0.1553 -0.3021
  473MOL0     C63734   1.814   3.062   6.984 -0.2364  0.5965  0.1372
  473MOL0     C63735   1.917   2.959   7.028  0.5279  0.9485  0.1107
  473MOL0     C63736   1.895   2.840   6.946  0.8562  0.2123 -0.3416
  473MOL0     N63737   1.785   2.751   7.008 -0.7058 -0.0208 -0.1045
  473MOL0     C63738   1.811   2.650   7.096  0.3762  0.1917  0.3581
  473MOL0     C63739   1.689   2.599   7.119  0.1450 -0.0155  0.4216
  473MOL0     C63740   1.645   2.483   7.207  0.1800  0.2015  0.3105
  473MOL0     C63741   1.616   2.534   7.350 -0.5175 -0.5932  0.9456
  473MOL0     C63742   1.564   2.433   7.452 -0.8669 -0.8761  0.2444
  473MOL0     C63743   1.466   2.491   7.552 -0.7195 -0.2860  0.3566
  473MOL0     O63744   1.535   2.566   7.658 -1.0401 -0.8349 -1.4395
  473MOL0     C63745   1.452   2.619   7.758 -0.6677  0.4555 -0.3462
  473MOL0     C63746   1.313   2.600   7.770  0.1660  0.2389  0.0722
  473MOL0     C63747   1.247   2.656   7.877 -1.1126  0.1344  0.5301
  473MOL0     C63748   1.100   2.621   7.891 -0.1402  0.4050 -0.4713
  473MOL0     C63749   1.318   2.742   7.962  0.5917 -1.6894  0.0489
  473MOL0     C63750   1.254   2.811   8.082  0.2506  0.4103 -0.0466
  473MOL0     O63751   1.332   2.891   8.158  0.0108  0.0532 -0.0580
  473MOL0     C63752   1.286   2.940   8.281  0.5357  0.4413 -0.0474
  473MOL0     C63753   1.279   3.074   8.306 -1.2196 -0.6099  0.2494
  473MOL0     C63754   1.210   3.126   8.423  1.2309 -0.2392 -0.1332
  473MOL0     C63755   1.147   3.033   8.512  0.2207  0.3784  0.1480
  473MOL0     O63756   1.089   3.083   8.619 -0.0099  0.1190  0.1176
  473MOL0     C63757   1.004   2.996   8.706 -0.2437 -0.7847  0.0610
  473MOL0     C63758   0.937   3.091   8.807  0.6289 -0.2862 -0.1742
  473MOL0     C63759   0.832   3.179   8.734 -0.0560  0.1810  0.0270
  473MOL0     C63760   0.776   3.284   8.833 -0.8764  0.0586  0.4235
  473MOL0     C63761   0.853   3.412   8.850  0.2962  0.0380 -0.5631
  473MOL0     C63762   0.760   3.522   8.902 -0.7556 -0.0464  0.0255
  473MOL0     C63763   0.847   3.655   8.890  0.5566 -0.9798 -0.0809
  473MOL0     C63764   0.765   3.778   8.904 -0.0951 -0.0459 -0.6095
  473MOL0    Cl63765   0.654   3.807   8.769 -0.0169 -0.1078 -0.5241
  473MOL0     C63766   1.167   2.900   8.492 -0.5728  0.6059  0.0797
  473MOL0     C63767   1.235   2.857   8.380  0.3890 -0.1152  0.3767
  473MOL0     O63768   1.141   2.783   8.106  0.0325  0.0944 -0.4957
  473MOL0     C63769   1.449   2.758   7.956 -0.1616 -0.2368 -0.8318
  473MOL0     C63770   1.515   2.701   7.846  0.0319 -0.0229 -0.5155
  473MOL0     N63771   1.598   2.663   7.046  0.3641 -0.2678  0.2028
  473MOL0     N63772   1.650   2.754   6.972  0.0678 -0.5395  0.0493
  473MOL0     C63773   1.567   3.333   7.844  0.0323 -0.0215  0.4709
  473MOL0     C63774   1.580   3.247   7.955 -0.9756  0.0482 -0.2431
  473MOL0     C63775   1.711   2.851   8.205  0.2368 -0.5854  0.6356
  473MOL0     C63776   1.791   2.736   8.234 -0.1050  0.7990 -0.1756
  473MOL0     C63777   1.773   2.678   8.359 -0.2891  0.2761  0.2570
  473MOL0     C63778   1.674   2.724   8.448 -0.3153 -1.0391  0.8342
  473MOL0     O63779   1.667   2.676   8.573 -0.5677 -0.6603 -0.0426
  473MOL0     C63780   1.667   2.531   8.588  0.1938  0.5554  0.0744
  473MOL0     C63781   1.589   2.454   8.475 -0.4855  0.4843  0.0427
  473MOL0     C63782   1.550   2.315   8.526  0.1787  0.2933 -0.0439
  473MOL0     C63783   1.661   2.209   8.520  0.6093  0.4888  0.0635
  473MOL0     C63784   1.710   2.197   8.657  1.3970  0.2152  0.5937
  473MOL0     C63785   1.773   2.206   8.753  0.5520 -0.1382 -0.4969
  473MOL0     C63786   1.605   2.843   8.421  0.1820 -0.7679  0.5627
  473MOL0     C63787   1.616   2.900   8.293  0.0636  0.0630  0.4591
  473MOL0     H63788   1.784   3.019   7.818  2.9484  1.8388 -1.3209
  473MOL0     H63789   1.795   3.190   7.639  0.0137  4.5019 -1.2188
  473MOL0     H63790   1.706   3.496   7.449  1.3859  0.5972 -0.0616
  473MOL0     H63791   1.814   3.386   7.535  0.5847  4.2716  0.5330
  473MOL0     H63792   1.684   3.190   7.455  1.6775 -0.0598 -0.1798
  473MOL0     H63793   1.568   3.282   7.377  0.2198 -1.3136  0.5432
  473MOL0     H63794   1.743   3.365   7.212  3.4573 -1.5873 -2.4082
  473MOL0     H63795   1.863   3.307   7.318 -0.4482  0.7237  0.2829
  473MOL0     H63796   1.790   3.069   7.243  0.9978  0.3789 -1.6264
  473MOL0     H63797   1.642   3.136   7.178  0.7015 -0.7386 -1.0634
  473MOL0     H63798   1.755   3.278   7.018 -0.4424  0.1502  0.3494
  473MOL0     H63799   1.909   3.220   7.078 -0.3397 -0.0495 -0.5336
  473MOL0     H63800   1.711   3.023   6.981  0.0242 -0.0462 -2.1440
  473MOL0     H63801   1.834   3.093   6.881 -0.1100 -1.3687 -0.4749
  473MOL0     H63802   2.017   2.997   7.004  0.6768  0.1037 -0.6375
  473MOL0     H63803   1.921   2.938   7.135  2.1498 -0.5441 -0.1967
  473MOL0     H63804   1.987   2.782   6.940  0.5431 -1.1296  4.0670
  473MOL0     H63805   1.865   2.868   6.845  1.7161 -2.1688 -1.3277
  473MOL0     H63806   1.905   2.615   7.137 -0.1178  0.2419  1.5875
  473MOL0     H63807   1.554   2.440   7.162  1.1737 -2.0141  0.2676
  473MOL0     H63808   1.711   2.396   7.209 -1.9385 -1.4891  0.6196
  473MOL0     H63809   1.539   2.612   7.352 -0.1826 -0.2662  2.6078
  473MOL0     H63810   1.708   2.586   7.381  1.1074 -2.1488 -0.9920
  473MOL0     H63811   1.653   2.379   7.484  2.2303  2.3255 -2.3049
  473MOL0     H63812   1.503   2.363   7.394 -2.6395  0.3994  0.4653
  473MOL0     H63813   1.424   2.410   7.612  0.7288 -0.0114  1.8148
  473MOL0     H63814   1.392   2.546   7.495 -0.0794 -0.0357 -0.2523
  473MOL0     H63815   1.267   2.562   7.679 -0.8100  2.4854 -0.4378
  473MOL0     H63816   1.052   2.611   7.989 -1.7836 -1.0105 -1.3557
  473MOL0     H63817   1.049   2.700   7.836 -3.4541 -1.1139  0.1443
  473MOL0     H63818   1.084   2.531   7.831 -1.0339 -1.1004  1.8925
  473MOL0     H63819   1.313   3.145   8.232 -3.2209 -0.0445 -0.1866
  473MOL0     H63820   1.213   3.234   8.435  3.5285 -0.1227 -1.1751
  473MOL0     H63821   0.922   2.946   8.654 -2.4717  3.6409 -1.1566
  473MOL0     H63822   1.068   2.928   8.764  1.6424  1.0566  0.2902
  473MOL0     H63823   0.881   3.031   8.879 -2.7288  0.5017 -1.9546
  473MOL0     H63824   1.012   3.156   8.853 -0.2142 -1.4571  3.1122
  473MOL0     H63825   0.748   3.114   8.706  0.8227 -0.7595 -0.5095
  473MOL0     H63826   0.867   3.235   8.648 -3.8668 -0.5095 -2.2359
  473MOL0     H63827   0.677   3.300   8.789 -1.5377 -2.3891  0.8598
  473MOL0     H63828   0.757   3.237   8.930 -1.4471 -4.7539 -1.7621
  473MOL0     H63829   0.899   3.440   8.754 -1.0543 -2.8620 -2.1934
  473MOL0     H63830   0.934   3.400   8.922  1.4639 -0.3909 -1.8862
  473MOL0     H63831   0.666   3.531   8.848  1.0916 -0.3791 -3.5292
  473MOL0     H63832   0.748   3.498   9.008 -2.0875 -2.9204 -0.6827
  473MOL0     H63833   0.881   3.653   8.786 -2.9848  0.2643 -1.4375
  473MOL0     H63834   0.933   3.651   8.957 -0.7765 -1.5522  1.7076
  473MOL0     H63835   0.837   3.860   8.913 -0.6432  0.3778 -0.0230
  473MOL0     H63836   0.702   3.782   8.993 -3.1016  1.5887 -2.6278
  473MOL0     H63837   1.125   2.820   8.552  0.6559  0.9386  1.4376
  473MOL0     H63838   1.253   2.753   8.358  0.4276 -0.2254  0.9166
  473MOL0     H63839   1.495   2.824   8.028 -4.7216  2.6741 -0.2246
  473MOL0     H63840   1.620   2.718   7.824  0.2298 -2.0634 -1.3575
  473MOL0     H63841   1.485   3.403   7.854 -2.4567 -2.2093 -2.4872
  473MOL0     H63842   1.515   3.260   8.041 -2.1199 -0.1160 -1.0583
  473MOL0     H63843   1.875   2.700   8.175  0.7266  2.2537  0.0846
  473MOL0     H63844   1.828   2.589   8.389  1.3546  1.0598 -0.3284
  473MOL0     H63845   1.771   2.505   8.609  1.5429  3.6553 -1.9695
  473MOL0     H63846   1.602   2.534   8.676  0.0005 -0.9672  0.0030
  473MOL0     H63847   1.642   2.443   8.380  0.2679 -1.1123  0.6107
  473MOL0     H63848   1.493   2.502   8.457 -0.7252  0.7214  1.7813
  473MOL0     H63849   1.474   2.286   8.452 -2.0153  4.3145  0.3493
  473MOL0     H63850   1.492   2.323   8.619  0.2250  2.1768 -0.1411
  473MOL0     H63851   1.741   2.253   8.460  0.6369 -0.1370 -0.3744
  473MOL0     H63852   1.629   2.110   8.485  2.0378  1.0259 -3.0452
  473MOL0     H63853   1.840   2.225   8.834  1.9630  0.5703 -1.7671
  473MOL0     H63854   1.541   2.887   8.497  0.0618  0.8003 -0.4027
  473MOL0     H63855   1.548   2.980   8.265 -1.3187 -2.1708 -3.3767
  474MOL0     O63856  10.659   0.871   8.127  0.5834  0.1628  0.5559
  474MOL0     C63857  10.534   0.857   8.112  0.4589  0.3866  0.1522
  474MOL0     O63858  10.474   0.819   7.995  0.6732  0.3040  0.7300
  474MOL0     C63859  10.564   0.799   7.890 -0.2804 -0.1535 -0.2486
  474MOL0     C63860  10.616   0.669   7.864  0.2235  0.3454 -0.4486
  474MOL0     C63861  10.708   0.652   7.765  0.0648 -0.0268 -0.1297
  474MOL0     C63862  10.760   0.764   7.690 -0.2686 -0.1211 -0.7071
  474MOL0     O63863  10.849   0.754   7.580  0.0572 -0.1187  0.4687
  474MOL0     C63864  10.891   0.634   7.530  0.0357 -0.2852 -0.0613
  474MOL0     C63865  10.980   0.656   7.417  0.2789 -0.7280  0.6389
  474MOL0     C63866  10.921   0.713   7.283  0.0504 -0.0817 -0.4511
  474MOL0     C63867  11.028   0.712   7.178 -0.2026 -0.3699  0.7650
  474MOL0     C63868  10.989   0.800   7.052 -0.7355 -0.8116 -0.6438
  474MOL0     C63869  10.859   0.749   6.982  0.2321 -0.1880  0.1856
  474MOL0     C63870  10.861   0.821   6.843 -0.6659 -0.5734  0.0209
  474MOL0     C63871  10.734   0.798   6.766 -0.0037  0.3650  0.1688
  474MOL0     N63872  10.709   0.874   6.644 -0.7540 -0.5184 -0.3517
  474MOL0     C63873  10.798   0.915   6.552  0.7721 -0.7423  0.4839
  474MOL0     C63874  10.729   0.976   6.451 -0.0894  0.9535  0.3428
  474MOL0     C63875  10.812   1.040   6.338  0.5898  0.3247 -0.8076
  474MOL0     C63876  10.734   1.129   6.244 -0.7852 -0.3441 -0.6275
  474MOL0     C63877  10.691   1.254   6.328  0.2392 -0.1525 -0.3325
  474MOL0     C63878  10.565   1.308   6.268  0.6619  1.0505 -0.0304
  474MOL0     O63879  10.572   1.448   6.283 -0.5147  0.3232 -0.8746
  474MOL0     C63880  10.478   1.522   6.218 -0.2429  0.2439 -0.2965
  474MOL0     C63881  10.509   1.657   6.222  0.9536  0.4998 -0.1541
  474MOL0     C63882  10.428   1.753   6.154 -0.3700  0.6859  0.6903
  474MOL0     C63883  10.477   1.888   6.152  0.8624  0.1477 -0.1910
  474MOL0     C63884  10.303   1.700   6.099 -0.3170  1.3138  0.2343
  474MOL0     C63885  10.206   1.787   6.040  0.0157 -0.3973  0.2080
  474MOL0     O63886  10.193   1.919   6.057  0.0410  0.0781 -0.0568
  474MOL0     C63887  10.079   1.991   6.011 -0.2632 -0.7301 -0.3235
  474MOL0     C63888  10.080   2.093   5.920  0.5511  0.7305  0.1097
  474MOL0     C63889   9.955   2.150   5.871 -0.4469  0.8283  0.0823
  474MOL0     C63890   9.834   2.119   5.942 -0.5596 -1.4739  0.0249
  474MOL0     O63891   9.726   2.202   5.911 -0.4060  0.6943  0.3595
  474MOL0     C63892   9.615   2.203   6.000  0.1672  0.1800 -0.7339
  474MOL0     C63893   9.502   2.294   5.936  0.8592  0.6659  0.1689
  474MOL0     C63894   9.462   2.241   5.801  0.9722 -0.6676  0.1237
  474MOL0     C63895   9.325   2.305   5.767 -0.0766 -0.7557  0.1692
  474MOL0     C63896   9.329   2.456   5.743  0.4350  0.1846 -0.4578
  474MOL0     C63897   9.436   2.506   5.642 -0.2616  0.0613  0.4532
  474MOL0     C63898   9.413   2.653   5.613  0.3997  0.8036  0.2925
  474MOL0     C63899   9.532   2.708   5.534 -0.6575 -1.1908 -0.4234
  474MOL0    Cl63900   9.518   2.628   5.378 -0.1053 -0.3234  0.0662
  474MOL0     C63901   9.830   2.022   6.044  0.1883 -0.7636 -0.0078
  474MOL0     C63902   9.950   1.956   6.063  1.1404  0.0627  0.1821
  474MOL0     O63903  10.138   1.728   5.960  0.5248  0.3199  0.2426
  474MOL0     C63904  10.271   1.566   6.112  0.6336 -0.3269 -0.3214
  474MOL0     C63905  10.353   1.470   6.162  0.5859  0.0503 -1.0916
  474MOL0     N63906  10.594   0.960   6.476 -0.4914 -0.2173 -0.1386
  474MOL0     N63907  10.583   0.892   6.592 -0.2443  0.0129  0.4484
  474MOL0     C63908  10.712   0.896   7.728  0.0973 -0.0716 -0.2030
  474MOL0     C63909  10.611   0.909   7.817  0.1953 -0.3931  0.6950
  474MOL0     C63910  10.458   0.852   8.236 -0.5120  0.3732 -0.0179
  474MOL0     C63911  10.314   0.845   8.231  0.1445  0.0996 -0.0304
  474MOL0     C63912  10.232   0.845   8.338  0.4401 -0.3633 -0.4936
  474MOL0     C63913  10.287   0.862   8.464  0.1694 -0.6836 -0.5027
  474MOL0     O63914  10.193   0.884   8.567  0.5325 -0.2702 -0.0619
  474MOL0     C63915  10.185   0.767   8.652 -0.3018 -0.5403 -0.0200
  474MOL0     C63916  10.048   0.758   8.718  0.4999  0.0655 -0.2293
  474MOL0     C63917  10.042   0.618   8.789  0.2609  0.4656  0.2886
  474MOL0     C63918   9.912   0.579   8.855 -0.7874 -0.3754  0.7999
  474MOL0     C63919   9.876   0.649   8.975 -0.2274 -0.0586  0.4538
  474MOL0     C63920   9.830   0.687   9.080  0.0011  0.7701 -0.3820
  474MOL0     C63921  10.426   0.877   8.476  0.1434  0.4393  0.5910
  474MOL0     C63922  10.504   0.868   8.365 -0.8173 -0.0881 -1.1399
  474MOL0     H63923  10.570   0.589   7.922  0.8488 -1.6465 -2.5391
  474MOL0     H63924  10.732   0.550   7.737  1.4472  0.4492 -0.7860
  474MOL0     H63925  10.948   0.572   7.599 -1.4080  0.0995  1.5540
  474MOL0     H63926  10.804   0.570   7.509 -0.6221  0.6780 -0.3631
  474MOL0     H63927  11.056   0.728   7.447 -1.2488  2.1425 -1.7754
  474MOL0     H63928  11.027   0.563   7.383  0.3714 -0.8698  1.1537
  474MOL0     H63929  10.844   0.639   7.259  0.6195 -1.1948  1.0063
  474MOL0     H63930  10.863   0.806   7.281 -0.1651 -0.2074 -0.1418
  474MOL0     H63931  11.126   0.753   7.203  0.5845 -0.0635 -2.4083
  474MOL0     H63932  11.058   0.612   7.144  1.9795  0.6791 -0.6246
  474MOL0     H63933  10.985   0.907   7.076  1.5297 -0.7233 -0.4518
  474MOL0     H63934  11.070   0.791   6.979  0.6139  2.0449  0.3598
  474MOL0     H63935  10.857   0.640   6.976  2.1269 -0.1818 -1.9273
  474MOL0     H63936  10.788   0.797   7.050  0.9565 -0.5143  1.1868
  474MOL0     H63937  10.868   0.928   6.862  2.5072  0.0069 -3.2702
  474MOL0     H63938  10.944   0.792   6.778  2.2939  4.2128  1.1865
  474MOL0     H63939  10.646   0.793   6.831 -1.3673 -1.7079 -1.7052
  474MOL0     H63940  10.762   0.697   6.735  0.3219 -0.2020  2.1919
  474MOL0     H63941  10.906   0.916   6.558  0.8150 -1.9788  0.1891
  474MOL0     H63942  10.875   1.111   6.391  0.3675  0.7227 -1.0667
  474MOL0     H63943  10.872   0.969   6.280  1.0780  1.0526 -1.2114
  474MOL0     H63944  10.658   1.068   6.194  0.6961 -0.6720 -2.5767
  474MOL0     H63945  10.801   1.171   6.169 -0.3615  1.0454  0.4927
  474MOL0     H63946  10.773   1.327   6.329  1.0788 -1.0869  0.1456
  474MOL0     H63947  10.667   1.223   6.430  2.3840 -2.6327 -0.4927
  474MOL0     H63948  10.473   1.271   6.315 -0.5718  1.8282 -1.6922
  474MOL0     H63949  10.554   1.280   6.162  3.4497  2.3644 -0.7455
  474MOL0     H63950  10.599   1.689   6.273  3.6906 -0.4495 -3.9804
  474MOL0     H63951  10.446   1.929   6.055 -0.1683  0.7874  0.3823
  474MOL0     H63952  10.426   1.940   6.234  0.7131 -0.1048 -0.1209
  474MOL0     H63953  10.585   1.897   6.150  0.8671  0.0937 -0.2409
  474MOL0     H63954  10.175   2.106   5.869  0.9970  2.5466  1.3249
  474MOL0     H63955   9.959   2.204   5.777  0.4982 -1.5220 -1.3169
  474MOL0     H63956   9.570   2.105   6.019  0.8979 -0.2994 -1.3980
  474MOL0     H63957   9.654   2.242   6.095 -1.3266 -0.7545  0.2963
  474MOL0     H63958   9.414   2.282   6.000  1.1939  0.7384  0.6475
  474MOL0     H63959   9.533   2.399   5.944 -0.9847  1.1691  1.2309
  474MOL0     H63960   9.437   2.135   5.813 -1.5301 -0.1544 -0.1222
  474MOL0     H63961   9.531   2.254   5.716  0.1601  0.5910 -0.3684
  474MOL0     H63962   9.306   2.255   5.671 -3.6298  0.4844  0.0669
  474MOL0     H63963   9.257   2.282   5.849  2.1407 -2.3717  1.6647
  474MOL0     H63964   9.346   2.520   5.830 -1.1402  1.3567 -0.9665
  474MOL0     H63965   9.232   2.497   5.714 -1.5566 -1.3805  3.3171
  474MOL0     H63966   9.535   2.490   5.686 -1.1415  1.9631  3.4265
  474MOL0     H63967   9.432   2.436   5.558  3.9376  1.1146 -0.8202
  474MOL0     H63968   9.411   2.705   5.709  1.0198 -0.7926  1.2074
  474MOL0     H63969   9.314   2.658   5.567 -0.0615 -1.0095  1.0005
  474MOL0     H63970   9.629   2.696   5.584  0.5443  2.8732 -1.4004
  474MOL0     H63971   9.536   2.814   5.510 -2.6710 -1.3906 -1.8836
  474MOL0     H63972   9.740   1.991   6.096 -1.0765 -0.4685 -1.9431
  474MOL0     H63973   9.973   1.883   6.139  4.3017 -0.3159 -0.9985
  474MOL0     H63974  10.174   1.522   6.088 -0.1945  0.7270  0.9286
  474MOL0     H63975  10.316   1.369   6.172 -3.3808  1.5074  1.5680
  474MOL0     H63976  10.737   0.973   7.656  0.6079 -0.6702 -0.6809
  474MOL0     H63977  10.563   1.003   7.840 -1.7770 -1.5495  1.6299
  474MOL0     H63978  10.270   0.831   8.133  2.3324 -0.0620 -1.0501
  474MOL0     H63979  10.125   0.839   8.320 -0.0064  3.1129  0.4280
  474MOL0     H63980  10.205   0.672   8.602 -4.8608 -1.5708 -0.2583
  474MOL0     H63981  10.253   0.782   8.737 -2.4217 -0.1230  1.6718
  474MOL0     H63982   9.968   0.762   8.643 -0.2237 -0.5529  0.4958
  474MOL0     H63983  10.022   0.838   8.788 -0.0253 -0.0518 -0.2912
  474MOL0     H63984  10.116   0.614   8.870 -0.2683 -1.5377  0.7211
  474MOL0     H63985  10.071   0.539   8.719  3.8326  0.6353  1.3682
  474MOL0     H63986   9.938   0.477   8.884  3.1623 -0.7688 -3.1214
  474MOL0     H63987   9.833   0.583   8.779  0.2947  1.5967 -0.3100
  474MOL0     H63988   9.778   0.701   9.172  0.5723  1.1745 -0.1213
  474MOL0     H63989  10.477   0.878   8.572 -0.5645 -0.2417  0.9836
  474MOL0     H63990  10.609   0.876   8.390 -0.9300  0.4888 -0.8484
  475MOL0     O63991   8.617  10.223   8.542 -0.0580 -0.0662  0.6143
  475MOL0     C63992   8.678  10.325   8.594 -0.2146 -0.1966  0.2598
  475MOL0     O63993   8.785  10.321   8.674  0.1956  0.4846 -0.1390
  475MOL0     C63994   8.855  10.204   8.672 -0.2591 -0.3164 -0.2713
  475MOL0     C63995   8.889  10.153   8.799 -0.4512  0.2021 -0.9973
  475MOL0     C63996   8.970  10.038   8.808  0.2675  0.0540 -0.0501
  475MOL0     C63997   9.034   9.989   8.693 -0.2426  0.4565 -0.0221
  475MOL0     O63998   9.132   9.891   8.707 -0.0315  0.1791  0.5603
  475MOL0     C63999   9.136   9.785   8.608  0.8752  0.0524 -0.6102
  475MOL0     C64000   9.214   9.658   8.659 -0.4590 -0.0440 -0.2565
  475MOL0     C64001   9.161   9.610   8.790  0.4946  0.0089 -0.0283
  475MOL0     C64002   9.193   9.459   8.816  0.6645 -1.2611 -0.1667
  475MOL0     C64003   9.342   9.445   8.839 -0.9678  0.3289 -0.2939
  475MOL0     C64004   9.375   9.300   8.878 -0.2075  0.5392 -0.0249
  475MOL0     C64005   9.369   9.208   8.743  0.2290  0.2676 -1.0972
  475MOL0     C64006   9.435   9.059   8.753  0.6214  0.5589  0.7158
  475MOL0     N64007   9.427   8.989   8.879  0.2336 -0.5170 -0.0874
  475MOL0     C64008   9.313   8.950   8.948 -0.1333 -0.0589  0.7075
  475MOL0     C64009   9.367   8.869   9.052  0.7930 -0.2293 -0.3242
  475MOL0     C64010   9.281   8.787   9.149 -0.5389  0.4851 -0.6748
  475MOL0     C64011   9.241   8.654   9.090 -0.0743 -0.1174  0.7696
  475MOL0     C64012   9.190   8.561   9.194 -0.3998  0.3076  0.4584
  475MOL0     C64013   9.107   8.447   9.134  0.4251  0.1105  0.4208
  475MOL0     O64014   9.195   8.361   9.055  0.2020 -0.3656 -0.4184
  475MOL0     C64015   9.256   8.259   9.122  0.5560 -0.5633  1.2388
  475MOL0     C64016   9.336   8.178   9.042  0.0735 -0.0209 -0.2618
  475MOL0     C64017   9.400   8.067   9.093 -0.3131  0.4468 -1.5940
  475MOL0     C64018   9.501   7.992   9.009 -0.6615 -0.7415 -0.7304
  475MOL0     C64019   9.393   8.031   9.232  0.4694  0.6687  0.3005
  475MOL0     C64020   9.448   7.901   9.291 -0.6000  0.2861  0.2855
  475MOL0     O64021   9.514   7.813   9.220  0.3402 -0.7138  0.4360
  475MOL0     C64022   9.497   7.676   9.250 -0.9699  0.7242 -0.4750
  475MOL0     C64023   9.397   7.591   9.196  1.0564 -0.9907 -1.0834
  475MOL0     C64024   9.403   7.456   9.211  0.2915  0.1530 -0.9032
  475MOL0     C64025   9.507   7.400   9.277  0.4970 -0.5010 -0.2668
  475MOL0     O64026   9.496   7.263   9.283  0.0768 -0.6120  0.4369
  475MOL0     C64027   9.614   7.189   9.318 -0.1668  0.8368  0.1516
  475MOL0     C64028   9.579   7.040   9.326  0.0348  0.2479 -0.3723
  475MOL0     C64029   9.547   6.974   9.192 -0.2401  0.2961  0.2045
  475MOL0     C64030   9.537   6.820   9.183  0.4593 -0.3142 -0.0795
  475MOL0     C64031   9.519   6.734   9.306  0.1218 -0.5257  0.7000
  475MOL0     C64032   9.512   6.583   9.301  0.6877 -0.4469  0.8889
  475MOL0     C64033   9.520   6.507   9.431  0.2098 -0.1779 -0.0587
  475MOL0     C64034   9.429   6.537   9.550 -0.7749  0.2845  0.5233
  475MOL0    Cl64035   9.253   6.496   9.496 -0.1086 -0.1964 -0.3945
  475MOL0     C64036   9.604   7.485   9.340  0.3144 -0.6004 -0.3047
  475MOL0     C64037   9.607   7.618   9.316  0.0399 -0.7793  0.2889
  475MOL0     O64038   9.406   7.877   9.401 -1.5262  0.3385  0.0096
  475MOL0     C64039   9.329   8.125   9.311  0.7477  0.2220 -0.2125
  475MOL0     C64040   9.259   8.241   9.261  0.4075  1.4922  0.1603
  475MOL0     N64041   9.501   8.876   9.046  0.5367 -1.3093 -0.0740
  475MOL0     N64042   9.540   8.941   8.938  0.0963  0.8031  0.6620
  475MOL0     C64043   8.994  10.039   8.568  0.4909  0.4319  0.6094
  475MOL0     C64044   8.917  10.153   8.553  0.1852 -0.5336 -0.9020
  475MOL0     C64045   8.633  10.457   8.567 -0.4017 -0.4124  0.5173
  475MOL0     C64046   8.677  10.569   8.639  0.4552 -1.1951  0.2303
  475MOL0     C64047   8.642  10.704   8.603  0.2724  0.4822 -0.2425
  475MOL0     C64048   8.566  10.726   8.486 -0.5459  0.6594 -0.0108
  475MOL0     O64049   8.533  10.859   8.446 -0.2898 -0.3492 -0.6845
  475MOL0     C64050   8.636  10.953   8.413  0.4219  0.1110 -1.1095
  475MOL0     C64051   8.579  11.092   8.414 -0.2796 -0.4415 -0.8543
  475MOL0     C64052   8.549  11.160   8.549 -0.0296 -0.0753 -0.8870
  475MOL0     C64053   8.416  11.126   8.618  0.1320 -0.3475  0.3028
  475MOL0     C64054   8.387  11.188   8.753  0.4792 -0.0285 -0.0215
  475MOL0     C64055   8.350  11.224   8.862  0.0372  0.7807  0.4251
  475MOL0     C64056   8.506  10.608   8.427 -0.1495 -0.1782 -0.0234
  475MOL0     C64057   8.542  10.486   8.464 -0.5140  0.2484  0.0319
  475MOL0     H64058   8.857  10.201   8.891  3.4282  1.9739 -0.3835
  475MOL0     H64059   8.993   9.995   8.905  0.3944 -0.3452 -0.2519
  475MOL0     H64060   9.029   9.763   8.596  0.3662  1.7319  0.4752
  475MOL0     H64061   9.174   9.820   8.511  0.2263 -1.4427 -1.4496
  475MOL0     H64062   9.202   9.591   8.573 -2.3219  0.8848 -0.7836
  475MOL0     H64063   9.320   9.680   8.678 -0.2129 -1.2201 -0.2261
  475MOL0     H64064   9.178   9.683   8.869 -0.8332  1.1983 -0.8024
  475MOL0     H64065   9.052   9.610   8.785  0.3992 -0.7807  1.4623
  475MOL0     H64066   9.140   9.416   8.901  1.8956 -0.7227  0.9088
  475MOL0     H64067   9.162   9.405   8.726 -0.6970  1.8395 -1.7224
  475MOL0     H64068   9.405   9.474   8.754 -0.8577 -2.7390 -1.3938
  475MOL0     H64069   9.372   9.506   8.925 -0.3027  1.2141 -1.1222
  475MOL0     H64070   9.474   9.277   8.918 -1.6095 -2.2769  2.1998
  475MOL0     H64071   9.307   9.264   8.955  1.5702 -0.0246  1.3631
  475MOL0     H64072   9.262   9.186   8.734  0.5120 -1.5449 -0.6040
  475MOL0     H64073   9.420   9.265   8.665  0.8902  0.6823 -0.3728
  475MOL0     H64074   9.541   9.060   8.728  1.2058 -0.8716  2.8541
  475MOL0     H64075   9.383   8.996   8.680  2.2964 -1.6559  1.3351
  475MOL0     H64076   9.211   8.959   8.912  0.7454 -2.3928 -2.9577
  475MOL0     H64077   9.351   8.760   9.229 -2.0813 -1.9938 -0.0489
  475MOL0     H64078   9.195   8.838   9.192 -0.2414  0.1735  0.3126
  475MOL0     H64079   9.334   8.615   9.046  1.1814  0.6232  2.6365
  475MOL0     H64080   9.161   8.664   9.016  0.1401 -4.7637 -0.4308
  475MOL0     H64081   9.121   8.623   9.252  0.1796  0.9504  0.4648
  475MOL0     H64082   9.268   8.525   9.262 -3.3627 -0.8721  3.5000
  475MOL0     H64083   9.037   8.486   9.059 -1.2524 -3.6593 -0.1850
  475MOL0     H64084   9.041   8.405   9.210 -1.1349  3.5641  1.1980
  475MOL0     H64085   9.336   8.206   8.937  3.6573  1.1541 -0.0904
  475MOL0     H64086   9.598   7.986   9.059  0.0487  0.4798 -1.8677
  475MOL0     H64087   9.463   7.892   8.990 -3.3440  0.0716 -0.0040
  475MOL0     H64088   9.518   8.046   8.915  1.3957  2.2256  1.1350
  475MOL0     H64089   9.316   7.637   9.140 -0.5197  0.1910  1.9082
  475MOL0     H64090   9.325   7.390   9.174 -0.3320 -0.5733  1.4902
  475MOL0     H64091   9.700   7.202   9.252  0.5620  0.1790  0.9580
  475MOL0     H64092   9.664   7.216   9.411  1.6170 -6.0516  1.7208
  475MOL0     H64093   9.657   6.982   9.376  0.5206 -1.8742 -3.3472
  475MOL0     H64094   9.497   7.041   9.399  0.4890 -1.4265  0.2121
  475MOL0     H64095   9.625   6.996   9.119 -0.7436  0.9949 -0.1335
  475MOL0     H64096   9.458   7.024   9.152  0.2960  0.2727 -1.0598
  475MOL0     H64097   9.460   6.788   9.112  0.7878 -3.1327  0.7019
  475MOL0     H64098   9.632   6.776   9.149  0.1038 -0.4250 -0.9487
  475MOL0     H64099   9.427   6.767   9.355 -0.5364 -3.0252  1.2990
  475MOL0     H64100   9.601   6.749   9.376 -0.8658 -1.8089  2.1970
  475MOL0     H64101   9.426   6.541   9.249  1.6123 -2.0936  0.6115
  475MOL0     H64102   9.596   6.550   9.239 -0.6234 -2.1155 -0.0656
  475MOL0     H64103   9.610   6.505   9.493 -0.8434 -1.6608  1.5097
  475MOL0     H64104   9.502   6.408   9.389 -2.8935  1.6061 -3.3972
  475MOL0     H64105   9.448   6.630   9.605 -2.0049  0.7430  0.1968
  475MOL0     H64106   9.446   6.466   9.632  4.8056 -0.3584 -0.7760
  475MOL0     H64107   9.679   7.426   9.392  2.7424  3.4082  1.2821
  475MOL0     H64108   9.685   7.684   9.355  1.1377 -0.7828 -1.7710
  475MOL0     H64109   9.326   8.109   9.419  0.3349  0.8563 -0.1280
  475MOL0     H64110   9.212   8.304   9.336 -1.5753 -0.1712  0.4106
  475MOL0     H64111   9.051   9.999   8.484  1.8158 -0.4526  1.8834
  475MOL0     H64112   8.900  10.206   8.460 -2.0100  1.2743  0.4244
  475MOL0     H64113   8.739  10.549   8.726  0.3393 -0.8668  0.3910
  475MOL0     H64114   8.676  10.791   8.659  1.9697 -1.4558  1.9440
  475MOL0     H64115   8.726  10.956   8.475  0.9752  1.2378 -1.9181
  475MOL0     H64116   8.664  10.936   8.308  2.6185  2.8483 -1.1060
  475MOL0     H64117   8.485  11.088   8.357 -2.5001  4.1697  1.8834
  475MOL0     H64118   8.653  11.147   8.356 -0.4416 -1.3656 -1.9653
  475MOL0     H64119   8.539  11.267   8.531 -2.4647 -0.1714 -0.4215
  475MOL0     H64120   8.634  11.143   8.616  0.1537  0.2797 -1.0288
  475MOL0     H64121   8.412  11.018   8.636  3.0008 -0.2005  2.4220
  475MOL0     H64122   8.334  11.151   8.550  1.5566  3.1951 -0.2997
  475MOL0     H64123   8.298  11.246   8.953 -0.4629 -1.4208  0.7338
  475MOL0     H64124   8.438  10.631   8.346  0.2599  0.0552 -0.3071
  475MOL0     H64125   8.498  10.406   8.406  1.0314  0.4022 -1.4659
  476MOL0     O64126   4.364  10.772   2.298  0.5215 -0.5605 -0.1697
  476MOL0     C64127   4.415  10.685   2.231 -1.0374 -0.1044 -1.2005
  476MOL0     O64128   4.357  10.620   2.120  0.3985  0.6869 -0.2324
  476MOL0     C64129   4.222  10.631   2.093 -0.4024  0.1545 -0.4796
  476MOL0     C64130   4.119  10.687   2.173  0.6995  0.1446  0.4837
  476MOL0     C64131   3.983  10.683   2.128  0.5637  0.3148 -0.6232
  476MOL0     C64132   3.946  10.620   2.007 -0.1054  0.0521  0.1754
  476MOL0     O64133   3.811  10.609   1.984 -0.6327  0.4956 -0.2786
  476MOL0     C64134   3.741  10.594   1.862 -0.4103 -0.2762  0.7634
  476MOL0     C64135   3.757  10.452   1.791 -0.1997  0.4894 -0.4385
  476MOL0     C64136   3.695  10.342   1.883 -0.4158  0.1671 -0.0792
  476MOL0     C64137   3.565  10.276   1.820  0.2878 -0.2611  0.3683
  476MOL0     C64138   3.600  10.203   1.692  0.8982 -0.2075 -0.8692
  476MOL0     C64139   3.476  10.177   1.601  0.5271  0.3465 -0.1320
  476MOL0     C64140   3.524  10.097   1.480  0.4884  0.1861  0.4659
  476MOL0     C64141   3.397  10.030   1.411  0.3872 -0.1971 -0.2235
  476MOL0     N64142   3.435   9.947   1.293  0.1467 -0.5225  0.0018
  476MOL0     C64143   3.334   9.907   1.205  0.2439 -0.4337 -0.3032
  476MOL0     C64144   3.403   9.840   1.110 -0.5781  0.0955 -0.7564
  476MOL0     C64145   3.336   9.758   1.002 -0.4314  0.1605 -0.5598
  476MOL0     C64146   3.322   9.594   1.013 -0.0097  0.0164 -0.3589
  476MOL0     C64147   3.174   9.549   1.012 -0.2717 -0.1892 -0.9322
  476MOL0     C64148   3.110   9.561   0.876  0.3874  0.4903  0.1551
  476MOL0     O64149   2.997   9.472   0.856 -0.1768  0.3739  0.3641
  476MOL0     C64150   3.020   9.351   0.796  0.5782 -0.0511 -1.1822
  476MOL0     C64151   3.047   9.332   0.660 -0.3912 -2.3604 -1.4315
  476MOL0     C64152   3.111   9.211   0.623 -0.3847  0.4676 -0.1523
  476MOL0     C64153   3.181   9.217   0.493 -0.6106 -0.7459  1.1930
  476MOL0     C64154   3.097   9.094   0.702 -0.7148  0.3591  0.4244
  476MOL0     C64155   3.128   8.950   0.654 -0.1287 -0.0386 -0.1498
  476MOL0     O64156   3.137   8.932   0.513 -0.8121 -0.6600 -0.1452
  476MOL0     C64157   3.154   8.798   0.477 -0.1687  0.1431 -0.2855
  476MOL0     C64158   3.288   8.755   0.472  1.6301  0.0531  0.1493
  476MOL0     C64159   3.311   8.628   0.428  0.3238  0.0695 -0.2602
  476MOL0     C64160   3.214   8.550   0.372  0.8913  0.0906 -0.6038
  476MOL0     O64161   3.250   8.419   0.335 -0.1037 -1.0020 -0.0923
  476MOL0     C64162   3.265   8.418   0.194 -0.2337  0.1956 -0.1653
  476MOL0     C64163   3.290   8.279   0.134 -0.1763 -0.2813  0.4192
  476MOL0     C64164   3.185   8.169   0.170 -0.0887 -0.5069 -0.3431
  476MOL0     C64165   3.062   8.185   0.088 -0.0998  0.5946  0.1077
  476MOL0     C64166   2.938   8.239   0.157  0.4891  0.8197  0.6003
  476MOL0     C64167   2.842   8.136   0.239 -0.4752 -1.2804  0.3871
  476MOL0     C64168   2.845   7.997   0.185  0.2236  0.2572 -0.1024
  476MOL0     C64169   2.749   7.912   0.270  0.2653  0.2302  0.2253
  476MOL0    Cl64170   2.769   7.737   0.231 -0.0060 -0.1448 -0.1371
  476MOL0     C64171   3.083   8.585   0.376 -0.5674 -0.4394  0.5102
  476MOL0     C64172   3.053   8.711   0.430  0.0344 -0.3392 -0.0516
  476MOL0     O64173   3.135   8.867   0.739  0.3728 -0.1840 -0.8824
  476MOL0     C64174   3.051   9.121   0.836  0.6626  0.6230  0.1291
  476MOL0     C64175   3.011   9.244   0.884 -0.4132  0.3528  0.5796
  476MOL0     N64176   3.535   9.845   1.137  0.2712  0.2476 -0.4482
  476MOL0     N64177   3.555   9.903   1.243  0.6590  0.9066 -0.6537
  476MOL0     C64178   4.051  10.574   1.929 -0.0837 -0.5430  0.7918
  476MOL0     C64179   4.181  10.584   1.968 -1.0242 -1.1857 -0.4741
  476MOL0     C64180   4.559  10.657   2.262 -0.5662  0.3024  0.6243
  476MOL0     C64181   4.627  10.560   2.188  0.8738 -0.0499  0.3340
  476MOL0     C64182   4.763  10.522   2.206  0.7912 -0.2213  0.8558
  476MOL0     C64183   4.822  10.571   2.324 -0.5787  0.0837 -0.5968
  476MOL0     O64184   4.962  10.547   2.344  0.0180  0.6892 -0.0800
  476MOL0     C64185   5.068  10.608   2.263  0.9143 -0.6393 -0.8738
  476MOL0     C64186   5.143  10.491   2.200 -0.2092  0.7995 -0.0801
  476MOL0     C64187   5.274  10.545   2.141  0.3288  0.1104 -0.1971
  476MOL0     C64188   5.398  10.575   2.229  0.2740 -0.1749 -0.1699
  476MOL0     C64189   5.509  10.605   2.129  0.7219 -0.7424 -0.0151
  476MOL0     C64190   5.593  10.659   2.052  0.8252 -0.5436 -0.3289
  476MOL0     C64191   4.755  10.665   2.403  1.1035 -0.6679  0.1050
  476MOL0     C64192   4.624  10.709   2.375  0.4930  0.5674 -0.6486
  476MOL0     H64193   4.155  10.709   2.273  2.4392 -0.3731 -0.0014
  476MOL0     H64194   3.924  10.726   2.208  1.7578 -1.7637  1.5168
  476MOL0     H64195   3.633  10.603   1.880 -0.7333  2.9231 -1.9524
  476MOL0     H64196   3.772  10.664   1.784  1.8759 -1.7458  0.2523
  476MOL0     H64197   3.703  10.466   1.697 -1.5542 -0.6491  0.1307
  476MOL0     H64198   3.861  10.425   1.767 -0.6769 -0.0679 -1.9799
  476MOL0     H64199   3.775  10.268   1.897  0.1606  1.2122  2.7526
  476MOL0     H64200   3.680  10.381   1.984  0.0375 -1.9352  0.8586
  476MOL0     H64201   3.520  10.198   1.882  1.0739 -0.4381  0.7239
  476MOL0     H64202   3.487  10.351   1.804  0.8175 -0.0388 -1.4748
  476MOL0     H64203   3.666  10.259   1.625  0.0137 -0.9079 -2.3978
  476MOL0     H64204   3.658  10.115   1.721  0.5452 -0.3609 -0.6229
  476MOL0     H64205   3.401  10.128   1.665  0.2467  0.1922 -0.5725
  476MOL0     H64206   3.420  10.269   1.581 -1.4975 -0.6055  0.7875
  476MOL0     H64207   3.569  10.159   1.402  0.6007 -0.7541 -0.2425
  476MOL0     H64208   3.605  10.026   1.498  3.3831  3.3329  0.7849
  476MOL0     H64209   3.324  10.107   1.385 -1.1124 -1.2769  0.6217
  476MOL0     H64210   3.349   9.969   1.487 -1.2271  0.8992 -0.3038
  476MOL0     H64211   3.229   9.921   1.227  0.1839 -0.9448 -0.2545
  476MOL0     H64212   3.234   9.797   1.001 -0.1009  1.3233  2.1904
  476MOL0     H64213   3.379   9.799   0.910  3.1028 -1.0510  0.3860
  476MOL0     H64214   3.372   9.556   1.103  1.7322  1.3476 -0.7103
  476MOL0     H64215   3.373   9.543   0.931  2.0794 -0.4444  1.1418
  476MOL0     H64216   3.115   9.602   1.088  0.3077  1.0012 -1.2824
  476MOL0     H64217   3.168   9.445   1.046 -0.4207  0.4990  1.3581
  476MOL0     H64218   3.183   9.536   0.799 -1.0842 -1.0151 -0.8274
  476MOL0     H64219   3.082   9.666   0.859  1.1875  0.9905  1.7382
  476MOL0     H64220   3.031   9.417   0.595  0.8563 -0.1443  0.9824
  476MOL0     H64221   3.278   9.167   0.490  0.0909  0.4904  2.1654
  476MOL0     H64222   3.131   9.169   0.409  4.0739 -3.9197 -0.1428
  476MOL0     H64223   3.206   9.320   0.465  1.6041 -2.2783 -3.4518
  476MOL0     H64224   3.375   8.814   0.500  0.4027  1.3770  1.3461
  476MOL0     H64225   3.409   8.581   0.431  0.5181  0.4830 -0.0686
  476MOL0     H64226   3.174   8.456   0.147 -0.1781  1.5074  0.7195
  476MOL0     H64227   3.333   8.496   0.159 -0.9487  1.0887  0.3775
  476MOL0     H64228   3.306   8.284   0.026 -0.8775  1.0529  0.3537
  476MOL0     H64229   3.383   8.253   0.184 -0.3768  0.5116  1.2578
  476MOL0     H64230   3.168   8.174   0.278 -0.9209  2.7451 -0.5104
  476MOL0     H64231   3.236   8.075   0.146 -1.9517 -1.2175 -1.7953
  476MOL0     H64232   3.079   8.246  -0.002 -4.9532  0.8391 -0.9008
  476MOL0     H64233   3.042   8.090   0.038 -1.9437  2.0779 -2.1787
  476MOL0     H64234   2.879   8.293   0.083 -1.0918  1.5885  2.3403
  476MOL0     H64235   2.977   8.313   0.228  2.7421  0.4543 -0.1540
  476MOL0     H64236   2.880   8.129   0.341 -0.4404  1.2977  0.6050
  476MOL0     H64237   2.739   8.169   0.256 -0.6177 -0.8015 -1.2911
  476MOL0     H64238   2.943   7.951   0.200  0.2034 -0.4704 -1.9851
  476MOL0     H64239   2.832   7.980   0.078  0.8092 -0.5830 -0.0527
  476MOL0     H64240   2.643   7.941   0.271 -0.3198 -1.7984  0.7193
  476MOL0     H64241   2.768   7.926   0.377 -4.2169 -0.8641  1.3774
  476MOL0     H64242   3.004   8.517   0.350  1.8040 -2.3124 -2.6180
  476MOL0     H64243   2.954   8.753   0.443  1.5486  3.4485  0.7818
  476MOL0     H64244   3.048   9.045   0.914  4.4235 -1.6815 -1.6693
  476MOL0     H64245   3.003   9.279   0.986 -0.0818  2.4305 -0.0599
  476MOL0     H64246   4.035  10.544   1.827 -3.2708  1.1894  0.6463
  476MOL0     H64247   4.259  10.539   1.907 -0.5312 -3.1593  1.4955
  476MOL0     H64248   4.583  10.522   2.096  3.1392 -3.2907  0.3985
  476MOL0     H64249   4.810  10.462   2.128 -0.1609 -0.7091  0.6261
  476MOL0     H64250   5.029  10.683   2.194 -1.7984  0.6376  1.8225
  476MOL0     H64251   5.127  10.660   2.339 -2.2464  0.2628  1.1967
  476MOL0     H64252   5.076  10.442   2.129 -0.6542 -0.9910  1.5122
  476MOL0     H64253   5.165  10.418   2.278 -0.3329  0.5730 -0.2593
  476MOL0     H64254   5.255  10.640   2.090  2.4404  0.8679  0.3151
  476MOL0     H64255   5.290  10.474   2.059  0.1323 -1.4816  1.0975
  476MOL0     H64256   5.423  10.486   2.288 -3.4917 -0.3294  1.5054
  476MOL0     H64257   5.382  10.659   2.297 -1.1670  0.3005 -1.0386
  476MOL0     H64258   5.669  10.695   1.986  0.1161 -0.6130 -1.1945
  476MOL0     H64259   4.809  10.706   2.488  1.1605 -0.5784  0.0259
  476MOL0     H64260   4.587  10.783   2.444  0.8536 -1.3290  1.7186
  477MOL0     O64261   5.893  11.252   6.961 -0.5200  0.6058  0.4706
  477MOL0     C64262   5.918  11.220   6.847  0.4485 -0.9106  0.3001
  477MOL0     O64263   5.853  11.129   6.771  0.0858  0.4481  1.1385
  477MOL0     C64264   5.742  11.064   6.831 -0.3044  0.5479  0.3595
  477MOL0     C64265   5.751  10.932   6.868  0.4883 -0.6127  0.5402
  477MOL0     C64266   5.642  10.865   6.915 -0.9937  0.0269  0.6884
  477MOL0     C64267   5.523  10.932   6.923  0.3252  0.8326 -0.3290
  477MOL0     O64268   5.413  10.873   6.974 -0.5850 -0.1826 -0.5645
  477MOL0     C64269   5.408  10.746   7.055  0.0403 -0.6177 -0.6186
  477MOL0     C64270   5.272  10.720   7.126 -0.1272 -0.9763  0.3124
  477MOL0     C64271   5.292  10.655   7.259 -0.2016 -0.4541 -0.4979
  477MOL0     C64272   5.387  10.536   7.257  0.6881  0.3702 -0.5366
  477MOL0     C64273   5.405  10.457   7.391  0.4873  0.1909 -0.0159
  477MOL0     C64274   5.506  10.337   7.370  0.1087 -0.7988  0.0438
  477MOL0     C64275   5.476  10.216   7.466  0.1744 -0.4780  0.3558
  477MOL0     C64276   5.545  10.092   7.393 -0.0585 -0.7212  0.5299
  477MOL0     N64277   5.698  10.096   7.401  1.4529  0.3432 -1.0199
  477MOL0     C64278   5.790  10.096   7.300 -0.5287 -0.5156  0.1264
  477MOL0     C64279   5.912  10.075   7.358 -0.5749  0.0191 -0.6563
  477MOL0     C64280   6.035  10.049   7.288 -0.5386  0.3922  0.0570
  477MOL0     C64281   6.148  10.145   7.332  0.4696 -0.3305 -0.1845
  477MOL0     C64282   6.138  10.284   7.275 -0.0196  0.3762 -1.0462
  477MOL0     C64283   6.240  10.371   7.336  0.3379  0.2115  0.3527
  477MOL0     O64284   6.223  10.502   7.283 -0.5748  0.5916  0.1046
  477MOL0     C64285   6.167  10.601   7.353  0.1866  0.0625  0.1075
  477MOL0     C64286   6.093  10.579   7.467  0.4087  0.2644  1.0794
  477MOL0     C64287   6.051  10.686   7.544  0.1209 -0.3640  0.0275
  477MOL0     C64288   5.972  10.654   7.667 -0.0942 -0.2411  0.8082
  477MOL0     C64289   6.065  10.812   7.500 -0.0635 -0.2328  0.2903
  477MOL0     C64290   6.032  10.942   7.590 -0.3561  0.7811  0.2586
  477MOL0     O64291   6.089  11.059   7.548  0.8276 -0.0906 -0.9825
  477MOL0     C64292   6.032  11.166   7.606  0.9673  0.4070  0.1109
  477MOL0     C64293   5.920  11.227   7.550  0.1807 -1.1221  0.3875
  477MOL0     C64294   5.870  11.343   7.614 -0.2582  0.1953 -0.0504
  477MOL0     C64295   5.935  11.413   7.721  0.3752  0.6200 -0.2582
  477MOL0     O64296   5.878  11.535   7.758  0.0550  0.1000  0.0230
  477MOL0     C64297   5.772  11.510   7.848 -0.0320 -0.7116 -1.1280
  477MOL0     C64298   5.679  11.636   7.858 -0.1203  0.3425 -0.4595
  477MOL0     C64299   5.573  11.643   7.744  0.5389 -1.1586  0.7611
  477MOL0     C64300   5.484  11.524   7.734 -0.6151  0.0548  0.6634
  477MOL0     C64301   5.349  11.559   7.682  0.0122  0.1849 -0.0544
  477MOL0     C64302   5.261  11.433   7.674 -0.8209 -1.0338  0.8110
  477MOL0     C64303   5.108  11.454   7.650  0.4756  0.5482 -0.1973
  477MOL0     C64304   5.063  11.309   7.632  0.1701  0.5534  0.1446
  477MOL0    Cl64305   4.883  11.308   7.628  0.0783  0.1650  0.1431
  477MOL0     C64306   6.050  11.351   7.774  0.5118 -0.4530 -0.7072
  477MOL0     C64307   6.099  11.239   7.708 -0.2047 -0.0090 -0.1014
  477MOL0     O64308   5.946  10.928   7.679  0.3283 -0.7175  0.3460
  477MOL0     C64309   6.129  10.836   7.378  0.0500 -0.9995  0.6847
  477MOL0     C64310   6.182  10.731   7.306 -0.2962 -0.6326 -0.0803
  477MOL0     N64311   5.896  10.084   7.497 -0.1651 -0.9825  0.5798
  477MOL0     N64312   5.771  10.098   7.520  0.8775 -0.1702 -0.4209
  477MOL0     C64313   5.507  11.059   6.888 -0.5973 -0.3596  0.6355
  477MOL0     C64314   5.618  11.131   6.848  0.1129  0.4891  0.5765
  477MOL0     C64315   6.041  11.283   6.780  0.1750 -2.0491  0.3721
  477MOL0     C64316   6.084  11.239   6.652  0.5289  0.6262  0.1053
  477MOL0     C64317   6.204  11.292   6.600  0.4309 -0.1785  0.8822
  477MOL0     C64318   6.261  11.405   6.653 -0.0010  0.3210 -0.3089
  477MOL0     O64319   6.376  11.463   6.610 -0.4238 -1.0992 -0.0667
  477MOL0     C64320   6.441  11.408   6.492  0.3628 -0.9127  0.3978
  477MOL0     C64321   6.571  11.480   6.458  0.0093 -1.4586  0.3976
  477MOL0     C64322   6.561  11.621   6.394  0.7604  0.0138 -0.4457
  477MOL0     C64323   6.495  11.611   6.258 -0.4472 -0.9720  0.3287
  477MOL0     C64324   6.449  11.748   6.214 -0.8765  0.7555 -0.7990
  477MOL0     C64325   6.408  11.852   6.187 -0.5285  0.2092 -0.7880
  477MOL0     C64326   6.215  11.446   6.775  0.2219 -0.7848  0.6602
  477MOL0     C64327   6.119  11.387   6.847  0.1771  0.2363 -0.6183
  477MOL0     H64328   5.839  10.873   6.844  1.2695  1.1330 -1.1284
  477MOL0     H64329   5.658  10.762   6.947  2.9439  0.4488  0.6664
  477MOL0     H64330   5.438  10.662   6.991  1.0805 -0.2523 -0.6303
  477MOL0     H64331   5.478  10.764   7.136  0.9447  1.6979 -1.8067
  477MOL0     H64332   5.221  10.817   7.135  1.1896  0.0304 -2.1775
  477MOL0     H64333   5.212  10.661   7.057 -3.7313  1.4268  1.1197
  477MOL0     H64334   5.337  10.736   7.317 -0.4068  2.2905 -3.8163
  477MOL0     H64335   5.203  10.628   7.317 -0.5180  0.1073 -0.7181
  477MOL0     H64336   5.346  10.468   7.182  1.4169 -2.2072  1.2616
  477MOL0     H64337   5.486  10.571   7.226  0.2959  0.3195 -1.9522
  477MOL0     H64338   5.433  10.522   7.475  1.2150  0.8367 -0.7315
  477MOL0     H64339   5.309  10.411   7.416  0.8229  0.3150  1.6211
  477MOL0     H64340   5.507  10.317   7.262 -0.4416 -2.2818  0.2927
  477MOL0     H64341   5.611  10.368   7.372  0.9008 -2.7837 -3.1209
  477MOL0     H64342   5.500  10.241   7.569 -3.9340  3.7282  0.6178
  477MOL0     H64343   5.367  10.200   7.466  0.4021 -2.2385 -0.5159
  477MOL0     H64344   5.506  10.081   7.292 -0.2579 -0.2574  0.5557
  477MOL0     H64345   5.518  10.008   7.459  0.4041 -1.1769  0.1506
  477MOL0     H64346   5.777  10.117   7.195 -1.2176  3.7738  0.8591
  477MOL0     H64347   6.062   9.944   7.301 -0.3387 -0.3884 -4.9154
  477MOL0     H64348   6.026  10.057   7.180  0.7057 -2.2199 -0.3067
  477MOL0     H64349   6.238  10.101   7.289 -0.3853 -1.6257 -0.7131
  477MOL0     H64350   6.161  10.142   7.441 -1.3249 -0.8740  0.0449
  477MOL0     H64351   6.039  10.323   7.303 -0.1415 -2.1532  2.8895
  477MOL0     H64352   6.133  10.280   7.166  1.8004 -0.6211 -1.1364
  477MOL0     H64353   6.338  10.335   7.302  1.1990 -1.1227  3.8345
  477MOL0     H64354   6.238  10.362   7.445  0.3251 -0.9079  0.2678
  477MOL0     H64355   6.074  10.475   7.490  3.3534 -0.6159 -0.0796
  477MOL0     H64356   5.875  10.705   7.673  1.1851  2.3969  0.6039
  477MOL0     H64357   5.973  10.545   7.676  0.0992 -0.2604  0.5545
  477MOL0     H64358   6.027  10.686   7.756 -3.1192  1.2054  2.2889
  477MOL0     H64359   5.861  11.169   7.481 -1.5174  1.3882 -0.4177
  477MOL0     H64360   5.782  11.385   7.566 -0.0312 -0.4082 -0.9996
  477MOL0     H64361   5.720  11.415   7.837  0.5172 -1.2303  0.4635
  477MOL0     H64362   5.818  11.498   7.947  1.7733  2.0188 -1.5204
  477MOL0     H64363   5.624  11.643   7.952  3.4792  3.5371  1.7116
  477MOL0     H64364   5.747  11.722   7.861 -0.7645  0.8689  2.8067
  477MOL0     H64365   5.628  11.644   7.650  1.0557  1.6981  1.0052
  477MOL0     H64366   5.510  11.731   7.761 -0.9731 -2.1402  0.4400
  477MOL0     H64367   5.525  11.448   7.667 -1.4961  1.8841 -2.1059
  477MOL0     H64368   5.487  11.478   7.833  0.8602  0.4529  0.8313
  477MOL0     H64369   5.363  11.605   7.584  3.1321  0.1993  0.2714
  477MOL0     H64370   5.316  11.630   7.758  1.2689  0.4088  0.3040
  477MOL0     H64371   5.298  11.382   7.585 -0.3746  0.8022 -0.1038
  477MOL0     H64372   5.290  11.369   7.758 -0.2568 -1.6247  0.1780
  477MOL0     H64373   5.079  11.526   7.573 -0.6384  0.4985  0.1571
  477MOL0     H64374   5.059  11.480   7.744 -0.8999 -3.9536  0.5550
  477MOL0     H64375   5.107  11.246   7.709  0.1477  1.8453  1.2570
  477MOL0     H64376   5.109  11.275   7.539  1.5467  1.5498  0.4351
  477MOL0     H64377   6.111  11.403   7.847  0.9768  0.3389 -1.6432
  477MOL0     H64378   6.205  11.215   7.711 -0.1824 -1.3430 -4.5584
  477MOL0     H64379   6.135  10.935   7.334 -3.6451  0.4204  2.8820
  477MOL0     H64380   6.234  10.754   7.213  0.8346 -1.9639  0.1794
  477MOL0     H64381   5.409  11.106   6.892 -0.9396 -0.9944 -0.0333
  477MOL0     H64382   5.613  11.236   6.819  0.9831  0.6502  0.9621
  477MOL0     H64383   6.037  11.160   6.594 -1.2521  2.5809 -1.2189
  477MOL0     H64384   6.240  11.248   6.507  1.7366  0.1440  1.2087
  477MOL0     H64385   6.470  11.304   6.511 -0.7640 -1.4928 -0.8714
  477MOL0     H64386   6.375  11.390   6.407 -0.2778 -1.3580  0.9790
  477MOL0     H64387   6.627  11.422   6.385  0.8568  0.9883 -1.0096
  477MOL0     H64388   6.624  11.481   6.554  0.6057  2.0532  0.1739
  477MOL0     H64389   6.656  11.676   6.393 -0.3045  2.0313  0.5203
  477MOL0     H64390   6.489  11.678   6.454 -1.2576 -1.5880 -1.2363
  477MOL0     H64391   6.405  11.549   6.267  0.6945 -2.8758 -0.5825
  477MOL0     H64392   6.570  11.570   6.189 -0.4608  0.0121 -0.2961
  477MOL0     H64393   6.372  11.953   6.174  1.1989  1.3061  2.0232
  477MOL0     H64394   6.262  11.532   6.823  2.1269 -1.8684  0.8292
  477MOL0     H64395   6.078  11.427   6.940 -0.6297 -2.0960  0.0986
  478MOL0     O64396   4.509   4.197   8.793 -0.4995 -0.1857  0.4181
  478MOL0     C64397   4.607   4.146   8.858 -0.0520 -0.5681 -0.5004
  478MOL0     O64398   4.597   4.060   8.969  0.1363  0.5169 -0.5270
  478MOL0     C64399   4.471   4.006   9.019 -0.3511 -0.2865  0.4990
  478MOL0     C64400   4.480   3.873   9.065 -0.1887 -0.2752  1.6978
  478MOL0     C64401   4.356   3.813   9.104 -0.6738  0.4226  0.7143
  478MOL0     C64402   4.227   3.873   9.103 -0.0235  1.5926  1.5300
  478MOL0     O64403   4.116   3.804   9.146  0.0301  0.2431  0.7508
  478MOL0     C64404   4.021   3.784   9.033 -0.4025 -0.5779 -0.3742
  478MOL0     C64405   3.887   3.806   9.105 -0.0123 -0.0529  0.7238
  478MOL0     C64406   3.860   3.724   9.233  1.0428 -0.1462 -0.3335
  478MOL0     C64407   3.914   3.584   9.229 -0.3189  0.5599 -0.4988
  478MOL0     C64408   4.036   3.551   9.312  0.1121 -0.8397  0.6235
  478MOL0     C64409   4.093   3.413   9.292 -0.3602 -0.1298 -0.9062
  478MOL0     C64410   4.153   3.378   9.161 -1.5033 -0.1617 -0.6981
  478MOL0     C64411   4.243   3.252   9.189  0.4090 -0.2822 -0.2616
  478MOL0     N64412   4.307   3.228   9.066  0.0563  0.3273  0.4997
  478MOL0     C64413   4.359   3.320   8.979 -0.0321  0.0456 -0.3368
  478MOL0     C64414   4.369   3.256   8.860 -0.8213 -0.6796 -0.1881
  478MOL0     C64415   4.400   3.302   8.717  0.4086 -0.7096  0.3162
  478MOL0     C64416   4.460   3.199   8.621  0.0712  0.4416  0.8562
  478MOL0     C64417   4.535   3.269   8.502 -0.4343  0.4499 -0.1721
  478MOL0     C64418   4.598   3.179   8.386  0.0494  0.2433  0.8978
  478MOL0     O64419   4.667   3.256   8.283  0.1872 -0.9763 -0.1832
  478MOL0     C64420   4.806   3.258   8.292 -0.1043 -0.8900  0.6326
  478MOL0     C64421   4.865   3.301   8.173 -0.9656  0.6995 -0.2469
  478MOL0     C64422   5.008   3.303   8.168  0.6649 -0.8518  0.2030
  478MOL0     C64423   5.059   3.374   8.031 -0.6071  0.3172 -0.1157
  478MOL0     C64424   5.091   3.268   8.274  0.0904  0.2257  0.4870
  478MOL0     C64425   5.235   3.265   8.265 -0.9086 -0.1702  0.0231
  478MOL0     O64426   5.289   3.282   8.388  0.5562 -0.1875  0.5418
  478MOL0     C64427   5.419   3.237   8.391 -0.3382  0.0540 -0.5175
  478MOL0     C64428   5.529   3.315   8.380 -0.0744  0.9652 -0.0691
  478MOL0     C64429   5.651   3.270   8.403  0.0132 -0.1490 -0.2520
  478MOL0     C64430   5.672   3.134   8.455  0.5860 -0.2804  0.1322
  478MOL0     O64431   5.787   3.086   8.490 -0.4130 -0.6646 -0.6575
  478MOL0     C64432   5.860   3.013   8.392  0.2955  0.2976 -0.9107
  478MOL0     C64433   5.876   3.076   8.252 -0.0129  0.1811  0.1054
  478MOL0     C64434   5.977   2.992   8.165  0.0766 -0.9256 -0.7731
  478MOL0     C64435   5.921   2.857   8.130  0.3992  0.0629 -0.2040
  478MOL0     C64436   5.997   2.795   8.010  0.4834  0.4397 -0.2990
  478MOL0     C64437   5.942   2.828   7.878  0.2896 -0.9140  0.0248
  478MOL0     C64438   6.025   2.775   7.762  0.0058 -0.6610 -0.0380
  478MOL0     C64439   6.150   2.868   7.736 -0.1709  0.4520 -0.5830
  478MOL0    Cl64440   6.118   3.048   7.718  0.0038 -0.0431 -0.0202
  478MOL0     C64441   5.560   3.059   8.484 -0.7066 -0.3265  0.0759
  478MOL0     C64442   5.431   3.112   8.455 -0.3492  0.1789 -0.5311
  478MOL0     O64443   5.299   3.246   8.162  0.7628 -0.4242  0.3779
  478MOL0     C64444   5.028   3.225   8.393  1.2418  0.0346 -0.4310
  478MOL0     C64445   4.884   3.209   8.396 -0.1607 -0.7946 -0.6537
  478MOL0     N64446   4.360   3.123   8.886 -1.0291  0.3213 -0.5367
  478MOL0     N64447   4.324   3.102   9.007 -0.1361 -0.4513  0.1603
  478MOL0     C64448   4.225   4.003   9.059  0.0236  0.0997  0.0445
  478MOL0     C64449   4.344   4.075   9.016  0.5031 -0.1011 -1.2813
  478MOL0     C64450   4.744   4.170   8.796  0.1340  0.6835  0.1642
  478MOL0     C64451   4.773   4.250   8.682 -0.4765 -0.3852  0.3533
  478MOL0     C64452   4.901   4.245   8.619 -0.1050  0.2926  0.0499
  478MOL0     C64453   4.994   4.163   8.674  0.7002  0.0613 -0.6308
  478MOL0     O64454   5.118   4.149   8.633  0.3767  1.0545 -0.7603
  478MOL0     C64455   5.168   4.198   8.507 -0.6660  0.9515 -0.5222
  478MOL0     C64456   5.232   4.335   8.521  0.5002  0.5891  1.2591
  478MOL0     C64457   5.286   4.355   8.385 -0.2702  0.7310  0.1444
  478MOL0     C64458   5.324   4.503   8.374  0.3469 -0.4524  0.2790
  478MOL0     C64459   5.223   4.605   8.399  0.7819 -0.2263  0.0782
  478MOL0     C64460   5.159   4.712   8.410  0.0050 -0.2997 -0.0170
  478MOL0     C64461   4.981   4.096   8.798  1.2938  0.7498  0.5366
  478MOL0     C64462   4.846   4.100   8.857 -0.4997 -0.3522 -0.1218
  478MOL0     H64463   4.573   3.818   9.063  0.1118  0.2183 -0.6793
  478MOL0     H64464   4.372   3.717   9.154  2.0964  1.0131  1.1186
  478MOL0     H64465   4.038   3.864   8.960 -2.3355  1.7708  1.5729
  478MOL0     H64466   4.026   3.684   8.989 -4.4242 -2.0760  2.0230
  478MOL0     H64467   3.879   3.913   9.122 -3.2377 -0.0838  0.1275
  478MOL0     H64468   3.806   3.776   9.037  0.2020 -2.7372  1.5349
  478MOL0     H64469   3.901   3.770   9.323 -0.3871 -4.2700  2.7163
  478MOL0     H64470   3.752   3.725   9.252  1.2028  2.3922  0.8879
  478MOL0     H64471   3.834   3.520   9.267  0.6536 -1.1998 -1.2898
  478MOL0     H64472   3.935   3.557   9.125 -1.4938 -1.7347 -0.1958
  478MOL0     H64473   4.116   3.626   9.313  0.0120 -0.5721 -2.1955
  478MOL0     H64474   4.001   3.556   9.415  0.0054  4.4999  0.5930
  478MOL0     H64475   4.159   3.392   9.377  0.1769  1.0061 -1.0260
  478MOL0     H64476   4.017   3.334   9.300  0.9710 -1.4505 -0.7076
  478MOL0     H64477   4.073   3.362   9.088 -0.1511 -3.1196 -1.6760
  478MOL0     H64478   4.204   3.469   9.130  0.9956 -1.5372 -0.8578
  478MOL0     H64479   4.180   3.169   9.223 -0.6413  0.4320 -0.4223
  478MOL0     H64480   4.321   3.273   9.263  2.1041 -0.1549 -2.0033
  478MOL0     H64481   4.386   3.425   8.988 -0.4306 -0.0100  2.7102
  478MOL0     H64482   4.309   3.349   8.677  0.8941  2.0280  2.1501
  478MOL0     H64483   4.472   3.383   8.732  0.0224  2.0396 -7.6182
  478MOL0     H64484   4.382   3.131   8.588  2.5565 -2.2168  0.0509
  478MOL0     H64485   4.527   3.133   8.677 -1.5033 -0.0195  2.2585
  478MOL0     H64486   4.608   3.321   8.566  0.7357 -1.0446 -0.2390
  478MOL0     H64487   4.470   3.346   8.458  0.2810  2.0378  1.4123
  478MOL0     H64488   4.516   3.138   8.326  0.3928  1.4708 -0.4762
  478MOL0     H64489   4.647   3.092   8.430  1.1426 -0.5308 -1.6781
  478MOL0     H64490   4.802   3.330   8.090  2.1647 -0.3711 -3.2207
  478MOL0     H64491   5.104   3.298   7.966  0.6658  0.5388  0.4852
  478MOL0     H64492   4.982   3.428   7.975  1.6539 -0.7053 -4.6026
  478MOL0     H64493   5.138   3.441   8.064 -1.4264  0.3193  1.9973
  478MOL0     H64494   5.510   3.417   8.350  1.2461  0.6006 -2.3744
  478MOL0     H64495   5.733   3.337   8.379 -0.9969  0.7275 -1.4552
  478MOL0     H64496   5.960   2.995   8.432 -1.1586  1.3182  3.8000
  478MOL0     H64497   5.808   2.917   8.380 -1.4499  0.7472  1.9726
  478MOL0     H64498   5.785   3.079   8.193  0.1006  1.1468 -0.0367
  478MOL0     H64499   5.914   3.178   8.260  3.4092 -0.9582  0.1755
  478MOL0     H64500   6.076   2.993   8.211 -0.1200  1.3433 -0.2698
  478MOL0     H64501   5.999   3.050   8.075  0.9427  1.6327  0.9607
  478MOL0     H64502   5.933   2.795   8.219 -0.8340 -0.7558 -0.5700
  478MOL0     H64503   5.814   2.865   8.106  0.4042  2.7631  0.4434
  478MOL0     H64504   5.995   2.686   8.019  2.5398  0.1976 -1.9412
  478MOL0     H64505   6.104   2.812   8.026  0.5971 -2.0153  2.5536
  478MOL0     H64506   5.845   2.778   7.879 -0.5966  0.6578 -1.4211
  478MOL0     H64507   5.932   2.936   7.862  1.2991 -0.8260 -0.0714
  478MOL0     H64508   5.971   2.775   7.667  0.5623 -0.9679 -0.3566
  478MOL0     H64509   6.063   2.673   7.778 -0.4569 -0.5753  1.9494
  478MOL0     H64510   6.189   2.841   7.637 -0.7409  2.3007 -1.3536
  478MOL0     H64511   6.225   2.852   7.815 -0.5566 -0.9425 -0.4693
  478MOL0     H64512   5.580   2.962   8.529  2.4029 -0.1995 -0.8179
  478MOL0     H64513   5.343   3.069   8.501  0.2691  0.6647  1.1580
  478MOL0     H64514   5.076   3.170   8.473 -2.4413 -2.1767  0.4940
  478MOL0     H64515   4.854   3.174   8.495  0.9682  0.1473  0.0453
  478MOL0     H64516   4.132   4.058   9.058  0.0706  0.2793 -2.7928
  478MOL0     H64517   4.326   4.174   8.976 -0.9520  0.6387  0.9890
  478MOL0     H64518   4.694   4.310   8.637  0.6251  1.4796  0.8218
  478MOL0     H64519   4.927   4.293   8.525  2.6988  2.5050  1.7762
  478MOL0     H64520   5.243   4.128   8.469  0.8365  1.7718  0.8353
  478MOL0     H64521   5.094   4.188   8.427  0.1156 -2.6841 -1.0027
  478MOL0     H64522   5.314   4.338   8.593  0.5459 -0.5767  1.2687
  478MOL0     H64523   5.160   4.415   8.541  1.9041  1.5595  2.6884
  478MOL0     H64524   5.205   4.343   8.313  0.7619  1.9536 -1.2577
  478MOL0     H64525   5.371   4.291   8.363  0.6922  1.9297  0.2816
  478MOL0     H64526   5.356   4.514   8.270 -2.0391 -1.2743 -0.6237
  478MOL0     H64527   5.416   4.517   8.431  1.3337 -1.0157 -1.1227
  478MOL0     H64528   5.109   4.807   8.406 -0.4335 -0.4819  0.7944
  478MOL0     H64529   5.065   4.032   8.822  1.9779  1.4601  0.0793
  478MOL0     H64530   4.818   4.040   8.943 -0.7420 -2.3013 -1.4862
  479MOL0     O64531   1.695   4.919   5.482 -0.4905  0.1130  0.9176
  479MOL0     C64532   1.642   4.937   5.591  0.0943  0.1182 -0.4586
  479MOL0     O64533   1.631   4.839   5.690  0.1967  0.1827  0.1527
  479MOL0     C64534   1.658   4.711   5.643 -0.5276 -0.5889  0.1905
  479MOL0     C64535   1.583   4.648   5.554  1.1905 -0.4264 -0.4690
  479MOL0     C64536   1.605   4.514   5.529  0.4567 -0.5099  0.3571
  479MOL0     C64537   1.707   4.446   5.581 -0.2893  0.5059  0.1902
  479MOL0     O64538   1.728   4.308   5.561  0.5987 -0.2695 -0.4264
  479MOL0     C64539   1.647   4.235   5.473 -0.4408 -0.3713  0.7232
  479MOL0     C64540   1.508   4.186   5.521 -0.3002 -0.5848  0.6308
  479MOL0     C64541   1.440   4.105   5.414 -0.3914  0.2157  0.5084
  479MOL0     C64542   1.300   4.062   5.458 -0.4049 -0.3606  0.3915
  479MOL0     C64543   1.225   3.988   5.355  0.1001  1.0456  0.6948
  479MOL0     C64544   1.102   3.926   5.400  0.1087 -0.1537  0.5339
  479MOL0     C64545   1.052   3.833   5.295  0.6303 -0.4029 -0.3630
  479MOL0     C64546   0.924   3.742   5.341 -0.2956 -0.9535 -0.2977
  479MOL0     N64547   0.799   3.810   5.380  0.1820 -0.2000  0.9641
  479MOL0     C64548   0.777   3.873   5.498  0.8383 -0.9677 -0.2200
  479MOL0     C64549   0.648   3.901   5.488  0.8488  0.1786 -0.8319
  479MOL0     C64550   0.564   3.955   5.606 -0.5098  0.4640  0.8166
  479MOL0     C64551   0.584   4.110   5.623 -0.3009  1.2340  0.2546
  479MOL0     C64552   0.456   4.158   5.681 -0.0866 -0.2997 -0.7961
  479MOL0     C64553   0.470   4.301   5.736  0.3112 -0.7849  0.1543
  479MOL0     O64554   0.453   4.407   5.638  0.0693  0.0607  0.1583
  479MOL0     C64555   0.332   4.457   5.603 -0.3673 -0.7070  0.6696
  479MOL0     C64556   0.314   4.472   5.466 -0.2714 -0.9526 -0.4754
  479MOL0     C64557   0.196   4.505   5.406  0.1242  0.3553  0.0484
  479MOL0     C64558   0.187   4.497   5.253 -1.2486  0.5760 -0.1938
  479MOL0     C64559   0.098   4.551   5.494  0.2342 -0.3483  0.5112
  479MOL0     C64560  -0.028   4.617   5.451  0.1753  0.4309 -0.4707
  479MOL0     O64561  -0.097   4.701   5.532  0.2067  0.0485 -0.8341
  479MOL0     C64562  -0.199   4.780   5.492 -0.5298 -0.5738 -0.1100
  479MOL0     C64563  -0.247   4.808   5.363  0.0706  0.3303 -0.4433
  479MOL0     C64564  -0.345   4.900   5.332  0.1710  0.1139 -0.4323
  479MOL0     C64565  -0.410   4.963   5.442  0.6492 -0.3241  0.5053
  479MOL0     O64566  -0.520   5.048   5.426  0.0140  0.0196 -0.2015
  479MOL0     C64567  -0.542   5.118   5.297  0.3229 -0.2081 -0.2581
  479MOL0     C64568  -0.671   5.068   5.234  0.5191  0.1689  0.5707
  479MOL0     C64569  -0.800   5.108   5.315  0.2911 -1.1686  0.5620
  479MOL0     C64570  -0.831   5.006   5.423  0.3893 -0.4970 -0.2901
  479MOL0     C64571  -0.960   5.038   5.503 -0.3749 -0.2386 -0.3426
  479MOL0     C64572  -0.964   4.950   5.632  0.6550  0.5462  0.9239
  479MOL0     C64573  -1.099   4.969   5.704 -0.2403  0.4604  0.5804
  479MOL0     C64574  -1.086   5.094   5.787 -0.0297  0.0850  0.1291
  479MOL0    Cl64575  -1.231   5.138   5.887 -0.1546  0.2282 -0.5164
  479MOL0     C64576  -0.375   4.933   5.574 -0.7142  0.5269  0.4542
  479MOL0     C64577  -0.263   4.847   5.592  0.1788  0.7700 -0.7646
  479MOL0     O64578  -0.077   4.573   5.345 -1.0463  0.8040  0.2599
  479MOL0     C64579   0.116   4.538   5.634  0.6071 -0.2493  0.3882
  479MOL0     C64580   0.230   4.486   5.695  0.2246  0.1001 -0.0024
  479MOL0     N64581   0.599   3.877   5.356 -0.4418 -0.2891  0.0961
  479MOL0     N64582   0.701   3.836   5.287 -0.2225  0.3582 -0.8319
  479MOL0     C64583   1.789   4.516   5.669 -0.2168 -0.3080 -0.1615
  479MOL0     C64584   1.762   4.646   5.706 -0.1253 -0.2135 -0.1641
  479MOL0     C64585   1.632   5.075   5.644  0.1646  0.1119  0.5239
  479MOL0     C64586   1.635   5.187   5.554  0.6483  0.4779  0.3047
  479MOL0     C64587   1.609   5.311   5.603  0.6072 -0.2835 -0.7069
  479MOL0     C64588   1.586   5.332   5.745 -0.5682  0.2797  0.4924
  479MOL0     O64589   1.573   5.452   5.800  0.7469 -0.5509  0.7293
  479MOL0     C64590   1.529   5.560   5.710  0.1134 -0.8856  0.5815
  479MOL0     C64591   1.528   5.696   5.781  0.4430 -0.1915 -0.3168
  479MOL0     C64592   1.430   5.693   5.901  0.0412  0.4708  0.3544
  479MOL0     C64593   1.339   5.821   5.907  0.2401  0.8642 -0.2410
  479MOL0     C64594   1.399   5.926   5.988 -0.3362 -0.3846  0.2111
  479MOL0     C64595   1.464   6.012   6.047  0.0963  0.2729 -0.1877
  479MOL0     C64596   1.597   5.228   5.828  0.3427 -0.5110 -0.3537
  479MOL0     C64597   1.617   5.097   5.782 -0.2284  0.1730 -0.2819
  479MOL0     H64598   1.502   4.701   5.504  1.6381  0.1148 -0.6292
  479MOL0     H64599   1.530   4.466   5.466  0.5196 -0.8370  0.5287
  479MOL0     H64600   1.646   4.286   5.376  0.0067 -1.3450  0.1881
  479MOL0     H64601   1.700   4.143   5.445  1.2985  1.5249 -2.9849
  479MOL0     H64602   1.528   4.117   5.603  2.8046 -1.2344 -0.5756
  479MOL0     H64603   1.449   4.277   5.542  1.0056  0.7462 -1.1945
  479MOL0     H64604   1.444   4.156   5.317  0.4781 -0.5162  0.1409
  479MOL0     H64605   1.483   4.006   5.393  1.3639  0.9830  0.3248
  479MOL0     H64606   1.307   3.995   5.544  1.5340 -1.3768 -0.4875
  479MOL0     H64607   1.246   4.155   5.478  0.4698  0.8529 -2.3743
  479MOL0     H64608   1.195   4.053   5.273  2.5145  2.2625  0.6540
  479MOL0     H64609   1.286   3.908   5.312 -0.9259 -0.3434  1.7100
  479MOL0     H64610   1.105   3.870   5.493  1.8712  1.2185  1.3469
  479MOL0     H64611   1.027   4.004   5.422  1.3427  1.5791 -1.0766
  479MOL0     H64612   1.013   3.880   5.204  0.9795 -1.3066 -0.9966
  479MOL0     H64613   1.130   3.771   5.249 -0.3310 -0.7463 -1.5591
  479MOL0     H64614   0.966   3.683   5.423  1.3337 -0.9670 -1.1147
  479MOL0     H64615   0.903   3.689   5.248  0.4093  0.0403 -1.0387
  479MOL0     H64616   0.843   3.869   5.584  2.4586 -0.8371 -1.3977
  479MOL0     H64617   0.460   3.935   5.578 -0.3297 -0.1481  0.5844
  479MOL0     H64618   0.582   3.902   5.700 -5.0020 -1.0422  1.0847
  479MOL0     H64619   0.606   4.159   5.528  2.4328 -0.0147  0.1429
  479MOL0     H64620   0.669   4.132   5.689  0.9406 -0.8397 -0.5386
  479MOL0     H64621   0.433   4.094   5.766 -0.1720  0.3852 -0.2963
  479MOL0     H64622   0.374   4.138   5.611  0.0110 -4.4080  0.0136
  479MOL0     H64623   0.563   4.309   5.793 -0.2266 -4.2731  1.7896
  479MOL0     H64624   0.395   4.326   5.811  1.5082  0.8051  0.8659
  479MOL0     H64625   0.399   4.474   5.399  2.5269  3.2095  2.6649
  479MOL0     H64626   0.188   4.395   5.213 -1.5500  1.0625 -1.4953
  479MOL0     H64627   0.101   4.537   5.198 -1.1493  0.2833 -0.5648
  479MOL0     H64628   0.273   4.548   5.208  0.0098  0.1316  1.6024
  479MOL0     H64629  -0.203   4.756   5.278  3.6821  2.8816 -0.3572
  479MOL0     H64630  -0.384   4.908   5.231  0.0183  3.0602 -0.2170
  479MOL0     H64631  -0.552   5.224   5.321 -0.0323 -0.1380 -0.6976
  479MOL0     H64632  -0.457   5.097   5.230  0.5637 -2.9463  0.7426
  479MOL0     H64633  -0.668   5.123   5.140  3.0865  0.4250  0.7266
  479MOL0     H64634  -0.671   4.960   5.218  0.8825  0.1387  0.7729
  479MOL0     H64635  -0.884   5.127   5.247 -0.9177  0.0412  2.2944
  479MOL0     H64636  -0.783   5.207   5.358 -0.7652 -1.1447  0.9742
  479MOL0     H64637  -0.849   4.910   5.374 -1.4193 -0.1428 -0.3721
  479MOL0     H64638  -0.749   4.998   5.496 -0.2886  2.9896  1.0382
  479MOL0     H64639  -1.049   5.022   5.440  0.1214 -0.0794 -1.1026
  479MOL0     H64640  -0.948   5.145   5.519 -0.8537 -0.4318  1.4987
  479MOL0     H64641  -0.958   4.845   5.602 -2.0020  1.3082 -3.0058
  479MOL0     H64642  -0.882   4.975   5.699  0.4790 -2.6526  2.5302
  479MOL0     H64643  -1.131   4.878   5.755 -0.8959 -0.8424 -2.0031
  479MOL0     H64644  -1.176   4.983   5.627  0.2253  1.4088  0.2767
  479MOL0     H64645  -1.065   5.176   5.718  0.4236 -0.1923 -0.0669
  479MOL0     H64646  -0.998   5.083   5.852  0.0446  2.5757  0.5163
  479MOL0     H64647  -0.415   4.980   5.664  1.9448  1.1897  1.4187
  479MOL0     H64648  -0.221   4.836   5.692 -0.9150  1.8693 -0.1533
  479MOL0     H64649   0.021   4.554   5.685 -0.8328  2.9394 -2.8532
  479MOL0     H64650   0.243   4.478   5.803 -1.0325 -0.1154  0.1490
  479MOL0     H64651   1.871   4.467   5.720 -1.4919 -0.0646  2.2583
  479MOL0     H64652   1.823   4.697   5.781  1.1052 -4.1736  1.8079
  479MOL0     H64653   1.653   5.176   5.448 -2.5619  1.3179 -0.4390
  479MOL0     H64654   1.613   5.387   5.525  4.6164 -3.9084 -4.5920
  479MOL0     H64655   1.612   5.558   5.639  0.9362  0.4644  1.4706
  479MOL0     H64656   1.435   5.529   5.664  1.4875 -2.2389 -1.4781
  479MOL0     H64657   1.497   5.769   5.707 -2.1030 -1.8447 -0.9883
  479MOL0     H64658   1.627   5.708   5.828 -0.7487 -1.7003  2.9231
  479MOL0     H64659   1.494   5.684   5.990 -0.1771 -2.2271  0.3124
  479MOL0     H64660   1.372   5.602   5.886 -1.0461  1.5386 -2.7604
  479MOL0     H64661   1.244   5.791   5.951  1.4823  0.5618  2.4683
  479MOL0     H64662   1.334   5.863   5.806  1.8700  0.0510 -0.7046
  479MOL0     H64663   1.524   6.087   6.094  0.6844 -1.1834  1.4796
  479MOL0     H64664   1.586   5.243   5.934  0.1625 -0.9739 -0.3066
  479MOL0     H64665   1.618   5.014   5.852  2.0622 -0.6420 -1.1694
  480MOL0     O64666   6.066   5.391   4.687  0.9742 -0.7350 -0.4194
  480MOL0     C64667   6.108   5.498   4.635  1.0261  0.2435 -0.6512
  480MOL0     O64668   6.232   5.522   4.573  0.1513 -0.9402  0.1674
  480MOL0     C64669   6.320   5.413   4.578 -0.0744  0.1333 -0.4348
  480MOL0     C64670   6.441   5.429   4.647 -0.5955 -0.2084 -0.0524
  480MOL0     C64671   6.529   5.330   4.664 -0.0015  0.2348 -0.5319
  480MOL0     C64672   6.504   5.209   4.614 -0.6416 -0.5340  0.0435
  480MOL0     O64673   6.612   5.132   4.630 -0.0560 -0.7523 -0.5447
  480MOL0     C64674   6.609   5.005   4.561 -0.4424  0.4244  0.2925
  480MOL0     C64675   6.735   4.921   4.608  0.2070 -0.2877  0.0735
  480MOL0     C64676   6.872   4.980   4.556  1.1976  0.3229  0.0496
  480MOL0     C64677   6.995   4.907   4.607 -0.0659  1.4038 -0.3989
  480MOL0     C64678   6.995   4.757   4.547 -0.4215 -0.1372 -1.4705
  480MOL0     C64679   7.106   4.684   4.623  0.0320  0.3365  0.1282
  480MOL0     C64680   7.240   4.708   4.551 -0.1056  0.8153 -0.5711
  480MOL0     C64681   7.356   4.637   4.623 -1.2690  0.1560 -0.1614
  480MOL0     N64682   7.368   4.692   4.753 -0.1841 -0.1117 -0.6180
  480MOL0     C64683   7.376   4.826   4.788  0.2445 -0.4534  0.0618
  480MOL0     C64684   7.386   4.827   4.926  0.3617  0.1956  0.8995
  480MOL0     C64685   7.396   4.939   5.025  0.4019 -0.3562 -0.3103
  480MOL0     C64686   7.279   5.034   5.000  0.5842  0.1578  0.0192
  480MOL0     C64687   7.139   4.969   5.001 -0.1899 -1.1483 -0.0191
  480MOL0     C64688   7.023   5.061   4.955  0.1172 -0.0568  0.0290
  480MOL0     O64689   6.991   5.168   5.051 -0.2821  0.2711  0.6155
  480MOL0     C64690   6.919   5.148   5.171 -0.3402  0.8089  0.3084
  480MOL0     C64691   6.869   5.026   5.210  0.2947  0.5668 -0.3986
  480MOL0     C64692   6.798   5.021   5.333 -0.1706 -0.5562 -0.2922
  480MOL0     C64693   6.759   4.889   5.387  0.0828  0.3762 -0.5636
  480MOL0     C64694   6.773   5.134   5.409 -0.3182  0.2150 -0.2585
  480MOL0     C64695   6.659   5.138   5.517  0.0139  0.7852 -0.0896
  480MOL0     O64696   6.695   5.202   5.626  0.0603  1.1140  0.2110
  480MOL0     C64697   6.601   5.207   5.734  0.3351  0.9438  0.5087
  480MOL0     C64698   6.492   5.296   5.732  1.0594 -0.0211  0.1930
  480MOL0     C64699   6.411   5.306   5.853 -0.0204 -0.4285  0.1448
  480MOL0     C64700   6.441   5.235   5.970 -0.3058  0.1048 -0.1681
  480MOL0     O64701   6.355   5.253   6.076 -1.3694  0.0998  0.4751
  480MOL0     C64702   6.393   5.176   6.191 -0.3782 -0.0459 -0.1461
  480MOL0     C64703   6.495   5.264   6.271  0.7004 -0.2237 -0.6542
  480MOL0     C64704   6.415   5.390   6.336  0.2384  0.4295  0.3307
  480MOL0     C64705   6.511   5.463   6.439 -0.3350 -0.7773  0.4678
  480MOL0     C64706   6.432   5.559   6.529 -0.0936 -0.5863 -0.3609
  480MOL0     C64707   6.380   5.676   6.448 -0.1578 -0.4892 -0.3430
  480MOL0     C64708   6.300   5.777   6.537  0.7487  0.1856  0.8915
  480MOL0     C64709   6.242   5.873   6.432  0.5893 -0.6250  0.7199
  480MOL0    Cl64710   6.099   5.823   6.343 -0.2654  0.1805 -0.1926
  480MOL0     C64711   6.559   5.163   5.969 -0.5707  0.6116  0.4033
  480MOL0     C64712   6.624   5.140   5.851 -1.2613 -0.1315 -0.3357
  480MOL0     O64713   6.553   5.086   5.493  0.4344  0.3556 -0.6450
  480MOL0     C64714   6.833   5.253   5.364  0.1012 -1.0612 -1.1016
  480MOL0     C64715   6.898   5.261   5.249  0.0681  0.7535  0.2737
  480MOL0     N64716   7.391   4.690   4.969  0.5498 -0.1235 -0.2086
  480MOL0     N64717   7.378   4.610   4.861 -0.1549 -0.2176 -0.6881
  480MOL0     C64718   6.389   5.189   4.534 -0.1437  1.0607 -0.7379
  480MOL0     C64719   6.288   5.285   4.526  0.5819  0.1663  0.0559
  480MOL0     C64720   6.016   5.609   4.647  0.5818 -0.9974 -0.1706
  480MOL0     C64721   6.040   5.728   4.580  1.0030 -0.0346 -1.2112
  480MOL0     C64722   5.947   5.830   4.576 -0.6621  0.2517  0.1336
  480MOL0     C64723   5.824   5.817   4.647  0.3597  0.4149 -0.0583
  480MOL0     O64724   5.727   5.920   4.633 -0.2137  0.1149  0.4498
  480MOL0     C64725   5.758   6.032   4.558  0.5782 -0.8571 -1.0947
  480MOL0     C64726   5.648   6.137   4.571 -0.2153  0.7872  0.5172
  480MOL0     C64727   5.505   6.081   4.542  0.2472 -0.4773  0.4381
  480MOL0     C64728   5.519   6.011   4.400 -0.2787  0.3379 -0.4935
  480MOL0     C64729   5.559   6.109   4.303  0.4932 -0.0949 -0.2564
  480MOL0     C64730   5.586   6.198   4.221 -0.5622  0.1280 -0.5785
  480MOL0     C64731   5.796   5.695   4.720  0.2488 -0.3473 -0.0567
  480MOL0     C64732   5.893   5.595   4.712  0.6248 -0.3451  0.1363
  480MOL0     H64733   6.481   5.523   4.684  3.6794 -2.3771  1.4720
  480MOL0     H64734   6.625   5.347   4.712 -0.7965  1.4720  0.6828
  480MOL0     H64735   6.512   4.960   4.585 -1.4035  1.0083 -2.1310
  480MOL0     H64736   6.606   5.010   4.452  0.9991  0.7811  0.2552
  480MOL0     H64737   6.744   4.933   4.717 -1.6029  1.5264  0.0920
  480MOL0     H64738   6.724   4.817   4.577 -0.2774 -0.2107 -0.0218
  480MOL0     H64739   6.871   4.970   4.447 -1.6609  0.4294 -0.0010
  480MOL0     H64740   6.878   5.088   4.571 -1.0738  0.7255 -1.4796
  480MOL0     H64741   7.083   4.967   4.583 -0.1695  1.9914  0.6430
  480MOL0     H64742   7.000   4.902   4.716  0.7436  0.4213 -0.4626
  480MOL0     H64743   6.898   4.711   4.568 -0.2662  1.2377  3.7650
  480MOL0     H64744   7.021   4.757   4.441 -0.1155 -0.0523 -1.3966
  480MOL0     H64745   7.111   4.712   4.729  1.5595 -1.2313  0.5191
  480MOL0     H64746   7.089   4.576   4.614 -0.7664  0.4285  0.4358
  480MOL0     H64747   7.234   4.681   4.445  0.4290  2.8686 -1.1677
  480MOL0     H64748   7.259   4.815   4.557 -2.7105  1.2747  3.6699
  480MOL0     H64749   7.442   4.664   4.561 -0.6489 -0.9337  0.1915
  480MOL0     H64750   7.348   4.528   4.631  1.7033 -0.4390 -3.0146
  480MOL0     H64751   7.393   4.920   4.736  0.5576  0.2130  1.3123
  480MOL0     H64752   7.388   4.891   5.123 -6.3862 -0.2035 -0.3367
  480MOL0     H64753   7.489   4.995   5.040 -0.7279  0.8671  2.8670
  480MOL0     H64754   7.295   5.069   4.897  1.5667 -0.7543 -0.1535
  480MOL0     H64755   7.284   5.119   5.068  2.4069 -0.5133  0.7789
  480MOL0     H64756   7.120   4.935   5.103  0.1207 -0.6024  0.2242
  480MOL0     H64757   7.129   4.878   4.940 -2.4171 -0.2318 -1.1143
  480MOL0     H64758   6.936   4.994   4.957  1.3752 -1.8806 -1.5807
  480MOL0     H64759   7.033   5.090   4.850  2.5934 -2.7559 -0.6096
  480MOL0     H64760   6.877   4.937   5.148  0.0927 -0.2685  0.7394
  480MOL0     H64761   6.733   4.889   5.493  0.3340 -1.0225 -0.4846
  480MOL0     H64762   6.669   4.853   5.335 -2.0409  1.2144  2.2853
  480MOL0     H64763   6.841   4.817   5.380 -1.1194 -1.4342  2.0210
  480MOL0     H64764   6.474   5.368   5.653 -1.5075 -0.1835  0.5265
  480MOL0     H64765   6.332   5.380   5.862 -0.8303 -1.5102  2.8160
  480MOL0     H64766   6.300   5.159   6.246 -0.5414 -0.4514 -0.5409
  480MOL0     H64767   6.437   5.079   6.166  3.6648  1.7298 -0.7876
  480MOL0     H64768   6.545   5.201   6.345  0.5591  0.2111 -0.1809
  480MOL0     H64769   6.572   5.302   6.203 -0.1883  2.9025 -0.0687
  480MOL0     H64770   6.327   5.353   6.390 -1.9878 -2.2789 -4.5315
  480MOL0     H64771   6.374   5.459   6.262 -0.0767  0.3691  0.4469
  480MOL0     H64772   6.551   5.386   6.505 -1.9464  1.8863  4.9574
  480MOL0     H64773   6.591   5.521   6.391  1.5878 -3.0128  0.7936
  480MOL0     H64774   6.490   5.600   6.612 -1.6052 -0.5900  0.7390
  480MOL0     H64775   6.345   5.508   6.573  2.6103 -2.4284  3.5053
  480MOL0     H64776   6.455   5.736   6.397  1.2059 -0.2618  1.7713
  480MOL0     H64777   6.316   5.635   6.370  2.3881  0.4849 -3.1146
  480MOL0     H64778   6.368   5.841   6.595  1.5557  1.0740 -0.9646
  480MOL0     H64779   6.224   5.725   6.596 -1.2513 -1.0658 -2.5535
  480MOL0     H64780   6.326   5.914   6.376  0.4337  1.3239  1.7941
  480MOL0     H64781   6.211   5.954   6.499  3.0385  1.0269  0.0097
  480MOL0     H64782   6.614   5.130   6.057  0.3929  1.4260  0.1271
  480MOL0     H64783   6.713   5.079   5.843 -1.2825  0.1099 -3.6577
  480MOL0     H64784   6.825   5.345   5.421 -1.1933 -0.5669 -2.0509
  480MOL0     H64785   6.953   5.347   5.210 -1.1110  0.8707 -1.2140
  480MOL0     H64786   6.356   5.096   4.487  1.6352  0.9805 -1.9130
  480MOL0     H64787   6.193   5.275   4.476  0.5447  2.9580 -0.6126
  480MOL0     H64788   6.130   5.732   4.520  1.6442 -2.0102 -0.4640
  480MOL0     H64789   5.970   5.918   4.518  0.0818  0.6118  0.9617
  480MOL0     H64790   5.845   6.083   4.600 -0.5615  1.7548 -1.7293
  480MOL0     H64791   5.774   6.014   4.452 -2.9495  0.8392 -2.0458
  480MOL0     H64792   5.678   6.218   4.504  2.6096 -1.6596 -1.4433
  480MOL0     H64793   5.656   6.169   4.675 -1.2089 -0.5238  1.0179
  480MOL0     H64794   5.428   6.159   4.542 -2.3478 -2.8756 -0.6900
  480MOL0     H64795   5.488   6.009   4.622  2.4163 -4.2834 -2.2000
  480MOL0     H64796   5.424   5.963   4.372  0.5055  0.0566 -2.8199
  480MOL0     H64797   5.588   5.926   4.398  2.1994  2.1633  1.5261
  480MOL0     H64798   5.608   6.273   4.147 -1.1331  0.0928 -0.7918
  480MOL0     H64799   5.701   5.700   4.774  1.6985  0.9191  2.6098
  480MOL0     H64800   5.855   5.499   4.745 -0.4975 -0.3939 -1.2124
  481MOL0     O64801  11.149   8.170   8.133 -0.6648 -0.2424 -0.6036
  481MOL0     C64802  11.271   8.183   8.133 -0.0953  0.1326 -0.4226
  481MOL0     O64803  11.340   8.298   8.100  0.0451 -0.1865  0.0339
  481MOL0     C64804  11.274   8.419   8.084  0.0736 -0.7849  0.8221
  481MOL0     C64805  11.145   8.442   8.021 -0.6721 -0.4413 -0.2743
  481MOL0     C64806  11.101   8.570   7.991  0.5205 -0.9000  0.1003
  481MOL0     C64807  11.165   8.688   8.031  0.5522  0.0945  0.3065
  481MOL0     O64808  11.125   8.816   8.012  0.1577 -0.6758  0.9646
  481MOL0     C64809  10.993   8.836   7.955 -0.8834  0.2902  0.1512
  481MOL0     C64810  10.991   8.967   7.894 -0.5249 -0.7057 -0.4249
  481MOL0     C64811  10.958   9.071   7.996 -0.2416  0.3886  0.4222
  481MOL0     C64812  10.810   9.087   8.012 -0.5232  0.5631 -0.2760
  481MOL0     C64813  10.800   9.160   8.148 -0.4824  0.3134 -0.6715
  481MOL0     C64814  10.740   9.290   8.125  0.4686 -0.9107  0.3719
  481MOL0     C64815  10.691   9.351   8.257  0.2757  0.2878  0.8622
  481MOL0     C64816  10.597   9.470   8.236 -0.2613 -0.0325 -0.6522
  481MOL0     N64817  10.527   9.500   8.361  0.4961 -0.5590 -0.1630
  481MOL0     C64818  10.412   9.443   8.409 -0.2809 -0.1347  0.4723
  481MOL0     C64819  10.394   9.494   8.528 -0.6270 -0.7593  0.8114
  481MOL0     C64820  10.282   9.450   8.623 -0.5198  0.0733  0.3975
  481MOL0     C64821  10.141   9.508   8.599 -0.4052  0.9715  0.2909
  481MOL0     C64822  10.130   9.662   8.610 -0.6895  0.0175 -0.1144
  481MOL0     C64823  10.149   9.700   8.761  0.3213  1.2723 -0.1497
  481MOL0     O64824  10.165   9.842   8.753 -0.1424 -0.8843 -1.4455
  481MOL0     C64825  10.289   9.901   8.781  0.7144 -0.2999  0.0920
  481MOL0     C64826  10.311  10.020   8.709  0.3850  1.4915  0.1477
  481MOL0     C64827  10.429  10.095   8.725 -0.1430  0.7356  0.0670
  481MOL0     C64828  10.443  10.212   8.632 -0.0690  0.1173 -0.4022
  481MOL0     C64829  10.529  10.048   8.816 -0.7133 -0.4562 -0.0651
  481MOL0     C64830  10.654  10.123   8.861 -0.3319 -0.3533 -0.4443
  481MOL0     O64831  10.739  10.054   8.948  0.1433  0.7073  0.9124
  481MOL0     C64832  10.875  10.100   8.990 -0.1630  0.3846  0.3134
  481MOL0     C64833  10.910  10.072   9.118 -0.1275  0.0608  0.4728
  481MOL0     C64834  11.037  10.118   9.166 -0.7238  0.4371  0.2921
  481MOL0     C64835  11.124  10.203   9.091  0.3095  0.0389  0.2636
  481MOL0     O64836  11.236  10.261   9.152  0.0039  0.3824 -0.0635
  481MOL0     C64837  11.249  10.403   9.150  0.0195  0.3393  0.7459
  481MOL0     C64838  11.273  10.463   9.292 -0.0560 -0.3591 -1.1202
  481MOL0     C64839  11.139  10.466   9.381 -0.5064  0.2750 -0.4259
  481MOL0     C64840  11.157  10.518   9.526 -1.0425  0.1170 -0.9069
  481MOL0     C64841  11.037  10.494   9.612  0.5037  0.5312 -0.0969
  481MOL0     C64842  11.038  10.352   9.672 -0.1587 -0.1506  0.3699
  481MOL0     C64843  10.925  10.355   9.782 -0.3655 -0.5465  0.4309
  481MOL0     C64844  10.937  10.227   9.864 -1.2106 -0.2820  0.4576
  481MOL0    Cl64845  10.809  10.217   9.974 -0.2736  0.1783  0.0629
  481MOL0     C64846  11.079  10.227   8.957  0.2639  0.2267 -0.0969
  481MOL0     C64847  10.960  10.171   8.909  0.3384 -1.3475  1.0527
  481MOL0     O64848  10.676  10.235   8.814 -0.1325  0.0499  0.7702
  481MOL0     C64849  10.504   9.918   8.877  0.2888  0.9016 -0.1443
  481MOL0     C64850  10.383   9.857   8.862  0.6780 -0.0312  0.2611
  481MOL0     N64851  10.492   9.589   8.545 -0.5464  0.4313  0.0366
  481MOL0     N64852  10.565   9.604   8.443  0.1719  0.1195 -0.2844
  481MOL0     C64853  11.288   8.659   8.091  0.5787 -0.1612  0.4204
  481MOL0     C64854  11.340   8.531   8.117  0.1119 -0.5529  1.5246
  481MOL0     C64855  11.359   8.059   8.156 -0.6130  0.0644  0.0357
  481MOL0     C64856  11.295   7.938   8.190  0.2965  0.3756 -0.3565
  481MOL0     C64857  11.367   7.823   8.236 -0.0481  0.1741  1.4162
  481MOL0     C64858  11.505   7.830   8.246 -0.5833  0.9994 -0.3528
  481MOL0     O64859  11.598   7.730   8.292  0.4624 -0.5378 -0.2726
  481MOL0     C64860  11.586   7.588   8.248  0.2519 -0.2165  0.4539
  481MOL0     C64861  11.638   7.496   8.356  0.5504  0.2374  0.1984
  481MOL0     C64862  11.688   7.358   8.291  0.0230 -0.1864 -0.8291
  481MOL0     C64863  11.605   7.293   8.179  0.5176  0.1834  0.5057
  481MOL0     C64864  11.660   7.159   8.146  0.0104  0.7973 -0.1076
  481MOL0     C64865  11.706   7.047   8.122  1.2249 -0.4040 -0.4128
  481MOL0     C64866  11.568   7.948   8.219  0.1604  0.5978 -0.2421
  481MOL0     C64867  11.499   8.060   8.165 -0.1259 -1.2359 -0.8499
  481MOL0     H64868  11.095   8.356   7.976  0.8474 -1.9394  0.7471
  481MOL0     H64869  11.002   8.561   7.948  0.8927  1.1703 -1.3518
  481MOL0     H64870  10.979   8.760   7.878  0.5103 -2.4968  2.4549
  481MOL0     H64871  10.914   8.824   8.030 -0.2920  1.9059  1.0869
  481MOL0     H64872  11.090   8.993   7.856  0.5914  0.1587  2.7846
  481MOL0     H64873  10.906   8.971   7.825 -0.9276  2.8342  0.0943
  481MOL0     H64874  11.018   9.032   8.079 -1.4373  2.1801  2.2132
  481MOL0     H64875  10.997   9.170   7.971  0.8227  0.0875  0.8626
  481MOL0     H64876  10.757   9.132   7.928 -2.8889 -0.2303  0.6962
  481MOL0     H64877  10.756   8.992   8.026 -2.1422  1.5590  0.5350
  481MOL0     H64878  10.749   9.094   8.219 -0.3422 -0.1043 -0.9553
  481MOL0     H64879  10.898   9.181   8.191  0.3806 -5.9048  1.4153
  481MOL0     H64880  10.812   9.360   8.080 -0.9177  0.7348  0.6085
  481MOL0     H64881  10.641   9.282   8.078 -0.2721 -1.1624  1.9289
  481MOL0     H64882  10.634   9.279   8.315  0.6176 -1.7644 -1.1947
  481MOL0     H64883  10.774   9.389   8.318  0.4241 -1.7492  2.0131
  481MOL0     H64884  10.526   9.462   8.153 -0.9862  0.4265 -0.0885
  481MOL0     H64885  10.651   9.561   8.210  2.5301 -2.1595 -3.0991
  481MOL0     H64886  10.362   9.356   8.368 -1.4217 -0.4146  2.3472
  481MOL0     H64887  10.261   9.343   8.628  2.0959 -0.5244  0.2467
  481MOL0     H64888  10.315   9.489   8.720 -1.6658  2.5428 -0.1341
  481MOL0     H64889  10.073   9.447   8.659  0.1992  0.9215  0.9352
  481MOL0     H64890  10.128   9.479   8.494 -1.1683  0.4797  0.5093
  481MOL0     H64891  10.035   9.708   8.582 -0.5246  1.6208  1.7768
  481MOL0     H64892  10.208   9.711   8.551  1.0918  1.4602  3.2108
  481MOL0     H64893  10.234   9.646   8.803 -0.3506  1.0632  0.9879
  481MOL0     H64894  10.065   9.669   8.824  1.2749  1.2173  1.1146
  481MOL0     H64895  10.231  10.040   8.638 -0.1280 -0.3705  0.1400
  481MOL0     H64896  10.547  10.221   8.598  0.5832  0.8336  1.6075
  481MOL0     H64897  10.380  10.212   8.543 -0.8754  0.3016  0.1508
  481MOL0     H64898  10.415  10.305   8.683  0.8063  0.9037 -1.3240
  481MOL0     H64899  10.853  10.005   9.179 -2.4276  0.3173 -1.2603
  481MOL0     H64900  11.076  10.100   9.265 -1.0790 -2.1261  0.0186
  481MOL0     H64901  11.332  10.426   9.082 -0.1736 -3.3473 -0.9585
  481MOL0     H64902  11.163  10.460   9.114 -0.4765 -0.6124  0.3938
  481MOL0     H64903  11.351  10.411   9.349 -0.2469 -0.7958 -1.2537
  481MOL0     H64904  11.297  10.568   9.275 -0.9403 -0.3461 -2.3658
  481MOL0     H64905  11.090  10.369   9.395 -0.8215  0.2563 -1.5115
  481MOL0     H64906  11.058  10.527   9.339 -0.3827  0.7973  0.0873
  481MOL0     H64907  11.248  10.474   9.567  0.6470  1.9290 -2.4482
  481MOL0     H64908  11.185  10.624   9.527  0.4324 -0.1736  2.6941
  481MOL0     H64909  10.942  10.508   9.561  0.7814  0.3934 -0.6604
  481MOL0     H64910  11.036  10.559   9.700 -2.3262 -1.9726  1.9259
  481MOL0     H64911  11.023  10.274   9.596  1.1813 -0.3398  0.2838
  481MOL0     H64912  11.138  10.338   9.715  0.7420 -0.5355 -1.7365
  481MOL0     H64913  10.826  10.353   9.736 -0.7420  3.3811  0.7786
  481MOL0     H64914  10.932  10.439   9.851 -0.3590 -0.6657  0.5769
  481MOL0     H64915  11.040  10.225   9.900 -0.3473  1.0504 -1.7020
  481MOL0     H64916  10.934  10.138   9.801  1.7646 -0.9037  1.0344
  481MOL0     H64917  11.119  10.304   8.891 -1.0113  0.9288 -0.0795
  481MOL0     H64918  10.926  10.190   8.807 -2.3786  1.3166  2.3173
  481MOL0     H64919  10.579   9.870   8.940  0.8495  2.7734  0.6649
  481MOL0     H64920  10.363   9.775   8.930 -0.5860  0.8107  0.9451
  481MOL0     H64921  11.348   8.743   8.125  1.8339 -1.5695  1.8353
  481MOL0     H64922  11.434   8.514   8.168 -0.7707 -1.0736  3.0515
  481MOL0     H64923  11.187   7.930   8.180  0.0680  2.9404 -0.6119
  481MOL0     H64924  11.312   7.731   8.257 -1.8201  0.1857 -2.2678
  481MOL0     H64925  11.483   7.562   8.220  0.7004  0.8472 -2.5084
  481MOL0     H64926  11.651   7.574   8.162 -1.1745 -2.9481 -0.3046
  481MOL0     H64927  11.560   7.489   8.432  1.6553  0.6546  1.4118
  481MOL0     H64928  11.721   7.548   8.404  0.5367 -1.5976  2.3855
  481MOL0     H64929  11.697   7.299   8.382 -1.8386  3.1421  1.7598
  481MOL0     H64930  11.785   7.387   8.250 -0.7696  1.1954 -1.8251
  481MOL0     H64931  11.602   7.353   8.088 -2.4460 -1.8373 -0.9014
  481MOL0     H64932  11.503   7.292   8.220  0.7227 -1.1280  1.0347
  481MOL0     H64933  11.754   6.953   8.106  0.8818 -0.9592  1.4969
  481MOL0     H64934  11.677   7.954   8.220  0.3670 -1.6117 -2.1877
  481MOL0     H64935  11.555   8.152   8.150 -3.2668  1.6213  2.9306
  482MOL0     O64936   5.961   3.959   4.844 -0.6056  0.4329 -0.3056
  482MOL0     C64937   5.888   3.869   4.896 -1.0007  0.2822 -0.2985
  482MOL0     O64938   5.770   3.812   4.850  0.4932 -0.9551  0.4868
  482MOL0     C64939   5.720   3.861   4.731  0.6980 -0.0764 -0.1864
  482MOL0     C64940   5.644   3.781   4.645 -0.5041  1.3551  0.3327
  482MOL0     C64941   5.589   3.829   4.528  0.0119  0.2912  0.2707
  482MOL0     C64942   5.595   3.964   4.493  0.6040  0.9357 -0.4140
  482MOL0     O64943   5.543   4.037   4.387  0.2928  0.4857 -0.5934
  482MOL0     C64944   5.549   3.962   4.261 -0.1545 -0.5946  0.2925
  482MOL0     C64945   5.562   4.051   4.146 -0.3106 -0.5018  0.2706
  482MOL0     C64946   5.713   4.094   4.105  0.0561  0.5314  0.7423
  482MOL0     C64947   5.766   4.017   3.977  0.0882 -1.0898 -0.3410
  482MOL0     C64948   5.898   4.072   3.929  0.3696  1.1020 -0.8798
  482MOL0     C64949   6.012   4.040   4.031  0.2458 -0.0840 -0.3860
  482MOL0     C64950   6.141   4.102   3.981 -0.0446  0.0782 -0.2565
  482MOL0     C64951   6.183   4.057   3.843 -0.3777  0.2243  0.8136
  482MOL0     N64952   6.195   3.916   3.823  0.3602 -0.0158 -0.4426
  482MOL0     C64953   6.092   3.843   3.770 -0.3773 -0.1010  0.4252
  482MOL0     C64954   6.125   3.718   3.805 -1.5850 -0.2652  0.1222
  482MOL0     C64955   6.057   3.589   3.778  0.7655 -0.3010 -0.9007
  482MOL0     C64956   6.125   3.523   3.653 -0.0449  0.3125 -0.1225
  482MOL0     C64957   6.092   3.374   3.662  0.3692  0.1611  0.2289
  482MOL0     C64958   5.937   3.341   3.670  0.3034  0.7390  0.5289
  482MOL0     O64959   5.905   3.202   3.637  0.1528 -0.2469  0.1682
  482MOL0     C64960   5.974   3.098   3.693 -0.2180  0.8536 -1.2896
  482MOL0     C64961   5.998   2.989   3.616 -0.6091  0.4010  1.0973
  482MOL0     C64962   6.056   2.876   3.667 -0.5662  0.2329 -0.9287
  482MOL0     C64963   6.092   2.765   3.565  1.0215  0.1959 -0.1379
  482MOL0     C64964   6.099   2.877   3.804  0.4064 -0.8792  0.1879
  482MOL0     C64965   6.172   2.763   3.866 -0.4254 -0.6736 -0.3513
  482MOL0     O64966   6.228   2.800   3.985  0.0348 -0.2120 -0.9224
  482MOL0     C64967   6.316   2.716   4.056 -0.8948  0.5074 -0.9161
  482MOL0     C64968   6.276   2.582   4.083  0.6446 -1.5148  0.1929
  482MOL0     C64969   6.354   2.507   4.164 -0.1350  0.3682 -0.2424
  482MOL0     C64970   6.468   2.560   4.232  0.3130 -0.6378  0.3818
  482MOL0     O64971   6.558   2.480   4.297  0.2260 -0.4728  0.4444
  482MOL0     C64972   6.528   2.343   4.318 -0.8343  0.0364  0.4270
  482MOL0     C64973   6.666   2.282   4.381  1.2828  0.8120  0.9565
  482MOL0     C64974   6.793   2.337   4.316 -0.5957 -0.4839 -0.7676
  482MOL0     C64975   6.910   2.236   4.354  0.7257 -0.0437 -0.2419
  482MOL0     C64976   7.046   2.277   4.310 -0.8397 -0.1910  0.2308
  482MOL0     C64977   7.119   2.382   4.397  0.5554  1.3554 -0.0537
  482MOL0     C64978   7.266   2.390   4.365  0.3035 -0.4206  0.2673
  482MOL0     C64979   7.329   2.486   4.475 -0.0403 -0.3974 -0.7830
  482MOL0    Cl64980   7.253   2.645   4.496 -0.0359 -0.5432 -0.8809
  482MOL0     C64981   6.502   2.695   4.213  0.1366  1.2587  0.1545
  482MOL0     C64982   6.436   2.770   4.114 -0.0654 -0.2949  0.3632
  482MOL0     O64983   6.168   2.651   3.818 -0.3131  0.1675 -0.3150
  482MOL0     C64984   6.072   2.985   3.880  0.2529 -0.3898 -0.2718
  482MOL0     C64985   6.013   3.097   3.824 -0.5391 -0.1466 -0.1506
  482MOL0     N64986   6.241   3.727   3.882 -0.5615 -0.5064 -0.7546
  482MOL0     N64987   6.287   3.845   3.878 -0.3956  0.3525  0.3315
  482MOL0     C64988   5.647   4.048   4.585  0.5820  0.8299  0.3996
  482MOL0     C64989   5.699   3.998   4.703  1.1050  0.0882 -0.1245
  482MOL0     C64990   5.939   3.840   5.039  0.6350  0.0815 -0.2490
  482MOL0     C64991   6.027   3.921   5.112 -0.8471 -0.4927 -0.3772
  482MOL0     C64992   6.068   3.876   5.233 -0.4302 -0.3786 -0.3275
  482MOL0     C64993   6.007   3.778   5.304  0.3608 -0.2305  0.0664
  482MOL0     O64994   6.042   3.759   5.435  0.5999  0.0243  0.3387
  482MOL0     C64995   6.139   3.652   5.476 -0.2358 -0.2986 -1.0156
  482MOL0     C64996   6.251   3.717   5.554 -0.2426  0.1741 -0.2176
  482MOL0     C64997   6.368   3.623   5.602 -0.1703 -0.0282  0.6735
  482MOL0     C64998   6.338   3.514   5.712  0.1226 -0.8505 -0.0279
  482MOL0     C64999   6.273   3.562   5.834  0.5142 -0.6300  0.4078
  482MOL0     C65000   6.222   3.593   5.944  0.4727 -0.1090  1.0301
  482MOL0     C65001   5.901   3.707   5.240  0.3022  0.3947  0.2342
  482MOL0     C65002   5.879   3.728   5.104 -0.3090 -0.2599 -0.2699
  482MOL0     H65003   5.629   3.676   4.667  1.2051  0.7865 -0.9888
  482MOL0     H65004   5.529   3.773   4.457  1.9443  1.4024 -2.4076
  482MOL0     H65005   5.633   3.893   4.268  0.8365  0.6320  0.9515
  482MOL0     H65006   5.458   3.903   4.250  0.8538 -2.2418  0.4570
  482MOL0     H65007   5.517   3.994   4.064  1.7088 -0.5317 -0.8651
  482MOL0     H65008   5.493   4.135   4.157 -2.3269 -1.5555 -2.8816
  482MOL0     H65009   5.719   4.199   4.076 -0.8545  1.2771  3.0344
  482MOL0     H65010   5.774   4.074   4.194  0.4889  0.9302  0.5379
  482MOL0     H65011   5.788   3.910   3.986 -1.3792 -1.4548 -0.7645
  482MOL0     H65012   5.692   4.021   3.896  1.6863 -0.2310 -1.8191
  482MOL0     H65013   5.908   4.029   3.829 -0.1300  2.8438 -1.7100
  482MOL0     H65014   5.891   4.179   3.909 -0.8044  1.0098 -1.0025
  482MOL0     H65015   5.990   4.086   4.128 -3.9038 -1.7267 -0.3532
  482MOL0     H65016   6.008   3.931   4.043 -1.0750 -0.2292 -1.9069
  482MOL0     H65017   6.123   4.210   3.983  1.1472  0.2828  0.7256
  482MOL0     H65018   6.228   4.087   4.045  2.5556  2.7134 -2.8369
  482MOL0     H65019   6.277   4.101   3.808  0.1376 -2.5674 -1.7155
  482MOL0     H65020   6.102   4.102   3.785  0.5803  1.0758  0.1141
  482MOL0     H65021   5.999   3.877   3.726  1.5448  2.8229 -1.7205
  482MOL0     H65022   6.076   3.536   3.872 -1.0857 -1.2739 -1.0242
  482MOL0     H65023   5.949   3.606   3.767  0.7199  3.3729  2.9643
  482MOL0     H65024   6.234   3.524   3.644  0.1223 -0.6188  1.4040
  482MOL0     H65025   6.092   3.570   3.560  1.6383  2.6978  0.4040
  482MOL0     H65026   6.138   3.335   3.753 -0.1182  1.1986  0.9444
  482MOL0     H65027   6.131   3.327   3.571  0.0282  0.3989 -0.0455
  482MOL0     H65028   5.883   3.402   3.597  0.1894 -1.3460 -1.2230
  482MOL0     H65029   5.900   3.357   3.772 -3.3943  0.0799 -0.5867
  482MOL0     H65030   5.986   3.000   3.509 -2.2328 -0.8662  1.1052
  482MOL0     H65031   6.036   2.676   3.596  1.2348  0.3435  0.7003
  482MOL0     H65032   6.077   2.795   3.461  3.2608 -0.3753 -0.6717
  482MOL0     H65033   6.194   2.727   3.575  0.3481 -1.1102  3.5982
  482MOL0     H65034   6.184   2.549   4.034 -0.3751  0.5876  0.5698
  482MOL0     H65035   6.322   2.404   4.177 -1.0906  0.6680 -0.1450
  482MOL0     H65036   6.449   2.339   4.394  0.6881 -2.1830  2.0251
  482MOL0     H65037   6.503   2.286   4.228  2.1856  2.3436 -2.0811
  482MOL0     H65038   6.676   2.324   4.481 -0.3716  0.4035  1.3242
  482MOL0     H65039   6.648   2.175   4.393  0.0969  0.7188 -1.1230
  482MOL0     H65040   6.804   2.442   4.344 -1.7585  0.0644 -2.2635
  482MOL0     H65041   6.783   2.351   4.208 -1.1973 -3.6622 -1.2231
  482MOL0     H65042   6.906   2.218   4.462  1.2383  1.8186  0.1421
  482MOL0     H65043   6.894   2.143   4.300  3.4866 -0.4548 -0.5298
  482MOL0     H65044   7.051   2.321   4.210  2.9884  0.5378  0.5824
  482MOL0     H65045   7.109   2.188   4.306  0.2924  0.5900  0.0576
  482MOL0     H65046   7.076   2.482   4.383  1.5784  2.3046  2.8389
  482MOL0     H65047   7.094   2.354   4.500 -0.4109 -1.6326 -1.0188
  482MOL0     H65048   7.282   2.420   4.261  0.2465 -1.1051  0.0572
  482MOL0     H65049   7.325   2.299   4.378 -1.4427 -1.8343 -1.1738
  482MOL0     H65050   7.435   2.496   4.451  0.4876  0.7430  1.6590
  482MOL0     H65051   7.331   2.436   4.572  0.5952  0.5246 -0.3010
  482MOL0     H65052   6.590   2.743   4.253  0.1592  2.7484 -1.5218
  482MOL0     H65053   6.473   2.869   4.089  0.6585 -0.6759 -0.0885
  482MOL0     H65054   6.094   3.001   3.986 -1.9104  1.5952 -0.0491
  482MOL0     H65055   5.981   3.175   3.892 -1.9122 -1.2969  0.5726
  482MOL0     H65056   5.648   4.154   4.563  2.0776  1.2491  2.2179
  482MOL0     H65057   5.733   4.067   4.780 -3.6971  2.6042  0.1004
  482MOL0     H65058   6.065   4.016   5.077  2.7149 -2.4051 -2.3544
  482MOL0     H65059   6.131   3.944   5.290 -4.8326  1.9830  2.2912
  482MOL0     H65060   6.083   3.585   5.544 -0.8175  1.3690  0.2136
  482MOL0     H65061   6.176   3.591   5.393 -0.5675 -0.6440 -0.9129
  482MOL0     H65062   6.214   3.776   5.638 -0.3572  0.5912 -0.5559
  482MOL0     H65063   6.297   3.782   5.479 -0.9420 -0.9255 -1.6542
  482MOL0     H65064   6.437   3.694   5.649 -0.8103  2.2940 -1.6466
  482MOL0     H65065   6.424   3.589   5.515 -0.6403 -1.7005  0.9932
  482MOL0     H65066   6.431   3.472   5.750 -0.1420 -0.6683  0.8542
  482MOL0     H65067   6.287   3.428   5.668  1.2188 -1.0777 -0.8957
  482MOL0     H65068   6.177   3.619   6.038  1.4445  0.0707  1.4619
  482MOL0     H65069   5.847   3.629   5.292  0.0934 -0.5691 -1.3635
  482MOL0     H65070   5.821   3.655   5.048 -0.5363 -2.3922  2.5169
  483MOL0     O65071   6.014   2.262   2.925  0.4158 -0.4569 -1.0387
  483MOL0     C65072   5.941   2.163   2.914 -0.5790 -0.3371 -0.5647
  483MOL0     O65073   5.902   2.087   3.022  0.4128  0.1639  0.6177
  483MOL0     C65074   5.931   2.141   3.144  0.3766 -0.5871  0.1926
  483MOL0     C65075   6.064   2.138   3.191 -0.1727  0.6409 -0.0436
  483MOL0     C65076   6.094   2.203   3.309  0.2398  0.1724  0.0741
  483MOL0     C65077   6.000   2.260   3.388 -0.4886 -0.1378  0.6519
  483MOL0     O65078   6.019   2.320   3.510 -0.4108  0.9691 -0.1524
  483MOL0     C65079   6.144   2.303   3.580 -0.7519 -1.0492  1.2124
  483MOL0     C65080   6.132   2.356   3.729 -0.6636  1.0972  0.5945
  483MOL0     C65081   6.039   2.260   3.808  1.0952 -0.1056  0.3493
  483MOL0     C65082   6.009   2.295   3.959  0.6753 -0.7741  1.0167
  483MOL0     C65083   5.902   2.214   4.030  0.3869 -0.6292  0.4652
  483MOL0     C65084   5.847   2.259   4.170  0.3477  0.8499  0.3426
  483MOL0     C65085   5.938   2.253   4.286  0.2551  0.1979 -0.0011
  483MOL0     C65086   5.982   2.117   4.329 -0.5745  0.1136  1.1280
  483MOL0     N65087   5.877   2.011   4.348 -0.4857 -0.0352  0.3412
  483MOL0     C65088   5.841   1.918   4.249  0.5930 -0.1447 -0.5857
  483MOL0     C65089   5.739   1.853   4.313  0.0263 -0.5658 -0.3530
  483MOL0     C65090   5.649   1.748   4.253  0.1949  0.5254 -0.4588
  483MOL0     C65091   5.507   1.801   4.230  0.2705 -0.2898  1.3434
  483MOL0     C65092   5.501   1.915   4.121 -0.1089 -0.4975 -0.2112
  483MOL0     C65093   5.370   1.987   4.126 -0.0358 -0.5098 -0.1164
  483MOL0     O65094   5.367   2.060   3.997 -0.2468 -0.2732 -0.1048
  483MOL0     C65095   5.253   2.128   3.953  0.3124  0.2043  0.0087
  483MOL0     C65096   5.128   2.113   4.012 -0.1517  0.0708 -0.4783
  483MOL0     C65097   5.012   2.170   3.952 -0.6411 -0.2212  0.2916
  483MOL0     C65098   4.875   2.143   4.024 -0.8024  0.7880  0.0306
  483MOL0     C65099   5.021   2.229   3.827  0.0801 -0.8137  0.1560
  483MOL0     C65100   4.911   2.298   3.756  0.5837 -0.5262  0.1424
  483MOL0     O65101   4.954   2.404   3.678 -0.2110 -0.9564 -0.5328
  483MOL0     C65102   4.895   2.432   3.556  0.7904  0.1450  0.5783
  483MOL0     C65103   4.877   2.567   3.512 -0.3131 -0.6344  0.2876
  483MOL0     C65104   4.830   2.599   3.383  0.0774 -0.7224  0.0998
  483MOL0     C65105   4.807   2.486   3.296 -0.3974  0.1791  0.6188
  483MOL0     O65106   4.769   2.497   3.160  0.0225  0.1091 -0.3880
  483MOL0     C65107   4.778   2.628   3.101  0.4677 -0.2601  0.1950
  483MOL0     C65108   4.785   2.605   2.947  0.0722  0.2735 -0.8152
  483MOL0     C65109   4.642   2.610   2.907  0.0750 -0.8647  0.2363
  483MOL0     C65110   4.609   2.591   2.762 -0.7062 -0.5958  0.2145
  483MOL0     C65111   4.694   2.688   2.670  0.7143  0.2315 -0.2775
  483MOL0     C65112   4.621   2.691   2.534 -0.6062  0.3405 -0.3748
  483MOL0     C65113   4.688   2.777   2.428  0.0000 -0.3242  0.0136
  483MOL0     C65114   4.600   2.832   2.317  0.2516  0.5433  0.5692
  483MOL0    Cl65115   4.496   2.704   2.240  0.0106  0.0454 -0.0905
  483MOL0     C65116   4.819   2.353   3.346 -0.1534  0.3931  0.9542
  483MOL0     C65117   4.860   2.325   3.474  0.8024  0.4352  0.3169
  483MOL0     O65118   4.794   2.260   3.762  0.1655  0.1822  0.9582
  483MOL0     C65119   5.153   2.254   3.777 -1.3543  0.6278  0.7364
  483MOL0     C65120   5.268   2.198   3.834 -0.2123  0.0453 -0.5351
  483MOL0     N65121   5.715   1.894   4.443 -0.0858 -0.4194 -0.0746
  483MOL0     N65122   5.808   1.987   4.464 -0.4408  0.5845 -0.4082
  483MOL0     C65123   5.865   2.256   3.341 -0.4602  0.5258  0.4395
  483MOL0     C65124   5.824   2.195   3.220  0.1710 -0.1467 -0.5200
  483MOL0     C65125   5.914   2.115   2.775 -0.4163 -0.8644 -0.8474
  483MOL0     C65126   5.943   2.199   2.663 -0.0020 -0.5304  0.5536
  483MOL0     C65127   5.904   2.159   2.528 -0.0434  0.2414 -0.4559
  483MOL0     C65128   5.841   2.038   2.498  0.2435 -0.2443 -0.2061
  483MOL0     O65129   5.794   1.994   2.379  0.6834  0.1033 -0.8087
  483MOL0     C65130   5.807   2.060   2.253 -0.7473 -0.0056  0.0632
  483MOL0     C65131   5.919   1.994   2.166  0.1200 -0.3204 -1.2223
  483MOL0     C65132   6.065   2.022   2.207  0.6532 -0.0177 -0.3326
  483MOL0     C65133   6.146   1.965   2.099 -0.8156  0.2811  0.1399
  483MOL0     C65134   6.163   1.814   2.100 -0.3291 -0.5128 -0.6105
  483MOL0     C65135   6.169   1.695   2.084 -0.8949 -0.4522  0.4050
  483MOL0     C65136   5.825   1.956   2.609  0.1621 -0.2037  0.3010
  483MOL0     C65137   5.846   1.999   2.742 -0.4843 -0.4446  0.1152
  483MOL0     H65138   6.141   2.095   3.128  1.0795  1.1164  1.1146
  483MOL0     H65139   6.199   2.202   3.338  0.2832 -0.3059 -0.0954
  483MOL0     H65140   6.170   2.197   3.576  2.5231 -0.3111 -0.4492
  483MOL0     H65141   6.221   2.361   3.529 -3.1481  2.3409  1.0787
  483MOL0     H65142   6.233   2.345   3.770  0.1816  2.9356 -0.8597
  483MOL0     H65143   6.098   2.459   3.739  0.1533  1.2681  1.7832
  483MOL0     H65144   5.940   2.250   3.761  0.1015 -0.9005  2.4976
  483MOL0     H65145   6.076   2.158   3.812 -3.2450 -1.8438  1.4847
  483MOL0     H65146   6.104   2.278   4.010  1.0987 -2.3567 -0.2030
  483MOL0     H65147   5.982   2.401   3.965  1.9326 -0.4537  1.2951
  483MOL0     H65148   5.818   2.222   3.960  0.2171 -0.4398  0.6886
  483MOL0     H65149   5.918   2.107   4.044 -2.6987 -1.1915  0.5983
  483MOL0     H65150   5.794   2.354   4.161  3.0793  2.5702  1.1258
  483MOL0     H65151   5.766   2.188   4.189  1.9446 -1.1263  0.1364
  483MOL0     H65152   6.032   2.303   4.263  1.8963 -2.8149 -0.2869
  483MOL0     H65153   5.896   2.297   4.377  2.3993  1.1652  0.5826
  483MOL0     H65154   6.050   2.128   4.414  1.4023  1.8818 -0.5367
  483MOL0     H65155   6.042   2.084   4.243 -1.5652 -2.6994  1.4133
  483MOL0     H65156   5.880   1.894   4.150  2.9486  0.4048  0.1236
  483MOL0     H65157   5.688   1.703   4.162  2.0881  0.6138  0.2605
  483MOL0     H65158   5.637   1.667   4.326 -1.8850  0.7035 -0.5292
  483MOL0     H65159   5.478   1.852   4.323 -0.7129  1.5355  0.0905
  483MOL0     H65160   5.426   1.729   4.217  1.6623 -1.4539 -1.7685
  483MOL0     H65161   5.523   1.871   4.023  2.1302 -1.5079  0.6688
  483MOL0     H65162   5.577   1.993   4.116  0.3752 -1.0561 -2.8493
  483MOL0     H65163   5.348   2.046   4.216  0.2046  0.3650 -0.6223
  483MOL0     H65164   5.292   1.910   4.130 -1.3194  0.7935  2.4430
  483MOL0     H65165   5.109   2.052   4.099 -2.0033 -0.5901 -1.2875
  483MOL0     H65166   4.842   2.045   3.988  4.1643 -0.6817 -1.4259
  483MOL0     H65167   4.876   2.143   4.134  1.3193  1.7453  0.0682
  483MOL0     H65168   4.809   2.225   3.997 -0.5164  1.1219  0.3268
  483MOL0     H65169   4.890   2.644   3.588 -1.7769 -0.3980  0.3306
  483MOL0     H65170   4.818   2.700   3.345 -1.4162 -1.8768 -2.8648
  483MOL0     H65171   4.696   2.689   3.139  0.0576  2.4473 -4.3082
  483MOL0     H65172   4.873   2.675   3.126  0.0587  1.0607 -0.6583
  483MOL0     H65173   4.834   2.687   2.895  1.0435  2.6617  3.4682
  483MOL0     H65174   4.833   2.509   2.924 -3.1870 -1.3338 -1.6987
  483MOL0     H65175   4.610   2.712   2.929  2.2994  0.5048 -2.2699
  483MOL0     H65176   4.583   2.537   2.965  0.0380 -0.5025  0.6615
  483MOL0     H65177   4.626   2.486   2.737 -0.7257 -0.3474 -0.8861
  483MOL0     H65178   4.503   2.618   2.754 -0.2076  0.9625 -2.0511
  483MOL0     H65179   4.793   2.642   2.659  0.3632 -0.6405  0.0679
  483MOL0     H65180   4.692   2.789   2.712 -2.0374  0.1814 -0.0975
  483MOL0     H65181   4.602   2.590   2.497 -0.1862  0.1256 -0.0108
  483MOL0     H65182   4.526   2.738   2.563 -1.2872 -0.4855 -1.2267
  483MOL0     H65183   4.764   2.721   2.373 -1.6680 -2.0565 -0.6097
  483MOL0     H65184   4.738   2.864   2.473 -0.3405  0.0113 -0.2446
  483MOL0     H65185   4.667   2.874   2.242  1.1972  0.1124  1.1617
  483MOL0     H65186   4.545   2.918   2.357  0.3279  1.5099 -1.2799
  483MOL0     H65187   4.779   2.269   3.290 -1.1321  0.6342  1.2782
  483MOL0     H65188   4.860   2.222   3.507  1.9316  0.4060  0.2695
  483MOL0     H65189   5.180   2.300   3.683 -2.5594 -3.8269 -2.1112
  483MOL0     H65190   5.370   2.209   3.800  0.5918  2.9171  2.2960
  483MOL0     H65191   5.792   2.317   3.393  1.2538  2.9610  0.1667
  483MOL0     H65192   5.723   2.193   3.178 -0.5707 -2.0374  1.1878
  483MOL0     H65193   5.982   2.298   2.684 -1.5940 -0.3110  2.9410
  483MOL0     H65194   5.920   2.222   2.441 -1.7643 -0.0861 -1.0506
  483MOL0     H65195   5.711   2.066   2.200  0.3601  0.4881 -2.0060
  483MOL0     H65196   5.832   2.165   2.274 -0.5047 -0.6023  3.1176
  483MOL0     H65197   5.905   2.034   2.065  1.3308  0.7706 -0.9937
  483MOL0     H65198   5.900   1.887   2.152 -2.4214  0.0380 -0.9498
  483MOL0     H65199   6.105   1.974   2.296  3.8631  2.9776  0.0610
  483MOL0     H65200   6.074   2.130   2.225 -3.7222  0.4914 -0.2098
  483MOL0     H65201   6.241   2.016   2.114 -0.9661  1.3746 -2.2059
  483MOL0     H65202   6.115   1.993   1.998  0.4332 -2.0613 -0.9881
  483MOL0     H65203   6.169   1.588   2.077  0.0006 -0.3722 -2.0877
  483MOL0     H65204   5.773   1.861   2.601 -3.5328  1.4140  2.5813
  483MOL0     H65205   5.814   1.924   2.814  1.2368 -0.1406  1.2537
  484MOL0     O65206   5.523   4.112   3.726  0.5579  0.7264  0.4533
  484MOL0     C65207   5.414   4.146   3.674 -0.4679  0.2763 -0.5716
  484MOL0     O65208   5.335   4.236   3.716  0.3184 -0.3922 -0.1381
  484MOL0     C65209   5.384   4.321   3.820  0.5494  0.4653 -0.4166
  484MOL0     C65210   5.495   4.406   3.793  0.4724  1.0479 -1.4294
  484MOL0     C65211   5.555   4.480   3.899  0.5284  0.4715 -0.2470
  484MOL0     C65212   5.494   4.478   4.021 -1.2251 -0.3432 -0.0688
  484MOL0     O65213   5.571   4.557   4.109  0.0877 -0.3079  0.0027
  484MOL0     C65214   5.621   4.463   4.204 -0.8706 -0.8227  0.3447
  484MOL0     C65215   5.685   4.536   4.318 -0.2404  0.2032  0.6634
  484MOL0     C65216   5.726   4.430   4.423  0.2576  1.3351 -0.9981
  484MOL0     C65217   5.855   4.480   4.504 -0.5160  0.5254 -0.1310
  484MOL0     C65218   5.922   4.390   4.604 -0.4703  0.7103 -0.1989
  484MOL0     C65219   5.925   4.451   4.752 -0.1038  0.2397  0.2169
  484MOL0     C65220   5.950   4.334   4.862 -0.4583 -0.9455  0.0252
  484MOL0     C65221   6.005   4.364   4.994 -0.3169  0.4298 -1.1148
  484MOL0     N65222   6.151   4.379   4.992 -0.7962 -0.1956 -0.0613
  484MOL0     C65223   6.213   4.506   4.982 -1.0203 -0.1213 -0.7391
  484MOL0     C65224   6.347   4.473   5.006 -0.6678  0.0209 -0.0499
  484MOL0     C65225   6.458   4.574   5.026  0.5074 -0.4365 -0.7068
  484MOL0     C65226   6.453   4.647   5.158 -0.2973  0.1924  0.8160
  484MOL0     C65227   6.414   4.561   5.275  0.1316 -0.4869  0.2748
  484MOL0     C65228   6.420   4.635   5.411  0.5710  0.5256 -0.3817
  484MOL0     O65229   6.561   4.622   5.462 -0.7979 -0.3834  0.3410
  484MOL0     C65230   6.570   4.654   5.592  0.1531  0.3584  0.2039
  484MOL0     C65231   6.660   4.577   5.657 -1.5961 -0.2737 -0.3391
  484MOL0     C65232   6.694   4.601   5.790 -0.2467  0.1795  1.0078
  484MOL0     C65233   6.801   4.522   5.845 -0.7967  0.4433 -0.9407
  484MOL0     C65234   6.633   4.706   5.865  0.0793  1.1440  0.1876
  484MOL0     C65235   6.661   4.744   6.007  0.3363  0.1608  0.7040
  484MOL0     O65236   6.597   4.849   6.060  0.4060 -0.3165 -0.4097
  484MOL0     C65237   6.627   4.882   6.192  0.2570  0.7810 -0.0177
  484MOL0     C65238   6.749   4.950   6.214  0.2136 -1.5522 -0.1752
  484MOL0     C65239   6.772   5.001   6.345 -0.4411 -0.0894 -0.2243
  484MOL0     C65240   6.698   4.959   6.454 -0.7312 -0.2483 -0.8337
  484MOL0     O65241   6.722   5.008   6.586 -0.5223 -0.8123 -0.1612
  484MOL0     C65242   6.861   5.021   6.642 -0.2005 -0.5317 -0.6271
  484MOL0     C65243   6.845   5.120   6.762 -1.1321 -0.2379 -0.1176
  484MOL0     C65244   6.986   5.127   6.816  0.3286  0.4837 -1.1518
  484MOL0     C65245   7.017   5.237   6.919  0.5842 -0.1975 -0.1102
  484MOL0     C65246   7.017   5.382   6.861 -0.1902 -0.4907 -0.4597
  484MOL0     C65247   7.033   5.494   6.972  0.3251 -0.3241 -1.0334
  484MOL0     C65248   7.118   5.607   6.905 -1.5297  0.4846  0.3894
  484MOL0     C65249   7.120   5.731   6.994 -0.1490  0.5316 -0.5400
  484MOL0    Cl65250   6.961   5.815   7.006  0.3142  0.4127  0.4318
  484MOL0     C65251   6.583   4.885   6.423  0.1936  0.2342 -0.1521
  484MOL0     C65252   6.543   4.847   6.296  0.7923  0.4287  0.2148
  484MOL0     O65253   6.751   4.676   6.063  0.0791 -1.2612 -0.4822
  484MOL0     C65254   6.539   4.786   5.793  0.5738  0.2891 -1.2908
  484MOL0     C65255   6.504   4.760   5.663 -0.7191  0.9009  0.3505
  484MOL0     N65256   6.370   4.339   5.040 -0.6178  0.2838  0.2592
  484MOL0     N65257   6.247   4.286   5.037  0.5157 -0.0760 -0.9448
  484MOL0     C65258   5.376   4.420   4.048 -1.3509 -0.1550  0.5618
  484MOL0     C65259   5.321   4.329   3.948 -0.6849  0.3905  0.1465
  484MOL0     C65260   5.370   4.070   3.551  0.0009  0.0927 -0.3400
  484MOL0     C65261   5.399   3.938   3.520 -0.2063  0.8036 -0.3021
  484MOL0     C65262   5.369   3.871   3.400  0.0942  0.9400  0.0870
  484MOL0     C65263   5.291   3.936   3.312 -0.3256 -0.4993  1.0805
  484MOL0     O65264   5.283   3.868   3.191  0.2964  0.4182  0.4278
  484MOL0     C65265   5.195   3.917   3.087 -0.8627  0.0700  0.1398
  484MOL0     C65266   5.234   3.941   2.945 -0.0059  0.4409  0.3877
  484MOL0     C65267   5.279   3.812   2.886  0.2477 -0.7814 -0.0140
  484MOL0     C65268   5.335   3.837   2.743  0.1704  0.0045  0.1595
  484MOL0     C65269   5.247   3.884   2.638  0.3188  1.0103 -0.4795
  484MOL0     C65270   5.180   3.914   2.546  0.5075  0.2369  0.5733
  484MOL0     C65271   5.231   4.062   3.351 -0.9181 -0.1324  0.2413
  484MOL0     C65272   5.273   4.125   3.466  0.1597 -0.0269 -0.1397
  484MOL0     H65273   5.541   4.396   3.695 -1.1750  0.7952 -2.2267
  484MOL0     H65274   5.645   4.535   3.879  2.0862 -1.8145  0.0573
  484MOL0     H65275   5.539   4.411   4.255 -1.0879  1.0984  2.1074
  484MOL0     H65276   5.677   4.392   4.142 -0.7256 -0.2338 -0.2059
  484MOL0     H65277   5.769   4.591   4.274 -2.0871  1.7641 -1.1361
  484MOL0     H65278   5.610   4.605   4.357 -2.8719 -0.3884 -2.7790
  484MOL0     H65279   5.650   4.398   4.495  1.5273 -0.0452 -0.2217
  484MOL0     H65280   5.771   4.350   4.363  3.9391  2.9142 -0.5868
  484MOL0     H65281   5.930   4.509   4.430 -0.2516 -0.3058 -0.1992
  484MOL0     H65282   5.810   4.564   4.558 -1.0782  0.1717 -0.0413
  484MOL0     H65283   5.862   4.298   4.603 -1.6988  1.5010 -0.8584
  484MOL0     H65284   6.026   4.384   4.572 -1.0654  0.6653 -2.2600
  484MOL0     H65285   6.003   4.528   4.760 -0.3779  0.5724 -0.2694
  484MOL0     H65286   5.827   4.492   4.777  1.3772  3.1082  1.9907
  484MOL0     H65287   5.856   4.281   4.880 -1.7508  0.8512 -1.1168
  484MOL0     H65288   6.014   4.253   4.824  3.1964  0.8599  1.8064
  484MOL0     H65289   5.987   4.281   5.064 -0.1281 -0.1269 -1.7214
  484MOL0     H65290   5.960   4.452   5.041  2.7374  1.6133 -0.1174
  484MOL0     H65291   6.173   4.606   4.976 -0.3329  0.1318 -1.2501
  484MOL0     H65292   6.552   4.519   5.032  1.5167  1.3239  0.3506
  484MOL0     H65293   6.466   4.656   4.953 -1.3123 -1.0358 -1.6457
  484MOL0     H65294   6.379   4.728   5.155  0.0858  0.5991  1.8972
  484MOL0     H65295   6.548   4.693   5.186  0.0747 -1.3621  2.2447
  484MOL0     H65296   6.481   4.475   5.289  2.0149  1.0176  0.9145
  484MOL0     H65297   6.312   4.527   5.253  0.7107 -0.4131 -3.0125
  484MOL0     H65298   6.348   4.600   5.485  0.9120  0.7808  0.0753
  484MOL0     H65299   6.390   4.740   5.403 -1.9152 -0.1265 -0.4731
  484MOL0     H65300   6.710   4.497   5.603  1.1669  1.4702 -0.5150
  484MOL0     H65301   6.890   4.586   5.854  0.3841 -1.3173  0.7764
  484MOL0     H65302   6.767   4.471   5.935  1.1742 -4.0012 -2.4235
  484MOL0     H65303   6.827   4.440   5.777  2.6833 -0.2600  0.9949
  484MOL0     H65304   6.812   4.964   6.127  1.8944  0.6482  1.2728
  484MOL0     H65305   6.856   5.070   6.351 -2.1210  2.0792 -0.5422
  484MOL0     H65306   6.900   4.925   6.675  2.0997 -0.4686 -2.9155
  484MOL0     H65307   6.929   5.060   6.566 -2.6521  3.3230 -1.1740
  484MOL0     H65308   6.811   5.219   6.729 -0.0808 -0.7396 -3.0013
  484MOL0     H65309   6.784   5.069   6.837 -0.5168 -2.6090 -1.1281
  484MOL0     H65310   7.067   5.136   6.743  1.7994  0.4604  0.4146
  484MOL0     H65311   7.004   5.029   6.862  0.4275  0.4387 -1.2863
  484MOL0     H65312   6.946   5.237   7.003 -0.4559  0.5899 -0.9526
  484MOL0     H65313   7.118   5.225   6.960  0.8871  1.8716 -0.1438
  484MOL0     H65314   6.932   5.399   6.795 -1.2613  1.8140  1.3550
  484MOL0     H65315   7.107   5.374   6.799  0.6478 -0.5575  0.7290
  484MOL0     H65316   6.939   5.529   7.015 -0.5521  0.2367 -3.2634
  484MOL0     H65317   7.105   5.461   7.048  3.4542  0.1617 -3.5594
  484MOL0     H65318   7.082   5.638   6.806  1.9803 -0.0912 -1.2128
  484MOL0     H65319   7.220   5.570   6.888 -1.3983 -0.3662  2.7133
  484MOL0     H65320   7.185   5.807   6.950 -0.4681 -0.0224 -2.0248
  484MOL0     H65321   7.158   5.706   7.094  3.1992 -2.4367 -2.3379
  484MOL0     H65322   6.514   4.858   6.501 -0.0589 -1.6897 -0.9745
  484MOL0     H65323   6.451   4.791   6.278 -0.6683  2.5815  0.5352
  484MOL0     H65324   6.492   4.868   5.845  1.6643  1.4350 -2.0486
  484MOL0     H65325   6.447   4.833   5.606  0.5751  1.5572 -0.1261
  484MOL0     H65326   5.336   4.432   4.149  0.1428 -0.5021  1.2244
  484MOL0     H65327   5.223   4.292   3.975 -1.9551  2.1955 -1.6894
  484MOL0     H65328   5.459   3.880   3.589 -1.2666 -3.1928 -2.4580
  484MOL0     H65329   5.391   3.769   3.372 -0.9317 -0.1560  3.0117
  484MOL0     H65330   5.107   3.853   3.085 -0.6387 -0.2709  0.7926
  484MOL0     H65331   5.167   4.020   3.112 -0.3005  0.2831 -0.0917
  484MOL0     H65332   5.312   4.017   2.932  1.3459 -0.6381  1.8045
  484MOL0     H65333   5.146   3.974   2.890 -0.1661  1.2959  1.1307
  484MOL0     H65334   5.199   3.739   2.875 -2.0622  1.6994 -0.9507
  484MOL0     H65335   5.369   3.775   2.937  0.4214 -0.5278 -0.1327
  484MOL0     H65336   5.365   3.737   2.711  1.6223  1.2163 -2.5281
  484MOL0     H65337   5.425   3.898   2.750  1.4897 -1.7871 -0.4405
  484MOL0     H65338   5.113   3.959   2.476  1.3773 -0.8429 -1.0035
  484MOL0     H65339   5.164   4.122   3.290  0.5056 -1.1186 -2.4580
  484MOL0     H65340   5.228   4.223   3.478 -3.2912 -1.2258 -1.7691
  485MOL0     O65341   6.258   1.394   2.355 -0.3391  0.0837 -0.1718
  485MOL0     C65342   6.323   1.496   2.347  0.1086  0.4295  0.2277
  485MOL0     O65343   6.304   1.601   2.428  0.1047  0.0314  0.2087
  485MOL0     C65344   6.224   1.588   2.541 -0.2927 -0.2310  0.8725
  485MOL0     C65345   6.125   1.683   2.553 -0.2144 -0.5774  0.6233
  485MOL0     C65346   6.040   1.678   2.668 -0.3795 -0.4024 -0.4270
  485MOL0     C65347   6.058   1.577   2.771  0.6990  0.2063  0.8335
  485MOL0     O65348   5.990   1.549   2.884  0.7815 -0.2800  0.0352
  485MOL0     C65349   5.894   1.646   2.918  0.1499 -0.3359  0.7547
  485MOL0     C65350   5.841   1.612   3.050  0.1844 -0.5485 -0.0852
  485MOL0     C65351   5.944   1.629   3.162 -0.4918  0.2602 -0.1222
  485MOL0     C65352   5.876   1.586   3.294  0.9747 -0.1471  0.4747
  485MOL0     C65353   5.974   1.592   3.415  0.0699 -0.3124  0.1980
  485MOL0     C65354   5.894   1.553   3.541  0.4226  0.0168 -0.1203
  485MOL0     C65355   5.974   1.561   3.677  0.6473 -0.0172  0.4426
  485MOL0     C65356   5.871   1.540   3.781  0.1392 -0.0391 -0.2543
  485MOL0     N65357   5.928   1.576   3.910 -0.5539  0.8523  0.1337
  485MOL0     C65358   5.918   1.495   4.017  0.4361  0.3174  0.7264
  485MOL0     C65359   5.965   1.561   4.119  0.2552  0.7202  0.3630
  485MOL0     C65360   5.984   1.500   4.256  0.2180  0.1663 -0.3409
  485MOL0     C65361   6.096   1.385   4.255  0.3202 -0.1624 -0.8878
  485MOL0     C65362   6.027   1.256   4.211  0.0529 -0.2919  0.9038
  485MOL0     C65363   6.137   1.147   4.226  0.2124 -0.6915 -0.1038
  485MOL0     O65364   6.143   1.104   4.359 -0.1807 -0.6675 -0.0539
  485MOL0     C65365   6.202   0.993   4.398  0.2641 -0.5321 -0.2764
  485MOL0     C65366   6.174   0.961   4.533  0.1057 -0.2919 -1.3479
  485MOL0     C65367   6.205   0.835   4.586  0.1432 -0.5140  0.8359
  485MOL0     C65368   6.152   0.810   4.723 -0.1269 -0.0629  0.4875
  485MOL0     C65369   6.272   0.738   4.490  0.6074  0.6155  0.2645
  485MOL0     C65370   6.297   0.594   4.520 -0.6044  0.1442 -0.1165
  485MOL0     O65371   6.307   0.556   4.650  0.2249  1.1937  0.0915
  485MOL0     C65372   6.357   0.425   4.678  0.8760  0.3595 -0.8535
  485MOL0     C65373   6.454   0.418   4.772 -0.2165 -0.1178 -0.3406
  485MOL0     C65374   6.505   0.296   4.812  0.7781  0.6067  0.0127
  485MOL0     C65375   6.452   0.172   4.760 -0.1216 -0.5221 -0.4337
  485MOL0     O65376   6.483   0.051   4.806  0.2266 -0.5795  0.1495
  485MOL0     C65377   6.572  -0.026   4.718 -0.2947 -1.1545  0.1446
  485MOL0     C65378   6.625  -0.145   4.808  0.3521  0.1007 -0.0025
  485MOL0     C65379   6.692  -0.104   4.931  0.3972  0.2184 -0.3156
  485MOL0     C65380   6.756  -0.235   4.985 -0.0646  1.5627 -0.1494
  485MOL0     C65381   6.777  -0.239   5.134 -0.8981 -0.2776 -0.4157
  485MOL0     C65382   6.882  -0.139   5.177  0.5457 -0.3177 -0.7201
  485MOL0     C65383   6.934  -0.146   5.322 -0.4536 -0.6750 -0.1992
  485MOL0     C65384   7.073  -0.202   5.338 -0.6098  0.6643 -0.1526
  485MOL0    Cl65385   7.119  -0.195   5.501  0.1604 -0.2442  0.3331
  485MOL0     C65386   6.356   0.181   4.655 -0.3465  0.0651 -1.1128
  485MOL0     C65387   6.308   0.305   4.617  0.2492  0.6097 -0.2736
  485MOL0     O65388   6.311   0.513   4.424  0.7642 -0.0100 -0.8173
  485MOL0     C65389   6.285   0.778   4.359  0.2602  1.0050 -0.0136
  485MOL0     C65390   6.255   0.899   4.309  0.4922 -1.1463 -0.2715
  485MOL0     N65391   6.037   1.671   4.068  0.5960  0.3900  0.4293
  485MOL0     N65392   6.004   1.689   3.942 -0.4886  0.8684 -0.9589
  485MOL0     C65393   6.165   1.490   2.748 -0.1495 -0.5493 -0.5673
  485MOL0     C65394   6.246   1.494   2.640 -0.2738  0.3446 -0.7549
  485MOL0     C65395   6.431   1.502   2.247  0.3832  0.4966  0.0800
  485MOL0     C65396   6.492   1.630   2.219 -0.9406  0.2589  0.5217
  485MOL0     C65397   6.601   1.644   2.129 -0.6721  0.5130 -0.0791
  485MOL0     C65398   6.653   1.534   2.068 -0.3491  0.6089 -0.3981
  485MOL0     O65399   6.767   1.550   1.983  0.3342 -0.4342 -0.5005
  485MOL0     C65400   6.812   1.452   1.889  0.9938 -0.1607  0.0896
  485MOL0     C65401   6.920   1.362   1.957 -0.4844 -1.2161  0.5011
  485MOL0     C65402   7.065   1.433   1.967 -0.2036 -0.1767  0.2505
  485MOL0     C65403   7.057   1.560   2.060 -0.4634  0.0663  0.1096
  485MOL0     C65404   7.011   1.509   2.194 -0.0933  0.3622 -0.1649
  485MOL0     C65405   6.972   1.505   2.312 -0.1550  0.9379 -0.3764
  485MOL0     C65406   6.591   1.403   2.091  0.0042 -0.5596  0.6790
  485MOL0     C65407   6.486   1.391   2.176  0.0314 -0.0850  0.0739
  485MOL0     H65408   6.113   1.752   2.469  2.1614 -1.4884 -0.5411
  485MOL0     H65409   5.962   1.751   2.686 -0.4023 -0.6655  0.6231
  485MOL0     H65410   5.941   1.745   2.926 -1.1873  0.4238 -0.4286
  485MOL0     H65411   5.806   1.659   2.855  1.2317  1.7035 -0.4407
  485MOL0     H65412   5.759   1.683   3.069  0.4687  0.8493 -3.4408
  485MOL0     H65413   5.788   1.516   3.044 -1.2921  0.2890 -1.4811
  485MOL0     H65414   6.030   1.565   3.136 -1.7451 -0.9291 -1.5684
  485MOL0     H65415   5.975   1.732   3.178 -3.4966  1.1754  0.4259
  485MOL0     H65416   5.790   1.652   3.308  1.2666 -0.0286  1.8592
  485MOL0     H65417   5.834   1.485   3.283 -2.6187  1.3616 -1.4233
  485MOL0     H65418   6.052   1.517   3.397  1.2095 -0.0679  3.4791
  485MOL0     H65419   6.029   1.687   3.425  1.2664 -0.6180 -2.4516
  485MOL0     H65420   5.811   1.624   3.548  0.3460 -0.1440  0.7174
  485MOL0     H65421   5.850   1.454   3.526 -0.2497  0.4266 -0.9346
  485MOL0     H65422   6.045   1.478   3.675 -2.6807 -3.1511  1.9098
  485MOL0     H65423   6.032   1.652   3.692 -3.2857  2.5156  1.8363
  485MOL0     H65424   5.847   1.434   3.793 -0.3175 -0.2995 -2.9236
  485MOL0     H65425   5.784   1.599   3.752  0.2859  0.1535 -0.3071
  485MOL0     H65426   5.862   1.402   4.013 -1.1464  1.2645 -2.5003
  485MOL0     H65427   6.002   1.576   4.333 -0.1600 -0.5968  0.5267
  485MOL0     H65428   5.889   1.456   4.288 -0.8223  2.3450 -0.2463
  485MOL0     H65429   6.132   1.382   4.359  2.4719  1.5332 -1.4852
  485MOL0     H65430   6.186   1.413   4.199  0.7220  0.6695  0.1224
  485MOL0     H65431   5.995   1.253   4.107 -0.0956  2.4735  0.8134
  485MOL0     H65432   5.933   1.247   4.266 -0.0639  5.4483  2.2131
  485MOL0     H65433   6.226   1.193   4.183 -0.3914  0.8469  0.2393
  485MOL0     H65434   6.098   1.069   4.160 -1.3089  1.3833 -1.7394
  485MOL0     H65435   6.113   1.022   4.600 -1.6409 -2.2321 -1.0546
  485MOL0     H65436   6.071   0.877   4.753 -1.0923 -1.4996  1.2029
  485MOL0     H65437   6.099   0.714   4.716 -1.3538  0.7324 -4.5545
  485MOL0     H65438   6.232   0.815   4.798  1.7583  0.8699 -1.4718
  485MOL0     H65439   6.501   0.507   4.815  2.1206 -2.0392  1.3538
  485MOL0     H65440   6.585   0.289   4.886  1.6906  1.1890 -0.8832
  485MOL0     H65441   6.505  -0.052   4.636  1.3077 -0.9806 -1.2919
  485MOL0     H65442   6.651   0.043   4.685  0.2023 -1.2045  1.1785
  485MOL0     H65443   6.541  -0.212   4.830  1.4690 -1.5653 -0.6357
  485MOL0     H65444   6.695  -0.196   4.742 -1.3798  1.1362 -2.8375
  485MOL0     H65445   6.625  -0.055   5.003  3.8581  2.0752  1.9475
  485MOL0     H65446   6.766  -0.030   4.898  0.9571 -1.0865 -2.1345
  485MOL0     H65447   6.693  -0.324   4.975  3.0426 -0.8883  0.4439
  485MOL0     H65448   6.846  -0.249   4.924 -1.2042  0.4870 -1.6637
  485MOL0     H65449   6.817  -0.338   5.161  2.4212  1.3420  1.3008
  485MOL0     H65450   6.684  -0.213   5.185 -0.9781  1.9468 -1.5892
  485MOL0     H65451   6.965  -0.136   5.107 -0.0350  1.2608 -1.3963
  485MOL0     H65452   6.837  -0.041   5.161  1.5006 -0.0929 -2.2003
  485MOL0     H65453   6.870  -0.207   5.387  1.5702 -3.0623 -0.3044
  485MOL0     H65454   6.946  -0.042   5.351  1.7361 -0.0121 -3.0222
  485MOL0     H65455   7.145  -0.138   5.286 -0.2727  3.0354  2.9684
  485MOL0     H65456   7.077  -0.309   5.314  2.1291  0.8658 -0.9263
  485MOL0     H65457   6.330   0.085   4.613 -0.7675 -0.3465  0.0575
  485MOL0     H65458   6.235   0.297   4.537  1.4262 -1.4225 -1.2328
  485MOL0     H65459   6.327   0.708   4.288 -1.0015 -1.4233  1.4869
  485MOL0     H65460   6.270   0.914   4.203 -1.2236 -0.8694 -0.5061
  485MOL0     H65461   6.179   1.414   2.824  0.4667  1.4215  1.4283
  485MOL0     H65462   6.330   1.428   2.621 -1.4327 -0.8705 -1.9031
  485MOL0     H65463   6.461   1.722   2.268  0.9949  0.6396  1.1222
  485MOL0     H65464   6.633   1.745   2.108  3.5744 -1.1471 -2.9340
  485MOL0     H65465   6.724   1.399   1.853  1.1500 -0.1185 -0.3618
  485MOL0     H65466   6.855   1.503   1.802  0.5675  1.2091  0.6613
  485MOL0     H65467   6.940   1.281   1.887  2.2992  1.1899 -1.7396
  485MOL0     H65468   6.871   1.330   2.050 -3.6947 -0.7784 -0.9015
  485MOL0     H65469   7.110   1.451   1.868  2.5412 -2.7557  0.8721
  485MOL0     H65470   7.134   1.363   2.016 -0.2862  0.1083  0.7751
  485MOL0     H65471   6.999   1.642   2.018 -0.6206  0.0508  0.2944
  485MOL0     H65472   7.158   1.601   2.073  0.3439 -2.2280  2.0744
  485MOL0     H65473   6.948   1.499   2.416 -0.8379  0.0010 -0.5708
  485MOL0     H65474   6.628   1.315   2.039 -0.6773 -0.9266  0.7989
  485MOL0     H65475   6.443   1.297   2.211  0.6736 -0.0295  1.0343
  486MOL0     O65476   2.007   2.065   7.573 -0.2140 -0.4165  0.0043
  486MOL0     C65477   2.094   2.065   7.482  0.5321  0.2496  0.3386
  486MOL0     O65478   2.177   2.164   7.449 -0.0310 -0.0568 -0.3965
  486MOL0     C65479   2.144   2.287   7.500 -0.1415  0.1662  0.1953
  486MOL0     C65480   2.253   2.335   7.574 -0.4943 -0.1154  0.1854
  486MOL0     C65481   2.251   2.467   7.632  0.1612  0.1352 -0.3466
  486MOL0     C65482   2.145   2.558   7.610  0.9813 -0.1493 -0.0549
  486MOL0     O65483   2.156   2.684   7.675  0.6137  0.5619 -0.1335
  486MOL0     C65484   2.032   2.757   7.673 -0.4851 -0.0230  0.5600
  486MOL0     C65485   1.999   2.836   7.541  0.3667 -0.2777 -0.3494
  486MOL0     C65486   2.113   2.938   7.502 -0.0633 -0.1973 -0.6533
  486MOL0     C65487   2.079   3.052   7.398 -0.0499  0.4737 -0.1517
  486MOL0     C65488   2.215   3.118   7.351  0.0250 -0.5132 -0.5615
  486MOL0     C65489   2.206   3.259   7.275  0.1005  0.2319  0.1210
  486MOL0     C65490   2.352   3.284   7.233  0.3115 -0.2322  0.2485
  486MOL0     C65491   2.367   3.414   7.154 -0.4774 -0.3292  0.0209
  486MOL0     N65492   2.302   3.422   7.027  0.0088  0.1811 -0.5055
  486MOL0     C65493   2.302   3.319   6.932  0.0234  0.7124 -0.2181
  486MOL0     C65494   2.197   3.348   6.848  0.3300  0.5050  0.3699
  486MOL0     C65495   2.140   3.277   6.724 -0.4868 -0.6642 -0.3863
  486MOL0     C65496   1.985   3.295   6.720 -0.1827 -0.3957 -0.2477
  486MOL0     C65497   1.945   3.374   6.595  0.2262 -0.6384  1.1385
  486MOL0     C65498   1.965   3.284   6.468  0.1545  0.1993 -0.4570
  486MOL0     O65499   1.918   3.346   6.344  0.0838 -0.4908 -0.1277
  486MOL0     C65500   1.946   3.306   6.215 -0.3980  0.3536  0.1365
  486MOL0     C65501   1.921   3.176   6.164  0.8732 -0.4683 -0.5850
  486MOL0     C65502   1.946   3.139   6.029  0.2930  0.4000 -0.0203
  486MOL0     C65503   1.902   2.999   5.990 -0.0957 -0.6343 -0.4995
  486MOL0     C65504   2.008   3.236   5.946  0.3377 -0.7028  1.0167
  486MOL0     C65505   2.051   3.212   5.807 -0.0295  0.1432  0.1529
  486MOL0     O65506   2.097   3.331   5.739 -0.5470 -0.1477  0.2002
  486MOL0     C65507   2.134   3.319   5.608  0.6216  0.3484  0.8953
  486MOL0     C65508   2.093   3.403   5.511  0.6944 -0.7670  0.2745
  486MOL0     C65509   2.129   3.394   5.382  0.1653 -0.1097  0.2733
  486MOL0     C65510   2.226   3.301   5.338  0.0449 -0.5017 -0.6268
  486MOL0     O65511   2.261   3.312   5.206 -0.4111  0.4741  0.6721
  486MOL0     C65512   2.286   3.183   5.151  0.8714  0.8077 -0.4743
  486MOL0     C65513   2.272   3.184   4.999 -1.1648 -0.2112  0.8463
  486MOL0     C65514   2.398   3.257   4.934 -0.2329  0.0238  0.4275
  486MOL0     C65515   2.383   3.272   4.785  0.0383  0.4580  0.2023
  486MOL0     C65516   2.360   3.139   4.708 -0.7669 -0.5677 -0.0105
  486MOL0     C65517   2.347   3.165   4.559  0.6457 -0.0534 -0.6152
  486MOL0     C65518   2.318   3.034   4.477 -0.1751 -0.3694  0.0354
  486MOL0     C65519   2.341   3.054   4.324 -0.3167  1.5183  0.2408
  486MOL0    Cl65520   2.222   3.180   4.255 -0.8198  0.0664 -0.2984
  486MOL0     C65521   2.275   3.211   5.433 -0.2284  0.1961  0.3345
  486MOL0     C65522   2.224   3.216   5.571  0.2971  0.1300  0.8100
  486MOL0     O65523   2.048   3.095   5.768  0.0107  0.7224 -0.1784
  486MOL0     C65524   2.040   3.369   6.003  0.5010  0.8606 -0.3549
  486MOL0     C65525   2.010   3.397   6.136  0.4183 -0.1396 -0.6431
  486MOL0     N65526   2.141   3.474   6.892 -0.2263  0.9184 -0.0321
  486MOL0     N65527   2.209   3.516   6.992  0.2314  0.8407  0.3381
  486MOL0     C65528   2.043   2.502   7.535  0.3204 -1.1739  0.6456
  486MOL0     C65529   2.039   2.373   7.474 -0.5417 -0.2540  0.6654
  486MOL0     C65530   2.117   1.936   7.414  0.1121  0.1356  0.0290
  486MOL0     C65531   2.018   1.837   7.414 -0.2666  0.4955  0.3619
  486MOL0     C65532   2.048   1.722   7.335  0.1101 -1.0588 -0.6511
  486MOL0     C65533   2.161   1.710   7.259 -0.7457 -0.0297  0.1497
  486MOL0     O65534   2.168   1.589   7.205 -0.2446  0.1512 -0.1235
  486MOL0     C65535   2.258   1.580   7.098 -0.5325  0.0935  0.1999
  486MOL0     C65536   2.186   1.637   6.975  0.1147 -0.4064 -0.5026
  486MOL0     C65537   2.057   1.569   6.949  0.7625 -0.1010 -0.8782
  486MOL0     C65538   1.996   1.589   6.806 -0.5169  0.5958  0.4875
  486MOL0     C65539   1.980   1.729   6.783 -0.2348 -1.2770  0.5899
  486MOL0     C65540   1.979   1.840   6.732  0.2094 -0.5541 -0.6949
  486MOL0     C65541   2.261   1.816   7.250  0.0201 -0.2129 -0.1151
  486MOL0     C65542   2.233   1.926   7.337 -0.2374 -0.3425  1.0693
  486MOL0     H65543   2.344   2.281   7.597  0.3076  0.0443 -2.2347
  486MOL0     H65544   2.329   2.502   7.699 -0.2693 -0.4028  0.4503
  486MOL0     H65545   1.950   2.689   7.695 -0.4153 -0.3576 -0.1978
  486MOL0     H65546   2.045   2.830   7.754 -0.3419 -1.3674  1.8066
  486MOL0     H65547   1.980   2.774   7.453  1.7737 -1.2105 -0.0404
  486MOL0     H65548   1.908   2.892   7.564 -0.0098 -0.9593 -0.1429
  486MOL0     H65549   2.144   2.996   7.589 -2.2621 -2.0326  1.5383
  486MOL0     H65550   2.200   2.890   7.456  2.4062  1.7626  1.6371
  486MOL0     H65551   2.033   3.015   7.305 -2.8504  1.3078  0.7827
  486MOL0     H65552   2.004   3.123   7.433 -1.7030 -0.5361 -1.4564
  486MOL0     H65553   2.286   3.132   7.433 -1.1743 -0.9040  0.5782
  486MOL0     H65554   2.261   3.054   7.275  0.2673 -0.8198 -0.1633
  486MOL0     H65555   2.149   3.251   7.182  0.3587 -3.5409  0.1534
  486MOL0     H65556   2.152   3.336   7.332  1.4131  2.4721 -1.4869
  486MOL0     H65557   2.415   3.275   7.322 -1.6101 -1.7302  1.5191
  486MOL0     H65558   2.391   3.202   7.172 -0.1177 -1.1542  1.1964
  486MOL0     H65559   2.470   3.444   7.135  0.3384 -3.1103 -0.4477
  486MOL0     H65560   2.324   3.496   7.213  0.6672  1.5486 -1.6132
  486MOL0     H65561   2.358   3.227   6.944  3.6420  2.5807 -1.0854
  486MOL0     H65562   2.190   3.307   6.632 -0.8900  1.6440  0.0888
  486MOL0     H65563   2.155   3.168   6.727 -0.0327 -0.7384 -3.1634
  486MOL0     H65564   1.950   3.344   6.811  1.7935  0.6210  0.0299
  486MOL0     H65565   1.928   3.202   6.716  1.3503 -1.5207  1.9905
  486MOL0     H65566   2.013   3.460   6.595  0.5772 -0.8890 -0.2977
  486MOL0     H65567   1.841   3.405   6.611  0.8901  3.4177 -0.9882
  486MOL0     H65568   1.911   3.190   6.477  2.6944 -1.2219  1.3790
  486MOL0     H65569   2.072   3.266   6.454  0.0840  0.7200 -1.8157
  486MOL0     H65570   1.884   3.106   6.238  1.3156 -0.6953 -0.5794
  486MOL0     H65571   1.989   2.938   6.017 -0.0509  0.6586  2.6777
  486MOL0     H65572   1.814   2.972   6.048 -0.3862  1.1975 -0.0400
  486MOL0     H65573   1.873   2.993   5.884 -0.9349  1.2409 -0.3981
  486MOL0     H65574   2.018   3.479   5.525  3.0668  2.3303 -2.3322
  486MOL0     H65575   2.087   3.464   5.310 -0.2934 -0.4734  0.1809
  486MOL0     H65576   2.390   3.168   5.180  0.2773  0.7777  1.7746
  486MOL0     H65577   2.222   3.104   5.191  1.9931  0.4942  0.7278
  486MOL0     H65578   2.261   3.082   4.962  1.3265 -0.9449  1.9416
  486MOL0     H65579   2.186   3.248   4.976  0.0111  0.4423 -2.1031
  486MOL0     H65580   2.492   3.202   4.942  0.5648  1.0556 -1.3659
  486MOL0     H65581   2.408   3.354   4.983 -0.8206  0.2156  0.1686
  486MOL0     H65582   2.304   3.343   4.758  0.6279  0.0109 -3.1889
  486MOL0     H65583   2.470   3.325   4.744 -1.1535  1.3027 -1.3510
  486MOL0     H65584   2.275   3.082   4.747 -1.0956  0.1747  0.3597
  486MOL0     H65585   2.443   3.069   4.725  0.1856  0.6666  0.5369
  486MOL0     H65586   2.262   3.230   4.536 -2.1531 -3.6127 -1.1017
  486MOL0     H65587   2.441   3.207   4.521  2.2271 -1.1321  1.8876
  486MOL0     H65588   2.216   2.997   4.485  0.2681 -2.8711 -3.5837
  486MOL0     H65589   2.390   2.964   4.520 -0.7081  0.6464  2.8144
  486MOL0     H65590   2.319   2.955   4.283  1.7189  0.9154  0.4982
  486MOL0     H65591   2.444   3.078   4.296  0.1422 -0.1252  0.4308
  486MOL0     H65592   2.345   3.135   5.402 -0.5693  0.2588 -0.6387
  486MOL0     H65593   2.270   3.144   5.638 -0.4133 -1.6182 -0.4973
  486MOL0     H65594   2.087   3.446   5.944  0.3582  1.0803 -0.1843
  486MOL0     H65595   2.029   3.495   6.180  0.6025 -0.1349 -0.7317
  486MOL0     H65596   1.956   2.565   7.519  0.8236 -0.9329 -1.4219
  486MOL0     H65597   1.953   2.350   7.412 -0.3504  2.6992 -0.8772
  486MOL0     H65598   1.922   1.855   7.463 -0.4397  0.5242  0.0125
  486MOL0     H65599   1.975   1.642   7.329  1.7196 -2.7168  0.6753
  486MOL0     H65600   2.355   1.629   7.101 -0.8146  0.9390 -2.3030
  486MOL0     H65601   2.285   1.478   7.069 -1.7996 -0.0456 -0.5571
  486MOL0     H65602   2.241   1.621   6.882  0.6246 -0.1720 -0.2459
  486MOL0     H65603   2.158   1.742   6.974  0.0690 -0.3553  1.5626
  486MOL0     H65604   1.980   1.591   7.024  1.6928 -1.1199  0.4501
  486MOL0     H65605   2.075   1.461   6.945  1.4514 -0.0207 -5.8887
  486MOL0     H65606   1.906   1.530   6.786  0.2513 -1.0944  1.7981
  486MOL0     H65607   2.067   1.557   6.728  1.5525 -3.6407  3.7054
  486MOL0     H65608   1.971   1.923   6.665  3.6645 -0.2831 -0.9847
  486MOL0     H65609   2.344   1.821   7.181  1.6412  0.9255  1.8060
  486MOL0     H65610   2.300   2.007   7.313 -0.5714 -0.8615 -1.9523
  487MOL0     O65611   2.702   3.683   0.834  0.0557  0.1853  0.7396
  487MOL0     C65612   2.792   3.614   0.783 -0.0636 -0.7356  0.2727
  487MOL0     O65613   2.879   3.530   0.848  0.1967  1.0787 -0.6348
  487MOL0     C65614   2.859   3.526   0.984 -1.0014 -0.1543 -0.0226
  487MOL0     C65615   2.819   3.403   1.049  0.8903 -0.0519  0.8892
  487MOL0     C65616   2.830   3.396   1.186 -0.3286  0.3426 -0.3429
  487MOL0     C65617   2.887   3.497   1.261  0.8881  0.0642  0.2319
  487MOL0     O65618   2.902   3.492   1.398  0.3052  0.1743  0.2226
  487MOL0     C65619   2.895   3.367   1.475 -1.1096 -0.1747  0.8202
  487MOL0     C65620   2.881   3.397   1.633  0.1401 -0.2749  0.5545
  487MOL0     C65621   2.986   3.488   1.683 -0.4999 -0.9132 -0.5245
  487MOL0     C65622   2.974   3.494   1.839 -0.0189 -0.0002 -0.1148
  487MOL0     C65623   3.107   3.567   1.895 -0.2722 -0.0063 -0.8985
  487MOL0     C65624   3.085   3.624   2.036  0.1930 -0.4782 -0.4467
  487MOL0     C65625   3.223   3.653   2.103 -0.2303 -0.2162 -0.4224
  487MOL0     C65626   3.225   3.662   2.259 -0.3423 -0.7959 -0.3987
  487MOL0     N65627   3.234   3.528   2.325 -0.2763  0.3485  0.1313
  487MOL0     C65628   3.316   3.414   2.299  0.1075  0.4797  1.0226
  487MOL0     C65629   3.278   3.322   2.392 -0.4152  0.4657 -0.4312
  487MOL0     C65630   3.332   3.177   2.402 -0.3324  0.1613 -0.3803
  487MOL0     C65631   3.211   3.084   2.430  0.5216  0.1404  0.0119
  487MOL0     C65632   3.266   2.946   2.377  0.6376  0.5515  0.2041
  487MOL0     C65633   3.163   2.839   2.403 -0.1309 -0.0705  0.1832
  487MOL0     O65634   3.213   2.713   2.368 -1.1069  0.5553  0.3772
  487MOL0     C65635   3.140   2.607   2.416  0.2682 -0.3955 -0.5167
  487MOL0     C65636   3.003   2.613   2.415  0.1091 -0.1295 -0.3806
  487MOL0     C65637   2.935   2.493   2.457 -0.5283  0.0122 -0.3956
  487MOL0     C65638   2.786   2.505   2.448 -1.2802 -0.2582 -0.2276
  487MOL0     C65639   3.008   2.384   2.516  0.2098  0.1178  0.3798
  487MOL0     C65640   2.947   2.258   2.566  0.2900  0.3035  0.2591
  487MOL0     O65641   3.019   2.181   2.648  0.3065 -0.0132 -0.6070
  487MOL0     C65642   2.966   2.061   2.705 -0.5964  0.0932 -0.8224
  487MOL0     C65643   3.058   1.960   2.742  0.4885 -0.8239  0.2212
  487MOL0     C65644   3.019   1.835   2.778 -0.6740 -0.3928 -0.5825
  487MOL0     C65645   2.881   1.809   2.785 -0.5352  0.0730 -0.1895
  487MOL0     O65646   2.819   1.693   2.815 -0.5813 -0.7533 -0.3055
  487MOL0     C65647   2.881   1.565   2.773  0.3078  0.1766  0.3848
  487MOL0     C65648   2.937   1.506   2.898 -0.0029  0.4056  0.0249
  487MOL0     C65649   2.980   1.357   2.873 -0.0882 -0.5601  0.9416
  487MOL0     C65650   2.993   1.270   2.998  0.0051  0.9377  0.2267
  487MOL0     C65651   2.881   1.159   3.014 -0.1371 -0.3667 -0.3160
  487MOL0     C65652   2.750   1.217   3.065 -0.0611 -0.1461  0.2703
  487MOL0     C65653   2.666   1.110   3.137 -0.3598  0.5265  0.6740
  487MOL0     C65654   2.548   1.167   3.208  0.6414  0.2111 -0.2905
  487MOL0    Cl65655   2.489   1.040   3.311  0.0590 -0.0256  0.3277
  487MOL0     C65656   2.790   1.910   2.756 -0.3534  1.3055 -0.6068
  487MOL0     C65657   2.829   2.035   2.719  0.3362  0.5231 -0.2956
  487MOL0     O65658   2.832   2.241   2.527 -0.1270  0.0812 -1.0891
  487MOL0     C65659   3.151   2.397   2.517  0.2492  0.6168  0.7009
  487MOL0     C65660   3.216   2.501   2.463 -0.1858 -0.0041 -0.6234
  487MOL0     N65661   3.188   3.378   2.472  0.2580 -0.6021 -0.0482
  487MOL0     N65662   3.160   3.501   2.438 -0.6453 -1.2594  0.6920
  487MOL0     C65663   2.930   3.607   1.196 -0.3105 -0.1827 -0.0901
  487MOL0     C65664   2.914   3.628   1.067 -0.5257  0.1641 -0.4108
  487MOL0     C65665   2.808   3.598   0.638 -0.0771  0.2317  0.0049
  487MOL0     C65666   2.754   3.708   0.563 -0.5102 -1.0014 -0.8312
  487MOL0     C65667   2.769   3.698   0.423  0.0293  0.1895  0.1990
  487MOL0     C65668   2.851   3.603   0.370  1.0933 -0.6277  0.4545
  487MOL0     O65669   2.869   3.597   0.231  0.3323  0.6365 -0.0791
  487MOL0     C65670   2.938   3.708   0.169  1.0746 -0.5227 -0.9511
  487MOL0     C65671   3.016   3.668   0.047 -0.4528  0.4721 -0.0170
  487MOL0     C65672   2.939   3.635  -0.088  0.0357  0.1321 -0.0880
  487MOL0     C65673   2.859   3.507  -0.071 -0.1342 -0.8396 -0.6121
  487MOL0     C65674   2.858   3.426  -0.187  0.2542 -0.4892  0.4827
  487MOL0     C65675   2.844   3.368  -0.293  0.0610 -0.5824  0.4160
  487MOL0     C65676   2.922   3.507   0.448  0.8902 -0.0673 -0.2522
  487MOL0     C65677   2.893   3.501   0.586 -0.4954  0.1437  0.7052
  487MOL0     H65678   2.785   3.314   0.996  1.8575 -0.8838  1.6333
  487MOL0     H65679   2.802   3.299   1.228 -1.6687  1.7600  2.2668
  487MOL0     H65680   2.804   3.314   1.444 -0.5803 -0.5295 -0.1829
  487MOL0     H65681   2.973   3.298   1.443  0.8482  2.3487 -0.2308
  487MOL0     H65682   2.787   3.446   1.658  1.2593  3.0923 -1.2402
  487MOL0     H65683   2.887   3.307   1.696 -3.0402 -0.4208  0.8065
  487MOL0     H65684   3.084   3.445   1.660 -0.3237 -2.3037  2.3474
  487MOL0     H65685   2.984   3.589   1.642 -2.2070 -1.7777 -2.7720
  487MOL0     H65686   2.882   3.551   1.855  0.0913  0.7490 -1.9428
  487MOL0     H65687   2.962   3.401   1.895  2.9022 -0.1092  0.4595
  487MOL0     H65688   3.180   3.486   1.898  0.2425  0.4793  0.1348
  487MOL0     H65689   3.140   3.645   1.826  1.3514 -1.3491 -1.6961
  487MOL0     H65690   3.030   3.719   2.032  1.0075  0.0827  0.8330
  487MOL0     H65691   3.029   3.549   2.092 -0.8938 -1.5354 -2.8178
  487MOL0     H65692   3.296   3.573   2.085 -0.2640 -0.6536  1.2744
  487MOL0     H65693   3.255   3.745   2.054 -2.0420  0.9122  0.4438
  487MOL0     H65694   3.126   3.687   2.299 -0.4489 -4.2848  1.9066
  487MOL0     H65695   3.303   3.729   2.297  0.0842 -0.8719 -1.1364
  487MOL0     H65696   3.388   3.390   2.222 -1.4616  0.7503 -0.6103
  487MOL0     H65697   3.378   3.142   2.309 -0.1982 -0.2134 -0.1736
  487MOL0     H65698   3.387   3.163   2.496 -0.4294  1.4669 -0.1021
  487MOL0     H65699   3.128   3.124   2.370  1.9292 -0.4800 -2.5194
  487MOL0     H65700   3.182   3.083   2.535  0.1372  0.4963 -0.0874
  487MOL0     H65701   3.346   2.922   2.448  0.6969  2.5456  0.8929
  487MOL0     H65702   3.291   2.940   2.271  0.8517 -0.2132  0.2959
  487MOL0     H65703   3.080   2.863   2.336  1.2737  1.9171 -0.9775
  487MOL0     H65704   3.112   2.848   2.499 -1.4515  0.9183 -0.5759
  487MOL0     H65705   2.937   2.677   2.357 -0.5850 -1.0026 -0.5676
  487MOL0     H65706   2.740   2.461   2.537  0.7283 -0.4885  0.7601
  487MOL0     H65707   2.756   2.610   2.444  1.5166  0.5958 -1.0020
  487MOL0     H65708   2.738   2.456   2.362  1.4504 -2.8195 -0.4661
  487MOL0     H65709   3.165   1.981   2.737  0.9613 -2.7445  1.2043
  487MOL0     H65710   3.094   1.766   2.815  3.0589  2.6993 -1.7276
  487MOL0     H65711   2.806   1.495   2.735  2.5740 -0.8945 -2.6202
  487MOL0     H65712   2.949   1.570   2.687 -0.7027  0.4442 -0.4215
  487MOL0     H65713   3.021   1.571   2.923 -0.5153  1.1579 -0.1857
  487MOL0     H65714   2.868   1.520   2.982  0.4085  0.7041  0.3116
  487MOL0     H65715   3.081   1.351   2.832  0.3525 -0.3980  1.9638
  487MOL0     H65716   2.903   1.304   2.816  1.7362 -0.9442 -1.3095
  487MOL0     H65717   3.079   1.202   2.995 -0.2423  0.5951  0.8607
  487MOL0     H65718   3.001   1.334   3.087 -3.0895  1.1268  0.4576
  487MOL0     H65719   2.915   1.081   3.083 -1.8193  0.8009  2.0104
  487MOL0     H65720   2.872   1.110   2.917  0.0045  1.2140 -1.1524
  487MOL0     H65721   2.766   1.290   3.144 -2.1556  0.4094  0.2281
  487MOL0     H65722   2.696   1.258   2.979  1.7051  0.2216 -0.7104
  487MOL0     H65723   2.733   1.067   3.213  0.5114 -2.2389 -1.4907
  487MOL0     H65724   2.627   1.031   3.073  0.8586  0.1060  0.4146
  487MOL0     H65725   2.476   1.195   3.130 -0.2150 -0.3378  0.2874
  487MOL0     H65726   2.579   1.253   3.267  6.0234 -1.6944  0.1759
  487MOL0     H65727   2.683   1.890   2.754 -0.1168 -0.1973  0.4830
  487MOL0     H65728   2.757   2.115   2.705  0.3292  1.2284  2.9928
  487MOL0     H65729   3.209   2.309   2.543 -0.4061 -0.0682 -0.0947
  487MOL0     H65730   3.324   2.504   2.465 -0.1869 -0.1922 -0.0716
  487MOL0     H65731   2.991   3.676   1.253 -1.5925 -0.0986  1.2333
  487MOL0     H65732   2.971   3.705   1.017  2.0150 -0.9444  0.6117
  487MOL0     H65733   2.698   3.793   0.601 -1.2094 -0.3093 -3.2148
  487MOL0     H65734   2.702   3.766   0.371 -0.8457 -2.7071 -2.8026
  487MOL0     H65735   2.866   3.785   0.141  1.1158 -0.6849 -1.5111
  487MOL0     H65736   3.011   3.739   0.244 -0.6861 -0.2178  0.7372
  487MOL0     H65737   3.085   3.586   0.071  1.3782  2.0321  0.2829
  487MOL0     H65738   3.087   3.747   0.021 -0.0183 -0.2579 -1.1099
  487MOL0     H65739   3.007   3.626  -0.173  3.7547  3.4553  2.2005
  487MOL0     H65740   2.866   3.716  -0.101 -1.3850 -1.0396  0.3271
  487MOL0     H65741   2.764   3.530  -0.022  0.2535  1.4742 -0.8470
  487MOL0     H65742   2.906   3.440   0.001 -1.2641 -1.1442 -0.1223
  487MOL0     H65743   2.816   3.318  -0.383  1.5088 -0.3649 -0.1901
  487MOL0     H65744   2.986   3.433   0.400 -1.2393 -1.3350 -1.2738
  487MOL0     H65745   2.947   3.428   0.644  2.2848  1.6245  0.1441
  488MOL0     O65746   6.430   4.444   3.143  0.4365 -0.3579 -0.0746
  488MOL0     C65747   6.371   4.371   3.061 -0.1735  0.3105 -1.6063
  488MOL0     O65748   6.262   4.406   2.987  0.7217  0.0135  0.0476
  488MOL0     C65749   6.233   4.542   2.981 -1.2304 -0.7622  0.0281
  488MOL0     C65750   6.264   4.604   2.860 -0.0077 -0.1926  0.2940
  488MOL0     C65751   6.246   4.739   2.839 -0.2193  0.9205  0.8002
  488MOL0     C65752   6.215   4.819   2.949 -0.5999  0.0524 -0.0523
  488MOL0     O65753   6.226   4.956   2.960 -0.5690 -1.0764  0.3264
  488MOL0     C65754   6.256   5.031   2.849  1.0187  0.0523  0.6036
  488MOL0     C65755   6.137   5.036   2.748 -0.2352  0.4590 -0.1616
  488MOL0     C65756   6.005   5.051   2.811  0.6342 -0.0003 -0.2795
  488MOL0     C65757   6.009   5.167   2.909 -0.0713 -0.1884  0.5030
  488MOL0     C65758   5.881   5.215   2.979  0.2623  0.8548  1.0197
  488MOL0     C65759   5.777   5.255   2.883  0.4221  0.1466  0.4032
  488MOL0     C65760   5.658   5.321   2.953  0.6437  0.2647 -0.2274
  488MOL0     C65761   5.550   5.337   2.842  0.2287 -0.1677 -0.7904
  488MOL0     N65762   5.575   5.438   2.744 -0.4248 -0.5283 -0.5940
  488MOL0     C65763   5.588   5.571   2.768 -0.5184  0.2834 -0.2984
  488MOL0     C65764   5.613   5.618   2.649 -0.1334  0.6838  0.5935
  488MOL0     C65765   5.635   5.763   2.625 -0.6143  0.4708  0.3217
  488MOL0     C65766   5.491   5.819   2.615  0.6084  0.1292  0.0672
  488MOL0     C65767   5.492   5.963   2.646  0.3836  0.9113  0.8137
  488MOL0     C65768   5.582   6.062   2.568 -0.7269 -0.2295 -0.6574
  488MOL0     O65769   5.539   6.200   2.584  0.4630  0.1952 -0.0280
  488MOL0     C65770   5.440   6.244   2.497 -0.1160  0.8973 -0.4255
  488MOL0     C65771   5.388   6.371   2.517  0.3431  0.3371 -0.4134
  488MOL0     C65772   5.294   6.428   2.432  0.7978  0.1933 -0.3406
  488MOL0     C65773   5.249   6.568   2.461  0.8272  0.6764 -0.7669
  488MOL0     C65774   5.255   6.361   2.314 -0.0804 -0.0033 -1.2718
  488MOL0     C65775   5.155   6.399   2.220  0.5811  0.8988  0.1284
  488MOL0     O65776   5.048   6.474   2.262  0.7798 -1.1746 -0.8620
  488MOL0     C65777   4.998   6.581   2.184 -0.2962  1.0238 -1.2298
  488MOL0     C65778   5.071   6.646   2.082 -0.4435  0.4509 -0.3340
  488MOL0     C65779   5.009   6.739   2.003 -0.6507 -0.8472 -0.3504
  488MOL0     C65780   4.872   6.771   2.024 -0.2994  0.9483 -0.2781
  488MOL0     O65781   4.819   6.863   1.935 -0.3638  0.1678 -0.1018
  488MOL0     C65782   4.697   6.922   1.962 -0.1753 -0.0646  0.2587
  488MOL0     C65783   4.723   7.048   2.047  0.1574  0.1467 -0.3837
  488MOL0     C65784   4.583   7.101   2.101 -0.1569 -0.4645  0.0277
  488MOL0     C65785   4.605   7.224   2.188  0.1385 -0.3973  0.0110
  488MOL0     C65786   4.646   7.341   2.103  0.3763  0.0765 -0.0024
  488MOL0     C65787   4.538   7.388   2.002 -0.0417  0.9577 -0.6522
  488MOL0     C65788   4.558   7.517   1.933  0.3446 -0.0874 -0.9791
  488MOL0     C65789   4.506   7.636   2.019  0.8927 -0.6194 -0.4277
  488MOL0    Cl65790   4.576   7.804   1.967 -0.2346 -0.1928  0.1736
  488MOL0     C65791   4.810   6.727   2.144  0.0416 -0.6684  1.2152
  488MOL0     C65792   4.867   6.626   2.221  1.1458  0.1647  0.4814
  488MOL0     O65793   5.159   6.350   2.105  0.7019 -0.1175 -0.1393
  488MOL0     C65794   5.314   6.232   2.289 -1.4631 -0.1511  0.5220
  488MOL0     C65795   5.397   6.170   2.386 -0.4352 -0.5009  0.5296
  488MOL0     N65796   5.605   5.514   2.549 -0.2289 -0.0897 -0.0967
  488MOL0     N65797   5.583   5.396   2.609  0.5340 -0.1316 -0.0542
  488MOL0     C65798   6.174   4.759   3.067 -0.7060 -0.5255 -0.4099
  488MOL0     C65799   6.187   4.622   3.088 -0.6320  0.6567 -0.3097
  488MOL0     C65800   6.430   4.242   3.037 -1.2980  0.1100  0.1244
  488MOL0     C65801   6.387   4.151   2.949  0.5547  0.1549  0.6065
  488MOL0     C65802   6.432   4.011   2.941  0.0819 -1.1054  0.1760
  488MOL0     C65803   6.525   3.971   3.034 -0.3790  0.0139 -0.0539
  488MOL0     O65804   6.585   3.842   3.034 -0.0685 -0.1221  0.2860
  488MOL0     C65805   6.527   3.739   2.951  0.2197 -0.7423  0.0779
  488MOL0     C65806   6.563   3.602   3.012 -0.0721  0.6224 -0.3865
  488MOL0     C65807   6.600   3.509   2.894  0.8327  0.4878 -0.1730
  488MOL0     C65808   6.592   3.362   2.938 -0.6445  0.6452  0.5677
  488MOL0     C65809   6.674   3.327   3.056 -0.4053 -0.3412 -0.2900
  488MOL0     C65810   6.738   3.321   3.155  0.0405  0.4282 -0.2185
  488MOL0     C65811   6.559   4.060   3.137 -0.7321  0.5347  0.1873
  488MOL0     C65812   6.521   4.196   3.137  0.0405  0.1118 -0.0969
  488MOL0     H65813   6.296   4.542   2.777  0.6338 -1.2468  1.2997
  488MOL0     H65814   6.287   4.770   2.743  0.0429 -0.5021  0.4261
  488MOL0     H65815   6.291   5.132   2.874  1.7123 -0.7460  3.1699
  488MOL0     H65816   6.346   4.988   2.803 -0.5756 -1.8658 -0.8481
  488MOL0     H65817   6.156   5.132   2.699  1.2372  0.4866  0.4362
  488MOL0     H65818   6.134   4.957   2.673  0.2401  0.8285 -0.5724
  488MOL0     H65819   5.922   5.054   2.740 -1.1698 -1.1133  1.6832
  488MOL0     H65820   5.972   4.969   2.875  4.1542 -0.9978  0.4989
  488MOL0     H65821   6.088   5.165   2.985 -0.2270  0.3964  0.6893
  488MOL0     H65822   6.043   5.250   2.846 -1.0328 -1.3386 -1.6431
  488MOL0     H65823   5.847   5.139   3.051  1.5680  0.5554  1.3351
  488MOL0     H65824   5.905   5.299   3.044 -1.4663  2.5132 -0.3693
  488MOL0     H65825   5.821   5.315   2.803 -2.1421  3.0293  0.9660
  488MOL0     H65826   5.730   5.166   2.840 -1.8123  1.9925 -1.2131
  488MOL0     H65827   5.626   5.257   3.037  0.9538  1.1052  0.5498
  488MOL0     H65828   5.691   5.416   2.996 -0.9392  0.2473  1.1623
  488MOL0     H65829   5.462   5.375   2.894  0.3646 -2.8605  1.6539
  488MOL0     H65830   5.535   5.241   2.793  0.9055 -1.2644  1.0501
  488MOL0     H65831   5.600   5.618   2.865  0.3109 -0.6752  0.0778
  488MOL0     H65832   5.671   5.816   2.714 -3.7238  1.2957  1.1994
  488MOL0     H65833   5.702   5.788   2.542  1.7312  1.0239  2.2428
  488MOL0     H65834   5.439   5.768   2.697 -0.3934 -0.6495 -1.0140
  488MOL0     H65835   5.446   5.791   2.519 -2.2842  1.3605  0.9573
  488MOL0     H65836   5.516   5.967   2.753 -0.9039  2.4134  1.0924
  488MOL0     H65837   5.389   5.999   2.637  0.6250  1.0289 -2.8305
  488MOL0     H65838   5.585   6.028   2.464 -2.1895  0.1032 -0.8188
  488MOL0     H65839   5.683   6.047   2.608 -0.4986  2.9245  0.2030
  488MOL0     H65840   5.420   6.432   2.601 -0.9838  1.2379 -0.5317
  488MOL0     H65841   5.143   6.594   2.458  0.5873 -0.2006 -0.3065
  488MOL0     H65842   5.279   6.599   2.562 -0.5259  2.6076 -0.9045
  488MOL0     H65843   5.306   6.632   2.394  3.7565 -1.1500 -0.2063
  488MOL0     H65844   5.173   6.616   2.057  0.9007  1.9604  2.7531
  488MOL0     H65845   5.047   6.791   1.916 -0.2097 -2.3310 -1.0869
  488MOL0     H65846   4.658   6.947   1.863 -0.3587  0.0665  0.3644
  488MOL0     H65847   4.634   6.844   2.006  0.8147 -0.6632  0.6618
  488MOL0     H65848   4.804   7.029   2.118  1.1754 -2.1076 -2.0570
  488MOL0     H65849   4.761   7.112   1.968  1.7301 -0.6695 -0.3250
  488MOL0     H65850   4.527   7.023   2.154  3.0003 -1.4173  2.2610
  488MOL0     H65851   4.517   7.122   2.016  1.4702 -0.5525 -1.3200
  488MOL0     H65852   4.513   7.243   2.243  1.3005 -1.0490  2.3333
  488MOL0     H65853   4.681   7.211   2.266 -0.3102  2.7158  1.1258
  488MOL0     H65854   4.738   7.327   2.047 -0.5272 -0.2779 -1.4578
  488MOL0     H65855   4.668   7.418   2.178  0.6698  0.2662 -0.2815
  488MOL0     H65856   4.513   7.319   1.920 -0.3402 -1.5862  1.4577
  488MOL0     H65857   4.441   7.395   2.052  0.6741 -1.5470  1.3021
  488MOL0     H65858   4.502   7.517   1.839 -3.1172 -0.1551  0.9114
  488MOL0     H65859   4.662   7.543   1.913 -0.0670  0.5329 -2.4834
  488MOL0     H65860   4.525   7.626   2.126 -2.7456  0.2940  0.4474
  488MOL0     H65861   4.398   7.639   1.999  1.0661  0.3949 -1.3441
  488MOL0     H65862   4.720   6.759   2.196 -0.5262  1.6231 -0.9901
  488MOL0     H65863   4.831   6.585   2.315 -1.1181 -1.7299 -1.1007
  488MOL0     H65864   5.305   6.180   2.195  0.4764  0.5174 -0.0901
  488MOL0     H65865   5.436   6.071   2.366  0.8136  0.1031 -0.1876
  488MOL0     H65866   6.133   4.831   3.136 -1.3554  1.8721 -3.0866
  488MOL0     H65867   6.172   4.574   3.184  0.3119  0.2503 -0.3571
  488MOL0     H65868   6.308   4.180   2.881  0.7220  1.0757  0.7822
  488MOL0     H65869   6.395   3.949   2.860 -2.1065  0.9866 -0.5378
  488MOL0     H65870   6.418   3.748   2.956  0.1789 -1.9055  2.0918
  488MOL0     H65871   6.555   3.753   2.846  1.4400  1.6210  0.6374
  488MOL0     H65872   6.476   3.564   3.067  1.1080  0.3787  1.3990
  488MOL0     H65873   6.644   3.615   3.085  0.3513 -2.2370 -0.2451
  488MOL0     H65874   6.705   3.528   2.869  0.1086  3.4095 -1.3644
  488MOL0     H65875   6.541   3.524   2.803  2.0158  0.7498 -0.9271
  488MOL0     H65876   6.618   3.290   2.860 -2.9592 -1.5556  1.6980
  488MOL0     H65877   6.490   3.327   2.953 -0.8500  0.8025 -0.3616
  488MOL0     H65878   6.804   3.312   3.239 -0.8057 -0.1477  0.4044
  488MOL0     H65879   6.628   4.020   3.211  1.8741 -0.1464 -2.4200
  488MOL0     H65880   6.557   4.254   3.222 -1.8821  0.7788  0.3259
  489MOL0     O65881   9.894   9.247   9.614  0.5526  0.0196 -0.0084
  489MOL0     C65882   9.944   9.318   9.526  1.8126 -0.0255 -0.2718
  489MOL0     O65883   9.931   9.296   9.388 -0.7575  0.4042 -0.4218
  489MOL0     C65884   9.891   9.172   9.357  0.7424 -0.6712  0.3698
  489MOL0     C65885   9.980   9.077   9.344 -0.8976 -0.1941  1.0220
  489MOL0     C65886   9.948   8.950   9.299 -0.5110  0.0329  1.0572
  489MOL0     C65887   9.812   8.921   9.283 -0.4311  0.3563  1.3859
  489MOL0     O65888   9.767   8.800   9.233 -0.5087 -0.0160  0.0645
  489MOL0     C65889   9.658   8.730   9.300  0.5021  0.5843  0.2919
  489MOL0     C65890   9.649   8.597   9.225 -0.4537 -0.8640  0.6453
  489MOL0     C65891   9.690   8.464   9.308  0.3452 -0.2999 -0.1775
  489MOL0     C65892   9.656   8.340   9.220 -0.0853  0.9121  0.1971
  489MOL0     C65893   9.740   8.218   9.259 -0.5093 -0.1437 -0.2552
  489MOL0     C65894   9.703   8.169   9.402  0.6100  0.2513  0.2035
  489MOL0     C65895   9.771   8.032   9.429  0.7236  1.1243 -0.4227
  489MOL0     C65896   9.698   7.983   9.562  0.1058 -0.5814  0.1241
  489MOL0     N65897   9.793   7.904   9.636 -0.5690 -0.2945 -0.2039
  489MOL0     C65898   9.878   7.952   9.728 -0.3942 -0.5423 -0.3893
  489MOL0     C65899   9.952   7.840   9.751 -1.1078 -0.0245  0.3043
  489MOL0     C65900  10.047   7.832   9.864 -0.3968  0.1592 -0.0943
  489MOL0     C65901  10.182   7.794   9.812  0.5720 -0.5650 -0.4571
  489MOL0     C65902  10.297   7.828   9.913  0.5559 -0.3558  0.0910
  489MOL0     C65903  10.302   7.753  10.044 -0.5253  0.9938  0.9551
  489MOL0     O65904  10.419   7.811  10.110 -0.0091 -0.0308  0.1209
  489MOL0     C65905  10.483   7.732  10.201 -1.1818  0.1643  0.4746
  489MOL0     C65906  10.469   7.727  10.339  0.3021  0.6710  0.6910
  489MOL0     C65907  10.543   7.648  10.426  0.2065 -0.8960 -0.0473
  489MOL0     C65908  10.519   7.674  10.573 -0.8687 -0.2231 -1.1263
  489MOL0     C65909  10.615   7.539  10.372  0.3322  0.0187 -0.0935
  489MOL0     C65910  10.696   7.442  10.460  0.1748  0.6867 -0.6502
  489MOL0     O65911  10.676   7.431  10.598 -0.7073 -0.1836 -0.0095
  489MOL0     C65912  10.737   7.331  10.679  0.5243 -0.0578  0.6424
  489MOL0     C65913  10.816   7.215  10.650 -0.0564 -0.5062  0.0865
  489MOL0     C65914  10.844   7.123  10.748  0.1290 -0.2627  0.0046
  489MOL0     C65915  10.801   7.140  10.881 -0.2996  0.8134  0.5891
  489MOL0     O65916  10.859   7.042  10.962  0.6588  0.3210 -0.7924
  489MOL0     C65917  10.818   7.032  11.102  0.2030  0.0711  0.1878
  489MOL0     C65918  10.895   6.907  11.151  0.1544  0.2021 -0.2014
  489MOL0     C65919  10.817   6.840  11.270  0.3324  0.5937 -0.4589
  489MOL0     C65920  10.698   6.735  11.238 -0.3726  1.0537  0.0542
  489MOL0     C65921  10.654   6.663  11.360  0.4333 -0.8068 -0.5472
  489MOL0     C65922  10.754   6.580  11.431 -0.6107 -0.1485  0.4897
  489MOL0     C65923  10.696   6.485  11.550  0.7942 -0.1901  0.1309
  489MOL0     C65924  10.794   6.375  11.593 -0.1183 -0.2599  0.5811
  489MOL0    Cl65925  10.910   6.438  11.700 -0.4660  0.2168 -0.1312
  489MOL0     C65926  10.745   7.262  10.917 -0.1788  0.0521 -0.6715
  489MOL0     C65927  10.715   7.355  10.813  0.2868 -0.4395 -0.2418
  489MOL0     O65928  10.782   7.380  10.397 -0.1625 -0.7838  0.2301
  489MOL0     C65929  10.626   7.540  10.226 -0.8783 -0.3984 -0.5588
  489MOL0     C65930  10.580   7.646  10.141  0.6007 -0.5480  0.5920
  489MOL0     N65931   9.929   7.737   9.657 -0.3844  0.0622 -0.0764
  489MOL0     N65932   9.832   7.781   9.590 -0.6633  0.7603 -0.2158
  489MOL0     C65933   9.717   9.029   9.301 -0.3940  1.0137 -0.2927
  489MOL0     C65934   9.756   9.152   9.347  0.2977  0.5080 -0.3615
  489MOL0     C65935  10.039   9.417   9.575  0.6841  0.1229  0.2343
  489MOL0     C65936  10.053   9.464   9.700 -0.4493 -0.3939 -0.1262
  489MOL0     C65937  10.127   9.578   9.724 -0.5168  0.5862 -0.0927
  489MOL0     C65938  10.215   9.640   9.629  0.4442  0.5193 -0.7324
  489MOL0     O65939  10.304   9.741   9.664  0.0597 -0.9994  0.3604
  489MOL0     C65940  10.240   9.859   9.695 -0.5994 -0.7180  0.2685
  489MOL0     C65941  10.331   9.981   9.723  0.1292  0.5153  0.8980
  489MOL0     C65942  10.391   9.991   9.858  0.1668  0.0262 -0.3704
  489MOL0     C65943  10.530  10.062   9.856 -0.1787 -1.0199 -0.0171
  489MOL0     C65944  10.525  10.200   9.804  0.1702  1.1091 -0.0866
  489MOL0     C65945  10.517  10.304   9.749  0.7201 -0.6326  0.0589
  489MOL0     C65946  10.205   9.586   9.506  0.3160 -0.7253  0.7185
  489MOL0     C65947  10.112   9.487   9.480 -0.8586 -0.7241  0.1478
  489MOL0     H65948  10.084   9.108   9.342 -1.1582  0.9011 -2.5171
  489MOL0     H65949  10.022   8.877   9.268 -0.9874  0.1026 -0.2949
  489MOL0     H65950   9.663   8.707   9.407 -4.5123  0.9692  0.8291
  489MOL0     H65951   9.567   8.790   9.298 -1.2335 -1.8759  0.6349
  489MOL0     H65952   9.542   8.592   9.202 -0.6199  1.5498  0.5784
  489MOL0     H65953   9.708   8.607   9.133 -0.7576 -0.7842  0.4577
  489MOL0     H65954   9.793   8.462   9.344  0.3285  3.0581  0.3522
  489MOL0     H65955   9.620   8.459   9.391 -0.8463  0.6559 -1.0895
  489MOL0     H65956   9.547   8.333   9.229 -0.0741  0.7330  0.2002
  489MOL0     H65957   9.689   8.369   9.120  2.5932  4.0319  1.7858
  489MOL0     H65958   9.714   8.142   9.185  0.7265 -1.4065  0.5464
  489MOL0     H65959   9.847   8.236   9.253 -0.5344 -0.0683 -0.4738
  489MOL0     H65960   9.743   8.244   9.471  1.7227 -1.5689  1.6348
  489MOL0     H65961   9.594   8.154   9.407  0.9367 -3.9960 -1.6474
  489MOL0     H65962   9.755   7.964   9.345  0.0319 -0.8802  1.2446
  489MOL0     H65963   9.877   8.056   9.442  0.3930  1.1478  3.3834
  489MOL0     H65964   9.605   7.929   9.542  0.4473 -1.0947 -0.1012
  489MOL0     H65965   9.678   8.073   9.620  3.4073  1.6795 -1.9149
  489MOL0     H65966   9.865   8.043   9.785 -0.6258 -1.6886  1.5001
  489MOL0     H65967  10.051   7.932   9.909  4.1576  0.8821 -1.5211
  489MOL0     H65968  10.011   7.752   9.929 -3.0187  0.7771 -0.6725
  489MOL0     H65969  10.206   7.853   9.723 -0.6575  0.6563 -0.0080
  489MOL0     H65970  10.183   7.686   9.793 -1.0532 -0.2929 -2.5125
  489MOL0     H65971  10.284   7.935   9.929  2.6707  0.3241 -1.9767
  489MOL0     H65972  10.395   7.818   9.866  0.2706  0.6270 -0.7519
  489MOL0     H65973  10.321   7.645  10.040  1.4749  1.3425 -0.0984
  489MOL0     H65974  10.214   7.757  10.109 -1.1918 -0.2568  0.1883
  489MOL0     H65975  10.393   7.792  10.381  1.1467  0.8754  1.9594
  489MOL0     H65976  10.600   7.705  10.639 -1.5961 -0.9188  0.1207
  489MOL0     H65977  10.448   7.754  10.596  1.5255  2.4857 -2.5474
  489MOL0     H65978  10.494   7.575  10.614 -1.3945 -0.4967 -2.0754
  489MOL0     H65979  10.835   7.199  10.545 -1.1573 -0.4241 -0.1379
  489MOL0     H65980  10.904   7.037  10.718  1.2332  0.8880 -1.2600
  489MOL0     H65981  10.841   7.125  11.154 -2.3337  0.8496  0.0762
  489MOL0     H65982  10.711   7.010  11.106 -0.0419  1.1412 -0.1795
  489MOL0     H65983  10.895   6.827  11.076  2.5195  1.1496 -1.3009
  489MOL0     H65984  10.999   6.933  11.173  0.8145 -1.9292 -0.5273
  489MOL0     H65985  10.758   6.914  11.325 -2.9385 -1.4501 -0.9861
  489MOL0     H65986  10.879   6.785  11.342 -1.4984  0.9519  1.4792
  489MOL0     H65987  10.616   6.786  11.187  0.5353  1.1681 -1.3494
  489MOL0     H65988  10.734   6.663  11.163 -1.6743 -0.4035  0.7765
  489MOL0     H65989  10.570   6.601  11.326 -2.0246  2.2837 -0.5044
  489MOL0     H65990  10.632   6.739  11.435  2.7730 -0.5492 -0.0337
  489MOL0     H65991  10.811   6.517  11.362 -0.4399  0.2524  0.2600
  489MOL0     H65992  10.829   6.647  11.475  2.0824 -1.5629 -1.5989
  489MOL0     H65993  10.607   6.431  11.516  0.6673 -1.8689  2.7822
  489MOL0     H65994  10.663   6.543  11.637  0.0414  1.7299 -1.3621
  489MOL0     H65995  10.847   6.338  11.505 -0.3878  1.6768 -0.4465
  489MOL0     H65996  10.737   6.293  11.637 -1.0631  1.4823  2.7713
  489MOL0     H65997  10.715   7.288  11.018  0.9397  1.5455 -0.6945
  489MOL0     H65998  10.676   7.452  10.843 -0.4870 -0.3837 -1.3768
  489MOL0     H65999  10.681   7.465  10.169 -0.3681  0.0354 -0.6491
  489MOL0     H66000  10.605   7.650  10.035 -1.5027  2.9397  0.0592
  489MOL0     H66001   9.613   9.005   9.281 -0.2665  1.3155 -1.3657
  489MOL0     H66002   9.691   9.237   9.365 -1.5847 -0.8889 -0.3261
  489MOL0     H66003  10.003   9.422   9.786  2.6980  0.3463  2.2620
  489MOL0     H66004  10.133   9.627   9.820 -0.0164  3.5274 -1.5224
  489MOL0     H66005  10.188   9.890   9.604  0.2035  1.1265  0.4100
  489MOL0     H66006  10.156   9.846   9.764 -1.2184 -0.2637 -0.3854
  489MOL0     H66007  10.274  10.072   9.702 -2.1677 -0.5236  2.2091
  489MOL0     H66008  10.413   9.977   9.651  0.5444  2.4418  1.2027
  489MOL0     H66009  10.412   9.891   9.896  0.3821  1.1178  2.6262
  489MOL0     H66010  10.323  10.039   9.930 -0.1946 -1.7889  0.5517
  489MOL0     H66011  10.608  10.001   9.811  0.2219 -1.6535  1.4629
  489MOL0     H66012  10.564  10.064   9.960  1.0279  1.0885 -0.3879
  489MOL0     H66013  10.505  10.398   9.700  0.4357 -0.2131  0.9123
  489MOL0     H66014  10.275   9.618   9.429 -0.6407  3.2481  1.3259
  489MOL0     H66015  10.109   9.438   9.383 -2.2056 -0.5226  0.0753
  490MOL0     O66016   7.610   3.589   0.744  0.2282 -0.0987  0.5050
  490MOL0     C66017   7.704   3.513   0.761  0.1675  0.7189 -0.7217
  490MOL0     O66018   7.719   3.425   0.865  0.2794  0.7530  0.6038
  490MOL0     C66019   7.642   3.456   0.978  0.0559 -0.0056  0.6330
  490MOL0     C66020   7.523   3.384   1.008  0.1618 -0.0092 -0.1514
  490MOL0     C66021   7.452   3.424   1.121  1.5244 -0.7555 -0.1703
  490MOL0     C66022   7.496   3.529   1.211 -0.1717 -0.6872 -0.3401
  490MOL0     O66023   7.427   3.551   1.332  0.6143 -0.1657 -0.0353
  490MOL0     C66024   7.456   3.649   1.432 -0.0054  0.0837  0.3737
  490MOL0     C66025   7.322   3.661   1.516  0.2337  1.4058  0.7717
  490MOL0     C66026   7.313   3.528   1.596 -0.0963  0.1311 -0.6561
  490MOL0     C66027   7.223   3.529   1.728  0.7593 -0.4065 -0.1066
  490MOL0     C66028   7.078   3.589   1.711 -0.1162 -0.2892  0.2600
  490MOL0     C66029   7.019   3.604   1.854  0.5457  0.7044  0.5911
  490MOL0     C66030   6.890   3.681   1.862  0.0445 -1.1887 -0.3654
  490MOL0     C66031   6.810   3.667   1.991  0.1296 -0.2596 -0.1761
  490MOL0     N66032   6.690   3.746   1.977 -0.3480 -1.2273 -0.2310
  490MOL0     C66033   6.681   3.884   1.940 -0.2279 -0.7101 -0.0339
  490MOL0     C66034   6.553   3.919   1.941  0.6158  0.0658  0.6420
  490MOL0     C66035   6.492   4.045   1.888  1.0282 -0.1133 -0.2354
  490MOL0     C66036   6.445   4.037   1.751  0.2453 -0.6667  0.0616
  490MOL0     C66037   6.387   4.179   1.705 -0.4797  0.2453  0.7038
  490MOL0     C66038   6.460   4.240   1.578 -0.6620 -0.0094  1.0632
  490MOL0     O66039   6.608   4.226   1.588 -0.0873 -0.1179  0.2077
  490MOL0     C66040   6.667   4.239   1.467 -0.0428 -0.7929 -0.0327
  490MOL0     C66041   6.703   4.362   1.413  0.0659  0.1696  0.0165
  490MOL0     C66042   6.785   4.369   1.293  0.2420 -0.1890  0.3143
  490MOL0     C66043   6.863   4.497   1.262 -0.5386 -0.0017 -0.0260
  490MOL0     C66044   6.789   4.259   1.207 -0.2587 -0.4931 -0.4261
  490MOL0     C66045   6.854   4.246   1.078  0.0709 -0.5024  1.1106
  490MOL0     O66046   6.894   4.113   1.030 -0.5576 -0.0421 -0.2184
  490MOL0     C66047   6.896   4.092   0.895  0.0168  0.0200  0.4293
  490MOL0     C66048   7.006   4.035   0.829  0.4620 -0.1184 -0.1933
  490MOL0     C66049   7.018   4.021   0.692  0.7754  0.3408 -0.6577
  490MOL0     C66050   6.907   4.061   0.614 -0.6686  0.6151  0.3394
  490MOL0     O66051   6.913   4.077   0.477  0.4129 -0.3920 -0.1850
  490MOL0     C66052   7.036   4.046   0.399 -0.7451  0.3436  1.2618
  490MOL0     C66053   7.013   4.029   0.249 -0.1042  0.2317 -0.8734
  490MOL0     C66054   6.924   3.900   0.237 -0.5280  0.3295  0.2513
  490MOL0     C66055   6.912   3.844   0.096  0.7407  0.3833  0.5489
  490MOL0     C66056   6.804   3.901   0.010 -0.0614  0.9685 -1.0505
  490MOL0     C66057   6.665   3.855   0.060 -0.4056 -0.9597 -0.0201
  490MOL0     C66058   6.569   3.896  -0.042  0.1501  0.3311  0.5541
  490MOL0     C66059   6.434   3.858  -0.002  0.3003 -0.3828  0.8120
  490MOL0    Cl66060   6.313   3.804  -0.134  0.0539 -0.2607 -0.4940
  490MOL0     C66061   6.789   4.119   0.682 -0.7358  0.6001  0.4804
  490MOL0     C66062   6.784   4.130   0.820  0.1815 -0.0864  0.2961
  490MOL0     O66063   6.861   4.349   1.014 -0.0391 -0.3444  0.3244
  490MOL0     C66064   6.727   4.146   1.253 -0.1932 -0.9071  0.6648
  490MOL0     C66065   6.676   4.131   1.383  0.4802 -0.1096  0.6681
  490MOL0     N66066   6.481   3.814   1.987  0.0501  0.1911 -0.5000
  490MOL0     N66067   6.562   3.712   2.015  0.3337 -0.6361 -0.6186
  490MOL0     C66068   7.619   3.588   1.182 -0.9188 -0.6543  0.3093
  490MOL0     C66069   7.686   3.557   1.060 -0.2047 -0.0831  0.0012
  490MOL0     C66070   7.809   3.509   0.650 -0.5433 -0.0426 -0.1911
  490MOL0     C66071   7.785   3.568   0.523 -0.3505 -1.2526  0.1538
  490MOL0     C66072   7.886   3.571   0.426 -0.0784 -0.7547  0.7403
  490MOL0     C66073   8.008   3.524   0.462  0.2972  0.4253  0.3550
  490MOL0     O66074   8.107   3.533   0.365 -0.2534  0.3036  0.7023
  490MOL0     C66075   8.250   3.521   0.394  0.3245 -0.7750 -1.0581
  490MOL0     C66076   8.329   3.542   0.271 -0.2993 -0.4091 -0.6928
  490MOL0     C66077   8.287   3.437   0.160  0.0872 -0.5404  0.5441
  490MOL0     C66078   8.303   3.290   0.211 -0.2152  0.2355 -0.0686
  490MOL0     C66079   8.407   3.258   0.314 -0.2730  0.1460  0.1626
  490MOL0     C66080   8.492   3.235   0.398  0.4473  0.4227 -1.0906
  490MOL0     C66081   8.027   3.458   0.582  1.0505 -0.1840  0.3722
  490MOL0     C66082   7.926   3.444   0.678 -0.8137  0.7903  0.0318
  490MOL0     H66083   7.487   3.314   0.933 -1.4076  4.3254 -3.9235
  490MOL0     H66084   7.365   3.369   1.155  2.3589 -1.0048  1.6612
  490MOL0     H66085   7.548   3.621   1.485  0.3339  0.3469 -0.0609
  490MOL0     H66086   7.476   3.749   1.390 -0.8338  0.7459  1.5030
  490MOL0     H66087   7.344   3.740   1.588  0.4261 -0.6094  3.0515
  490MOL0     H66088   7.237   3.681   1.450  2.0423  4.4451 -0.8398
  490MOL0     H66089   7.283   3.439   1.540  3.3638 -2.8526  1.7998
  490MOL0     H66090   7.413   3.499   1.628 -0.0195  1.3071  0.2393
  490MOL0     H66091   7.205   3.425   1.755  0.3152 -0.0114  1.1951
  490MOL0     H66092   7.279   3.583   1.805 -1.4013  0.2052  1.1194
  490MOL0     H66093   7.085   3.687   1.662  8.0948 -0.8998 -1.2769
  490MOL0     H66094   7.019   3.517   1.654  0.9135  0.2275 -1.5424
  490MOL0     H66095   6.996   3.502   1.886  1.4746 -0.1358 -1.2283
  490MOL0     H66096   7.090   3.650   1.924  0.8930 -2.2737  2.3517
  490MOL0     H66097   6.918   3.786   1.849 -1.9849 -0.4358  0.8984
  490MOL0     H66098   6.824   3.654   1.779  0.8097  1.4867 -1.9585
  490MOL0     H66099   6.865   3.693   2.082 -4.2201  1.4635  2.2447
  490MOL0     H66100   6.777   3.563   2.002  2.5350 -1.3793 -2.4677
  490MOL0     H66101   6.767   3.944   1.910  1.3846 -2.6208  0.5333
  490MOL0     H66102   6.411   4.078   1.954  2.0174 -0.4087  1.1773
  490MOL0     H66103   6.563   4.125   1.909  0.4197 -0.5976  4.9566
  490MOL0     H66104   6.369   3.958   1.745 -0.2732 -0.2967  1.3781
  490MOL0     H66105   6.520   3.997   1.681 -0.2788 -0.7786 -0.4467
  490MOL0     H66106   6.415   4.257   1.776  3.9976  0.2238 -0.6991
  490MOL0     H66107   6.282   4.171   1.678  0.3211  2.5930 -4.3369
  490MOL0     H66108   6.447   4.348   1.572 -0.4382  0.0605  1.7622
  490MOL0     H66109   6.424   4.194   1.485 -0.2255  3.0199 -0.7264
  490MOL0     H66110   6.681   4.458   1.459 -0.4997  0.2135 -0.3421
  490MOL0     H66111   6.899   4.541   1.355 -1.1702  2.0209 -0.6970
  490MOL0     H66112   6.944   4.479   1.191 -1.2664 -0.5230 -0.7397
  490MOL0     H66113   6.792   4.564   1.214  0.6432  0.0896 -1.7447
  490MOL0     H66114   7.094   4.010   0.888  0.6843 -0.9998 -0.8646
  490MOL0     H66115   7.109   3.974   0.657  1.8996  2.5593 -0.8651
  490MOL0     H66116   7.097   4.136   0.393 -0.9446  0.3992 -0.4641
  490MOL0     H66117   7.088   3.958   0.438  0.3154  1.2455  1.9174
  490MOL0     H66118   6.956   4.106   0.196 -0.9127 -1.0466 -1.9400
  490MOL0     H66119   7.114   4.022   0.209 -0.0977 -2.6105 -0.5686
  490MOL0     H66120   6.828   3.936   0.275 -1.3377 -0.9814 -0.4474
  490MOL0     H66121   6.946   3.813   0.301 -1.5872 -1.1924 -1.3701
  490MOL0     H66122   7.005   3.859   0.040  0.8253  1.2046  0.9002
  490MOL0     H66123   6.904   3.736   0.109  3.1198  0.2726  1.6655
  490MOL0     H66124   6.811   3.870  -0.095 -1.0327 -0.8263 -0.6254
  490MOL0     H66125   6.820   4.009   0.002  4.5513  0.3715 -3.4334
  490MOL0     H66126   6.669   3.748   0.082  2.4199 -0.9775 -0.2830
  490MOL0     H66127   6.637   3.904   0.154  1.2727  0.7403 -0.3540
  490MOL0     H66128   6.591   3.855  -0.142 -0.4512  3.1386 -0.8210
  490MOL0     H66129   6.572   4.004  -0.057  3.0429  0.3662  0.7480
  490MOL0     H66130   6.394   3.947   0.047  2.5592  1.3713 -0.3029
  490MOL0     H66131   6.429   3.779   0.074  1.0913 -0.2921  0.9740
  490MOL0     H66132   6.707   4.153   0.621 -0.5375 -0.2907 -0.3161
  490MOL0     H66133   6.700   4.185   0.860 -0.6328 -1.5274  0.6432
  490MOL0     H66134   6.738   4.061   1.186  2.8400 -0.2702  0.2284
  490MOL0     H66135   6.636   4.036   1.417 -1.9091 -0.0010 -1.5524
  490MOL0     H66136   7.664   3.652   1.257 -0.6924  0.2531 -0.5795
  490MOL0     H66137   7.786   3.593   1.036  0.4219  0.1902  2.6708
  490MOL0     H66138   7.690   3.615   0.498 -0.3256 -1.4611 -0.3313
  490MOL0     H66139   7.863   3.638   0.344 -1.7529 -2.0171  0.1203
  490MOL0     H66140   8.278   3.589   0.475 -0.2365  0.5471 -1.9395
  490MOL0     H66141   8.271   3.418   0.426  0.1971 -0.8798 -1.3108
  490MOL0     H66142   8.435   3.529   0.297 -0.3560 -1.3351 -0.8994
  490MOL0     H66143   8.308   3.644   0.238  0.4417 -1.1828 -3.9473
  490MOL0     H66144   8.344   3.453   0.067 -0.3789 -1.7638  0.0222
  490MOL0     H66145   8.185   3.466   0.134  0.8415  0.1596 -1.9308
  490MOL0     H66146   8.326   3.238   0.117 -0.9668  1.7357 -1.1164
  490MOL0     H66147   8.210   3.264   0.261  0.1756  1.4601  1.3882
  490MOL0     H66148   8.554   3.223   0.484 -1.7532 -4.5377  0.1394
  490MOL0     H66149   8.122   3.420   0.619  0.0032 -2.8969  0.5088
  490MOL0     H66150   7.946   3.403   0.777 -2.9441 -1.9866 -0.5962
  491MOL0     O66151   3.114   5.301   2.280 -0.1603  0.8820 -0.7290
  491MOL0     C66152   3.191   5.307   2.376  0.0112  1.6484 -0.0165
  491MOL0     O66153   3.250   5.415   2.419  0.0669 -0.8224 -0.0224
  491MOL0     C66154   3.233   5.543   2.367  0.2152 -1.2885 -0.4205
  491MOL0     C66155   3.130   5.588   2.277  0.0392 -0.7447 -0.6759
  491MOL0     C66156   3.111   5.726   2.242  0.2019 -0.3137 -0.8796
  491MOL0     C66157   3.198   5.819   2.296  0.1905  0.1174 -0.0009
  491MOL0     O66158   3.193   5.955   2.295  0.0788 -0.5908  0.1372
  491MOL0     C66159   3.115   6.019   2.191 -0.2237  0.6679 -0.0874
  491MOL0     C66160   2.972   6.029   2.244 -0.5519 -0.0502 -0.5570
  491MOL0     C66161   2.876   6.066   2.133  0.4518 -0.7216 -0.0980
  491MOL0     C66162   2.735   6.082   2.208  0.2045 -0.3456  1.0497
  491MOL0     C66163   2.627   6.145   2.109  1.1491  0.4933  0.2055
  491MOL0     C66164   2.486   6.150   2.171  0.1907  0.2242 -0.4042
  491MOL0     C66165   2.388   6.234   2.092  1.0513 -0.3738 -0.4986
  491MOL0     C66166   2.238   6.232   2.138  0.1828  0.5528  0.1596
  491MOL0     N66167   2.222   6.259   2.286  0.2278 -0.1727  0.3146
  491MOL0     C66168   2.184   6.374   2.339  0.4689  0.7380 -1.1829
  491MOL0     C66169   2.157   6.349   2.463 -0.6481 -0.1712  1.2323
  491MOL0     C66170   2.120   6.454   2.566  0.0322  0.6100 -0.4509
  491MOL0     C66171   2.210   6.574   2.590  0.0211  0.0413  0.7127
  491MOL0     C66172   2.130   6.709   2.590 -0.3319  0.7527  0.6055
  491MOL0     C66173   2.219   6.826   2.605 -0.4646 -1.1984 -0.4620
  491MOL0     O66174   2.153   6.937   2.556 -0.4320 -0.1533  0.7682
  491MOL0     C66175   2.076   7.010   2.634  0.1320 -0.3500 -0.3542
  491MOL0     C66176   2.014   7.108   2.560 -0.8054 -0.8867 -0.8018
  491MOL0     C66177   1.918   7.184   2.620  0.3023 -0.6446 -0.8612
  491MOL0     C66178   1.848   7.293   2.537 -0.2132  0.7121  0.4533
  491MOL0     C66179   1.874   7.152   2.756  0.2237  1.1659  0.1899
  491MOL0     C66180   1.767   7.215   2.832 -0.9889  0.1414 -0.6527
  491MOL0     O66181   1.700   7.138   2.912  0.4840  0.1345 -0.6561
  491MOL0     C66182   1.568   7.167   2.947 -0.9654  0.1647 -0.4521
  491MOL0     C66183   1.476   7.206   2.848  0.3270  0.4730 -0.8757
  491MOL0     C66184   1.359   7.251   2.899  0.9388 -1.1606  0.1923
  491MOL0     C66185   1.312   7.242   3.029 -0.3702  0.1299 -0.6382
  491MOL0     O66186   1.185   7.279   3.059 -0.0596 -0.0029  0.7077
  491MOL0     C66187   1.135   7.278   3.192 -0.1675  0.3055  0.0542
  491MOL0     C66188   0.988   7.323   3.198 -0.0544  0.2928 -0.0695
  491MOL0     C66189   0.952   7.448   3.117  0.9040  0.2157  0.8968
  491MOL0     C66190   0.849   7.533   3.199 -0.4352  0.3979 -0.4822
  491MOL0     C66191   0.708   7.499   3.168  0.0257 -0.0845 -0.1149
  491MOL0     C66192   0.601   7.587   3.233 -0.4681  0.1106 -0.5408
  491MOL0     C66193   0.602   7.553   3.386 -0.0791  0.1956  0.2942
  491MOL0     C66194   0.498   7.632   3.457  0.3693  0.3823  0.2109
  491MOL0    Cl66195   0.333   7.569   3.380 -0.6840  0.4766 -0.5476
  491MOL0     C66196   1.402   7.196   3.125  0.1303 -0.4656 -1.0362
  491MOL0     C66197   1.535   7.166   3.087 -0.0779 -0.1686  0.0820
  491MOL0     O66198   1.751   7.335   2.815  0.0018  0.2369 -0.5928
  491MOL0     C66199   1.953   7.054   2.832  0.6801 -0.3310  0.1118
  491MOL0     C66200   2.051   6.986   2.770  0.6303  0.3750 -0.1071
  491MOL0     N66201   2.174   6.213   2.480  0.0369 -0.0466  0.3951
  491MOL0     N66202   2.216   6.156   2.375 -0.3906  0.1505  0.5622
  491MOL0     C66203   3.311   5.781   2.367  1.0597 -0.4319 -0.6839
  491MOL0     C66204   3.334   5.643   2.396  0.3871 -0.6183 -0.1329
  491MOL0     C66205   3.217   5.186   2.444  0.2736 -0.3615  0.5912
  491MOL0     C66206   3.306   5.184   2.550  0.6168  0.4944  0.7759
  491MOL0     C66207   3.318   5.068   2.622 -1.2931 -0.1432  0.3576
  491MOL0     C66208   3.267   4.950   2.575  0.1239 -0.2378  1.4494
  491MOL0     O66209   3.280   4.827   2.625  0.3743 -0.0058  0.2924
  491MOL0     C66210   3.403   4.772   2.664 -0.2096  0.7936 -0.3160
  491MOL0     C66211   3.385   4.627   2.693 -0.4267 -1.0867  0.1505
  491MOL0     C66212   3.265   4.601   2.782 -0.1279 -0.4391 -0.1169
  491MOL0     C66213   3.223   4.453   2.810  0.8983  0.2917 -0.0988
  491MOL0     C66214   3.331   4.375   2.864  0.5127 -0.1485  1.5874
  491MOL0     C66215   3.428   4.331   2.922 -0.6201  0.5954  0.4642
  491MOL0     C66216   3.199   4.952   2.450 -0.7255  0.6730  1.0324
  491MOL0     C66217   3.164   5.073   2.392 -0.9289  0.5315  1.1677
  491MOL0     H66218   3.059   5.515   2.241 -0.8126 -0.9633  1.2989
  491MOL0     H66219   3.031   5.762   2.178 -0.1602 -0.2072 -0.3825
  491MOL0     H66220   3.163   6.116   2.173  2.3456  0.0923  2.8975
  491MOL0     H66221   3.117   5.954   2.103 -0.9251  0.5600 -0.0332
  491MOL0     H66222   2.948   5.926   2.271 -0.9708 -0.9021 -3.7704
  491MOL0     H66223   2.971   6.092   2.334 -0.5808 -0.6063 -0.1661
  491MOL0     H66224   2.915   6.156   2.084  0.0836 -0.9009 -0.7157
  491MOL0     H66225   2.875   5.989   2.056  0.9162 -0.9212  0.0864
  491MOL0     H66226   2.705   5.979   2.231 -1.6646 -0.6212 -2.0206
  491MOL0     H66227   2.754   6.144   2.295 -0.4962 -0.4826  1.3053
  491MOL0     H66228   2.666   6.241   2.076  0.5356  0.6038 -0.1938
  491MOL0     H66229   2.619   6.083   2.019 -3.9775 -0.5689  1.0770
  491MOL0     H66230   2.457   6.047   2.193  1.5715 -0.1075 -0.0397
  491MOL0     H66231   2.488   6.212   2.261 -3.0517 -0.1706  0.0671
  491MOL0     H66232   2.416   6.338   2.112  2.6794 -0.9614  0.4595
  491MOL0     H66233   2.404   6.213   1.985  2.1266 -0.4640 -0.3292
  491MOL0     H66234   2.199   6.135   2.105 -0.1263  1.5670 -2.7309
  491MOL0     H66235   2.188   6.313   2.084  2.7534  1.3383 -1.1671
  491MOL0     H66236   2.197   6.476   2.304  3.2297  0.7463 -0.3758
  491MOL0     H66237   2.019   6.489   2.542  0.0768  3.1038  2.4171
  491MOL0     H66238   2.118   6.410   2.666  3.4910  1.9169  0.3338
  491MOL0     H66239   2.286   6.565   2.512  0.8810 -3.5277  1.7367
  491MOL0     H66240   2.259   6.564   2.687  3.8382 -1.0307 -1.1185
  491MOL0     H66241   2.078   6.724   2.686  0.2963  3.7520  0.5902
  491MOL0     H66242   2.070   6.731   2.502  2.2379 -0.0995 -1.5057
  491MOL0     H66243   2.314   6.822   2.551 -0.3287  0.2157 -0.3600
  491MOL0     H66244   2.248   6.832   2.711  1.8021 -3.2271 -0.8844
  491MOL0     H66245   2.040   7.118   2.455  0.4418 -0.4244 -0.4712
  491MOL0     H66246   1.887   7.303   2.435  3.7734  1.8103  1.8926
  491MOL0     H66247   1.740   7.278   2.530 -0.0372 -0.9291  0.7968
  491MOL0     H66248   1.845   7.394   2.580 -0.5367  0.7846  0.2583
  491MOL0     H66249   1.504   7.201   2.744  1.0508  1.8654 -0.7618
  491MOL0     H66250   1.289   7.288   2.825  1.1489 -0.0017  0.5592
  491MOL0     H66251   1.163   7.178   3.226  3.8642  1.2960  0.2707
  491MOL0     H66252   1.193   7.349   3.252  2.1975 -1.1502 -0.3689
  491MOL0     H66253   0.924   7.245   3.156 -1.0662 -0.5106  2.7798
  491MOL0     H66254   0.967   7.346   3.303 -0.4752  2.6850 -0.6128
  491MOL0     H66255   0.904   7.399   3.032 -1.6649 -1.2454  3.0163
  491MOL0     H66256   1.040   7.507   3.090  1.0333 -0.3535  0.0278
  491MOL0     H66257   0.863   7.519   3.307 -2.5492  0.3321 -0.1769
  491MOL0     H66258   0.871   7.636   3.169  0.7693  0.9059  1.8662
  491MOL0     H66259   0.693   7.394   3.193  0.0993 -0.2936 -0.9377
  491MOL0     H66260   0.697   7.506   3.060 -0.3365 -3.8034 -0.4454
  491MOL0     H66261   0.608   7.694   3.211  0.4005  0.4258  1.1303
  491MOL0     H66262   0.501   7.571   3.192 -0.6452  0.9688 -0.4711
  491MOL0     H66263   0.703   7.571   3.425  0.8053  3.2912 -2.8748
  491MOL0     H66264   0.583   7.446   3.399 -2.3637  0.8467  3.2649
  491MOL0     H66265   0.510   7.741   3.454  1.1043  0.3254  0.7095
  491MOL0     H66266   0.496   7.600   3.561 -1.1446 -0.8727 -0.1633
  491MOL0     H66267   1.371   7.188   3.228 -1.5473 -3.8020 -1.6433
  491MOL0     H66268   1.609   7.124   3.155 -0.1546 -2.9885 -1.4136
  491MOL0     H66269   1.931   7.036   2.936  0.4322  1.9963  0.5074
  491MOL0     H66270   2.103   6.905   2.821 -0.5959 -0.4074 -0.0699
  491MOL0     H66271   3.383   5.854   2.404  0.7638 -0.1183 -0.7199
  491MOL0     H66272   3.424   5.625   2.453  1.0453  1.2817 -0.4801
  491MOL0     H66273   3.355   5.274   2.586 -1.1018  2.1924 -0.9039
  491MOL0     H66274   3.374   5.068   2.715  0.9410 -0.6383 -0.9145
  491MOL0     H66275   3.477   4.778   2.584  1.8126  0.1310  1.3863
  491MOL0     H66276   3.436   4.817   2.759 -1.4529  0.4431  0.2994
  491MOL0     H66277   3.482   4.599   2.734 -0.9219 -2.6475  0.3252
  491MOL0     H66278   3.375   4.574   2.598 -0.0177 -0.9745  0.0419
  491MOL0     H66279   3.181   4.642   2.725 -0.5905 -2.1539 -0.7181
  491MOL0     H66280   3.289   4.644   2.880  1.0600 -2.6734  0.6397
  491MOL0     H66281   3.183   4.411   2.717 -0.6842  0.3830  0.5083
  491MOL0     H66282   3.150   4.469   2.890 -0.1070  2.2022 -1.3148
  491MOL0     H66283   3.515   4.295   2.971  0.1843 -1.7976 -2.4088
  491MOL0     H66284   3.150   4.861   2.417 -2.3173  1.4088  1.2815
  491MOL0     H66285   3.094   5.063   2.310 -0.7235 -1.0110  1.1547
  492MOL0     O66286   8.551   7.051   7.041 -0.2465 -0.3278  0.5407
  492MOL0     C66287   8.522   7.029   6.924 -0.2708 -0.3863  0.7368
  492MOL0     O66288   8.597   6.956   6.836  0.4312  1.3997  0.4072
  492MOL0     C66289   8.715   6.898   6.887 -0.4632 -1.1990 -0.1340
  492MOL0     C66290   8.724   6.824   7.002  0.5078  0.0704 -0.1604
  492MOL0     C66291   8.836   6.758   7.037 -1.0317  0.4589 -0.1041
  492MOL0     C66292   8.954   6.768   6.950  0.9059  0.2192  0.3410
  492MOL0     O66293   9.080   6.726   6.984 -0.5217  0.6629 -0.3690
  492MOL0     C66294   9.113   6.720   7.119 -0.4416 -0.1598 -0.7100
  492MOL0     C66295   9.082   6.570   7.161 -0.7007  0.3563  0.0856
  492MOL0     C66296   9.113   6.541   7.310 -0.4047 -0.3092 -0.1565
  492MOL0     C66297   9.261   6.563   7.345 -0.2253  0.6834 -0.5851
  492MOL0     C66298   9.309   6.448   7.445  0.4000  0.0725 -0.1183
  492MOL0     C66299   9.450   6.483   7.488  0.0783  0.4009  0.8943
  492MOL0     C66300   9.485   6.393   7.601 -0.1721 -0.5698 -0.2331
  492MOL0     C66301   9.595   6.460   7.685 -0.0964  0.3904 -0.1165
  492MOL0     N66302   9.593   6.439   7.830  0.6644 -0.0322 -0.9780
  492MOL0     C66303   9.587   6.315   7.898 -0.6006 -0.7139 -0.7963
  492MOL0     C66304   9.598   6.347   8.031 -0.0381  0.4664 -0.5159
  492MOL0     C66305   9.594   6.261   8.154 -0.2385  0.1973  0.0474
  492MOL0     C66306   9.540   6.119   8.126  0.9293 -0.3426 -0.0510
  492MOL0     C66307   9.526   6.046   8.266  0.2804  0.3671 -0.5437
  492MOL0     C66308   9.653   6.037   8.358 -0.7552  0.1031 -0.1978
  492MOL0     O66309   9.753   5.953   8.291  0.3318  0.6876 -0.0264
  492MOL0     C66310   9.878   5.976   8.337 -0.7200  0.4269 -0.2210
  492MOL0     C66311   9.905   6.007   8.473  0.0254  1.4624  0.2648
  492MOL0     C66312  10.032   6.026   8.522 -0.7243  0.3923  0.1037
  492MOL0     C66313  10.039   6.051   8.673  0.0599  0.0847  0.2459
  492MOL0     C66314  10.143   6.042   8.424 -0.2682  0.3449 -0.4031
  492MOL0     C66315  10.282   6.086   8.463  0.5920  0.4270 -0.1063
  492MOL0     O66316  10.316   6.081   8.593 -0.1150 -0.1981  0.9125
  492MOL0     C66317  10.439   6.129   8.629  0.3711  0.0461 -0.0476
  492MOL0     C66318  10.528   6.030   8.674  0.7765  0.1061 -0.2651
  492MOL0     C66319  10.662   6.059   8.677 -0.4517  0.9927  0.5088
  492MOL0     C66320  10.710   6.185   8.652  0.1701 -0.3152 -0.1616
  492MOL0     O66321  10.846   6.205   8.675  0.0830  0.1469  0.1583
  492MOL0     C66322  10.897   6.340   8.701 -0.1296 -0.2818 -0.3413
  492MOL0     C66323  11.045   6.323   8.725  0.0014  0.1056  0.0125
  492MOL0     C66324  11.131   6.446   8.747  0.3139 -0.3993 -0.3327
  492MOL0     C66325  11.096   6.563   8.656 -0.0885  0.4232  0.0764
  492MOL0     C66326  11.205   6.673   8.674 -0.0227 -0.0114 -0.0436
  492MOL0     C66327  11.199   6.769   8.557 -1.2179 -0.0982  0.1426
  492MOL0     C66328  11.309   6.867   8.566  0.5232  0.1723  0.0763
  492MOL0     C66329  11.355   6.922   8.425  0.4405  1.2923 -0.2284
  492MOL0    Cl66330  11.251   7.043   8.364 -0.1791 -0.1747 -0.3425
  492MOL0     C66331  10.627   6.287   8.599  1.1515  0.7990  0.2679
  492MOL0     C66332  10.490   6.256   8.606 -0.8357 -0.0682  0.6390
  492MOL0     O66333  10.355   6.120   8.374 -0.7267 -0.8666  0.4155
  492MOL0     C66334  10.108   6.023   8.290  0.2669 -0.2056 -0.2842
  492MOL0     C66335   9.980   5.992   8.246 -0.1492  0.1063  0.8340
  492MOL0     N66336   9.617   6.484   8.043 -0.5101 -0.3977  0.5238
  492MOL0     N66337   9.617   6.539   7.924 -0.0026 -1.9811  0.6047
  492MOL0     C66338   8.941   6.829   6.829 -0.1995  0.6826 -0.2966
  492MOL0     C66339   8.822   6.893   6.794 -0.5500  0.3789 -0.1206
  492MOL0     C66340   8.392   7.091   6.871 -0.0710  0.0070  0.1043
  492MOL0     C66341   8.295   7.143   6.952  1.3449 -0.2130 -0.0583
  492MOL0     C66342   8.177   7.197   6.896 -0.3285 -0.0827 -0.0759
  492MOL0     C66343   8.154   7.192   6.764 -0.2089 -0.2724 -1.1001
  492MOL0     O66344   8.036   7.246   6.716 -0.2150  0.3259 -0.3662
  492MOL0     C66345   8.011   7.238   6.576  0.1785 -0.3276 -0.1767
  492MOL0     C66346   7.915   7.344   6.523  0.8170 -0.7875  0.8090
  492MOL0     C66347   7.977   7.482   6.523  0.1303  0.0645 -0.9908
  492MOL0     C66348   8.109   7.496   6.448  0.5280 -0.6963 -0.3578
  492MOL0     C66349   8.154   7.633   6.452  1.1066  1.2106  0.8461
  492MOL0     C66350   8.208   7.739   6.467 -0.3109  0.3760  0.7181
  492MOL0     C66351   8.254   7.143   6.684 -0.4482 -0.6263  0.9644
  492MOL0     C66352   8.369   7.097   6.734 -0.4233 -0.1407 -0.2255
  492MOL0     H66353   8.640   6.813   7.070 -0.7989 -0.0065 -1.7182
  492MOL0     H66354   8.827   6.701   7.129 -4.5973 -3.1504 -2.3476
  492MOL0     H66355   9.216   6.754   7.129 -0.9355  0.7874  1.7421
  492MOL0     H66356   9.051   6.787   7.180  0.1060  0.7711 -1.1474
  492MOL0     H66357   8.977   6.539   7.159 -0.1587 -1.9907  2.4580
  492MOL0     H66358   9.127   6.490   7.100  3.0403 -1.1463  4.2426
  492MOL0     H66359   9.049   6.608   7.368 -0.2121  1.3933 -1.8009
  492MOL0     H66360   9.082   6.444   7.351  0.6610  1.0174  4.2718
  492MOL0     H66361   9.325   6.577   7.257  0.4856  3.1694  0.2455
  492MOL0     H66362   9.281   6.657   7.397  1.4786 -0.4043  0.8942
  492MOL0     H66363   9.245   6.452   7.533  1.7641 -0.3216  0.9303
  492MOL0     H66364   9.314   6.349   7.398  1.6611 -1.0332  2.1631
  492MOL0     H66365   9.513   6.454   7.403  0.0180  2.3342  0.1359
  492MOL0     H66366   9.456   6.591   7.503  0.3023  0.4352  0.5599
  492MOL0     H66367   9.399   6.373   7.665 -1.0444 -1.5123 -1.6481
  492MOL0     H66368   9.519   6.300   7.554  0.1389  0.9156 -3.1781
  492MOL0     H66369   9.594   6.568   7.665 -0.2767  1.3229  4.0834
  492MOL0     H66370   9.690   6.422   7.646  1.3403  0.8722  2.6592
  492MOL0     H66371   9.589   6.218   7.849 -0.7854 -0.5489 -1.1340
  492MOL0     H66372   9.699   6.253   8.185  1.0563  1.9244 -3.4726
  492MOL0     H66373   9.533   6.305   8.234 -0.7466  0.8699 -0.7048
  492MOL0     H66374   9.608   6.061   8.063 -0.3583 -5.9355  3.0131
  492MOL0     H66375   9.440   6.121   8.082  2.0128  1.5029 -2.6666
  492MOL0     H66376   9.497   5.941   8.251  0.8800  0.1613 -0.3100
  492MOL0     H66377   9.447   6.107   8.311 -0.4262 -2.6919  2.8801
  492MOL0     H66378   9.629   5.984   8.451 -1.7677 -2.3187 -1.7261
  492MOL0     H66379   9.692   6.138   8.367  1.8509 -0.9949  2.3302
  492MOL0     H66380   9.834   5.989   8.553  2.2633 -1.3513  1.8016
  492MOL0     H66381  10.085   6.145   8.705 -0.8897  0.1412  1.5253
  492MOL0     H66382   9.950   6.026   8.732 -1.1366 -3.3368 -2.6900
  492MOL0     H66383  10.114   5.982   8.711  1.0342  1.9266  1.8929
  492MOL0     H66384  10.486   5.931   8.682 -1.9684  1.2047 -0.1768
  492MOL0     H66385  10.726   5.985   8.726 -0.1296  0.0054 -1.3169
  492MOL0     H66386  10.879   6.388   8.604  0.3274 -3.4512 -2.1580
  492MOL0     H66387  10.836   6.381   8.782 -0.2821 -0.8188 -0.1809
  492MOL0     H66388  11.052   6.258   8.813  0.8928  1.1112  0.7139
  492MOL0     H66389  11.087   6.265   8.642 -0.4809 -2.0962  1.2386
  492MOL0     H66390  11.235   6.414   8.743 -0.2192 -2.9870  2.4306
  492MOL0     H66391  11.115   6.475   8.852 -0.3859 -0.9253 -0.2875
  492MOL0     H66392  11.086   6.530   8.552  0.3966 -1.9036  0.6963
  492MOL0     H66393  10.999   6.593   8.696 -0.8409  0.3793 -1.6595
  492MOL0     H66394  11.306   6.630   8.677  0.1448  0.3420 -0.4206
  492MOL0     H66395  11.195   6.719   8.772  1.7238 -0.3058  0.3073
  492MOL0     H66396  11.196   6.718   8.461  0.4221 -2.6867  1.3424
  492MOL0     H66397  11.110   6.832   8.572 -1.5703  0.6245 -3.9989
  492MOL0     H66398  11.401   6.827   8.610  1.0689  0.1082 -1.0660
  492MOL0     H66399  11.290   6.955   8.627  2.1437 -0.8043  2.1045
  492MOL0     H66400  11.362   6.839   8.353 -0.3333 -2.5590  3.6608
  492MOL0     H66401  11.453   6.966   8.444  0.4273  1.5745 -0.8050
  492MOL0     H66402  10.665   6.384   8.568  1.1806  1.3130  1.8416
  492MOL0     H66403  10.416   6.326   8.568  1.2558  2.0476  0.2562
  492MOL0     H66404  10.191   6.001   8.223 -1.3228  1.0772 -2.8457
  492MOL0     H66405   9.965   5.969   8.141 -1.4344  2.6568  0.3973
  492MOL0     H66406   9.025   6.822   6.761  1.7875 -4.2305  2.1573
  492MOL0     H66407   8.813   6.931   6.693  1.3469 -2.4486 -1.4977
  492MOL0     H66408   8.311   7.149   7.060 -0.2331 -0.0915  0.1909
  492MOL0     H66409   8.110   7.226   6.976 -1.1012 -0.6348 -0.5080
  492MOL0     H66410   8.101   7.238   6.513  0.2378 -4.7418 -0.4341
  492MOL0     H66411   7.962   7.140   6.565  2.8700 -1.5219 -3.1036
  492MOL0     H66412   7.822   7.345   6.580  0.8522 -0.9223  0.8711
  492MOL0     H66413   7.915   7.325   6.415  5.1032 -0.4324  0.5549
  492MOL0     H66414   7.998   7.517   6.625  2.5965 -0.9623 -1.0832
  492MOL0     H66415   7.902   7.552   6.485  0.5614  0.7900 -0.5388
  492MOL0     H66416   8.094   7.471   6.342  0.3704  3.1514 -1.4343
  492MOL0     H66417   8.186   7.439   6.500  0.3198 -0.9649 -0.3436
  492MOL0     H66418   8.270   7.826   6.474  1.5855 -0.7827 -0.5068
  492MOL0     H66419   8.234   7.136   6.578  1.3894  0.3773  0.4872
  492MOL0     H66420   8.441   7.047   6.670 -0.0988 -0.2590  0.2267
  493MOL0     O66421   1.566   6.028   2.960 -0.0804 -0.0863 -0.7178
  493MOL0     C66422   1.536   6.061   3.074 -0.5012 -0.9997 -0.3058
  493MOL0     O66423   1.468   6.172   3.100  0.2524 -0.4164  0.7444
  493MOL0     C66424   1.420   6.258   3.000  1.0362  0.2092 -0.2397
  493MOL0     C66425   1.281   6.291   3.022  0.4980  0.0920 -0.0402
  493MOL0     C66426   1.222   6.375   2.939 -0.4833  0.2590  1.1912
  493MOL0     C66427   1.296   6.439   2.831 -0.8589 -0.3082 -0.4164
  493MOL0     O66428   1.237   6.529   2.753 -0.0792 -0.3621  0.8594
  493MOL0     C66429   1.168   6.466   2.645  0.2212  0.1583  0.2771
  493MOL0     C66430   1.112   6.566   2.541  0.4587  0.4366 -0.1188
  493MOL0     C66431   1.219   6.662   2.492 -0.9233 -0.8998  0.3045
  493MOL0     C66432   1.173   6.707   2.355  0.3947  0.1861 -0.3114
  493MOL0     C66433   1.043   6.792   2.345  0.1239  0.0745 -0.2386
  493MOL0     C66434   1.028   6.881   2.223 -0.1971  0.2041  1.1440
  493MOL0     C66435   0.983   6.813   2.092 -0.4615 -0.3943 -0.1412
  493MOL0     C66436   0.834   6.830   2.081  0.6301  0.4055 -0.5953
  493MOL0     N66437   0.797   6.971   2.046 -0.4987  0.5580  0.8026
  493MOL0     C66438   0.717   7.053   2.122  0.6201 -0.3543 -0.0709
  493MOL0     C66439   0.714   7.164   2.049  0.7504  0.7350  0.1298
  493MOL0     C66440   0.643   7.292   2.097 -0.1004  0.3366 -0.0271
  493MOL0     C66441   0.678   7.408   2.012  0.3628 -0.2597  0.9741
  493MOL0     C66442   0.603   7.539   2.065  0.8978  0.0147  0.2314
  493MOL0     C66443   0.669   7.608   2.178 -0.3148  0.0188 -0.5117
  493MOL0     O66444   0.781   7.677   2.149 -1.0380  1.1181  0.0623
  493MOL0     C66445   0.863   7.726   2.250  0.0595  0.3205  0.7349
  493MOL0     C66446   0.979   7.796   2.209  0.1625  0.2036  0.8892
  493MOL0     C66447   1.075   7.844   2.304  0.3996  0.8748  1.0246
  493MOL0     C66448   1.215   7.892   2.250  0.5135 -0.1576  0.2814
  493MOL0     C66449   1.034   7.846   2.440  0.3585 -0.0988  0.3899
  493MOL0     C66450   1.119   7.894   2.549 -0.0507  0.4876 -0.5883
  493MOL0     O66451   1.049   7.969   2.640 -0.5969  0.2709  0.1387
  493MOL0     C66452   1.110   8.039   2.737 -0.5129  0.5120 -0.1190
  493MOL0     C66453   1.049   8.020   2.864 -0.8482 -0.6404 -0.4138
  493MOL0     C66454   1.092   8.092   2.970 -0.1677 -0.8261 -0.0639
  493MOL0     C66455   1.206   8.172   2.957  0.2030  0.0403 -1.0365
  493MOL0     O66456   1.234   8.260   3.060 -0.8659  0.3919  0.5872
  493MOL0     C66457   1.375   8.253   3.111  0.3359 -0.3693  0.5515
  493MOL0     C66458   1.360   8.280   3.264 -0.2993  0.7037  0.7952
  493MOL0     C66459   1.304   8.156   3.338  0.1909 -0.1765 -0.2367
  493MOL0     C66460   1.302   8.181   3.485  0.3131  0.2137 -0.9948
  493MOL0     C66461   1.270   8.053   3.565  0.0879 -0.7104 -0.4545
  493MOL0     C66462   1.306   8.087   3.719  1.1164 -0.3228 -0.5374
  493MOL0     C66463   1.281   7.965   3.809  0.5470  0.0702 -0.3709
  493MOL0     C66464   1.294   7.988   3.958  0.3552  0.7115 -0.3810
  493MOL0    Cl66465   1.449   8.054   4.010  0.1191  0.3160  0.0676
  493MOL0     C66466   1.273   8.189   2.834  0.1760 -0.5517 -0.0480
  493MOL0     C66467   1.212   8.124   2.725 -0.4213  0.1220  0.2542
  493MOL0     O66468   1.245   7.868   2.550  0.9547  0.2900 -0.1182
  493MOL0     C66469   0.924   7.763   2.485 -0.4292  0.4343  0.1258
  493MOL0     C66470   0.841   7.708   2.391  0.0183 -0.3904 -0.3316
  493MOL0     N66471   0.766   7.143   1.918 -0.2075  0.4508 -1.0517
  493MOL0     N66472   0.818   7.022   1.923 -0.3367 -0.3519 -0.1607
  493MOL0     C66473   1.435   6.405   2.817 -0.7053  0.2644 -0.1733
  493MOL0     C66474   1.499   6.311   2.903 -0.1529 -0.4123  0.3402
  493MOL0     C66475   1.591   5.974   3.191 -0.0630  0.9283 -0.4402
  493MOL0     C66476   1.571   5.994   3.333 -0.4360  0.0606  0.9515
  493MOL0     C66477   1.636   5.908   3.420  0.0123  0.4375  0.1650
  493MOL0     C66478   1.685   5.790   3.375 -0.7451  0.8039 -0.0342
  493MOL0     O66479   1.733   5.686   3.456  0.8575 -0.7371 -0.3721
  493MOL0     C66480   1.655   5.656   3.580 -1.0357  0.2298  0.9949
  493MOL0     C66481   1.734   5.693   3.705 -0.0225 -0.2292 -0.5884
  493MOL0     C66482   1.642   5.765   3.804  0.8049  0.2715  0.4672
  493MOL0     C66483   1.542   5.677   3.892 -0.1749 -0.2580  0.6929
  493MOL0     C66484   1.429   5.758   3.943  0.4600  0.6775 -0.0143
  493MOL0     C66485   1.346   5.835   3.995  0.0103  0.4854 -0.0100
  493MOL0     C66486   1.691   5.759   3.236 -0.0241  0.5562 -0.0938
  493MOL0     C66487   1.650   5.854   3.155 -0.8947  0.7039 -0.1490
  493MOL0     H66488   1.231   6.260   3.114  1.6679 -0.6290  0.3751
  493MOL0     H66489   1.118   6.400   2.958 -0.6628 -0.6951  1.5171
  493MOL0     H66490   1.217   6.377   2.605  0.8016  0.5113  0.2033
  493MOL0     H66491   1.069   6.439   2.684 -0.1946 -0.1750 -0.9701
  493MOL0     H66492   1.066   6.509   2.461  0.0403 -0.9903  1.0939
  493MOL0     H66493   1.045   6.632   2.597  1.2029  1.0554  0.0746
  493MOL0     H66494   1.227   6.753   2.551 -3.1928 -0.9032  0.7108
  493MOL0     H66495   1.316   6.613   2.477 -0.1717  1.3070 -2.9750
  493MOL0     H66496   1.246   6.776   2.311  0.4978 -0.0765 -0.5569
  493MOL0     H66497   1.174   6.619   2.289 -0.7078  2.4953 -3.7020
  493MOL0     H66498   0.963   6.718   2.340  0.7168 -0.6016 -5.3716
  493MOL0     H66499   1.019   6.856   2.431  0.8051 -1.5009  1.1865
  493MOL0     H66500   0.953   6.956   2.250 -1.5061 -0.0444 -1.4367
  493MOL0     H66501   1.119   6.934   2.196 -1.7378  1.6518 -1.7614
  493MOL0     H66502   1.031   6.858   2.005  0.6351 -0.2812  0.4988
  493MOL0     H66503   1.008   6.707   2.098 -0.5766 -0.3497  2.9034
  493MOL0     H66504   0.773   6.799   2.166 -0.4105  0.6374 -1.2398
  493MOL0     H66505   0.801   6.776   1.991 -0.2824 -1.0284  0.5696
  493MOL0     H66506   0.658   7.033   2.210 -1.2043 -1.8447 -1.5383
  493MOL0     H66507   0.535   7.271   2.089  0.5383 -2.9329 -2.0824
  493MOL0     H66508   0.678   7.320   2.197 -2.7734 -0.5024  1.2614
  493MOL0     H66509   0.637   7.401   1.911  1.2715  0.1729  0.5588
  493MOL0     H66510   0.786   7.426   2.004  0.8493 -2.4380  1.9015
  493MOL0     H66511   0.502   7.510   2.095  2.1767 -2.7753  2.2067
  493MOL0     H66512   0.582   7.612   1.986 -0.9570  0.5316  1.1252
  493MOL0     H66513   0.675   7.543   2.267 -1.7942  1.7614  0.9458
  493MOL0     H66514   0.598   7.687   2.206  1.2405  2.1662 -2.3603
  493MOL0     H66515   1.001   7.787   2.103  5.9834  3.1494  1.4357
  493MOL0     H66516   1.245   7.982   2.305  1.0508 -0.6378  0.7967
  493MOL0     H66517   1.289   7.812   2.257 -0.9889 -1.7995 -1.5508
  493MOL0     H66518   1.208   7.923   2.145 -0.7314  0.8869  0.6515
  493MOL0     H66519   0.973   7.944   2.882 -2.2109  1.2537  2.8587
  493MOL0     H66520   1.042   8.085   3.066 -1.1886 -1.1777 -0.6098
  493MOL0     H66521   1.420   8.157   3.084 -0.7944 -0.0346 -3.0598
  493MOL0     H66522   1.435   8.333   3.065  2.0833 -0.9400  1.7435
  493MOL0     H66523   1.460   8.288   3.307  1.6930 -3.4359 -2.2728
  493MOL0     H66524   1.292   8.362   3.286 -3.3777 -1.7116  1.0716
  493MOL0     H66525   1.351   8.059   3.322 -0.8056 -0.7088  0.0356
  493MOL0     H66526   1.197   8.154   3.315 -0.1412  1.3371  0.9685
  493MOL0     H66527   1.403   8.212   3.510 -0.2839  2.4843 -1.1715
  493MOL0     H66528   1.241   8.268   3.512  2.8336  1.1671  2.2019
  493MOL0     H66529   1.335   7.967   3.543  2.9074  0.5352  2.1862
  493MOL0     H66530   1.165   8.027   3.553 -0.0139 -1.0497  0.9176
  493MOL0     H66531   1.410   8.121   3.724  0.9194  0.1846  0.2786
  493MOL0     H66532   1.244   8.171   3.751 -0.1023 -0.8300 -1.4817
  493MOL0     H66533   1.354   7.894   3.769 -1.6606 -3.2671  1.0766
  493MOL0     H66534   1.183   7.922   3.784 -0.4743  2.6115 -0.9976
  493MOL0     H66535   1.283   7.887   4.000  0.8169  0.2887 -1.2409
  493MOL0     H66536   1.214   8.047   4.003  0.0345  0.3815 -0.5087
  493MOL0     H66537   1.361   8.251   2.824 -2.5358  3.8957  0.8394
  493MOL0     H66538   1.250   8.140   2.625 -4.2683 -0.9755 -1.5825
  493MOL0     H66539   0.905   7.767   2.592 -2.1249  1.1873 -0.1721
  493MOL0     H66540   0.751   7.653   2.419  0.0300 -0.4908 -0.4929
  493MOL0     H66541   1.491   6.447   2.733 -1.8058  1.4463 -0.3428
  493MOL0     H66542   1.603   6.285   2.886  1.0787  4.3143 -0.7293
  493MOL0     H66543   1.532   6.084   3.380 -0.3571  0.2174  0.7160
  493MOL0     H66544   1.644   5.912   3.528 -2.0312 -3.5288  0.6162
  493MOL0     H66545   1.552   5.694   3.577 -1.2360 -0.3256  0.4643
  493MOL0     H66546   1.642   5.548   3.592  0.9570 -1.2243 -5.7382
  493MOL0     H66547   1.828   5.746   3.685  0.7123 -1.7146 -1.1697
  493MOL0     H66548   1.777   5.605   3.753 -3.2704 -1.6930 -0.1502
  493MOL0     H66549   1.585   5.829   3.737  2.6363 -0.4605 -1.9481
  493MOL0     H66550   1.704   5.833   3.863  0.8228 -0.4484  1.3016
  493MOL0     H66551   1.603   5.647   3.978  0.1354 -1.3203  0.1162
  493MOL0     H66552   1.513   5.583   3.844 -0.2530 -0.1917  0.6092
  493MOL0     H66553   1.275   5.904   4.037 -0.2674 -0.8180  1.7948
  493MOL0     H66554   1.723   5.662   3.198 -0.6903  0.8193 -1.3595
  493MOL0     H66555   1.663   5.836   3.048 -3.4752  2.2989 -0.8251
  494MOL0     O66556   8.401   9.179   4.763 -0.4943 -0.2049 -0.2079
  494MOL0     C66557   8.414   9.135   4.880  0.3798 -0.9222  0.3810
  494MOL0     O66558   8.347   9.027   4.927 -0.5173  0.4311  0.1727
  494MOL0     C66559   8.305   8.922   4.845  0.6072  0.4423  0.1047
  494MOL0     C66560   8.327   8.795   4.906  0.0307  1.0531  0.9303
  494MOL0     C66561   8.294   8.672   4.842 -0.7514 -0.1427 -0.7801
  494MOL0     C66562   8.218   8.669   4.722 -0.4300 -0.4314 -0.7098
  494MOL0     O66563   8.186   8.551   4.665  0.6598  0.8596 -0.4539
  494MOL0     C66564   8.230   8.422   4.713 -0.4051  0.2481 -0.2972
  494MOL0     C66565   8.143   8.310   4.649  0.4291  0.2462 -1.5231
  494MOL0     C66566   8.022   8.261   4.725  0.2868  0.0495 -0.4340
  494MOL0     C66567   7.889   8.315   4.673  0.3799  0.0449 -1.0164
  494MOL0     C66568   7.788   8.205   4.632 -0.4062 -0.7507  0.3640
  494MOL0     C66569   7.656   8.268   4.617 -0.7293  0.0721  0.2628
  494MOL0     C66570   7.565   8.156   4.558  0.1897  0.0305  0.6351
  494MOL0     C66571   7.417   8.199   4.536 -0.7235 -0.1426  0.9611
  494MOL0     N66572   7.372   8.136   4.407  0.7846  0.9403  0.0967
  494MOL0     C66573   7.348   8.004   4.401 -0.3492  0.0141  0.7447
  494MOL0     C66574   7.322   7.979   4.268 -0.5058 -0.3372 -0.2978
  494MOL0     C66575   7.277   7.850   4.199  0.5112  0.1808 -0.0420
  494MOL0     C66576   7.396   7.776   4.146 -0.0272  0.4916  0.2325
  494MOL0     C66577   7.486   7.849   4.040  0.2252  0.5279 -0.5699
  494MOL0     C66578   7.590   7.763   3.963 -0.4386 -0.0251  0.0547
  494MOL0     O66579   7.651   7.852   3.865 -0.1396 -0.5132  0.1910
  494MOL0     C66580   7.752   7.807   3.773  0.2286 -0.1306 -0.0302
  494MOL0     C66581   7.832   7.687   3.782 -1.0517 -0.1130 -0.5695
  494MOL0     C66582   7.937   7.663   3.689  1.3626  0.7939  0.3076
  494MOL0     C66583   8.001   7.533   3.702 -0.3042  0.1195 -0.7898
  494MOL0     C66584   7.949   7.744   3.577  0.1155  0.4544  0.3047
  494MOL0     C66585   8.037   7.710   3.457 -0.0227 -0.0945 -0.2259
  494MOL0     O66586   8.045   7.798   3.356 -0.2284  0.0546 -0.2540
  494MOL0     C66587   8.104   7.786   3.233 -0.5372 -0.7520 -0.5468
  494MOL0     C66588   8.167   7.904   3.182 -0.1305  1.1169 -0.2620
  494MOL0     C66589   8.216   7.905   3.057 -0.0638 -0.1221  0.6530
  494MOL0     C66590   8.211   7.788   2.977 -0.6931  0.4358 -0.0529
  494MOL0     O66591   8.284   7.796   2.854  0.1929  0.0793  0.8943
  494MOL0     C66592   8.316   7.682   2.783  0.9435  0.4892 -0.4026
  494MOL0     C66593   8.406   7.707   2.661  0.2219 -0.2539 -0.1052
  494MOL0     C66594   8.525   7.804   2.687  0.7976  0.4625 -0.4375
  494MOL0     C66595   8.636   7.813   2.569  0.0653  0.7753 -0.1513
  494MOL0     C66596   8.712   7.679   2.547  0.4076 -0.0774 -0.3889
  494MOL0     C66597   8.820   7.678   2.423 -0.2031 -0.0673  0.5307
  494MOL0     C66598   8.762   7.734   2.293 -0.0350  0.1029 -0.3283
  494MOL0     C66599   8.642   7.656   2.244  0.6267 -0.0070  0.0357
  494MOL0    Cl66600   8.692   7.487   2.203 -0.1159  0.1415  0.1013
  494MOL0     C66601   8.166   7.668   3.031  0.0439 -0.1194  0.0858
  494MOL0     C66602   8.101   7.672   3.153 -0.5162 -0.3075 -0.2581
  494MOL0     O66603   8.108   7.609   3.466 -0.3120  0.5020  0.6141
  494MOL0     C66604   7.880   7.863   3.576  1.2308 -0.2128 -0.1323
  494MOL0     C66605   7.786   7.892   3.675 -0.0813  0.3014  0.3711
  494MOL0     N66606   7.318   8.105   4.210  0.0147  0.1375 -0.2354
  494MOL0     N66607   7.363   8.197   4.287 -1.2950  0.0703 -0.0539
  494MOL0     C66608   8.200   8.792   4.656 -0.5084  0.1355  0.0145
  494MOL0     C66609   8.243   8.917   4.717  1.6391  0.8635 -0.2475
  494MOL0     C66610   8.498   9.200   4.989  0.2304 -0.2747 -0.3282
  494MOL0     C66611   8.531   9.120   5.101  0.3527  0.5799  0.0220
  494MOL0     C66612   8.619   9.176   5.194 -0.2783 -0.6043 -0.2200
  494MOL0     C66613   8.661   9.305   5.188  0.1090  0.0773  0.0821
  494MOL0     O66614   8.749   9.361   5.276 -0.3149  0.6061  0.1654
  494MOL0     C66615   8.859   9.273   5.314  0.2490  0.0926  0.2100
  494MOL0     C66616   8.986   9.362   5.341  0.4654 -0.3811 -0.0080
  494MOL0     C66617   8.968   9.450   5.464 -0.2277  0.7365  0.2075
  494MOL0     C66618   9.096   9.529   5.498 -0.4396  0.0893  0.2059
  494MOL0     C66619   9.152   9.620   5.386 -0.1399 -0.0447 -0.8733
  494MOL0     C66620   9.187   9.705   5.304 -1.3942  0.3247  0.3943
  494MOL0     C66621   8.624   9.383   5.082  0.2824 -0.2211  0.3960
  494MOL0     C66622   8.545   9.325   4.982  0.0478 -0.3158  0.5546
  494MOL0     H66623   8.361   8.788   5.009  4.9104 -3.2969 -0.5816
  494MOL0     H66624   8.316   8.590   4.909 -0.7106 -0.2116 -0.8783
  494MOL0     H66625   8.338   8.407   4.704 -0.2739 -0.9415  2.2494
  494MOL0     H66626   8.214   8.414   4.821 -1.2265 -1.1095 -0.4950
  494MOL0     H66627   8.120   8.335   4.545 -0.5189 -0.3723 -1.4758
  494MOL0     H66628   8.209   8.223   4.639  1.9829  1.3288 -1.0699
  494MOL0     H66629   8.029   8.154   4.706  2.6530  0.0202  0.2555
  494MOL0     H66630   8.034   8.281   4.832  0.0656  0.5305 -0.4971
  494MOL0     H66631   7.843   8.374   4.753  2.1101  2.1069 -1.4526
  494MOL0     H66632   7.920   8.374   4.587 -0.0960 -2.8321 -3.3199
  494MOL0     H66633   7.818   8.154   4.540  0.2430  1.7908 -0.9502
  494MOL0     H66634   7.782   8.139   4.718 -2.8824 -1.1479 -0.0458
  494MOL0     H66635   7.620   8.297   4.715 -1.1849 -1.0219  0.4382
  494MOL0     H66636   7.666   8.349   4.544 -1.1115 -0.3388 -0.2589
  494MOL0     H66637   7.613   8.132   4.462 -3.7407  0.2823 -1.6036
  494MOL0     H66638   7.570   8.073   4.629 -0.6494  0.5303  1.2921
  494MOL0     H66639   7.414   8.307   4.522  3.2496  0.3430  2.6554
  494MOL0     H66640   7.364   8.177   4.629 -0.6677 -0.2508  0.9674
  494MOL0     H66641   7.356   7.924   4.473 -0.0870 -0.7273 -0.0870
  494MOL0     H66642   7.230   7.789   4.276  1.8594 -1.3613 -0.3905
  494MOL0     H66643   7.193   7.877   4.134  0.6027  1.9853  0.5234
  494MOL0     H66644   7.350   7.680   4.119 -0.6959  1.5024 -2.6685
  494MOL0     H66645   7.458   7.767   4.235 -0.1273 -1.1405  0.1641
  494MOL0     H66646   7.543   7.925   4.095 -1.2901  1.6183 -0.4463
  494MOL0     H66647   7.424   7.887   3.959 -0.2483  0.5319 -0.2113
  494MOL0     H66648   7.544   7.675   3.917  1.3501 -1.5095  1.0045
  494MOL0     H66649   7.671   7.729   4.027 -1.8230  0.9194  2.4521
  494MOL0     H66650   7.825   7.628   3.872  1.0029  0.5135  0.0514
  494MOL0     H66651   7.945   7.458   3.645 -1.2284  0.9031 -0.9322
  494MOL0     H66652   8.109   7.527   3.681 -0.1557 -0.2599  0.0093
  494MOL0     H66653   8.006   7.518   3.811 -2.1949 -2.5730 -0.9692
  494MOL0     H66654   8.175   7.999   3.234  2.0950  0.1161  1.3535
  494MOL0     H66655   8.260   7.990   3.006 -3.0497  0.9005 -0.4273
  494MOL0     H66656   8.378   7.622   2.850  0.5959 -0.6280 -1.0549
  494MOL0     H66657   8.227   7.627   2.749 -1.2715  3.7920 -0.4275
  494MOL0     H66658   8.432   7.608   2.623  0.0512 -0.8595  1.3156
  494MOL0     H66659   8.337   7.747   2.585 -0.9401 -0.4368  0.8355
  494MOL0     H66660   8.582   7.767   2.773  1.4904  2.6216  0.1062
  494MOL0     H66661   8.489   7.907   2.690 -0.8358 -0.0576 -1.1451
  494MOL0     H66662   8.576   7.844   2.484  0.2960  1.3407 -0.1125
  494MOL0     H66663   8.707   7.895   2.586  3.7248 -2.0143 -0.6516
  494MOL0     H66664   8.634   7.605   2.531  0.2722  0.0074 -0.1104
  494MOL0     H66665   8.770   7.651   2.635  0.7061  1.4357 -0.0675
  494MOL0     H66666   8.898   7.745   2.460 -1.5984  1.0975  1.4911
  494MOL0     H66667   8.855   7.579   2.395 -2.0859 -0.3086 -1.1917
  494MOL0     H66668   8.840   7.720   2.218  1.8141  0.8955  1.3655
  494MOL0     H66669   8.747   7.840   2.317 -1.3323 -0.2418  0.5523
  494MOL0     H66670   8.615   7.701   2.148 -0.1986 -0.4036  0.0791
  494MOL0     H66671   8.565   7.661   2.322  1.2295  0.9501  0.5981
  494MOL0     H66672   8.174   7.570   2.985 -3.4691 -0.4738 -0.0371
  494MOL0     H66673   8.052   7.581   3.185 -0.8213 -0.0798 -0.0698
  494MOL0     H66674   7.904   7.928   3.492 -3.3479 -1.2530 -2.5945
  494MOL0     H66675   7.746   7.993   3.669 -0.7105  0.1159  1.3184
  494MOL0     H66676   8.162   8.791   4.554  0.7933 -3.3684 -0.6095
  494MOL0     H66677   8.226   9.009   4.662  1.5383  1.0492  0.0918
  494MOL0     H66678   8.506   9.019   5.131  0.6160  1.7112  4.9676
  494MOL0     H66679   8.655   9.116   5.278 -1.0149 -1.0966 -0.2517
  494MOL0     H66680   8.833   9.217   5.405  0.1964  0.6500  0.5424
  494MOL0     H66681   8.887   9.211   5.229  3.5676  0.0646  1.2002
  494MOL0     H66682   9.014   9.430   5.260 -0.9418  2.0066  1.3880
  494MOL0     H66683   9.069   9.291   5.353  0.8268  0.0501  0.0624
  494MOL0     H66684   8.941   9.383   5.545  0.7677 -0.7721 -0.6543
  494MOL0     H66685   8.883   9.515   5.443 -2.3924 -2.7405 -3.2763
  494MOL0     H66686   9.181   9.463   5.516  1.0092  1.4014 -1.4845
  494MOL0     H66687   9.082   9.587   5.590  3.0103  2.7927 -0.7669
  494MOL0     H66688   9.222   9.762   5.221 -0.0730 -0.1768  0.5752
  494MOL0     H66689   8.675   9.474   5.051 -0.4394 -0.2461 -0.9509
  494MOL0     H66690   8.539   9.367   4.882  0.9208 -3.0000 -0.7539
  495MOL0     O66691   5.133   8.791  11.308  0.0379  0.0736 -0.1437
  495MOL0     C66692   5.024   8.745  11.343 -0.7848  0.5283  0.8345
  495MOL0     O66693   4.923   8.720  11.257  0.3822  0.3100  0.5573
  495MOL0     C66694   4.955   8.743  11.112  0.7569 -0.6726 -0.8698
  495MOL0     C66695   4.964   8.881  11.066  0.2121 -0.2781 -0.1283
  495MOL0     C66696   4.989   8.902  10.934  0.2565 -0.9621  0.0213
  495MOL0     C66697   5.030   8.804  10.846  1.5408  0.0947  0.5587
  495MOL0     O66698   5.063   8.842  10.713  0.6085 -0.2939 -0.3745
  495MOL0     C66699   5.059   8.750  10.604  0.3351 -0.0041 -0.7641
  495MOL0     C66700   5.124   8.808  10.482 -0.2889 -0.5035 -0.3313
  495MOL0     C66701   5.089   8.745  10.347 -0.5239 -0.5661 -0.2907
  495MOL0     C66702   5.117   8.854  10.243 -0.6616  0.1352 -0.6686
  495MOL0     C66703   5.120   8.788  10.104  0.2796  0.6795 -0.2819
  495MOL0     C66704   5.236   8.687  10.068 -0.4604  0.2723  0.4682
  495MOL0     C66705   5.213   8.605   9.942 -0.3712 -0.4378 -0.6801
  495MOL0     C66706   5.351   8.553   9.890  0.2324  0.0955  0.6065
  495MOL0     N66707   5.350   8.447   9.783 -0.3144 -0.4237  0.3284
  495MOL0     C66708   5.343   8.475   9.650  0.3777  0.2789 -0.3591
  495MOL0     C66709   5.376   8.355   9.592  0.2324 -0.4710  0.1956
  495MOL0     C66710   5.351   8.332   9.444 -0.1551  0.5824  0.0367
  495MOL0     C66711   5.399   8.425   9.337 -0.1747 -0.7603 -0.5358
  495MOL0     C66712   5.554   8.466   9.334  0.8507 -0.6130 -0.4807
  495MOL0     C66713   5.582   8.597   9.253 -0.6679  0.5725 -0.4634
  495MOL0     O66714   5.715   8.626   9.294 -0.6069 -0.0987  0.0176
  495MOL0     C66715   5.757   8.734   9.225  0.2560  0.5008 -0.2761
  495MOL0     C66716   5.704   8.862   9.236  0.2408 -1.0524  0.0532
  495MOL0     C66717   5.751   8.972   9.154 -0.6013 -0.6395  0.2428
  495MOL0     C66718   5.682   9.113   9.162 -0.5765  1.0332  0.3817
  495MOL0     C66719   5.863   8.943   9.067  0.7203 -0.4703  0.2515
  495MOL0     C66720   5.914   9.044   8.970  0.6260 -0.4577  0.6115
  495MOL0     O66721   5.966   8.997   8.852 -0.3524  0.3055 -0.3567
  495MOL0     C66722   5.999   9.081   8.751  0.4659 -0.9493  0.2943
  495MOL0     C66723   5.949   9.053   8.625  0.3905  0.0152  0.7698
  495MOL0     C66724   5.978   9.133   8.510  0.1741 -0.7309 -0.4481
  495MOL0     C66725   6.045   9.255   8.528 -0.0158 -0.1388  0.1965
  495MOL0     O66726   6.069   9.338   8.420 -0.0720 -0.4494 -0.4438
  495MOL0     C66727   6.083   9.287   8.290 -0.7620 -0.2207 -0.5410
  495MOL0     C66728   5.944   9.327   8.224 -0.5007 -0.1469 -0.4920
  495MOL0     C66729   5.923   9.481   8.235  0.2717  0.1511 -0.2610
  495MOL0     C66730   5.793   9.499   8.159  0.5851  0.0510 -0.4605
  495MOL0     C66731   5.748   9.649   8.159 -0.3314  0.0557 -0.5535
  495MOL0     C66732   5.623   9.676   8.085 -0.2023  0.0360  0.4581
  495MOL0     C66733   5.578   9.832   8.065  0.3628 -0.0612  0.0178
  495MOL0     C66734   5.441   9.854   8.008 -0.0787  0.1412 -0.0198
  495MOL0    Cl66735   5.304   9.777   8.096 -0.0841  0.0075 -0.5660
  495MOL0     C66736   6.089   9.287   8.659 -0.0412  0.8466 -0.6198
  495MOL0     C66737   6.067   9.203   8.769  0.1638 -1.0028 -0.0196
  495MOL0     O66738   5.914   9.161   9.009  0.0153  0.2433  0.4485
  495MOL0     C66739   5.911   8.808   9.059  0.2653 -0.2118  0.2304
  495MOL0     C66740   5.851   8.705   9.134 -0.0557 -0.2257  0.3080
  495MOL0     N66741   5.405   8.256   9.684 -0.4567 -0.0528 -0.9551
  495MOL0     N66742   5.389   8.318   9.792  0.7372 -0.1348 -0.2659
  495MOL0     C66743   5.024   8.670  10.891  0.7362 -1.0014  0.1184
  495MOL0     C66744   4.981   8.637  11.018  0.5006 -0.5831 -0.7405
  495MOL0     C66745   5.010   8.709  11.483 -0.1433 -0.0204 -0.1529
  495MOL0     C66746   5.120   8.700  11.565 -0.8585 -0.0787  0.2643
  495MOL0     C66747   5.111   8.651  11.694 -0.3181 -0.5911 -0.5274
  495MOL0     C66748   4.985   8.627  11.753 -0.0464 -0.5756 -0.2419
  495MOL0     O66749   4.977   8.586  11.884  0.3156 -0.3278  0.2480
  495MOL0     C66750   4.863   8.628  11.970 -0.1798 -0.2838 -0.1321
  495MOL0     C66751   4.863   8.780  12.023  0.6010  0.2254  1.0608
  495MOL0     C66752   5.003   8.817  12.058 -0.4615 -0.1020  0.5976
  495MOL0     C66753   5.081   8.731  12.163 -0.8694  0.2962  0.6563
  495MOL0     C66754   5.015   8.731  12.290  0.8351 -0.2985 -0.0067
  495MOL0     C66755   4.968   8.743  12.393 -0.3458  0.0251  0.3587
  495MOL0     C66756   4.870   8.644  11.674  0.7275  0.0392 -0.1831
  495MOL0     C66757   4.888   8.685  11.543  0.4205 -0.2967  0.3030
  495MOL0     H66758   4.948   8.957  11.141 -0.5159 -2.8927  2.5784
  495MOL0     H66759   4.976   9.008  10.915 -0.8786 -0.1184  4.3250
  495MOL0     H66760   5.080   8.644  10.621 -0.5774 -0.5632 -2.7491
  495MOL0     H66761   4.952   8.743  10.580  0.0219 -1.6364  0.8901
  495MOL0     H66762   5.093   8.913  10.485  2.1139  0.3282 -1.9944
  495MOL0     H66763   5.233   8.801  10.494  0.0596  2.8607 -0.3163
  495MOL0     H66764   5.137   8.654  10.310  1.4168  0.0304  0.6360
  495MOL0     H66765   4.980   8.733  10.340 -0.7319  0.7573  0.5036
  495MOL0     H66766   5.040   8.931  10.240 -0.8997 -0.0856 -0.2875
  495MOL0     H66767   5.217   8.898  10.256 -1.2690  1.4836 -0.4064
  495MOL0     H66768   5.035   8.725  10.077  2.6411 -1.3083 -3.8772
  495MOL0     H66769   5.117   8.874  10.037  1.3526  1.1590  0.2569
  495MOL0     H66770   5.327   8.746  10.052  1.0365 -2.2536 -0.8772
  495MOL0     H66771   5.258   8.616  10.148  0.3032  1.7674  1.6229
  495MOL0     H66772   5.141   8.526   9.965 -0.8034  0.1670  0.0768
  495MOL0     H66773   5.168   8.669   9.865 -3.2039  0.9973  1.9753
  495MOL0     H66774   5.408   8.497   9.964  0.8177 -0.2318 -0.0749
  495MOL0     H66775   5.407   8.640   9.854 -0.1662 -0.5329 -1.6879
  495MOL0     H66776   5.306   8.564   9.602 -3.5338 -1.5519 -1.0935
  495MOL0     H66777   5.393   8.234   9.418  0.4698  0.0931  2.6297
  495MOL0     H66778   5.243   8.319   9.429 -0.0003  0.9347 -1.4812
  495MOL0     H66779   5.347   8.521   9.348  2.3155  0.5864  0.1777
  495MOL0     H66780   5.368   8.385   9.240  0.9941  2.4506 -2.3729
  495MOL0     H66781   5.620   8.389   9.294  0.1546 -0.7081 -1.4566
  495MOL0     H66782   5.590   8.498   9.433 -0.0906  1.0230 -0.6377
  495MOL0     H66783   5.510   8.676   9.278  0.2986  2.8467 -4.1089
  495MOL0     H66784   5.570   8.578   9.146 -1.9011 -2.8931  0.1631
  495MOL0     H66785   5.623   8.891   9.303  0.2569  2.5450 -1.2578
  495MOL0     H66786   5.633   9.113   9.064  0.2017 -0.8055 -0.0285
  495MOL0     H66787   5.604   9.112   9.239  0.8564 -2.6469  1.9740
  495MOL0     H66788   5.747   9.198   9.185 -1.4824  1.9641 -0.3654
  495MOL0     H66789   5.894   8.960   8.613  1.6913 -0.5271 -1.8707
  495MOL0     H66790   5.941   9.105   8.412 -0.7232 -0.4283 -0.2083
  495MOL0     H66791   6.162   9.349   8.246 -2.1480  3.4517  1.6910
  495MOL0     H66792   6.108   9.181   8.285 -0.3043 -0.1491  0.1556
  495MOL0     H66793   5.945   9.293   8.120 -0.3235 -0.5652 -0.3538
  495MOL0     H66794   5.857   9.280   8.271 -0.9692 -2.4191 -3.3385
  495MOL0     H66795   6.003   9.544   8.193  0.0698  0.4648 -0.1826
  495MOL0     H66796   5.924   9.533   8.331  0.9468  1.5226 -0.9661
  495MOL0     H66797   5.806   9.469   8.055  1.0334  1.7055 -0.9226
  495MOL0     H66798   5.708   9.451   8.208  0.7133 -1.2155 -1.4269
  495MOL0     H66799   5.826   9.706   8.109  0.8001 -0.2564  0.7837
  495MOL0     H66800   5.745   9.686   8.262 -2.5782 -1.8778  0.1706
  495MOL0     H66801   5.630   9.646   7.980 -2.4126  2.4837 -0.4890
  495MOL0     H66802   5.541   9.616   8.126  1.8870 -2.7669  0.8941
  495MOL0     H66803   5.654   9.868   7.995 -0.8633  2.4724 -0.1250
  495MOL0     H66804   5.588   9.888   8.159  0.0230  3.7722 -2.0382
  495MOL0     H66805   5.440   9.808   7.909 -2.4227 -0.1449  0.0719
  495MOL0     H66806   5.417   9.960   7.997  1.0209  0.3057 -1.0600
  495MOL0     H66807   6.138   9.381   8.682  3.3323 -0.4289 -1.9763
  495MOL0     H66808   6.105   9.221   8.869 -1.4468 -1.6037  0.7343
  495MOL0     H66809   5.990   8.781   8.990 -0.2363 -0.3840 -0.2829
  495MOL0     H66810   5.871   8.599   9.123  0.9742 -0.0068 -0.0219
  495MOL0     H66811   5.057   8.584  10.835 -1.7181 -2.5056  0.8368
  495MOL0     H66812   4.978   8.532  11.046 -0.0805 -0.3096  0.3012
  495MOL0     H66813   5.217   8.726  11.524 -0.6846  0.2623  0.8867
  495MOL0     H66814   5.205   8.663  11.748  0.1542 -2.5923 -0.8046
  495MOL0     H66815   4.763   8.607  11.930 -1.4601  2.0938  1.5949
  495MOL0     H66816   4.854   8.567  12.061 -1.2996 -0.8840 -0.6225
  495MOL0     H66817   4.788   8.786  12.102  1.3674  1.8807  1.7218
  495MOL0     H66818   4.837   8.846  11.940  1.7488  0.9130  1.2144
  495MOL0     H66819   5.004   8.922  12.088  1.8427 -0.0355  0.4703
  495MOL0     H66820   5.063   8.797  11.969 -0.5181  0.3715  0.4487
  495MOL0     H66821   5.175   8.777  12.195 -0.4265 -0.7931  0.9669
  495MOL0     H66822   5.100   8.632  12.120 -2.9891  0.1695 -0.1519
  495MOL0     H66823   4.921   8.757  12.489 -1.4440  0.7951 -0.2698
  495MOL0     H66824   4.771   8.617  11.709  0.1436  2.0403 -0.2116
  495MOL0     H66825   4.796   8.689  11.485 -2.0033  0.2997  3.8667
  496MOL0     O66826   2.891   0.157   2.054 -0.2131 -0.4651  0.3138
  496MOL0     C66827   2.865   0.144   2.171 -0.9612  0.0227 -0.5760
  496MOL0     O66828   2.814   0.037   2.234  0.2818  1.2072 -0.7247
  496MOL0     C66829   2.757  -0.067   2.163  0.5529  0.1172  0.1480
  496MOL0     C66830   2.691  -0.054   2.041 -0.6259  0.3404 -0.8391
  496MOL0     C66831   2.634  -0.160   1.983  0.9509  0.2349  0.7264
  496MOL0     C66832   2.635  -0.288   2.029  0.3250  0.9908  0.4924
  496MOL0     O66833   2.579  -0.390   1.956  0.3951 -0.1188 -0.2154
  496MOL0     C66834   2.589  -0.385   1.813  0.4659  0.5388  1.0838
  496MOL0     C66835   2.542  -0.521   1.749  0.1914  0.3681  0.4129
  496MOL0     C66836   2.395  -0.555   1.776 -0.3068  0.1607 -0.0781
  496MOL0     C66837   2.350  -0.692   1.719  0.4913  0.2365 -0.3563
  496MOL0     C66838   2.206  -0.715   1.770  0.4351  0.4250 -0.0996
  496MOL0     C66839   2.158  -0.701   1.916 -0.1416  0.3027  1.0119
  496MOL0     C66840   2.260  -0.756   2.014 -0.1035  0.1012  0.6037
  496MOL0     C66841   2.208  -0.838   2.126  0.2647  0.4023 -0.1760
  496MOL0     N66842   2.170  -0.738   2.233  0.6763 -0.0494 -0.1073
  496MOL0     C66843   2.251  -0.669   2.317 -0.1566  0.0285 -0.7520
  496MOL0     C66844   2.169  -0.572   2.364 -0.2704 -0.5198 -0.0009
  496MOL0     C66845   2.196  -0.448   2.441 -1.0390  0.1194 -1.2100
  496MOL0     C66846   2.101  -0.331   2.401 -0.2758  0.1018 -0.3988
  496MOL0     C66847   2.135  -0.270   2.257 -0.8575  0.7420 -0.8862
  496MOL0     C66848   2.295  -0.256   2.217 -0.1454 -0.0686  0.0686
  496MOL0     O66849   2.304  -0.120   2.167 -0.3243  0.1980  0.0210
  496MOL0     C66850   2.303  -0.099   2.035 -0.3047  0.7951  0.4280
  496MOL0     C66851   2.349   0.018   1.992  0.6289 -1.0539 -0.2084
  496MOL0     C66852   2.338   0.059   1.856 -0.6299 -0.0732  0.0070
  496MOL0     C66853   2.395   0.191   1.822 -0.3741  0.3505  0.5237
  496MOL0     C66854   2.292  -0.034   1.757 -0.7147 -0.3751 -0.5793
  496MOL0     C66855   2.261  -0.008   1.616 -0.3262 -0.1634  0.4108
  496MOL0     O66856   2.214  -0.108   1.545  0.6995 -0.1592  0.2662
  496MOL0     C66857   2.199  -0.088   1.408  0.3169 -0.4171  1.2182
  496MOL0     C66858   2.300  -0.094   1.309 -0.4724 -0.2096 -0.7958
  496MOL0     C66859   2.266  -0.046   1.181  0.5791 -0.8063  0.2500
  496MOL0     C66860   2.135  -0.006   1.146 -0.5046 -0.5978 -0.6572
  496MOL0     O66861   2.131   0.054   1.025  0.0941  0.2528 -0.1636
  496MOL0     C66862   2.185   0.185   1.033 -0.5218  0.8895 -0.7184
  496MOL0     C66863   2.104   0.269   0.945 -0.0506 -0.1021 -0.0739
  496MOL0     C66864   1.960   0.299   0.989  0.0363 -0.1412  0.9646
  496MOL0     C66865   1.870   0.334   0.865  0.8304  0.6497 -0.7501
  496MOL0     C66866   1.732   0.386   0.900  1.0469  0.6867  0.3857
  496MOL0     C66867   1.729   0.535   0.952 -1.0259 -0.1090  1.0446
  496MOL0     C66868   1.577   0.577   0.964 -0.0686 -0.0833 -0.1691
  496MOL0     C66869   1.558   0.723   0.898 -0.7395  0.4107  0.7543
  496MOL0    Cl66870   1.395   0.780   0.894 -0.3562  0.2876  0.1358
  496MOL0     C66871   2.032  -0.011   1.234 -0.6229  0.0890  0.2612
  496MOL0     C66872   2.064  -0.053   1.363  0.2938 -0.5517 -0.1868
  496MOL0     O66873   2.258   0.113   1.584  0.2811  0.5027 -0.6186
  496MOL0     C66874   2.260  -0.171   1.803  0.4535 -0.4262  0.9890
  496MOL0     C66875   2.263  -0.201   1.942  0.0269  0.1930  1.0521
  496MOL0     N66876   2.036  -0.601   2.336 -0.2246  0.3742  0.4266
  496MOL0     N66877   2.036  -0.703   2.258  0.2722 -0.4725  0.1180
  496MOL0     C66878   2.700  -0.307   2.151  0.6152 -0.1750 -0.8903
  496MOL0     C66879   2.759  -0.201   2.215  0.4202 -0.0167 -0.2135
  496MOL0     C66880   2.894   0.267   2.258  0.3396 -0.2941  0.0795
  496MOL0     C66881   2.896   0.398   2.207 -0.1818 -0.4425  0.1358
  496MOL0     C66882   2.918   0.509   2.291  0.5019  0.1566  0.1946
  496MOL0     C66883   2.938   0.488   2.424  0.4672 -0.0954  0.1220
  496MOL0     O66884   2.937   0.601   2.503  0.1172 -0.0303 -1.0517
  496MOL0     C66885   2.851   0.602   2.616 -0.4835  0.1916  0.4007
  496MOL0     C66886   2.913   0.570   2.756 -0.4286 -0.8429 -0.6520
  496MOL0     C66887   3.019   0.669   2.795  0.3614 -0.2711 -0.1321
  496MOL0     C66888   3.040   0.673   2.948 -0.6930  0.2475  0.4730
  496MOL0     C66889   3.145   0.759   3.003 -0.5096  0.9549 -0.2396
  496MOL0     C66890   3.247   0.813   3.055  0.4569 -0.5283  0.2613
  496MOL0     C66891   2.939   0.358   2.472 -1.3867 -0.5351 -0.6168
  496MOL0     C66892   2.919   0.250   2.394 -0.1244  0.1832  0.3408
  496MOL0     H66893   2.686   0.037   1.981 -1.6055 -1.5142 -3.8181
  496MOL0     H66894   2.573  -0.135   1.897  2.7287 -0.6406 -0.8532
  496MOL0     H66895   2.534  -0.298   1.775 -0.6554  0.5641  2.6854
  496MOL0     H66896   2.697  -0.375   1.795  0.6533 -1.8298  0.5702
  496MOL0     H66897   2.570  -0.523   1.643 -1.9523 -1.5060 -0.2031
  496MOL0     H66898   2.599  -0.607   1.786  2.0092  1.0269 -0.6911
  496MOL0     H66899   2.364  -0.537   1.880  0.9088  4.4783 -0.2537
  496MOL0     H66900   2.344  -0.472   1.726 -3.0460 -1.4956 -0.2529
  496MOL0     H66901   2.337  -0.684   1.611 -0.0597  0.1429 -0.3014
  496MOL0     H66902   2.403  -0.778   1.760  0.0075 -0.0003 -0.2134
  496MOL0     H66903   2.151  -0.646   1.706 -1.4135 -0.9368 -0.0742
  496MOL0     H66904   2.177  -0.812   1.730  1.1236  1.3176 -3.0241
  496MOL0     H66905   2.149  -0.597   1.949 -1.9595  0.4068  0.2726
  496MOL0     H66906   2.053  -0.727   1.925 -1.9376  4.8115 -2.8738
  496MOL0     H66907   2.312  -0.829   1.951 -2.2236  0.1379 -1.2911
  496MOL0     H66908   2.330  -0.687   2.062  0.9292 -1.9465  2.2102
  496MOL0     H66909   2.283  -0.905   2.169 -1.1582 -1.2780 -0.1531
  496MOL0     H66910   2.117  -0.897   2.108  0.6638  0.2463 -1.8094
  496MOL0     H66911   2.359  -0.677   2.322 -0.2363 -4.5802 -1.7998
  496MOL0     H66912   2.186  -0.484   2.544  2.1420  0.1232 -0.8115
  496MOL0     H66913   2.298  -0.409   2.435 -0.6006 -0.8214 -0.2766
  496MOL0     H66914   2.120  -0.247   2.468 -1.0923  2.1570 -2.6146
  496MOL0     H66915   1.993  -0.349   2.403 -0.8166  2.9258  2.1790
  496MOL0     H66916   2.089  -0.171   2.250 -0.9895  0.8807  1.3017
  496MOL0     H66917   2.090  -0.327   2.175 -3.1451 -0.5112  1.1327
  496MOL0     H66918   2.330  -0.332   2.147 -0.0773  1.8023 -2.0323
  496MOL0     H66919   2.362  -0.272   2.302  0.1988 -2.4043 -0.5822
  496MOL0     H66920   2.393   0.081   2.069 -1.0414  1.4293 -1.1485
  496MOL0     H66921   2.328   0.267   1.780  2.3305  3.4153  1.3137
  496MOL0     H66922   2.445   0.239   1.907 -0.3030  0.0395  0.6564
  496MOL0     H66923   2.476   0.176   1.750 -1.7187  1.7774 -1.3791
  496MOL0     H66924   2.397  -0.125   1.348 -2.2392 -3.5665  1.5167
  496MOL0     H66925   2.344  -0.037   1.107 -1.3831 -0.4930 -1.8979
  496MOL0     H66926   2.197   0.210   1.139  0.8371 -0.4222 -0.5221
  496MOL0     H66927   2.284   0.179   0.987 -0.9048  0.4380 -1.5078
  496MOL0     H66928   2.160   0.360   0.924  0.6332 -0.5715 -0.3066
  496MOL0     H66929   2.094   0.215   0.851  0.9747 -1.9081  0.7843
  496MOL0     H66930   1.948   0.385   1.055 -0.0468  2.0856 -1.7702
  496MOL0     H66931   1.912   0.208   1.027  1.8089 -1.1171  0.9854
  496MOL0     H66932   1.925   0.404   0.802  0.7701  2.1523  0.8006
  496MOL0     H66933   1.865   0.244   0.803  1.0561  0.4837 -0.5280
  496MOL0     H66934   1.692   0.331   0.985  0.7968  2.5658  1.5551
  496MOL0     H66935   1.677   0.348   0.813  4.7643 -4.0169 -0.3255
  496MOL0     H66936   1.778   0.544   1.049  0.7910 -0.7261  0.2412
  496MOL0     H66937   1.784   0.599   0.882  2.5358 -1.3245  2.4748
  496MOL0     H66938   1.548   0.574   1.070  0.9167  1.4380  0.1784
  496MOL0     H66939   1.512   0.503   0.918 -2.1671 -0.2802  2.7929
  496MOL0     H66940   1.597   0.714   0.796  1.2750  0.3220  1.4789
  496MOL0     H66941   1.618   0.798   0.949 -0.5810  1.9921 -1.6225
  496MOL0     H66942   1.933   0.021   1.206  0.4856  1.6581 -2.1573
  496MOL0     H66943   1.983  -0.067   1.434 -0.8860  0.6580 -1.2502
  496MOL0     H66944   2.221  -0.256   1.748 -1.9881  0.3630  1.3652
  496MOL0     H66945   2.231  -0.301   1.969 -0.7300  0.6680  1.9563
  496MOL0     H66946   2.690  -0.398   2.208 -2.5229  0.5768 -0.0543
  496MOL0     H66947   2.817  -0.231   2.302 -1.1999 -0.9501  0.5999
  496MOL0     H66948   2.885   0.409   2.099  3.5521 -1.7952 -0.4944
  496MOL0     H66949   2.918   0.613   2.263 -0.0136  0.7286  2.1622
  496MOL0     H66950   2.788   0.691   2.606 -2.1363 -1.0976 -1.0369
  496MOL0     H66951   2.786   0.517   2.598  1.0117 -0.9520  0.1949
  496MOL0     H66952   2.955   0.469   2.758 -2.3764 -1.9448 -4.9999
  496MOL0     H66953   2.835   0.558   2.832  0.7374 -1.4112  0.5040
  496MOL0     H66954   2.981   0.763   2.754 -0.5361  0.2840  1.8270
  496MOL0     H66955   3.115   0.641   2.751 -0.4599 -1.2081 -1.4024
  496MOL0     H66956   3.052   0.573   2.990 -0.9968  0.2833  0.6478
  496MOL0     H66957   2.944   0.707   2.988 -1.6506 -0.9361 -0.6936
  496MOL0     H66958   3.327   0.857   3.110  0.3636 -0.5482  0.4134
  496MOL0     H66959   2.962   0.348   2.578  0.5708 -1.7622 -1.0997
  496MOL0     H66960   2.925   0.152   2.442 -3.6155  0.8022  2.3992
  497MOL0     O66961   0.063   5.136   6.165  0.1061  0.0371  0.1363
  497MOL0     C66962   0.048   5.041   6.242 -0.0498  0.1480  0.5465
  497MOL0     O66963  -0.060   4.950   6.251 -0.3710 -0.1846  0.3678
  497MOL0     C66964  -0.178   4.981   6.188 -0.4202 -1.2309 -0.6214
  497MOL0     C66965  -0.223   4.905   6.081 -0.2520 -0.4983 -0.0988
  497MOL0     C66966  -0.344   4.939   6.022  0.0297  0.2903  0.1148
  497MOL0     C66967  -0.435   5.030   6.088 -0.0974  0.6750  1.2094
  497MOL0     O66968  -0.564   5.039   6.028 -0.5409 -0.9610 -0.3665
  497MOL0     C66969  -0.641   5.156   6.082 -0.0390 -0.3319 -0.4844
  497MOL0     C66970  -0.748   5.205   5.992  0.8622 -0.7133 -1.1160
  497MOL0     C66971  -0.718   5.202   5.845  1.0224 -0.0504 -0.3794
  497MOL0     C66972  -0.617   5.310   5.796 -0.2839 -0.3794 -0.1303
  497MOL0     C66973  -0.591   5.295   5.648 -0.9149  0.4377  0.2775
  497MOL0     C66974  -0.449   5.333   5.596 -0.8958 -0.2974 -0.1742
  497MOL0     C66975  -0.428   5.485   5.587 -0.1546  0.4565 -0.3484
  497MOL0     C66976  -0.282   5.512   5.543  1.1269  0.4290  0.3950
  497MOL0     N66977  -0.274   5.657   5.506  1.5266 -0.0014 -0.2657
  497MOL0     C66978  -0.360   5.765   5.533  0.3479  0.1127  0.7032
  497MOL0     C66979  -0.299   5.873   5.478 -0.4003 -0.2152 -0.2336
  497MOL0     C66980  -0.358   6.011   5.474  0.7518  1.2157 -0.0738
  497MOL0     C66981  -0.253   6.126   5.478 -0.0904  0.0578  0.0193
  497MOL0     C66982  -0.275   6.232   5.593  0.5680 -0.9709  0.2021
  497MOL0     C66983  -0.245   6.178   5.731  0.4873  0.0539 -0.2139
  497MOL0     O66984  -0.193   6.270   5.819  0.1830 -0.2643  0.3409
  497MOL0     C66985  -0.267   6.378   5.860  1.3500  0.2178  0.8071
  497MOL0     C66986  -0.403   6.400   5.831  0.4371 -1.0532  0.2521
  497MOL0     C66987  -0.479   6.520   5.871 -0.7141 -0.3956  0.3231
  497MOL0     C66988  -0.624   6.525   5.822 -1.1496 -0.4369  0.5236
  497MOL0     C66989  -0.416   6.618   5.946  0.3550 -0.0475 -0.4891
  497MOL0     C66990  -0.478   6.742   6.008  0.0126  0.2898  0.1424
  497MOL0     O66991  -0.404   6.812   6.103 -0.1784 -0.2191 -0.2144
  497MOL0     C66992  -0.465   6.920   6.160 -0.1343  0.6044  0.3987
  497MOL0     C66993  -0.529   6.903   6.281 -0.3150 -0.1960 -0.7438
  497MOL0     C66994  -0.568   7.007   6.353  0.5875 -1.5496  0.0163
  497MOL0     C66995  -0.541   7.145   6.312  0.4427 -0.1512 -0.4629
  497MOL0     O66996  -0.576   7.257   6.390 -0.1872  0.0385 -0.1919
  497MOL0     C66997  -0.614   7.247   6.521 -0.5699 -0.8019 -0.1958
  497MOL0     C66998  -0.609   7.395   6.564 -0.0997 -0.2620 -0.9335
  497MOL0     C66999  -0.637   7.418   6.718 -0.5110  0.1559  0.8523
  497MOL0     C67000  -0.756   7.347   6.766  0.7158  0.3233 -0.6864
  497MOL0     C67001  -0.815   7.407   6.900 -0.2520 -0.4893 -0.7087
  497MOL0     C67002  -0.948   7.345   6.932 -0.2299  0.5062 -0.1252
  497MOL0     C67003  -1.003   7.404   7.068 -0.0989 -0.5745 -0.2979
  497MOL0     C67004  -1.142   7.348   7.100  0.2500  0.3661 -0.8565
  497MOL0    Cl67005  -1.283   7.428   7.028  0.5432 -0.1558  0.0190
  497MOL0     C67006  -0.493   7.158   6.186  0.1962  0.0808 -0.3033
  497MOL0     C67007  -0.454   7.045   6.104 -0.0729 -0.6176 -0.2280
  497MOL0     O67008  -0.596   6.774   5.974  0.7034 -0.6173  0.4426
  497MOL0     C67009  -0.286   6.592   5.986 -0.4653  0.4448 -0.0624
  497MOL0     C67010  -0.210   6.476   5.936 -0.3630 -0.0911 -0.7501
  497MOL0     N67011  -0.193   5.830   5.399  0.0938  0.8340  0.2027
  497MOL0     N67012  -0.181   5.704   5.428  0.0482 -0.1607 -0.8577
  497MOL0     C67013  -0.404   5.089   6.204 -0.4142  0.4504  0.1074
  497MOL0     C67014  -0.272   5.068   6.247  0.1431 -0.0369 -0.2556
  497MOL0     C67015   0.180   4.997   6.311  0.0895  0.2365 -0.6900
  497MOL0     C67016   0.172   4.913   6.429 -0.1423  0.7669 -0.6221
  497MOL0     C67017   0.284   4.871   6.501 -0.0179 -0.7830 -0.2211
  497MOL0     C67018   0.410   4.925   6.469 -0.3675 -0.6646 -0.4936
  497MOL0     O67019   0.511   4.889   6.559  0.2384 -0.1036 -0.0630
  497MOL0     C67020   0.653   4.924   6.529  0.7588  0.1940 -0.6385
  497MOL0     C67021   0.760   4.839   6.596  0.1085  0.1934  0.4221
  497MOL0     C67022   0.763   4.696   6.537  0.7266  0.0477  0.2530
  497MOL0     C67023   0.796   4.588   6.632  0.0636  0.5900  0.3648
  497MOL0     C67024   0.825   4.463   6.560 -0.0858  1.4625  0.0977
  497MOL0     C67025   0.866   4.363   6.519 -0.3209  0.6871  0.5055
  497MOL0     C67026   0.423   5.015   6.366  0.1597  0.1687 -0.1644
  497MOL0     C67027   0.309   5.045   6.281 -0.7365 -0.0134  0.1272
  497MOL0     H67028  -0.155   4.832   6.038  0.9643  0.7892 -0.4793
  497MOL0     H67029  -0.377   4.888   5.932 -1.0920 -0.0515  0.6983
  497MOL0     H67030  -0.680   5.133   6.181  2.3772  0.6026  0.7701
  497MOL0     H67031  -0.569   5.238   6.087  0.7708 -1.1167  2.4413
  497MOL0     H67032  -0.834   5.143   6.019  0.0344  1.0059  0.3841
  497MOL0     H67033  -0.776   5.308   6.015  2.6904 -0.4825  0.3627
  497MOL0     H67034  -0.690   5.101   5.814 -1.5658 -1.2385  0.8886
  497MOL0     H67035  -0.813   5.214   5.792  2.5756 -0.2072 -3.4374
  497MOL0     H67036  -0.661   5.410   5.804 -0.0226 -0.0413 -2.3711
  497MOL0     H67037  -0.522   5.308   5.851 -0.2045 -1.1336 -0.2926
  497MOL0     H67038  -0.601   5.190   5.620  2.9232  0.2077 -0.8667
  497MOL0     H67039  -0.670   5.346   5.593 -1.0763  3.4063  2.9606
  497MOL0     H67040  -0.373   5.290   5.662 -2.0768  0.0561  1.4925
  497MOL0     H67041  -0.440   5.296   5.494  0.9919  1.1134 -0.5649
  497MOL0     H67042  -0.507   5.504   5.514 -3.6989 -2.8244  2.2396
  497MOL0     H67043  -0.458   5.537   5.678 -0.0557 -0.7785  0.4138
  497MOL0     H67044  -0.260   5.449   5.456 -1.5845  1.7226 -1.3352
  497MOL0     H67045  -0.222   5.481   5.629 -2.1518 -3.0546  1.7289
  497MOL0     H67046  -0.463   5.771   5.568 -0.0332 -2.1403  0.1657
  497MOL0     H67047  -0.422   6.019   5.385  0.4998 -0.8437 -0.1275
  497MOL0     H67048  -0.424   6.011   5.561 -1.9526 -0.2240 -1.9552
  497MOL0     H67049  -0.273   6.175   5.382 -3.0559 -2.3905 -0.7652
  497MOL0     H67050  -0.148   6.099   5.490 -0.2871 -1.0302 -0.6221
  497MOL0     H67051  -0.375   6.276   5.584  2.5335  3.7395 -1.8687
  497MOL0     H67052  -0.209   6.319   5.593 -2.2850  1.3914  1.8722
  497MOL0     H67053  -0.166   6.104   5.714  1.0883  0.6110  0.1213
  497MOL0     H67054  -0.331   6.119   5.767  1.9931 -0.6204  2.5825
  497MOL0     H67055  -0.457   6.327   5.771  0.5992 -0.2605 -0.9020
  497MOL0     H67056  -0.654   6.424   5.790 -1.3990 -0.3787  0.5705
  497MOL0     H67057  -0.696   6.553   5.899  0.9284  2.0730  1.6908
  497MOL0     H67058  -0.632   6.592   5.736  1.5230  2.0645  2.0386
  497MOL0     H67059  -0.549   6.799   6.306 -1.4916  0.2174  0.1129
  497MOL0     H67060  -0.615   6.986   6.449 -0.7035  1.9460  0.2812
  497MOL0     H67061  -0.710   7.202   6.545 -0.6958  0.1196  1.1336
  497MOL0     H67062  -0.536   7.191   6.573  1.8530  1.9420 -0.5989
  497MOL0     H67063  -0.515   7.445   6.542 -1.1763  1.6590 -1.3974
  497MOL0     H67064  -0.694   7.442   6.514 -0.5912 -2.0058 -1.8063
  497MOL0     H67065  -0.647   7.526   6.729  1.5656  0.7469 -1.9145
  497MOL0     H67066  -0.554   7.386   6.783 -0.0844 -3.3783 -1.1412
  497MOL0     H67067  -0.834   7.350   6.690  2.2083  0.6140 -2.2787
  497MOL0     H67068  -0.728   7.243   6.785  2.1852  1.0277  1.3239
  497MOL0     H67069  -0.827   7.510   6.867  0.8969  0.7197  2.2139
  497MOL0     H67070  -0.754   7.416   6.991 -2.6109  0.4117  0.8817
  497MOL0     H67071  -1.022   7.366   6.855 -0.4867 -2.0537 -0.6576
  497MOL0     H67072  -0.926   7.240   6.953  0.2991  1.0633  2.5603
  497MOL0     H67073  -1.013   7.513   7.060 -0.4736 -0.6755 -1.3208
  497MOL0     H67074  -0.938   7.389   7.155 -0.4825  3.8943  1.0534
  497MOL0     H67075  -1.146   7.348   7.209  1.7320  0.2321 -0.7745
  497MOL0     H67076  -1.149   7.243   7.069 -2.3502  0.8820 -2.3412
  497MOL0     H67077  -0.478   7.263   6.166  0.2944  0.5803  2.1169
  497MOL0     H67078  -0.404   7.060   6.010  1.0882 -0.2428  0.4305
  497MOL0     H67079  -0.237   6.653   6.061  1.4369 -0.1795 -0.7214
  497MOL0     H67080  -0.107   6.458   5.965 -0.2956 -0.6373 -1.3273
  497MOL0     H67081  -0.467   5.158   6.259  0.7880  0.4197  1.5822
  497MOL0     H67082  -0.238   5.116   6.338  2.9369  1.7050 -2.0434
  497MOL0     H67083   0.075   4.894   6.473  0.5627  3.9921  2.7515
  497MOL0     H67084   0.261   4.813   6.590 -0.2331 -0.1324  0.1636
  497MOL0     H67085   0.658   4.907   6.421  0.3968 -0.9135 -0.4909
  497MOL0     H67086   0.664   5.032   6.547 -1.4052  1.0586 -3.6957
  497MOL0     H67087   0.730   4.842   6.701 -3.1738 -1.6153 -0.3193
  497MOL0     H67088   0.861   4.881   6.597  0.2321 -0.0736  2.2206
  497MOL0     H67089   0.830   4.695   6.450 -0.7958  0.5684 -0.9807
  497MOL0     H67090   0.660   4.678   6.504  0.5135 -3.3086  2.3283
  497MOL0     H67091   0.713   4.571   6.701  0.6294  0.4627  1.0182
  497MOL0     H67092   0.897   4.613   6.667  1.0761 -3.2424  0.6619
  497MOL0     H67093   0.904   4.269   6.482  0.3351  0.8763  0.7001
  497MOL0     H67094   0.518   5.063   6.344 -0.6642  0.9037 -2.4689
  497MOL0     H67095   0.328   5.121   6.206  4.8595  2.6073  3.5194
  498MOL0     O67096   4.145   1.660   8.632 -0.2252  0.6692  0.0423
  498MOL0     C67097   4.092   1.728   8.554  0.5733 -0.2519  0.6699
  498MOL0     O67098   4.136   1.856   8.522 -0.5469 -0.7157 -0.2736
  498MOL0     C67099   4.271   1.896   8.563  0.3403  0.4922 -1.6579
  498MOL0     C67100   4.377   1.809   8.554 -0.3655 -0.4043  0.0589
  498MOL0     C67101   4.504   1.840   8.598 -0.6266 -0.4856  0.5237
  498MOL0     C67102   4.529   1.964   8.668 -1.0486  0.1075 -0.4748
  498MOL0     O67103   4.649   1.996   8.715 -0.0135 -0.3323 -0.3302
  498MOL0     C67104   4.730   2.075   8.631  0.6572  0.3733 -0.4088
  498MOL0     C67105   4.880   2.066   8.658 -0.0974 -0.7421  0.2753
  498MOL0     C67106   4.935   2.167   8.758 -0.0875  0.3875 -0.6005
  498MOL0     C67107   4.865   2.174   8.901  0.0496  0.3100  0.5604
  498MOL0     C67108   4.932   2.274   9.001 -0.4875  0.3536 -0.8122
  498MOL0     C67109   4.829   2.308   9.111 -0.4018 -1.1948 -0.3135
  498MOL0     C67110   4.877   2.402   9.225 -0.4101  0.2342  1.2725
  498MOL0     C67111   4.758   2.482   9.285 -0.7410  0.9038 -0.3398
  498MOL0     N67112   4.796   2.574   9.395 -0.5152 -0.3634 -0.3576
  498MOL0     C67113   4.884   2.536   9.499 -0.0299 -0.5895  0.2242
  498MOL0     C67114   4.885   2.643   9.574  0.4807 -0.3397 -0.4043
  498MOL0     C67115   4.953   2.662   9.706 -0.8708 -0.3185  0.0937
  498MOL0     C67116   5.102   2.700   9.690  0.0478  0.8029  0.1620
  498MOL0     C67117   5.123   2.848   9.702 -0.1555 -0.5329  0.4308
  498MOL0     C67118   5.273   2.884   9.703 -0.4707  0.4272  0.0370
  498MOL0     O67119   5.300   3.001   9.774  0.2806  0.0969  0.0092
  498MOL0     C67120   5.324   2.991   9.912 -0.0613 -0.5882  0.3156
  498MOL0     C67121   5.328   3.113   9.974 -0.8580  0.8892  0.6076
  498MOL0     C67122   5.331   3.127  10.108  0.2337 -0.4724  0.1541
  498MOL0     C67123   5.308   3.271  10.159 -0.0363  0.8195 -0.1279
  498MOL0     C67124   5.350   3.015  10.192  0.3452 -0.1634 -0.4001
  498MOL0     C67125   5.335   3.021  10.342  0.1823  0.0133  0.5774
  498MOL0     O67126   5.406   2.922  10.411 -0.1133 -0.0174 -0.3316
  498MOL0     C67127   5.431   2.933  10.541 -0.0947  0.5070 -0.0033
  498MOL0     C67128   5.349   2.871  10.642 -1.1531 -0.5197 -0.9148
  498MOL0     C67129   5.397   2.868  10.779  0.6207 -0.2451  0.1429
  498MOL0     C67130   5.513   2.930  10.819 -0.3211 -1.1384  0.6827
  498MOL0     O67131   5.566   2.951  10.945  0.0834 -0.5573  0.2968
  498MOL0     C67132   5.479   2.922  11.052 -0.1399  0.3320 -0.0310
  498MOL0     C67133   5.544   2.984  11.171 -0.4907  0.7474  0.6068
  498MOL0     C67134   5.676   2.918  11.210  0.2103  1.4093  1.3779
  498MOL0     C67135   5.729   2.982  11.335 -0.9382 -0.3829 -0.0850
  498MOL0     C67136   5.835   2.887  11.386 -0.4946  0.1770  0.3104
  498MOL0     C67137   5.876   2.921  11.532  0.0297  0.4397  0.5794
  498MOL0     C67138   5.979   2.811  11.568 -0.7960 -0.2032 -0.3153
  498MOL0     C67139   6.106   2.876  11.620 -0.3112  0.1118  0.4696
  498MOL0    Cl67140   6.236   2.748  11.678  0.5830 -0.3505  0.5567
  498MOL0     C67141   5.584   3.001  10.724  0.3780  0.5527 -0.8462
  498MOL0     C67142   5.542   3.002  10.587 -0.3181  0.0764 -0.2554
  498MOL0     O67143   5.257   3.102  10.391 -0.4350  0.3037  0.0138
  498MOL0     C67144   5.366   2.889  10.135  0.8730  0.1113  0.7088
  498MOL0     C67145   5.352   2.881   9.992  0.3442 -0.4956 -0.1291
  498MOL0     N67146   4.800   2.744   9.519  0.0091  0.5107 -0.1498
  498MOL0     N67147   4.750   2.705   9.408 -0.3949  1.0019  0.0538
  498MOL0     C67148   4.420   2.054   8.672 -0.3518 -0.4853 -0.2251
  498MOL0     C67149   4.295   2.017   8.622  0.0231 -0.3517  0.2166
  498MOL0     C67150   3.973   1.668   8.480  0.6711 -0.6671 -0.4057
  498MOL0     C67151   3.887   1.571   8.531 -0.3139 -0.4688 -0.2065
  498MOL0     C67152   3.786   1.509   8.466 -0.0131 -0.1210  0.8537
  498MOL0     C67153   3.752   1.551   8.339 -0.8327  0.0368  0.7302
  498MOL0     O67154   3.641   1.511   8.266 -0.4591  0.0786  0.1549
  498MOL0     C67155   3.548   1.423   8.322 -0.5859 -0.4024 -0.1970
  498MOL0     C67156   3.590   1.271   8.308  0.5176  0.1638  0.4523
  498MOL0     C67157   3.655   1.232   8.164 -0.8056  0.2317 -0.2075
  498MOL0     C67158   3.597   1.094   8.118 -0.3148 -0.1276 -0.2196
  498MOL0     C67159   3.633   1.007   8.221 -0.2769 -0.6206  0.0653
  498MOL0     C67160   3.658   0.936   8.313 -0.0218 -0.6976 -0.1295
  498MOL0     C67161   3.820   1.663   8.289  0.3799 -0.0135 -0.6553
  498MOL0     C67162   3.926   1.724   8.357 -0.1174  0.2883  0.3275
  498MOL0     H67163   4.357   1.711   8.509 -1.0826 -0.4409  0.4476
  498MOL0     H67164   4.584   1.767   8.596  0.4118  0.6340 -1.6238
  498MOL0     H67165   4.700   2.052   8.528 -4.8923  0.2211  0.9404
  498MOL0     H67166   4.684   2.174   8.629  1.5907  0.8183 -1.1384
  498MOL0     H67167   4.922   1.968   8.683  3.4084  0.4565 -0.3833
  498MOL0     H67168   4.925   2.073   8.558 -1.9433 -4.3529 -1.0088
  498MOL0     H67169   5.040   2.139   8.775 -0.4184 -0.2459  0.5367
  498MOL0     H67170   4.948   2.261   8.704  1.1594 -1.4619 -3.7566
  498MOL0     H67171   4.771   2.222   8.870  1.2131  1.1708 -1.8305
  498MOL0     H67172   4.849   2.075   8.943 -1.0603 -0.8503 -2.3329
  498MOL0     H67173   5.028   2.238   9.038 -0.9567  0.2655  0.3536
  498MOL0     H67174   4.974   2.362   8.952  3.9347 -2.0970 -1.9599
  498MOL0     H67175   4.743   2.346   9.056 -0.2019 -0.6818 -0.2757
  498MOL0     H67176   4.807   2.212   9.159  1.1428  0.1485  3.4369
  498MOL0     H67177   4.933   2.345   9.301 -0.2820 -1.9466 -0.3638
  498MOL0     H67178   4.945   2.478   9.185  0.0440 -0.3358  0.9317
  498MOL0     H67179   4.680   2.416   9.325 -0.4615  0.2342 -0.8854
  498MOL0     H67180   4.707   2.546   9.213 -1.2098  1.9800  0.9016
  498MOL0     H67181   4.929   2.438   9.514 -1.9694 -1.7265 -0.9368
  498MOL0     H67182   4.906   2.742   9.764 -3.1278 -1.7325  0.3198
  498MOL0     H67183   4.947   2.576   9.773  4.6846 -1.9489 -0.9646
  498MOL0     H67184   5.148   2.666   9.597 -1.0969 -1.2080  0.2938
  498MOL0     H67185   5.162   2.648   9.766  0.5067  0.6825 -0.2767
  498MOL0     H67186   5.079   2.884   9.795  0.8465  1.5466  0.1683
  498MOL0     H67187   5.071   2.900   9.620  0.8562  1.0807  0.7542
  498MOL0     H67188   5.306   2.904   9.601 -0.7229 -1.9629 -0.5843
  498MOL0     H67189   5.339   2.803   9.735  0.0911  0.3098 -1.3359
  498MOL0     H67190   5.313   3.198   9.909  1.6657 -0.3582 -1.8329
  498MOL0     H67191   5.332   3.271  10.265 -0.1020 -2.1668 -0.0117
  498MOL0     H67192   5.359   3.338  10.089 -2.9460  2.9512 -0.4154
  498MOL0     H67193   5.201   3.289  10.143 -0.6845 -1.0997  1.6323
  498MOL0     H67194   5.261   2.819  10.607  0.0519 -3.3200 -0.1274
  498MOL0     H67195   5.339   2.803  10.844 -0.1438 -0.1795 -0.4628
  498MOL0     H67196   5.375   2.957  11.044 -0.4284  0.4050  2.8719
  498MOL0     H67197   5.465   2.814  11.063 -0.5663  0.5634  2.2182
  498MOL0     H67198   5.562   3.089  11.149  0.3639  0.3252 -0.7896
  498MOL0     H67199   5.478   2.968  11.258 -0.4767  0.3118  0.5414
  498MOL0     H67200   5.748   2.926  11.128 -0.4674 -1.3546  0.4169
  498MOL0     H67201   5.647   2.813  11.223  1.0184  0.8076 -1.1378
  498MOL0     H67202   5.758   3.085  11.316  0.9410 -0.3201  2.6089
  498MOL0     H67203   5.646   2.988  11.406 -1.8204 -1.3263 -0.9819
  498MOL0     H67204   5.927   2.902  11.330 -0.3603 -0.6094  0.3073
  498MOL0     H67205   5.800   2.783  11.384  0.7813 -0.3224  1.7860
  498MOL0     H67206   5.912   3.024  11.537  0.0008  0.6655 -2.2244
  498MOL0     H67207   5.791   2.905  11.600  0.8365 -1.3322  1.2315
  498MOL0     H67208   6.010   2.760  11.476  0.2127  0.8967 -0.6127
  498MOL0     H67209   5.942   2.733  11.635  1.8805 -1.0874  0.2588
  498MOL0     H67210   6.089   2.948  11.701  1.6385  0.9610  0.1916
  498MOL0     H67211   6.152   2.928  11.536  1.0327 -3.0848 -0.9428
  498MOL0     H67212   5.656   3.072  10.763 -1.8281  2.7553 -0.5000
  498MOL0     H67213   5.603   3.038  10.504  0.0543  1.9644  0.7814
  498MOL0     H67214   5.378   2.798  10.192 -3.2441 -0.6847  0.6651
  498MOL0     H67215   5.368   2.794   9.928  0.0068  0.2573 -1.2629
  498MOL0     H67216   4.430   2.146   8.729  1.7270 -1.5461  1.2303
  498MOL0     H67217   4.216   2.089   8.642  0.0841 -0.6294  1.5951
  498MOL0     H67218   3.919   1.532   8.627  1.8801 -1.9836 -1.4642
  498MOL0     H67219   3.745   1.416   8.504 -1.2539 -0.2247 -0.6489
  498MOL0     H67220   3.529   1.441   8.428  2.1803  1.1944  0.1160
  498MOL0     H67221   3.453   1.423   8.267 -0.2314  1.3295 -0.8631
  498MOL0     H67222   3.496   1.216   8.321  0.1167  0.4427 -1.0743
  498MOL0     H67223   3.654   1.241   8.392  0.0315  2.3103  1.6485
  498MOL0     H67224   3.763   1.220   8.169 -0.7331  1.2679  4.1877
  498MOL0     H67225   3.639   1.301   8.080 -1.9841  0.5981  0.3005
  498MOL0     H67226   3.640   1.064   8.022 -0.5245  0.7788 -0.6091
  498MOL0     H67227   3.489   1.107   8.105 -0.5326 -2.3936 -1.1114
  498MOL0     H67228   3.697   0.870   8.387  0.7744 -2.1874 -1.7835
  498MOL0     H67229   3.793   1.702   8.192  0.9928  0.2771 -0.7134
  498MOL0     H67230   3.978   1.811   8.317 -1.0136 -0.4976 -2.8162
  499MOL0     O67231  10.656   2.423   6.128  0.0671  0.8449  0.3283
  499MOL0     C67232  10.708   2.309   6.108  0.0763  0.5298 -0.4395
  499MOL0     O67233  10.760   2.271   5.995 -0.2714  0.0013  0.5354
  499MOL0     C67234  10.761   2.362   5.894  0.3186  0.9329 -0.0958
  499MOL0     C67235  10.684   2.339   5.778  0.8960  0.2697 -0.6502
  499MOL0     C67236  10.705   2.424   5.667  1.1223  0.2261 -0.7185
  499MOL0     C67237  10.781   2.545   5.685 -0.2882  0.8305  0.8798
  499MOL0     O67238  10.811   2.630   5.577 -0.0556  0.2099  0.0874
  499MOL0     C67239  10.731   2.622   5.455  0.0899 -0.1506 -0.1572
  499MOL0     C67240  10.788   2.740   5.362 -0.1320  1.1703 -0.7186
  499MOL0     C67241  10.744   2.744   5.217  0.6938 -0.2574 -0.3914
  499MOL0     C67242  10.788   2.866   5.143  0.4804  0.2367  0.0385
  499MOL0     C67243  10.747   2.862   4.991  0.1152  0.4034  0.1233
  499MOL0     C67244  10.750   3.006   4.922 -0.1794 -0.0690 -0.0712
  499MOL0     C67245  10.737   2.980   4.774  0.3091 -0.1285  0.8055
  499MOL0     C67246  10.734   3.104   4.690  0.1319  0.4776 -0.0524
  499MOL0     N67247  10.598   3.150   4.685 -0.5575  0.0223  0.2308
  499MOL0     C67248  10.519   3.219   4.773 -0.7114 -0.8885 -0.5975
  499MOL0     C67249  10.406   3.247   4.695 -0.8281 -0.3966 -0.3208
  499MOL0     C67250  10.278   3.306   4.756 -0.8176  0.3965  0.5319
  499MOL0     C67251  10.192   3.199   4.836 -0.6235 -0.4211 -0.1353
  499MOL0     C67252  10.156   3.079   4.754  0.1334  0.6852 -0.6058
  499MOL0     C67253  10.057   3.100   4.636 -0.1710  0.2146  0.7182
  499MOL0     O67254   9.926   3.149   4.671 -0.1435  0.3546  0.4074
  499MOL0     C67255   9.848   3.194   4.567  0.2986  0.4337 -0.4316
  499MOL0     C67256   9.734   3.119   4.535  0.6233 -0.1018  0.1267
  499MOL0     C67257   9.640   3.154   4.440  0.1839 -0.7134 -0.2913
  499MOL0     C67258   9.527   3.049   4.412 -0.0875 -0.5051 -0.4962
  499MOL0     C67259   9.657   3.285   4.375 -0.6038  0.2001  0.2012
  499MOL0     C67260   9.572   3.349   4.271  0.2130 -0.0298  0.3097
  499MOL0     O67261   9.452   3.293   4.245  0.0263  0.5510  0.0418
  499MOL0     C67262   9.361   3.319   4.144 -0.7020  0.3909  0.2854
  499MOL0     C67263   9.316   3.454   4.116 -0.2599  1.3859 -0.7893
  499MOL0     C67264   9.211   3.483   4.035 -0.6610 -0.5769 -0.4580
  499MOL0     C67265   9.160   3.367   3.960 -0.1007  0.1052 -0.5112
  499MOL0     O67266   9.072   3.365   3.854  0.2523 -0.0456  0.0067
  499MOL0     C67267   9.039   3.496   3.791  0.2669 -0.2522  0.0830
  499MOL0     C67268   8.953   3.452   3.656 -0.5865 -1.2235 -0.6903
  499MOL0     C67269   8.907   3.587   3.576  0.4856 -0.2488  0.7175
  499MOL0     C67270   8.797   3.548   3.462 -0.5964  0.3752 -0.6520
  499MOL0     C67271   8.756   3.662   3.374  1.1744  0.1923  0.2408
  499MOL0     C67272   8.850   3.739   3.288  0.3034 -0.1576  0.0231
  499MOL0     C67273   8.896   3.665   3.165  0.0402  0.0808 -0.2551
  499MOL0     C67274   8.960   3.748   3.049 -0.8421  0.3694 -0.4395
  499MOL0    Cl67275   9.119   3.833   3.088 -0.4205 -0.0038  0.2330
  499MOL0     C67276   9.213   3.236   3.988  0.1049 -0.0872 -0.0118
  499MOL0     C67277   9.311   3.208   4.082  0.4048 -0.2139  0.0635
  499MOL0     O67278   9.617   3.436   4.201  0.8972 -0.5243 -1.0240
  499MOL0     C67279   9.770   3.361   4.417 -0.3369  0.5539 -0.0468
  499MOL0     C67280   9.862   3.318   4.513 -0.4402  0.2664  0.1501
  499MOL0     N67281  10.412   3.189   4.573  0.1392  0.1032  0.2651
  499MOL0     N67282  10.526   3.120   4.570  0.5163  0.5430 -0.2102
  499MOL0     C67283  10.839   2.575   5.804  0.0236  0.1769 -0.0196
  499MOL0     C67284  10.833   2.487   5.904 -0.2522  0.2313  0.1146
  499MOL0     C67285  10.703   2.214   6.223 -0.9024  0.0837  0.0440
  499MOL0     C67286  10.776   2.085   6.211 -0.6365 -0.1073  0.5233
  499MOL0     C67287  10.773   2.001   6.323  0.5623  0.5805  0.3339
  499MOL0     C67288  10.696   2.033   6.436 -0.1588  0.7761 -1.4034
  499MOL0     O67289  10.672   1.943   6.541 -0.1112 -0.1799 -0.2411
  499MOL0     C67290  10.756   1.830   6.559  0.8542 -0.0401  0.2368
  499MOL0     C67291  10.723   1.740   6.670 -0.1826  0.1618  1.0910
  499MOL0     C67292  10.591   1.671   6.638 -0.3008  0.0634  0.3751
  499MOL0     C67293  10.532   1.601   6.764 -0.1408 -0.1480 -0.4930
  499MOL0     C67294  10.393   1.549   6.743 -0.2321  0.0857 -0.0144
  499MOL0     C67295  10.271   1.528   6.746  0.0916  0.0528 -0.7715
  499MOL0     C67296  10.627   2.149   6.438  1.0171  0.4530  0.6206
  499MOL0     C67297  10.624   2.241   6.336 -0.1266 -0.0572 -1.3055
  499MOL0     H67298  10.619   2.253   5.762  0.4918  0.9371 -2.9103
  499MOL0     H67299  10.640   2.403   5.583 -1.6579 -0.6517  1.4980
  499MOL0     H67300  10.752   2.522   5.415  2.4588  1.1593 -2.4689
  499MOL0     H67301  10.630   2.646   5.489  0.7522  2.9013 -0.1233
  499MOL0     H67302  10.757   2.838   5.397 -1.5170 -0.2386  2.3424
  499MOL0     H67303  10.896   2.720   5.365 -0.5161 -1.1712 -0.3822
  499MOL0     H67304  10.782   2.651   5.175  1.1391 -0.5199  0.5731
  499MOL0     H67305  10.636   2.741   5.201  0.7390 -0.2653 -0.6941
  499MOL0     H67306  10.748   2.961   5.179 -0.3598  0.5090 -1.5062
  499MOL0     H67307  10.894   2.882   5.162 -0.2227  3.0688  2.1609
  499MOL0     H67308  10.820   2.802   4.936 -2.8259 -1.0777 -2.4752
  499MOL0     H67309  10.654   2.806   4.988  0.9104 -0.9775  0.2822
  499MOL0     H67310  10.672   3.074   4.957  0.0608  0.6887 -0.9498
  499MOL0     H67311  10.850   3.047   4.936  0.4415 -1.4485 -0.3747
  499MOL0     H67312  10.819   2.924   4.731 -0.2654  0.8162 -1.6671
  499MOL0     H67313  10.645   2.920   4.775 -1.5938  2.5898  1.5276
  499MOL0     H67314  10.776   3.071   4.595 -2.0923  3.4105 -2.2031
  499MOL0     H67315  10.802   3.178   4.732 -1.8925  1.1620  2.2576
  499MOL0     H67316  10.530   3.243   4.878  0.7939  1.5602 -1.2335
  499MOL0     H67317  10.302   3.389   4.821 -0.3922  0.7179 -0.0270
  499MOL0     H67318  10.221   3.350   4.674 -0.3314 -1.9680 -1.2146
  499MOL0     H67319  10.111   3.260   4.878 -0.9641  1.7054 -3.5267
  499MOL0     H67320  10.256   3.154   4.912 -1.5327 -1.4526  0.0372
  499MOL0     H67321  10.126   3.006   4.829  2.8417 -0.8312 -0.8820
  499MOL0     H67322  10.245   3.033   4.708  1.7327  1.5541  1.4409
  499MOL0     H67323  10.043   3.006   4.581  1.0341 -0.1724  1.0522
  499MOL0     H67324  10.096   3.162   4.554  0.1670 -1.7404 -0.6914
  499MOL0     H67325   9.717   3.020   4.576 -0.7744 -0.4235 -1.1265
  499MOL0     H67326   9.491   3.062   4.309 -0.1573  2.0219 -0.2173
  499MOL0     H67327   9.567   2.949   4.428 -1.6753 -1.1273 -0.1458
  499MOL0     H67328   9.447   3.061   4.487 -0.5360  1.0835 -1.1811
  499MOL0     H67329   9.366   3.543   4.152 -0.6971  1.6825 -0.9142
  499MOL0     H67330   9.160   3.576   4.012 -3.5603 -2.7570 -3.8799
  499MOL0     H67331   8.977   3.558   3.856  0.2928 -0.8155  0.6557
  499MOL0     H67332   9.136   3.540   3.767 -1.2651  1.6967 -3.2531
  499MOL0     H67333   9.010   3.390   3.586 -0.2544 -0.7000 -0.8935
  499MOL0     H67334   8.865   3.402   3.696 -0.1051 -0.8190  0.9179
  499MOL0     H67335   8.988   3.643   3.528  0.6775 -0.0177  1.3040
  499MOL0     H67336   8.862   3.657   3.647  1.2865  0.0892  0.9092
  499MOL0     H67337   8.837   3.476   3.391 -0.5882  0.0967 -0.3661
  499MOL0     H67338   8.711   3.498   3.508 -0.0230 -0.4865 -0.5097
  499MOL0     H67339   8.703   3.734   3.436  1.1460  0.8749 -0.5512
  499MOL0     H67340   8.683   3.629   3.300  0.8094  4.6405 -1.7018
  499MOL0     H67341   8.809   3.833   3.251 -0.6338 -1.8666 -3.6883
  499MOL0     H67342   8.938   3.768   3.348 -1.4930  1.6882  1.9395
  499MOL0     H67343   8.804   3.622   3.125 -0.5361  1.8071 -0.8707
  499MOL0     H67344   8.971   3.589   3.190 -1.2207 -1.0586  0.1945
  499MOL0     H67345   8.897   3.831   3.016 -0.7950  0.4284 -0.3814
  499MOL0     H67346   8.986   3.672   2.975  2.5369  1.4640 -0.5292
  499MOL0     H67347   9.181   3.148   3.933 -0.3909 -1.4133  2.2600
  499MOL0     H67348   9.329   3.107   4.116 -0.6565 -0.4812 -0.1245
  499MOL0     H67349   9.790   3.457   4.372 -1.9673  2.0688  2.1868
  499MOL0     H67350   9.946   3.374   4.554  2.0796 -2.9525 -0.2765
  499MOL0     H67351  10.898   2.666   5.816  0.6886 -0.5443  3.1304
  499MOL0     H67352  10.891   2.508   5.993  1.3102 -0.2112 -0.7597
  499MOL0     H67353  10.831   2.063   6.120  0.1454  0.7282  0.7837
  499MOL0     H67354  10.810   1.902   6.295 -3.4546 -0.0450 -4.0296
  499MOL0     H67355  10.760   1.770   6.468  1.5293 -3.1162  2.1539
  499MOL0     H67356  10.859   1.863   6.577  0.9613 -0.3349  0.1697
  499MOL0     H67357  10.716   1.787   6.768 -0.2872 -1.7376  2.0520
  499MOL0     H67358  10.797   1.661   6.690 -1.3760 -2.1285 -2.5558
  499MOL0     H67359  10.613   1.592   6.567  0.5555 -0.2539  0.9749
  499MOL0     H67360  10.515   1.736   6.594 -0.6729 -1.0214 -0.6283
  499MOL0     H67361  10.519   1.685   6.833 -2.9213 -1.2576  0.4737
  499MOL0     H67362  10.600   1.526   6.806  0.2294  0.6872  0.4489
  499MOL0     H67363  10.172   1.489   6.735  0.8573 -2.4630  0.5400
  499MOL0     H67364  10.566   2.177   6.524  0.1407 -1.0531  0.5172
  499MOL0     H67365  10.569   2.334   6.344  0.7241  0.3173  0.8023
  500MOL0     O67366   0.062   1.023  10.754  0.2171 -0.1513  0.1481
  500MOL0     C67367  -0.034   0.948  10.762  0.0734 -0.4988 -0.3131
  500MOL0     O67368  -0.067   0.869  10.869  0.1498 -0.2713 -0.8319
  500MOL0     C67369   0.021   0.860  10.981 -0.7254 -0.9534  0.4801
  500MOL0     C67370   0.158   0.818  10.966 -0.2589  0.5072  0.8588
  500MOL0     C67371   0.230   0.816  11.079  0.0345 -0.0267  0.3084
  500MOL0     C67372   0.184   0.851  11.213 -0.2922  0.2038 -0.3228
  500MOL0     O67373   0.272   0.832  11.313  0.0837 -0.3464  0.1194
  500MOL0     C67374   0.226   0.767  11.433 -0.3541  0.1270 -0.6290
  500MOL0     C67375   0.335   0.683  11.502 -0.8789  0.3162  0.4457
  500MOL0     C67376   0.308   0.675  11.656  0.4912  0.4589 -0.7780
  500MOL0     C67377   0.370   0.793  11.727  0.1767 -0.2616 -0.6476
  500MOL0     C67378   0.358   0.788  11.878 -0.5360  0.7444 -0.9921
  500MOL0     C67379   0.452   0.678  11.950 -0.0303  0.0449  0.1383
  500MOL0     C67380   0.446   0.694  12.103 -0.5753 -0.1470 -0.3709
  500MOL0     C67381   0.532   0.807  12.170  0.9338  1.1820  1.2384
  500MOL0     N67382   0.464   0.947  12.178 -0.2629  1.1805  0.6241
  500MOL0     C67383   0.524   1.055  12.111  0.5475  0.2316 -0.3201
  500MOL0     C67384   0.413   1.132  12.107  0.9080 -0.8308 -0.0793
  500MOL0     C67385   0.425   1.277  12.055  0.2553  0.2863 -0.0239
  500MOL0     C67386   0.325   1.328  11.950 -0.2549 -0.9473 -0.0660
  500MOL0     C67387   0.329   1.253  11.816  0.1196  0.4751 -0.3523
  500MOL0     C67388   0.214   1.279  11.735  0.1329 -0.4540  1.1562
  500MOL0     O67389   0.215   1.215  11.609  0.3393 -0.4135  0.1582
  500MOL0     C67390   0.105   1.233  11.527 -0.7116 -0.3955 -0.6588
  500MOL0     C67391  -0.007   1.319  11.558 -0.0486  0.2310 -0.4623
  500MOL0     C67392  -0.117   1.335  11.470 -0.5307  0.4046 -0.2023
  500MOL0     C67393  -0.230   1.420  11.513 -0.7881 -0.6241 -0.1999
  500MOL0     C67394  -0.117   1.265  11.349  0.3325 -0.1277 -0.4194
  500MOL0     C67395  -0.222   1.269  11.252  0.3709  0.5180 -0.5271
  500MOL0     O67396  -0.208   1.175  11.146 -0.5229  0.3420 -0.0629
  500MOL0     C67397  -0.303   1.164  11.050  0.1972  0.0804 -1.1907
  500MOL0     C67398  -0.278   1.171  10.911  0.4670  0.4019 -0.7410
  500MOL0     C67399  -0.378   1.153  10.823  0.6397 -0.0326  0.1340
  500MOL0     C67400  -0.514   1.156  10.865 -0.2486 -0.3309 -0.6469
  500MOL0     O67401  -0.617   1.159  10.788 -0.1342  0.4373 -0.3099
  500MOL0     C67402  -0.601   1.239  10.670  0.4660  0.9101  1.0248
  500MOL0     C67403  -0.729   1.283  10.587  0.5330  0.3459  1.1370
  500MOL0     C67404  -0.691   1.370  10.460 -0.5993 -0.2178  0.0326
  500MOL0     C67405  -0.814   1.404  10.385  0.1658  0.5353 -0.4755
  500MOL0     C67406  -0.797   1.476  10.256  0.3687  1.0795  0.3467
  500MOL0     C67407  -0.932   1.520  10.199  0.4630 -0.1880  0.5156
  500MOL0     C67408  -0.914   1.648  10.126 -0.0687 -0.2736 -0.9092
  500MOL0     C67409  -1.021   1.684  10.017 -0.3669  0.1349  0.8250
  500MOL0    Cl67410  -1.023   1.601   9.853 -0.0966 -0.6035  0.2451
  500MOL0     C67411  -0.540   1.139  11.002  0.2633  0.6812 -0.0174
  500MOL0     C67412  -0.433   1.133  11.089  0.1424 -0.0948  0.8290
  500MOL0     O67413  -0.300   1.368  11.244 -0.1190  0.1854 -0.2447
  500MOL0     C67414  -0.009   1.184  11.326  0.5977 -0.1539 -0.1423
  500MOL0     C67415   0.100   1.169  11.415  0.8467 -0.1476  0.0469
  500MOL0     N67416   0.303   1.073  12.173 -0.1281  0.2713 -0.3181
  500MOL0     N67417   0.342   0.965  12.225  1.0640 -0.0645  0.4119
  500MOL0     C67418   0.054   0.871  11.234 -0.4907 -1.0056 -0.3999
  500MOL0     C67419  -0.024   0.882  11.118  0.2380 -0.5795  1.4986
  500MOL0     C67420  -0.142   0.955  10.661 -0.2007  0.3534  1.0491
  500MOL0     C67421  -0.238   0.855  10.665 -0.0586 -0.0143  0.6089
  500MOL0     C67422  -0.348   0.870  10.579  1.0302  0.1261  0.5000
  500MOL0     C67423  -0.345   0.959  10.474 -0.6427 -0.5660  0.3429
  500MOL0     O67424  -0.446   0.949  10.388  0.1934  0.4214  0.4213
  500MOL0     C67425  -0.431   1.020  10.261  2.1717  0.7165  0.8111
  500MOL0     C67426  -0.550   1.004  10.168  0.4958  0.6353  0.2272
  500MOL0     C67427  -0.682   1.074  10.208 -0.5220 -0.3839  0.3176
  500MOL0     C67428  -0.803   1.015  10.129 -0.8376  0.3326  0.5068
  500MOL0     C67429  -0.930   1.076  10.161  0.2898  0.0255  0.3178
  500MOL0     C67430  -1.041   1.126  10.172 -0.1340  0.6409  0.4022
  500MOL0     C67431  -0.241   1.055  10.465 -0.2978  0.2358  0.5092
  500MOL0     C67432  -0.141   1.058  10.561  0.6528 -0.5563  0.0189
  500MOL0     H67433   0.196   0.791  10.868 -0.1056 -1.6848  1.4582
  500MOL0     H67434   0.334   0.793  11.059  0.0196  0.8234 -0.8485
  500MOL0     H67435   0.191   0.849  11.497  0.6429  0.5616 -0.6133
  500MOL0     H67436   0.140   0.705  11.407  3.2195 -5.1002 -1.5572
  500MOL0     H67437   0.337   0.585  11.454 -0.1126  1.3433 -1.7569
  500MOL0     H67438   0.438   0.717  11.486 -1.0813  0.8787  0.3238
  500MOL0     H67439   0.203   0.664  11.684 -0.0401  2.0216 -2.0213
  500MOL0     H67440   0.362   0.588  11.695 -0.0852  0.4552  0.0413
  500MOL0     H67441   0.475   0.805  11.699 -0.0721  0.6402 -1.2372
  500MOL0     H67442   0.319   0.884  11.693  1.5081  0.8384  0.2281
  500MOL0     H67443   0.393   0.880  11.925 -0.1283 -0.0044  0.2384
  500MOL0     H67444   0.257   0.767  11.914  0.2235 -2.9325 -0.5355
  500MOL0     H67445   0.412   0.579  11.927 -2.8181  1.2317 -0.5513
  500MOL0     H67446   0.551   0.692  11.905 -1.3423  0.9942 -2.6948
  500MOL0     H67447   0.347   0.730  12.131  0.0293  0.4001  1.2017
  500MOL0     H67448   0.479   0.600  12.148 -0.6354  0.8124  1.8600
  500MOL0     H67449   0.631   0.824  12.125  0.4870  1.3182  0.2759
  500MOL0     H67450   0.539   0.779  12.276  3.0201 -2.2773  0.3670
  500MOL0     H67451   0.621   1.077  12.066  0.0643  2.5315 -0.3391
  500MOL0     H67452   0.423   1.337  12.146 -0.7779  1.6275 -0.9029
  500MOL0     H67453   0.519   1.305  12.005  0.6888  2.8085  2.0146
  500MOL0     H67454   0.346   1.434  11.933  0.4536 -1.1185 -0.2830
  500MOL0     H67455   0.225   1.340  11.993 -0.7710  0.3458 -1.5323
  500MOL0     H67456   0.345   1.149  11.846 -0.3839  0.4901 -0.0239
  500MOL0     H67457   0.418   1.279  11.757 -1.1688 -2.2897 -3.8828
  500MOL0     H67458   0.208   1.384  11.704 -0.7329 -1.4666 -2.6474
  500MOL0     H67459   0.121   1.263  11.791 -1.3829  3.2373  0.0455
  500MOL0     H67460  -0.008   1.389  11.641  0.8644  0.0549 -0.2925
  500MOL0     H67461  -0.324   1.374  11.482 -1.9228  0.6055  1.2616
  500MOL0     H67462  -0.237   1.431  11.622  0.3497  1.2404 -0.2692
  500MOL0     H67463  -0.222   1.523  11.476 -2.6465 -0.9332 -1.6610
  500MOL0     H67464  -0.176   1.190  10.881  0.1351 -0.8437 -2.9821
  500MOL0     H67465  -0.363   1.151  10.715  2.2332 -2.2691  0.3141
  500MOL0     H67466  -0.545   1.329  10.695  1.5010  0.9662 -1.2362
  500MOL0     H67467  -0.541   1.177  10.603  1.1608 -0.7971  3.1142
  500MOL0     H67468  -0.781   1.193  10.552  1.2809  0.6088 -0.8015
  500MOL0     H67469  -0.808   1.341  10.635  0.0007 -0.5363  1.3441
  500MOL0     H67470  -0.619   1.327  10.390  0.0943  1.8281 -0.5662
  500MOL0     H67471  -0.647   1.462  10.497 -1.0874 -0.7230  1.9655
  500MOL0     H67472  -0.849   1.305  10.356 -1.0884  1.3718 -1.9853
  500MOL0     H67473  -0.880   1.452  10.458  0.8074  0.8425 -0.0907
  500MOL0     H67474  -0.752   1.398  10.193 -0.3139 -1.1403  2.4680
  500MOL0     H67475  -0.741   1.570  10.263  0.5780  1.0295 -0.5364
  500MOL0     H67476  -0.971   1.448  10.127  1.9151 -0.0112 -0.5048
  500MOL0     H67477  -1.001   1.527  10.283  0.4640 -1.0404  0.5994
  500MOL0     H67478  -0.818   1.661  10.076  0.8734 -1.7060  0.4383
  500MOL0     H67479  -0.906   1.733  10.195  1.2607  1.0912 -2.6411
  500MOL0     H67480  -1.014   1.792   9.997  1.5710  0.9781  5.0550
  500MOL0     H67481  -1.121   1.683  10.061  0.0934  5.1279  2.6264
  500MOL0     H67482  -0.643   1.131  11.034  0.2900 -4.9727 -0.3602
  500MOL0     H67483  -0.455   1.134  11.196 -1.3956 -0.1514  0.5406
  500MOL0     H67484   0.006   1.145  11.226 -1.5533 -2.3759  0.2765
  500MOL0     H67485   0.172   1.094  11.384 -0.2474 -1.2659  0.1614
  500MOL0     H67486   0.001   0.886  11.327 -1.3552 -0.7618 -0.9135
  500MOL0     H67487  -0.129   0.907  11.125  0.1810 -0.5700  0.6793
  500MOL0     H67488  -0.236   0.783  10.746 -2.9012 -0.5980  0.2611
  500MOL0     H67489  -0.433   0.802  10.579  1.9579 -1.3044 -3.4567
  500MOL0     H67490  -0.412   1.126  10.280  1.0017  1.4191 -1.6282
  500MOL0     H67491  -0.343   0.986  10.207  3.2587  1.3829  2.1085
  500MOL0     H67492  -0.563   0.895  10.165  0.7268  0.6115  0.0848
  500MOL0     H67493  -0.535   1.036  10.065  0.6846  0.6898  0.2712
  500MOL0     H67494  -0.674   1.183  10.207  1.4318 -0.4901 -0.8867
  500MOL0     H67495  -0.698   1.050  10.314 -2.8356  1.5743  0.5008
  500MOL0     H67496  -0.807   0.909  10.155  0.7793  0.2163  0.3753
  500MOL0     H67497  -0.787   1.025  10.021 -2.9270  0.3198  0.1620
  500MOL0     H67498  -1.140   1.166  10.175 -0.8697 -1.1522  1.6445
  500MOL0     H67499  -0.231   1.123  10.381  2.0292 -0.1368  0.4334
  500MOL0     H67500  -0.066   1.136  10.552 -2.2683  2.7424  1.9344
  501MOL0     O67501  10.938   2.085   1.506 -0.0481  0.2564 -0.1638
  501MOL0     C67502  10.873   1.982   1.523  0.4946 -0.3000 -0.1312
  501MOL0     O67503  10.830   1.929   1.648 -0.1239  0.1535  0.5394
  501MOL0     C67504  10.845   1.988   1.768  0.2623 -0.3379 -0.2877
  501MOL0     C67505  10.763   1.940   1.868  0.2242  0.0412 -0.4924
  501MOL0     C67506  10.764   1.988   1.999  0.2650  0.5366  0.8607
  501MOL0     C67507  10.853   2.091   2.030  0.1572  1.2799 -0.6749
  501MOL0     O67508  10.877   2.134   2.152 -0.0673  0.2853  0.5195
  501MOL0     C67509  10.929   2.037   2.243 -0.9232  0.5306 -0.0711
  501MOL0     C67510  11.015   2.121   2.349  0.1296 -0.2307  0.7697
  501MOL0     C67511  11.144   2.193   2.296 -0.8943 -0.0829  0.1174
  501MOL0     C67512  11.251   2.095   2.249 -0.4808  0.1826  0.0958
  501MOL0     C67513  11.248   2.060   2.098 -0.3090  0.6179 -0.3216
  501MOL0     C67514  11.372   1.969   2.048  0.4598 -1.1011 -0.6602
  501MOL0     C67515  11.357   1.840   1.961  0.2966 -0.1800 -1.1996
  501MOL0     C67516  11.349   1.696   2.037 -0.6664  0.9925  0.5648
  501MOL0     N67517  11.389   1.586   1.946 -0.2882  0.2397  0.2102
  501MOL0     C67518  11.515   1.541   1.926 -0.3476 -0.1747 -0.0325
  501MOL0     C67519  11.514   1.467   1.816  0.3301  0.5704  0.9180
  501MOL0     C67520  11.632   1.405   1.753  0.0745  0.8161  0.1188
  501MOL0     C67521  11.701   1.312   1.848 -0.2955 -0.2789  0.4749
  501MOL0     C67522  11.640   1.181   1.894 -0.2375  1.4939  0.1384
  501MOL0     C67523  11.498   1.199   1.944  0.6432 -0.1929 -0.2729
  501MOL0     O67524  11.455   1.065   1.980  0.9668  0.2167 -0.0888
  501MOL0     C67525  11.405   0.968   1.890  0.3681  0.0555 -0.4398
  501MOL0     C67526  11.378   0.991   1.754  0.3811 -0.0817  0.3899
  501MOL0     C67527  11.340   0.888   1.675 -0.3616  0.7887  0.1260
  501MOL0     C67528  11.306   0.913   1.528  0.1540 -0.2871 -0.1858
  501MOL0     C67529  11.321   0.752   1.724  0.2192 -0.1784  1.0311
  501MOL0     C67530  11.246   0.638   1.645 -0.7220 -0.3305 -0.3030
  501MOL0     O67531  11.175   0.669   1.536  0.9651  0.5573 -0.7647
  501MOL0     C67532  11.096   0.576   1.479  0.3060 -0.4823  0.0547
  501MOL0     C67533  11.128   0.519   1.358 -0.0201  0.4694 -0.8667
  501MOL0     C67534  11.042   0.440   1.291 -0.6340  0.5242 -0.2971
  501MOL0     C67535  10.918   0.403   1.346 -1.0869  0.6818 -0.5661
  501MOL0     O67536  10.849   0.321   1.264  0.1988 -0.2967  0.4351
  501MOL0     C67537  10.701   0.320   1.275 -0.8727 -0.1278  0.8240
  501MOL0     C67538  10.649   0.456   1.239 -0.9077 -0.5843  0.4715
  501MOL0     C67539  10.689   0.478   1.089 -0.2004  0.0102 -0.3764
  501MOL0     C67540  10.642   0.617   1.037 -0.2844 -0.1956 -0.1111
  501MOL0     C67541  10.654   0.645   0.892  0.1019  0.0711  0.0207
  501MOL0     C67542  10.587   0.549   0.790 -0.2345 -0.2164  1.1722
  501MOL0     C67543  10.592   0.625   0.651 -0.3332 -0.1888 -0.2830
  501MOL0     C67544  10.739   0.646   0.596 -0.2542  0.4042  0.4324
  501MOL0    Cl67545  10.742   0.724   0.439 -0.1671 -0.4998  0.1688
  501MOL0     C67546  10.881   0.453   1.470 -0.2211 -0.1226  0.1606
  501MOL0     C67547  10.968   0.545   1.536  0.0307  0.1800 -0.0285
  501MOL0     O67548  11.252   0.524   1.695  0.4710 -0.3490 -0.2000
  501MOL0     C67549  11.361   0.731   1.855 -1.7367  0.4880  0.4044
  501MOL0     C67550  11.410   0.836   1.937  0.1088 -0.4673  0.1480
  501MOL0     N67551  11.376   1.466   1.770  0.2564  0.0071 -0.4045
  501MOL0     N67552  11.296   1.532   1.854  0.2363 -0.4884 -0.0578
  501MOL0     C67553  10.927   2.145   1.931 -1.3745  0.6924 -0.1787
  501MOL0     C67554  10.936   2.087   1.797  0.8727  0.3117 -0.2051
  501MOL0     C67555  10.848   1.881   1.413 -0.3165 -0.5368  0.8398
  501MOL0     C67556  10.902   1.901   1.291 -0.9580  0.0816 -0.0911
  501MOL0     C67557  10.873   1.809   1.188  0.3061  0.9038  0.0216
  501MOL0     C67558  10.796   1.693   1.198 -0.0250  0.3257 -0.8630
  501MOL0     O67559  10.775   1.625   1.077  1.2932  0.3864 -0.1989
  501MOL0     C67560  10.731   1.490   1.105 -0.0131  0.2578 -0.1621
  501MOL0     C67561  10.679   1.417   0.982  0.7632 -0.5222 -0.1588
  501MOL0     C67562  10.594   1.496   0.887 -0.4949  0.0599  0.1343
  501MOL0     C67563  10.445   1.473   0.898 -0.0494  0.7744  0.0302
  501MOL0     C67564  10.395   1.508   1.034 -0.6516 -0.6739 -0.0296
  501MOL0     C67565  10.357   1.524   1.148 -0.3542  1.1895  1.1863
  501MOL0     C67566  10.757   1.663   1.328  0.3743 -0.0533 -0.6576
  501MOL0     C67567  10.785   1.757   1.430  0.5278  0.4995  0.8100
  501MOL0     H67568  10.699   1.853   1.854 -0.0942  0.4912 -1.9305
  501MOL0     H67569  10.715   1.937   2.081  2.4122  2.5023  3.5377
  501MOL0     H67570  10.845   1.989   2.294 -0.6110  1.2477  1.1727
  501MOL0     H67571  10.982   1.949   2.206  0.4943  0.9693  0.8364
  501MOL0     H67572  10.954   2.200   2.395 -2.5740 -2.2656  0.9591
  501MOL0     H67573  11.048   2.047   2.423  3.0075 -2.1548 -2.2029
  501MOL0     H67574  11.121   2.264   2.216 -2.0375  0.4667  0.9118
  501MOL0     H67575  11.175   2.259   2.377  1.9340  0.5308 -1.3497
  501MOL0     H67576  11.350   2.129   2.280  0.7847 -3.4004  0.4780
  501MOL0     H67577  11.235   1.995   2.291 -1.8523 -0.0094 -0.8386
  501MOL0     H67578  11.158   2.014   2.056  1.3236 -0.4033 -3.0041
  501MOL0     H67579  11.248   2.155   2.045 -1.8033  1.1176  0.5438
  501MOL0     H67580  11.420   2.033   1.974 -0.2763 -1.8904 -1.8561
  501MOL0     H67581  11.447   1.942   2.122 -0.5449 -0.0201  0.8162
  501MOL0     H67582  11.267   1.833   1.900 -0.2151 -4.3025 -0.3203
  501MOL0     H67583  11.450   1.850   1.904  1.3223  2.1726  0.6923
  501MOL0     H67584  11.250   1.673   2.079  1.3457 -1.4205  4.7051
  501MOL0     H67585  11.414   1.710   2.124  0.6215 -0.3144 -0.1350
  501MOL0     H67586  11.600   1.561   1.991  0.6815 -0.8389 -1.1328
  501MOL0     H67587  11.590   1.346   1.671  1.9315 -3.4842  1.9505
  501MOL0     H67588  11.705   1.476   1.716  3.5099 -1.1550  2.5380
  501MOL0     H67589  11.729   1.373   1.934  0.7362 -2.5692  1.8756
  501MOL0     H67590  11.795   1.288   1.798 -2.0058 -2.0387 -2.1722
  501MOL0     H67591  11.693   1.133   1.977 -2.2319  1.5530  1.5337
  501MOL0     H67592  11.640   1.122   1.802 -0.0338  1.0666  0.4072
  501MOL0     H67593  11.425   1.237   1.872 -0.7640  1.9140  2.0970
  501MOL0     H67594  11.508   1.262   2.033  4.9092 -1.5502  0.4815
  501MOL0     H67595  11.386   1.091   1.714 -1.3438 -0.2778 -0.5399
  501MOL0     H67596  11.347   0.836   1.462 -0.1288 -1.1924  0.6673
  501MOL0     H67597  11.196   0.916   1.532 -0.0124 -2.9784 -1.0862
  501MOL0     H67598  11.340   1.014   1.501 -1.7047  1.2405  2.6178
  501MOL0     H67599  11.219   0.549   1.306 -0.0250  2.3409  0.0986
  501MOL0     H67600  11.064   0.427   1.186 -2.4215 -1.1101 -0.5140
  501MOL0     H67601  10.664   0.242   1.209 -0.2085 -2.3675  2.9464
  501MOL0     H67602  10.674   0.288   1.377  0.1749 -0.0942  1.1200
  501MOL0     H67603  10.541   0.454   1.257 -0.8381 -6.1210  2.2826
  501MOL0     H67604  10.687   0.533   1.307  0.0883 -0.0355 -0.6813
  501MOL0     H67605  10.656   0.395   1.026 -1.6608  0.9272 -0.8656
  501MOL0     H67606  10.798   0.479   1.084 -0.2413 -0.7065 -1.8301
  501MOL0     H67607  10.536   0.614   1.061 -0.3311 -3.7612 -0.1701
  501MOL0     H67608  10.675   0.707   1.089  1.1615 -2.1869  2.6726
  501MOL0     H67609  10.762   0.636   0.873  0.2163 -1.5430  1.2398
  501MOL0     H67610  10.618   0.748   0.878 -0.2923 -0.0630  0.0376
  501MOL0     H67611  10.644   0.458   0.771 -1.6991 -0.5011 -2.4905
  501MOL0     H67612  10.482   0.530   0.815 -0.6159  2.0982  1.5942
  501MOL0     H67613  10.540   0.721   0.662  0.1958 -0.0063  0.7950
  501MOL0     H67614  10.529   0.565   0.585  0.9419  0.6203 -2.3370
  501MOL0     H67615  10.786   0.549   0.577  1.3585  1.0040  1.1765
  501MOL0     H67616  10.792   0.696   0.678  0.0304 -0.7955  0.9998
  501MOL0     H67617  10.782   0.440   1.511 -0.9768  2.0793 -0.8057
  501MOL0     H67618  10.936   0.597   1.625 -0.9287  0.9956 -0.8207
  501MOL0     H67619  11.334   0.630   1.882  0.2048 -0.1143  0.2340
  501MOL0     H67620  11.440   0.810   2.038 -1.8364 -0.8632  0.6681
  501MOL0     H67621  10.992   2.229   1.950 -0.0162 -0.5522  0.9454
  501MOL0     H67622  11.004   2.137   1.729  1.7409  0.4858  0.7680
  501MOL0     H67623  10.952   1.990   1.254  3.4635 -0.8000  2.8935
  501MOL0     H67624  10.918   1.827   1.091  3.7377  2.2848  1.6949
  501MOL0     H67625  10.812   1.436   1.154 -1.2744 -2.1785 -0.6273
  501MOL0     H67626  10.651   1.492   1.180  0.2931 -0.4816  0.2012
  501MOL0     H67627  10.616   1.336   1.021 -0.8890  0.5308 -0.5620
  501MOL0     H67628  10.764   1.368   0.932 -0.9503 -1.8583 -1.9278
  501MOL0     H67629  10.616   1.455   0.788  0.8160 -1.3123  0.9485
  501MOL0     H67630  10.627   1.600   0.888 -4.1828  1.4648  4.0705
  501MOL0     H67631  10.429   1.367   0.877 -0.8595  0.3856  2.3036
  501MOL0     H67632  10.387   1.535   0.829  3.3475  1.8784 -2.0833
  501MOL0     H67633  10.312   1.528   1.245 -4.9279  0.8356 -0.6672
  501MOL0     H67634  10.708   1.574   1.364 -3.3446  0.9296 -2.7232
  501MOL0     H67635  10.747   1.737   1.529  0.2515 -0.9096  0.4505
  502MOL0     O67636   4.228   0.312   5.247  0.0660 -0.3021  0.4401
  502MOL0     C67637   4.186   0.263   5.140 -0.6983  0.7334  0.0787
  502MOL0     O67638   4.072   0.185   5.127  0.0026 -0.1326 -0.2596
  502MOL0     C67639   3.997   0.171   5.242 -0.7745 -0.4914  0.2556
  502MOL0     C67640   4.047   0.089   5.342  0.6926 -0.0013 -0.0590
  502MOL0     C67641   3.972   0.047   5.452 -0.0547 -0.8658  0.4064
  502MOL0     C67642   3.838   0.082   5.464 -0.9484 -0.6326 -0.1304
  502MOL0     O67643   3.756   0.043   5.566  0.5116 -0.2115 -0.3274
  502MOL0     C67644   3.778  -0.087   5.625 -0.8007  0.3563  0.2345
  502MOL0     C67645   3.647  -0.144   5.692  0.3741 -0.0695  0.1864
  502MOL0     C67646   3.549  -0.197   5.594  0.2152  0.4080 -0.0522
  502MOL0     C67647   3.425  -0.247   5.670 -0.2839  0.3606  0.3183
  502MOL0     C67648   3.330  -0.311   5.571  0.2356  0.2102 -0.4022
  502MOL0     C67649   3.254  -0.206   5.487  1.1461 -0.6063  1.0723
  502MOL0     C67650   3.161  -0.270   5.373  0.0185  0.6287  0.5989
  502MOL0     C67651   3.207  -0.309   5.228  0.3986  0.0377  0.4864
  502MOL0     N67652   3.343  -0.347   5.239 -0.4185 -0.5655 -0.5115
  502MOL0     C67653   3.452  -0.269   5.248  0.3824 -0.1616 -0.2040
  502MOL0     C67654   3.558  -0.348   5.236 -0.2893 -0.0315 -0.2765
  502MOL0     C67655   3.706  -0.299   5.241  0.6981  0.2656  0.4152
  502MOL0     C67656   3.763  -0.243   5.105  0.3250 -0.3323  0.4895
  502MOL0     C67657   3.718  -0.096   5.097 -0.1053 -0.1721  0.0811
  502MOL0     C67658   3.779  -0.040   4.967 -0.2466 -0.8337 -0.3245
  502MOL0     O67659   3.793   0.100   4.941 -0.2765 -0.6257 -0.2009
  502MOL0     C67660   3.852   0.151   4.823 -0.5627 -0.4846 -0.5421
  502MOL0     C67661   3.891   0.286   4.818 -0.0752 -0.1986 -0.0300
  502MOL0     C67662   3.939   0.334   4.694  0.4064 -0.4686 -0.0252
  502MOL0     C67663   3.999   0.475   4.696  1.2741 -0.4148  0.5090
  502MOL0     C67664   3.939   0.258   4.576  0.4900  0.2740  0.0522
  502MOL0     C67665   3.963   0.313   4.439  0.3892 -0.2467  1.0304
  502MOL0     O67666   3.908   0.242   4.329  0.1681 -0.6434  0.2247
  502MOL0     C67667   3.967   0.260   4.206 -0.6401 -0.3061  0.4858
  502MOL0     C67668   4.004   0.146   4.145 -0.7211 -0.3853  0.8551
  502MOL0     C67669   4.073   0.147   4.025  0.7417  0.4546  0.7662
  502MOL0     C67670   4.096   0.266   3.963 -0.3752 -0.1549 -0.6023
  502MOL0     O67671   4.170   0.258   3.850 -0.1487 -0.1986  0.3461
  502MOL0     C67672   4.206   0.373   3.779 -0.6977  0.4652 -0.0801
  502MOL0     C67673   4.283   0.326   3.654 -0.1367 -0.2838 -0.5834
  502MOL0     C67674   4.417   0.258   3.693  0.3985  0.8649 -0.3780
  502MOL0     C67675   4.476   0.180   3.576  0.1990  0.9613  0.5386
  502MOL0     C67676   4.611   0.102   3.609  0.2621 -0.1808  0.1202
  502MOL0     C67677   4.689   0.069   3.469  0.5866  0.4969 -1.1440
  502MOL0     C67678   4.600  -0.010   3.376 -0.5861  0.7969  0.0720
  502MOL0     C67679   4.659  -0.012   3.233  0.0888  0.0947  0.6084
  502MOL0    Cl67680   4.608   0.142   3.134  0.3348 -0.1159 -0.4484
  502MOL0     C67681   4.043   0.388   4.009 -0.3039  1.0777  0.5066
  502MOL0     C67682   3.980   0.383   4.138 -0.4818 -0.8059 -0.0919
  502MOL0     O67683   4.033   0.410   4.424 -0.2171  0.4524 -0.7654
  502MOL0     C67684   3.885   0.134   4.585 -0.4349 -0.4650 -0.0797
  502MOL0     C67685   3.851   0.071   4.706  0.2663  0.3625  0.0796
  502MOL0     N67686   3.514  -0.476   5.229  0.0945  0.2790 -0.5465
  502MOL0     N67687   3.384  -0.476   5.223  0.0369 -0.7344  0.0854
  502MOL0     C67688   3.785   0.165   5.369  0.7052  0.6743 -0.4907
  502MOL0     C67689   3.860   0.206   5.258 -1.0102 -0.5335 -0.3478
  502MOL0     C67690   4.266   0.283   5.020  0.6700  0.1993 -0.4566
  502MOL0     C67691   4.368   0.372   5.012 -0.7554 -0.7875 -0.7930
  502MOL0     C67692   4.430   0.388   4.884 -0.6658 -0.1208 -0.9275
  502MOL0     C67693   4.382   0.327   4.762 -0.5736  0.7835  0.5669
  502MOL0     O67694   4.442   0.351   4.641  0.3961 -0.2498  0.4229
  502MOL0     C67695   4.392   0.302   4.513 -0.3049 -0.5703 -0.3640
  502MOL0     C67696   4.494   0.305   4.399 -0.0279 -0.2758  0.6088
  502MOL0     C67697   4.630   0.255   4.422 -0.0556  0.0459  0.8363
  502MOL0     C67698   4.633   0.113   4.451  0.0967  0.5270 -0.1345
  502MOL0     C67699   4.765   0.047   4.463  1.1578  0.3179 -0.0198
  502MOL0     C67700   4.874  -0.009   4.447  0.7541 -0.1368  1.1362
  502MOL0     C67701   4.270   0.248   4.774  0.3966 -0.2331 -0.6151
  502MOL0     C67702   4.219   0.212   4.898  0.5567  1.1082 -0.6241
  502MOL0     H67703   4.141   0.036   5.328  2.2717  1.8396  2.7330
  502MOL0     H67704   4.017  -0.007   5.535  0.6925 -1.2521 -0.2372
  502MOL0     H67705   3.807  -0.154   5.543 -0.2311  0.9957 -0.1114
  502MOL0     H67706   3.855  -0.091   5.703 -2.5858  1.5124  2.1469
  502MOL0     H67707   3.676  -0.220   5.765  0.2322 -0.6147 -0.3177
  502MOL0     H67708   3.612  -0.051   5.738 -5.2834 -1.2638 -0.8707
  502MOL0     H67709   3.529  -0.113   5.527 -0.0691 -1.3926 -2.3647
  502MOL0     H67710   3.591  -0.282   5.539 -1.4395 -2.4326  2.6977
  502MOL0     H67711   3.451  -0.325   5.742 -0.9501 -2.4407 -2.2444
  502MOL0     H67712   3.392  -0.165   5.735 -3.0472  0.5966 -1.2302
  502MOL0     H67713   3.381  -0.374   5.497 -0.3600  1.6341 -2.0990
  502MOL0     H67714   3.252  -0.364   5.626  0.9806  0.9997  1.4958
  502MOL0     H67715   3.192  -0.147   5.555 -1.4243 -1.1131 -0.6826
  502MOL0     H67716   3.322  -0.132   5.444  0.9187  0.1848  2.0430
  502MOL0     H67717   3.113  -0.362   5.408 -1.2494  0.8117 -0.5574
  502MOL0     H67718   3.074  -0.203   5.372  0.6847  1.5206  0.8715
  502MOL0     H67719   3.183  -0.228   5.159 -1.9877 -0.5607  0.5124
  502MOL0     H67720   3.147  -0.389   5.184 -2.4583  2.4022 -0.2631
  502MOL0     H67721   3.460  -0.163   5.268  0.0931 -0.0389 -0.7135
  502MOL0     H67722   3.700  -0.233   5.329 -1.1410 -1.3568  1.5940
  502MOL0     H67723   3.764  -0.385   5.275 -2.4831 -0.5244  4.7244
  502MOL0     H67724   3.720  -0.294   5.018 -1.0625  1.6743 -0.0736
  502MOL0     H67725   3.870  -0.262   5.095  0.8410  2.8109 -1.4311
  502MOL0     H67726   3.764  -0.054   5.187 -1.9230  0.3915  0.8017
  502MOL0     H67727   3.610  -0.082   5.098 -0.2261 -0.8772 -1.3218
  502MOL0     H67728   3.725  -0.080   4.881  2.1244 -0.2015 -2.2505
  502MOL0     H67729   3.882  -0.076   4.974 -0.5045 -1.2262  1.9384
  502MOL0     H67730   3.888   0.354   4.902  0.5357  2.2058 -1.8441
  502MOL0     H67731   3.946   0.542   4.628 -0.6412 -1.4308  0.9115
  502MOL0     H67732   3.993   0.512   4.799 -0.6088 -1.5472  0.8662
  502MOL0     H67733   4.102   0.472   4.661  0.7351 -0.2865 -1.2021
  502MOL0     H67734   3.985   0.048   4.188  1.2241 -0.9135  0.6252
  502MOL0     H67735   4.107   0.055   3.980  0.4575  1.6633 -2.0942
  502MOL0     H67736   4.111   0.424   3.762 -2.4446 -2.0884  1.4554
  502MOL0     H67737   4.273   0.435   3.840 -2.1455  4.1244 -1.8695
  502MOL0     H67738   4.217   0.270   3.588 -2.2630  4.6050 -3.0785
  502MOL0     H67739   4.311   0.420   3.606 -4.0212  1.2868 -0.0717
  502MOL0     H67740   4.399   0.192   3.778 -1.9648  0.7236 -0.9175
  502MOL0     H67741   4.490   0.332   3.726  0.5616  1.2534 -1.5592
  502MOL0     H67742   4.405   0.118   3.522  1.5958  1.1221 -1.6102
  502MOL0     H67743   4.499   0.257   3.502 -0.8905 -1.2078 -2.2175
  502MOL0     H67744   4.570   0.010   3.650 -0.8764 -0.8600 -2.3456
  502MOL0     H67745   4.672   0.159   3.680 -0.9990  0.4747  0.7036
  502MOL0     H67746   4.712   0.168   3.428 -1.2028  1.0071 -0.9781
  502MOL0     H67747   4.782   0.014   3.483  0.6910  0.8813 -0.2369
  502MOL0     H67748   4.493   0.010   3.382 -0.5901  0.4516  2.0013
  502MOL0     H67749   4.610  -0.116   3.403 -1.4454  0.7975  0.4346
  502MOL0     H67750   4.604  -0.098   3.194  0.9916  0.4822 -1.6645
  502MOL0     H67751   4.766  -0.030   3.217 -0.2638 -1.2012 -0.4800
  502MOL0     H67752   4.053   0.483   3.957  2.0305 -0.0105 -1.2036
  502MOL0     H67753   3.939   0.473   4.183 -1.8903 -2.1934  1.5304
  502MOL0     H67754   3.861   0.083   4.492 -1.1056  2.8492 -1.8514
  502MOL0     H67755   3.823  -0.034   4.710  0.5998  0.1630 -1.8842
  502MOL0     H67756   3.681   0.196   5.371  0.7973  1.0774 -1.4508
  502MOL0     H67757   3.804   0.251   5.177  1.6355 -0.9845 -2.5500
  502MOL0     H67758   4.409   0.399   5.109 -1.1425 -1.0259 -0.5615
  502MOL0     H67759   4.518   0.449   4.868 -0.4881 -0.6218 -1.9209
  502MOL0     H67760   4.355   0.199   4.521 -1.2825 -0.2482 -0.6363
  502MOL0     H67761   4.307   0.365   4.485  0.6448  1.4980  1.1438
  502MOL0     H67762   4.499   0.407   4.358 -2.8013 -0.4845 -0.4827
  502MOL0     H67763   4.451   0.248   4.316  0.6097 -0.7547  0.6008
  502MOL0     H67764   4.679   0.319   4.496  1.5225  0.7092 -0.7035
  502MOL0     H67765   4.693   0.263   4.332 -0.4664 -0.3682  0.5068
  502MOL0     H67766   4.569   0.067   4.375 -1.1973 -0.1168  1.2899
  502MOL0     H67767   4.575   0.106   4.543  1.4929 -0.7744  0.6921
  502MOL0     H67768   4.964  -0.060   4.421 -0.7278 -1.5325 -1.7060
  502MOL0     H67769   4.205   0.224   4.691 -1.5076  1.6944  0.2176
  502MOL0     H67770   4.131   0.147   4.896  0.9639  0.5494 -0.6536
  503MOL0     O67771   8.366   2.212   1.996 -1.1539  0.0120  0.4092
  503MOL0     C67772   8.461   2.153   1.932 -0.1623 -0.2832 -0.3196
  503MOL0     O67773   8.564   2.219   1.862  0.0659 -0.8239 -0.9537
  503MOL0     C67774   8.550   2.353   1.863 -0.1670 -0.5247 -0.3405
  503MOL0     C67775   8.592   2.432   1.966 -0.0448 -0.0435  0.0628
  503MOL0     C67776   8.597   2.564   1.961  0.0040 -0.4206  1.2419
  503MOL0     C67777   8.564   2.629   1.837 -0.1305  0.0073 -1.2765
  503MOL0     O67778   8.552   2.768   1.837  0.2466 -0.1471 -0.2191
  503MOL0     C67779   8.666   2.837   1.895 -0.3120  0.9600  0.5413
  503MOL0     C67780   8.670   2.976   1.847  0.0115 -0.2607  0.2226
  503MOL0     C67781   8.535   3.063   1.870 -0.2516 -0.6303  0.0904
  503MOL0     C67782   8.451   3.060   1.747 -0.7433  0.1919 -0.7452
  503MOL0     C67783   8.491   3.145   1.627 -0.0185 -0.3600  0.2901
  503MOL0     C67784   8.459   3.296   1.635 -0.3916 -0.5372 -0.2436
  503MOL0     C67785   8.555   3.380   1.540  1.0028 -0.8060 -0.7335
  503MOL0     C67786   8.481   3.393   1.408 -0.3938 -0.3745  0.9901
  503MOL0     N67787   8.560   3.491   1.333 -0.3172 -0.1435  0.9332
  503MOL0     C67788   8.561   3.632   1.363 -0.1895 -0.4528  0.6823
  503MOL0     C67789   8.634   3.687   1.266 -0.2330  0.2413 -0.9170
  503MOL0     C67790   8.652   3.831   1.224 -0.1262  0.2161 -0.3182
  503MOL0     C67791   8.523   3.898   1.179 -0.7966 -0.5694 -0.1933
  503MOL0     C67792   8.426   3.924   1.297 -0.3224 -0.4016 -0.5674
  503MOL0     C67793   8.322   4.033   1.252 -0.5193  0.3611  0.0958
  503MOL0     O67794   8.367   4.168   1.263 -0.5627 -0.1955  0.4144
  503MOL0     C67795   8.382   4.229   1.378  0.1901 -0.9534  0.6472
  503MOL0     C67796   8.322   4.192   1.495 -0.3439 -0.5953  0.3477
  503MOL0     C67797   8.338   4.275   1.613  0.0621 -0.1767 -0.7042
  503MOL0     C67798   8.268   4.223   1.738  0.2013  0.6032 -0.2260
  503MOL0     C67799   8.386   4.406   1.602 -0.6390 -0.5071  0.0634
  503MOL0     C67800   8.394   4.500   1.708 -0.1799  0.1599  0.5677
  503MOL0     O67801   8.475   4.608   1.688  0.2782 -0.1104  0.0253
  503MOL0     C67802   8.477   4.698   1.791  1.3734  0.1996 -0.0637
  503MOL0     C67803   8.387   4.802   1.805 -0.4195  0.1758 -0.1203
  503MOL0     C67804   8.400   4.896   1.908  1.0221  0.1220 -1.0969
  503MOL0     C67805   8.515   4.894   1.987  0.3343 -0.6310  0.4311
  503MOL0     O67806   8.527   4.995   2.072  0.5404 -0.5583  0.4573
  503MOL0     C67807   8.623   4.978   2.175 -0.2724 -0.2317  0.1171
  503MOL0     C67808   8.628   5.103   2.248  0.0220  0.1463  0.2759
  503MOL0     C67809   8.695   5.213   2.166 -0.0028 -0.3669  1.2681
  503MOL0     C67810   8.691   5.352   2.241 -0.3158  1.3429 -0.7649
  503MOL0     C67811   8.748   5.480   2.171  0.3753  0.3843  0.5387
  503MOL0     C67812   8.896   5.470   2.159  0.0233  0.3341 -0.4721
  503MOL0     C67813   8.950   5.584   2.058 -0.1968 -0.1233 -0.5421
  503MOL0     C67814   8.934   5.727   2.123 -0.5698  0.4500  0.5711
  503MOL0    Cl67815   9.025   5.737   2.279  0.6732 -0.1060 -0.0269
  503MOL0     C67816   8.611   4.786   1.970 -0.5034 -1.1239  0.1411
  503MOL0     C67817   8.594   4.694   1.869 -0.0512 -0.3116  0.2356
  503MOL0     O67818   8.324   4.485   1.812 -0.3098  0.7324  0.6893
  503MOL0     C67819   8.450   4.438   1.479 -0.6721 -0.2310 -0.5716
  503MOL0     C67820   8.458   4.349   1.372 -0.9191 -0.8341  0.7085
  503MOL0     N67821   8.687   3.574   1.198 -0.1800 -0.4451 -0.0780
  503MOL0     N67822   8.652   3.457   1.241  0.3131 -1.0585  0.1518
  503MOL0     C67823   8.516   2.553   1.733  0.1225 -0.1104  0.7589
  503MOL0     C67824   8.518   2.416   1.739 -0.3053 -0.2227 -0.2253
  503MOL0     C67825   8.457   2.004   1.916  0.2823  0.2136  0.4335
  503MOL0     C67826   8.509   1.950   1.799  0.6688  0.3843  0.0978
  503MOL0     C67827   8.547   1.817   1.790  0.2345 -0.8338  0.3291
  503MOL0     C67828   8.523   1.720   1.892  0.3936  0.0851 -0.0198
  503MOL0     O67829   8.558   1.592   1.875 -0.0476  0.4101  0.2840
  503MOL0     C67830   8.479   1.485   1.927 -0.3651  0.1085 -0.1924
  503MOL0     C67831   8.557   1.434   2.039  0.8345  0.4593 -0.1184
  503MOL0     C67832   8.464   1.329   2.094 -0.1979  0.3784  0.6808
  503MOL0     C67833   8.523   1.259   2.218 -0.6968  0.2670 -0.7161
  503MOL0     C67834   8.531   1.353   2.331 -0.0678 -0.6593 -0.2279
  503MOL0     C67835   8.535   1.408   2.435  0.8691 -0.7027  0.0652
  503MOL0     C67836   8.452   1.772   2.009  0.3976  0.2719  0.9026
  503MOL0     C67837   8.425   1.910   2.019  0.4099  0.2871 -0.3686
  503MOL0     H67838   8.630   2.371   2.047  0.7336 -0.9745 -0.9602
  503MOL0     H67839   8.621   2.621   2.050 -0.0868 -1.1708  1.7618
  503MOL0     H67840   8.648   2.838   2.003  4.8314 -1.3725  1.7409
  503MOL0     H67841   8.761   2.784   1.886 -0.3870  0.7290  1.0730
  503MOL0     H67842   8.756   3.023   1.894  1.1411 -1.8455 -0.1585
  503MOL0     H67843   8.689   2.979   1.739 -1.9672 -0.3490 -0.1612
  503MOL0     H67844   8.475   3.029   1.955  0.2031 -1.7229 -0.0005
  503MOL0     H67845   8.570   3.166   1.879  2.2192 -0.6835 -5.2337
  503MOL0     H67846   8.445   2.955   1.718 -2.1248 -0.0218  0.2013
  503MOL0     H67847   8.345   3.090   1.751 -1.3785 -1.9683  0.2543
  503MOL0     H67848   8.601   3.144   1.622  0.0786  3.4009 -0.8351
  503MOL0     H67849   8.446   3.107   1.535  0.0013  1.9494 -0.7325
  503MOL0     H67850   8.354   3.321   1.617  0.2467  2.6475 -0.0328
  503MOL0     H67851   8.489   3.322   1.737  2.6732 -0.6488 -1.0195
  503MOL0     H67852   8.567   3.484   1.572 -1.1510 -0.9196  0.6169
  503MOL0     H67853   8.646   3.320   1.529  1.5683 -0.1389  0.1152
  503MOL0     H67854   8.380   3.432   1.409  0.5736  2.4407 -0.9378
  503MOL0     H67855   8.469   3.296   1.358  1.8067 -1.6838  2.7764
  503MOL0     H67856   8.501   3.686   1.435  2.5218  0.8508  2.1281
  503MOL0     H67857   8.693   3.883   1.310 -1.6535  1.7434 -0.4594
  503MOL0     H67858   8.721   3.836   1.140  2.4756  0.9080  1.7484
  503MOL0     H67859   8.469   3.837   1.106 -3.4154  1.0503  0.2519
  503MOL0     H67860   8.547   3.994   1.134 -0.7321  1.3674  3.5465
  503MOL0     H67861   8.472   3.963   1.388 -0.9227 -2.2055  0.5560
  503MOL0     H67862   8.374   3.832   1.323  0.6221 -0.3308  1.8900
  503MOL0     H67863   8.229   4.025   1.308  0.2316  0.7340  1.4484
  503MOL0     H67864   8.298   4.023   1.145 -1.0101  0.1788  0.2228
  503MOL0     H67865   8.267   4.099   1.500  1.6651 -1.8412  0.2216
  503MOL0     H67866   8.183   4.284   1.770 -0.0802  0.1343 -0.0657
  503MOL0     H67867   8.240   4.118   1.723  2.3222 -0.3987  2.0596
  503MOL0     H67868   8.341   4.218   1.819 -0.2586 -1.6627  0.1292
  503MOL0     H67869   8.306   4.810   1.733 -0.5192 -1.2346 -0.2069
  503MOL0     H67870   8.338   4.984   1.921 -1.5629 -1.4369 -2.0681
  503MOL0     H67871   8.591   4.898   2.243 -1.6758 -0.6387 -0.9690
  503MOL0     H67872   8.723   4.953   2.139 -0.3716  0.8942 -1.0120
  503MOL0     H67873   8.525   5.120   2.279 -0.4569 -0.7912 -0.7610
  503MOL0     H67874   8.693   5.080   2.334  0.0617  1.9953  0.8016
  503MOL0     H67875   8.658   5.232   2.065 -2.5035 -3.0386  1.5449
  503MOL0     H67876   8.799   5.188   2.140  0.2719  2.3523 -0.7157
  503MOL0     H67877   8.586   5.370   2.267  0.3183  1.5594  1.9184
  503MOL0     H67878   8.743   5.350   2.336 -1.1638 -1.2075 -0.2750
  503MOL0     H67879   8.717   5.570   2.225  1.1059  0.6851  0.4688
  503MOL0     H67880   8.694   5.475   2.076  0.9198 -1.8658  0.2764
  503MOL0     H67881   8.936   5.479   2.261 -1.2619 -0.1776  0.1050
  503MOL0     H67882   8.921   5.369   2.126  0.2730  0.2017  0.1003
  503MOL0     H67883   8.885   5.582   1.970 -0.7651  0.0443 -0.1328
  503MOL0     H67884   9.053   5.563   2.029  0.2074  0.8327  0.1569
  503MOL0     H67885   8.830   5.751   2.148 -0.0579  1.6797  1.5971
  503MOL0     H67886   8.966   5.811   2.060 -2.4058  2.5619  2.2784
  503MOL0     H67887   8.695   4.775   2.038 -3.7230  0.6755  4.9661
  503MOL0     H67888   8.670   4.619   1.850 -0.8087 -1.3799  1.2722
  503MOL0     H67889   8.493   4.535   1.461 -0.7707  0.0659  0.6990
  503MOL0     H67890   8.500   4.391   1.281 -1.0162 -0.0523  1.0205
  503MOL0     H67891   8.479   2.606   1.647 -1.4762 -0.5025  1.1748
  503MOL0     H67892   8.479   2.349   1.662 -0.0365  0.6159 -1.1134
  503MOL0     H67893   8.519   2.019   1.716 -2.9063  1.4850  0.3989
  503MOL0     H67894   8.593   1.790   1.696 -0.9323  2.3670 -1.3034
  503MOL0     H67895   8.385   1.521   1.969 -0.4347  2.4146 -2.1358
  503MOL0     H67896   8.465   1.403   1.855 -0.1168  0.5972 -0.8138
  503MOL0     H67897   8.569   1.518   2.108 -2.3130  0.7711  0.1597
  503MOL0     H67898   8.660   1.403   2.017  0.7805 -0.2766  0.5899
  503MOL0     H67899   8.435   1.262   2.013  1.0672  2.7612 -1.9231
  503MOL0     H67900   8.371   1.376   2.129 -1.8633 -1.5905 -0.8561
  503MOL0     H67901   8.626   1.233   2.194  0.8140  0.3129  4.5221
  503MOL0     H67902   8.459   1.172   2.235 -2.7593  1.5284 -1.6208
  503MOL0     H67903   8.536   1.465   2.526 -1.1947  1.2152 -1.0053
  503MOL0     H67904   8.427   1.705   2.091 -2.4143 -2.2043 -1.7219
  503MOL0     H67905   8.395   1.959   2.111 -1.8170 -2.6256  0.6039
  504MOL0     O67906   0.279   9.337  10.977  0.9300 -0.0532 -0.0290
  504MOL0     C67907   0.253   9.219  10.944 -0.4156 -1.1678  0.7281
  504MOL0     O67908   0.137   9.151  10.938  0.0695  0.9776 -0.5315
  504MOL0     C67909   0.010   9.210  10.948  0.3758 -0.1800 -0.0532
  504MOL0     C67910  -0.090   9.120  10.987  0.1094  0.3925  0.4161
  504MOL0     C67911  -0.227   9.153  10.996 -0.4677 -0.3166 -0.4944
  504MOL0     C67912  -0.265   9.283  10.959  0.6592 -0.3784 -0.3637
  504MOL0     O67913  -0.396   9.314  10.953  0.9900  0.1338  0.0896
  504MOL0     C67914  -0.444   9.441  10.907  0.7674  0.3941 -0.0169
  504MOL0     C67915  -0.595   9.418  10.903 -0.8151 -0.9135 -0.3074
  504MOL0     C67916  -0.670   9.542  10.864  0.6401  0.0537 -0.2151
  504MOL0     C67917  -0.677   9.553  10.712  0.6149 -0.0080 -0.3376
  504MOL0     C67918  -0.746   9.679  10.661 -0.5620 -0.4207 -0.6737
  504MOL0     C67919  -0.894   9.662  10.631 -0.2872 -0.8374  0.6786
  504MOL0     C67920  -0.930   9.761  10.511 -0.0497  0.1238 -0.3644
  504MOL0     C67921  -1.060   9.729  10.438  0.8520 -0.2771 -0.1713
  504MOL0     N67922  -1.060   9.612  10.348  0.8842  0.5113  0.5623
  504MOL0     C67923  -1.062   9.624  10.212 -0.1796  0.7018 -0.5270
  504MOL0     C67924  -1.067   9.489  10.173 -0.9285  0.3315 -0.2965
  504MOL0     C67925  -1.077   9.449  10.028 -1.3671 -0.5343  0.1060
  504MOL0     C67926  -0.946   9.489   9.946  0.4250 -0.7111  0.1050
  504MOL0     C67927  -0.940   9.447   9.801 -1.1241  0.7431  0.5434
  504MOL0     C67928  -0.801   9.476   9.742 -0.4886 -0.3104 -0.0480
  504MOL0     O67929  -0.769   9.618   9.731 -0.5905  0.1330 -0.4447
  504MOL0     C67930  -0.817   9.694   9.629  0.2213 -0.0249  0.0230
  504MOL0     C67931  -0.784   9.831   9.624  1.3858  0.3273 -0.5528
  504MOL0     C67932  -0.848   9.915   9.522  0.0757  0.0137  0.8074
  504MOL0     C67933  -0.809  10.064   9.509  0.1555  0.9846  0.1355
  504MOL0     C67934  -0.922   9.859   9.411 -0.2971  0.3157 -0.0501
  504MOL0     C67935  -0.983   9.935   9.303  0.9585  1.0265 -0.0261
  504MOL0     O67936  -1.101   9.996   9.330 -0.1793  0.3087  0.9778
  504MOL0     C67937  -1.164  10.091   9.247  0.0152  0.5027 -0.4500
  504MOL0     C67938  -1.287  10.137   9.287  0.3582 -0.1415 -0.2597
  504MOL0     C67939  -1.356  10.241   9.212 -0.4748  0.0402  0.1546
  504MOL0     C67940  -1.297  10.291   9.091  0.7700 -0.8775 -0.6809
  504MOL0     O67941  -1.365  10.399   9.027  0.2665  0.7545 -0.8562
  504MOL0     C67942  -1.329  10.415   8.890  0.0914 -0.0298  0.4966
  504MOL0     C67943  -1.368  10.312   8.787  0.1508  0.0887  0.2551
  504MOL0     C67944  -1.524  10.302   8.783 -0.0947 -0.4921  1.2800
  504MOL0     C67945  -1.584  10.418   8.703  0.6075  0.0940  0.9571
  504MOL0     C67946  -1.733  10.414   8.727 -0.0012  0.2023  0.3214
  504MOL0     C67947  -1.772  10.448   8.869  0.2430 -0.4191  0.1274
  504MOL0     C67948  -1.923  10.505   8.876 -0.4558  0.3515 -0.1582
  504MOL0     C67949  -1.973  10.486   9.018 -0.6433  0.9141  0.8606
  504MOL0    Cl67950  -2.137  10.546   9.044  0.0390 -0.0096  0.4347
  504MOL0     C67951  -1.173  10.243   9.059 -0.6577  0.3783  0.1586
  504MOL0     C67952  -1.104  10.141   9.125 -0.4568  0.2692 -0.3757
  504MOL0     O67953  -0.936   9.923   9.191 -0.9042  0.9623 -1.0038
  504MOL0     C67954  -0.958   9.722   9.423  0.1235  0.2869  0.3457
  504MOL0     C67955  -0.912   9.647   9.534 -0.0605  0.0815  0.7713
  504MOL0     N67956  -1.064   9.413  10.288 -0.5530  0.0876  0.0794
  504MOL0     N67957  -1.061   9.484  10.391  0.8675  0.0859  0.4734
  504MOL0     C67958  -0.164   9.374  10.920  0.2652 -1.2833  0.1041
  504MOL0     C67959  -0.029   9.339  10.914  0.9929  0.3016 -0.4048
  504MOL0     C67960   0.369   9.126  10.914  0.4843  0.5504  0.5269
  504MOL0     C67961   0.499   9.171  10.924  0.4677 -0.9975 -0.5781
  504MOL0     C67962   0.602   9.086  10.923 -0.6484  0.4060  0.0874
  504MOL0     C67963   0.591   8.947  10.905 -0.3096 -0.0895 -1.0264
  504MOL0     O67964   0.681   8.845  10.898  0.5317 -0.4996 -0.4742
  504MOL0     C67965   0.811   8.904  10.864 -0.3018  0.7595  0.1393
  504MOL0     C67966   0.919   8.787  10.858 -0.2990  0.5695 -0.0644
  504MOL0     C67967   0.997   8.783  10.993 -0.2162 -0.3102  0.3556
  504MOL0     C67968   0.910   8.751  11.120  0.5165 -0.0651 -0.0628
  504MOL0     C67969   0.998   8.721  11.230 -0.8927 -0.1372 -0.4897
  504MOL0     C67970   1.077   8.702  11.325 -0.6526  0.8407  0.1198
  504MOL0     C67971   0.462   8.906  10.876  0.8285  0.4353  0.2988
  504MOL0     C67972   0.355   8.992  10.878  0.3714 -0.1380 -0.8341
  504MOL0     H67973  -0.051   9.024  11.019 -0.5651  0.3948  1.2698
  504MOL0     H67974  -0.298   9.075  11.023  1.3875 -1.3178  1.8399
  504MOL0     H67975  -0.410   9.517  10.978  1.9406 -0.3404  0.2391
  504MOL0     H67976  -0.410   9.461  10.805 -1.0090  5.2825  0.0750
  504MOL0     H67977  -0.616   9.337  10.833  1.6808 -1.0437 -0.9912
  504MOL0     H67978  -0.620   9.383  11.004  0.5320 -1.6697 -0.2110
  504MOL0     H67979  -0.769   9.524  10.907  0.1471  0.3901 -1.1858
  504MOL0     H67980  -0.627   9.632  10.909 -1.0403  2.0435 -2.3947
  504MOL0     H67981  -0.579   9.542  10.665  0.7599  2.3641 -0.7137
  504MOL0     H67982  -0.737   9.470  10.673  2.0184 -1.7979  1.1453
  504MOL0     H67983  -0.718   9.767  10.720  1.9220 -0.6282 -1.4278
  504MOL0     H67984  -0.701   9.706  10.566  0.3979 -4.1183 -1.4046
  504MOL0     H67985  -0.907   9.563  10.586  0.1078 -0.4104 -0.3932
  504MOL0     H67986  -0.967   9.663  10.713 -1.7998  2.4215 -0.5332
  504MOL0     H67987  -0.938   9.864  10.548 -1.2405 -0.4201  1.0125
  504MOL0     H67988  -0.849   9.776  10.440 -0.5606  1.9485 -0.6199
  504MOL0     H67989  -1.086   9.811  10.370  1.7291  0.8405  0.8240
  504MOL0     H67990  -1.137   9.737  10.516  0.3018 -2.4422 -0.4140
  504MOL0     H67991  -1.063   9.712  10.149  2.9975  1.4543  0.2984
  504MOL0     H67992  -1.094   9.341  10.020 -3.3313 -0.1467 -3.0546
  504MOL0     H67993  -1.165   9.498   9.985  0.4273  1.7445 -1.2203
  504MOL0     H67994  -0.857   9.457  10.000  1.5537  0.6298 -0.8836
  504MOL0     H67995  -0.941   9.599   9.943  1.2196 -0.7167  1.0194
  504MOL0     H67996  -1.020   9.496   9.746 -0.1912  2.1196  0.3562
  504MOL0     H67997  -0.950   9.338   9.799 -0.9398  0.7281  0.4008
  504MOL0     H67998  -0.790   9.423   9.647 -0.4716 -1.2720  0.4722
  504MOL0     H67999  -0.724   9.440   9.810  0.7579  0.9982 -0.7175
  504MOL0     H68000  -0.714   9.854   9.704  0.5400 -1.2907  0.7118
  504MOL0     H68001  -0.707  10.079   9.547 -0.3072 -1.8306  2.9271
  504MOL0     H68002  -0.808  10.102   9.407  0.8326 -1.0914 -0.6890
  504MOL0     H68003  -0.872  10.138   9.560 -0.6639  0.9238 -0.7746
  504MOL0     H68004  -1.335  10.092   9.373 -0.6018 -1.8978 -1.6506
  504MOL0     H68005  -1.453  10.264   9.254 -0.4185  0.9984 -0.2156
  504MOL0     H68006  -1.373  10.507   8.851  0.2959 -0.5670 -1.0482
  504MOL0     H68007  -1.222  10.435   8.880 -0.3862  2.7454  0.1532
  504MOL0     H68008  -1.340  10.353   8.689 -0.1492 -0.9226 -0.2715
  504MOL0     H68009  -1.331  10.210   8.805 -1.8894 -1.3043 -2.5365
  504MOL0     H68010  -1.564  10.290   8.884 -0.8975  2.2019  1.3730
  504MOL0     H68011  -1.557  10.212   8.730  1.4722 -1.7353  2.3500
  504MOL0     H68012  -1.540  10.510   8.741 -0.5482  1.8337 -1.6609
  504MOL0     H68013  -1.552  10.415   8.598  0.4747 -1.5734  0.9314
  504MOL0     H68014  -1.782  10.319   8.703 -2.9296  1.8380 -0.8031
  504MOL0     H68015  -1.780  10.492   8.667  0.1328  0.8493  1.0432
  504MOL0     H68016  -1.757  10.362   8.935  0.0616  0.7797  1.7667
  504MOL0     H68017  -1.711  10.529   8.909 -0.6508  1.9625 -2.9579
  504MOL0     H68018  -1.985  10.448   8.806  0.7688  2.7784 -3.5077
  504MOL0     H68019  -1.928  10.610   8.844 -1.5448  0.5767  0.7013
  504MOL0     H68020  -1.905  10.545   9.081  0.9569 -0.0988  0.1421
  504MOL0     H68021  -1.963  10.379   9.039  1.8216  0.6768 -1.1429
  504MOL0     H68022  -1.127  10.284   8.969  0.0277 -0.4777  0.1067
  504MOL0     H68023  -1.023  10.101   9.065  1.3479  0.7243  1.6063
  504MOL0     H68024  -1.011   9.680   9.339  5.3524  0.8701 -3.7399
  504MOL0     H68025  -0.943   9.544   9.523  2.4513 -0.5213 -2.0592
  504MOL0     H68026  -0.186   9.474  10.883 -3.5523 -1.0595  2.4876
  504MOL0     H68027   0.054   9.401  10.879  2.1410 -0.6279  0.6074
  504MOL0     H68028   0.509   9.277  10.947 -0.6019 -1.4266  2.2170
  504MOL0     H68029   0.700   9.131  10.939  0.1271 -1.0142 -0.4556
  504MOL0     H68030   0.795   8.946  10.765  1.5113 -1.6111 -1.2578
  504MOL0     H68031   0.842   8.983  10.933 -3.3961  2.7629 -0.5775
  504MOL0     H68032   0.989   8.816  10.778  0.0984  2.8455  1.0353
  504MOL0     H68033   0.897   8.680  10.852  1.4682  0.0401  1.7363
  504MOL0     H68034   1.050   8.879  10.994  0.7733 -0.4849 -4.9490
  504MOL0     H68035   1.075   8.706  10.990 -0.8747 -1.0424  1.4132
  504MOL0     H68036   0.845   8.665  11.101 -0.4714  0.0584  2.4303
  504MOL0     H68037   0.846   8.834  11.149  1.9162  0.6469  1.1475
  504MOL0     H68038   1.152   8.711  11.401  2.6823  1.5347 -2.9809
  504MOL0     H68039   0.447   8.800  10.862 -1.3019  0.5863  1.0197
  504MOL0     H68040   0.262   8.938  10.862  0.1299 -0.2353  0.7576
  505MOL0     O68041   3.176  10.651   1.094  0.2445  0.0732  0.2975
  505MOL0     C68042   3.128  10.680   0.985  0.1936  0.0899 -0.1212
  505MOL0     O68043   3.177  10.773   0.904 -0.8729 -0.7688  0.1915
  505MOL0     C68044   3.234  10.876   0.963  1.0439 -0.1285 -0.5751
  505MOL0     C68045   3.366  10.895   0.940 -0.1304 -0.0034  0.0611
  505MOL0     C68046   3.427  11.004   0.993  0.1516 -0.0936 -0.0464
  505MOL0     C68047   3.361  11.099   1.079  0.4213 -0.5758  0.7410
  505MOL0     O68048   3.428  11.201   1.138 -0.1549 -0.2367  0.3535
  505MOL0     C68049   3.567  11.210   1.131  0.3341 -0.1941  0.2224
  505MOL0     C68050   3.627  11.318   1.223  0.0018  0.3625  0.0153
  505MOL0     C68051   3.738  11.262   1.310  0.4615 -0.0178 -0.6165
  505MOL0     C68052   3.809  11.356   1.406 -0.7687  0.8849 -0.6743
  505MOL0     C68053   3.898  11.274   1.497 -0.3140 -1.0112 -0.0871
  505MOL0     C68054   3.943  11.354   1.621 -1.3697 -0.6860 -0.2896
  505MOL0     C68055   4.009  11.275   1.736  0.3778  1.2346 -0.3189
  505MOL0     C68056   4.014  11.335   1.873 -0.1017 -0.5542 -0.4372
  505MOL0     N68057   4.095  11.459   1.878 -0.4866 -0.2783 -0.2113
  505MOL0     C68058   4.232  11.458   1.894 -0.4524  0.0119 -0.4370
  505MOL0     C68059   4.266  11.580   1.854  0.2519  0.5957  0.0406
  505MOL0     C68060   4.413  11.623   1.840  0.3712 -0.2688 -0.9716
  505MOL0     C68061   4.447  11.754   1.914 -0.2559 -0.9010 -0.1585
  505MOL0     C68062   4.368  11.870   1.845 -0.3871 -0.3155 -0.2491
  505MOL0     C68063   4.414  12.008   1.886  0.5555  0.6274  0.4767
  505MOL0     O68064   4.541  12.037   1.831 -0.4239 -0.7876  0.2679
  505MOL0     C68065   4.614  12.142   1.881  0.0465  0.2872 -0.1960
  505MOL0     C68066   4.749  12.147   1.836  0.0679 -0.9592 -0.6535
  505MOL0     C68067   4.844  12.237   1.893 -0.4217  0.4845  0.6547
  505MOL0     C68068   4.993  12.230   1.850 -0.3006 -0.1646  0.2373
  505MOL0     C68069   4.798  12.324   1.993 -0.2326 -0.5527 -0.5759
  505MOL0     C68070   4.890  12.426   2.061 -0.4404  1.1687 -0.4279
  505MOL0     O68071   4.890  12.416   2.195 -0.3887  0.7359  0.0132
  505MOL0     C68072   4.971  12.497   2.267  0.1311  0.1580 -0.1600
  505MOL0     C68073   5.062  12.427   2.343 -0.1461  0.2782 -0.1295
  505MOL0     C68074   5.162  12.490   2.417 -0.3852  0.0088  1.1814
  505MOL0     C68075   5.172  12.628   2.428  0.6355  0.5386 -0.6804
  505MOL0     O68076   5.255  12.699   2.518  1.2277  0.4334  0.2949
  505MOL0     C68077   5.316  12.625   2.628  0.2073  0.1930  0.4949
  505MOL0     C68078   5.394  12.718   2.725 -0.0112 -0.6882 -1.2030
  505MOL0     C68079   5.463  12.620   2.834  0.2136 -0.1383  0.6596
  505MOL0     C68080   5.533  12.703   2.943 -0.0322  0.6317 -0.8661
  505MOL0     C68081   5.554  12.603   3.060  0.3055 -0.6068 -0.7649
  505MOL0     C68082   5.641  12.682   3.168  0.6305  1.2877 -0.0656
  505MOL0     C68083   5.725  12.573   3.238 -0.0177 -1.1546 -0.1054
  505MOL0     C68084   5.785  12.617   3.376 -0.1419  0.0109  0.4865
  505MOL0    Cl68085   5.914  12.499   3.427 -0.1905 -0.9956 -0.2123
  505MOL0     C68086   5.070  12.703   2.365  0.0570  0.7391 -0.9060
  505MOL0     C68087   4.971  12.638   2.287 -0.6065  0.1060 -0.2546
  505MOL0     O68088   4.946  12.508   1.997 -0.1888  0.2885  0.2194
  505MOL0     C68089   4.664  12.326   2.026  0.1266  0.2289 -1.3329
  505MOL0     C68090   4.571  12.229   1.984  0.0554  1.4936  0.0765
  505MOL0     N68091   4.152  11.651   1.815 -0.0461  0.5915  0.6138
  505MOL0     N68092   4.052  11.574   1.826 -0.7398  1.4307 -0.4645
  505MOL0     C68093   3.233  11.088   1.098  0.4149  0.1592 -1.0857
  505MOL0     C68094   3.167  10.968   1.048 -0.6731 -0.4634  0.1920
  505MOL0     C68095   3.036  10.580   0.929  0.4482  0.8143 -0.0713
  505MOL0     C68096   2.969  10.484   1.003  0.5340 -0.1316  0.3132
  505MOL0     C68097   2.865  10.411   0.942 -0.6286 -0.0738  0.3554
  505MOL0     C68098   2.846  10.403   0.805 -0.2145  1.0886 -0.1953
  505MOL0     O68099   2.755  10.314   0.760  0.1112 -0.6581  0.1921
  505MOL0     C68100   2.655  10.345   0.659 -0.2277 -0.0238 -1.2669
  505MOL0     C68101   2.548  10.241   0.683  0.1380  0.7196  0.2826
  505MOL0     C68102   2.598  10.101   0.651  0.6915 -0.6044 -0.1110
  505MOL0     C68103   2.494   9.996   0.680  0.2885  0.1132  0.0688
  505MOL0     C68104   2.507   9.941   0.819  0.4526 -0.4708 -0.1073
  505MOL0     C68105   2.496   9.884   0.927  0.2034  0.4051 -0.1389
  505MOL0     C68106   2.908  10.497   0.728  0.6461  0.1398  0.0027
  505MOL0     C68107   3.004  10.591   0.793  0.0352  0.0551  0.2178
  505MOL0     H68108   3.414  10.839   0.860  0.9457  4.9926 -3.2712
  505MOL0     H68109   3.530  11.020   0.964  0.7886  0.7060  2.4404
  505MOL0     H68110   3.620  11.118   1.156 -0.0759 -0.6446 -0.5410
  505MOL0     H68111   3.600  11.235   1.029 -0.5878  4.7587  0.8762
  505MOL0     H68112   3.666  11.395   1.157  2.3685  0.0044  0.9185
  505MOL0     H68113   3.549  11.372   1.278 -2.4982 -1.3019 -1.6270
  505MOL0     H68114   3.688  11.190   1.376 -1.5147 -0.1133 -2.1305
  505MOL0     H68115   3.814  11.212   1.249  0.4959 -1.3604  0.4861
  505MOL0     H68116   3.859  11.425   1.337  1.3410 -1.1113 -1.2872
  505MOL0     H68117   3.728  11.408   1.458 -1.6207 -1.6981  0.7921
  505MOL0     H68118   3.835  11.191   1.532  0.3047  0.0636  4.0824
  505MOL0     H68119   3.976  11.231   1.434  0.9576 -0.5101  1.0963
  505MOL0     H68120   4.016  11.428   1.588 -1.5571  1.6982  3.9357
  505MOL0     H68121   3.861  11.404   1.672  0.7305 -1.2278  4.0068
  505MOL0     H68122   3.955  11.180   1.740 -0.3777  1.6361 -0.7207
  505MOL0     H68123   4.112  11.246   1.713  1.3555  1.1902  3.5308
  505MOL0     H68124   4.060  11.261   1.939 -0.4115  1.0801  1.7487
  505MOL0     H68125   3.914  11.355   1.912  0.6119  0.6235  0.8824
  505MOL0     H68126   4.289  11.377   1.938 -0.3193  1.8781  3.1419
  505MOL0     H68127   4.478  11.553   1.892  1.5706  2.5501  1.5942
  505MOL0     H68128   4.437  11.632   1.734  1.0621 -0.5637 -0.8413
  505MOL0     H68129   4.554  11.772   1.904 -0.1038 -0.9166  1.2779
  505MOL0     H68130   4.412  11.739   2.016  1.6055 -4.0231  0.1279
  505MOL0     H68131   4.262  11.864   1.870 -0.0584  2.2357  2.1833
  505MOL0     H68132   4.374  11.852   1.737 -3.2229  0.8280 -0.6725
  505MOL0     H68133   4.408  12.009   1.995  2.0004  1.1976  0.5693
  505MOL0     H68134   4.343  12.087   1.859  1.3324  1.3807  0.6021
  505MOL0     H68135   4.791  12.075   1.767  2.2096 -0.4760  0.0876
  505MOL0     H68136   5.058  12.196   1.931  0.7837 -0.7620 -0.8368
  505MOL0     H68137   5.000  12.156   1.770 -0.0835 -1.5048  1.4529
  505MOL0     H68138   5.010  12.335   1.824 -3.1184  0.1429 -0.6326
  505MOL0     H68139   5.063  12.318   2.339 -0.3446  0.2756 -0.0812
  505MOL0     H68140   5.230  12.426   2.471 -0.9042 -1.1766  0.4615
  505MOL0     H68141   5.247  12.563   2.686 -0.8698  0.2777 -0.6373
  505MOL0     H68142   5.385  12.562   2.572 -0.6347 -1.6002  1.3896
  505MOL0     H68143   5.455  12.779   2.659 -0.8209 -1.4948 -2.7410
  505MOL0     H68144   5.322  12.781   2.779  0.3189 -3.4865  2.9758
  505MOL0     H68145   5.525  12.548   2.780  0.4132 -0.5239  1.3992
  505MOL0     H68146   5.386  12.562   2.884  0.7812 -1.4697  0.0390
  505MOL0     H68147   5.626  12.748   2.908 -0.0514  2.4827  1.2643
  505MOL0     H68148   5.476  12.789   2.978  4.6988  3.4797  0.7694
  505MOL0     H68149   5.608  12.515   3.025  2.2118  0.5503 -0.9163
  505MOL0     H68150   5.460  12.564   3.100  0.7584  0.5346  1.5678
  505MOL0     H68151   5.713  12.750   3.122  2.4896  1.0569  2.2871
  505MOL0     H68152   5.584  12.738   3.243  2.1212  2.0980  0.4939
  505MOL0     H68153   5.816  12.557   3.179  1.6652 -1.0922  2.3457
  505MOL0     H68154   5.673  12.477   3.234 -1.4542 -0.3841 -3.3522
  505MOL0     H68155   5.723  12.618   3.466 -0.0204 -2.3328  0.6617
  505MOL0     H68156   5.835  12.713   3.361  1.1009 -0.4308  1.6186
  505MOL0     H68157   5.070  12.811   2.379  0.0295  0.2622  6.1687
  505MOL0     H68158   4.898  12.690   2.226  0.6048  0.2861 -1.5778
  505MOL0     H68159   4.631  12.390   2.107  0.2562  0.6183 -1.5845
  505MOL0     H68160   4.477  12.221   2.036  0.1094 -1.9519 -0.0685
  505MOL0     H68161   3.183  11.153   1.170 -0.3864 -2.7317  1.1520
  505MOL0     H68162   3.066  10.940   1.074 -1.1215  0.3640 -0.6110
  505MOL0     H68163   2.992  10.456   1.106  1.8496  0.2967  0.1551
  505MOL0     H68164   2.821  10.341   1.012  0.6187 -2.0364 -0.7502
  505MOL0     H68165   2.612  10.444   0.676 -1.6092 -0.9571  1.2193
  505MOL0     H68166   2.704  10.342   0.562 -0.9419  1.2025 -1.6860
  505MOL0     H68167   2.466  10.264   0.616  0.1113  0.8303  0.3518
  505MOL0     H68168   2.512  10.234   0.786  0.7324 -0.2085  0.4473
  505MOL0     H68169   2.682  10.084   0.719 -0.1817  0.6009  1.3174
  505MOL0     H68170   2.627  10.090   0.546  2.2959  1.4445  0.0495
  505MOL0     H68171   2.500   9.920   0.602  1.7588  1.7692 -1.5318
  505MOL0     H68172   2.395  10.038   0.661 -0.9053 -0.5205  4.0688
  505MOL0     H68173   2.453   9.837   1.012  0.1085 -0.6790 -0.7689
  505MOL0     H68174   2.884  10.498   0.622 -0.5368 -1.0006  0.2370
  505MOL0     H68175   3.036  10.668   0.724 -2.2906 -0.2886 -1.3781
  506MOL0     O68176   6.186   1.492   5.746 -0.1552  0.1863  0.1637
  506MOL0     C68177   6.129   1.531   5.647 -0.3289 -0.0700  0.5838
  506MOL0     O68178   6.029   1.460   5.579  0.0993 -0.0137 -0.0055
  506MOL0     C68179   6.011   1.328   5.621 -0.0235 -0.5441  1.0718
  506MOL0     C68180   5.899   1.274   5.692 -0.1486 -0.3865 -0.3711
  506MOL0     C68181   5.900   1.133   5.716 -0.1712  0.0526  0.2676
  506MOL0     C68182   6.004   1.045   5.676  0.2014  0.0686 -0.2209
  506MOL0     O68183   5.994   0.904   5.704  0.5661 -0.2535 -0.1181
  506MOL0     C68184   6.116   0.831   5.686 -0.4215 -0.0468  0.0166
  506MOL0     C68185   6.105   0.686   5.741 -0.5514  0.0046 -0.2749
  506MOL0     C68186   6.106   0.684   5.900  0.6354 -0.3970  1.3811
  506MOL0     C68187   6.042   0.550   5.954  0.3635  0.4394  0.0030
  506MOL0     C68188   6.056   0.544   6.103 -0.5966  0.6003  0.0391
  506MOL0     C68189   5.954   0.644   6.164 -0.9618  0.3945 -1.3304
  506MOL0     C68190   5.911   0.604   6.313  0.4988 -0.2016  0.1305
  506MOL0     C68191   5.801   0.693   6.387 -0.2858 -0.2787 -1.2937
  506MOL0     N68192   5.861   0.795   6.469  0.1594 -0.6497 -0.1848
  506MOL0     C68193   5.946   0.889   6.424  0.5229 -0.3045 -0.6494
  506MOL0     C68194   5.996   0.944   6.544 -0.2123 -0.1916  0.3047
  506MOL0     C68195   6.110   1.031   6.571 -0.4386  0.9770 -0.3362
  506MOL0     C68196   6.069   1.154   6.663  0.5503  0.0725  0.2051
  506MOL0     C68197   6.183   1.250   6.700  0.3570  0.8600  0.4337
  506MOL0     C68198   6.237   1.331   6.579  0.5169  0.1841 -0.0207
  506MOL0     O68199   6.123   1.382   6.513 -0.0460 -0.5559 -0.8138
  506MOL0     C68200   6.137   1.439   6.391  0.4764 -0.2479 -0.4607
  506MOL0     C68201   6.251   1.417   6.316  0.4693  0.3846  0.8102
  506MOL0     C68202   6.256   1.484   6.186  0.7291  0.4335  1.2818
  506MOL0     C68203   6.372   1.450   6.087  0.0650 -0.4673  0.4014
  506MOL0     C68204   6.145   1.566   6.138  0.3005  0.3357  0.0926
  506MOL0     C68205   6.138   1.637   6.014 -0.4886 -0.9708  0.0796
  506MOL0     O68206   6.013   1.675   5.970  0.8897 -0.4241 -0.3445
  506MOL0     C68207   5.993   1.771   5.869 -0.4926 -0.0322  0.3672
  506MOL0     C68208   6.070   1.887   5.846 -0.5195 -0.0132 -0.0780
  506MOL0     C68209   6.043   1.982   5.749  0.1259 -0.7428  0.0161
  506MOL0     C68210   5.926   1.975   5.671 -0.2531 -0.3144 -0.2066
  506MOL0     O68211   5.899   2.064   5.568  0.5472  0.4185  0.1184
  506MOL0     C68212   6.001   2.150   5.517 -0.2437  0.3747 -0.1125
  506MOL0     C68213   5.964   2.217   5.386 -0.0899  0.5908 -0.7077
  506MOL0     C68214   5.956   2.125   5.266 -0.4154  0.1131  0.2762
  506MOL0     C68215   5.902   2.209   5.146 -0.0875 -0.0155 -0.6294
  506MOL0     C68216   5.989   2.209   5.023 -0.4514 -0.8274 -0.0859
  506MOL0     C68217   5.975   2.084   4.936 -0.6472  0.5351  0.5017
  506MOL0     C68218   6.049   2.106   4.805 -0.0177 -0.7339 -0.7439
  506MOL0     C68219   6.040   1.994   4.700 -0.3672  0.1477 -0.1615
  506MOL0    Cl68220   6.123   1.841   4.759  0.4978 -0.9295 -0.1351
  506MOL0     C68221   5.845   1.864   5.701  0.8868  0.8845 -0.0576
  506MOL0     C68222   5.873   1.773   5.806  0.6096 -0.5057  0.3652
  506MOL0     O68223   6.240   1.686   5.962 -0.1643  0.3311 -0.1839
  506MOL0     C68224   6.041   1.576   6.225  0.3396 -0.5441  0.0008
  506MOL0     C68225   6.035   1.514   6.347 -0.4588  1.0293  0.7909
  506MOL0     N68226   5.931   0.872   6.647 -0.0200 -0.2164  0.4715
  506MOL0     N68227   5.861   0.776   6.601  0.8113 -0.0423 -0.8045
  506MOL0     C68228   6.104   1.100   5.586  0.7289 -0.0068  0.8355
  506MOL0     C68229   6.100   1.236   5.567 -0.7381 -0.2826  0.9966
  506MOL0     C68230   6.178   1.658   5.576  0.2806  0.1781 -0.2829
  506MOL0     C68231   6.277   1.743   5.628 -0.5648 -0.4092 -0.1332
  506MOL0     C68232   6.317   1.858   5.562 -0.7113  0.8351  0.7473
  506MOL0     C68233   6.269   1.895   5.432 -0.7321 -1.0301 -0.5155
  506MOL0     O68234   6.311   2.009   5.368  0.1416  0.4949 -0.3012
  506MOL0     C68235   6.407   2.099   5.425  0.6329  0.6117 -0.0958
  506MOL0     C68236   6.461   2.181   5.310 -0.0994  0.5424 -0.3226
  506MOL0     C68237   6.349   2.267   5.245 -0.0215  0.4041  0.4815
  506MOL0     C68238   6.369   2.420   5.241  0.4237 -0.0987  0.0004
  506MOL0     C68239   6.279   2.484   5.145  0.4508 -0.0213  0.6240
  506MOL0     C68240   6.195   2.515   5.070  0.0836 -0.8087 -0.9425
  506MOL0     C68241   6.179   1.803   5.373 -0.2940 -0.1408  0.1772
  506MOL0     C68242   6.135   1.690   5.445  0.5263  0.0926  2.0259
  506MOL0     H68243   5.819   1.342   5.719  1.2957  1.6405 -0.9928
  506MOL0     H68244   5.815   1.084   5.762 -0.4916 -1.2279 -1.5908
  506MOL0     H68245   6.134   0.826   5.578 -0.8580 -0.0738 -0.0557
  506MOL0     H68246   6.202   0.873   5.740 -1.2402 -0.1311  1.4196
  506MOL0     H68247   6.008   0.649   5.709 -0.4608 -0.1665 -0.3543
  506MOL0     H68248   6.183   0.615   5.713 -0.5369 -0.0559 -0.0851
  506MOL0     H68249   6.203   0.691   5.949  1.9169 -2.2383 -0.6713
  506MOL0     H68250   6.030   0.756   5.932 -2.3070 -2.5710 -0.1100
  506MOL0     H68251   5.942   0.535   5.913  0.0335  3.7624 -0.7095
  506MOL0     H68252   6.110   0.477   5.909 -2.4196 -2.6779  0.5549
  506MOL0     H68253   6.038   0.444   6.143 -2.9092  0.1485 -1.9705
  506MOL0     H68254   6.157   0.570   6.136 -1.3314  3.8347  0.0915
  506MOL0     H68255   6.005   0.740   6.158 -1.4768  0.7479 -0.3020
  506MOL0     H68256   5.861   0.633   6.108 -2.0965 -2.8173  0.8864
  506MOL0     H68257   5.875   0.501   6.309  0.4941 -0.1709 -1.8573
  506MOL0     H68258   6.002   0.608   6.373  0.2629  3.2309  0.4776
  506MOL0     H68259   5.727   0.641   6.448 -1.5867  1.1533 -1.5956
  506MOL0     H68260   5.741   0.743   6.311 -1.5159  0.8429  0.3707
  506MOL0     H68261   5.961   0.922   6.322  1.5195 -0.3147 -0.5196
  506MOL0     H68262   6.190   0.981   6.625 -1.0854 -2.0275 -1.9768
  506MOL0     H68263   6.168   1.062   6.484  0.0864  1.5795  0.2095
  506MOL0     H68264   6.033   1.119   6.760  0.1088 -1.0175 -0.3368
  506MOL0     H68265   5.984   1.203   6.613  1.0757  0.5605 -0.2294
  506MOL0     H68266   6.272   1.191   6.725  0.1793 -0.4388 -1.8135
  506MOL0     H68267   6.163   1.311   6.789  0.5711  0.5889  0.6692
  506MOL0     H68268   6.301   1.268   6.517  0.0762  0.1558 -0.4544
  506MOL0     H68269   6.300   1.410   6.620  0.0096  2.1518 -2.7629
  506MOL0     H68270   6.336   1.356   6.346  1.0007  1.3627  1.3639
  506MOL0     H68271   6.437   1.535   6.066  0.2343 -1.4166 -4.0683
  506MOL0     H68272   6.431   1.366   6.125  1.0601  0.7457  1.6168
  506MOL0     H68273   6.330   1.415   5.992  1.0571 -1.8418  0.4239
  506MOL0     H68274   6.169   1.895   5.889 -0.3867 -3.4180  0.5023
  506MOL0     H68275   6.114   2.062   5.730  0.1657 -0.8268 -0.1982
  506MOL0     H68276   6.022   2.225   5.594 -1.6859 -0.9910  1.6786
  506MOL0     H68277   6.086   2.082   5.506 -2.6044 -2.9795  0.8917
  506MOL0     H68278   5.870   2.272   5.392 -1.1054 -1.2014  0.8384
  506MOL0     H68279   6.050   2.282   5.367 -0.8140  1.5261 -0.8247
  506MOL0     H68280   5.885   2.045   5.288 -3.5942  2.5214 -0.4141
  506MOL0     H68281   6.059   2.098   5.241 -1.0598 -2.6978  0.3405
  506MOL0     H68282   5.799   2.199   5.111 -0.7423  2.0934  0.5510
  506MOL0     H68283   5.903   2.313   5.180  0.6027  0.3243 -1.6369
  506MOL0     H68284   6.097   2.221   5.037 -0.0447  0.0509 -3.2241
  506MOL0     H68285   5.958   2.292   4.958  1.0901  0.9834  1.3632
  506MOL0     H68286   6.029   2.002   4.986  1.0032 -1.4478 -4.0178
  506MOL0     H68287   5.879   2.040   4.910  0.4745 -2.4144  0.9459
  506MOL0     H68288   6.150   2.131   4.839 -0.8430 -1.6885  2.9085
  506MOL0     H68289   5.992   2.192   4.770 -0.6683 -0.0645  1.7662
  506MOL0     H68290   6.081   2.024   4.603 -1.3921 -0.0654 -0.6808
  506MOL0     H68291   5.934   1.972   4.689 -0.5020  0.2663  0.7742
  506MOL0     H68292   5.743   1.869   5.664 -0.4607 -1.2923  2.9089
  506MOL0     H68293   5.807   1.689   5.829  0.5784 -0.4795  0.3722
  506MOL0     H68294   5.951   1.634   6.208  1.6219  1.1631 -1.2266
  506MOL0     H68295   5.956   1.513   6.421 -0.6385 -1.7861  0.6910
  506MOL0     H68296   6.177   1.046   5.528 -0.1294  2.0419 -2.3930
  506MOL0     H68297   6.186   1.278   5.516  1.2940  0.6844  4.8337
  506MOL0     H68298   6.315   1.720   5.727 -0.0815  3.4961  0.7354
  506MOL0     H68299   6.390   1.924   5.608  1.9133 -0.3804 -1.3627
  506MOL0     H68300   6.351   2.161   5.495 -1.7713  1.2150 -2.3677
  506MOL0     H68301   6.494   2.048   5.468  1.7784 -1.0638 -3.9694
  506MOL0     H68302   6.509   2.110   5.242  0.0174  1.2941 -1.0480
  506MOL0     H68303   6.540   2.246   5.349  2.1907  1.0026 -5.0404
  506MOL0     H68304   6.251   2.250   5.289  0.3894  0.1061  1.2894
  506MOL0     H68305   6.339   2.230   5.142  1.5791  0.9558  0.0968
  506MOL0     H68306   6.470   2.435   5.202 -0.4196  1.7776 -1.6605
  506MOL0     H68307   6.365   2.460   5.343  1.7948 -0.2168  0.1233
  506MOL0     H68308   6.114   2.526   5.001  0.3492 -0.4405 -1.1946
  506MOL0     H68309   6.143   1.833   5.275 -0.7967  0.9493  0.6737
  506MOL0     H68310   6.069   1.618   5.398  4.2162 -2.2183 -0.1255
  507MOL0     O68311   5.231   1.177   7.733  0.5189 -0.0533 -1.1239
  507MOL0     C68312   5.183   1.218   7.844 -0.2004  0.2813  0.0652
  507MOL0     O68313   5.253   1.227   7.965 -0.0103  0.1175  0.2683
  507MOL0     C68314   5.379   1.188   7.989 -0.9785 -0.1711  0.1277
  507MOL0     C68315   5.409   1.175   8.121 -0.1602  0.1101  0.3911
  507MOL0     C68316   5.537   1.137   8.168  0.0291 -0.2284 -0.2138
  507MOL0     C68317   5.631   1.103   8.073  0.0977 -0.1029 -0.6763
  507MOL0     O68318   5.762   1.066   8.104  1.0254  0.1523  0.3401
  507MOL0     C68319   5.822   1.089   8.233  0.3577  0.2844  0.4286
  507MOL0     C68320   5.827   1.238   8.277 -0.5337  0.3028 -0.5641
  507MOL0     C68321   5.897   1.271   8.412 -0.2253 -0.2633 -0.2330
  507MOL0     C68322   5.843   1.204   8.536  0.9351 -0.4355  0.2015
  507MOL0     C68323   5.686   1.202   8.547 -0.5988 -0.3831 -0.5332
  507MOL0     C68324   5.627   1.349   8.544 -0.3810  1.0346 -0.8894
  507MOL0     C68325   5.664   1.440   8.664 -0.3623  0.8227  0.4122
  507MOL0     C68326   5.637   1.581   8.622  0.0843  0.2230 -0.2143
  507MOL0     N68327   5.672   1.665   8.740  0.0530 -0.2680  0.7848
  507MOL0     C68328   5.585   1.754   8.794  0.3538  0.2646 -1.0875
  507MOL0     C68329   5.653   1.834   8.879 -0.5018 -0.2740  1.2089
  507MOL0     C68330   5.580   1.922   8.976 -0.3505  0.0615  0.1950
  507MOL0     C68331   5.514   2.031   8.898 -0.4090  0.6535 -0.4705
  507MOL0     C68332   5.417   2.088   8.996  0.0539 -0.2834  0.2627
  507MOL0     C68333   5.334   2.204   8.950  0.1583  0.4540  0.1571
  507MOL0     O68334   5.413   2.315   8.938 -0.7589  0.3362  0.0663
  507MOL0     C68335   5.344   2.429   8.898  0.9638 -0.5416 -0.3697
  507MOL0     C68336   5.207   2.454   8.863  0.0136  0.0041  0.8860
  507MOL0     C68337   5.170   2.580   8.797  0.5393  0.5132 -0.3747
  507MOL0     C68338   5.038   2.594   8.727 -0.6498  0.6705  0.0582
  507MOL0     C68339   5.263   2.683   8.795  0.5102 -0.0068  1.0428
  507MOL0     C68340   5.236   2.810   8.732  0.2872  0.3995  0.4570
  507MOL0     O68341   5.129   2.869   8.784  0.1197 -0.6011  1.1598
  507MOL0     C68342   5.110   3.002   8.776 -0.2389  0.2876 -0.2821
  507MOL0     C68343   4.981   3.037   8.813  0.7266  0.2439  0.0549
  507MOL0     C68344   4.940   3.164   8.795 -0.7573 -0.5799  0.6748
  507MOL0     C68345   5.029   3.266   8.760  0.1815 -0.3180  1.3676
  507MOL0     O68346   4.968   3.392   8.748  0.7909  0.1943 -0.0981
  507MOL0     C68347   5.054   3.500   8.703  0.1321 -0.0720  0.0171
  507MOL0     C68348   4.977   3.628   8.690 -0.1488  0.2625  0.3635
  507MOL0     C68349   4.854   3.633   8.602 -0.1432 -0.2606 -0.5535
  507MOL0     C68350   4.808   3.785   8.594  0.3931 -0.5845 -0.2484
  507MOL0     C68351   4.696   3.794   8.497  0.0898  0.4608 -0.1302
  507MOL0     C68352   4.568   3.721   8.529  0.1711 -0.5719 -0.1104
  507MOL0     C68353   4.467   3.796   8.621  0.1827 -0.4651  0.4278
  507MOL0     C68354   4.429   3.711   8.739 -0.0952  0.1046  0.0007
  507MOL0    Cl68355   4.254   3.738   8.797  0.1558  0.2338  0.2294
  507MOL0     C68356   5.162   3.230   8.744 -0.2876  0.0557  0.3033
  507MOL0     C68357   5.203   3.096   8.741 -0.0247  0.4615 -0.1705
  507MOL0     O68358   5.297   2.851   8.632  0.0898  0.7271 -0.4567
  507MOL0     C68359   5.393   2.659   8.836  0.1119 -0.2659  0.6115
  507MOL0     C68360   5.434   2.535   8.885  0.6113 -0.6764  0.0136
  507MOL0     N68361   5.786   1.805   8.859  1.2764  1.0339 -0.1393
  507MOL0     N68362   5.802   1.709   8.769 -0.3756  1.0191  0.7779
  507MOL0     C68363   5.608   1.122   7.941 -0.5243  0.2020  0.5998
  507MOL0     C68364   5.485   1.167   7.896  0.1043  0.4411 -0.7456
  507MOL0     C68365   5.029   1.238   7.851 -0.5371 -0.5974 -0.2123
  507MOL0     C68366   4.978   1.300   7.965 -0.4368 -0.3659 -0.1342
  507MOL0     C68367   4.842   1.339   7.970 -1.6284  0.1430  0.6920
  507MOL0     C68368   4.764   1.325   7.853  0.5671 -0.9042 -0.9227
  507MOL0     O68369   4.644   1.391   7.852 -0.6665 -0.9641  0.0828
  507MOL0     C68370   4.562   1.402   7.734 -0.1746 -0.5743 -0.1134
  507MOL0     C68371   4.462   1.504   7.771  0.1385 -0.1503  0.0430
  507MOL0     C68372   4.370   1.533   7.652  0.8876  0.4882 -0.6637
  507MOL0     C68373   4.325   1.676   7.623  0.0924 -0.1811 -0.3321
  507MOL0     C68374   4.439   1.764   7.606 -0.3282 -0.4869  0.5612
  507MOL0     C68375   4.536   1.836   7.593 -0.3201  1.7513 -0.0051
  507MOL0     C68376   4.813   1.257   7.745 -0.0266  0.5120 -0.2836
  507MOL0     C68377   4.945   1.202   7.744 -0.2594 -0.2308 -1.2093
  507MOL0     H68378   5.330   1.186   8.195 -0.0867  1.4358  0.2977
  507MOL0     H68379   5.565   1.125   8.272 -1.3542  1.2708  0.3609
  507MOL0     H68380   5.756   1.040   8.305 -0.4696  0.2817 -0.2988
  507MOL0     H68381   5.924   1.050   8.239 -0.0385 -0.6539  1.2799
  507MOL0     H68382   5.878   1.294   8.198  0.7693 -2.3338 -1.7104
  507MOL0     H68383   5.726   1.280   8.285  0.7874  3.9618 -1.1674
  507MOL0     H68384   6.004   1.253   8.398  0.2044  1.8209  0.0561
  507MOL0     H68385   5.907   1.379   8.424 -0.8790 -0.1206 -0.8951
  507MOL0     H68386   5.883   1.103   8.546 -1.0695 -1.1981  0.9529
  507MOL0     H68387   5.876   1.268   8.618 -0.2587 -0.1802  0.5038
  507MOL0     H68388   5.648   1.148   8.460  2.1033  0.0310 -2.0629
  507MOL0     H68389   5.656   1.161   8.644  1.3423  1.1564  0.8021
  507MOL0     H68390   5.664   1.397   8.452 -2.6499 -0.8468 -2.9405
  507MOL0     H68391   5.519   1.338   8.555 -0.1065 -0.8282  0.3457
  507MOL0     H68392   5.597   1.417   8.747 -4.2754  1.7802 -2.1886
  507MOL0     H68393   5.771   1.435   8.687 -0.5290  0.5185  1.1191
  507MOL0     H68394   5.530   1.582   8.603 -0.5020 -1.0733  2.4544
  507MOL0     H68395   5.693   1.602   8.531  1.4760 -0.6589  0.4034
  507MOL0     H68396   5.477   1.752   8.783  0.1844  0.3432  0.4336
  507MOL0     H68397   5.516   1.859   9.039 -0.5990  0.6562  0.5476
  507MOL0     H68398   5.652   1.976   9.038 -0.1558  2.8152 -2.2283
  507MOL0     H68399   5.473   1.997   8.803  0.0478 -0.5915 -0.2312
  507MOL0     H68400   5.578   2.119   8.883 -1.0677  1.1228 -0.6081
  507MOL0     H68401   5.486   2.127   9.072 -1.1959 -1.9678  2.3704
  507MOL0     H68402   5.344   2.017   9.035 -2.4792  1.9099 -0.1745
  507MOL0     H68403   5.262   2.219   9.030  1.3271 -0.6448  1.4749
  507MOL0     H68404   5.281   2.180   8.857 -0.4104  4.2890 -0.6821
  507MOL0     H68405   5.134   2.373   8.868  2.1171 -1.9662  1.1383
  507MOL0     H68406   5.063   2.603   8.621  1.0046  3.8087  0.6299
  507MOL0     H68407   4.969   2.511   8.748 -0.1395  0.4946  1.1190
  507MOL0     H68408   4.981   2.686   8.742 -1.2846  0.5724 -1.6069
  507MOL0     H68409   4.917   2.955   8.845 -1.1983  1.8948  0.6361
  507MOL0     H68410   4.841   3.203   8.818 -0.4152  2.6123 -2.3934
  507MOL0     H68411   5.136   3.505   8.775 -1.1975  0.5001  1.5409
  507MOL0     H68412   5.085   3.482   8.599 -1.9099 -0.6058 -0.5433
  507MOL0     H68413   4.959   3.672   8.788  0.7135  1.3233  0.0664
  507MOL0     H68414   5.041   3.704   8.645 -1.9622  0.1879 -2.6059
  507MOL0     H68415   4.778   3.578   8.658  0.3362  0.7797  1.2021
  507MOL0     H68416   4.879   3.590   8.505  1.9470 -1.1855  0.3335
  507MOL0     H68417   4.784   3.824   8.694  1.6731 -0.0770 -0.1283
  507MOL0     H68418   4.888   3.851   8.562 -0.8167  1.9057  1.5695
  507MOL0     H68419   4.735   3.758   8.402  2.8687 -1.9906  1.7551
  507MOL0     H68420   4.684   3.901   8.479  2.4702  1.3424  2.6807
  507MOL0     H68421   4.516   3.689   8.438 -3.4629 -2.4388  2.3450
  507MOL0     H68422   4.590   3.624   8.576 -0.4949 -0.5806  0.2127
  507MOL0     H68423   4.375   3.816   8.566 -1.1824 -2.6780  1.7922
  507MOL0     H68424   4.513   3.890   8.656 -2.5577  2.3151 -2.7092
  507MOL0     H68425   4.494   3.722   8.827 -0.7596 -1.5851  0.7474
  507MOL0     H68426   4.440   3.607   8.708  2.7569  0.6182 -1.0419
  507MOL0     H68427   5.236   3.309   8.734  0.2512 -0.4595  0.1850
  507MOL0     H68428   5.306   3.063   8.733  0.4626  1.3567  1.8768
  507MOL0     H68429   5.466   2.738   8.823 -1.5290  0.9272 -2.3168
  507MOL0     H68430   5.534   2.494   8.888  0.2430 -1.5693  2.5299
  507MOL0     H68431   5.684   1.106   7.865  0.4366  2.5669  0.9761
  507MOL0     H68432   5.470   1.195   7.792  0.2592 -1.2249 -1.2528
  507MOL0     H68433   5.047   1.328   8.043 -1.7709  2.0650  0.2751
  507MOL0     H68434   4.815   1.396   8.058 -0.2137 -2.0586  2.6708
  507MOL0     H68435   4.632   1.429   7.655  0.0046 -1.3496 -0.2345
  507MOL0     H68436   4.507   1.310   7.713 -2.4774  0.7764 -0.3506
  507MOL0     H68437   4.507   1.599   7.799  2.2767 -0.4988 -1.8563
  507MOL0     H68438   4.392   1.474   7.850 -1.4313  2.3594 -0.2621
  507MOL0     H68439   4.275   1.488   7.681  0.4542  1.6063 -0.3004
  507MOL0     H68440   4.390   1.483   7.556 -1.4463 -1.0587 -0.4098
  507MOL0     H68441   4.262   1.708   7.706  1.4586 -2.1590  1.5643
  507MOL0     H68442   4.261   1.674   7.534  0.0219 -2.6421 -0.2896
  507MOL0     H68443   4.619   1.904   7.602 -0.1334  1.2201  4.7809
  507MOL0     H68444   4.750   1.248   7.656 -1.6326 -2.2544  1.0177
  507MOL0     H68445   4.996   1.158   7.659 -0.2664 -4.7628  0.8598
  508MOL0     O68446   5.685   3.189   6.055 -0.6250 -0.4147 -0.1094
  508MOL0     C68447   5.738   3.221   6.161  0.2835  0.4425 -0.8284
  508MOL0     O68448   5.775   3.344   6.195 -0.6558  0.2448 -0.0671
  508MOL0     C68449   5.770   3.449   6.105 -0.1757 -0.0843 -0.3223
  508MOL0     C68450   5.868   3.548   6.126  0.7395  0.7899  0.0808
  508MOL0     C68451   5.872   3.655   6.038  0.5147  0.5182 -0.3034
  508MOL0     C68452   5.786   3.664   5.927  0.1911  0.5329 -0.7704
  508MOL0     O68453   5.785   3.773   5.845  0.0400 -0.4298 -0.3523
  508MOL0     C68454   5.891   3.817   5.770  0.0227 -0.8357 -0.5478
  508MOL0     C68455   5.856   3.938   5.691  0.1244 -0.0811  0.4139
  508MOL0     C68456   5.747   3.912   5.590  0.1968  0.0744 -0.2223
  508MOL0     C68457   5.720   4.030   5.499  0.4235 -0.0500  0.5672
  508MOL0     C68458   5.619   3.964   5.395 -0.3499 -0.6216 -0.1449
  508MOL0     C68459   5.594   4.061   5.283  0.3175 -0.7922 -0.1924
  508MOL0     C68460   5.528   4.005   5.162 -0.3044 -0.0356  0.2473
  508MOL0     C68461   5.586   4.046   5.024 -0.2969  0.1667 -0.4673
  508MOL0     N68462   5.592   4.195   4.993 -0.1985 -0.4720 -0.5077
  508MOL0     C68463   5.519   4.285   5.071  0.0651 -0.1282  0.1195
  508MOL0     C68464   5.540   4.410   5.020  0.2397 -0.2118  0.1240
  508MOL0     C68465   5.505   4.552   5.063  0.4629 -0.1268  0.5529
  508MOL0     C68466   5.344   4.558   5.061 -0.2921 -0.1530  0.4009
  508MOL0     C68467   5.293   4.676   5.137  0.6494 -0.1990 -0.4456
  508MOL0     C68468   5.152   4.726   5.100  0.8162  0.3906 -0.4485
  508MOL0     O68469   5.141   4.859   5.145 -0.3996  0.6313 -0.0106
  508MOL0     C68470   5.019   4.910   5.176 -1.0555 -0.2652  0.1845
  508MOL0     C68471   4.891   4.856   5.149 -0.7210 -0.5831  1.1294
  508MOL0     C68472   4.764   4.913   5.201  0.5847 -0.6000 -0.0645
  508MOL0     C68473   4.630   4.854   5.179 -0.6016  0.0582 -0.5735
  508MOL0     C68474   4.786   5.024   5.290  0.7930 -0.1515  0.4015
  508MOL0     C68475   4.673   5.097   5.359  0.2642  0.7727  0.1589
  508MOL0     O68476   4.549   5.087   5.303  0.7441 -0.7027 -0.4750
  508MOL0     C68477   4.436   5.137   5.371  0.2510  0.1503 -0.4060
  508MOL0     C68478   4.320   5.067   5.343  0.3284  0.1857 -0.0188
  508MOL0     C68479   4.199   5.116   5.402  0.2528  0.0254  0.2215
  508MOL0     C68480   4.195   5.241   5.470 -0.1768  0.0507  0.1957
  508MOL0     O68481   4.080   5.268   5.538 -0.6969  0.2256  0.6209
  508MOL0     C68482   4.086   5.369   5.634  0.6798 -0.4946 -1.2141
  508MOL0     C68483   3.956   5.369   5.715  0.3690 -0.6134 -0.3831
  508MOL0     C68484   3.934   5.237   5.781 -0.6951  0.5394 -0.4962
  508MOL0     C68485   3.832   5.240   5.902 -0.4853 -0.4008  0.9358
  508MOL0     C68486   3.823   5.126   5.989 -0.2674  0.2388 -0.3468
  508MOL0     C68487   3.708   5.143   6.089  0.5597  0.0468 -0.5819
  508MOL0     C68488   3.718   5.274   6.160 -0.6673  0.0108 -0.0186
  508MOL0     C68489   3.624   5.288   6.280  0.0478 -0.3086  0.2250
  508MOL0    Cl68490   3.624   5.437   6.362 -0.0251  0.4802 -0.6963
  508MOL0     C68491   4.309   5.314   5.482 -0.1554  0.0041 -1.0350
  508MOL0     C68492   4.433   5.265   5.438  0.3897  0.1495  0.4391
  508MOL0     O68493   4.700   5.162   5.461 -0.2946  0.1447  0.0579
  508MOL0     C68494   4.912   5.083   5.298 -0.7546 -0.0328 -0.2618
  508MOL0     C68495   5.025   5.031   5.240 -0.7880 -0.2224 -0.0648
  508MOL0     N68496   5.594   4.382   4.895 -0.7148  0.9040 -0.5204
  508MOL0     N68497   5.613   4.252   4.872 -0.3681 -0.0114 -0.0746
  508MOL0     C68498   5.694   3.561   5.906 -0.0736 -0.4050 -0.2798
  508MOL0     C68499   5.678   3.466   6.001  0.1235  0.2539 -0.8572
  508MOL0     C68500   5.773   3.108   6.253  0.3358  0.0303 -0.3870
  508MOL0     C68501   5.857   3.121   6.358 -0.0850  0.4798 -0.4891
  508MOL0     C68502   5.896   3.010   6.433  0.6690 -0.3731  0.2215
  508MOL0     C68503   5.844   2.880   6.424 -0.2245 -0.2909  0.6566
  508MOL0     O68504   5.874   2.766   6.490  0.9361  0.1236 -0.7515
  508MOL0     C68505   5.990   2.762   6.584 -0.1761  1.2670  0.9492
  508MOL0     C68506   6.094   2.674   6.511 -0.6060 -0.1935  1.0910
  508MOL0     C68507   6.214   2.640   6.601  0.5978  0.9095  0.2781
  508MOL0     C68508   6.330   2.751   6.589  0.2427 -0.2384 -0.7563
  508MOL0     C68509   6.426   2.725   6.699  0.5317 -1.1915 -1.0275
  508MOL0     C68510   6.497   2.714   6.796 -0.1016  0.4284  0.3993
  508MOL0     C68511   5.741   2.870   6.325 -0.6897 -0.0859  0.0102
  508MOL0     C68512   5.704   2.979   6.238  0.2848 -0.5778  0.2298
  508MOL0     H68513   5.943   3.538   6.204 -0.0739 -0.8866  0.7052
  508MOL0     H68514   5.930   3.746   6.046  1.7908 -0.1461 -1.5686
  508MOL0     H68515   5.980   3.846   5.826 -1.0214 -1.4863  1.5789
  508MOL0     H68516   5.916   3.735   5.703  0.1098 -2.9569  1.9330
  508MOL0     H68517   5.836   4.026   5.752 -5.0958  0.0315 -0.9835
  508MOL0     H68518   5.940   3.981   5.636 -0.5425 -1.1579 -1.5912
  508MOL0     H68519   5.787   3.825   5.538  0.6066 -1.7296  2.8629
  508MOL0     H68520   5.650   3.892   5.636 -1.3447  1.2794 -2.7106
  508MOL0     H68521   5.684   4.121   5.548 -2.5715 -0.1955 -1.1270
  508MOL0     H68522   5.809   4.061   5.444  0.1976  2.4010  1.4331
  508MOL0     H68523   5.667   3.875   5.353 -1.7636 -2.8783  2.6942
  508MOL0     H68524   5.526   3.926   5.437 -2.4265  1.5977 -2.3700
  508MOL0     H68525   5.535   4.147   5.313  0.7121 -0.1016 -1.3270
  508MOL0     H68526   5.688   4.110   5.256 -0.8810  1.4675 -0.5262
  508MOL0     H68527   5.537   3.896   5.167  3.0749  0.1920  1.0833
  508MOL0     H68528   5.423   4.035   5.157 -0.2972 -0.1870 -1.3803
  508MOL0     H68529   5.513   4.009   4.953  1.8567 -2.6403 -1.3689
  508MOL0     H68530   5.690   4.013   5.020 -0.2979  0.1412 -0.2901
  508MOL0     H68531   5.466   4.263   5.164 -2.5189  2.5134 -0.5712
  508MOL0     H68532   5.556   4.575   5.157  0.2740 -1.7509  1.0772
  508MOL0     H68533   5.541   4.624   4.988 -4.8631  1.2254 -1.1430
  508MOL0     H68534   5.297   4.466   5.098 -1.7369  0.7629  0.9495
  508MOL0     H68535   5.317   4.558   4.954  1.1992 -0.4279  0.0011
  508MOL0     H68536   5.356   4.760   5.110 -1.9648  1.9394 -0.2853
  508MOL0     H68537   5.306   4.651   5.243  1.0643  1.3463 -0.1118
  508MOL0     H68538   5.084   4.648   5.135  0.5124  1.2369  0.8705
  508MOL0     H68539   5.146   4.734   4.991  2.4100  1.8941 -0.4747
  508MOL0     H68540   4.879   4.760   5.100 -0.7724 -0.8464  1.6584
  508MOL0     H68541   4.570   4.826   5.266 -1.2661 -1.9573 -1.6242
  508MOL0     H68542   4.574   4.919   5.112 -1.6532  1.1263  1.2662
  508MOL0     H68543   4.641   4.757   5.129  2.6800  0.7118 -1.3603
  508MOL0     H68544   4.334   4.968   5.302  0.2121 -1.7742  4.0938
  508MOL0     H68545   4.101   5.069   5.401 -0.4325  0.7732  5.4003
  508MOL0     H68546   4.167   5.349   5.704 -1.8462  0.1432  2.1069
  508MOL0     H68547   4.100   5.468   5.588  1.7860 -0.0852 -0.0644
  508MOL0     H68548   3.961   5.443   5.796 -0.7850  1.1448 -1.8317
  508MOL0     H68549   3.868   5.405   5.662 -0.2821  1.7011  2.0139
  508MOL0     H68550   4.031   5.188   5.799 -0.7790  0.2719 -0.7700
  508MOL0     H68551   3.874   5.173   5.716 -1.6552 -2.9787  3.3721
  508MOL0     H68552   3.859   5.323   5.968 -1.0449 -0.6237  1.4508
  508MOL0     H68553   3.731   5.266   5.869  0.4536  2.6174  0.1130
  508MOL0     H68554   3.920   5.136   6.039 -0.7876  0.0971  0.7146
  508MOL0     H68555   3.803   5.037   5.928 -1.4567  0.5106 -0.3799
  508MOL0     H68556   3.611   5.130   6.041  0.2728  0.4430 -0.1145
  508MOL0     H68557   3.732   5.060   6.157  3.6332  0.4183 -1.0438
  508MOL0     H68558   3.703   5.358   6.092 -3.2781  0.4041  0.9288
  508MOL0     H68559   3.819   5.284   6.199  1.0436 -0.5366 -3.8167
  508MOL0     H68560   3.635   5.211   6.357  1.1594  1.0796  1.5317
  508MOL0     H68561   3.523   5.273   6.243  0.3911  1.7034 -1.6766
  508MOL0     H68562   4.314   5.414   5.522 -2.2734  0.2475 -1.2692
  508MOL0     H68563   4.522   5.315   5.475 -0.1598 -1.0090  3.6329
  508MOL0     H68564   4.933   5.167   5.364  2.0665 -0.4898 -0.4561
  508MOL0     H68565   5.113   5.094   5.250 -2.8611  2.5588  2.4015
  508MOL0     H68566   5.623   3.559   5.824  3.1266  0.6315 -3.3380
  508MOL0     H68567   5.592   3.401   5.986  0.3181 -0.8976  2.3632
  508MOL0     H68568   5.902   3.215   6.389 -3.7188  3.2291 -2.7404
  508MOL0     H68569   5.976   3.032   6.503  1.2454  1.6861 -1.0135
  508MOL0     H68570   6.035   2.860   6.601  2.7656 -0.2991  3.3575
  508MOL0     H68571   5.962   2.726   6.684 -0.9805  2.7030  1.2674
  508MOL0     H68572   6.124   2.717   6.415  0.1150 -1.8326  0.5397
  508MOL0     H68573   6.048   2.579   6.484 -2.1446  1.1149 -1.1709
  508MOL0     H68574   6.259   2.542   6.586 -0.5955 -0.2820  3.6174
  508MOL0     H68575   6.170   2.632   6.701  0.0447  0.1293 -0.0187
  508MOL0     H68576   6.283   2.846   6.614  1.0260  0.2899 -1.2294
  508MOL0     H68577   6.377   2.774   6.493  3.3472  1.7917  1.0339
  508MOL0     H68578   6.570   2.715   6.874  0.4778 -1.4001 -0.0559
  508MOL0     H68579   5.704   2.771   6.301  1.0500 -0.6984 -0.3578
  508MOL0     H68580   5.622   2.948   6.173 -2.2491 -2.9171  4.1554
  509MOL0     O68581  10.493   4.948  10.012  0.1464 -0.7170 -1.1437
  509MOL0     C68582  10.376   4.997  10.019 -0.0370 -0.3309  0.1072
  509MOL0     O68583  10.261   4.923   9.995  0.2585 -0.6894 -0.2163
  509MOL0     C68584  10.262   4.784   9.980  0.0648  0.0030 -0.4191
  509MOL0     C68585  10.300   4.699  10.072 -1.1072 -0.1919 -0.5182
  509MOL0     C68586  10.279   4.560  10.060 -0.3131 -0.4680 -1.0878
  509MOL0     C68587  10.229   4.504   9.947 -0.0900 -0.7991 -0.3135
  509MOL0     O68588  10.217   4.372   9.915  0.2630  0.0635 -0.7754
  509MOL0     C68589  10.279   4.280  10.006 -0.2077 -0.2567  0.4134
  509MOL0     C68590  10.249   4.137   9.945  0.4412  0.5579  0.2526
  509MOL0     C68591  10.333   4.122   9.811 -0.0342  0.9297  0.8453
  509MOL0     C68592  10.301   3.981   9.746  0.3798 -0.2440  0.3356
  509MOL0     C68593  10.362   3.974   9.602  0.2079 -0.6382 -0.7560
  509MOL0     C68594  10.402   3.838   9.531 -0.3896 -0.2949 -0.3191
  509MOL0     C68595  10.532   3.769   9.584 -0.0741 -0.3006  0.8717
  509MOL0     C68596  10.593   3.657   9.489  0.5601  0.3923 -0.0856
  509MOL0     N68597  10.487   3.554   9.469 -0.9959  0.4634 -0.7380
  509MOL0     C68598  10.441   3.522   9.344  0.7177 -0.0143 -0.4701
  509MOL0     C68599  10.365   3.412   9.356  0.1287 -0.4867  0.7020
  509MOL0     C68600  10.312   3.341   9.244 -0.8801 -0.2673  0.4342
  509MOL0     C68601  10.427   3.267   9.174  0.6539 -0.2622  0.7911
  509MOL0     C68602  10.383   3.210   9.038 -0.0992  0.8059 -0.0893
  509MOL0     C68603  10.495   3.122   8.973 -1.1239  0.1902  0.5337
  509MOL0     O68604  10.614   3.204   8.945 -0.1539 -0.3217 -0.7681
  509MOL0     C68605  10.722   3.131   8.905 -0.0763 -0.1026  0.6890
  509MOL0     C68606  10.837   3.127   8.984  0.3009  0.1829  0.5302
  509MOL0     C68607  10.953   3.049   8.947 -0.2269 -0.3862 -0.4885
  509MOL0     C68608  11.062   3.062   9.048 -0.3497 -0.5184 -0.9286
  509MOL0     C68609  10.949   2.976   8.825 -0.7297 -0.0384  0.7971
  509MOL0     C68610  11.077   2.922   8.760  0.6098 -0.4335 -0.7079
  509MOL0     O68611  11.057   2.828   8.664 -0.3954  0.6666  0.0357
  509MOL0     C68612  11.169   2.788   8.599 -0.2073  0.6448 -0.2276
  509MOL0     C68613  11.242   2.677   8.646 -0.2677  0.7820 -0.0244
  509MOL0     C68614  11.355   2.638   8.575 -0.2556 -0.4728 -0.6728
  509MOL0     C68615  11.398   2.698   8.457  0.6640  0.1135  0.2069
  509MOL0     O68616  11.496   2.649   8.377 -0.7078  0.4133 -0.5974
  509MOL0     C68617  11.504   2.505   8.363  0.6658 -0.5332 -0.4114
  509MOL0     C68618  11.585   2.474   8.240  1.0360  0.5469  0.4921
  509MOL0     C68619  11.727   2.519   8.243 -0.7825 -0.1317 -1.3650
  509MOL0     C68620  11.803   2.447   8.137 -0.4731 -0.2094  0.6170
  509MOL0     C68621  11.937   2.514   8.091  0.1564  0.7705 -0.5885
  509MOL0     C68622  12.022   2.428   8.005 -0.0994 -0.0315 -0.3533
  509MOL0     C68623  12.149   2.512   7.968 -0.1177  0.0187 -0.0921
  509MOL0     C68624  12.277   2.428   7.962 -0.0280  0.4166 -0.1516
  509MOL0    Cl68625  12.303   2.370   8.133 -0.2330  0.3687  0.0470
  509MOL0     C68626  11.323   2.808   8.419  0.9436  0.4233  0.5403
  509MOL0     C68627  11.215   2.852   8.490 -0.8859 -0.4269  0.4120
  509MOL0     O68628  11.185   2.967   8.798  0.3678 -0.2346 -0.4828
  509MOL0     C68629  10.828   2.973   8.751  0.2645  0.0891  0.2552
  509MOL0     C68630  10.721   3.057   8.777 -0.2925 -0.1467 -0.4134
  509MOL0     N68631  10.369   3.368   9.490  0.6652  0.6775  0.5793
  509MOL0     N68632  10.445   3.453   9.553 -0.0684 -0.2690 -0.1586
  509MOL0     C68633  10.166   4.597   9.860 -0.4752  0.0750  0.4953
  509MOL0     C68634  10.188   4.739   9.874 -0.1544  0.5833  0.0927
  509MOL0     C68635  10.353   5.136  10.067 -0.3212  0.1148  0.4964
  509MOL0     C68636  10.460   5.219  10.071 -0.0001 -0.7888 -0.4935
  509MOL0     C68637  10.451   5.345  10.112 -0.4217  0.1412 -0.3905
  509MOL0     C68638  10.335   5.395  10.162 -0.0543  0.9714  0.5728
  509MOL0     O68639  10.346   5.526  10.183  0.4016  0.1054 -0.2369
  509MOL0     C68640  10.217   5.584  10.227 -0.1021 -0.1373  0.4385
  509MOL0     C68641  10.231   5.734  10.196 -0.2516  0.4291  0.2795
  509MOL0     C68642  10.323   5.807  10.289 -0.5641  0.0176 -0.3987
  509MOL0     C68643  10.349   5.945  10.257 -0.8685  0.2286 -0.3059
  509MOL0     C68644  10.221   6.013  10.242 -0.3943 -0.2650  0.2739
  509MOL0     C68645  10.116   6.064  10.225 -0.2989  0.2452 -0.5416
  509MOL0     C68646  10.223   5.308  10.182  0.0376 -0.4908  0.2205
  509MOL0     C68647  10.231   5.183  10.121  0.0762  0.0058  0.0045
  509MOL0     H68648  10.355   4.745  10.153  1.2576  2.4114 -3.3758
  509MOL0     H68649  10.315   4.496  10.141 -1.7508  1.1375  0.9187
  509MOL0     H68650  10.384   4.312  10.003 -0.8912  2.2537  1.3842
  509MOL0     H68651  10.233   4.298  10.104 -3.9511 -1.3749 -0.9956
  509MOL0     H68652  10.269   4.060  10.021 -0.3583  1.8321  1.8181
  509MOL0     H68653  10.143   4.138   9.917  1.1199  2.0724 -2.6645
  509MOL0     H68654  10.296   4.193   9.737 -1.3718 -1.7818 -1.2507
  509MOL0     H68655  10.441   4.129   9.824 -0.0870 -0.4327  2.3528
  509MOL0     H68656  10.354   3.910   9.810  2.9470  1.7701  0.6499
  509MOL0     H68657  10.197   3.950   9.741  0.6679 -1.1028 -0.7009
  509MOL0     H68658  10.286   4.022   9.540  0.5909  1.6984  0.4556
  509MOL0     H68659  10.445   4.044   9.602  0.3237 -0.5866  2.6436
  509MOL0     H68660  10.321   3.767   9.554 -3.0294  1.3046 -3.8377
  509MOL0     H68661  10.411   3.848   9.423 -0.5163 -0.3341 -0.3331
  509MOL0     H68662  10.610   3.843   9.605  1.3224 -1.3504 -0.4086
  509MOL0     H68663  10.527   3.726   9.685  0.5531  0.7902  1.3835
  509MOL0     H68664  10.687   3.623   9.533  1.2642  1.3884 -0.7718
  509MOL0     H68665  10.624   3.691   9.390  4.7547 -2.7675 -0.1127
  509MOL0     H68666  10.477   3.558   9.248  4.1992  1.3080  1.1910
  509MOL0     H68667  10.227   3.278   9.273 -2.1571  0.4020 -1.6233
  509MOL0     H68668  10.269   3.416   9.177  0.8981 -1.3926 -2.1216
  509MOL0     H68669  10.482   3.197   9.239  0.2266 -1.0998  0.2715
  509MOL0     H68670  10.492   3.349   9.144 -1.0168 -0.3498 -3.8839
  509MOL0     H68671  10.347   3.291   8.974  2.3562  0.5115 -2.0082
  509MOL0     H68672  10.297   3.145   9.056 -1.1644  2.7234  2.2660
  509MOL0     H68673  10.464   3.069   8.883  0.4977  3.1020 -1.9301
  509MOL0     H68674  10.527   3.038   9.036  2.0771 -1.0225 -2.3538
  509MOL0     H68675  10.856   3.184   9.074  1.9641 -0.4822  0.6229
  509MOL0     H68676  11.117   3.156   9.045 -2.4395  0.7900 -0.5038
  509MOL0     H68677  11.019   3.048   9.148  0.0539  0.7985 -0.5463
  509MOL0     H68678  11.132   2.980   9.030 -0.6114 -0.3000 -3.1726
  509MOL0     H68679  11.203   2.617   8.728 -0.9778  0.8597 -0.2978
  509MOL0     H68680  11.407   2.546   8.598  0.4482 -0.8992 -3.5436
  509MOL0     H68681  11.546   2.450   8.448  3.1271  0.0764 -1.1316
  509MOL0     H68682  11.404   2.468   8.339  0.9491 -1.1574 -0.6427
  509MOL0     H68683  11.585   2.365   8.229 -0.8482  0.5684 -0.0311
  509MOL0     H68684  11.538   2.506   8.147 -1.5868  0.2674  1.6275
  509MOL0     H68685  11.778   2.484   8.333 -0.5354 -0.5826 -1.6779
  509MOL0     H68686  11.742   2.627   8.228 -2.8563  0.1237 -2.0095
  509MOL0     H68687  11.837   2.354   8.185 -4.3248 -1.5058  1.2264
  509MOL0     H68688  11.734   2.430   8.054  0.0870 -3.2271  0.6346
  509MOL0     H68689  11.993   2.547   8.179  1.1315 -0.9640 -0.5213
  509MOL0     H68690  11.906   2.596   8.025 -1.0004  1.1812  0.4311
  509MOL0     H68691  12.045   2.335   8.057  0.4257  0.7305  0.8010
  509MOL0     H68692  11.963   2.398   7.917 -0.3836 -1.2481  0.2261
  509MOL0     H68693  12.172   2.590   8.040  1.7228  0.6076 -1.2504
  509MOL0     H68694  12.126   2.558   7.871 -1.7663  0.6559  0.5524
  509MOL0     H68695  12.351   2.498   7.923 -0.6654  1.8597  1.1546
  509MOL0     H68696  12.262   2.346   7.891  1.7554  1.9802 -2.4766
  509MOL0     H68697  11.351   2.850   8.323 -0.3572 -0.7199 -0.3801
  509MOL0     H68698  11.156   2.936   8.455 -0.9855 -0.3541  0.7550
  509MOL0     H68699  10.838   2.926   8.654 -3.7380  1.9763 -1.3079
  509MOL0     H68700  10.634   3.062   8.712 -0.3690  1.8628 -0.2222
  509MOL0     H68701  10.124   4.569   9.764 -0.2889  1.5431 -0.0316
  509MOL0     H68702  10.139   4.807   9.805 -3.0724  0.1097  1.5586
  509MOL0     H68703  10.551   5.186  10.022  0.7421 -2.0995  1.6808
  509MOL0     H68704  10.540   5.405  10.099 -1.7101  1.7299 -2.5369
  509MOL0     H68705  10.124   5.555  10.178  1.2358 -1.7707 -1.3380
  509MOL0     H68706  10.197   5.551  10.329 -3.1390  0.6669  0.2031
  509MOL0     H68707  10.126   5.765  10.202 -0.3824 -0.0271  0.3112
  509MOL0     H68708  10.267   5.744  10.093  0.9508 -4.2388  0.0106
  509MOL0     H68709  10.415   5.756  10.317 -1.9065 -0.2890  4.2652
  509MOL0     H68710  10.274   5.801  10.386 -2.3197 -0.3193 -1.2545
  509MOL0     H68711  10.413   5.958  10.169  1.2278 -3.5555  0.4447
  509MOL0     H68712  10.400   5.989  10.343  0.4595 -0.3559 -0.7635
  509MOL0     H68713  10.017   6.097  10.202 -0.4747 -0.6588 -1.1578
  509MOL0     H68714  10.130   5.336  10.229 -0.7069 -2.9711  0.3965
  509MOL0     H68715  10.136   5.131  10.128  0.7606 -1.1672  0.8594
  510MOL0     O68716   4.160   6.533   8.538  0.2285  0.5085  0.0815
  510MOL0     C68717   4.098   6.526   8.432 -0.3812 -0.1216  0.0019
  510MOL0     O68718   4.164   6.528   8.310  1.3215 -0.6094  0.5674
  510MOL0     C68719   4.305   6.519   8.309 -0.3397  0.6302 -0.7497
  510MOL0     C68720   4.382   6.428   8.385  0.0073  1.1619  0.2178
  510MOL0     C68721   4.518   6.423   8.366 -0.1769  0.0059 -0.6967
  510MOL0     C68722   4.589   6.498   8.262  0.4823  0.5844 -0.1905
  510MOL0     O68723   4.732   6.481   8.248  0.9989 -0.2585  0.7868
  510MOL0     C68724   4.783   6.487   8.109 -0.2587  0.9811 -0.4483
  510MOL0     C68725   4.925   6.450   8.116 -0.3504 -0.4963 -0.1341
  510MOL0     C68726   4.998   6.455   7.988  0.3296  0.0721  0.6254
  510MOL0     C68727   5.146   6.432   8.017 -0.1648  0.4070 -0.3205
  510MOL0     C68728   5.227   6.421   7.888 -0.0787 -0.1116 -0.1397
  510MOL0     C68729   5.242   6.557   7.820  0.5290 -0.0748  0.4108
  510MOL0     C68730   5.354   6.564   7.708 -0.9767 -0.1933 -0.2607
  510MOL0     C68731   5.322   6.454   7.601 -0.0632  0.4506 -0.1152
  510MOL0     N68732   5.186   6.464   7.559 -0.2304 -0.3826  0.3507
  510MOL0     C68733   5.134   6.558   7.474 -0.2685  0.2057  1.5926
  510MOL0     C68734   5.015   6.512   7.431 -0.6840 -0.9793 -0.3627
  510MOL0     C68735   4.915   6.581   7.337 -0.5517 -0.3002  0.5032
  510MOL0     C68736   4.773   6.524   7.366 -0.5905 -0.1803 -0.2230
  510MOL0     C68737   4.735   6.403   7.285  0.3545 -0.0056  0.0579
  510MOL0     C68738   4.591   6.349   7.322  0.5298 -1.1839 -0.8699
  510MOL0     O68739   4.569   6.241   7.230 -0.4389 -0.1052 -0.0597
  510MOL0     C68740   4.460   6.170   7.253  0.5598  0.4783 -0.6622
  510MOL0     C68741   4.444   6.065   7.163  0.0033 -0.1767  0.2467
  510MOL0     C68742   4.342   5.964   7.178  0.3086 -0.3399  0.5380
  510MOL0     C68743   4.337   5.843   7.087  0.5683  0.1056  0.3927
  510MOL0     C68744   4.264   5.976   7.304  0.6014 -0.9603  1.2628
  510MOL0     C68745   4.183   5.860   7.342  0.1459  1.0352  0.4516
  510MOL0     O68746   4.103   5.805   7.244 -0.3081  0.4862  0.1027
  510MOL0     C68747   4.015   5.701   7.259  0.2125  0.1862 -1.1050
  510MOL0     C68748   3.929   5.687   7.154 -0.0558  0.0657 -0.0389
  510MOL0     C68749   3.835   5.582   7.142 -0.2216 -0.6637 -0.0481
  510MOL0     C68750   3.811   5.494   7.245 -0.2918 -0.1954 -0.2250
  510MOL0     O68751   3.715   5.398   7.223  0.7869 -0.5139  0.5359
  510MOL0     C68752   3.611   5.403   7.318 -0.5460  0.2077 -0.2415
  510MOL0     C68753   3.481   5.443   7.255  0.8169 -0.0816  0.4731
  510MOL0     C68754   3.471   5.593   7.265  0.3679 -0.3318  0.3068
  510MOL0     C68755   3.338   5.655   7.228 -0.1252 -0.5148 -0.4841
  510MOL0     C68756   3.329   5.804   7.226 -0.2438  0.5782 -0.1028
  510MOL0     C68757   3.425   5.879   7.135  0.9629 -1.1230 -0.6792
  510MOL0     C68758   3.400   5.849   6.987 -1.0343 -0.2500  0.6098
  510MOL0     C68759   3.520   5.887   6.898 -0.1408  1.0856 -0.2366
  510MOL0    Cl68760   3.625   5.730   6.902  0.0256 -0.0644 -0.3120
  510MOL0     C68761   3.894   5.502   7.356  0.5534 -0.1166  0.6394
  510MOL0     C68762   3.999   5.602   7.362  0.0559  0.1134  0.3301
  510MOL0     O68763   4.178   5.828   7.457 -0.1032 -0.9835  0.1488
  510MOL0     C68764   4.287   6.074   7.408 -0.3061 -0.5061 -0.0396
  510MOL0     C68765   4.383   6.170   7.377 -0.4971 -0.0238  0.1341
  510MOL0     N68766   4.996   6.394   7.497  0.0560 -0.9121 -0.2639
  510MOL0     N68767   5.087   6.375   7.582  0.1805 -0.2232  0.2408
  510MOL0     C68768   4.509   6.590   8.182  0.8790  0.5674  0.3162
  510MOL0     C68769   4.367   6.600   8.198  0.5432 -0.1927 -0.4384
  510MOL0     C68770   3.952   6.495   8.434  1.0763 -0.2952  0.6053
  510MOL0     C68771   3.881   6.451   8.552 -0.1799  0.9116  0.4928
  510MOL0     C68772   3.746   6.414   8.536  0.3991  0.2311  0.1134
  510MOL0     C68773   3.674   6.436   8.419 -0.5388  0.2370 -0.0395
  510MOL0     O68774   3.539   6.413   8.403 -0.6131 -0.3152 -0.7298
  510MOL0     C68775   3.463   6.358   8.515  0.0161 -0.5875  0.2708
  510MOL0     C68776   3.312   6.330   8.469  0.6980  0.1070 -0.0798
  510MOL0     C68777   3.255   6.442   8.388  0.7445 -0.9379  0.9474
  510MOL0     C68778   3.252   6.570   8.460 -0.4644 -0.0263  0.1696
  510MOL0     C68779   3.194   6.569   8.589 -0.5304  0.9887 -0.9052
  510MOL0     C68780   3.169   6.573   8.707  0.9493  0.1014  0.2635
  510MOL0     C68781   3.739   6.477   8.303 -0.8635  0.2533  0.6518
  510MOL0     C68782   3.882   6.508   8.308  0.5280  0.1756  0.4328
  510MOL0     H68783   4.337   6.363   8.460 -1.9197 -0.3698 -2.0946
  510MOL0     H68784   4.576   6.353   8.425 -0.4493 -0.1108 -0.5663
  510MOL0     H68785   4.727   6.417   8.047 -0.2730  0.3720  0.2346
  510MOL0     H68786   4.768   6.588   8.069  3.8505  2.0583  0.2689
  510MOL0     H68787   4.971   6.520   8.186  1.8623 -0.6063 -1.3812
  510MOL0     H68788   4.948   6.357   8.168 -0.6278 -0.1493  0.6290
  510MOL0     H68789   4.964   6.372   7.924  1.4786  0.7353 -0.8952
  510MOL0     H68790   4.989   6.551   7.937  2.0518  1.2064  2.3369
  510MOL0     H68791   5.187   6.512   8.079  2.1925  0.5863 -1.9906
  510MOL0     H68792   5.149   6.335   8.069 -1.5281 -1.0654 -2.7944
  510MOL0     H68793   5.327   6.381   7.911 -0.3518 -0.2775  0.8086
  510MOL0     H68794   5.176   6.348   7.825 -3.2213 -0.0252  2.0684
  510MOL0     H68795   5.153   6.601   7.773  0.3839  0.1245  0.8683
  510MOL0     H68796   5.265   6.624   7.903 -3.3922  1.2680  0.6208
  510MOL0     H68797   5.366   6.670   7.685  0.4113 -0.0338  1.0251
  510MOL0     H68798   5.444   6.527   7.757  0.1054  0.0686 -1.9889
  510MOL0     H68799   5.352   6.355   7.637  3.1706  1.8112  1.3711
  510MOL0     H68800   5.378   6.480   7.511 -0.9920  0.8182 -0.6009
  510MOL0     H68801   5.182   6.647   7.435 -0.7373  0.8150  2.3653
  510MOL0     H68802   4.924   6.690   7.349 -0.7963  0.0293 -1.8301
  510MOL0     H68803   4.944   6.554   7.235 -2.1850  0.8342 -0.2989
  510MOL0     H68804   4.703   6.607   7.355 -2.6048 -1.8336 -0.4311
  510MOL0     H68805   4.778   6.488   7.469  0.2312 -2.9491 -1.1255
  510MOL0     H68806   4.811   6.329   7.314 -0.0991 -1.6894 -2.7085
  510MOL0     H68807   4.760   6.425   7.181  2.4398 -1.9754  0.0498
  510MOL0     H68808   4.505   6.415   7.312 -1.1215 -3.1878 -0.6917
  510MOL0     H68809   4.597   6.324   7.428 -1.1372 -0.6530 -0.6268
  510MOL0     H68810   4.518   6.053   7.085 -0.9996  0.6443 -0.8606
  510MOL0     H68811   4.426   5.833   7.024 -0.2793  1.4846 -1.0790
  510MOL0     H68812   4.318   5.758   7.153 -0.2930  1.2131  1.6156
  510MOL0     H68813   4.252   5.842   7.018  0.0129 -1.8102  1.0344
  510MOL0     H68814   3.916   5.771   7.088  0.3170  2.0672  2.2946
  510MOL0     H68815   3.751   5.581   7.073 -1.2429 -1.4118  1.1567
  510MOL0     H68816   3.591   5.303   7.357 -1.4468  1.7333  3.7090
  510MOL0     H68817   3.633   5.478   7.394  1.6490  0.4480 -1.0594
  510MOL0     H68818   3.484   5.410   7.151 -1.5271 -0.1160  0.3597
  510MOL0     H68819   3.403   5.387   7.309  0.0830 -0.5674 -1.0294
  510MOL0     H68820   3.542   5.636   7.194 -1.6368  0.3503 -1.3821
  510MOL0     H68821   3.492   5.639   7.362 -3.4114  0.0099  1.1438
  510MOL0     H68822   3.305   5.618   7.130  1.0905  1.4132 -1.6925
  510MOL0     H68823   3.272   5.612   7.304  2.2031 -0.1839  1.8792
  510MOL0     H68824   3.348   5.840   7.328 -3.5871  2.1004  0.1211
  510MOL0     H68825   3.228   5.842   7.206 -0.0544  0.4140 -1.4458
  510MOL0     H68826   3.404   5.986   7.151 -1.2345 -1.5874 -0.1795
  510MOL0     H68827   3.526   5.866   7.175  1.9043  2.3727 -1.5432
  510MOL0     H68828   3.309   5.904   6.960 -1.0589 -2.0141 -3.7025
  510MOL0     H68829   3.375   5.745   6.961  0.1779 -0.8094  1.5536
  510MOL0     H68830   3.575   5.977   6.927 -0.3699  1.5147 -1.1029
  510MOL0     H68831   3.495   5.909   6.794 -2.0002  3.0494  0.5530
  510MOL0     H68832   3.872   5.430   7.434 -0.9976 -1.6077 -1.0670
  510MOL0     H68833   4.043   5.617   7.460 -1.2303 -0.4305  1.0157
  510MOL0     H68834   4.251   6.072   7.511  1.1827  0.8096  0.5526
  510MOL0     H68835   4.388   6.241   7.459 -2.9538 -0.6934  0.9749
  510MOL0     H68836   4.558   6.654   8.110  0.9951  0.9206  0.7038
  510MOL0     H68837   4.312   6.670   8.137 -0.8870  1.2955  2.3316
  510MOL0     H68838   3.937   6.452   8.645 -2.3979 -0.6172  1.9632
  510MOL0     H68839   3.690   6.387   8.625  3.0345 -1.3434  1.4361
  510MOL0     H68840   3.511   6.270   8.559 -1.8863 -0.6291  2.4844
  510MOL0     H68841   3.464   6.427   8.600 -0.2516  2.1583 -1.8347
  510MOL0     H68842   3.246   6.316   8.555  0.8442 -1.7405 -0.2129
  510MOL0     H68843   3.309   6.236   8.412  1.6315  0.3142 -0.4803
  510MOL0     H68844   3.155   6.418   8.351 -0.6854  0.4253  3.6337
  510MOL0     H68845   3.312   6.456   8.295  2.2713 -1.1924  1.8111
  510MOL0     H68846   3.187   6.642   8.409  0.1521  0.8004  0.5088
  510MOL0     H68847   3.352   6.616   8.466 -0.6244  0.1229  3.4536
  510MOL0     H68848   3.156   6.575   8.813  0.9405 -2.3847  0.3791
  510MOL0     H68849   3.674   6.501   8.220 -0.5088  0.3203  0.3951
  510MOL0     H68850   3.926   6.562   8.225 -0.4216 -0.3439 -0.4314
  511MOL0     O68851   0.920   2.943   6.245 -0.3374 -0.7006  0.0964
  511MOL0     C68852   1.033   2.992   6.268  0.5448  0.2362 -0.3684
  511MOL0     O68853   1.149   2.922   6.246 -0.4580  0.1646 -0.4696
  511MOL0     C68854   1.132   2.799   6.197 -0.3044 -1.1204 -0.7278
  511MOL0     C68855   1.164   2.689   6.277 -0.1584 -1.2601 -0.3794
  511MOL0     C68856   1.148   2.560   6.224  0.8055 -0.2342 -0.1914
  511MOL0     C68857   1.092   2.538   6.096 -0.8683  0.1414 -0.1731
  511MOL0     O68858   1.088   2.404   6.062  1.0660 -0.9376  0.1028
  511MOL0     C68859   1.112   2.365   5.928  0.4847  0.6112  0.4389
  511MOL0     C68860   1.086   2.220   5.905  0.2052  1.4752 -0.1446
  511MOL0     C68861   0.945   2.175   5.929 -0.0043 -0.5848  0.6337
  511MOL0     C68862   0.933   2.021   5.910  0.8852 -0.0888 -0.5460
  511MOL0     C68863   0.938   1.952   6.042  0.6560  0.3285 -0.2936
  511MOL0     C68864   0.803   1.908   6.080 -0.7827 -0.0669 -0.4993
  511MOL0     C68865   0.809   1.809   6.199  0.2571  0.5414  0.2692
  511MOL0     C68866   0.665   1.777   6.241  0.3761  0.1149 -0.1823
  511MOL0     N68867   0.657   1.668   6.331  0.5912 -0.9015 -0.1046
  511MOL0     C68868   0.584   1.689   6.447  0.1672 -0.2493 -0.1912
  511MOL0     C68869   0.581   1.562   6.507  0.1395  0.5138  0.5147
  511MOL0     C68870   0.534   1.530   6.643 -0.0953 -0.5465  0.3386
  511MOL0     C68871   0.557   1.641   6.744  0.3415  0.6150  0.0544
  511MOL0     C68872   0.514   1.596   6.884  0.6453  0.2710 -0.9309
  511MOL0     C68873   0.581   1.677   6.992 -0.2938  0.3736 -0.8632
  511MOL0     O68874   0.528   1.625   7.114  0.4336  0.6891  0.2930
  511MOL0     C68875   0.606   1.627   7.231  0.7874 -0.7980  1.2554
  511MOL0     C68876   0.721   1.546   7.225  0.1347 -0.4137  1.0292
  511MOL0     C68877   0.804   1.526   7.333  1.2796  0.4632 -0.5502
  511MOL0     C68878   0.927   1.445   7.318  0.6287 -0.1717  0.3066
  511MOL0     C68879   0.768   1.569   7.463  0.1084  0.0188  0.2002
  511MOL0     C68880   0.821   1.535   7.600  0.0243  0.6554 -0.5532
  511MOL0     O68881   0.759   1.593   7.715 -0.1996 -0.4173 -0.3220
  511MOL0     C68882   0.814   1.573   7.840  0.7432  0.5072  0.3017
  511MOL0     C68883   0.896   1.460   7.875  0.0699 -0.7136  0.6584
  511MOL0     C68884   0.929   1.442   8.012 -0.7683  0.0279 -0.1317
  511MOL0     C68885   0.900   1.531   8.115 -0.5725 -0.4955  0.1490
  511MOL0     O68886   0.927   1.500   8.241 -0.3534 -0.7704  0.9996
  511MOL0     C68887   0.962   1.371   8.278 -0.3111  0.1278 -0.2581
  511MOL0     C68888   0.908   1.348   8.416  1.1647  0.3813 -0.8877
  511MOL0     C68889   0.940   1.202   8.456  0.6390 -0.2409 -0.3651
  511MOL0     C68890   0.953   1.176   8.603 -0.1623 -0.0657 -0.7099
  511MOL0     C68891   1.009   1.037   8.631  0.4458 -0.3955  0.7765
  511MOL0     C68892   0.944   0.970   8.752 -0.9395  0.3044 -0.0070
  511MOL0     C68893   1.019   0.833   8.775  0.1823 -0.2201  0.0707
  511MOL0     C68894   0.958   0.773   8.898  0.1781 -0.8652  0.7320
  511MOL0    Cl68895   1.029   0.618   8.933 -0.3115  0.6752 -0.4330
  511MOL0     C68896   0.823   1.644   8.087  0.4042  0.5668  0.0678
  511MOL0     C68897   0.786   1.665   7.947 -0.6139  0.1287 -0.0564
  511MOL0     O68898   0.917   1.458   7.609 -0.5965  0.0925  0.4869
  511MOL0     C68899   0.654   1.655   7.458  0.0755  0.3231 -0.7592
  511MOL0     C68900   0.584   1.696   7.354  0.0107 -0.7759  1.3842
  511MOL0     N68901   0.641   1.474   6.420 -0.3557 -0.6526  0.3541
  511MOL0     N68902   0.683   1.538   6.314  0.3346  0.0969 -0.9322
  511MOL0     C68903   1.071   2.653   6.010  0.0936 -0.6548 -0.3679
  511MOL0     C68904   1.083   2.785   6.066 -0.4521  0.1026 -0.4356
  511MOL0     C68905   1.042   3.109   6.350  0.4511  0.4204  0.6684
  511MOL0     C68906   1.162   3.157   6.398 -1.0772 -1.0512 -0.4571
  511MOL0     C68907   1.161   3.264   6.487  0.4027  0.0830 -0.2201
  511MOL0     C68908   1.053   3.305   6.552  0.1102 -0.4363 -0.2875
  511MOL0     O68909   1.054   3.401   6.650  0.0596 -0.0154 -0.1075
  511MOL0     C68910   1.053   3.536   6.603  0.0651 -0.0235  0.1834
  511MOL0     C68911   0.932   3.625   6.660  0.1778 -0.0173  0.8503
  511MOL0     C68912   0.925   3.597   6.818  0.6838 -0.4465 -0.0107
  511MOL0     C68913   0.782   3.636   6.867  1.0570  0.0004  0.4431
  511MOL0     C68914   0.740   3.773   6.836  0.4597  0.0082 -0.0880
  511MOL0     C68915   0.704   3.878   6.798 -0.5299 -1.5467 -1.0773
  511MOL0     C68916   0.935   3.254   6.509 -0.1516  0.2952  0.2379
  511MOL0     C68917   0.929   3.155   6.413 -0.1720 -0.6924  0.0843
  511MOL0     H68918   1.192   2.714   6.379 -4.0501  1.6731  0.2170
  511MOL0     H68919   1.166   2.480   6.295 -0.5636 -0.1764  0.2557
  511MOL0     H68920   1.033   2.411   5.868 -1.4554  0.3755  2.6505
  511MOL0     H68921   1.210   2.398   5.893  2.7537 -4.6314  0.7952
  511MOL0     H68922   1.104   2.203   5.798  0.7624 -0.7656  0.2574
  511MOL0     H68923   1.153   2.157   5.964 -0.5801  0.3714 -0.4066
  511MOL0     H68924   0.898   2.201   6.024 -1.0663 -1.2554  0.3082
  511MOL0     H68925   0.897   2.225   5.844  3.2319 -0.5470 -1.3256
  511MOL0     H68926   0.836   2.010   5.860 -0.0089 -3.7685  1.6643
  511MOL0     H68927   1.007   1.983   5.838  1.4315  0.5890 -0.3560
  511MOL0     H68928   1.002   1.865   6.027 -1.3509 -1.1206 -0.8313
  511MOL0     H68929   0.979   2.011   6.125 -2.0202  4.2196 -1.4365
  511MOL0     H68930   0.743   1.995   6.107 -0.7561  1.0718 -3.6310
  511MOL0     H68931   0.749   1.860   5.997 -0.3559 -1.1993 -0.1418
  511MOL0     H68932   0.870   1.723   6.169 -1.5238 -0.9054  0.6156
  511MOL0     H68933   0.860   1.857   6.283  2.6763  1.2680 -1.4892
  511MOL0     H68934   0.601   1.742   6.159  2.0451  0.5522 -1.7330
  511MOL0     H68935   0.627   1.871   6.282  2.2023  1.0505 -0.5199
  511MOL0     H68936   0.561   1.789   6.482 -1.7598 -1.3402  1.8464
  511MOL0     H68937   0.428   1.501   6.641 -0.9868  2.2887 -1.8696
  511MOL0     H68938   0.589   1.441   6.672 -1.3791 -2.3468 -2.3366
  511MOL0     H68939   0.488   1.719   6.711 -0.9238 -1.4597 -2.5689
  511MOL0     H68940   0.657   1.685   6.751  1.1276 -1.1073  0.2508
  511MOL0     H68941   0.544   1.493   6.905 -0.9246 -0.2169 -0.9666
  511MOL0     H68942   0.406   1.598   6.901  0.9230 -0.4481  1.1393
  511MOL0     H68943   0.560   1.783   6.975  1.9279  1.3781  1.9478
  511MOL0     H68944   0.690   1.675   7.001 -0.2500 -2.0934 -1.2535
  511MOL0     H68945   0.745   1.496   7.132  0.5719 -0.8398  1.3619
  511MOL0     H68946   0.964   1.468   7.217  0.7054 -0.5603  0.2440
  511MOL0     H68947   1.010   1.483   7.378  0.0716  2.1649 -0.2841
  511MOL0     H68948   0.899   1.340   7.328  3.1864 -1.5759 -4.2259
  511MOL0     H68949   0.930   1.379   7.812 -1.0152 -0.1923 -0.6282
  511MOL0     H68950   0.994   1.356   8.024 -1.1005 -0.3282 -0.7793
  511MOL0     H68951   0.918   1.292   8.217 -0.6531  0.0097  0.1354
  511MOL0     H68952   1.070   1.357   8.281 -0.3426 -0.2119 -0.7111
  511MOL0     H68953   0.966   1.407   8.487 -0.5134 -0.0269  0.9228
  511MOL0     H68954   0.803   1.373   8.436  2.0368  0.9124  4.2968
  511MOL0     H68955   1.035   1.176   8.410  2.3060  2.3761  1.3152
  511MOL0     H68956   0.860   1.146   8.407 -0.4279  2.6433 -2.1597
  511MOL0     H68957   1.018   1.255   8.641 -1.8190  1.5660 -1.0806
  511MOL0     H68958   0.852   1.189   8.643  0.3862 -1.3047  1.1707
  511MOL0     H68959   1.116   1.053   8.647  0.6372 -1.0266  0.1548
  511MOL0     H68960   0.989   0.963   8.553  1.1357 -0.3170  0.5152
  511MOL0     H68961   0.956   1.029   8.844 -0.4780 -0.2319  0.2786
  511MOL0     H68962   0.838   0.953   8.730 -1.2329  1.5951  0.3224
  511MOL0     H68963   1.126   0.838   8.794  0.9944 -4.4953 -2.1472
  511MOL0     H68964   1.010   0.771   8.686 -0.9432  1.0966 -0.7918
  511MOL0     H68965   0.852   0.763   8.876 -0.4539 -1.5169  3.5856
  511MOL0     H68966   0.975   0.835   8.987 -4.2299 -0.3032  1.4066
  511MOL0     H68967   0.805   1.723   8.160  0.7618  1.7332 -1.0769
  511MOL0     H68968   0.751   1.767   7.932  2.0225  0.7865 -2.6596
  511MOL0     H68969   0.614   1.698   7.548  0.6554 -1.8896  0.6526
  511MOL0     H68970   0.495   1.759   7.352 -0.6864 -1.7282  0.0138
  511MOL0     H68971   1.021   2.649   5.914 -1.3248 -1.2767  0.3711
  511MOL0     H68972   1.060   2.876   6.011 -3.6688 -0.7598 -0.7077
  511MOL0     H68973   1.255   3.118   6.359 -0.3729 -0.9784  1.0808
  511MOL0     H68974   1.254   3.316   6.505 -0.6585  2.1770 -0.5465
  511MOL0     H68975   1.139   3.594   6.639 -0.4653  0.0591  1.3689
  511MOL0     H68976   1.064   3.555   6.496  0.9243 -1.1913  0.0425
  511MOL0     H68977   0.836   3.604   6.613 -0.4146  3.1169  0.4493
  511MOL0     H68978   0.958   3.729   6.639 -1.0486  0.0596 -0.3968
  511MOL0     H68979   0.993   3.670   6.863 -1.8942  1.8504  0.4479
  511MOL0     H68980   0.949   3.493   6.844  0.2457  0.0052  2.3870
  511MOL0     H68981   0.776   3.623   6.976  0.1998  0.3852  0.4568
  511MOL0     H68982   0.708   3.573   6.817  2.5765 -0.3210 -1.5228
  511MOL0     H68983   0.660   3.974   6.779  2.8470  0.1006 -1.2622
  511MOL0     H68984   0.856   3.286   6.577  0.9862  1.6862  0.9639
  511MOL0     H68985   0.832   3.111   6.392 -1.2064  0.1698  2.7644
  512MOL0     O68986   5.147   9.185   1.364  0.1124  0.8849 -0.0428
  512MOL0     C68987   5.032   9.160   1.344 -0.5792 -0.0543 -0.8486
  512MOL0     O68988   4.988   9.073   1.240 -0.1608  0.3310 -0.5708
  512MOL0     C68989   5.094   9.017   1.172  0.6972 -1.0262  0.0958
  512MOL0     C68990   5.159   8.912   1.223  0.4130 -0.2014  0.1731
  512MOL0     C68991   5.253   8.837   1.147  0.3068 -0.2502  0.0479
  512MOL0     C68992   5.278   8.873   1.009  0.6293 -0.9851  0.1895
  512MOL0     O68993   5.370   8.811   0.932  0.3436 -0.4394  0.5154
  512MOL0     C68994   5.430   8.689   0.981  0.1187 -0.4063 -0.1045
  512MOL0     C68995   5.530   8.652   0.873 -0.2470 -0.0959  0.5576
  512MOL0     C68996   5.464   8.637   0.729 -1.5494 -0.3208  0.3973
  512MOL0     C68997   5.560   8.569   0.628 -0.2542  0.7341  0.1492
  512MOL0     C68998   5.501   8.529   0.498 -0.3142  0.4493  0.2418
  512MOL0     C68999   5.421   8.399   0.505 -0.2707  0.7405 -0.7621
  512MOL0     C69000   5.350   8.351   0.375  0.5115 -0.7163  0.1145
  512MOL0     C69001   5.266   8.224   0.388 -0.9319 -1.1671 -0.0695
  512MOL0     N69002   5.173   8.223   0.279 -0.4125  0.1510 -0.0417
  512MOL0     C69003   5.063   8.304   0.257 -0.1259 -0.9455  0.4263
  512MOL0     C69004   4.988   8.239   0.172  0.5011  0.4555 -0.5479
  512MOL0     C69005   4.850   8.273   0.128  0.4955  0.5739 -0.5142
  512MOL0     C69006   4.747   8.271   0.240  0.3309 -0.6300 -0.0986
  512MOL0     C69007   4.710   8.121   0.277  0.2888  0.1914  0.1388
  512MOL0     C69008   4.582   8.103   0.369 -0.8784  0.3577  0.1429
  512MOL0     O69009   4.587   8.195   0.481 -0.3424 -0.2448  0.5096
  512MOL0     C69010   4.511   8.152   0.587 -0.0110 -0.3466  0.1145
  512MOL0     C69011   4.391   8.088   0.580 -0.3794  0.1945 -0.3095
  512MOL0     C69012   4.306   8.057   0.691 -0.1458 -0.5506 -0.2957
  512MOL0     C69013   4.168   8.000   0.659  0.5161 -0.5979 -0.6274
  512MOL0     C69014   4.354   8.091   0.820  0.8625  0.1204 -0.3446
  512MOL0     C69015   4.275   8.078   0.942 -0.4006 -0.2028  0.7628
  512MOL0     O69016   4.292   8.174   1.035 -0.0032 -0.1878  0.0813
  512MOL0     C69017   4.230   8.164   1.161  0.4992  0.0065  0.2297
  512MOL0     C69018   4.301   8.130   1.269 -0.5965 -0.2680 -0.7584
  512MOL0     C69019   4.248   8.130   1.400  0.2471 -0.3018 -0.0145
  512MOL0     C69020   4.115   8.167   1.414  0.1077  0.4437  0.1892
  512MOL0     O69021   4.081   8.179   1.548 -0.0124 -0.8420 -0.5352
  512MOL0     C69022   3.949   8.212   1.585  0.0768 -0.2770  1.0164
  512MOL0     C69023   3.946   8.227   1.740  0.4142  0.1969 -0.6675
  512MOL0     C69024   3.808   8.217   1.795 -0.7502  0.4520  0.2281
  512MOL0     C69025   3.791   8.304   1.925  0.3091  0.6173 -0.5231
  512MOL0     C69026   3.650   8.280   1.979  1.1949  0.6839  0.8400
  512MOL0     C69027   3.632   8.339   2.114 -0.5523  0.2462 -0.2041
  512MOL0     C69028   3.504   8.283   2.173 -0.2366 -0.0664 -0.0865
  512MOL0     C69029   3.482   8.308   2.319  0.2279  0.3771 -0.3845
  512MOL0    Cl69030   3.484   8.482   2.363  0.0045  0.6162 -0.1327
  512MOL0     C69031   4.032   8.170   1.301 -0.8144 -0.3600  0.3746
  512MOL0     C69032   4.094   8.178   1.176  0.9711  0.0670 -0.7533
  512MOL0     O69033   4.209   7.974   0.961 -0.2348  0.4007  0.0302
  512MOL0     C69034   4.478   8.161   0.829 -1.1057  0.5051  0.2034
  512MOL0     C69035   4.555   8.197   0.712 -0.4296 -0.9210  1.0962
  512MOL0     N69036   5.055   8.124   0.132 -0.5322 -0.1436 -0.6318
  512MOL0     N69037   5.160   8.108   0.205  0.6418 -0.8747 -0.3378
  512MOL0     C69038   5.205   8.986   0.951  0.6634  0.4820 -0.9610
  512MOL0     C69039   5.123   9.059   1.039  0.2818  0.4214  0.5088
  512MOL0     C69040   4.940   9.174   1.462  0.4172 -0.1119 -0.7257
  512MOL0     C69041   4.981   9.218   1.589  0.9788 -0.5137 -0.4949
  512MOL0     C69042   4.888   9.243   1.692  0.1843  0.4479 -0.4253
  512MOL0     C69043   4.755   9.203   1.677 -0.1013 -0.0158  0.5228
  512MOL0     O69044   4.656   9.233   1.764  0.1165  0.4938 -0.1824
  512MOL0     C69045   4.677   9.309   1.881 -0.7357 -0.6341 -0.1185
  512MOL0     C69046   4.537   9.320   1.936  0.3978  0.3847  0.1929
  512MOL0     C69047   4.435   9.402   1.856  0.6597 -0.5057 -0.5212
  512MOL0     C69048   4.478   9.540   1.792  0.2262 -0.3787 -0.4102
  512MOL0     C69049   4.375   9.580   1.700  0.0930 -0.7199  0.6930
  512MOL0     C69050   4.298   9.626   1.622  0.3867  0.5877 -0.1023
  512MOL0     C69051   4.715   9.148   1.549 -0.4126  0.3227  0.1746
  512MOL0     C69052   4.804   9.132   1.446 -0.4609  0.2921  0.5512
  512MOL0     H69053   5.125   8.877   1.320 -3.2600 -2.2815 -1.6718
  512MOL0     H69054   5.314   8.761   1.194  0.7064 -0.3147 -0.5705
  512MOL0     H69055   5.487   8.711   1.073  1.8355 -0.7256 -1.0402
  512MOL0     H69056   5.351   8.615   0.997 -0.8464  0.3637 -1.1631
  512MOL0     H69057   5.603   8.733   0.867 -0.6798  0.2821  0.3527
  512MOL0     H69058   5.572   8.558   0.910  1.2981 -0.1036 -1.0817
  512MOL0     H69059   5.374   8.578   0.742 -1.3475 -0.1500  3.5011
  512MOL0     H69060   5.444   8.741   0.700  2.7964  0.9844  1.3393
  512MOL0     H69061   5.641   8.641   0.610  0.8259 -0.0016  1.8497
  512MOL0     H69062   5.610   8.482   0.670  2.7331  1.6888 -1.1330
  512MOL0     H69063   5.431   8.611   0.478  0.2457  1.2553  1.5202
  512MOL0     H69064   5.574   8.523   0.417  0.8585  2.6407  1.0553
  512MOL0     H69065   5.494   8.319   0.519  0.8833  1.7863 -0.6149
  512MOL0     H69066   5.351   8.394   0.588 -0.3704  1.5866 -0.7843
  512MOL0     H69067   5.275   8.429   0.361  1.2368 -0.0671 -0.1997
  512MOL0     H69068   5.424   8.345   0.295 -0.3573  0.7807 -0.8650
  512MOL0     H69069   5.217   8.223   0.486 -2.0185 -2.5007 -0.6041
  512MOL0     H69070   5.337   8.141   0.387 -1.3803 -1.5819  0.8513
  512MOL0     H69071   5.014   8.379   0.319 -1.8924  0.3963 -2.3691
  512MOL0     H69072   4.866   8.375   0.091 -2.0623  1.7158  1.2269
  512MOL0     H69073   4.814   8.231   0.034 -1.7965 -0.7128  0.8335
  512MOL0     H69074   4.655   8.322   0.210 -2.8040 -4.0779  2.6469
  512MOL0     H69075   4.785   8.328   0.326  1.2765 -1.0517 -0.2290
  512MOL0     H69076   4.799   8.069   0.315 -0.0776 -0.4567  0.1187
  512MOL0     H69077   4.680   8.075   0.183  0.4998 -0.8150  0.5488
  512MOL0     H69078   4.580   8.001   0.409 -0.0175  0.6389  0.9708
  512MOL0     H69079   4.492   8.127   0.312 -1.1944 -0.0547  0.4551
  512MOL0     H69080   4.347   8.055   0.487 -1.8193  2.0496 -0.3434
  512MOL0     H69081   4.166   7.893   0.682  0.6391 -1.3415 -3.6846
  512MOL0     H69082   4.090   8.052   0.716  0.7516  1.7731 -2.3448
  512MOL0     H69083   4.146   8.021   0.554  3.4364 -0.4352 -1.2947
  512MOL0     H69084   4.406   8.107   1.256  0.0884  1.2547  1.5123
  512MOL0     H69085   4.316   8.109   1.482 -1.7592 -0.1983  1.7610
  512MOL0     H69086   3.919   8.305   1.536  1.7459  0.1247  0.7011
  512MOL0     H69087   3.880   8.131   1.560 -0.3105  0.4995 -0.5355
  512MOL0     H69088   3.998   8.142   1.787  0.4411 -0.9919 -2.7283
  512MOL0     H69089   4.002   8.317   1.766  0.1679  0.2465 -0.3035
  512MOL0     H69090   3.784   8.112   1.814  0.2323  0.0529 -0.6169
  512MOL0     H69091   3.738   8.247   1.716  1.0045 -0.1869 -1.6545
  512MOL0     H69092   3.865   8.272   1.998 -0.6983 -0.0747  0.2282
  512MOL0     H69093   3.818   8.406   1.896  0.0860  0.8805  0.1886
  512MOL0     H69094   3.648   8.170   1.985  1.4960  0.5922 -0.5284
  512MOL0     H69095   3.581   8.320   1.905 -0.3160 -1.1961  1.1427
  512MOL0     H69096   3.717   8.316   2.180 -0.6666 -0.6097 -0.3390
  512MOL0     H69097   3.618   8.447   2.109 -1.2549  0.3201  2.1745
  512MOL0     H69098   3.507   8.175   2.158 -2.9459  0.2625 -5.0907
  512MOL0     H69099   3.415   8.315   2.117 -1.5384  1.2369  2.5333
  512MOL0     H69100   3.552   8.252   2.382 -0.8406 -0.3667  0.1722
  512MOL0     H69101   3.390   8.264   2.359  0.2178  1.2432  0.5953
  512MOL0     H69102   3.924   8.156   1.302 -1.0034  0.0843 -3.0317
  512MOL0     H69103   4.036   8.184   1.084  0.3980 -2.7451 -0.6473
  512MOL0     H69104   4.508   8.194   0.928  1.0581 -1.1648  0.1708
  512MOL0     H69105   4.633   8.272   0.721  0.1550 -1.7350  7.4906
  512MOL0     H69106   5.208   9.021   0.848  0.0488  0.2042 -1.0776
  512MOL0     H69107   5.076   9.146   0.995  2.5775  1.8119  0.6457
  512MOL0     H69108   5.086   9.245   1.591  0.7070  0.6069  1.7705
  512MOL0     H69109   4.919   9.298   1.780 -2.1689  3.4737 -1.3180
  512MOL0     H69110   4.729   9.258   1.963  0.2015  0.3234 -0.1056
  512MOL0     H69111   4.730   9.402   1.861  4.1641 -2.6429  1.8480
  512MOL0     H69112   4.537   9.376   2.030 -2.9970  0.9978 -0.0375
  512MOL0     H69113   4.493   9.223   1.958  0.1268  0.0138 -1.8039
  512MOL0     H69114   4.341   9.424   1.908 -1.4004 -1.4194 -3.5813
  512MOL0     H69115   4.404   9.326   1.784  1.6770 -2.8037  1.3407
  512MOL0     H69116   4.576   9.536   1.744  0.4917 -0.6506  0.1378
  512MOL0     H69117   4.478   9.619   1.867 -1.1936 -1.2762  0.6005
  512MOL0     H69118   4.236   9.671   1.547  0.0605 -0.1981 -0.3082
  512MOL0     H69119   4.619   9.097   1.553 -0.1651 -0.1110  0.6617
  512MOL0     H69120   4.764   9.103   1.350  1.5974 -0.0294 -0.2595
  513MOL0     O69121   2.063   9.745   1.798 -0.3503 -0.0546  0.1469
  513MOL0     C69122   2.140   9.840   1.821 -0.0477  0.0476 -1.0544
  513MOL0     O69123   2.236   9.886   1.731 -0.5517 -0.0955 -0.1253
  513MOL0     C69124   2.257   9.837   1.607 -0.0062  0.6520 -0.1024
  513MOL0     C69125   2.373   9.866   1.535  0.0709  0.1040  0.3431
  513MOL0     C69126   2.419   9.795   1.419  0.5311  0.1903 -0.3324
  513MOL0     C69127   2.333   9.708   1.358  0.9097 -0.3439  0.1451
  513MOL0     O69128   2.367   9.644   1.243 -1.0289  0.5065 -0.6400
  513MOL0     C69129   2.317   9.509   1.223 -0.0436  0.6445  0.4342
  513MOL0     C69130   2.409   9.417   1.300  0.1115 -0.4235 -0.5337
  513MOL0     C69131   2.392   9.274   1.256 -0.1484  0.7810  0.2253
  513MOL0     C69132   2.474   9.172   1.343 -0.4102 -0.0517 -0.3308
  513MOL0     C69133   2.474   9.028   1.285 -0.4620 -0.2218 -0.0815
  513MOL0     C69134   2.502   8.908   1.377  0.5265  0.7516 -0.4975
  513MOL0     C69135   2.617   8.955   1.463 -0.1433  0.2152 -0.2612
  513MOL0     C69136   2.675   8.836   1.545 -0.2851 -0.8889  0.7863
  513MOL0     N69137   2.677   8.716   1.468 -0.2014  0.9371  0.6246
  513MOL0     C69138   2.771   8.676   1.377 -0.6959 -0.1832 -0.1993
  513MOL0     C69139   2.742   8.545   1.356  0.6944 -0.8714  0.9310
  513MOL0     C69140   2.797   8.462   1.239 -0.1454  0.4551  0.2296
  513MOL0     C69141   2.846   8.328   1.289  0.0653 -0.1739 -1.2400
  513MOL0     C69142   2.904   8.225   1.194 -0.4082 -0.3061 -0.0863
  513MOL0     C69143   2.929   8.092   1.259 -1.3339  0.4884 -0.6992
  513MOL0     O69144   3.035   8.025   1.178  0.6712 -0.3274 -0.0934
  513MOL0     C69145   3.064   7.896   1.197 -0.2171  0.2635 -0.1161
  513MOL0     C69146   3.174   7.840   1.138 -0.9571  1.1162  0.7110
  513MOL0     C69147   3.213   7.711   1.143 -0.2920  0.1625  0.4395
  513MOL0     C69148   3.339   7.669   1.081 -0.2440  0.4150 -0.1197
  513MOL0     C69149   3.125   7.615   1.201 -0.2232 -0.2127  0.7513
  513MOL0     C69150   3.152   7.472   1.210 -0.2130  0.0870  0.7970
  513MOL0     O69151   3.087   7.408   1.318  0.1333 -0.3180 -0.5217
  513MOL0     C69152   3.077   7.273   1.324  0.2430 -0.2151  0.0079
  513MOL0     C69153   3.128   7.221   1.442 -0.5679  0.9177 -0.4729
  513MOL0     C69154   3.119   7.084   1.465 -0.2725 -0.9867  0.2692
  513MOL0     C69155   3.075   6.999   1.363  1.1520  0.1174 -0.5291
  513MOL0     O69156   3.064   6.866   1.395 -0.7677 -0.5709 -0.5265
  513MOL0     C69157   3.095   6.770   1.297 -0.0461  0.7638  0.8510
  513MOL0     C69158   2.958   6.690   1.282 -0.1675  0.5019  0.2310
  513MOL0     C69159   2.911   6.646   1.423  0.0600  0.8084  0.2199
  513MOL0     C69160   2.798   6.545   1.414  0.5693  0.4572 -0.2713
  513MOL0     C69161   2.752   6.495   1.555  0.4628  0.0892  0.3226
  513MOL0     C69162   2.603   6.451   1.555 -0.1758  0.2864  0.0406
  513MOL0     C69163   2.553   6.387   1.686  0.4600 -0.7448 -0.9540
  513MOL0     C69164   2.401   6.383   1.692 -0.1578 -0.1842  0.6793
  513MOL0    Cl69165   2.329   6.543   1.639  0.1222 -0.3674  0.5040
  513MOL0     C69166   3.019   7.053   1.241 -0.3971 -0.1213  0.0896
  513MOL0     C69167   3.036   7.187   1.218  0.0963 -1.0693 -0.4440
  513MOL0     O69168   3.208   7.412   1.117  0.2385  0.8211  0.1187
  513MOL0     C69169   3.016   7.663   1.266  0.6060  0.0754  0.5026
  513MOL0     C69170   2.986   7.805   1.271 -1.2556 -0.1642 -0.5556
  513MOL0     N69171   2.631   8.513   1.427 -0.5448 -0.0062 -0.7101
  513MOL0     N69172   2.592   8.613   1.496  0.2546 -0.2324  0.2216
  513MOL0     C69173   2.204   9.701   1.408  0.0129 -0.7210 -0.6823
  513MOL0     C69174   2.164   9.755   1.534  0.1578  0.0511  0.4679
  513MOL0     C69175   2.125   9.919   1.939 -0.0551  0.6460  0.5808
  513MOL0     C69176   2.234  10.004   1.987 -0.2020  0.8004 -0.7001
  513MOL0     C69177   2.217  10.058   2.119  0.6206 -0.3546 -0.1671
  513MOL0     C69178   2.100  10.034   2.197  0.5825  0.6239 -0.9901
  513MOL0     O69179   2.111  10.105   2.316  0.1526 -0.2097 -0.3110
  513MOL0     C69180   2.029  10.060   2.427  0.6624 -0.7457  0.1536
  513MOL0     C69181   2.020  10.168   2.540  0.4483  1.2643  0.4033
  513MOL0     C69182   1.979  10.091   2.669  0.0627  0.4753  0.0327
  513MOL0     C69183   1.838  10.106   2.716  0.2986 -0.2159  0.3010
  513MOL0     C69184   1.750  10.069   2.609 -0.3336 -0.0893  0.5737
  513MOL0     C69185   1.678  10.062   2.511 -0.2529 -0.3710  0.6433
  513MOL0     C69186   1.999   9.963   2.147  0.6237 -0.9419  0.2202
  513MOL0     C69187   2.005   9.914   2.015  0.5778  0.3252 -0.3623
  513MOL0     H69188   2.443   9.940   1.572 -0.1825  0.2123  0.6044
  513MOL0     H69189   2.509   9.826   1.367  1.0087 -2.0592 -0.9529
  513MOL0     H69190   2.211   9.496   1.248 -0.0417  0.1809  0.2234
  513MOL0     H69191   2.322   9.480   1.117 -0.5856 -2.5648  1.1743
  513MOL0     H69192   2.511   9.439   1.267  0.2716  0.5368  0.5361
  513MOL0     H69193   2.388   9.421   1.407  0.2965  0.7736 -0.5244
  513MOL0     H69194   2.289   9.250   1.284 -0.9787  1.9160 -1.6334
  513MOL0     H69195   2.410   9.264   1.148  0.3594 -2.6571  0.5154
  513MOL0     H69196   2.574   9.204   1.371 -0.6549 -0.8114  1.5882
  513MOL0     H69197   2.425   9.168   1.441  1.2397 -0.2340  0.5124
  513MOL0     H69198   2.368   9.017   1.259 -1.5028 -0.9779  3.8222
  513MOL0     H69199   2.547   9.023   1.203  2.0908 -0.0315  2.0612
  513MOL0     H69200   2.413   8.893   1.438  0.7929 -2.4360 -0.7560
  513MOL0     H69201   2.513   8.814   1.323  2.4814 -0.2059  1.4380
  513MOL0     H69202   2.697   8.991   1.398 -0.5281  0.3915 -0.6441
  513MOL0     H69203   2.586   9.035   1.532  2.2718 -1.7809  3.4550
  513MOL0     H69204   2.607   8.817   1.628 -1.6459 -0.0852 -0.1009
  513MOL0     H69205   2.779   8.852   1.575 -0.5184  1.1314  0.6641
  513MOL0     H69206   2.837   8.739   1.318 -1.9732  0.5344 -0.9073
  513MOL0     H69207   2.717   8.455   1.165  0.4085 -0.4875 -0.3092
  513MOL0     H69208   2.889   8.504   1.197  0.9759 -1.0130  1.1028
  513MOL0     H69209   2.761   8.273   1.330  0.8079 -0.2219  0.3481
  513MOL0     H69210   2.919   8.325   1.371 -2.5948 -2.6840  1.2750
  513MOL0     H69211   3.005   8.256   1.166  1.1702 -1.5903  3.5448
  513MOL0     H69212   2.849   8.209   1.100 -0.0899  0.5970 -0.4384
  513MOL0     H69213   2.842   8.025   1.256 -0.9848 -0.0035 -0.1382
  513MOL0     H69214   2.955   8.104   1.365 -2.4663  1.0572 -0.4771
  513MOL0     H69215   3.243   7.902   1.082  0.8242 -4.6120 -4.5589
  513MOL0     H69216   3.402   7.635   1.163 -1.3508  1.8421  1.4045
  513MOL0     H69217   3.325   7.594   1.003 -0.7037 -1.0153  1.2979
  513MOL0     H69218   3.381   7.759   1.035 -3.3317  3.4060  2.4233
  513MOL0     H69219   3.170   7.278   1.524 -0.2181  0.0472 -0.0459
  513MOL0     H69220   3.169   7.045   1.553  3.6524 -0.7629 -1.6307
  513MOL0     H69221   3.129   6.818   1.205  0.7672  0.6869  1.1068
  513MOL0     H69222   3.167   6.705   1.347 -0.2355  0.8859  1.2915
  513MOL0     H69223   2.878   6.755   1.246 -0.0200  0.9083  0.6395
  513MOL0     H69224   2.978   6.610   1.210  1.4237  0.8997  0.1941
  513MOL0     H69225   2.876   6.727   1.488  1.1040  0.2244  1.5692
  513MOL0     H69226   2.993   6.590   1.469  1.2264  1.4248 -1.0199
  513MOL0     H69227   2.721   6.595   1.355 -0.4866 -0.2387  0.4684
  513MOL0     H69228   2.824   6.459   1.351 -1.0974  0.2891 -0.7855
  513MOL0     H69229   2.761   6.579   1.624 -0.2378 -0.9918  1.7759
  513MOL0     H69230   2.812   6.407   1.578  0.1678 -0.4361 -0.8241
  513MOL0     H69231   2.544   6.542   1.535 -0.1360  0.0368 -1.3091
  513MOL0     H69232   2.590   6.384   1.470  0.5068 -3.1345  2.4565
  513MOL0     H69233   2.589   6.439   1.774 -1.8862  0.8124 -0.8377
  513MOL0     H69234   2.598   6.287   1.696 -1.2544 -1.3330  1.7683
  513MOL0     H69235   2.376   6.359   1.796  0.5758 -2.1132  0.4389
  513MOL0     H69236   2.371   6.306   1.620  1.9318 -0.4683  0.0415
  513MOL0     H69237   2.987   6.989   1.160  1.8749  1.6222 -2.3334
  513MOL0     H69238   3.003   7.221   1.121 -0.6260  0.2132  0.2265
  513MOL0     H69239   2.947   7.600   1.320  3.4154 -2.7221  1.1499
  513MOL0     H69240   2.892   7.829   1.319  0.6575  1.4867  2.6972
  513MOL0     H69241   2.127   9.663   1.342  0.1116 -0.6149 -0.8602
  513MOL0     H69242   2.060   9.766   1.565  0.3264  1.0204  0.7389
  513MOL0     H69243   2.323  10.029   1.931  1.3968  0.7254  1.6335
  513MOL0     H69244   2.299  10.125   2.145  2.4807 -2.3127 -0.7424
  513MOL0     H69245   1.928  10.045   2.389  1.0441  0.5026 -1.4168
  513MOL0     H69246   2.072   9.968   2.468 -2.0219 -1.5061  1.4790
  513MOL0     H69247   1.957  10.254   2.514  0.4839  0.1061 -4.5815
  513MOL0     H69248   2.117  10.215   2.555  1.6127 -1.3458  1.7107
  513MOL0     H69249   2.037  10.141   2.747  3.0963  0.5140 -2.0795
  513MOL0     H69250   2.008   9.985   2.662  4.7470  1.5392  0.2637
  513MOL0     H69251   1.815  10.209   2.746  0.9848  1.0441 -3.0146
  513MOL0     H69252   1.829  10.038   2.801 -1.6728  0.4226  0.6492
  513MOL0     H69253   1.606  10.067   2.432 -1.7099 -0.6039  1.9053
  513MOL0     H69254   1.912   9.939   2.207 -1.1774 -1.0169 -2.2822
  513MOL0     H69255   1.926   9.843   1.992 -1.3206  2.1887  0.0541
  514MOL0     O69256   7.182   9.084  10.757  0.2038  0.1214 -0.4757
  514MOL0     C69257   7.075   9.139  10.781  0.0191  0.0085  0.1898
  514MOL0     O69258   6.957   9.075  10.808  0.1932  0.3118 -0.9376
  514MOL0     C69259   6.962   8.942  10.823  0.0792  0.0337  0.0052
  514MOL0     C69260   7.015   8.880  10.940 -0.2527  0.2014  0.4179
  514MOL0     C69261   7.028   8.742  10.944 -0.1961 -0.2127  0.6003
  514MOL0     C69262   6.984   8.654  10.836 -0.2258  0.2955 -0.2041
  514MOL0     O69263   7.011   8.513  10.832 -0.6595  0.7448 -0.0553
  514MOL0     C69264   7.069   8.437  10.947  0.8703  0.5498  0.3461
  514MOL0     C69265   6.972   8.420  11.065  0.0436  0.7228  0.6161
  514MOL0     C69266   6.850   8.341  11.010 -0.2928  0.0769  0.2458
  514MOL0     C69267   6.728   8.309  11.098  0.0888 -0.1565  0.2654
  514MOL0     C69268   6.629   8.219  11.036  0.8604  0.2061  0.2091
  514MOL0     C69269   6.543   8.149  11.148  0.4346  0.0741 -0.2771
  514MOL0     C69270   6.398   8.120  11.082 -0.1874 -0.5340  0.1820
  514MOL0     C69271   6.310   8.073  11.199 -0.4148 -0.9695 -0.0049
  514MOL0     N69272   6.336   7.929  11.235 -0.5257 -0.6144  0.1534
  514MOL0     C69273   6.246   7.839  11.284 -0.3887 -0.3864 -1.2964
  514MOL0     C69274   6.295   7.715  11.271 -0.2676  0.0319 -0.2511
  514MOL0     C69275   6.216   7.588  11.300  0.8917  1.2456  0.3889
  514MOL0     C69276   6.260   7.513  11.420  0.8254  0.8421 -0.0654
  514MOL0     C69277   6.259   7.585  11.551  0.5257  0.2363  1.1110
  514MOL0     C69278   6.301   7.499  11.663 -0.1956 -0.4643  1.7302
  514MOL0     O69279   6.439   7.446  11.650 -0.5242 -0.0329  0.4629
  514MOL0     C69280   6.487   7.346  11.730  0.3422  0.1361 -0.6709
  514MOL0     C69281   6.611   7.286  11.704  0.8517  0.3022 -0.0726
  514MOL0     C69282   6.673   7.198  11.797  0.3316  0.5841  0.3728
  514MOL0     C69283   6.826   7.178  11.789 -0.3723  0.6507  0.1185
  514MOL0     C69284   6.595   7.159  11.910 -0.9068  1.1902 -0.3536
  514MOL0     C69285   6.645   7.063  12.012  0.5014  0.4241  0.2007
  514MOL0     O69286   6.571   7.068  12.124 -0.6704  0.8076 -0.2007
  514MOL0     C69287   6.551   6.960  12.203  0.5340 -0.4216 -1.4310
  514MOL0     C69288   6.539   6.979  12.348 -0.7001  0.0236 -0.1905
  514MOL0     C69289   6.499   6.872  12.431  0.6584  0.0041  0.3594
  514MOL0     C69290   6.477   6.739  12.375 -0.4566  0.3472 -0.0302
  514MOL0     O69291   6.440   6.655  12.465  0.1465  0.1292  0.1162
  514MOL0     C69292   6.361   6.543  12.414 -0.1734 -0.4265 -0.9565
  514MOL0     C69293   6.316   6.458  12.542  0.2046 -0.4959 -0.0474
  514MOL0     C69294   6.186   6.508  12.607  0.7496  0.1124 -0.3314
  514MOL0     C69295   6.137   6.404  12.711 -0.2863  0.4725  0.1648
  514MOL0     C69296   6.005   6.441  12.778 -0.3066 -0.4503 -0.6798
  514MOL0     C69297   5.981   6.363  12.914  0.4155 -0.2793  0.6891
  514MOL0     C69298   5.988   6.213  12.896  0.4673  0.2146  0.6136
  514MOL0     C69299   5.954   6.143  13.022  0.7784  1.0129 -0.3245
  514MOL0    Cl69300   6.084   6.170  13.133 -0.3047 -0.6140 -0.6683
  514MOL0     C69301   6.479   6.723  12.236 -0.4033  0.1038 -0.0833
  514MOL0     C69302   6.515   6.832  12.154 -0.3034  0.3641 -0.3751
  514MOL0     O69303   6.743   6.987  11.995 -0.1917 -0.2018 -0.8594
  514MOL0     C69304   6.469   7.217  11.937 -0.3728 -0.1335  0.5543
  514MOL0     C69305   6.419   7.306  11.851 -0.0832  0.0572  0.2116
  514MOL0     N69306   6.424   7.724  11.228  0.0781 -0.8308  0.1784
  514MOL0     N69307   6.450   7.851  11.207 -0.2482  0.0771  0.2518
  514MOL0     C69308   6.926   8.718  10.727 -0.8686  0.4887  0.4399
  514MOL0     C69309   6.919   8.860  10.717 -0.9593  0.2722 -0.6503
  514MOL0     C69310   7.076   9.288  10.802 -0.0860  0.5737  0.1550
  514MOL0     C69311   7.193   9.370  10.771  0.6942  0.5051  0.2198
  514MOL0     C69312   7.195   9.505  10.798 -0.0827  0.2037 -0.6479
  514MOL0     C69313   7.085   9.572  10.862  0.1525 -0.0977 -0.2430
  514MOL0     O69314   7.081   9.697  10.915 -0.0020 -1.1167  0.4034
  514MOL0     C69315   7.212   9.754  10.938  1.2751 -0.0700 -0.0247
  514MOL0     C69316   7.195   9.894  10.976  0.1650 -0.9915  0.4320
  514MOL0     C69317   7.113   9.919  11.105 -0.4946 -0.2237 -0.3261
  514MOL0     C69318   7.110  10.073  11.131 -0.4464  0.1903 -1.4035
  514MOL0     C69319   7.007  10.131  11.041  0.7291 -0.3036  0.8069
  514MOL0     C69320   6.914  10.185  10.983 -0.7387  0.4059  1.4967
  514MOL0     C69321   6.966   9.493  10.883 -0.7195  0.3842 -0.2058
  514MOL0     C69322   6.964   9.358  10.852 -0.6863  0.1831 -0.2167
  514MOL0     H69323   7.056   8.942  11.019  0.0952 -0.4905  0.7949
  514MOL0     H69324   7.084   8.695  11.024 -1.3111  0.3216  1.7190
  514MOL0     H69325   7.102   8.340  10.910  0.8970 -0.0301  1.8098
  514MOL0     H69326   7.156   8.489  10.989  0.7696  1.4704 -0.5473
  514MOL0     H69327   7.014   8.363  11.147 -1.2847  1.0136  1.5386
  514MOL0     H69328   6.921   8.509  11.103 -4.3225 -0.5142 -1.6199
  514MOL0     H69329   6.804   8.391  10.924 -1.4719 -0.6619  0.4288
  514MOL0     H69330   6.886   8.241  10.984 -0.0756 -0.3294  2.0257
  514MOL0     H69331   6.777   8.266  11.185  0.7562  3.3541  1.8095
  514MOL0     H69332   6.689   8.403  11.138 -1.4185 -2.0222  3.5343
  514MOL0     H69333   6.571   8.294  10.982 -1.2915 -3.1659 -2.6373
  514MOL0     H69334   6.667   8.144  10.966  2.7783  0.3359  1.0558
  514MOL0     H69335   6.595   8.056  11.173 -0.4423 -0.6393 -0.9931
  514MOL0     H69336   6.535   8.216  11.233 -1.5700 -1.4182  0.7977
  514MOL0     H69337   6.352   8.209  11.037  4.2133  1.3178 -1.1838
  514MOL0     H69338   6.402   8.038  11.011  1.9677  0.3255 -0.7662
  514MOL0     H69339   6.201   8.080  11.188 -0.6192  0.1773  2.3516
  514MOL0     H69340   6.329   8.138  11.284  0.9797 -0.7020 -0.4995
  514MOL0     H69341   6.146   7.867  11.317  0.3347  2.9799 -1.6595
  514MOL0     H69342   6.108   7.603  11.301  0.4781 -1.2262 -0.0898
  514MOL0     H69343   6.242   7.522  11.216 -0.1798  4.9160 -3.1550
  514MOL0     H69344   6.360   7.471  11.402  0.9818  0.7920  0.8768
  514MOL0     H69345   6.195   7.427  11.440 -0.3556  2.2732  2.8248
  514MOL0     H69346   6.155   7.615  11.562  0.2806 -0.2549  0.2130
  514MOL0     H69347   6.313   7.679  11.533 -0.3725  0.7706  1.1696
  514MOL0     H69348   6.241   7.408  11.677 -0.7634 -0.1136  1.6205
  514MOL0     H69349   6.290   7.564  11.751 -2.5670  0.2123  1.0056
  514MOL0     H69350   6.665   7.319  11.616  0.5398  0.2231 -0.2978
  514MOL0     H69351   6.851   7.078  11.752  2.1287  1.5440 -0.7900
  514MOL0     H69352   6.860   7.255  11.720 -0.8792  0.8657  0.1056
  514MOL0     H69353   6.862   7.208  11.888  1.5282  3.5030 -1.3322
  514MOL0     H69354   6.559   7.072  12.400 -0.9401 -1.2059  2.2604
  514MOL0     H69355   6.462   6.885  12.532  0.3812  3.5380 -0.0852
  514MOL0     H69356   6.271   6.583  12.366 -0.4120  0.1129 -0.0872
  514MOL0     H69357   6.424   6.470  12.362  3.4637  2.3219 -0.7923
  514MOL0     H69358   6.303   6.359  12.498 -0.7399  0.5050 -2.1985
  514MOL0     H69359   6.398   6.457  12.615  2.3066 -0.3922 -2.2511
  514MOL0     H69360   6.110   6.509  12.528  0.7514 -0.4448 -0.3409
  514MOL0     H69361   6.202   6.606  12.653 -0.0127 -0.5009  1.2906
  514MOL0     H69362   6.129   6.309  12.656 -1.9304 -0.5581  2.0418
  514MOL0     H69363   6.219   6.387  12.781  0.4066 -0.0020 -0.7486
  514MOL0     H69364   5.916   6.428  12.715  0.1105 -0.6251 -1.2447
  514MOL0     H69365   6.000   6.549  12.796  2.7278  1.1007 -6.5993
  514MOL0     H69366   6.062   6.388  12.983  1.1128 -2.3253  0.6714
  514MOL0     H69367   5.882   6.388  12.953  0.2304  0.8144 -0.4045
  514MOL0     H69368   6.093   6.196  12.870  0.4540  0.1797  0.5822
  514MOL0     H69369   5.924   6.172  12.817  2.0329 -0.3436 -0.4091
  514MOL0     H69370   5.961   6.036  12.999  2.4140 -0.0090  3.9684
  514MOL0     H69371   5.857   6.174  13.062  1.0834 -0.0275  1.3226
  514MOL0     H69372   6.448   6.631  12.188  0.1968  0.1734 -0.6127
  514MOL0     H69373   6.520   6.817  12.046  1.7801  0.9427 -0.4025
  514MOL0     H69374   6.400   7.188  12.015 -0.3410 -3.7208 -0.5547
  514MOL0     H69375   6.325   7.354  11.876 -0.2611 -0.2675  0.1874
  514MOL0     H69376   6.898   8.647  10.650 -3.0898 -0.7165  2.2212
  514MOL0     H69377   6.883   8.903  10.624  0.5498  1.7241 -0.6149
  514MOL0     H69378   7.275   9.316  10.723 -2.4304 -3.8077 -0.8182
  514MOL0     H69379   7.286   9.560  10.776  0.2092 -0.5968 -1.4976
  514MOL0     H69380   7.263   9.691  11.012  0.5178 -1.1001 -0.3575
  514MOL0     H69381   7.270   9.762  10.846 -0.2716  2.3704 -0.8825
  514MOL0     H69382   7.147   9.943  10.891  1.4242 -0.4197  0.0301
  514MOL0     H69383   7.293   9.942  10.987  1.0117 -1.8027 -2.6747
  514MOL0     H69384   7.152   9.866  11.192 -0.2405  0.9872  0.3242
  514MOL0     H69385   7.012   9.878  11.100  0.6509 -3.1905 -1.8841
  514MOL0     H69386   7.207  10.125  11.133  0.2861 -0.9843  2.4265
  514MOL0     H69387   7.069  10.089  11.231  2.8287  0.2341  0.0800
  514MOL0     H69388   6.824  10.224  10.940  0.8011  1.6642 -0.7812
  514MOL0     H69389   6.873   9.538  10.915  0.0765  1.6543  0.3939
  514MOL0     H69390   6.873   9.302  10.866 -1.1905  1.1637  0.5280
  515MOL0     O69391   5.016   3.987   9.145  0.6638  0.3764  0.6186
  515MOL0     C69392   4.903   3.995   9.192 -0.5864  0.1793  0.6233
  515MOL0     O69393   4.837   3.886   9.240  0.3003 -0.1144 -0.8154
  515MOL0     C69394   4.893   3.768   9.217  0.0171  0.8315 -0.8364
  515MOL0     C69395   4.877   3.695   9.097  0.0148  0.2534 -0.0667
  515MOL0     C69396   4.935   3.571   9.075  1.0335 -0.4061  0.0427
  515MOL0     C69397   5.001   3.517   9.177  0.1939 -0.0875  0.1887
  515MOL0     O69398   5.053   3.391   9.145 -0.4585  0.2428 -0.7375
  515MOL0     C69399   5.157   3.341   9.242 -0.0335 -0.2131 -0.3774
  515MOL0     C69400   5.238   3.234   9.179 -0.8008 -0.5158 -0.6607
  515MOL0     C69401   5.327   3.278   9.068 -0.3798  0.4785  0.8369
  515MOL0     C69402   5.419   3.168   9.017 -0.6378 -0.2025  0.1409
  515MOL0     C69403   5.508   3.232   8.911  0.6753 -0.0803  0.0441
  515MOL0     C69404   5.619   3.132   8.874  0.1319  0.7464  0.1194
  515MOL0     C69405   5.731   3.125   8.968 -0.7021  0.2508 -0.4217
  515MOL0     C69406   5.848   3.042   8.922 -0.8929 -1.1273  0.4336
  515MOL0     N69407   5.806   2.908   8.872  0.4897 -0.1283  0.5457
  515MOL0     C69408   5.800   2.854   8.745 -0.7432  0.2786 -0.5153
  515MOL0     C69409   5.764   2.726   8.767 -0.0122  0.6626  0.0155
  515MOL0     C69410   5.731   2.628   8.648  0.3740 -0.6844  0.4986
  515MOL0     C69411   5.852   2.550   8.601 -0.6476  0.2129 -0.3460
  515MOL0     C69412   5.808   2.454   8.485 -0.1030  0.3489 -0.2219
  515MOL0     C69413   5.909   2.337   8.443 -0.4233  0.5082 -0.2393
  515MOL0     O69414   5.988   2.392   8.335 -0.6338  0.1754 -0.6962
  515MOL0     C69415   6.048   2.305   8.240  0.3706 -1.2608 -0.7432
  515MOL0     C69416   6.100   2.362   8.129  0.2148 -0.0196 -0.2995
  515MOL0     C69417   6.161   2.290   8.029 -0.1369 -0.7969  0.2489
  515MOL0     C69418   6.222   2.362   7.918 -0.7449  0.2438 -0.2423
  515MOL0     C69419   6.162   2.146   8.044  0.0835 -0.1412  0.1639
  515MOL0     C69420   6.227   2.049   7.944  0.4220  0.2310  0.1837
  515MOL0     O69421   6.302   1.951   7.997 -0.5664  0.3901  0.3536
  515MOL0     C69422   6.360   1.864   7.912 -0.0581  0.8087  0.0743
  515MOL0     C69423   6.284   1.752   7.881  0.2184  0.5059  0.6112
  515MOL0     C69424   6.333   1.655   7.784  0.2299  0.5469  0.2083
  515MOL0     C69425   6.463   1.665   7.732  0.5445 -0.3565  0.6998
  515MOL0     O69426   6.521   1.582   7.639  0.1168  0.9434  0.2623
  515MOL0     C69427   6.453   1.453   7.612 -0.4895  0.7538 -0.1769
  515MOL0     C69428   6.470   1.352   7.722  0.5146  0.6654 -0.4217
  515MOL0     C69429   6.604   1.286   7.714  0.0671 -0.0118  0.0947
  515MOL0     C69430   6.593   1.159   7.624  0.3823 -0.5210  0.2522
  515MOL0     C69431   6.733   1.108   7.570  0.0645 -0.6928 -0.3894
  515MOL0     C69432   6.783   1.169   7.435 -0.6323 -0.1665  1.2011
  515MOL0     C69433   6.697   1.144   7.300  0.0649  0.8414 -0.8807
  515MOL0     C69434   6.727   1.224   7.179 -0.1409 -0.6279 -0.9257
  515MOL0    Cl69435   6.592   1.202   7.059  0.2007  0.1644 -0.1015
  515MOL0     C69436   6.538   1.778   7.769 -1.0244  1.1264  0.9989
  515MOL0     C69437   6.487   1.878   7.854  0.0072  0.8276 -0.3415
  515MOL0     O69438   6.201   2.057   7.827  0.0235 -0.1501 -0.8362
  515MOL0     C69439   6.117   2.087   8.164  0.0682  0.0346 -0.1793
  515MOL0     C69440   6.045   2.165   8.258  0.2131 -0.2657 -0.6397
  515MOL0     N69441   5.749   2.705   8.898  0.1381  0.2653 -0.2045
  515MOL0     N69442   5.783   2.814   8.966 -0.3206  0.6967 -0.1233
  515MOL0     C69443   5.013   3.580   9.304  0.5038 -0.1840 -0.2842
  515MOL0     C69444   4.970   3.712   9.316  0.4656  0.1686 -0.3200
  515MOL0     C69445   4.833   4.122   9.207  0.3726 -0.3842  0.4302
  515MOL0     C69446   4.707   4.116   9.262 -0.0569 -0.4457  0.1456
  515MOL0     C69447   4.645   4.234   9.306 -0.0764 -0.6542 -0.3419
  515MOL0     C69448   4.703   4.359   9.272  0.5579 -0.3408 -0.2598
  515MOL0     O69449   4.609   4.460   9.290  0.2523 -0.5554 -0.1111
  515MOL0     C69450   4.620   4.592   9.235  0.0895  0.9970  0.7458
  515MOL0     C69451   4.592   4.598   9.084 -0.2552  0.3375 -0.1512
  515MOL0     C69452   4.445   4.558   9.047  0.3997 -0.0509  0.6159
  515MOL0     C69453   4.426   4.570   8.902  0.6870 -0.3494 -0.7929
  515MOL0     C69454   4.284   4.572   8.865  0.9478 -0.5975  0.2607
  515MOL0     C69455   4.172   4.583   8.819  0.9289 -0.4452 -0.3028
  515MOL0     C69456   4.819   4.359   9.199 -0.7580  0.8425  0.1038
  515MOL0     C69457   4.897   4.240   9.175 -1.0260  0.5869  0.7384
  515MOL0     H69458   4.813   3.720   9.013 -1.6938  4.4916  2.2120
  515MOL0     H69459   4.914   3.513   8.986 -0.3707 -0.3833  0.3327
  515MOL0     H69460   5.230   3.420   9.264 -1.9592  1.0778  1.8667
  515MOL0     H69461   5.097   3.308   9.327 -2.2413  1.1067 -1.3453
  515MOL0     H69462   5.294   3.184   9.259 -1.2897 -2.0756 -1.2355
  515MOL0     H69463   5.167   3.155   9.150 -1.9268 -0.5693  1.9972
  515MOL0     H69464   5.262   3.322   8.992 -2.3763 -1.9375  1.0378
  515MOL0     H69465   5.389   3.364   9.098  2.6752 -0.3545 -2.4100
  515MOL0     H69466   5.488   3.139   9.096  1.1147  0.9117 -0.8953
  515MOL0     H69467   5.362   3.085   8.974  0.0880  0.0698 -1.4527
  515MOL0     H69468   5.451   3.263   8.823  2.2351 -1.6008 -1.5896
  515MOL0     H69469   5.561   3.318   8.954  4.7500 -0.4620 -3.4939
  515MOL0     H69470   5.578   3.032   8.888  0.8318  0.1270 -1.8693
  515MOL0     H69471   5.658   3.142   8.772  2.3747 -2.5322  0.5150
  515MOL0     H69472   5.766   3.225   8.996  0.3047  0.5153 -2.4660
  515MOL0     H69473   5.696   3.082   9.063 -0.8718  1.3133  0.0120
  515MOL0     H69474   5.936   3.038   8.987  0.7065  0.2201 -1.4996
  515MOL0     H69475   5.903   3.091   8.841  0.3950 -0.3083  1.7725
  515MOL0     H69476   5.820   2.909   8.654 -0.3041 -1.0824 -1.2689
  515MOL0     H69477   5.670   2.552   8.696  0.1102 -1.8858 -1.6366
  515MOL0     H69478   5.676   2.675   8.566 -3.1645 -5.8235 -0.5142
  515MOL0     H69479   5.892   2.497   8.688  0.3524  1.5258  0.0144
  515MOL0     H69480   5.934   2.614   8.567 -0.5228  0.2293 -0.0190
  515MOL0     H69481   5.788   2.516   8.397  1.7810  1.3292 -0.0144
  515MOL0     H69482   5.716   2.404   8.517 -0.4812  1.6545  0.8380
  515MOL0     H69483   5.831   2.265   8.415 -1.5374  0.2610  3.0574
  515MOL0     H69484   5.971   2.296   8.523  1.5898  1.8635 -1.0369
  515MOL0     H69485   6.111   2.470   8.125  0.4492 -0.0052  0.6324
  515MOL0     H69486   6.244   2.308   7.825  2.1238  0.5526  0.1591
  515MOL0     H69487   6.165   2.454   7.900 -1.6699 -0.1111  0.8016
  515MOL0     H69488   6.323   2.384   7.955 -0.5875  0.0445 -0.5458
  515MOL0     H69489   6.183   1.743   7.921  0.2381  0.2977  0.6204
  515MOL0     H69490   6.267   1.569   7.778 -1.5996  1.7792  1.6276
  515MOL0     H69491   6.348   1.470   7.590 -0.3274 -0.2700 -1.8872
  515MOL0     H69492   6.490   1.410   7.519 -2.0589 -0.3633 -0.3088
  515MOL0     H69493   6.446   1.409   7.812  0.2727 -1.0972  0.6689
  515MOL0     H69494   6.384   1.285   7.723 -0.7774  2.2816  0.1160
  515MOL0     H69495   6.641   1.249   7.810 -1.5297  1.6565  1.4214
  515MOL0     H69496   6.687   1.352   7.686  0.8277 -0.2789  1.6421
  515MOL0     H69497   6.533   1.081   7.673  2.9102 -2.7648  0.0327
  515MOL0     H69498   6.529   1.179   7.538 -0.9682  0.5527  1.4462
  515MOL0     H69499   6.753   1.002   7.550  3.8469 -0.2932  0.4438
  515MOL0     H69500   6.809   1.144   7.640 -1.8318  0.8962  0.9264
  515MOL0     H69501   6.794   1.277   7.447 -2.4984  0.3126 -0.8214
  515MOL0     H69502   6.877   1.116   7.416 -0.3963  0.4418  0.5916
  515MOL0     H69503   6.590   1.160   7.310 -0.9719 -1.5586 -5.2646
  515MOL0     H69504   6.725   1.041   7.274  0.4062  0.6041  0.3939
  515MOL0     H69505   6.827   1.188   7.149 -0.3071 -1.2633 -0.7314
  515MOL0     H69506   6.728   1.326   7.216  0.3735 -0.6833 -0.7681
  515MOL0     H69507   6.635   1.800   7.727 -0.7402  4.2800  2.9612
  515MOL0     H69508   6.546   1.968   7.871 -0.6797  1.3633 -0.7363
  515MOL0     H69509   6.114   1.980   8.182 -1.6567  0.1490  0.3586
  515MOL0     H69510   6.014   2.132   8.357  2.9735  0.9947  0.7875
  515MOL0     H69511   5.056   3.524   9.387 -1.2253 -1.0186  0.0974
  515MOL0     H69512   4.973   3.763   9.412  0.3679 -3.1374  1.5759
  515MOL0     H69513   4.655   4.023   9.283  0.1783 -0.0685  2.7721
  515MOL0     H69514   4.545   4.225   9.347  0.4489 -0.2894  1.0514
  515MOL0     H69515   4.535   4.651   9.270  0.7738  2.9951 -0.7994
  515MOL0     H69516   4.718   4.637   9.256 -0.2447  1.5737  1.0959
  515MOL0     H69517   4.662   4.537   9.025  0.0984 -1.0936  1.6555
  515MOL0     H69518   4.596   4.705   9.061 -1.3828  1.0223  2.5115
  515MOL0     H69519   4.379   4.630   9.094  1.9975  2.0922 -0.2680
  515MOL0     H69520   4.427   4.452   9.070  1.1827 -0.9530 -2.4442
  515MOL0     H69521   4.477   4.490   8.848  4.0428 -0.3309  2.0561
  515MOL0     H69522   4.464   4.667   8.869  0.9955  0.3048  1.3425
  515MOL0     H69523   4.073   4.577   8.778  1.5447 -0.9474 -1.7553
  515MOL0     H69524   4.870   4.449   9.167  1.3892  0.9423  3.3008
  515MOL0     H69525   4.998   4.237   9.135 -0.0098 -1.8906  3.1685
  516MOL0     O69526   3.902   7.070   4.500  0.1919  0.5624 -0.1886
  516MOL0     C69527   3.836   6.983   4.452 -0.6273  0.3812 -0.9206
  516MOL0     O69528   3.844   6.948   4.325 -0.0334 -0.2391  0.5727
  516MOL0     C69529   3.956   6.987   4.266 -0.7571  0.6478  0.5489
  516MOL0     C69530   3.957   7.113   4.201 -0.2122  0.0978  0.6905
  516MOL0     C69531   4.079   7.161   4.149  0.5129 -0.0400 -0.2913
  516MOL0     C69532   4.197   7.078   4.158  0.5267 -0.2723 -0.2010
  516MOL0     O69533   4.309   7.098   4.088  0.5804  0.4911 -0.2944
  516MOL0     C69534   4.351   7.225   4.050  0.6676  0.4289 -0.3179
  516MOL0     C69535   4.447   7.280   4.150  0.3379  0.4471 -0.2578
  516MOL0     C69536   4.388   7.270   4.291  0.1828  0.6159 -0.4042
  516MOL0     C69537   4.475   7.320   4.404 -0.0351 -0.2192  0.7629
  516MOL0     C69538   4.423   7.289   4.547 -0.5579 -0.0155  1.1934
  516MOL0     C69539   4.527   7.320   4.659 -0.0774 -0.5565 -0.1923
  516MOL0     C69540   4.450   7.293   4.791  0.3003 -0.5149 -0.1146
  516MOL0     C69541   4.540   7.299   4.920 -0.0176  1.3383  0.4456
  516MOL0     N69542   4.680   7.253   4.914  0.1171 -0.2911 -0.7141
  516MOL0     C69543   4.710   7.123   4.923 -0.8577 -0.3274 -0.2743
  516MOL0     C69544   4.832   7.126   4.986 -0.7432  0.1018 -0.7121
  516MOL0     C69545   4.916   7.000   5.017 -0.1357  0.0647  0.4081
  516MOL0     C69546   5.006   6.980   4.891 -0.8921 -0.1419  0.1279
  516MOL0     C69547   5.133   7.075   4.883 -0.1201  0.4547 -0.5603
  516MOL0     C69548   5.271   7.002   4.852  0.2317 -0.0483  0.6973
  516MOL0     O69549   5.355   7.098   4.783  0.6615 -0.4939  0.0239
  516MOL0     C69550   5.358   7.104   4.646 -0.4333 -0.6174 -0.2750
  516MOL0     C69551   5.467   7.179   4.608 -0.1931  0.0388 -0.2244
  516MOL0     C69552   5.502   7.182   4.469 -0.8232 -0.0134 -0.1198
  516MOL0     C69553   5.611   7.277   4.433 -0.3475  0.6191  0.0298
  516MOL0     C69554   5.420   7.106   4.378  0.2072 -0.9214  0.5073
  516MOL0     C69555   5.443   7.113   4.236  1.1414  0.3032 -0.1049
  516MOL0     O69556   5.327   7.088   4.156  0.4780 -0.1556 -0.9692
  516MOL0     C69557   5.343   7.118   4.025  0.7684  0.4406 -0.7959
  516MOL0     C69558   5.239   7.207   3.987 -0.8121  0.1209 -0.1311
  516MOL0     C69559   5.235   7.237   3.846  0.3782  0.4647 -0.7418
  516MOL0     C69560   5.329   7.186   3.752  0.1844  0.3856  0.5006
  516MOL0     O69561   5.307   7.231   3.621  0.0055  0.2398  0.4224
  516MOL0     C69562   5.423   7.284   3.559 -0.1110 -0.6817  0.1574
  516MOL0     C69563   5.391   7.428   3.539 -0.5602  0.4834 -0.2037
  516MOL0     C69564   5.407   7.510   3.673  0.4342 -0.2557  0.1403
  516MOL0     C69565   5.537   7.518   3.749 -0.4785 -0.3826 -0.2747
  516MOL0     C69566   5.545   7.425   3.879  0.3990 -0.3601 -0.0295
  516MOL0     C69567   5.680   7.420   3.949 -0.6452 -0.2751 -0.3781
  516MOL0     C69568   5.710   7.535   4.065  0.5285 -0.4413  0.8399
  516MOL0     C69569   5.851   7.529   4.113 -0.6628  0.3974 -0.6883
  516MOL0    Cl69570   5.856   7.587   4.282 -0.4307 -0.2898  0.0249
  516MOL0     C69571   5.419   7.073   3.791 -0.0331 -0.3778 -0.2499
  516MOL0     C69572   5.435   7.063   3.933  0.1047  0.2122 -0.3735
  516MOL0     O69573   5.555   7.132   4.198  0.0614 -0.3976  0.6350
  516MOL0     C69574   5.304   7.040   4.427  0.7520 -1.0030  0.2191
  516MOL0     C69575   5.272   7.034   4.559  0.4564  0.3335  0.6636
  516MOL0     N69576   4.881   7.259   4.988  0.7659 -0.0594 -0.3157
  516MOL0     N69577   4.778   7.333   4.955 -0.0156  0.4897  0.1923
  516MOL0     C69578   4.194   6.946   4.216 -0.1907 -0.8101  0.7776
  516MOL0     C69579   4.069   6.912   4.268  0.6471  0.2155 -0.3589
  516MOL0     C69580   3.731   6.927   4.534  0.0352 -0.2228  0.1709
  516MOL0     C69581   3.622   6.874   4.477 -0.2488  1.1403 -0.1915
  516MOL0     C69582   3.523   6.808   4.551 -0.7746 -0.3189  0.1819
  516MOL0     C69583   3.505   6.837   4.692  0.4244  0.2627  1.2042
  516MOL0     O69584   3.410   6.780   4.777  0.3966 -0.1245 -0.0817
  516MOL0     C69585   3.308   6.702   4.710 -0.0414  0.0687 -0.4931
  516MOL0     C69586   3.355   6.556   4.684  0.4826  0.3101 -0.3047
  516MOL0     C69587   3.219   6.472   4.648  0.2789 -0.4456 -0.1973
  516MOL0     C69588   3.145   6.524   4.528  1.5175 -0.2791  0.9582
  516MOL0     C69589   3.222   6.564   4.412 -0.6971  0.2019 -0.1792
  516MOL0     C69590   3.301   6.588   4.325 -0.3044 -0.6760 -0.7343
  516MOL0     C69591   3.604   6.917   4.747 -0.4323 -0.4434  0.0146
  516MOL0     C69592   3.717   6.958   4.671  0.3032 -1.1828  0.2858
  516MOL0     H69593   3.864   7.169   4.202 -1.9408 -2.5638  2.3445
  516MOL0     H69594   4.071   7.260   4.106 -1.6769 -0.8720 -2.0140
  516MOL0     H69595   4.395   7.214   3.950 -2.1052 -0.4864 -1.5295
  516MOL0     H69596   4.272   7.301   4.049 -1.2121 -1.3859  1.3346
  516MOL0     H69597   4.541   7.226   4.137 -0.1484 -0.0911 -1.7024
  516MOL0     H69598   4.469   7.387   4.139 -0.3777  0.5575 -0.7041
  516MOL0     H69599   4.292   7.323   4.299  0.1361  0.4326  0.3613
  516MOL0     H69600   4.372   7.166   4.322  1.1219  1.0166  1.6004
  516MOL0     H69601   4.572   7.268   4.401 -0.1986 -0.4798 -0.6192
  516MOL0     H69602   4.494   7.424   4.377  0.9216 -0.3438  0.8869
  516MOL0     H69603   4.329   7.343   4.560 -0.8030 -0.1184 -0.0399
  516MOL0     H69604   4.391   7.184   4.550  1.5796 -0.7207  0.8375
  516MOL0     H69605   4.618   7.260   4.645  0.1584 -0.3677  0.4944
  516MOL0     H69606   4.567   7.422   4.666  0.3570 -0.7164 -0.3367
  516MOL0     H69607   4.365   7.363   4.791  0.2736 -0.3269 -3.9340
  516MOL0     H69608   4.416   7.190   4.774 -4.4464  1.2878 -4.0084
  516MOL0     H69609   4.491   7.238   4.998 -0.1144 -0.6557 -1.0900
  516MOL0     H69610   4.540   7.405   4.947  0.9971  1.4731 -0.0389
  516MOL0     H69611   4.655   7.031   4.907  0.5667 -0.8008 -3.2147
  516MOL0     H69612   4.960   6.988   5.117  1.4291  0.0333 -0.2634
  516MOL0     H69613   4.847   6.917   5.000 -1.0788  1.4190 -3.3348
  516MOL0     H69614   4.953   6.984   4.795  0.9086 -2.4294 -1.0723
  516MOL0     H69615   5.044   6.883   4.921 -1.7284 -0.5319 -0.0400
  516MOL0     H69616   5.134   7.144   4.968 -1.2721 -0.3640  0.1569
  516MOL0     H69617   5.111   7.141   4.798 -1.4760  0.4645 -0.2244
  516MOL0     H69618   5.239   6.919   4.789 -0.2344 -0.4078  1.3965
  516MOL0     H69619   5.325   6.973   4.942 -0.8447  1.8386  2.0142
  516MOL0     H69620   5.526   7.240   4.676  1.8440  0.1903 -2.0461
  516MOL0     H69621   5.699   7.219   4.405  0.9094 -0.2912  4.8445
  516MOL0     H69622   5.564   7.339   4.356 -0.1873  0.9289  0.1784
  516MOL0     H69623   5.652   7.336   4.515 -0.7911 -0.3174  0.9559
  516MOL0     H69624   5.171   7.251   4.059 -1.5012 -2.2931  0.7886
  516MOL0     H69625   5.162   7.300   3.796 -0.4570 -1.4413 -2.0395
  516MOL0     H69626   5.512   7.275   3.623  0.7698 -0.9396 -1.0600
  516MOL0     H69627   5.448   7.236   3.464  2.7966  1.8751 -0.5271
  516MOL0     H69628   5.476   7.462   3.480  2.5164 -2.3183  2.1949
  516MOL0     H69629   5.290   7.436   3.497 -0.7657 -1.2617 -0.1342
  516MOL0     H69630   5.326   7.479   3.740  1.1343 -3.4460 -0.3335
  516MOL0     H69631   5.379   7.612   3.645 -0.8912 -1.1771 -2.1474
  516MOL0     H69632   5.627   7.495   3.691  1.2257  4.4219 -0.0732
  516MOL0     H69633   5.552   7.620   3.788  1.7769 -0.1522 -1.5692
  516MOL0     H69634   5.534   7.330   3.827  0.8862 -0.3076 -0.2351
  516MOL0     H69635   5.468   7.444   3.954  0.2311 -0.0373 -0.2823
  516MOL0     H69636   5.680   7.334   4.017  0.2532 -0.2217 -0.3052
  516MOL0     H69637   5.759   7.422   3.874 -0.0843  1.4607  0.2230
  516MOL0     H69638   5.637   7.531   4.147 -0.4947  1.5709  0.1052
  516MOL0     H69639   5.687   7.636   4.029 -1.4684 -0.7796  1.0825
  516MOL0     H69640   5.909   7.600   4.054  2.1349 -0.7670  0.4895
  516MOL0     H69641   5.892   7.429   4.097  0.3788  0.8158 -0.6874
  516MOL0     H69642   5.488   7.019   3.727  2.5747  2.4269 -0.0599
  516MOL0     H69643   5.512   6.995   3.967 -0.7457 -0.8670 -0.5804
  516MOL0     H69644   5.237   6.985   4.363  0.9776 -3.1172  1.6861
  516MOL0     H69645   5.186   6.974   4.588 -1.7310  2.0645 -1.7323
  516MOL0     H69646   4.277   6.876   4.225 -1.3267 -2.2091  0.9062
  516MOL0     H69647   4.071   6.827   4.335 -0.5011 -0.0020 -0.5925
  516MOL0     H69648   3.611   6.850   4.371 -1.4858  1.6808 -0.2075
  516MOL0     H69649   3.450   6.758   4.488 -0.0418 -0.6144 -0.4574
  516MOL0     H69650   3.220   6.713   4.774  1.8287  0.4805  2.1991
  516MOL0     H69651   3.269   6.744   4.617 -2.4637  1.0750  0.9052
  516MOL0     H69652   3.384   6.523   4.785  0.8157  2.3336  0.3094
  516MOL0     H69653   3.438   6.542   4.615  0.4118 -2.8636  0.0721
  516MOL0     H69654   3.148   6.462   4.730 -0.4149  1.8946 -0.4253
  516MOL0     H69655   3.263   6.375   4.621  3.6115  0.8445  0.1279
  516MOL0     H69656   3.074   6.601   4.559  2.3369  1.6364 -1.5856
  516MOL0     H69657   3.092   6.432   4.505  1.6077 -1.0426  3.4581
  516MOL0     H69658   3.352   6.609   4.233  1.1435  1.6138  0.4700
  516MOL0     H69659   3.605   6.941   4.853  0.5225  1.9251 -0.4686
  516MOL0     H69660   3.782   7.009   4.741 -1.6338 -0.9083  1.9726
  517MOL0     O69661   5.659   8.408  10.763 -0.3720  0.0392 -0.3475
  517MOL0     C69662   5.553   8.469  10.777  0.1630  0.0211  0.9951
  517MOL0     O69663   5.451   8.470  10.681 -0.7782  0.0291 -0.8277
  517MOL0     C69664   5.411   8.360  10.612 -0.5340  0.3044 -0.0057
  517MOL0     C69665   5.447   8.217  10.625  0.8248 -0.7361 -0.0172
  517MOL0     C69666   5.398   8.121  10.539 -0.4224  0.8850  0.3630
  517MOL0     C69667   5.298   8.160  10.441 -0.1500  0.5192  1.0361
  517MOL0     O69668   5.230   8.082  10.352 -0.1020 -0.6530 -0.4275
  517MOL0     C69669   5.290   7.963  10.304  0.1589 -0.4986  0.9211
  517MOL0     C69670   5.213   7.919  10.183 -1.0500 -0.0269  0.6919
  517MOL0     C69671   5.221   8.019  10.068  0.0287 -0.4160  0.3633
  517MOL0     C69672   5.126   7.974   9.959  0.1012 -0.2963 -0.3785
  517MOL0     C69673   5.143   8.048   9.827 -0.0844 -0.2514  0.3341
  517MOL0     C69674   5.016   8.018   9.733 -0.6411  0.9282 -0.6322
  517MOL0     C69675   5.013   8.042   9.587 -0.4094 -0.8828  0.4973
  517MOL0     C69676   4.964   7.913   9.510  0.2340  0.0642 -0.0416
  517MOL0     N69677   5.052   7.797   9.505 -0.4312 -0.2189 -0.4964
  517MOL0     C69678   5.189   7.790   9.512  0.9420 -0.8165  0.2356
  517MOL0     C69679   5.216   7.662   9.487  1.2356 -0.3481 -0.2555
  517MOL0     C69680   5.357   7.620   9.490  0.2203  0.6019  0.6210
  517MOL0     C69681   5.370   7.498   9.590 -0.6200  0.1842  0.8031
  517MOL0     C69682   5.507   7.437   9.602  0.1026  0.5359  0.1321
  517MOL0     C69683   5.568   7.399   9.463  0.0843  0.1003  0.4658
  517MOL0     O69684   5.493   7.290   9.410 -0.8588  0.3956 -0.2306
  517MOL0     C69685   5.543   7.208   9.313  0.5289  0.0794 -0.5574
  517MOL0     C69686   5.654   7.232   9.237  0.6906  0.1495 -0.0895
  517MOL0     C69687   5.691   7.148   9.129 -0.4909 -1.7527  0.2981
  517MOL0     C69688   5.810   7.196   9.049 -0.2838 -0.2305  0.6497
  517MOL0     C69689   5.607   7.034   9.092  0.6484 -0.4597 -0.5009
  517MOL0     C69690   5.638   6.933   8.986 -0.2564 -1.5339 -0.4749
  517MOL0     O69691   5.731   6.973   8.888  0.6348 -0.0942  0.6905
  517MOL0     C69692   5.742   6.890   8.784 -1.0919  0.0729 -0.1567
  517MOL0     C69693   5.712   6.930   8.653 -0.2152  0.1093 -0.0572
  517MOL0     C69694   5.756   6.850   8.546  0.6874  0.7191  0.5941
  517MOL0     C69695   5.824   6.731   8.567  0.0116  0.8165  0.2393
  517MOL0     O69696   5.885   6.649   8.467 -1.0174  0.4569 -0.5162
  517MOL0     C69697   5.829   6.643   8.328  0.6664  0.9331  0.1571
  517MOL0     C69698   5.910   6.533   8.261  0.1614  0.5379  0.2065
  517MOL0     C69699   5.933   6.396   8.335  0.1326 -0.0253  0.1522
  517MOL0     C69700   5.804   6.317   8.356 -0.2778  0.3865 -0.1948
  517MOL0     C69701   5.846   6.193   8.443  0.2644  0.5038  0.0866
  517MOL0     C69702   5.743   6.085   8.450  0.4920 -0.3115  0.5200
  517MOL0     C69703   5.790   5.965   8.536  0.4806  0.2757 -0.1285
  517MOL0     C69704   5.684   5.935   8.637  0.4497 -0.8059 -1.5307
  517MOL0    Cl69705   5.645   6.076   8.731  0.0441  0.2675 -0.2175
  517MOL0     C69706   5.838   6.689   8.691 -0.7298 -0.2542  0.1667
  517MOL0     C69707   5.798   6.760   8.808  0.4830  0.8990 -0.1025
  517MOL0     O69708   5.580   6.827   8.993 -0.3971  0.6686  0.6152
  517MOL0     C69709   5.493   7.011   9.173 -0.0425  0.2011 -0.0964
  517MOL0     C69710   5.463   7.097   9.278  0.2002 -0.4769 -0.9078
  517MOL0     N69711   5.103   7.582   9.487  0.8454 -0.4493  0.4251
  517MOL0     N69712   5.005   7.667   9.496 -0.2155 -1.2977  0.9006
  517MOL0     C69713   5.262   8.292  10.425 -0.1609 -0.3187 -0.0900
  517MOL0     C69714   5.326   8.399  10.506  0.5029 -0.7114  0.0023
  517MOL0     C69715   5.543   8.550  10.897  0.4389 -0.3904  0.6147
  517MOL0     C69716   5.663   8.582  10.969 -0.4406 -0.1931  0.4752
  517MOL0     C69717   5.659   8.665  11.075 -0.0281 -0.6106  0.8044
  517MOL0     C69718   5.530   8.706  11.130 -0.0723 -0.1380 -0.3338
  517MOL0     O69719   5.509   8.794  11.234 -0.3479  0.5004  0.1695
  517MOL0     C69720   5.622   8.871  11.283 -0.7779  0.2478  0.6780
  517MOL0     C69721   5.574   8.992  11.365 -0.3677  0.9863 -0.4224
  517MOL0     C69722   5.483   8.935  11.478 -0.3512 -0.1070 -0.5822
  517MOL0     C69723   5.428   9.053  11.560  0.3245  0.4585 -0.7270
  517MOL0     C69724   5.350   9.021  11.689 -0.4369 -0.0847  0.8313
  517MOL0     C69725   5.286   8.988  11.784 -0.2495  0.4983  0.6329
  517MOL0     C69726   5.414   8.670  11.065 -0.9425 -0.0565 -0.1938
  517MOL0     C69727   5.424   8.586  10.949  0.3751 -0.8329  0.3496
  517MOL0     H69728   5.520   8.189  10.701  0.7330  1.0065  0.7552
  517MOL0     H69729   5.426   8.017  10.551  1.5184  1.3574  0.2046
  517MOL0     H69730   5.389   7.985  10.262 -1.3134  1.6809 -1.8038
  517MOL0     H69731   5.284   7.885  10.380 -2.7079 -1.0621  0.2383
  517MOL0     H69732   5.264   7.829  10.146 -2.0341 -0.7433  1.0393
  517MOL0     H69733   5.116   7.908  10.232 -0.7456  0.6950  1.4672
  517MOL0     H69734   5.219   8.121  10.107  1.1195  0.1778 -1.0478
  517MOL0     H69735   5.320   8.010  10.023 -0.3269 -1.2743 -0.2781
  517MOL0     H69736   5.150   7.868   9.949  1.3820  0.0408 -1.0704
  517MOL0     H69737   5.021   7.978   9.990  0.3791  3.0117  0.4958
  517MOL0     H69738   5.143   8.157   9.835  0.2473 -0.1059 -1.2089
  517MOL0     H69739   5.234   8.021   9.772 -0.9442  0.6259 -1.6415
  517MOL0     H69740   4.993   7.913   9.754 -1.3020  1.1996  0.0304
  517MOL0     H69741   4.937   8.074   9.784 -1.0046  2.1962 -2.5007
  517MOL0     H69742   4.937   8.117   9.565  0.7872  0.3497  0.4470
  517MOL0     H69743   5.104   8.084   9.542 -0.3526  1.8944  2.8297
  517MOL0     H69744   4.938   7.942   9.408 -0.7584  0.2149  0.2485
  517MOL0     H69745   4.870   7.887   9.559 -0.7394  0.0421 -1.8452
  517MOL0     H69746   5.260   7.871   9.522 -0.2098  0.4331 -1.1735
  517MOL0     H69747   5.387   7.589   9.390 -3.9283 -1.2782 -0.2352
  517MOL0     H69748   5.423   7.701   9.523 -1.6214  1.8836  1.3104
  517MOL0     H69749   5.308   7.416   9.552 -1.9225  0.9583  1.2178
  517MOL0     H69750   5.332   7.519   9.690 -1.3164 -1.9086  1.0383
  517MOL0     H69751   5.508   7.354   9.673  0.9072  0.3910 -0.0308
  517MOL0     H69752   5.564   7.511   9.660 -1.8845  1.5187  0.9381
  517MOL0     H69753   5.671   7.367   9.479  0.7315  0.8404 -1.8789
  517MOL0     H69754   5.576   7.491   9.404  1.0140 -0.5903 -0.5224
  517MOL0     H69755   5.720   7.313   9.263  0.0646  0.4068  0.7627
  517MOL0     H69756   5.876   7.112   9.024 -0.4102  0.3843 -2.0055
  517MOL0     H69757   5.773   7.229   8.952  0.3419  1.0214  0.8145
  517MOL0     H69758   5.869   7.276   9.094  0.4424 -0.7837  0.7163
  517MOL0     H69759   5.683   7.029   8.618  1.1485  0.4721 -0.2427
  517MOL0     H69760   5.731   6.859   8.441  2.2110 -3.5941 -0.3113
  517MOL0     H69761   5.722   6.621   8.339  0.5350  2.6205  3.9618
  517MOL0     H69762   5.851   6.737   8.277  2.9044  0.7943  0.7818
  517MOL0     H69763   5.862   6.510   8.165 -4.2237  0.4130  2.2181
  517MOL0     H69764   6.008   6.582   8.256  0.3022  0.1650 -1.2729
  517MOL0     H69765   5.964   6.414   8.439 -4.2043 -1.1867  1.8688
  517MOL0     H69766   6.005   6.332   8.285  0.3333 -0.6871  1.2564
  517MOL0     H69767   5.730   6.376   8.411 -1.4591  0.5338 -1.8619
  517MOL0     H69768   5.753   6.297   8.262 -1.4063  3.8357 -0.4788
  517MOL0     H69769   5.878   6.219   8.544 -0.1555 -1.8887  0.9133
  517MOL0     H69770   5.940   6.148   8.409  1.0026  1.5976  0.6534
  517MOL0     H69771   5.642   6.121   8.474 -0.8776 -3.0642 -0.6155
  517MOL0     H69772   5.727   6.054   8.347 -0.2531 -0.4450  0.6695
  517MOL0     H69773   5.877   5.999   8.594 -0.4216  1.9560  0.3031
  517MOL0     H69774   5.813   5.882   8.469 -2.4515  0.6273 -1.7259
  517MOL0     H69775   5.710   5.841   8.687 -0.5726 -0.5836 -0.5340
  517MOL0     H69776   5.595   5.907   8.580  0.4495  0.6688 -2.2929
  517MOL0     H69777   5.904   6.603   8.700 -0.8208 -0.5063 -1.4134
  517MOL0     H69778   5.825   6.714   8.902 -2.4411 -1.4081 -0.2656
  517MOL0     H69779   5.427   6.925   9.168  1.3314 -1.0464  1.8834
  517MOL0     H69780   5.375   7.089   9.340 -1.4846 -1.8137 -3.3109
  517MOL0     H69781   5.181   8.321  10.359 -0.2553  0.0472  0.1800
  517MOL0     H69782   5.300   8.503  10.488  1.0827 -0.5629  0.0101
  517MOL0     H69783   5.762   8.565  10.929 -0.1110  2.1709  0.1239
  517MOL0     H69784   5.749   8.688  11.131  0.3237  0.2959 -0.1110
  517MOL0     H69785   5.694   8.809  11.336 -1.7574  0.0482  1.7928
  517MOL0     H69786   5.675   8.908  11.194  0.8277  0.2127  1.5723
  517MOL0     H69787   5.524   9.061  11.296 -0.8566  1.6576  0.5763
  517MOL0     H69788   5.651   9.056  11.411 -2.7155  1.8822  2.5366
  517MOL0     H69789   5.534   8.870  11.549 -1.2373  1.3467  1.5015
  517MOL0     H69790   5.397   8.880  11.438 -1.4344  2.7320 -2.4614
  517MOL0     H69791   5.347   9.091  11.497 -1.7660 -0.6477  1.1388
  517MOL0     H69792   5.504   9.129  11.580  1.0490 -0.2673 -0.6889
  517MOL0     H69793   5.223   8.931  11.850 -2.0019 -0.3269 -1.6084
  517MOL0     H69794   5.322   8.706  11.110 -0.5656 -2.8568  3.2961
  517MOL0     H69795   5.330   8.571  10.896  1.0640 -1.1797 -0.8228
  518MOL0     O69796   7.212  10.266   7.503 -0.5820 -0.1946  0.8831
  518MOL0     C69797   7.157  10.373   7.519 -0.5975 -0.2771 -0.4136
  518MOL0     O69798   7.181  10.455   7.622  0.6671 -0.5717 -0.6552
  518MOL0     C69799   7.290  10.442   7.711  0.5838  0.8853  0.1837
  518MOL0     C69800   7.288  10.505   7.841  0.1488 -0.1668  0.5866
  518MOL0     C69801   7.402  10.500   7.918  0.3782 -0.4031  0.3603
  518MOL0     C69802   7.510  10.425   7.892 -0.9627 -0.0528 -0.2861
  518MOL0     O69803   7.610  10.447   7.983  0.2715  0.3008 -0.9416
  518MOL0     C69804   7.734  10.377   7.954  0.3225 -0.5355 -0.3240
  518MOL0     C69805   7.820  10.374   8.081 -0.1141 -0.1241 -0.4295
  518MOL0     C69806   7.804  10.264   8.183  0.4550  0.5237  0.2727
  518MOL0     C69807   7.901  10.277   8.294 -0.9477  0.5912 -0.3577
  518MOL0     C69808   7.917  10.146   8.356  0.0795  0.0472 -0.0354
  518MOL0     C69809   8.015  10.161   8.471  0.2890 -0.2272 -0.3667
  518MOL0     C69810   7.995  10.038   8.574 -0.6245  0.4955 -0.6747
  518MOL0     C69811   8.022   9.898   8.530  0.0744 -0.0249 -1.0386
  518MOL0     N69812   7.903   9.830   8.478 -0.3634  0.4760  0.3833
  518MOL0     C69813   7.842   9.833   8.353 -0.1607  0.9846  0.3266
  518MOL0     C69814   7.738   9.744   8.361 -0.8654 -0.8111  0.4006
  518MOL0     C69815   7.637   9.699   8.250  0.2184 -0.1596  0.0088
  518MOL0     C69816   7.501   9.769   8.266  0.4816  0.3492 -0.7139
  518MOL0     C69817   7.412   9.706   8.379 -0.3628 -0.9555  0.3885
  518MOL0     C69818   7.274   9.772   8.389  0.0778 -0.3852  0.1606
  518MOL0     O69819   7.175   9.727   8.479 -0.1838  0.0881 -0.5930
  518MOL0     C69820   7.202   9.766   8.609  0.1491 -0.6959  0.3600
  518MOL0     C69821   7.163   9.884   8.666 -0.7840 -0.3219 -0.7594
  518MOL0     C69822   7.202   9.929   8.792  0.2391  0.7536 -0.6014
  518MOL0     C69823   7.128  10.051   8.855  0.7537 -0.1065 -0.2938
  518MOL0     C69824   7.296   9.845   8.861  0.0409  0.5761  0.6629
  518MOL0     C69825   7.365   9.874   8.986  0.4685 -0.3944 -0.5484
  518MOL0     O69826   7.467   9.794   9.007  0.1534  0.6291 -0.1837
  518MOL0     C69827   7.541   9.809   9.125  1.1064 -0.2194  0.5423
  518MOL0     C69828   7.513   9.737   9.239 -0.4753 -0.2345  0.5598
  518MOL0     C69829   7.596   9.757   9.352 -0.3533 -0.0192  0.1462
  518MOL0     C69830   7.707   9.836   9.355 -0.4450 -1.0102  0.2080
  518MOL0     O69831   7.766   9.863   9.475 -0.4662 -0.5374 -0.1689
  518MOL0     C69832   7.892   9.927   9.468 -0.0301  0.4000  0.0559
  518MOL0     C69833   7.993   9.862   9.574 -0.4129 -0.3603  0.6564
  518MOL0     C69834   7.938   9.884   9.716 -0.1853  0.7022  0.4986
  518MOL0     C69835   8.007   9.783   9.824  1.2732 -0.7001  0.0148
  518MOL0     C69836   7.921   9.802   9.956 -0.3585 -0.6154 -0.1462
  518MOL0     C69837   8.013   9.800  10.083 -0.1963 -0.7241  0.4853
  518MOL0     C69838   8.096   9.928  10.084 -0.1416  0.3328  0.4082
  518MOL0     C69839   8.190   9.926  10.201 -1.3879 -0.1916  0.3575
  518MOL0    Cl69840   8.267  10.084  10.220 -0.5969  0.0613 -0.3659
  518MOL0     C69841   7.735   9.901   9.234 -0.0393 -1.0637  0.0751
  518MOL0     C69842   7.655   9.891   9.124  0.1443  0.1165  0.3334
  518MOL0     O69843   7.340   9.975   9.050  0.3587 -0.2206  0.2667
  518MOL0     C69844   7.328   9.725   8.797 -1.4627  1.4519 -0.2020
  518MOL0     C69845   7.283   9.680   8.674  0.2533  0.1804 -1.0391
  518MOL0     N69846   7.731   9.703   8.497 -0.0104 -0.3148 -0.2383
  518MOL0     N69847   7.829   9.749   8.560  0.0235 -0.2614 -0.1168
  518MOL0     C69848   7.519  10.362   7.773  0.9023  0.0188 -0.0003
  518MOL0     C69849   7.408  10.367   7.683 -0.2448  0.3561 -0.0539
  518MOL0     C69850   7.053  10.400   7.415  0.2696  1.2268  0.8726
  518MOL0     C69851   6.975  10.516   7.419 -0.2619  0.2047 -0.7341
  518MOL0     C69852   6.870  10.549   7.336 -0.2836 -0.3283  0.1228
  518MOL0     C69853   6.844  10.465   7.233 -0.2194 -0.2844  0.9964
  518MOL0     O69854   6.743  10.488   7.139 -0.9885  0.1143 -0.0609
  518MOL0     C69855   6.639  10.586   7.174 -0.3550  0.1230  0.8420
  518MOL0     C69856   6.507  10.549   7.104  0.8220  0.8137 -0.3069
  518MOL0     C69857   6.525  10.581   6.957  0.1640 -0.3555 -0.5309
  518MOL0     C69858   6.402  10.522   6.881  0.3946  0.1618  0.0552
  518MOL0     C69859   6.429  10.521   6.737 -0.0007 -0.2858 -0.3082
  518MOL0     C69860   6.449  10.520   6.616 -0.0099  0.3279 -0.2739
  518MOL0     C69861   6.929  10.355   7.205 -0.5991  0.7104  0.2396
  518MOL0     C69862   7.030  10.321   7.298 -0.5768 -0.5340  0.3788
  518MOL0     H69863   7.209  10.573   7.869 -1.8799 -2.4174  0.7034
  518MOL0     H69864   7.393  10.564   8.005 -0.3160  0.7115 -0.5100
  518MOL0     H69865   7.717  10.279   7.908  0.5741  0.0940 -1.7896
  518MOL0     H69866   7.790  10.435   7.881  1.6504  1.3127  1.9936
  518MOL0     H69867   7.927  10.377   8.062  0.4184 -2.3541  1.6837
  518MOL0     H69868   7.808  10.465   8.139 -0.9988  0.0763 -0.9093
  518MOL0     H69869   7.703  10.260   8.222  0.0011  0.8806 -0.8164
  518MOL0     H69870   7.813  10.176   8.119 -0.6902  0.6675 -0.0948
  518MOL0     H69871   8.001  10.306   8.261  0.6747  0.3491  3.7402
  518MOL0     H69872   7.875  10.352   8.370 -1.6568 -1.0439  1.0911
  518MOL0     H69873   7.817  10.130   8.398  0.1059  0.5731  0.2362
  518MOL0     H69874   7.952  10.069   8.287 -0.7649 -0.0376 -0.3844
  518MOL0     H69875   8.114  10.171   8.426  0.9612 -1.0292  0.8832
  518MOL0     H69876   7.995  10.251   8.529 -0.6641 -0.1024 -0.8534
  518MOL0     H69877   8.067  10.058   8.654  1.1614  4.0648 -2.8595
  518MOL0     H69878   7.901  10.048   8.628  0.0148  0.1097  0.5584
  518MOL0     H69879   8.059   9.836   8.612  1.1288 -0.0825 -1.5414
  518MOL0     H69880   8.098   9.908   8.452  1.9900 -0.0708  0.7332
  518MOL0     H69881   7.878   9.882   8.263 -0.4075 -0.7562 -0.7716
  518MOL0     H69882   7.672   9.736   8.153  0.7897 -0.7862 -0.0345
  518MOL0     H69883   7.638   9.589   8.253  0.9966 -0.1368  1.0617
  518MOL0     H69884   7.455   9.764   8.167 -1.1274 -1.1084  0.0430
  518MOL0     H69885   7.505   9.876   8.288 -1.8541  0.2872  0.4092
  518MOL0     H69886   7.456   9.730   8.477 -2.5328  0.9549  0.9972
  518MOL0     H69887   7.409   9.598   8.363  0.3567 -1.5678  3.6459
  518MOL0     H69888   7.230   9.781   8.290 -1.5163 -1.0443  0.7700
  518MOL0     H69889   7.295   9.874   8.421 -3.1961  0.8326 -1.0846
  518MOL0     H69890   7.095   9.946   8.608  0.5620  0.2146 -1.8199
  518MOL0     H69891   7.056  10.096   8.786  0.7797 -1.7100 -1.4370
  518MOL0     H69892   7.075  10.007   8.940 -0.1999  1.0523 -0.2629
  518MOL0     H69893   7.200  10.127   8.884 -1.1361  1.0258  1.7453
  518MOL0     H69894   7.415   9.689   9.233 -1.9669  2.5989  0.5656
  518MOL0     H69895   7.565   9.712   9.446  1.9979  0.2192  1.1032
  518MOL0     H69896   7.939   9.928   9.369 -0.6826 -1.1627 -0.3107
  518MOL0     H69897   7.874  10.031   9.497 -2.2682 -0.0231  0.3326
  518MOL0     H69898   7.992   9.754   9.556 -1.7301 -0.7371  2.6586
  518MOL0     H69899   8.093   9.904   9.564  0.8641 -2.3788  3.4772
  518MOL0     H69900   7.830   9.870   9.718 -0.4262  1.3576 -2.6126
  518MOL0     H69901   7.965   9.983   9.755 -0.5552  1.0767 -0.1786
  518MOL0     H69902   8.002   9.681   9.785 -1.3631 -0.3018 -0.8967
  518MOL0     H69903   8.114   9.803   9.833  0.8591  3.0680 -1.5965
  518MOL0     H69904   7.859   9.711   9.954 -0.5824 -0.5033  1.0791
  518MOL0     H69905   7.861   9.893   9.945 -0.7519 -0.7894  0.4990
  518MOL0     H69906   7.954   9.813  10.174  0.9174 -0.2939  1.1659
  518MOL0     H69907   8.074   9.709  10.080  1.2129  0.1385  1.7961
  518MOL0     H69908   8.025  10.011  10.089  0.0342  0.5688 -0.6124
  518MOL0     H69909   8.149   9.933   9.988 -1.0877  0.5389 -0.1254
  518MOL0     H69910   8.260   9.842  10.193 -2.5534 -1.1456 -0.0421
  518MOL0     H69911   8.142   9.911  10.298  2.5764 -1.2372  2.4061
  518MOL0     H69912   7.803   9.985   9.239 -1.8151  0.3795  1.6928
  518MOL0     H69913   7.691   9.957   9.046  1.5160  0.3068  1.0933
  518MOL0     H69914   7.389   9.646   8.838 -1.3015  1.5146 -0.3207
  518MOL0     H69915   7.301   9.581   8.632 -1.5398 -0.3920 -0.5638
  518MOL0     H69916   7.609  10.311   7.741  0.5663  0.8734 -2.6102
  518MOL0     H69917   7.426  10.322   7.586  2.0228  1.1790 -0.0786
  518MOL0     H69918   6.992  10.578   7.506  0.8172  0.5711 -1.1911
  518MOL0     H69919   6.819  10.637   7.373  2.1990  1.5295 -0.6291
  518MOL0     H69920   6.605  10.581   7.278  0.2712 -2.6087  0.9823
  518MOL0     H69921   6.648  10.692   7.151 -4.1236  0.0320 -1.9590
  518MOL0     H69922   6.422  10.596   7.154  2.1102  3.0432 -0.0696
  518MOL0     H69923   6.498  10.440   7.107  2.3390  0.6853  0.1129
  518MOL0     H69924   6.621  10.538   6.929  1.0385 -0.9603  2.8710
  518MOL0     H69925   6.531  10.690   6.947  1.7075 -0.5714 -2.5017
  518MOL0     H69926   6.306  10.573   6.886 -0.4234 -1.2527 -0.6888
  518MOL0     H69927   6.384  10.422   6.921  1.1289  0.8744  2.3259
  518MOL0     H69928   6.473  10.489   6.516 -2.4781  1.4824 -1.3281
  518MOL0     H69929   6.915  10.294   7.116 -2.9178  0.8130  0.4728
  518MOL0     H69930   7.087  10.232   7.275 -0.5574 -0.7266  1.1598
  519MOL0     O69931   1.609   9.837   2.156  0.4131 -0.2022 -0.6645
  519MOL0     C69932   1.606   9.718   2.126  0.9433  0.3224  0.1323
  519MOL0     O69933   1.688   9.628   2.167 -0.3819  0.3787 -0.4663
  519MOL0     C69934   1.771   9.641   2.273 -0.5806  0.3820 -0.3736
  519MOL0     C69935   1.893   9.578   2.258 -0.6565 -0.9003 -0.3230
  519MOL0     C69936   1.985   9.577   2.359 -0.3225  0.1018 -0.0073
  519MOL0     C69937   1.965   9.639   2.484  0.6811  0.5045 -0.5294
  519MOL0     O69938   2.058   9.644   2.577  0.3653 -0.5813 -1.0964
  519MOL0     C69939   2.013   9.610   2.708 -0.3458  0.8237 -1.5524
  519MOL0     C69940   2.124   9.633   2.812  0.3828 -0.0612  0.1146
  519MOL0     C69941   2.189   9.499   2.852  0.5451 -0.7679 -0.3464
  519MOL0     C69942   2.318   9.508   2.924 -0.1310  0.4370 -0.6604
  519MOL0     C69943   2.426   9.540   2.833  0.2473  0.2565  0.2941
  519MOL0     C69944   2.560   9.521   2.918  0.1935  0.1194  0.6992
  519MOL0     C69945   2.589   9.631   3.012  0.0792 -0.2335 -0.6348
  519MOL0     C69946   2.731   9.625   3.073 -0.2620 -0.0042 -0.1406
  519MOL0     N69947   2.758   9.744   3.147 -0.3575  0.3834 -0.1977
  519MOL0     C69948   2.768   9.872   3.104  0.1296  0.6326  0.9277
  519MOL0     C69949   2.756   9.950   3.217 -0.9413 -0.1220  0.8616
  519MOL0     C69950   2.754  10.098   3.227 -0.8535 -0.7677  0.6215
  519MOL0     C69951   2.657  10.158   3.335  0.4090 -1.6918  0.8245
  519MOL0     C69952   2.657  10.310   3.323 -0.5808 -0.2081  0.4230
  519MOL0     C69953   2.545  10.373   3.407  0.5520 -0.5460 -0.3117
  519MOL0     O69954   2.565  10.518   3.391 -0.3417 -0.2549  0.4815
  519MOL0     C69955   2.478  10.611   3.445  0.6584  0.8456  0.4420
  519MOL0     C69956   2.523  10.735   3.426  1.3420  0.0100 -0.0156
  519MOL0     C69957   2.460  10.852   3.473  0.3300  0.4494 -0.0206
  519MOL0     C69958   2.531  10.991   3.485 -0.5550  0.0933  0.0452
  519MOL0     C69959   2.333  10.831   3.539  1.0892  0.4933 -0.0675
  519MOL0     C69960   2.244  10.937   3.587  0.9867  0.4480 -0.3763
  519MOL0     O69961   2.190  10.907   3.700 -0.0345  0.0874 -1.1152
  519MOL0     C69962   2.096  10.977   3.772 -0.3938  0.2446  0.8204
  519MOL0     C69963   2.051  11.103   3.755  0.2202  0.1783 -0.0591
  519MOL0     C69964   1.948  11.165   3.822 -0.1366  0.5169 -0.5549
  519MOL0     C69965   1.900  11.106   3.944 -0.6842  0.3498  0.1391
  519MOL0     O69966   1.816  11.189   4.023 -0.2172 -0.3509 -0.3135
  519MOL0     C69967   1.757  11.142   4.147 -0.2963  0.5909 -0.3221
  519MOL0     C69968   1.863  11.162   4.252 -0.4591 -0.4660 -0.7195
  519MOL0     C69969   1.829  11.070   4.373  0.6272 -0.4164  0.8084
  519MOL0     C69970   1.900  11.113   4.498 -0.2708  0.4305  0.5832
  519MOL0     C69971   1.879  11.023   4.618  0.1322 -0.0466 -0.6994
  519MOL0     C69972   1.952  10.894   4.608  0.7973 -0.6110 -0.0460
  519MOL0     C69973   1.905  10.798   4.710 -0.1467 -0.3342 -0.0331
  519MOL0     C69974   1.973  10.654   4.710 -0.9709  0.3358 -0.6293
  519MOL0    Cl69975   1.968  10.587   4.882 -0.2647 -0.5746  0.7109
  519MOL0     C69976   1.961  10.985   3.974  0.6509 -0.2100  0.0919
  519MOL0     C69977   2.041  10.915   3.884  0.0340  0.1575 -0.6259
  519MOL0     O69978   2.223  11.046   3.533 -0.6541 -0.0845 -0.3094
  519MOL0     C69979   2.292  10.701   3.562  0.1560 -0.3539 -0.1177
  519MOL0     C69980   2.356  10.585   3.521  0.4410  0.1269 -0.0193
  519MOL0     N69981   2.745   9.864   3.321  0.9456  0.2568  0.9661
  519MOL0     N69982   2.742   9.745   3.278 -0.0154 -0.1808  1.0390
  519MOL0     C69983   1.850   9.711   2.496 -1.0272 -0.5204  0.0794
  519MOL0     C69984   1.757   9.714   2.392 -0.4785 -0.4757  0.1295
  519MOL0     C69985   1.491   9.671   2.037 -0.8643  0.1803 -0.2302
  519MOL0     C69986   1.464   9.537   2.009 -0.4392 -0.0618  0.3924
  519MOL0     C69987   1.351   9.499   1.937  0.2907  0.1689 -0.2519
  519MOL0     C69988   1.252   9.593   1.891  0.4206 -0.0590 -0.1291
  519MOL0     O69989   1.125   9.562   1.843  0.2352 -0.3789 -0.0024
  519MOL0     C69990   1.076   9.431   1.846  0.6412  0.4754 -0.1082
  519MOL0     C69991   1.112   9.330   1.735  0.6082  0.0628  1.1259
  519MOL0     C69992   1.004   9.219   1.718 -0.3879  0.2675 -0.1325
  519MOL0     C69993   1.047   9.079   1.662  0.4628 -0.2294  0.0392
  519MOL0     C69994   1.157   9.020   1.745  0.9872  0.4151  0.5467
  519MOL0     C69995   1.244   8.961   1.805 -0.0397 -0.1591 -1.0377
  519MOL0     C69996   1.301   9.720   1.904  0.4459 -0.3093 -0.3050
  519MOL0     C69997   1.411   9.762   1.969 -0.7249 -0.3416 -0.9615
  519MOL0     H69998   1.906   9.523   2.165 -1.0462 -1.9066  0.1980
  519MOL0     H69999   2.079   9.526   2.339  0.0172  0.9714 -0.6576
  519MOL0     H70000   1.935   9.676   2.748  0.5047 -0.3717  2.4395
  519MOL0     H70001   1.969   9.511   2.697  0.7793  0.3865 -2.2367
  519MOL0     H70002   2.200   9.708   2.788  1.8532 -1.3732  0.5108
  519MOL0     H70003   2.070   9.672   2.899  0.5491  3.2146 -1.1014
  519MOL0     H70004   2.122   9.444   2.918 -3.3753  1.7415 -1.8765
  519MOL0     H70005   2.203   9.443   2.759  2.9831  0.1059 -0.5608
  519MOL0     H70006   2.315   9.567   3.016  0.9070  0.0382 -0.3537
  519MOL0     H70007   2.339   9.406   2.956 -1.7790  0.5832  1.0884
  519MOL0     H70008   2.445   9.475   2.747  2.3366 -1.4825  1.9370
  519MOL0     H70009   2.412   9.641   2.793 -2.0127 -0.2406 -0.3360
  519MOL0     H70010   2.561   9.421   2.964  3.4127 -1.2064 -1.8443
  519MOL0     H70011   2.633   9.525   2.837  0.4407 -1.3585  0.8239
  519MOL0     H70012   2.574   9.727   2.961  0.4581  1.1359  1.6708
  519MOL0     H70013   2.513   9.642   3.091 -0.1994  0.4957 -0.9960
  519MOL0     H70014   2.809   9.625   2.996 -0.5638 -1.6905 -0.4832
  519MOL0     H70015   2.740   9.536   3.137  1.5287  0.2902  0.0558
  519MOL0     H70016   2.782   9.899   2.999 -1.5466  2.8122  1.2147
  519MOL0     H70017   2.859  10.129   3.237 -0.8113  0.7143 -3.0853
  519MOL0     H70018   2.726  10.129   3.126 -0.1374 -2.2028 -0.0369
  519MOL0     H70019   2.687  10.139   3.439 -0.1759 -0.3532  1.2761
  519MOL0     H70020   2.550  10.135   3.327 -1.7452  5.8012 -0.4738
  519MOL0     H70021   2.658  10.338   3.217  0.9515  4.7589  1.4780
  519MOL0     H70022   2.754  10.347   3.359 -0.9894  0.4282  0.8881
  519MOL0     H70023   2.564  10.351   3.513  1.8491  3.5930  0.4876
  519MOL0     H70024   2.455  10.335   3.358  1.9642 -1.7216 -2.1387
  519MOL0     H70025   2.618  10.757   3.378  1.2876  1.0800  0.3507
  519MOL0     H70026   2.630  10.990   3.437 -0.7900  0.0474 -0.4426
  519MOL0     H70027   2.478  11.069   3.430 -1.5306  1.0690  2.2183
  519MOL0     H70028   2.543  11.029   3.587 -4.8896  1.2411  0.3045
  519MOL0     H70029   2.090  11.170   3.678  0.7798  0.5977  0.5842
  519MOL0     H70030   1.906  11.256   3.781 -3.6278 -1.0274 -0.6887
  519MOL0     H70031   1.663  11.191   4.170 -0.3228  0.2567  0.3297
  519MOL0     H70032   1.731  11.036   4.138 -2.7366  1.1457 -0.3991
  519MOL0     H70033   1.962  11.139   4.213  0.3710 -0.6056  1.3386
  519MOL0     H70034   1.865  11.267   4.282 -0.6347 -0.7000  0.1501
  519MOL0     H70035   1.857  10.968   4.346 -0.0169 -0.2373 -0.5901
  519MOL0     H70036   1.723  11.071   4.402  1.0710  0.1075  2.5262
  519MOL0     H70037   2.005  11.119   4.466 -0.6586  0.7901 -0.7106
  519MOL0     H70038   1.880  11.217   4.527 -0.8083  0.8851 -1.2484
  519MOL0     H70039   1.774  10.995   4.627  0.9845 -3.4358  0.6421
  519MOL0     H70040   1.906  11.078   4.709 -0.8676  1.6467 -1.3902
  519MOL0     H70041   1.930  10.841   4.514 -1.2553 -0.8344  0.5087
  519MOL0     H70042   2.059  10.915   4.621  0.0825  1.2856  4.2037
  519MOL0     H70043   1.797  10.781   4.706 -0.4862  1.5246  0.3693
  519MOL0     H70044   1.938  10.844   4.804 -1.4527  1.7046 -0.5272
  519MOL0     H70045   2.075  10.654   4.668  0.2409  1.4008  2.0740
  519MOL0     H70046   1.914  10.583   4.652 -1.8359 -0.2742  0.9563
  519MOL0     H70047   1.920  10.931   4.058 -0.6110  0.8314  0.1706
  519MOL0     H70048   2.074  10.816   3.915 -0.4932 -0.0525 -0.7337
  519MOL0     H70049   2.204  10.687   3.624  0.7197 -0.0464  0.7616
  519MOL0     H70050   2.337  10.481   3.546 -1.2369 -0.6429 -3.8383
  519MOL0     H70051   1.838   9.769   2.587 -1.2062 -0.2877 -0.0892
  519MOL0     H70052   1.676   9.782   2.419 -1.3685 -1.6344  0.4549
  519MOL0     H70053   1.521   9.453   2.046  1.2672  0.1317 -1.6320
  519MOL0     H70054   1.333   9.392   1.924  1.4020 -0.0621  0.0379
  519MOL0     H70055   1.097   9.388   1.945 -0.9296  0.2849  0.1770
  519MOL0     H70056   0.968   9.445   1.845  0.5757 -0.0459 -0.6688
  519MOL0     H70057   1.211   9.287   1.754  1.3155  0.9645 -0.3737
  519MOL0     H70058   1.126   9.385   1.642 -0.2384 -2.1054 -0.3875
  519MOL0     H70059   0.925   9.258   1.653 -2.1900 -1.9054  0.6216
  519MOL0     H70060   0.959   9.200   1.815 -1.1652  2.6676  0.0327
  519MOL0     H70061   1.087   9.096   1.562  1.0453  2.2008  0.6263
  519MOL0     H70062   0.961   9.011   1.659 -1.1838  1.7377 -3.4232
  519MOL0     H70063   1.330   8.934   1.863  2.4306  0.1662 -4.2520
  519MOL0     H70064   1.231   9.797   1.872 -1.6504 -1.8264  0.4445
  519MOL0     H70065   1.430   9.868   1.982 -0.2824 -0.4405 -0.7677
  520MOL0     O70066   8.560   8.400   5.891 -0.1150 -0.0460 -0.3021
  520MOL0     C70067   8.550   8.369   6.006 -0.3297 -0.1371 -0.9775
  520MOL0     O70068   8.618   8.431   6.118 -0.0657  0.4140  0.1458
  520MOL0     C70069   8.690   8.549   6.089 -0.1108 -0.1885  0.1701
  520MOL0     C70070   8.811   8.551   6.017 -0.2513  0.3726 -0.3480
  520MOL0     C70071   8.883   8.668   6.011 -0.0845  0.5395  0.2162
  520MOL0     C70072   8.851   8.779   6.087  0.3838  0.0299 -0.1132
  520MOL0     O70073   8.936   8.888   6.081 -0.1651  0.6510  0.3402
  520MOL0     C70074   8.963   8.946   6.205  0.7891 -0.5758 -0.9052
  520MOL0     C70075   9.070   9.041   6.177  0.1043 -0.1415 -0.2431
  520MOL0     C70076   9.055   9.133   6.059 -0.3731  0.0424 -0.0819
  520MOL0     C70077   8.932   9.217   6.076 -0.4128 -0.7119  0.0756
  520MOL0     C70078   8.936   9.331   5.966 -0.0095 -0.2432 -0.3112
  520MOL0     C70079   8.903   9.295   5.813  1.5836  0.2514 -0.8809
  520MOL0     C70080   8.786   9.191   5.767  0.1376 -0.8418  0.6024
  520MOL0     C70081   8.652   9.238   5.828  0.5060 -1.0057 -0.4299
  520MOL0     N70082   8.578   9.339   5.743  0.1301 -0.2866 -0.3180
  520MOL0     C70083   8.585   9.359   5.605  0.7408 -0.0206 -0.5947
  520MOL0     C70084   8.543   9.482   5.580  0.0207  0.6494 -0.1527
  520MOL0     C70085   8.520   9.564   5.448 -0.3794 -0.6698 -0.1722
  520MOL0     C70086   8.395   9.524   5.370  0.3415  0.3418  1.1488
  520MOL0     C70087   8.265   9.539   5.452  0.0110 -0.1394 -0.6790
  520MOL0     C70088   8.142   9.471   5.394 -0.0149  0.6075  0.4555
  520MOL0     O70089   8.029   9.510   5.466 -0.3670  0.3633 -0.1068
  520MOL0     C70090   7.986   9.643   5.464  0.4480 -0.6645 -0.8424
  520MOL0     C70091   7.898   9.671   5.566  0.3451 -0.5770  0.0710
  520MOL0     C70092   7.843   9.799   5.587 -0.2908 -0.1047  0.3701
  520MOL0     C70093   7.766   9.824   5.712  0.5010  0.7021 -0.0592
  520MOL0     C70094   7.885   9.907   5.492  0.0472  0.5383 -0.5256
  520MOL0     C70095   7.838  10.052   5.500  0.8384 -0.4240 -0.7827
  520MOL0     O70096   7.754  10.089   5.599  0.5485 -0.0220 -0.1339
  520MOL0     C70097   7.723  10.225   5.610 -0.0166  0.2503 -0.0962
  520MOL0     C70098   7.790  10.307   5.705 -0.2701  0.1795 -0.1630
  520MOL0     C70099   7.750  10.442   5.732 -0.8412 -0.1109  0.7978
  520MOL0     C70100   7.634  10.497   5.668 -0.4074  0.5805 -0.3237
  520MOL0     O70101   7.592  10.624   5.689  0.0199 -0.8023 -0.2340
  520MOL0     C70102   7.559  10.699   5.569 -0.3442  0.4784  0.5357
  520MOL0     C70103   7.582  10.854   5.606  0.2978  1.2611  0.1014
  520MOL0     C70104   7.653  10.927   5.498  0.2902 -0.0322 -0.1696
  520MOL0     C70105   7.623  11.073   5.514 -0.4204 -0.4706  0.6964
  520MOL0     C70106   7.702  11.172   5.429 -0.2410  0.2369  0.0609
  520MOL0     C70107   7.736  11.315   5.482 -0.2722  0.1321 -0.0780
  520MOL0     C70108   7.610  11.389   5.514 -0.5788 -0.6631 -0.1095
  520MOL0     C70109   7.626  11.496   5.620  0.1606  0.4589  0.7918
  520MOL0    Cl70110   7.674  11.649   5.535  0.3944  0.5302 -0.3957
  520MOL0     C70111   7.569  10.417   5.575 -0.5686  0.3565 -0.2658
  520MOL0     C70112   7.610  10.284   5.550  0.0823  0.0739 -0.0465
  520MOL0     O70113   7.882  10.128   5.415  0.3335 -0.2824 -0.3185
  520MOL0     C70114   7.976   9.874   5.397 -0.6650 -0.0154  0.4989
  520MOL0     C70115   8.029   9.749   5.377  0.4186  0.6840  0.2501
  520MOL0     N70116   8.503   9.529   5.704  0.2597 -0.7095  0.1063
  520MOL0     N70117   8.512   9.448   5.794 -0.3149 -0.0920  0.0547
  520MOL0     C70118   8.739   8.780   6.160  0.3965 -0.8353  0.0406
  520MOL0     C70119   8.653   8.661   6.165  0.6307 -0.0611 -0.5163
  520MOL0     C70120   8.477   8.247   6.035  0.6874  0.0864  0.2128
  520MOL0     C70121   8.430   8.223   6.160  0.1566 -0.1718 -0.5169
  520MOL0     C70122   8.371   8.096   6.182 -0.8628 -1.0062 -0.0089
  520MOL0     C70123   8.357   8.003   6.080 -0.3894  0.4810  0.1606
  520MOL0     O70124   8.281   7.892   6.115 -1.1010  0.0811 -0.5174
  520MOL0     C70125   8.251   7.786   6.017 -0.6396 -0.2602  0.0337
  520MOL0     C70126   8.276   7.648   6.082  0.4352 -0.1406  0.7948
  520MOL0     C70127   8.410   7.637   6.160  1.3233  0.5900  0.4766
  520MOL0     C70128   8.425   7.501   6.222  0.3470  0.6035 -0.0763
  520MOL0     C70129   8.444   7.399   6.118  0.7685  0.3240 -0.2437
  520MOL0     C70130   8.443   7.321   6.030  0.3037 -0.2958 -0.3338
  520MOL0     C70131   8.396   8.030   5.948  0.0475 -0.0808  1.3507
  520MOL0     C70132   8.456   8.158   5.926 -0.7725 -0.4497 -0.0233
  520MOL0     H70133   8.838   8.462   5.960 -1.4120 -2.2896  2.9371
  520MOL0     H70134   8.971   8.663   5.947 -1.3160  0.0062 -1.5140
  520MOL0     H70135   8.878   9.006   6.239 -1.2011 -0.1638 -5.7428
  520MOL0     H70136   8.988   8.867   6.277 -1.6237  0.6409  1.4523
  520MOL0     H70137   9.109   9.097   6.263  1.6885 -0.2277 -0.8636
  520MOL0     H70138   9.149   8.969   6.156  0.0624 -0.2911  0.1178
  520MOL0     H70139   9.145   9.191   6.040  1.3235 -2.3271  0.3245
  520MOL0     H70140   9.037   9.073   5.969  0.2388 -0.1885 -0.0550
  520MOL0     H70141   8.838   9.162   6.064  0.1049 -1.9460  1.4344
  520MOL0     H70142   8.930   9.266   6.174 -1.1273 -1.2213  0.3242
  520MOL0     H70143   8.852   9.397   5.991 -1.5651 -1.0049 -3.1005
  520MOL0     H70144   9.033   9.378   5.987 -1.3566  3.0507 -0.8762
  520MOL0     H70145   8.857   9.385   5.772  0.8667 -0.6359 -2.0970
  520MOL0     H70146   8.996   9.261   5.767  2.0534 -2.0051  1.5042
  520MOL0     H70147   8.787   9.197   5.658  0.0627 -0.6332  0.6122
  520MOL0     H70148   8.818   9.093   5.803  0.3926 -0.0034  2.8327
  520MOL0     H70149   8.666   9.274   5.930 -0.0833  2.0048 -1.3235
  520MOL0     H70150   8.592   9.146   5.835  2.9080 -2.5747  1.2911
  520MOL0     H70151   8.613   9.276   5.541  0.9750  1.1023 -1.9984
  520MOL0     H70152   8.518   9.670   5.478 -2.3555 -1.0599  1.3541
  520MOL0     H70153   8.606   9.558   5.381  0.1966  1.5654  0.2571
  520MOL0     H70154   8.410   9.423   5.330 -0.2202 -0.0710  1.9670
  520MOL0     H70155   8.390   9.584   5.278 -0.9298 -3.4437 -1.5216
  520MOL0     H70156   8.256   9.648   5.458  2.2891  0.1066 -0.8937
  520MOL0     H70157   8.294   9.496   5.548  2.9466 -1.0542 -1.8529
  520MOL0     H70158   8.160   9.364   5.405  0.3653  0.5154 -0.8541
  520MOL0     H70159   8.129   9.505   5.291 -1.5604 -1.8309 -0.2157
  520MOL0     H70160   7.867   9.589   5.630 -0.1522  1.2221  2.2304
  520MOL0     H70161   7.753   9.735   5.775  0.9465  2.0552  2.0595
  520MOL0     H70162   7.827   9.897   5.765 -0.4701  2.6040 -1.4661
  520MOL0     H70163   7.676   9.876   5.681  1.4801  1.0070 -2.6096
  520MOL0     H70164   7.866  10.262   5.768 -1.6286 -0.7553  0.8659
  520MOL0     H70165   7.804  10.515   5.792 -1.6772 -0.0729  1.5269
  520MOL0     H70166   7.634  10.680   5.493 -2.2686  0.4233 -1.4550
  520MOL0     H70167   7.456  10.681   5.537 -0.1154  2.6153 -1.7176
  520MOL0     H70168   7.484  10.886   5.643 -0.2361 -2.2267  2.1056
  520MOL0     H70169   7.645  10.851   5.695  0.5378  0.8686 -0.0810
  520MOL0     H70170   7.629  10.890   5.398 -0.3354 -0.4195  0.1164
  520MOL0     H70171   7.761  10.913   5.511  0.0312 -0.5571  1.7638
  520MOL0     H70172   7.516  11.089   5.495 -0.5412  1.0531  2.3534
  520MOL0     H70173   7.635  11.105   5.618 -0.5653 -2.2393  1.2892
  520MOL0     H70174   7.645  11.187   5.337 -1.5581  0.4113  0.8846
  520MOL0     H70175   7.797  11.126   5.400  0.3468  2.1326 -1.2190
  520MOL0     H70176   7.791  11.296   5.575 -0.7749  1.7581  0.6010
  520MOL0     H70177   7.791  11.376   5.410 -0.1018 -1.2295 -1.1156
  520MOL0     H70178   7.527  11.328   5.551 -0.1230 -1.1168  0.1805
  520MOL0     H70179   7.573  11.440   5.425  2.0760  1.2122 -0.2897
  520MOL0     H70180   7.688  11.457   5.701 -1.1089  0.2663  1.6948
  520MOL0     H70181   7.527  11.516   5.661  0.5996 -0.8745  2.6030
  520MOL0     H70182   7.492  10.470   5.520 -1.4054  1.1011  1.5398
  520MOL0     H70183   7.543  10.223   5.490 -0.4387 -0.7300  1.2988
  520MOL0     H70184   8.008   9.954   5.330  1.9478 -1.5647 -0.2350
  520MOL0     H70185   8.108   9.747   5.303 -0.5186  2.3733 -0.8763
  520MOL0     H70186   8.707   8.860   6.226 -0.5895 -0.6471 -0.6325
  520MOL0     H70187   8.564   8.662   6.227  0.7308  3.8438 -0.1852
  520MOL0     H70188   8.441   8.284   6.249  1.8354 -1.4174  0.1811
  520MOL0     H70189   8.322   8.095   6.279 -1.2607  1.6659 -0.1202
  520MOL0     H70190   8.153   7.793   5.969 -0.5426 -2.7124 -0.6852
  520MOL0     H70191   8.314   7.762   5.931 -2.7228 -0.2238 -1.5962
  520MOL0     H70192   8.252   7.568   6.011  2.0918  0.9873 -1.1150
  520MOL0     H70193   8.199   7.638   6.159 -1.2875  2.6256 -0.4137
  520MOL0     H70194   8.395   7.707   6.243  2.6661  0.0929  1.1743
  520MOL0     H70195   8.495   7.651   6.092 -0.0656 -1.3526 -1.8236
  520MOL0     H70196   8.335   7.465   6.273 -0.2357 -1.9730 -2.6927
  520MOL0     H70197   8.508   7.490   6.293  0.8478  1.6933 -0.4696
  520MOL0     H70198   8.449   7.258   5.944  3.2853 -2.0301  1.0012
  520MOL0     H70199   8.395   7.964   5.862  1.9123  0.0758  1.1633
  520MOL0     H70200   8.489   8.181   5.825 -1.8892  0.0325 -0.3006
  521MOL0     O70201  10.448   4.537   7.824 -0.1753  0.6550  0.6480
  521MOL0     C70202  10.412   4.648   7.802  0.5014  0.9321 -0.4567
  521MOL0     O70203  10.486   4.752   7.752  1.0262 -0.1953 -0.1275
  521MOL0     C70204  10.617   4.732   7.710  0.2543 -0.0750 -0.2665
  521MOL0     C70205  10.708   4.812   7.777 -0.6348 -0.4561 -0.7965
  521MOL0     C70206  10.841   4.820   7.740 -0.3353 -0.1762 -0.6061
  521MOL0     C70207  10.878   4.757   7.623 -0.8934 -0.5705  0.2325
  521MOL0     O70208  11.006   4.778   7.583 -0.5906 -0.2344  0.2303
  521MOL0     C70209  11.083   4.649   7.595  0.7032  0.4293 -0.0555
  521MOL0     C70210  11.214   4.650   7.518  0.5726 -0.6469  0.2149
  521MOL0     C70211  11.310   4.768   7.563 -0.1644 -0.0943  0.1632
  521MOL0     C70212  11.450   4.750   7.495 -0.6759 -0.0277  0.1561
  521MOL0     C70213  11.541   4.874   7.530  0.2918 -0.2207  0.6233
  521MOL0     C70214  11.625   4.853   7.659 -0.5500  0.0635 -0.6991
  521MOL0     C70215  11.707   4.985   7.687  0.6317  0.0884 -0.0105
  521MOL0     C70216  11.631   5.095   7.754  0.5187  0.1553  0.7458
  521MOL0     N70217  11.597   5.063   7.893  0.3613 -0.1521  0.5110
  521MOL0     C70218  11.474   5.059   7.953  0.5735 -0.8224  0.3767
  521MOL0     C70219  11.497   5.026   8.088  0.1115  0.6259  0.1007
  521MOL0     C70220  11.382   4.997   8.184 -0.9230  0.5784  0.1987
  521MOL0     C70221  11.408   5.045   8.324  0.0887  0.8644 -0.7269
  521MOL0     C70222  11.516   4.974   8.404  0.1460  0.1029  0.7484
  521MOL0     C70223  11.510   4.810   8.406 -0.4780 -0.1182 -0.2793
  521MOL0     O70224  11.615   4.740   8.472 -0.4877 -0.3004 -0.6458
  521MOL0     C70225  11.736   4.714   8.416  0.3722 -0.8870 -0.4076
  521MOL0     C70226  11.823   4.654   8.498  0.6137  0.0037  0.4541
  521MOL0     C70227  11.955   4.613   8.462  0.6142 -1.3819  0.3825
  521MOL0     C70228  12.037   4.547   8.560 -0.3113 -0.8024 -0.4856
  521MOL0     C70229  11.989   4.627   8.328 -0.7222 -0.2413  0.2892
  521MOL0     C70230  12.098   4.562   8.255 -0.4393 -0.1548 -0.5642
  521MOL0     O70231  12.091   4.547   8.118 -1.2719  0.0434  0.0806
  521MOL0     C70232  12.201   4.492   8.053  0.2072  1.0630  0.3375
  521MOL0     C70233  12.279   4.563   7.971  0.2458 -0.6141  0.0242
  521MOL0     C70234  12.387   4.496   7.897  0.2476  0.4103 -0.5405
  521MOL0     C70235  12.404   4.356   7.908 -0.6781  1.1936 -0.3893
  521MOL0     O70236  12.525   4.311   7.851 -0.4329 -0.2320 -0.3385
  521MOL0     C70237  12.583   4.179   7.888 -0.3238  0.7458 -0.4869
  521MOL0     C70238  12.668   4.117   7.769  0.0781  1.0498  0.8348
  521MOL0     C70239  12.585   4.069   7.651 -0.1024  0.4264 -0.3156
  521MOL0     C70240  12.661   4.056   7.523 -0.2341 -0.0541 -0.1753
  521MOL0     C70241  12.574   3.967   7.432  0.2253  0.2308  0.5802
  521MOL0     C70242  12.643   3.957   7.298 -0.6629 -0.2666 -0.6698
  521MOL0     C70243  12.616   3.827   7.232  0.4012  0.6811  0.9980
  521MOL0     C70244  12.470   3.806   7.187 -0.1315 -0.4805 -0.4984
  521MOL0    Cl70245  12.420   3.940   7.087  0.3309 -0.3105  0.2198
  521MOL0     C70246  12.319   4.279   7.988  0.2805 -0.6938  0.4297
  521MOL0     C70247  12.215   4.349   8.056 -0.3966 -0.9974 -0.4297
  521MOL0     O70248  12.189   4.520   8.325  0.2201  0.8821 -0.5057
  521MOL0     C70249  11.903   4.690   8.242 -0.4930 -0.3370  1.7233
  521MOL0     C70250  11.782   4.739   8.280  0.0018  0.1805  0.6142
  521MOL0     N70251  11.635   5.019   8.107  0.6933  0.5941 -0.3126
  521MOL0     N70252  11.692   5.038   7.992  0.4138 -0.0720  0.4536
  521MOL0     C70253  10.788   4.676   7.555  0.1015  0.7594  0.3899
  521MOL0     C70254  10.662   4.653   7.605 -0.4520 -1.4936 -0.4489
  521MOL0     C70255  10.271   4.683   7.831  1.1974  0.4041 -0.0235
  521MOL0     C70256  10.216   4.815   7.818  0.4344  0.4791  0.2986
  521MOL0     C70257  10.084   4.843   7.864  0.5405  0.4929  0.8106
  521MOL0     C70258   9.994   4.743   7.920 -1.2450  0.4690 -0.6950
  521MOL0     O70259   9.873   4.786   7.963 -0.0421  0.3484 -0.8818
  521MOL0     C70260   9.795   4.697   8.042  0.3887  0.5317 -1.0168
  521MOL0     C70261   9.694   4.778   8.119  0.7699 -0.1290 -0.4775
  521MOL0     C70262   9.761   4.898   8.198 -0.0232  0.8712 -0.0066
  521MOL0     C70263   9.701   5.032   8.167 -0.6435 -0.0012 -0.2561
  521MOL0     C70264   9.554   5.030   8.151  0.5865  0.0536  0.1425
  521MOL0     C70265   9.438   5.002   8.134 -0.1706 -1.3760 -0.5759
  521MOL0     C70266  10.061   4.617   7.937  0.5944  0.4811  0.1174
  521MOL0     C70267  10.191   4.587   7.895  0.6057  0.1998 -0.4997
  521MOL0     H70268  10.677   4.871   7.863  2.3307 -0.0996  0.1334
  521MOL0     H70269  10.913   4.883   7.791  1.6975 -0.1018 -3.3646
  521MOL0     H70270  11.109   4.628   7.699 -0.1061  1.6335  0.4153
  521MOL0     H70271  11.019   4.569   7.558 -2.0577  2.0942  0.7701
  521MOL0     H70272  11.260   4.552   7.532  3.0622  0.5831  1.2583
  521MOL0     H70273  11.193   4.650   7.411 -0.9585 -2.1483  0.4769
  521MOL0     H70274  11.284   4.868   7.526  2.6627  0.7603  0.1634
  521MOL0     H70275  11.309   4.793   7.670  0.7272 -1.1186  0.4324
  521MOL0     H70276  11.498   4.655   7.521 -1.4029 -0.5181 -0.2580
  521MOL0     H70277  11.440   4.749   7.386  0.1652  0.3253  0.0693
  521MOL0     H70278  11.611   4.892   7.448 -2.3396 -1.0338 -1.9689
  521MOL0     H70279  11.486   4.967   7.515 -2.2188 -1.6759  0.2530
  521MOL0     H70280  11.559   4.825   7.741 -0.8073  1.3066 -0.4642
  521MOL0     H70281  11.699   4.775   7.638 -0.5069  0.8716 -4.3152
  521MOL0     H70282  11.790   4.954   7.750  0.5520 -1.0430 -0.4510
  521MOL0     H70283  11.749   5.030   7.596  0.5805  1.9199  0.8171
  521MOL0     H70284  11.547   5.120   7.688  1.1459 -1.5855 -0.8028
  521MOL0     H70285  11.699   5.181   7.755 -0.0303  0.6033  1.9256
  521MOL0     H70286  11.375   5.058   7.910 -0.0542  0.7121  1.6489
  521MOL0     H70287  11.291   5.045   8.147 -0.1832  1.6500 -0.2953
  521MOL0     H70288  11.369   4.889   8.187  1.3700  0.1386 -2.0414
  521MOL0     H70289  11.317   5.039   8.384 -0.0280 -0.4226 -1.0044
  521MOL0     H70290  11.432   5.152   8.333 -0.7781  1.1090 -1.1758
  521MOL0     H70291  11.504   5.021   8.502  3.1665  0.5546  1.0016
  521MOL0     H70292  11.614   5.005   8.366 -0.0997  0.2307  0.2110
  521MOL0     H70293  11.505   4.771   8.304  0.0643 -1.5155  0.1954
  521MOL0     H70294  11.416   4.787   8.456 -0.2138 -1.1539 -0.2266
  521MOL0     H70295  11.795   4.636   8.601 -3.5540  0.3197 -0.4558
  521MOL0     H70296  11.987   4.540   8.657 -3.2621  1.0253 -1.7359
  521MOL0     H70297  12.061   4.444   8.530  4.9795  0.1030 -0.3850
  521MOL0     H70298  12.138   4.589   8.560  0.7260 -3.1407 -1.4921
  521MOL0     H70299  12.264   4.671   7.971  1.2588 -0.4317 -1.7375
  521MOL0     H70300  12.468   4.552   7.853  0.1914  1.0685  0.1799
  521MOL0     H70301  12.650   4.193   7.973 -1.5444 -0.7036  0.7825
  521MOL0     H70302  12.506   4.107   7.917  0.2522  1.0789  2.1908
  521MOL0     H70303  12.740   4.195   7.739 -0.2455  1.2044  0.4566
  521MOL0     H70304  12.727   4.030   7.801 -2.8094 -1.5778 -0.5027
  521MOL0     H70305  12.496   4.133   7.645  0.1859  0.8669  0.0042
  521MOL0     H70306  12.556   3.968   7.681 -0.9885  0.4515 -1.0499
  521MOL0     H70307  12.668   4.149   7.466 -2.1487  0.6229  0.5949
  521MOL0     H70308  12.763   4.021   7.539 -0.0933 -0.5097 -1.9017
  521MOL0     H70309  12.483   4.028   7.426  0.5099  0.5977 -0.1912
  521MOL0     H70310  12.544   3.871   7.474 -2.2270  0.9701  0.7082
  521MOL0     H70311  12.610   4.041   7.235  0.8664  0.6967 -0.2500
  521MOL0     H70312  12.750   3.972   7.316 -0.1493 -2.6872 -1.4150
  521MOL0     H70313  12.639   3.734   7.284 -3.9206 -0.4142  1.3290
  521MOL0     H70314  12.668   3.824   7.136 -2.4708  2.5132 -0.7619
  521MOL0     H70315  12.407   3.799   7.276  0.9638  3.3425  0.7474
  521MOL0     H70316  12.465   3.719   7.120  0.5231  0.7445 -2.2148
  521MOL0     H70317  12.330   4.172   8.000  3.4815 -0.6491 -0.8915
  521MOL0     H70318  12.154   4.282   8.116 -0.3628 -1.3894 -0.8301
  521MOL0     H70319  11.933   4.721   8.143 -1.2449 -1.4716  1.1224
  521MOL0     H70320  11.711   4.780   8.210 -0.3451  2.2465  2.0902
  521MOL0     H70321  10.836   4.624   7.472  2.7358  1.3173  1.4698
  521MOL0     H70322  10.592   4.582   7.563 -2.0578 -0.6568  0.6979
  521MOL0     H70323  10.272   4.900   7.781 -2.5947  2.0352 -1.0636
  521MOL0     H70324  10.060   4.948   7.861 -0.8691  0.1816 -1.2705
  521MOL0     H70325   9.751   4.613   7.988  2.0991 -0.6934 -0.6026
  521MOL0     H70326   9.856   4.649   8.119 -0.8913  1.2368  0.4879
  521MOL0     H70327   9.634   4.719   8.188  1.1634 -0.4812 -0.4290
  521MOL0     H70328   9.621   4.810   8.045 -0.2180 -3.2640 -0.9989
  521MOL0     H70329   9.870   4.884   8.201  0.3299  3.4276  0.6689
  521MOL0     H70330   9.732   4.884   8.302  0.0874  1.1680  0.0637
  521MOL0     H70331   9.742   5.066   8.071 -0.6485 -0.6587 -0.4984
  521MOL0     H70332   9.734   5.099   8.247  0.1108 -4.2611  3.3602
  521MOL0     H70333   9.331   4.996   8.128 -0.2792 -0.1965 -0.1470
  521MOL0     H70334  10.005   4.535   7.981  1.2877  1.2494  2.5915
  521MOL0     H70335  10.228   4.486   7.901  0.2832  0.1533  1.6003
  522MOL0     O70336   0.969   8.110   6.430  0.7929 -0.2898  0.0317
  522MOL0     C70337   0.919   8.005   6.396 -0.0980  0.3261  1.4120
  522MOL0     O70338   0.782   7.965   6.408 -0.0241 -0.4463  0.0053
  522MOL0     C70339   0.711   8.044   6.506  0.7181 -0.2235  0.9611
  522MOL0     C70340   0.763   8.065   6.633  0.7306  0.3083 -0.2622
  522MOL0     C70341   0.694   8.146   6.725  0.2671  0.5947  0.5697
  522MOL0     C70342   0.572   8.211   6.680 -1.2644 -0.4842  0.6310
  522MOL0     O70343   0.528   8.306   6.768 -0.1723 -0.3334 -0.0595
  522MOL0     C70344   0.406   8.264   6.838 -0.3934  0.4684  0.5060
  522MOL0     C70345   0.407   8.279   6.995 -1.3692 -0.5433 -0.1565
  522MOL0     C70346   0.521   8.194   7.055  0.9751  0.1311  0.5707
  522MOL0     C70347   0.487   8.043   7.042 -0.4931 -0.5900  1.4317
  522MOL0     C70348   0.580   7.945   7.117 -0.3149 -0.4890  0.3221
  522MOL0     C70349   0.724   7.957   7.081  0.5646  0.8462  0.2658
  522MOL0     C70350   0.793   7.828   7.134 -0.0077 -1.4278 -0.2214
  522MOL0     C70351   0.951   7.847   7.124  0.2767 -0.6390 -1.0478
  522MOL0     N70352   0.990   7.879   6.987  0.0833 -0.7117  0.9404
  522MOL0     C70353   0.953   7.808   6.875  0.4503 -0.9642  0.2694
  522MOL0     C70354   1.035   7.857   6.783 -1.2647 -0.2166  0.9543
  522MOL0     C70355   1.058   7.814   6.642 -0.9724  1.2313 -0.0452
  522MOL0     C70356   1.075   7.663   6.626 -0.8180  0.2100 -0.7010
  522MOL0     C70357   1.205   7.612   6.700  0.9195 -0.8520 -0.6398
  522MOL0     C70358   1.256   7.468   6.674  1.5074  0.2443 -0.0724
  522MOL0     O70359   1.247   7.445   6.533 -0.4365 -0.1193  0.1127
  522MOL0     C70360   1.369   7.442   6.467 -0.2071 -1.3208  0.1893
  522MOL0     C70361   1.411   7.312   6.431 -0.2764  0.5463  0.4928
  522MOL0     C70362   1.540   7.280   6.390  0.6705  0.6812 -0.5995
  522MOL0     C70363   1.567   7.130   6.362 -0.4947 -0.3988  0.3512
  522MOL0     C70364   1.630   7.388   6.379  0.2907  0.0270 -0.0307
  522MOL0     C70365   1.764   7.375   6.328 -0.4373  0.5705  0.1758
  522MOL0     O70366   1.849   7.469   6.388 -0.2082 -0.1019  0.4471
  522MOL0     C70367   1.992   7.475   6.374  0.1399 -1.0940 -0.7951
  522MOL0     C70368   2.068   7.413   6.278 -0.5124  0.8075  0.2299
  522MOL0     C70369   2.197   7.450   6.272 -0.6164 -0.5244 -0.4005
  522MOL0     C70370   2.254   7.545   6.347 -0.7972 -0.6459  0.4671
  522MOL0     O70371   2.385   7.587   6.345  0.4116 -0.0007 -0.6317
  522MOL0     C70372   2.495   7.503   6.304  1.5564 -0.1325  0.6544
  522MOL0     C70373   2.640   7.559   6.328 -0.1474  0.3622 -0.8966
  522MOL0     C70374   2.661   7.642   6.458 -0.0635  0.3276 -0.3756
  522MOL0     C70375   2.579   7.601   6.582 -0.4706  0.0433  0.6395
  522MOL0     C70376   2.643   7.655   6.715  0.3490 -0.4394 -0.0800
  522MOL0     C70377   2.661   7.806   6.722  0.1634 -0.0090 -0.5903
  522MOL0     C70378   2.710   7.861   6.864  0.4062 -0.4973 -0.2148
  522MOL0     C70379   2.854   7.836   6.903  0.0236  0.2931  0.0002
  522MOL0    Cl70380   2.945   7.965   6.821 -0.1268  0.1737 -0.1169
  522MOL0     C70381   2.185   7.607   6.445  0.3894  0.0640  0.0252
  522MOL0     C70382   2.049   7.582   6.454 -0.1073  0.3910  0.2669
  522MOL0     O70383   1.795   7.294   6.240 -0.0213 -0.3680  0.1926
  522MOL0     C70384   1.590   7.519   6.414  0.6385  0.0206 -0.5489
  522MOL0     C70385   1.468   7.548   6.466  0.3654 -0.7839 -0.6823
  522MOL0     N70386   1.124   7.951   6.841  0.7097  0.3832  0.0363
  522MOL0     N70387   1.092   7.963   6.959  0.8896  0.2416  0.4718
  522MOL0     C70388   0.522   8.190   6.546  0.3837  0.5953 -0.1050
  522MOL0     C70389   0.590   8.093   6.468 -0.1283  0.1186 -1.0315
  522MOL0     C70390   1.002   7.910   6.310  0.0578 -1.0248 -0.2834
  522MOL0     C70391   1.126   7.954   6.266  0.1504 -0.1423 -0.4725
  522MOL0     C70392   1.205   7.866   6.201  0.2104  0.1030  0.0455
  522MOL0     C70393   1.169   7.728   6.186 -1.0568 -0.3054  0.9090
  522MOL0     O70394   1.263   7.650   6.128 -0.1154  1.0086  0.0069
  522MOL0     C70395   1.244   7.505   6.145  0.2432  1.0450  0.6294
  522MOL0     C70396   1.341   7.414   6.069  0.7366  0.4184  0.1012
  522MOL0     C70397   1.310   7.441   5.920  0.0127 -0.2887  0.6669
  522MOL0     C70398   1.438   7.414   5.838 -0.3534  0.0540 -0.4662
  522MOL0     C70399   1.418   7.428   5.697  0.4010 -0.9962  1.0236
  522MOL0     C70400   1.401   7.432   5.580 -0.6139 -1.3629 -0.0364
  522MOL0     C70401   1.046   7.688   6.229  0.7119  0.7815 -0.6859
  522MOL0     C70402   0.963   7.782   6.289  0.0160  0.1663  0.8134
  522MOL0     H70403   0.863   8.038   6.663  0.5909  1.5514  1.4656
  522MOL0     H70404   0.743   8.179   6.816 -1.4884  0.3104  1.6606
  522MOL0     H70405   0.338   8.336   6.792 -1.6707 -0.8521  0.2554
  522MOL0     H70406   0.384   8.164   6.800  2.4435 -0.3809  0.8334
  522MOL0     H70407   0.432   8.380   7.029  1.2374 -1.8942  2.3638
  522MOL0     H70408   0.305   8.260   7.029 -1.6258  1.4640  0.2962
  522MOL0     H70409   0.617   8.222   7.009 -1.0035  1.8569 -2.9623
  522MOL0     H70410   0.526   8.218   7.161 -0.0858  0.6192  0.5170
  522MOL0     H70411   0.390   8.046   7.092 -0.5490  3.5275  1.4293
  522MOL0     H70412   0.471   8.018   6.937 -1.3912 -1.7168  1.8218
  522MOL0     H70413   0.570   7.968   7.224 -0.5980  1.9748 -0.1788
  522MOL0     H70414   0.542   7.844   7.099  1.8570 -0.9106 -2.6400
  522MOL0     H70415   0.738   7.958   6.973 -1.3598 -1.6453 -0.1061
  522MOL0     H70416   0.763   8.047   7.130  1.8292  0.7513 -0.5316
  522MOL0     H70417   0.769   7.825   7.241 -1.3232  1.0118 -0.3830
  522MOL0     H70418   0.771   7.727   7.098  0.3450 -1.7771  0.5079
  522MOL0     H70419   1.001   7.756   7.160  1.7396 -0.8932 -3.4864
  522MOL0     H70420   0.982   7.929   7.188 -0.5885 -0.6332 -0.6189
  522MOL0     H70421   0.866   7.744   6.862 -1.6550  1.8313 -0.2131
  522MOL0     H70422   0.973   7.848   6.582  0.1489  2.2096 -1.1443
  522MOL0     H70423   1.148   7.856   6.596 -2.0407  0.9498 -2.5467
  522MOL0     H70424   1.083   7.644   6.519  2.1477  1.4318 -0.7886
  522MOL0     H70425   0.988   7.622   6.679 -0.5873  3.7916  2.9396
  522MOL0     H70426   1.192   7.621   6.808  1.5084  1.1037 -0.6870
  522MOL0     H70427   1.283   7.683   6.672 -0.5847  0.4780 -1.6334
  522MOL0     H70428   1.192   7.392   6.720  0.7540  1.4643  0.9528
  522MOL0     H70429   1.359   7.453   6.707  0.8157 -1.7290  1.4048
  522MOL0     H70430   1.348   7.224   6.440  1.3662 -0.8099 -0.7454
  522MOL0     H70431   1.488   7.074   6.412  0.7116  0.4931  3.5311
  522MOL0     H70432   1.565   7.112   6.255 -0.7729 -3.0421  0.7445
  522MOL0     H70433   1.665   7.104   6.403 -0.2061  2.4304  1.7539
  522MOL0     H70434   2.025   7.349   6.202 -1.7653  2.5594 -0.6249
  522MOL0     H70435   2.269   7.390   6.218 -0.6006 -0.3217 -0.6087
  522MOL0     H70436   2.476   7.404   6.346 -1.0521 -0.8366 -1.7755
  522MOL0     H70437   2.488   7.503   6.194 -0.9369  1.5539  0.7129
  522MOL0     H70438   2.709   7.475   6.333 -2.8589 -1.9331  0.8338
  522MOL0     H70439   2.668   7.628   6.247  0.8884 -1.0977 -1.8257
  522MOL0     H70440   2.656   7.749   6.435 -0.0122 -0.5022 -5.2663
  522MOL0     H70441   2.766   7.629   6.486  0.3698  1.8601 -1.1591
  522MOL0     H70442   2.478   7.640   6.568 -0.4690 -0.7021 -2.0198
  522MOL0     H70443   2.581   7.492   6.595  0.2520  0.3125  3.3209
  522MOL0     H70444   2.739   7.609   6.740  1.0935  1.1103  0.0203
  522MOL0     H70445   2.563   7.623   6.783 -0.6588  0.2551 -0.8984
  522MOL0     H70446   2.742   7.832   6.653  0.2986 -1.3945 -0.9875
  522MOL0     H70447   2.567   7.853   6.692  0.1179  1.9180  2.2314
  522MOL0     H70448   2.645   7.809   6.935  0.7933 -2.8210 -1.4716
  522MOL0     H70449   2.687   7.968   6.868 -3.3618 -1.1254 -1.3010
  522MOL0     H70450   2.897   7.737   6.881 -0.4856  0.3366 -1.3156
  522MOL0     H70451   2.867   7.869   7.006  0.4334  1.1087 -0.3003
  522MOL0     H70452   2.221   7.689   6.505  0.2000  3.4816 -4.1042
  522MOL0     H70453   1.992   7.634   6.530 -2.6610 -1.3347 -0.2959
  522MOL0     H70454   1.655   7.605   6.402  1.5402 -0.4634  0.6107
  522MOL0     H70455   1.443   7.648   6.500  1.6207 -1.4381  2.5702
  522MOL0     H70456   0.432   8.243   6.518  0.6482  0.6931 -0.7888
  522MOL0     H70457   0.545   8.069   6.372 -1.6732  0.3191 -0.3941
  522MOL0     H70458   1.171   8.052   6.282  1.2294 -0.8231  0.8561
  522MOL0     H70459   1.302   7.901   6.166 -0.4347  2.1937  0.2047
  522MOL0     H70460   1.262   7.471   6.248  1.2270 -3.9289 -0.9182
  522MOL0     H70461   1.142   7.482   6.112  0.1929  0.9803  0.8296
  522MOL0     H70462   1.319   7.311   6.096  1.2604  1.3307  4.9185
  522MOL0     H70463   1.443   7.436   6.102  0.4591 -1.5828  2.6010
  522MOL0     H70464   1.292   7.549   5.911 -0.1182 -0.3582  0.0483
  522MOL0     H70465   1.215   7.398   5.886 -1.4463  2.0332  1.5065
  522MOL0     H70466   1.482   7.317   5.863 -2.7452 -0.8906  0.4066
  522MOL0     H70467   1.512   7.489   5.864  0.8405 -1.3839  0.4583
  522MOL0     H70468   1.389   7.435   5.473  2.3411  1.2446 -0.4123
  522MOL0     H70469   0.996   7.593   6.206 -0.2588  1.0928  0.0712
  522MOL0     H70470   0.860   7.760   6.313 -0.5608  2.1628  0.3203
  523MOL0     O70471   2.195   0.536   8.439  0.1121  0.3573  0.6562
  523MOL0     C70472   2.237   0.601   8.527 -0.5256 -0.7489 -0.1396
  523MOL0     O70473   2.232   0.571   8.656 -0.6912  0.0779 -0.4455
  523MOL0     C70474   2.174   0.454   8.697 -1.3936  0.1510 -0.6771
  523MOL0     C70475   2.084   0.450   8.805 -0.0439  0.1061  0.6165
  523MOL0     C70476   2.033   0.324   8.851 -0.8109  0.3971 -0.9751
  523MOL0     C70477   2.063   0.201   8.788 -0.5388 -1.5387  1.0488
  523MOL0     O70478   1.991   0.089   8.812 -0.2442 -0.0333  0.1272
  523MOL0     C70479   1.986  -0.018   8.717  0.2379 -0.2900  0.6461
  523MOL0     C70480   2.082  -0.127   8.751 -0.6764 -0.1116  0.1283
  523MOL0     C70481   2.028  -0.181   8.884 -0.4133  0.9660  0.1478
  523MOL0     C70482   2.098  -0.313   8.917 -0.5673 -0.4885 -0.6198
  523MOL0     C70483   2.087  -0.356   9.059 -0.5176 -0.1796 -0.8225
  523MOL0     C70484   2.125  -0.508   9.056 -0.2444  0.2682  1.0261
  523MOL0     C70485   2.122  -0.567   9.190 -0.2287  0.1322  0.1253
  523MOL0     C70486   2.262  -0.622   9.228  0.6008 -0.3683  0.1153
  523MOL0     N70487   2.273  -0.675   9.358 -0.2043 -0.0560  0.0585
  523MOL0     C70488   2.189  -0.779   9.413 -0.2394 -0.1040  0.2286
  523MOL0     C70489   2.246  -0.811   9.531 -0.3399 -0.3259  0.0905
  523MOL0     C70490   2.198  -0.920   9.622 -0.5550  0.3098  0.1585
  523MOL0     C70491   2.307  -1.004   9.689 -0.4629  0.2826  0.0072
  523MOL0     C70492   2.256  -1.112   9.786  1.0257  0.8521  0.2448
  523MOL0     C70493   2.374  -1.202   9.818  0.5006 -1.1988  0.5896
  523MOL0     O70494   2.331  -1.334   9.858 -0.6776 -0.1948  0.3599
  523MOL0     C70495   2.427  -1.428   9.833  0.3453 -0.8771  0.7121
  523MOL0     C70496   2.565  -1.404   9.860  0.5364  0.2927  0.4352
  523MOL0     C70497   2.669  -1.496   9.831  0.3666 -0.1556 -0.4372
  523MOL0     C70498   2.815  -1.464   9.852 -0.4218 -0.1320 -0.3103
  523MOL0     C70499   2.637  -1.618   9.769 -0.3327 -0.4001 -0.2197
  523MOL0     C70500   2.751  -1.715   9.747  0.3381 -0.5387 -0.8176
  523MOL0     O70501   2.782  -1.799   9.849  0.1294  0.3377  0.0001
  523MOL0     C70502   2.818  -1.931   9.839 -1.0569  0.0099  0.6179
  523MOL0     C70503   2.927  -1.977   9.921  0.6898 -0.4636  0.5961
  523MOL0     C70504   2.971  -2.105   9.901 -0.0681 -0.4462  0.0968
  523MOL0     C70505   2.920  -2.192   9.799 -0.2138 -0.1559 -0.7864
  523MOL0     O70506   2.986  -2.307   9.782 -0.2215 -0.3392  0.4550
  523MOL0     C70507   2.935  -2.419   9.703  0.0686  0.0555 -0.0234
  523MOL0     C70508   3.006  -2.534   9.759  0.3738  0.2095 -0.0458
  523MOL0     C70509   3.159  -2.535   9.749  0.8286 -0.7228  0.5346
  523MOL0     C70510   3.216  -2.675   9.758  0.3841 -0.7748  0.0414
  523MOL0     C70511   3.367  -2.675   9.743  0.6952 -0.3985  0.2445
  523MOL0     C70512   3.436  -2.628   9.865  0.8605 -0.0021  0.1073
  523MOL0     C70513   3.587  -2.650   9.859 -0.3689  0.5549 -0.1013
  523MOL0     C70514   3.664  -2.571   9.754  0.6134  0.1268 -0.3293
  523MOL0    Cl70515   3.837  -2.620   9.768 -0.1269  0.0118 -0.1666
  523MOL0     C70516   2.815  -2.147   9.722 -1.2079  0.0127 -1.0857
  523MOL0     C70517   2.757  -2.020   9.741  0.7907  0.3393  0.6100
  523MOL0     O70518   2.791  -1.722   9.631  0.0303  0.8669 -0.1921
  523MOL0     C70519   2.503  -1.641   9.738 -0.2042  1.2091 -0.2493
  523MOL0     C70520   2.403  -1.550   9.780  0.2540 -0.0180 -0.2807
  523MOL0     N70521   2.361  -0.723   9.544 -0.6036  1.3993  0.2736
  523MOL0     N70522   2.384  -0.651   9.437  0.4514 -0.6192  0.1801
  523MOL0     C70523   2.168   0.205   8.694  0.3392  0.2778 -0.0013
  523MOL0     C70524   2.226   0.325   8.653 -0.4325 -1.1403  1.0196
  523MOL0     C70525   2.291   0.727   8.488  0.2633  0.8680  0.1697
  523MOL0     C70526   2.225   0.822   8.413 -0.4265  0.4079  0.5159
  523MOL0     C70527   2.281   0.947   8.393  0.5791 -0.9706  0.0257
  523MOL0     C70528   2.410   0.965   8.440  0.2004 -0.3447  0.8735
  523MOL0     O70529   2.481   1.078   8.427 -0.3736  0.6991  0.0726
  523MOL0     C70530   2.417   1.189   8.359 -0.5189 -0.6196  0.5938
  523MOL0     C70531   2.439   1.166   8.207 -0.8800 -0.5868  0.4119
  523MOL0     C70532   2.343   1.249   8.125  1.0341  0.1018  0.3258
  523MOL0     C70533   2.354   1.401   8.126  0.3873  0.0549 -1.0665
  523MOL0     C70534   2.491   1.449   8.101 -0.7827 -0.1599  0.7246
  523MOL0     C70535   2.600   1.495   8.081 -0.4454  0.1086  0.2691
  523MOL0     C70536   2.487   0.872   8.507  0.0255 -0.1720  0.1039
  523MOL0     C70537   2.429   0.746   8.526  0.1418 -0.6145  0.2829
  523MOL0     H70538   2.060   0.546   8.849 -0.5295  0.2419  0.0682
  523MOL0     H70539   1.956   0.326   8.928  0.1154 -1.0318  0.0479
  523MOL0     H70540   1.885  -0.060   8.718  0.8268 -1.7571  0.3339
  523MOL0     H70541   1.996   0.019   8.614 -1.4513 -1.2238  0.1089
  523MOL0     H70542   2.080  -0.208   8.677 -1.6454 -1.8643  1.9817
  523MOL0     H70543   2.186  -0.094   8.758 -0.4704 -1.0202  1.9324
  523MOL0     H70544   2.064  -0.108   8.957  0.2003 -0.9467  1.8500
  523MOL0     H70545   1.920  -0.196   8.886 -0.1942 -0.7931  0.0164
  523MOL0     H70546   2.058  -0.385   8.845 -1.3177 -1.9235  1.1346
  523MOL0     H70547   2.205  -0.294   8.906  0.8582 -5.9637  0.7729
  523MOL0     H70548   2.144  -0.295   9.130  0.4739 -4.0316  2.0491
  523MOL0     H70549   1.981  -0.352   9.088 -0.6196  0.2916 -1.2548
  523MOL0     H70550   2.049  -0.562   9.000  0.5116 -1.3633  1.4997
  523MOL0     H70551   2.222  -0.521   9.007 -1.6239  0.2646 -1.9199
  523MOL0     H70552   2.089  -0.495   9.266  0.3291  0.8435 -0.2860
  523MOL0     H70553   2.055  -0.653   9.184 -1.2260  0.9764 -2.6233
  523MOL0     H70554   2.335  -0.542   9.216 -0.6163  0.5084 -2.1088
  523MOL0     H70555   2.282  -0.704   9.158 -0.1033  0.9361 -1.7093
  523MOL0     H70556   2.099  -0.826   9.376  0.9123 -0.3284 -2.5376
  523MOL0     H70557   2.154  -0.872   9.710  2.1264  1.4318  1.0086
  523MOL0     H70558   2.139  -0.992   9.565  0.3819 -0.7495  0.4822
  523MOL0     H70559   2.373  -0.949   9.756 -0.2928 -2.6883  2.5044
  523MOL0     H70560   2.373  -1.044   9.610  1.0318  1.3513  0.6631
  523MOL0     H70561   2.182  -1.169   9.729  3.6310  0.2410 -2.8631
  523MOL0     H70562   2.219  -1.068   9.879  4.4222  2.4250  1.0296
  523MOL0     H70563   2.441  -1.149   9.886  0.8611  1.1487 -1.4529
  523MOL0     H70564   2.432  -1.203   9.725 -0.4093 -1.7623  0.0185
  523MOL0     H70565   2.600  -1.306   9.890  0.4238  0.3736  0.3007
  523MOL0     H70566   2.825  -1.359   9.882  1.7697  0.1817 -1.8769
  523MOL0     H70567   2.867  -1.533   9.919  1.1680  0.8503 -0.4839
  523MOL0     H70568   2.863  -1.471   9.754  0.4616 -2.8870  0.2175
  523MOL0     H70569   2.968  -1.906   9.993 -1.8220  1.2647  0.5061
  523MOL0     H70570   3.058  -2.122   9.963  0.6226 -0.6475 -0.9149
  523MOL0     H70571   2.828  -2.439   9.698 -0.9464  4.5112  0.0603
  523MOL0     H70572   2.977  -2.391   9.605 -0.1509  2.1404  0.4350
  523MOL0     H70573   2.973  -2.558   9.860 -0.6714 -2.3476 -0.9163
  523MOL0     H70574   2.971  -2.631   9.724 -1.4725  0.3366  1.2912
  523MOL0     H70575   3.210  -2.479   9.828  2.8390 -0.8963 -0.5783
  523MOL0     H70576   3.184  -2.499   9.649  0.9583  0.5953  1.0193
  523MOL0     H70577   3.174  -2.722   9.848  0.0421 -1.6288 -0.5415
  523MOL0     H70578   3.173  -2.734   9.676  0.6996 -1.4496  0.3560
  523MOL0     H70579   3.396  -2.610   9.661  0.4898 -0.8957 -0.2302
  523MOL0     H70580   3.390  -2.781   9.729 -1.5405 -1.0500  1.0385
  523MOL0     H70581   3.406  -2.523   9.873 -1.3083 -0.4634 -1.1330
  523MOL0     H70582   3.398  -2.684   9.951  2.3983  0.4341  1.1101
  523MOL0     H70583   3.593  -2.755   9.830 -2.2483  0.6488 -1.0089
  523MOL0     H70584   3.634  -2.636   9.957  1.8020  3.0703 -1.3833
  523MOL0     H70585   3.665  -2.468   9.791 -1.5695 -0.4949  1.7196
  523MOL0     H70586   3.625  -2.590   9.653 -0.4952  2.9116 -0.5164
  523MOL0     H70587   2.771  -2.196   9.635 -4.2102  2.1595 -0.9446
  523MOL0     H70588   2.667  -1.985   9.691  0.4667 -0.0137  0.9410
  523MOL0     H70589   2.465  -1.728   9.686 -0.5676  2.4230 -2.0952
  523MOL0     H70590   2.302  -1.586   9.766 -0.4148  1.5502  0.1765
  523MOL0     H70591   2.218   0.118   8.653  1.4780  0.5422  0.7871
  523MOL0     H70592   2.311   0.324   8.585  0.8256  1.2116  2.4416
  523MOL0     H70593   2.124   0.802   8.378 -0.8732  0.4806  1.7107
  523MOL0     H70594   2.214   1.013   8.339  2.5065  1.9843  0.9638
  523MOL0     H70595   2.311   1.195   8.386 -1.3485 -3.0700 -1.6807
  523MOL0     H70596   2.465   1.285   8.379 -1.7828  1.1608 -3.8941
  523MOL0     H70597   2.433   1.058   8.188 -0.4537 -1.0366  2.5761
  523MOL0     H70598   2.541   1.201   8.186 -0.8620 -0.9340 -0.0918
  523MOL0     H70599   2.245   1.231   8.170  2.2163 -2.4273  2.1205
  523MOL0     H70600   2.329   1.216   8.022  0.1201  0.1235  0.4412
  523MOL0     H70601   2.336   1.442   8.226  0.8030  1.0374 -1.3819
  523MOL0     H70602   2.288   1.440   8.048  0.7967  2.5307 -0.2599
  523MOL0     H70603   2.695   1.542   8.069 -0.2508 -0.2183  0.4949
  523MOL0     H70604   2.581   0.901   8.553  1.8178 -1.8473 -2.2619
  523MOL0     H70605   2.488   0.677   8.585 -0.5488  0.4527  2.3196
  524MOL0     O70606   8.470   1.194   1.742  0.5513 -0.2497  0.0529
  524MOL0     C70607   8.411   1.082   1.750  0.3292 -0.4405  0.9054
  524MOL0     O70608   8.445   0.973   1.818  0.9745  0.3543 -0.1535
  524MOL0     C70609   8.557   0.964   1.893 -0.6283  0.5514  0.2053
  524MOL0     C70610   8.553   0.847   1.967  0.5600  0.7952  0.4069
  524MOL0     C70611   8.645   0.828   2.069  0.1074  0.3460  0.2953
  524MOL0     C70612   8.742   0.924   2.099  0.7902 -0.3630  0.7464
  524MOL0     O70613   8.820   0.898   2.208 -0.0566 -0.4192 -0.2268
  524MOL0     C70614   8.830   1.003   2.300 -0.0148 -0.0531  0.4065
  524MOL0     C70615   8.856   0.951   2.440 -1.0818  0.2146 -0.8582
  524MOL0     C70616   9.004   0.906   2.447  0.1062  1.2489  0.7528
  524MOL0     C70617   9.068   0.949   2.577  0.5919 -0.4491  0.1271
  524MOL0     C70618   9.202   0.878   2.608 -1.3223 -0.1904  0.6089
  524MOL0     C70619   9.189   0.738   2.662 -0.4411 -0.3763  0.8837
  524MOL0     C70620   9.315   0.674   2.707  0.1148  0.0049  0.5297
  524MOL0     C70621   9.409   0.641   2.595 -0.1652  0.5106 -0.1689
  524MOL0     N70622   9.365   0.537   2.501 -0.4421  0.5898  0.2655
  524MOL0     C70623   9.295   0.554   2.381  0.0619  0.0036 -1.3145
  524MOL0     C70624   9.267   0.438   2.326 -0.0182  0.2316  0.1860
  524MOL0     C70625   9.200   0.405   2.204 -0.1556  0.2701 -0.7589
  524MOL0     C70626   9.060   0.459   2.202 -0.1067  0.0278  0.8129
  524MOL0     C70627   8.989   0.429   2.071 -1.3034  0.1252 -0.0383
  524MOL0     C70628   8.928   0.544   2.006 -0.5853 -0.3366  0.0511
  524MOL0     O70629   9.032   0.636   1.955  0.4143  0.1725 -0.4836
  524MOL0     C70630   9.004   0.705   1.841  0.4062  1.1518  0.2310
  524MOL0     C70631   9.112   0.732   1.760 -0.2224 -0.7261  0.3389
  524MOL0     C70632   9.100   0.808   1.637  0.9904  0.4668  0.0797
  524MOL0     C70633   9.229   0.845   1.581  0.0670  0.5374  0.4139
  524MOL0     C70634   8.969   0.851   1.605  1.1192 -0.7521 -0.1121
  524MOL0     C70635   8.946   0.932   1.480  1.2014  0.4180  0.1051
  524MOL0     O70636   8.827   0.992   1.481  0.5211 -0.7729  0.1683
  524MOL0     C70637   8.752   1.009   1.365  0.5769 -0.4733  0.9592
  524MOL0     C70638   8.622   1.053   1.381  0.0912 -0.5035  0.2469
  524MOL0     C70639   8.532   1.064   1.274 -0.2795  0.0759  0.2280
  524MOL0     C70640   8.572   1.026   1.143  0.2759 -0.0100  0.1427
  524MOL0     O70641   8.503   1.048   1.029  0.4142  0.3364 -0.0224
  524MOL0     C70642   8.364   1.085   1.025  0.4506 -0.4412 -0.2761
  524MOL0     C70643   8.356   1.235   1.006  0.1417  0.1252  0.8093
  524MOL0     C70644   8.218   1.279   1.045 -0.3474 -0.3955 -0.4637
  524MOL0     C70645   8.197   1.428   1.029 -0.1099 -0.8371  0.8901
  524MOL0     C70646   8.220   1.484   0.888 -0.4050 -0.1688  0.3211
  524MOL0     C70647   8.162   1.404   0.770 -0.1333  0.5103  0.9468
  524MOL0     C70648   8.138   1.498   0.653 -0.0268  0.7667  0.8201
  524MOL0     C70649   8.257   1.561   0.589  0.0011  0.8245  0.5386
  524MOL0    Cl70650   8.321   1.425   0.489  0.1814 -0.0515 -0.6939
  524MOL0     C70651   8.705   0.989   1.134  1.4120 -0.6262  0.2285
  524MOL0     C70652   8.797   0.975   1.234 -0.4382  1.6077  0.0791
  524MOL0     O70653   9.029   0.940   1.395 -0.6347 -0.7348  0.9265
  524MOL0     C70654   8.862   0.817   1.690  0.4259 -1.0444 -0.1208
  524MOL0     C70655   8.878   0.744   1.805  0.2866  0.2162 -0.1790
  524MOL0     N70656   9.329   0.349   2.412 -0.1899  0.8775  0.2586
  524MOL0     N70657   9.388   0.412   2.510  0.2949  0.8073 -0.2756
  524MOL0     C70658   8.766   1.032   2.014 -0.7376  0.3819  0.2426
  524MOL0     C70659   8.670   1.050   1.908 -0.3465  0.0576  0.7332
  524MOL0     C70660   8.292   1.063   1.654  0.4518 -0.1154 -0.8707
  524MOL0     C70661   8.186   0.970   1.693 -0.7307  0.2882 -0.6145
  524MOL0     C70662   8.071   0.954   1.620  0.4865  0.0425  0.1062
  524MOL0     C70663   8.058   1.023   1.498 -0.0838  0.7209  0.8910
  524MOL0     O70664   7.944   0.988   1.434 -1.0864  0.1089  0.0273
  524MOL0     C70665   7.944   1.033   1.295  0.3446  0.1421  0.5498
  524MOL0     C70666   7.817   0.979   1.233 -0.1483  0.0723 -0.8959
  524MOL0     C70667   7.726   1.062   1.145 -0.1634 -0.6009 -0.3484
  524MOL0     C70668   7.806   1.139   1.042 -0.4711 -0.6479 -0.0962
  524MOL0     C70669   7.747   1.141   0.906 -0.4137 -0.4273  0.6154
  524MOL0     C70670   7.706   1.163   0.789  0.0575  0.3956 -0.1824
  524MOL0     C70671   8.162   1.112   1.452  0.0764  0.5407 -1.0910
  524MOL0     C70672   8.274   1.136   1.536 -0.4450  0.0435  0.4886
  524MOL0     H70673   8.483   0.770   1.936  1.0331  0.4132  0.2833
  524MOL0     H70674   8.642   0.731   2.117 -3.9760 -0.1444 -0.5801
  524MOL0     H70675   8.907   1.071   2.263  0.3139 -1.4535 -1.6714
  524MOL0     H70676   8.731   1.049   2.295  0.7940  1.5778 -2.7186
  524MOL0     H70677   8.833   1.016   2.526  0.7374 -0.7234  0.4087
  524MOL0     H70678   8.800   0.858   2.456 -0.8050  0.2965  0.8187
  524MOL0     H70679   8.998   0.797   2.444 -0.5803  1.1907  2.7948
  524MOL0     H70680   9.066   0.926   2.358  1.2294 -2.3307  0.5734
  524MOL0     H70681   9.081   1.058   2.584 -0.7857 -0.3522  2.2638
  524MOL0     H70682   9.005   0.930   2.664 -0.1380 -0.1309 -0.3191
  524MOL0     H70683   9.269   0.867   2.523 -0.2960 -0.5464  1.4451
  524MOL0     H70684   9.261   0.930   2.684  1.1786 -1.6016 -0.2615
  524MOL0     H70685   9.111   0.732   2.739 -2.2504  0.9699 -0.7265
  524MOL0     H70686   9.144   0.688   2.576  1.4798  1.1288 -1.1328
  524MOL0     H70687   9.358   0.731   2.790  1.1332 -0.1887  0.1614
  524MOL0     H70688   9.282   0.581   2.753 -1.8320  0.5670  0.3669
  524MOL0     H70689   9.513   0.624   2.623 -0.1798  2.3439  1.1146
  524MOL0     H70690   9.416   0.726   2.526 -0.2929  1.0714  0.5074
  524MOL0     H70691   9.263   0.649   2.339  1.2439  2.0904  2.0734
  524MOL0     H70692   9.241   0.437   2.108 -1.2197 -3.1977 -2.5349
  524MOL0     H70693   9.187   0.297   2.191  0.8169 -0.4256  2.9594
  524MOL0     H70694   9.071   0.566   2.218  1.6751 -0.0650  0.3796
  524MOL0     H70695   8.996   0.418   2.281 -2.2850  1.5662 -0.0492
  524MOL0     H70696   8.904   0.362   2.087  0.1059 -1.7678 -0.0716
  524MOL0     H70697   9.061   0.378   2.007 -1.9400  0.2384 -0.8611
  524MOL0     H70698   8.882   0.586   2.096 -3.2177 -0.6620 -1.0590
  524MOL0     H70699   8.863   0.524   1.921  1.3907 -0.6398 -1.4648
  524MOL0     H70700   9.206   0.723   1.812 -0.2016  1.5686  0.8329
  524MOL0     H70701   9.310   0.792   1.631  1.2418  2.2592  0.4029
  524MOL0     H70702   9.242   0.822   1.475 -1.0234  1.8287 -0.0319
  524MOL0     H70703   9.257   0.949   1.598 -1.2800  1.2956 -1.6038
  524MOL0     H70704   8.599   1.073   1.486 -0.0698  1.7609 -0.1674
  524MOL0     H70705   8.430   1.101   1.271 -0.6273 -0.3913 -5.5632
  524MOL0     H70706   8.318   1.039   0.937 -1.0629 -0.4105  0.4688
  524MOL0     H70707   8.323   1.048   1.119  2.8168 -0.6260  0.7477
  524MOL0     H70708   8.425   1.303   1.058 -0.5104  1.5704 -0.1555
  524MOL0     H70709   8.380   1.254   0.901  1.0766  2.2850  1.3574
  524MOL0     H70710   8.210   1.252   1.151 -0.5690 -1.7413 -0.7982
  524MOL0     H70711   8.135   1.228   0.995 -1.8571  1.2750  0.2260
  524MOL0     H70712   8.096   1.460   1.056 -0.8990 -1.4952 -1.0758
  524MOL0     H70713   8.274   1.475   1.091 -0.7293  0.7200  0.5202
  524MOL0     H70714   8.329   1.488   0.876 -0.3045  0.0836  1.2097
  524MOL0     H70715   8.184   1.587   0.883 -3.6152 -1.1766  0.8015
  524MOL0     H70716   8.225   1.317   0.749  0.1632  1.1138 -0.8348
  524MOL0     H70717   8.065   1.367   0.804 -1.4978  2.8952 -0.1093
  524MOL0     H70718   8.061   1.570   0.680 -0.3423  0.0162  1.9825
  524MOL0     H70719   8.089   1.440   0.574 -1.5125  1.5818  1.1112
  524MOL0     H70720   8.342   1.575   0.656  0.1742  0.0794  0.4903
  524MOL0     H70721   8.236   1.654   0.536 -2.7739 -0.8440 -1.5363
  524MOL0     H70722   8.736   0.968   1.032 -0.6273 -1.6302 -0.2223
  524MOL0     H70723   8.892   0.939   1.195 -0.4941  3.3577 -1.9192
  524MOL0     H70724   8.766   0.850   1.653  0.4312 -2.0909 -1.1496
  524MOL0     H70725   8.787   0.735   1.864  0.9618 -0.2991  0.8052
  524MOL0     H70726   8.856   1.090   2.031  2.4152 -2.9830 -3.0234
  524MOL0     H70727   8.691   1.132   1.840 -1.4179 -1.2397 -1.2535
  524MOL0     H70728   8.199   0.902   1.777 -1.3994 -1.1337 -1.6224
  524MOL0     H70729   7.983   0.911   1.667  0.4868  1.7187  1.7388
  524MOL0     H70730   7.959   1.139   1.277  3.7695 -0.5798 -1.7041
  524MOL0     H70731   8.021   0.977   1.241 -0.2798 -1.2684  1.0581
  524MOL0     H70732   7.753   0.950   1.317  0.4795  0.6285 -0.2075
  524MOL0     H70733   7.839   0.891   1.171 -1.4679  1.7814 -4.0103
  524MOL0     H70734   7.671   1.137   1.203  3.4749  2.2075 -0.1274
  524MOL0     H70735   7.654   1.005   1.086  0.3946  0.2561 -1.9090
  524MOL0     H70736   7.901   1.087   1.026 -0.7036 -1.1682  0.1967
  524MOL0     H70737   7.832   1.241   1.073  1.3275 -0.8875 -0.6854
  524MOL0     H70738   7.667   1.183   0.691 -1.5648  1.2125  0.5956
  524MOL0     H70739   8.165   1.174   1.363  2.3895  2.6875  0.3512
  524MOL0     H70740   8.347   1.214   1.520  1.3308 -1.2535  1.8562
  525MOL0     O70741   7.455   5.172   2.184 -0.7402  0.3371  0.1159
  525MOL0     C70742   7.482   5.149   2.065  0.4855  0.5130 -0.4529
  525MOL0     O70743   7.398   5.125   1.968 -1.0639 -0.1595 -0.8641
  525MOL0     C70744   7.270   5.156   1.982  1.0441 -0.5209 -0.0639
  525MOL0     C70745   7.185   5.108   1.874 -0.1756  0.1929 -0.1816
  525MOL0     C70746   7.060   5.148   1.851 -0.5415  0.2570  0.2936
  525MOL0     C70747   6.995   5.241   1.939 -0.1731  0.3273  0.2349
  525MOL0     O70748   6.861   5.285   1.899 -0.3735  0.7644 -0.8687
  525MOL0     C70749   6.825   5.411   1.965  0.0128  0.5090  0.7563
  525MOL0     C70750   6.697   5.443   1.915 -0.8040  0.3193  0.3945
  525MOL0     C70751   6.690   5.507   1.773  0.7077  0.8067  0.1931
  525MOL0     C70752   6.540   5.539   1.736  0.3848 -0.6275 -0.3123
  525MOL0     C70753   6.460   5.421   1.673  0.3995 -0.6733 -0.3126
  525MOL0     C70754   6.348   5.480   1.588  0.9185 -0.5072 -0.2279
  525MOL0     C70755   6.276   5.369   1.519  0.0256  0.4914  0.8546
  525MOL0     C70756   6.161   5.308   1.588  0.6753  0.8318  0.4582
  525MOL0     N70757   6.059   5.407   1.643  0.6137  0.3935  0.4162
  525MOL0     C70758   5.983   5.499   1.568 -0.3737  0.3112  0.7142
  525MOL0     C70759   5.932   5.570   1.665 -0.0869  0.1296 -0.0267
  525MOL0     C70760   5.850   5.693   1.648  0.4615 -1.1189  0.3062
  525MOL0     C70761   5.720   5.652   1.571 -0.1185  0.5594 -0.1504
  525MOL0     C70762   5.641   5.537   1.631  0.6443  0.3052  0.4969
  525MOL0     C70763   5.493   5.517   1.579 -0.4581 -0.8117 -0.2374
  525MOL0     O70764   5.490   5.490   1.435  0.0616  0.3542  0.1434
  525MOL0     C70765   5.381   5.420   1.380 -0.6672 -0.8257  0.6820
  525MOL0     C70766   5.295   5.342   1.448 -0.6171  0.2326 -1.3552
  525MOL0     C70767   5.203   5.258   1.380 -0.2547  0.3143  1.2090
  525MOL0     C70768   5.107   5.166   1.465 -0.3723 -0.2305 -0.4448
  525MOL0     C70769   5.204   5.259   1.246  0.0458  0.7387  1.4490
  525MOL0     C70770   5.122   5.183   1.163 -0.2819 -1.1117 -0.1747
  525MOL0     O70771   5.056   5.252   1.065  0.5199 -0.8495 -0.5314
  525MOL0     C70772   4.978   5.181   0.969 -0.0066  0.0885 -1.1071
  525MOL0     C70773   5.014   5.062   0.912 -0.5823  0.7652  0.0159
  525MOL0     C70774   4.945   5.011   0.801 -0.3935  0.4355  0.2024
  525MOL0     C70775   4.853   5.090   0.740  0.5719  0.4844 -0.7459
  525MOL0     O70776   4.788   5.049   0.625  0.0319  0.0545  0.9066
  525MOL0     C70777   4.654   5.096   0.591  0.7181  0.0612 -0.5277
  525MOL0     C70778   4.624   5.089   0.438  0.2084 -0.7780  0.7608
  525MOL0     C70779   4.589   4.943   0.386 -0.0822 -0.4427 -0.3031
  525MOL0     C70780   4.580   4.935   0.227 -0.2694  0.5798 -0.2996
  525MOL0     C70781   4.485   4.843   0.158 -0.6608 -0.4991  0.0696
  525MOL0     C70782   4.497   4.698   0.200  0.2983 -0.6578  0.3729
  525MOL0     C70783   4.397   4.622   0.108 -1.4726 -0.0520 -0.1318
  525MOL0     C70784   4.418   4.468   0.125 -0.1567 -0.2059 -0.4553
  525MOL0    Cl70785   4.563   4.431   0.028 -0.7076 -0.8855 -0.4982
  525MOL0     C70786   4.817   5.213   0.800 -0.3361  0.2633 -0.0510
  525MOL0     C70787   4.870   5.252   0.924  0.3911  0.0275  0.5534
  525MOL0     O70788   5.096   5.068   1.195  0.0520 -0.2979  0.1419
  525MOL0     C70789   5.294   5.340   1.173  0.5036 -0.3785  0.3447
  525MOL0     C70790   5.380   5.421   1.244  0.0663  0.5017 -0.1258
  525MOL0     N70791   5.958   5.519   1.790 -0.9108  0.0665  0.3803
  525MOL0     N70792   6.039   5.421   1.778  0.9973 -0.0735 -0.4225
  525MOL0     C70793   7.068   5.294   2.049 -0.0343 -0.4100  0.3459
  525MOL0     C70794   7.203   5.245   2.069  0.4748 -0.7055 -0.5899
  525MOL0     C70795   7.620   5.129   2.023  1.0886  0.4372 -0.7777
  525MOL0     C70796   7.656   5.135   1.891 -0.0588 -0.2049  0.3844
  525MOL0     C70797   7.790   5.127   1.851 -0.4643 -0.6389  0.3341
  525MOL0     C70798   7.888   5.118   1.952  0.8193 -0.0906 -0.8045
  525MOL0     O70799   8.028   5.117   1.930 -0.6034 -0.0507  0.9459
  525MOL0     C70800   8.073   5.189   1.818 -0.3834 -0.4883 -0.1034
  525MOL0     C70801   8.075   5.106   1.689 -0.4836 -0.0698  0.4108
  525MOL0     C70802   8.017   5.182   1.577 -0.6329  0.5250 -0.6311
  525MOL0     C70803   8.086   5.174   1.442  0.2740  0.9957 -0.3701
  525MOL0     C70804   8.214   5.231   1.438  0.4905 -0.7092  0.3095
  525MOL0     C70805   8.323   5.284   1.445  0.5763 -0.1147 -0.4902
  525MOL0     C70806   7.847   5.129   2.084  0.2144  0.1303 -0.6830
  525MOL0     C70807   7.710   5.119   2.126 -0.4721 -0.5988 -0.5085
  525MOL0     H70808   7.228   5.039   1.802  2.1748  2.1970 -0.8381
  525MOL0     H70809   7.016   5.095   1.766  0.6673 -0.6437  0.2040
  525MOL0     H70810   6.808   5.388   2.070 -1.4740 -3.6660 -0.2083
  525MOL0     H70811   6.899   5.491   1.953  2.1881 -0.3556  5.7790
  525MOL0     H70812   6.634   5.354   1.913 -0.9348  0.3956 -1.7112
  525MOL0     H70813   6.662   5.509   1.996  1.6210  1.6719  0.4212
  525MOL0     H70814   6.727   5.609   1.778 -0.6725  1.3402  0.1498
  525MOL0     H70815   6.743   5.446   1.698 -0.5917  0.3003 -0.3541
  525MOL0     H70816   6.481   5.558   1.826 -1.4241 -3.4165 -0.7742
  525MOL0     H70817   6.540   5.620   1.662 -1.7006  0.4591  0.8041
  525MOL0     H70818   6.525   5.370   1.601 -1.2673  0.5152 -2.7994
  525MOL0     H70819   6.409   5.363   1.750 -0.3242  0.8591  0.4113
  525MOL0     H70820   6.289   5.551   1.647  1.5431  0.1478 -0.3757
  525MOL0     H70821   6.397   5.540   1.510  0.4692  0.2842  0.0837
  525MOL0     H70822   6.240   5.416   1.427  1.0328  0.4591  0.4233
  525MOL0     H70823   6.328   5.283   1.475 -0.3025 -0.2145  1.8033
  525MOL0     H70824   6.179   5.229   1.662 -0.5517 -1.7724 -1.8444
  525MOL0     H70825   6.104   5.255   1.511  2.5754 -0.5163 -0.0666
  525MOL0     H70826   5.972   5.497   1.460 -0.5923 -2.0812  0.7181
  525MOL0     H70827   5.819   5.728   1.747 -2.8065 -0.4872 -0.8111
  525MOL0     H70828   5.899   5.775   1.593  0.0913  0.0707  1.6836
  525MOL0     H70829   5.758   5.627   1.471  1.0583  1.3326  0.0806
  525MOL0     H70830   5.657   5.741   1.565 -1.6007 -0.4968 -5.2998
  525MOL0     H70831   5.652   5.544   1.740 -0.6583 -1.3722  0.7728
  525MOL0     H70832   5.696   5.449   1.596 -2.4174 -0.5126 -2.8971
  525MOL0     H70833   5.432   5.607   1.594  2.1075  1.2678 -1.5344
  525MOL0     H70834   5.466   5.426   1.634  1.0098 -0.7896  0.5456
  525MOL0     H70835   5.301   5.330   1.556 -0.0691 -2.4613 -1.6166
  525MOL0     H70836   5.021   5.139   1.404  0.5351 -0.0347 -1.8518
  525MOL0     H70837   5.158   5.076   1.503  1.4632  0.1672 -1.8365
  525MOL0     H70838   5.060   5.208   1.555 -0.6765 -0.6822 -0.3903
  525MOL0     H70839   5.096   5.008   0.957  0.0393  2.8559  1.5811
  525MOL0     H70840   4.971   4.915   0.756 -2.5174 -1.0660  1.9404
  525MOL0     H70841   4.579   5.032   0.638 -0.0271  0.6198 -0.9335
  525MOL0     H70842   4.638   5.199   0.625 -0.1675  0.1885 -1.2928
  525MOL0     H70843   4.532   5.145   0.417  1.7423  1.1747 -1.2900
  525MOL0     H70844   4.715   5.135   0.397  0.4666 -1.8068  0.1577
  525MOL0     H70845   4.490   4.926   0.429 -1.3336  1.1690 -2.3399
  525MOL0     H70846   4.657   4.867   0.424  0.2472 -0.0816 -0.1622
  525MOL0     H70847   4.558   5.035   0.188  0.9816  1.5900  1.4474
  525MOL0     H70848   4.677   4.895   0.194  0.6464 -0.0806  2.8976
  525MOL0     H70849   4.480   4.851   0.049 -2.5642  0.9353  0.1965
  525MOL0     H70850   4.385   4.880   0.183 -1.0810 -0.0051 -2.1018
  525MOL0     H70851   4.598   4.659   0.188  0.1990 -0.1050 -3.7874
  525MOL0     H70852   4.448   4.684   0.297  0.1417 -0.0704  0.3829
  525MOL0     H70853   4.431   4.634   0.004  0.2007 -2.5843  0.0248
  525MOL0     H70854   4.294   4.656   0.122 -1.0423  0.9208  0.7421
  525MOL0     H70855   4.326   4.422   0.087 -1.4941  0.1920  2.1075
  525MOL0     H70856   4.423   4.447   0.232 -2.6939  0.8899 -0.0453
  525MOL0     H70857   4.742   5.279   0.758 -0.6836  0.2798  0.5918
  525MOL0     H70858   4.854   5.351   0.965 -1.3610  0.2633 -0.6046
  525MOL0     H70859   5.279   5.348   1.066  0.1203 -2.7312  0.1642
  525MOL0     H70860   5.464   5.464   1.191  1.1621  1.8020  2.5137
  525MOL0     H70861   7.032   5.373   2.114  1.5367  1.8287 -1.3268
  525MOL0     H70862   7.243   5.294   2.157  1.5870 -0.5376 -1.1785
  525MOL0     H70863   7.583   5.158   1.814  0.5237 -0.4657 -0.2585
  525MOL0     H70864   7.806   5.131   1.743 -3.0800 -1.0578 -0.1461
  525MOL0     H70865   8.023   5.285   1.804  0.4686 -0.1439 -0.8373
  525MOL0     H70866   8.174   5.227   1.836 -0.8522  1.4387 -1.2714
  525MOL0     H70867   8.017   5.015   1.707 -1.6760  0.0913 -2.2458
  525MOL0     H70868   8.175   5.070   1.665 -0.6823  0.5829 -1.5649
  525MOL0     H70869   8.018   5.288   1.603  0.3742  0.9271 -2.2226
  525MOL0     H70870   7.911   5.153   1.575 -0.2790 -0.9000 -0.2145
  525MOL0     H70871   8.022   5.234   1.377 -1.0800  1.9863  1.7533
  525MOL0     H70872   8.083   5.069   1.412 -0.4067  0.1881  2.1955
  525MOL0     H70873   8.409   5.348   1.458 -0.2606  1.0267 -0.4002
  525MOL0     H70874   7.918   5.146   2.164 -1.3630 -2.8312  1.5660
  525MOL0     H70875   7.671   5.119   2.227 -1.2400  0.2952 -0.7902
  526MOL0     O70876  10.219   9.139   0.613  0.2743  0.0351  0.1231
  526MOL0     C70877  10.157   9.199   0.527 -0.2543 -0.0815  0.5270
  526MOL0     O70878  10.192   9.324   0.465 -0.6517  0.7384 -0.5203
  526MOL0     C70879  10.311   9.382   0.492  0.0068 -0.2570 -1.2484
  526MOL0     C70880  10.427   9.340   0.571 -0.5764 -0.4688 -0.2698
  526MOL0     C70881  10.531   9.427   0.596  0.8435  0.9648 -0.3167
  526MOL0     C70882  10.538   9.554   0.538 -0.0955  0.2478 -0.7530
  526MOL0     O70883  10.635   9.644   0.568 -0.8089 -0.0422 -0.4058
  526MOL0     C70884  10.771   9.600   0.617  1.2097  0.6482  0.7868
  526MOL0     C70885  10.855   9.720   0.639 -0.6616  0.3370  0.1258
  526MOL0     C70886  10.849   9.834   0.537 -0.0748 -0.3485  0.5696
  526MOL0     C70887  10.983   9.856   0.468 -0.6978  0.3700 -0.7545
  526MOL0     C70888  10.982   9.970   0.368 -0.0130  0.0195 -0.8438
  526MOL0     C70889  11.066   9.937   0.251 -0.6119 -0.1873 -0.9293
  526MOL0     C70890  11.111  10.068   0.182 -0.1811  0.3192  0.3102
  526MOL0     C70891  11.208  10.031   0.059  0.0784  0.4482 -0.2499
  526MOL0     N70892  11.273  10.150  -0.005 -0.2111 -0.9892  0.0906
  526MOL0     C70893  11.259  10.282   0.033 -0.3363  0.3223 -0.2507
  526MOL0     C70894  11.333  10.346  -0.057 -0.5639 -0.1117  0.1433
  526MOL0     C70895  11.368  10.483  -0.082 -0.0820  0.1675 -0.6873
  526MOL0     C70896  11.464  10.550   0.026  0.0770 -0.1829 -0.3086
  526MOL0     C70897  11.610  10.484   0.039  0.0170  0.5623  0.1163
  526MOL0     C70898  11.689  10.476  -0.093 -0.8119 -0.2416  0.1671
  526MOL0     O70899  11.716  10.613  -0.138  0.3443  0.1057  0.7902
  526MOL0     C70900  11.765  10.612  -0.263 -0.5254  0.4434  0.7943
  526MOL0     C70901  11.904  10.597  -0.274 -0.4864  1.0629 -1.0389
  526MOL0     C70902  11.967  10.618  -0.396 -0.7397  0.7431  0.1037
  526MOL0     C70903  12.123  10.609  -0.402 -0.2997  0.0834  0.7120
  526MOL0     C70904  11.880  10.637  -0.516  0.0711 -0.0602  0.9877
  526MOL0     C70905  11.928  10.678  -0.648 -1.0856 -0.1898 -0.6367
  526MOL0     O70906  11.893  10.799  -0.688 -0.7745  0.1265 -0.1518
  526MOL0     C70907  11.961  10.848  -0.795  0.9217 -0.0938 -0.9928
  526MOL0     C70908  11.888  10.840  -0.922 -0.6153  0.2365 -0.3786
  526MOL0     C70909  11.945  10.895  -1.035 -0.3384 -0.9424 -0.7016
  526MOL0     C70910  12.071  10.957  -1.028 -0.0072  0.1284  0.4012
  526MOL0     O70911  12.130  10.997  -1.147  0.1787  0.3892  0.0139
  526MOL0     C70912  12.071  11.100  -1.227  0.3610 -0.4833  0.0904
  526MOL0     C70913  12.190  11.151  -1.316  1.3901 -0.6820  1.1130
  526MOL0     C70914  12.283  11.050  -1.383  0.3624 -0.3749  0.0689
  526MOL0     C70915  12.371  11.126  -1.477  0.0447  0.1723  0.2708
  526MOL0     C70916  12.492  11.035  -1.512  0.4317 -0.6565  0.4693
  526MOL0     C70917  12.583  11.120  -1.611  0.2860 -0.0449  0.2948
  526MOL0     C70918  12.727  11.064  -1.635  0.3846 -0.0227 -0.3038
  526MOL0     C70919  12.721  10.922  -1.677 -0.1702 -0.1838 -0.3993
  526MOL0    Cl70920  12.878  10.872  -1.722  0.3599  0.3269 -0.2968
  526MOL0     C70921  12.143  10.958  -0.909 -0.0187 -0.6881  0.7478
  526MOL0     C70922  12.095  10.893  -0.790  0.5127 -0.2251  0.5895
  526MOL0     O70923  11.996  10.595  -0.711  0.3594 -0.1886 -0.0512
  526MOL0     C70924  11.745  10.654  -0.497  0.3815 -0.9522 -0.4548
  526MOL0     C70925  11.693  10.632  -0.375 -0.0863 -0.1427  0.1206
  526MOL0     N70926  11.387  10.256  -0.153  0.4426 -0.1662  0.2472
  526MOL0     N70927  11.345  10.138  -0.120  0.3684 -0.5764 -0.7887
  526MOL0     C70928  10.433   9.585   0.462 -0.4452  0.3706 -0.6084
  526MOL0     C70929  10.319   9.510   0.439 -0.4829 -1.0064  0.1546
  526MOL0     C70930  10.030   9.144   0.462 -0.4836  0.0519  0.3507
  526MOL0     C70931   9.996   9.014   0.491  0.6747  0.9330 -0.0075
  526MOL0     C70932   9.879   8.961   0.436 -0.8252  0.8256  1.2152
  526MOL0     C70933   9.801   9.032   0.341  0.1811 -0.2262  0.6574
  526MOL0     O70934   9.689   8.972   0.279  0.0263  0.0963 -0.2310
  526MOL0     C70935   9.662   8.831   0.305 -0.2330  0.1166  0.7201
  526MOL0     C70936   9.534   8.780   0.238 -0.6765  0.9168 -0.2509
  526MOL0     C70937   9.467   8.655   0.294 -0.3598 -0.8911  0.2606
  526MOL0     C70938   9.565   8.540   0.283  0.5543  0.1902  0.5645
  526MOL0     C70939   9.512   8.414   0.331  1.1082  0.5967  0.5445
  526MOL0     C70940   9.473   8.308   0.363  0.1325  0.4816 -0.1680
  526MOL0     C70941   9.834   9.166   0.312  0.4130 -0.0892 -0.0173
  526MOL0     C70942   9.950   9.214   0.370 -0.1760  0.0061 -0.2243
  526MOL0     H70943  10.442   9.242   0.617 -0.2612  0.8079  2.5224
  526MOL0     H70944  10.606   9.385   0.662  0.3729  0.1867 -0.2639
  526MOL0     H70945  10.764   9.537   0.706 -1.5424 -0.0322  0.1813
  526MOL0     H70946  10.814   9.549   0.531  2.9323  1.5021  1.0891
  526MOL0     H70947  10.810   9.750   0.735  0.8648 -1.0675  1.3393
  526MOL0     H70948  10.956   9.681   0.652 -1.2593 -1.3900 -0.0962
  526MOL0     H70949  10.765   9.818   0.469  0.1947  0.2426  0.0965
  526MOL0     H70950  10.816   9.926   0.585  1.0903 -0.5316  1.7979
  526MOL0     H70951  11.052   9.895   0.544 -1.3280  1.0947 -0.5482
  526MOL0     H70952  11.025   9.760   0.436  1.6889 -0.1637  3.2080
  526MOL0     H70953  10.885  10.007   0.336 -0.6666  1.1356  2.1396
  526MOL0     H70954  11.014  10.057   0.426 -1.4835  1.1119 -1.6129
  526MOL0     H70955  11.149   9.873   0.283  2.1632  1.7596 -3.6742
  526MOL0     H70956  11.004   9.873   0.188  1.1125 -1.6595 -1.2189
  526MOL0     H70957  11.022  10.120   0.145 -0.4378  1.0778  1.9402
  526MOL0     H70958  11.169  10.123   0.256  1.9074 -0.4388 -0.6941
  526MOL0     H70959  11.164   9.973  -0.023  4.3548  1.2085 -3.4911
  526MOL0     H70960  11.294   9.977   0.100 -1.9423 -2.4426  0.5441
  526MOL0     H70961  11.221  10.325   0.125  2.1960  0.2871  0.8910
  526MOL0     H70962  11.409  10.489  -0.183 -2.1297 -0.8651 -1.6532
  526MOL0     H70963  11.269  10.526  -0.099  0.3692  1.9707  0.9707
  526MOL0     H70964  11.415  10.547   0.124  3.0956 -3.1067  1.3200
  526MOL0     H70965  11.479  10.650  -0.015  3.0981 -0.4821 -0.1150
  526MOL0     H70966  11.612  10.385   0.086 -0.2517 -0.1894 -1.3991
  526MOL0     H70967  11.658  10.553   0.108 -2.5261 -0.2111  2.8956
  526MOL0     H70968  11.636  10.414  -0.165 -3.5910 -1.2036  2.8296
  526MOL0     H70969  11.779  10.425  -0.058 -1.9464  0.0563  3.9262
  526MOL0     H70970  11.963  10.587  -0.184  1.7033  0.9177 -2.4168
  526MOL0     H70971  12.165  10.710  -0.405 -0.8481  0.3877  2.2136
  526MOL0     H70972  12.177  10.561  -0.319 -0.5284  1.3617  1.6282
  526MOL0     H70973  12.163  10.551  -0.485 -0.6617 -0.1948  0.7287
  526MOL0     H70974  11.787  10.801  -0.932 -0.5410  0.2721 -1.3220
  526MOL0     H70975  11.876  10.887  -1.119 -1.6294  1.9366 -0.0560
  526MOL0     H70976  11.993  11.061  -1.293 -1.6430  2.3389  0.5766
  526MOL0     H70977  12.034  11.182  -1.165  2.7101  1.2398 -0.6677
  526MOL0     H70978  12.152  11.211  -1.399  1.1658 -0.1776  1.5738
  526MOL0     H70979  12.244  11.219  -1.250 -1.2773  0.9372  1.7831
  526MOL0     H70980  12.223  10.975  -1.434  1.4269 -1.5419  0.4753
  526MOL0     H70981  12.348  10.994  -1.315  1.8371 -0.6032 -1.4615
  526MOL0     H70982  12.318  11.162  -1.565  2.3435 -1.2465 -1.8074
  526MOL0     H70983  12.396  11.218  -1.424 -1.0824 -0.4579  2.0208
  526MOL0     H70984  12.455  10.944  -1.561  0.2544  0.5656 -1.7683
  526MOL0     H70985  12.541  11.004  -1.419  0.9989 -0.5448  0.2147
  526MOL0     H70986  12.523  11.127  -1.701 -2.2399  3.6972  2.0256
  526MOL0     H70987  12.588  11.221  -1.570  0.4030 -0.5121  1.4839
  526MOL0     H70988  12.786  11.088  -1.546  0.8636  1.7999 -1.0655
  526MOL0     H70989  12.779  11.120  -1.713 -1.2217  1.6583 -0.2487
  526MOL0     H70990  12.649  10.917  -1.759 -2.1316  1.4891  1.0933
  526MOL0     H70991  12.692  10.858  -1.593  2.9069  0.8963  1.6613
  526MOL0     H70992  12.246  10.989  -0.915 -0.0520 -0.4573  1.3040
  526MOL0     H70993  12.144  10.882  -0.694 -3.5211 -6.0956  2.5639
  526MOL0     H70994  11.683  10.688  -0.579 -1.4212 -0.6982  0.9331
  526MOL0     H70995  11.585  10.625  -0.380 -0.2294  1.2358  0.7099
  526MOL0     H70996  10.428   9.678   0.405 -3.3500  0.8376  0.2578
  526MOL0     H70997  10.234   9.549   0.384  0.6330 -0.6748 -1.3961
  526MOL0     H70998  10.056   8.961   0.564  0.0330 -0.1622 -0.2610
  526MOL0     H70999   9.846   8.860   0.455  0.8892 -0.7688 -3.0452
  526MOL0     H71000   9.746   8.770   0.271 -1.2961 -0.5655 -0.8071
  526MOL0     H71001   9.655   8.813   0.413  0.6650  1.7984  1.0877
  526MOL0     H71002   9.565   8.766   0.133 -0.7811  1.3034 -0.3354
  526MOL0     H71003   9.470   8.868   0.244  1.4252  2.4196  1.9612
  526MOL0     H71004   9.371   8.643   0.242 -1.5959  4.7956  0.6042
  526MOL0     H71005   9.445   8.669   0.401  0.9887  1.0018  0.3401
  526MOL0     H71006   9.654   8.563   0.342  1.3539  0.8618 -0.8552
  526MOL0     H71007   9.589   8.526   0.177 -1.2761  0.8135  0.0102
  526MOL0     H71008   9.440   8.208   0.386  2.0105  0.1381  1.2668
  526MOL0     H71009   9.779   9.234   0.248  3.1103  2.4167  0.1009
  526MOL0     H71010   9.985   9.314   0.346 -1.2201  0.2687 -0.6955
  527MOL0     O71011  10.050   0.587   4.520 -0.8530 -0.2389 -0.6588
  527MOL0     C71012  10.165   0.549   4.552 -0.3284 -1.4402  0.1448
  527MOL0     O71013  10.195   0.453   4.641  0.2873  0.2940  0.5837
  527MOL0     C71014  10.098   0.387   4.710  0.4687  0.3263 -0.1527
  527MOL0     C71015  10.151   0.300   4.805  0.1611  0.4139  0.1566
  527MOL0     C71016  10.077   0.213   4.888 -0.6992 -1.1145  0.5310
  527MOL0     C71017   9.938   0.217   4.870  0.1181 -0.3177  0.5450
  527MOL0     O71018   9.849   0.127   4.927  0.3985 -0.2414  0.0453
  527MOL0     C71019   9.878   0.024   5.016 -0.0920  0.0184  0.3938
  527MOL0     C71020   9.752  -0.048   5.041  0.8316  0.3445  0.3463
  527MOL0     C71021   9.766  -0.168   5.131  0.4241  0.8945 -0.3934
  527MOL0     C71022   9.848  -0.147   5.263 -0.8364 -0.4657 -0.8649
  527MOL0     C71023   9.766  -0.196   5.380  0.3561  0.6184  0.7924
  527MOL0     C71024   9.658  -0.087   5.439  0.3225 -0.1738  0.1445
  527MOL0     C71025   9.711  -0.018   5.563 -0.0808  0.0473  0.3911
  527MOL0     C71026   9.602   0.065   5.638  1.1513  0.4581 -0.4288
  527MOL0     N71027   9.530  -0.015   5.736  0.3303 -0.6830  0.0308
  527MOL0     C71028   9.392  -0.007   5.761 -0.5907 -0.2466 -0.4769
  527MOL0     C71029   9.370  -0.105   5.856 -0.1097 -0.3325 -0.2412
  527MOL0     C71030   9.230  -0.152   5.897 -0.3474 -0.3314  0.0739
  527MOL0     C71031   9.217  -0.301   5.884  0.9478  0.9311  0.0363
  527MOL0     C71032   9.243  -0.343   5.734 -0.4008 -0.9067  0.2355
  527MOL0     C71033   9.192  -0.483   5.705 -0.2418  0.1689 -0.0741
  527MOL0     O71034   9.259  -0.582   5.789 -0.4594  0.6684 -0.2181
  527MOL0     C71035   9.197  -0.647   5.897 -1.2661  0.3770 -0.2318
  527MOL0     C71036   9.287  -0.696   5.979  0.9413  0.2562 -0.7007
  527MOL0     C71037   9.251  -0.776   6.090 -0.5564 -0.7373  0.0864
  527MOL0     C71038   9.384  -0.823   6.169  0.6581  0.0741 -0.2756
  527MOL0     C71039   9.117  -0.791   6.125 -0.4217  0.3370  0.2215
  527MOL0     C71040   9.071  -0.872   6.251  0.5480  0.9500  0.8312
  527MOL0     O71041   8.934  -0.880   6.271 -0.2778  0.6828  0.2338
  527MOL0     C71042   8.887  -0.934   6.390  0.4179  0.1848  0.9758
  527MOL0     C71043   8.933  -0.893   6.519  0.8319  0.5154 -0.7148
  527MOL0     C71044   8.861  -0.951   6.637  0.1303  0.9409 -0.3853
  527MOL0     C71045   8.753  -1.043   6.632  1.1801  0.0053 -0.3619
  527MOL0     O71046   8.701  -1.101   6.747  0.1948 -0.0752  0.1068
  527MOL0     C71047   8.560  -1.081   6.772 -0.6427 -0.5127  0.5553
  527MOL0     C71048   8.490  -1.209   6.834  0.2217  0.2834  0.2242
  527MOL0     C71049   8.346  -1.173   6.882 -0.3121  0.4078 -0.3043
  527MOL0     C71050   8.264  -1.295   6.938  0.7600 -0.0411  0.4668
  527MOL0     C71051   8.129  -1.261   7.008 -0.1167 -0.4220 -0.7056
  527MOL0     C71052   8.042  -1.168   6.924 -0.1395 -0.2262  0.7394
  527MOL0     C71053   7.928  -1.122   7.014 -0.0253 -0.2526  1.3582
  527MOL0     C71054   7.808  -1.075   6.928  0.3870  0.2810 -0.1387
  527MOL0    Cl71055   7.858  -0.952   6.813  0.3022 -0.3706  0.3288
  527MOL0     C71056   8.706  -1.081   6.504 -0.3667 -0.4012  1.2738
  527MOL0     C71057   8.773  -1.027   6.390  0.4004  0.1362  0.1699
  527MOL0     O71058   9.148  -0.930   6.317  0.0885  0.0978 -0.1496
  527MOL0     C71059   9.022  -0.749   6.031  0.9566  0.0012  0.7702
  527MOL0     C71060   9.061  -0.676   5.914  0.0737 -0.0122 -0.1102
  527MOL0     N71061   9.493  -0.161   5.893 -0.0754 -0.7985 -0.0388
  527MOL0     N71062   9.583  -0.098   5.827 -0.6833  0.1021  0.5662
  527MOL0     C71063   9.882   0.297   4.769 -0.1463 -0.2713  0.1221
  527MOL0     C71064   9.962   0.378   4.685 -0.2616  0.5702  0.9819
  527MOL0     C71065  10.284   0.630   4.496 -0.0027  0.3863  0.5390
  527MOL0     C71066  10.256   0.739   4.415 -0.6227  0.8896 -0.1410
  527MOL0     C71067  10.361   0.821   4.368  0.3567 -0.1523 -0.4386
  527MOL0     C71068  10.491   0.779   4.387  0.5086  0.6248 -0.3572
  527MOL0     O71069  10.604   0.847   4.350  0.6718  0.5652  0.4704
  527MOL0     C71070  10.594   0.946   4.245 -0.9162 -0.0791  0.2291
  527MOL0     C71071  10.734   0.966   4.184 -0.4961 -0.3728  0.5675
  527MOL0     C71072  10.735   1.032   4.041  0.9450  0.6132 -0.7414
  527MOL0     C71073  10.872   1.072   3.988  0.6648  0.3134  0.2502
  527MOL0     C71074  10.865   1.153   3.859 -0.0558 -0.3661 -0.1095
  527MOL0     C71075  10.877   1.205   3.755  0.3163  1.2519  1.0499
  527MOL0     C71076  10.518   0.669   4.472 -0.2277 -0.0477 -0.3743
  527MOL0     C71077  10.414   0.594   4.524 -0.0608  0.5266  0.2779
  527MOL0     H71078  10.259   0.305   4.812  0.1053  0.7270  0.9013
  527MOL0     H71079  10.123   0.152   4.965  0.3067 -1.6035 -0.4372
  527MOL0     H71080   9.959  -0.041   4.983 -0.3759 -0.7457  1.1739
  527MOL0     H71081   9.918   0.070   5.108  0.3863  0.1563  0.1209
  527MOL0     H71082   9.674   0.019   5.081  1.1504  0.9460 -0.0333
  527MOL0     H71083   9.703  -0.086   4.951 -0.1088 -2.5960  1.9760
  527MOL0     H71084   9.666  -0.191   5.170 -0.1214 -0.4861 -2.4807
  527MOL0     H71085   9.805  -0.255   5.079 -1.1096 -1.2104  1.7196
  527MOL0     H71086   9.941  -0.205   5.270 -0.4372  0.4109  2.1704
  527MOL0     H71087   9.881  -0.044   5.281 -1.5326 -0.2730 -0.6934
  527MOL0     H71088   9.715  -0.288   5.349  1.7109 -0.5213  1.7916
  527MOL0     H71089   9.837  -0.222   5.459  1.1813  1.4639  0.3561
  527MOL0     H71090   9.640  -0.017   5.356 -1.0855 -0.6900 -0.0207
  527MOL0     H71091   9.559  -0.133   5.449 -0.1578  1.0496  1.2772
  527MOL0     H71092   9.757  -0.095   5.626 -2.7439 -1.0948  1.1102
  527MOL0     H71093   9.790   0.055   5.542 -0.2606  0.3332  0.7005
  527MOL0     H71094   9.529   0.110   5.571  1.8905  2.9046  0.2947
  527MOL0     H71095   9.638   0.146   5.701 -1.0634 -0.4170  2.1526
  527MOL0     H71096   9.321   0.060   5.712 -0.2653  1.2313  0.9838
  527MOL0     H71097   9.206  -0.126   6.000 -0.1769 -3.3993  0.9742
  527MOL0     H71098   9.150  -0.105   5.839 -2.5032 -1.1240  2.2308
  527MOL0     H71099   9.119  -0.323   5.927  1.2484  2.8379  1.8543
  527MOL0     H71100   9.281  -0.360   5.950 -0.6201 -1.4168 -0.4445
  527MOL0     H71101   9.347  -0.337   5.700  0.3455  2.1114  2.5720
  527MOL0     H71102   9.204  -0.276   5.657  1.1268 -2.9747 -2.5108
  527MOL0     H71103   9.221  -0.504   5.602  0.0020 -0.3649  0.1058
  527MOL0     H71104   9.082  -0.484   5.712 -0.1732  1.0619  2.0119
  527MOL0     H71105   9.390  -0.663   5.975  0.6690  0.9812 -2.6119
  527MOL0     H71106   9.403  -0.783   6.269  1.4640 -0.3341 -0.2508
  527MOL0     H71107   9.368  -0.931   6.183  3.7174 -0.2554  1.5326
  527MOL0     H71108   9.476  -0.811   6.111  0.8672  3.1843  0.5474
  527MOL0     H71109   9.015  -0.822   6.510  1.3462 -0.2538 -2.3684
  527MOL0     H71110   8.883  -0.899   6.729 -0.8157 -1.9954  1.6675
  527MOL0     H71111   8.549  -0.987   6.826 -3.0278 -0.5068  0.1785
  527MOL0     H71112   8.511  -1.062   6.676  2.7459 -0.6475 -1.3433
  527MOL0     H71113   8.486  -1.291   6.762 -3.3605 -1.5111  2.2209
  527MOL0     H71114   8.549  -1.247   6.919 -1.9578 -0.9449  1.2574
  527MOL0     H71115   8.294  -1.135   6.794 -2.3474 -1.4727 -0.0213
  527MOL0     H71116   8.346  -1.093   6.957 -2.0762  0.3736 -0.2121
  527MOL0     H71117   8.250  -1.363   6.854  0.8955  1.0209 -0.4380
  527MOL0     H71118   8.322  -1.351   7.012 -1.6718 -0.3361  2.3076
  527MOL0     H71119   8.159  -1.206   7.097  3.0574  0.2277 -2.0273
  527MOL0     H71120   8.081  -1.353   7.043 -1.4037  1.1621  1.9494
  527MOL0     H71121   8.104  -1.086   6.887  4.0218 -2.3900  2.1942
  527MOL0     H71122   8.004  -1.225   6.839 -0.1269  0.2795  0.3878
  527MOL0     H71123   7.966  -1.042   7.079  0.2375  0.3473  0.4892
  527MOL0     H71124   7.906  -1.212   7.071  0.2999  0.6803  3.0125
  527MOL0     H71125   7.738  -1.024   6.995  1.4515  0.2603  1.0169
  527MOL0     H71126   7.762  -1.156   6.871 -0.7845 -0.7514  2.1220
  527MOL0     H71127   8.634  -1.161   6.489  1.3836 -1.9502  0.5990
  527MOL0     H71128   8.731  -1.048   6.293  1.3205  0.2199 -0.2543
  527MOL0     H71129   8.918  -0.778   6.041  1.6095 -4.1909 -1.9331
  527MOL0     H71130   8.982  -0.644   5.846 -1.5647 -2.9931  0.2101
  527MOL0     H71131   9.774   0.285   4.765  0.0662 -2.3505 -0.3493
  527MOL0     H71132   9.913   0.439   4.609  1.3837  0.0557 -0.5594
  527MOL0     H71133  10.153   0.774   4.406 -1.2515 -0.4855  1.2616
  527MOL0     H71134  10.334   0.919   4.331 -0.0281  0.1640  0.6457
  527MOL0     H71135  10.531   0.908   4.164 -2.3016  0.9686  0.7896
  527MOL0     H71136  10.556   1.039   4.288  0.3684  1.2770 -1.4837
  527MOL0     H71137  10.797   0.878   4.168 -1.4007 -0.6886 -1.6128
  527MOL0     H71138  10.777   1.022   4.267 -0.6924 -3.1640  2.6816
  527MOL0     H71139  10.658   1.109   4.044  1.8840  1.6106 -1.5955
  527MOL0     H71140  10.693   0.959   3.971 -0.6051 -0.1279  0.8694
  527MOL0     H71141  10.935   0.986   3.962 -1.0944 -0.7049 -0.9202
  527MOL0     H71142  10.917   1.131   4.068  0.9877 -2.1707  2.0105
  527MOL0     H71143  10.905   1.259   3.667 -3.8806  1.6774 -0.2439
  527MOL0     H71144  10.621   0.635   4.465 -0.6744 -1.2255 -1.9336
  527MOL0     H71145  10.441   0.509   4.586 -1.2187  0.8208  1.2357
  528MOL0     O71146   3.535   2.205   7.834 -0.4471  0.1959 -0.1926
  528MOL0     C71147   3.602   2.291   7.893  0.4323  0.6396 -0.7512
  528MOL0     O71148   3.559   2.370   7.995 -0.5666  0.2235  0.0655
  528MOL0     C71149   3.425   2.396   8.011  0.0657 -0.5170  0.6680
  528MOL0     C71150   3.347   2.283   8.034  0.0961 -0.9475  0.6684
  528MOL0     C71151   3.211   2.290   8.060 -0.9351  0.2022  0.2682
  528MOL0     C71152   3.151   2.415   8.064  0.1455 -0.4002  0.6581
  528MOL0     O71153   3.014   2.406   8.084  0.1733  0.1345  0.4736
  528MOL0     C71154   2.942   2.528   8.116  0.0903  0.0720  0.6980
  528MOL0     C71155   2.818   2.518   8.035  0.5072 -0.5211  0.2912
  528MOL0     C71156   2.725   2.406   8.087  0.1401 -0.6619 -0.1527
  528MOL0     C71157   2.596   2.391   8.003  0.2943 -0.4922  0.1507
  528MOL0     C71158   2.488   2.502   8.031 -0.3366 -0.1854  0.5908
  528MOL0     C71159   2.348   2.446   7.998  0.5922  0.2206  0.5959
  528MOL0     C71160   2.254   2.562   8.004  0.6481  0.4679 -0.0199
  528MOL0     C71161   2.109   2.513   7.985  0.7563 -0.8513  0.2359
  528MOL0     N71162   2.057   2.450   8.117  0.4039  0.2729  0.6948
  528MOL0     C71163   2.069   2.320   8.156 -0.1154  0.5190  0.6567
  528MOL0     C71164   2.036   2.306   8.282  1.4761 -0.2570 -1.0068
  528MOL0     C71165   2.015   2.187   8.369  0.0956 -0.6211  0.5752
  528MOL0     C71166   2.096   2.191   8.499  0.2182 -1.2115 -0.1730
  528MOL0     C71167   2.088   2.061   8.580 -0.0752 -0.3901 -0.0102
  528MOL0     C71168   2.159   2.070   8.724  1.0184  0.9609  0.0069
  528MOL0     O71169   2.122   1.949   8.792  0.4429  0.1413  0.4557
  528MOL0     C71170   2.178   1.823   8.777  0.0438 -0.5661 -0.0720
  528MOL0     C71171   2.284   1.801   8.687 -0.4356 -0.1923 -0.1638
  528MOL0     C71172   2.354   1.682   8.685 -0.6675  0.4655  0.0713
  528MOL0     C71173   2.463   1.662   8.584 -1.1328 -0.2238  0.3435
  528MOL0     C71174   2.319   1.577   8.776 -0.1395  0.7730 -0.5658
  528MOL0     C71175   2.395   1.446   8.789 -0.1551 -0.4702  0.2767
  528MOL0     O71176   2.370   1.371   8.900  0.2353 -0.0578  0.0005
  528MOL0     C71177   2.394   1.239   8.926  0.4708  0.2165  0.1437
  528MOL0     C71178   2.401   1.134   8.828  0.8249 -0.1547  0.3487
  528MOL0     C71179   2.421   1.001   8.868  0.3708 -0.5404  0.3653
  528MOL0     C71180   2.438   0.968   9.003  0.3148 -0.6161  0.8420
  528MOL0     O71181   2.474   0.848   9.051  0.2481  0.4882 -0.4281
  528MOL0     C71182   2.479   0.735   8.965  0.3055 -0.4258  0.6647
  528MOL0     C71183   2.509   0.597   9.029 -0.2576 -0.1570  0.2202
  528MOL0     C71184   2.462   0.480   8.949 -0.1763  0.3111 -0.3015
  528MOL0     C71185   2.487   0.339   9.010  0.1906  0.0251  0.0806
  528MOL0     C71186   2.456   0.227   8.910  0.0483 -0.4929  0.6221
  528MOL0     C71187   2.507   0.094   8.963  0.0429 -0.3234 -0.5071
  528MOL0     C71188   2.504   0.000   8.842  0.3272  0.8004 -0.0081
  528MOL0     C71189   2.491  -0.140   8.906  0.1708  0.6550  1.0565
  528MOL0    Cl71190   2.651  -0.189   8.970 -0.0681 -0.2253 -0.3575
  528MOL0     C71191   2.428   1.063   9.094  0.0123  1.3315 -0.3911
  528MOL0     C71192   2.406   1.189   9.066 -0.2526 -1.2585  0.1224
  528MOL0     O71193   2.467   1.402   8.700 -0.2807 -0.0605  0.0782
  528MOL0     C71194   2.204   1.595   8.855 -0.0690  0.1415  0.1845
  528MOL0     C71195   2.139   1.718   8.855 -0.4605  0.1010 -0.4192
  528MOL0     N71196   2.020   2.432   8.328 -0.1460 -0.4653 -0.4963
  528MOL0     N71197   2.036   2.520   8.235 -0.2731  0.6311  0.2611
  528MOL0     C71198   3.226   2.534   8.041 -0.2168  0.0650 -0.7551
  528MOL0     C71199   3.366   2.524   8.013  0.6268 -0.2376 -0.3511
  528MOL0     C71200   3.746   2.306   7.855  0.0213 -0.2917 -0.4606
  528MOL0     C71201   3.822   2.421   7.890 -0.0662 -0.3420 -1.3090
  528MOL0     C71202   3.951   2.439   7.842 -1.4045 -0.5729 -0.1928
  528MOL0     C71203   4.021   2.337   7.763  0.3736  0.1651  0.1645
  528MOL0     O71204   4.140   2.345   7.704  0.4345 -0.0488  0.3635
  528MOL0     C71205   4.224   2.230   7.716 -0.5809 -0.6734 -0.6799
  528MOL0     C71206   4.366   2.283   7.694 -0.0499 -0.3450 -0.4277
  528MOL0     C71207   4.472   2.178   7.745 -0.6336  0.5208  0.6093
  528MOL0     C71208   4.474   2.122   7.892 -0.2024 -0.7388 -0.0485
  528MOL0     C71209   4.555   2.001   7.900 -0.1928 -0.7482 -0.1351
  528MOL0     C71210   4.617   1.903   7.915 -1.1016 -0.3961  0.5596
  528MOL0     C71211   3.947   2.221   7.740  0.9446  0.1084  0.0737
  528MOL0     C71212   3.812   2.206   7.781  0.1728 -0.8156  0.4748
  528MOL0     H71213   3.394   2.186   8.051 -0.0234 -1.2800 -0.8349
  528MOL0     H71214   3.149   2.201   8.067  1.4483 -1.4463  1.9691
  528MOL0     H71215   2.915   2.535   8.222 -1.4293 -2.1750  0.5237
  528MOL0     H71216   2.972   2.627   8.083 -2.5289  1.0608  1.0171
  528MOL0     H71217   2.761   2.610   8.046 -0.6581 -1.1568 -0.2028
  528MOL0     H71218   2.853   2.510   7.932  2.8064  0.2226  0.9484
  528MOL0     H71219   2.771   2.307   8.087  0.7577 -0.3826  0.7420
  528MOL0     H71220   2.689   2.437   8.186  0.5591  1.5012 -0.6123
  528MOL0     H71221   2.627   2.369   7.900  3.3511  1.0068  0.6421
  528MOL0     H71222   2.559   2.294   8.038 -0.1617  0.1126  1.4143
  528MOL0     H71223   2.491   2.520   8.138 -1.3959  1.5159  0.3775
  528MOL0     H71224   2.513   2.588   7.967  3.8508 -1.0826  0.7168
  528MOL0     H71225   2.344   2.391   7.904  2.1572  0.5807  0.2855
  528MOL0     H71226   2.313   2.375   8.074  0.1289 -0.2566 -0.0522
  528MOL0     H71227   2.278   2.612   8.098  2.6190  0.2908 -0.3806
  528MOL0     H71228   2.271   2.621   7.913 -2.6922 -0.3726 -1.3114
  528MOL0     H71229   2.108   2.439   7.904 -1.0375 -0.8137  0.1873
  528MOL0     H71230   2.049   2.600   7.958  2.5755  0.4424  0.1558
  528MOL0     H71231   2.077   2.233   8.091 -1.6941 -2.0257  3.5734
  528MOL0     H71232   1.909   2.172   8.393  0.0415  0.4514  1.0581
  528MOL0     H71233   2.043   2.097   8.313 -1.3138 -1.5105  1.2302
  528MOL0     H71234   2.050   2.265   8.565 -0.7339 -0.6704 -1.3899
  528MOL0     H71235   2.201   2.211   8.478  0.3462 -0.6671  0.9448
  528MOL0     H71236   2.143   1.991   8.516  2.6457 -0.4769  2.2554
  528MOL0     H71237   1.981   2.041   8.592 -0.6836  0.5219 -3.1141
  528MOL0     H71238   2.124   2.158   8.779 -3.0858 -0.2675 -0.3611
  528MOL0     H71239   2.267   2.078   8.708  1.3369 -3.2774 -1.1684
  528MOL0     H71240   2.301   1.878   8.612 -2.6403 -0.2903 -0.8361
  528MOL0     H71241   2.488   1.758   8.537 -0.9191  0.4442  1.7494
  528MOL0     H71242   2.548   1.617   8.635 -1.3892 -0.9727  0.1175
  528MOL0     H71243   2.430   1.590   8.509  5.5100 -2.1758 -1.3630
  528MOL0     H71244   2.394   1.152   8.721  4.0931  1.5322  0.2875
  528MOL0     H71245   2.437   0.931   8.786 -1.3844  1.5719 -1.9509
  528MOL0     H71246   2.391   0.728   8.901  1.6327  0.6574 -1.4211
  528MOL0     H71247   2.557   0.757   8.891 -1.6073 -0.0895 -1.3425
  528MOL0     H71248   2.617   0.590   9.043  0.2189  1.5431 -2.0881
  528MOL0     H71249   2.466   0.602   9.129  0.7673 -1.2931  0.7441
  528MOL0     H71250   2.515   0.463   8.855  0.1782 -0.3236  0.0073
  528MOL0     H71251   2.356   0.495   8.926 -0.7302  0.1489  1.9628
  528MOL0     H71252   2.588   0.336   9.053  0.6066 -1.4017 -0.9299
  528MOL0     H71253   2.412   0.333   9.089 -0.4032 -0.9228 -0.5386
  528MOL0     H71254   2.515   0.242   8.819  1.6384 -1.7919  1.3882
  528MOL0     H71255   2.350   0.224   8.882 -0.8024  4.0961  2.5214
  528MOL0     H71256   2.611   0.105   8.997  0.5743 -2.6535 -1.1275
  528MOL0     H71257   2.444   0.060   9.046  1.1473 -2.2358 -0.3813
  528MOL0     H71258   2.595   0.004   8.781 -0.0673 -1.1942 -0.7933
  528MOL0     H71259   2.417   0.018   8.778  1.5121  2.8656 -1.1478
  528MOL0     H71260   2.461  -0.215   8.831 -1.6395 -0.5370  2.8470
  528MOL0     H71261   2.408  -0.150   8.977 -2.2365 -2.3019 -1.8460
  528MOL0     H71262   2.432   1.027   9.197  2.3016  0.7627 -0.6131
  528MOL0     H71263   2.383   1.266   9.139  2.7454 -1.4850  1.4709
  528MOL0     H71264   2.151   1.516   8.907  0.1489  1.0221  1.7796
  528MOL0     H71265   2.061   1.737   8.928  0.6356  4.4047 -0.1301
  528MOL0     H71266   3.186   2.630   8.071 -0.0761  0.0362 -0.4693
  528MOL0     H71267   3.411   2.621   7.997 -1.1450  1.0060  1.7589
  528MOL0     H71268   3.773   2.495   7.952 -1.4350 -1.6460 -0.7870
  528MOL0     H71269   3.994   2.534   7.873 -2.1891  0.1652 -1.2913
  528MOL0     H71270   4.198   2.184   7.811 -1.1793 -0.7140 -0.8587
  528MOL0     H71271   4.185   2.167   7.635 -0.4536 -2.2837  0.4802
  528MOL0     H71272   4.377   2.373   7.755  2.3816 -0.8124 -0.0785
  528MOL0     H71273   4.389   2.302   7.589  0.8386 -1.6002 -0.4778
  528MOL0     H71274   4.577   2.200   7.725 -1.0605  3.9285  1.5005
  528MOL0     H71275   4.461   2.099   7.670  0.4068  1.2810 -0.3679
  528MOL0     H71276   4.378   2.091   7.934 -0.6883 -2.2048 -2.0685
  528MOL0     H71277   4.522   2.191   7.961 -0.8693 -2.5136  2.3593
  528MOL0     H71278   4.689   1.824   7.920  2.1641  2.2912 -0.2947
  528MOL0     H71279   3.974   2.139   7.674  1.3816 -0.6264  1.1298
  528MOL0     H71280   3.747   2.129   7.740 -0.8141 -0.0448  0.5496
  529MOL0     O71281   2.515   1.123   7.768 -0.4060 -0.6936 -0.3637
  529MOL0     C71282   2.391   1.128   7.754 -0.8090  0.1496  0.9872
  529MOL0     O71283   2.318   1.245   7.751  1.1907  0.0826  0.3038
  529MOL0     C71284   2.365   1.370   7.751  0.4315 -0.4393  0.2117
  529MOL0     C71285   2.498   1.409   7.732 -0.1760 -0.8118  0.0457
  529MOL0     C71286   2.532   1.547   7.726  0.3231 -1.4130  0.4404
  529MOL0     C71287   2.437   1.653   7.744 -0.3189  0.0076  0.0973
  529MOL0     O71288   2.485   1.782   7.733 -0.3050  0.2809  0.4769
  529MOL0     C71289   2.416   1.880   7.656  0.4737 -0.0585  0.0049
  529MOL0     C71290   2.521   1.980   7.589 -0.1034 -0.2086 -1.0989
  529MOL0     C71291   2.579   2.065   7.721  0.4228  0.1091 -0.7968
  529MOL0     C71292   2.693   2.148   7.680  0.0593  0.3413  0.1726
  529MOL0     C71293   2.808   2.062   7.659  0.1191 -0.3100 -0.7101
  529MOL0     C71294   2.876   2.014   7.792 -0.7884  0.2498 -0.6529
  529MOL0     C71295   3.005   1.947   7.759  0.2457  0.7359 -0.1803
  529MOL0     C71296   2.980   1.802   7.726 -0.4221  0.0086 -0.5087
  529MOL0     N71297   2.930   1.771   7.594 -0.4697  0.2278 -0.1642
  529MOL0     C71298   2.996   1.793   7.467  0.8740 -0.1302  0.3240
  529MOL0     C71299   2.928   1.721   7.381 -0.6139  0.5148 -0.0354
  529MOL0     C71300   2.969   1.678   7.240  0.0412 -0.4730  0.0573
  529MOL0     C71301   3.112   1.618   7.240  0.2211 -0.3247 -0.1181
  529MOL0     C71302   3.125   1.481   7.317  0.2923  1.2558  1.1404
  529MOL0     C71303   3.034   1.376   7.244 -0.0937 -0.3057  0.5681
  529MOL0     O71304   3.072   1.240   7.277 -0.3548 -1.4227  0.3401
  529MOL0     C71305   2.999   1.142   7.220  0.5382 -0.1426  1.1408
  529MOL0     C71306   2.890   1.158   7.132 -0.7704 -0.0022 -0.0909
  529MOL0     C71307   2.813   1.047   7.095 -0.5280  0.9450  0.4105
  529MOL0     C71308   2.698   1.081   7.008  0.5041 -0.2446 -0.2819
  529MOL0     C71309   2.840   0.909   7.134  0.6313  0.4485  0.5447
  529MOL0     C71310   2.776   0.789   7.082  0.3539 -0.7152 -0.0001
  529MOL0     O71311   2.719   0.799   6.958 -0.0780 -0.0710 -0.2059
  529MOL0     C71312   2.632   0.709   6.912  0.7920 -0.0340 -0.3383
  529MOL0     C71313   2.672   0.575   6.894  2.0000  0.0789  0.0798
  529MOL0     C71314   2.584   0.492   6.824 -0.0560  0.5867 -0.9858
  529MOL0     C71315   2.453   0.538   6.785 -0.2554  0.5852 -0.3151
  529MOL0     O71316   2.367   0.464   6.709 -0.4567  0.6762 -0.2774
  529MOL0     C71317   2.423   0.358   6.639 -0.1794  0.2005 -0.6958
  529MOL0     C71318   2.342   0.274   6.535 -0.3892  0.0897  0.0869
  529MOL0     C71319   2.219   0.218   6.591 -0.1013  0.4374 -0.5095
  529MOL0     C71320   2.195   0.073   6.554 -0.1478 -0.0540 -0.8765
  529MOL0     C71321   2.061   0.030   6.620 -0.9255  0.3789  0.7876
  529MOL0     C71322   2.016  -0.087   6.539  0.8684 -0.3057 -0.3852
  529MOL0     C71323   2.103  -0.216   6.535 -0.6557  0.0410 -0.1740
  529MOL0     C71324   2.037  -0.337   6.468  0.3531 -0.1312 -0.2801
  529MOL0    Cl71325   1.869  -0.361   6.516  0.4691  0.2857  0.2893
  529MOL0     C71326   2.417   0.669   6.803  0.1350 -0.6590 -0.0705
  529MOL0     C71327   2.508   0.756   6.870  0.3677  0.5085  0.7441
  529MOL0     O71328   2.769   0.686   7.148 -0.0974 -0.2699  0.2304
  529MOL0     C71329   2.954   0.896   7.211 -0.5758  0.3821 -2.3509
  529MOL0     C71330   3.018   1.010   7.260 -0.8054 -1.3900 -0.2693
  529MOL0     N71331   2.815   1.671   7.441  0.0750  1.7443 -0.2512
  529MOL0     N71332   2.818   1.700   7.571  0.8544  0.1247  0.0160
  529MOL0     C71333   2.308   1.617   7.760 -0.5935 -0.0017 -0.0308
  529MOL0     C71334   2.271   1.477   7.769  0.0903  0.3118  1.0931
  529MOL0     C71335   2.322   1.000   7.721  0.2796 -0.8340 -0.4635
  529MOL0     C71336   2.391   0.881   7.698  0.0265 -0.9874 -0.5655
  529MOL0     C71337   2.318   0.765   7.677  0.0182 -0.3191 -0.2372
  529MOL0     C71338   2.181   0.758   7.667  0.7054 -0.8640  0.2115
  529MOL0     O71339   2.137   0.638   7.644  0.3037 -0.4563  0.2449
  529MOL0     C71340   1.996   0.606   7.619 -1.0171  0.1432  0.1973
  529MOL0     C71341   1.935   0.575   7.752 -0.6737  0.9034 -0.3510
  529MOL0     C71342   1.970   0.432   7.802  0.4304  0.1976 -0.0172
  529MOL0     C71343   1.925   0.390   7.946 -0.4806  0.1069 -0.3986
  529MOL0     C71344   1.800   0.453   7.988 -0.3827 -0.5599 -0.4747
  529MOL0     C71345   1.686   0.483   8.019  0.3233 -0.4927  1.3731
  529MOL0     C71346   2.111   0.880   7.680 -0.4162  0.2238  0.0532
  529MOL0     C71347   2.187   1.004   7.704 -0.0246  0.1450 -0.6508
  529MOL0     H71348   2.584   1.343   7.725  0.5071  0.1235 -0.7479
  529MOL0     H71349   2.632   1.573   7.693 -0.8264  0.6038 -1.8482
  529MOL0     H71350   2.370   1.827   7.572 -0.6028  3.1455 -1.5864
  529MOL0     H71351   2.330   1.928   7.704  0.0464  1.2973 -2.0162
  529MOL0     H71352   2.589   1.906   7.547 -1.2945 -1.9504 -0.0848
  529MOL0     H71353   2.491   2.042   7.504  1.0370  0.2330 -1.1890
  529MOL0     H71354   2.518   2.145   7.763  2.3156  1.3421 -0.2691
  529MOL0     H71355   2.599   1.995   7.802 -2.7314 -0.9466 -0.7659
  529MOL0     H71356   2.669   2.216   7.597  1.8940  1.0093  0.1401
  529MOL0     H71357   2.719   2.226   7.752 -1.3387  3.3000 -2.2685
  529MOL0     H71358   2.766   1.979   7.602 -1.2840 -0.2410  0.1805
  529MOL0     H71359   2.878   2.125   7.602 -2.8343  2.5769 -1.4402
  529MOL0     H71360   2.901   2.090   7.868  2.9561 -0.7788 -0.6395
  529MOL0     H71361   2.818   1.938   7.845  0.2302  0.2476  0.5227
  529MOL0     H71362   3.056   1.995   7.675 -0.6634  0.1976 -1.0670
  529MOL0     H71363   3.073   1.958   7.844  0.3658  2.1789 -0.4473
  529MOL0     H71364   2.903   1.764   7.793  1.4797 -0.1795  1.6772
  529MOL0     H71365   3.072   1.749   7.751  1.3336  1.7380 -2.7900
  529MOL0     H71366   3.084   1.854   7.456  0.1910  0.6965 -0.7653
  529MOL0     H71367   2.890   1.608   7.210 -1.6802  1.9959 -1.5959
  529MOL0     H71368   2.965   1.760   7.167  0.5774 -2.8645 -2.8491
  529MOL0     H71369   3.181   1.688   7.287 -1.2601 -1.0086  3.4248
  529MOL0     H71370   3.148   1.615   7.137  0.6014 -0.5362  0.0200
  529MOL0     H71371   3.097   1.498   7.421 -1.7618  0.5278  0.7575
  529MOL0     H71372   3.225   1.438   7.305 -1.2542 -2.4492  0.1404
  529MOL0     H71373   3.024   1.398   7.137  1.9353 -3.1397 -0.3332
  529MOL0     H71374   2.931   1.385   7.280 -0.1893  1.9815 -0.1213
  529MOL0     H71375   2.851   1.251   7.091 -3.0245  0.6006  3.0309
  529MOL0     H71376   2.701   1.015   6.920  0.1976 -2.5337  1.3196
  529MOL0     H71377   2.606   1.049   7.057  0.3650 -1.6932 -1.4166
  529MOL0     H71378   2.684   1.187   6.987  0.9885 -0.7982 -4.2948
  529MOL0     H71379   2.761   0.539   6.945  0.4661 -0.7434  2.3555
  529MOL0     H71380   2.612   0.388   6.810 -1.2499  0.0165  0.5990
  529MOL0     H71381   2.510   0.400   6.588 -0.3668  2.5432  0.7608
  529MOL0     H71382   2.453   0.278   6.708 -1.8026 -1.9556 -2.3372
  529MOL0     H71383   2.325   0.354   6.462 -0.6855 -0.7442 -0.7765
  529MOL0     H71384   2.410   0.196   6.500  0.5904  0.9017  0.1287
  529MOL0     H71385   2.135   0.279   6.556 -0.4636  1.3244  1.6998
  529MOL0     H71386   2.221   0.224   6.700 -1.5377 -1.9830 -0.2640
  529MOL0     H71387   2.201   0.056   6.446  2.5230  0.3793 -0.8542
  529MOL0     H71388   2.268   0.003   6.594 -0.4218 -0.5086 -1.1618
  529MOL0     H71389   1.994   0.117   6.618 -2.5459 -0.8158 -0.1536
  529MOL0     H71390   2.079  -0.001   6.723 -2.5958 -0.4371  0.8638
  529MOL0     H71391   1.917  -0.120   6.571  0.8661 -1.3885 -1.4120
  529MOL0     H71392   1.999  -0.050   6.438  2.0648 -2.5492 -1.4849
  529MOL0     H71393   2.126  -0.249   6.636 -0.6390  0.7489  0.0574
  529MOL0     H71394   2.194  -0.194   6.479 -0.7968  3.1486  0.6818
  529MOL0     H71395   2.087  -0.427   6.504  0.9390  1.1109  2.2103
  529MOL0     H71396   2.057  -0.316   6.362  0.3054  1.9778  0.0836
  529MOL0     H71397   2.318   0.701   6.773 -1.4278 -1.3606  3.7309
  529MOL0     H71398   2.479   0.859   6.891  0.7650  0.5945  0.8824
  529MOL0     H71399   3.007   0.805   7.234 -2.1597 -0.9680 -3.8118
  529MOL0     H71400   3.104   1.008   7.327 -1.4299 -1.3706  0.5591
  529MOL0     H71401   2.236   1.694   7.782 -0.1308  0.1919  0.8734
  529MOL0     H71402   2.165   1.456   7.783  0.4302 -2.5135 -0.0008
  529MOL0     H71403   2.499   0.876   7.689 -0.0650 -1.2394 -1.6780
  529MOL0     H71404   2.383   0.679   7.663  1.5657  0.8183 -0.2669
  529MOL0     H71405   1.944   0.688   7.568 -1.4915  0.6143  1.3972
  529MOL0     H71406   1.993   0.513   7.562  1.8882  0.5402 -0.8134
  529MOL0     H71407   1.827   0.575   7.734 -0.8191 -1.4173  0.2164
  529MOL0     H71408   1.965   0.650   7.825  1.6233  1.2198 -1.5346
  529MOL0     H71409   2.077   0.421   7.783 -0.0329 -2.5591 -1.4873
  529MOL0     H71410   1.924   0.356   7.739 -0.7560 -0.5623  1.6781
  529MOL0     H71411   2.011   0.399   8.014 -1.6093  1.7415  0.9114
  529MOL0     H71412   1.907   0.282   7.950 -1.4624  0.1975 -1.8095
  529MOL0     H71413   1.583   0.488   8.051 -0.2518  1.0083 -0.5305
  529MOL0     H71414   2.003   0.873   7.674 -0.8328  2.4627  2.7426
  529MOL0     H71415   2.139   1.098   7.730 -0.3492 -0.5499  1.4206
  530MOL0     O71416   6.046   3.290   9.091  0.1483 -0.0045  0.2984
  530MOL0     C71417   6.165   3.314   9.116  0.1993 -0.2622  0.1291
  530MOL0     O71418   6.267   3.267   9.042 -0.2285 -0.3833 -0.0528
  530MOL0     C71419   6.249   3.201   8.920 -0.0176 -0.2379 -1.1631
  530MOL0     C71420   6.330   3.090   8.903  0.1832  0.8699  0.6713
  530MOL0     C71421   6.309   3.005   8.790  0.7115 -0.6363  1.0593
  530MOL0     C71422   6.215   3.042   8.686  0.0506  0.6546  0.6670
  530MOL0     O71423   6.203   2.970   8.562  0.2067 -0.6762  0.0913
  530MOL0     C71424   6.219   2.829   8.577 -0.2197  0.8459  0.1882
  530MOL0     C71425   6.173   2.765   8.453  0.5419  0.0507  0.5422
  530MOL0     C71426   6.198   2.604   8.438  0.4377 -0.6999  0.2689
  530MOL0     C71427   6.346   2.570   8.403 -0.1414 -0.1114  0.6599
  530MOL0     C71428   6.351   2.421   8.388 -0.1730  0.3485  0.2042
  530MOL0     C71429   6.467   2.370   8.294 -0.2267 -0.6337  0.5639
  530MOL0     C71430   6.477   2.214   8.292 -0.8348 -0.3512 -0.2782
  530MOL0     C71431   6.568   2.169   8.171  0.8293  0.3031 -0.3239
  530MOL0     N71432   6.653   2.056   8.213 -0.7567 -0.0865 -0.3838
  530MOL0     C71433   6.602   1.933   8.232  1.5868  0.2959 -1.0786
  530MOL0     C71434   6.690   1.870   8.316  0.2993  0.9688  0.3053
  530MOL0     C71435   6.674   1.733   8.378  0.0765  0.4812  0.5205
  530MOL0     C71436   6.727   1.624   8.283  0.6157  0.0105 -0.3304
  530MOL0     C71437   6.638   1.599   8.168  0.3079 -0.5842 -0.1893
  530MOL0     C71438   6.702   1.497   8.075  0.4204 -0.7121 -0.1004
  530MOL0     O71439   6.645   1.373   8.107 -0.3947  0.2168 -0.6972
  530MOL0     C71440   6.732   1.263   8.095  0.5875  0.4156  0.2404
  530MOL0     C71441   6.703   1.149   8.169 -0.0860 -0.0449 -0.3695
  530MOL0     C71442   6.769   1.025   8.156 -0.0409  0.3475 -0.3015
  530MOL0     C71443   6.717   0.904   8.245  0.0929  0.3554  0.0806
  530MOL0     C71444   6.875   1.018   8.072 -0.9192  0.5389 -0.5213
  530MOL0     C71445   6.968   0.903   8.065  0.9667 -0.0201 -0.1728
  530MOL0     O71446   7.107   0.922   8.043 -0.2422  0.3951  0.6272
  530MOL0     C71447   7.157   0.799   8.012 -0.6582 -0.4609  0.4577
  530MOL0     C71448   7.268   0.752   8.083 -0.0892  1.2635 -0.0051
  530MOL0     C71449   7.330   0.631   8.052 -0.7373  0.0627 -0.1956
  530MOL0     C71450   7.282   0.564   7.938  0.3772  0.6037 -0.1878
  530MOL0     O71451   7.327   0.448   7.886 -0.0722  0.8055 -0.4029
  530MOL0     C71452   7.449   0.389   7.942  0.2524 -0.0618 -0.4782
  530MOL0     C71453   7.475   0.254   7.874 -0.3462  0.3579 -0.7478
  530MOL0     C71454   7.605   0.198   7.933  0.0052  0.2299  0.3514
  530MOL0     C71455   7.718   0.164   7.830 -0.0317 -0.6036 -0.9399
  530MOL0     C71456   7.842   0.128   7.897 -0.4962  0.1204 -0.6628
  530MOL0     C71457   7.835   0.004   7.983 -0.1291  0.1659  1.1465
  530MOL0     C71458   7.968  -0.021   8.053 -0.1342 -0.5049  0.0933
  530MOL0     C71459   7.972  -0.154   8.124 -0.3598 -0.9817 -0.2360
  530MOL0    Cl71460   8.122  -0.197   8.209 -0.4725  0.1270 -0.2798
  530MOL0     C71461   7.165   0.601   7.868  0.2236 -0.1218 -1.0788
  530MOL0     C71462   7.106   0.722   7.906 -0.3101  0.0590  0.0983
  530MOL0     O71463   6.907   0.792   8.081 -0.1559 -0.7049 -0.4353
  530MOL0     C71464   6.897   1.129   7.991 -1.3572  0.8897 -0.8740
  530MOL0     C71465   6.838   1.258   8.005  0.4034  0.4307  0.3099
  530MOL0     N71466   6.789   1.963   8.349  0.5849  0.2580  0.0783
  530MOL0     N71467   6.761   2.076   8.289  0.1565  0.2644 -0.4706
  530MOL0     C71468   6.145   3.161   8.697 -0.3349 -1.7308 -0.0886
  530MOL0     C71469   6.157   3.241   8.821  0.2646  0.5667 -0.8452
  530MOL0     C71470   6.198   3.379   9.246  0.8624 -0.1010  0.1454
  530MOL0     C71471   6.328   3.425   9.266 -0.7517  0.2325 -0.2528
  530MOL0     C71472   6.358   3.482   9.392  0.6342 -0.5057  0.2711
  530MOL0     C71473   6.276   3.463   9.497 -0.0559  0.0772  0.2314
  530MOL0     O71474   6.336   3.501   9.613  0.0871 -0.6062  0.0419
  530MOL0     C71475   6.273   3.485   9.738 -0.3602 -0.0823 -0.0258
  530MOL0     C71476   6.337   3.577   9.840  0.1460  0.1776  0.1831
  530MOL0     C71477   6.480   3.552   9.882 -0.5841  0.3841 -0.0599
  530MOL0     C71478   6.555   3.657   9.974 -0.2662  0.7835 -0.5942
  530MOL0     C71479   6.489   3.640  10.105 -0.0770  0.3844 -0.4304
  530MOL0     C71480   6.433   3.637  10.211  0.9995 -0.6807  0.0043
  530MOL0     C71481   6.147   3.417   9.479  0.2518  0.3696 -0.5577
  530MOL0     C71482   6.104   3.381   9.352  0.4836 -0.2214  0.7645
  530MOL0     H71483   6.413   3.078   8.972  0.8204  2.7582  0.2763
  530MOL0     H71484   6.373   2.918   8.778 -1.1481 -1.7630 -1.6230
  530MOL0     H71485   6.324   2.803   8.594  0.4617  2.2840 -1.5805
  530MOL0     H71486   6.157   2.794   8.660 -0.9843  3.7202  0.9205
  530MOL0     H71487   6.063   2.769   8.456  0.2891 -0.7228 -2.7524
  530MOL0     H71488   6.212   2.828   8.372  1.1445  0.3061  1.0285
  530MOL0     H71489   6.162   2.552   8.527 -0.3552 -1.8262 -0.6837
  530MOL0     H71490   6.137   2.566   8.356 -1.0006  0.3423  0.7935
  530MOL0     H71491   6.378   2.605   8.304 -0.8367  0.5752  0.6741
  530MOL0     H71492   6.410   2.613   8.481 -1.8722  0.1816  1.9553
  530MOL0     H71493   6.350   2.385   8.491  1.8629 -0.2569  0.0504
  530MOL0     H71494   6.260   2.376   8.345  1.1251 -2.2787  0.0150
  530MOL0     H71495   6.438   2.403   8.194 -0.0791 -0.8112  0.4637
  530MOL0     H71496   6.550   2.424   8.340  0.1787 -1.3159  0.6338
  530MOL0     H71497   6.526   2.180   8.383  1.3965 -2.8215 -2.2436
  530MOL0     H71498   6.379   2.168   8.281 -0.6541 -0.3410 -2.2739
  530MOL0     H71499   6.627   2.259   8.149  1.1536 -0.3668 -2.4056
  530MOL0     H71500   6.506   2.148   8.084  0.5475  0.1293 -0.0795
  530MOL0     H71501   6.513   1.893   8.185  1.4966 -0.9850  0.1037
  530MOL0     H71502   6.726   1.728   8.474 -0.4619 -1.3809  0.7633
  530MOL0     H71503   6.566   1.725   8.394 -0.1695  1.1785 -0.6392
  530MOL0     H71504   6.740   1.531   8.339  1.4973  0.3376  0.0307
  530MOL0     H71505   6.821   1.669   8.251  0.3560  0.5699 -0.3224
  530MOL0     H71506   6.637   1.692   8.110 -1.8463  0.2082  1.0104
  530MOL0     H71507   6.535   1.574   8.193 -0.5556  1.5643 -1.4019
  530MOL0     H71508   6.809   1.491   8.092  0.4722 -0.9438 -0.4878
  530MOL0     H71509   6.680   1.517   7.969  2.4162 -0.3084 -0.4687
  530MOL0     H71510   6.624   1.158   8.243  0.5480 -1.9830  0.6185
  530MOL0     H71511   6.638   0.927   8.317  1.2638 -0.5129  1.7196
  530MOL0     H71512   6.673   0.827   8.181 -1.2293  1.5534 -0.5177
  530MOL0     H71513   6.796   0.857   8.305 -1.5474 -0.8254  1.3949
  530MOL0     H71514   7.318   0.817   8.154 -0.1413  0.4904  0.7565
  530MOL0     H71515   7.416   0.588   8.102 -1.0653 -1.1005 -0.6081
  530MOL0     H71516   7.533   0.455   7.922 -0.4304  2.4732  3.8467
  530MOL0     H71517   7.431   0.377   8.049  2.3567  1.4969  0.0982
  530MOL0     H71518   7.402   0.176   7.897 -0.0878  0.4624  0.5262
  530MOL0     H71519   7.485   0.265   7.766  1.1760 -1.6698 -0.8580
  530MOL0     H71520   7.574   0.105   7.983 -2.6975  0.9889  0.2247
  530MOL0     H71521   7.641   0.258   8.016  1.0350  1.7639 -1.1451
  530MOL0     H71522   7.693   0.077   7.769 -1.5565 -1.9377  1.4514
  530MOL0     H71523   7.745   0.251   7.769 -0.0443 -0.1653 -0.3287
  530MOL0     H71524   7.856   0.223   7.950  1.2510  1.3728 -3.1600
  530MOL0     H71525   7.921   0.120   7.822 -2.8715 -0.6436 -3.2189
  530MOL0     H71526   7.753   0.017   8.055 -0.8652 -0.6919  0.4735
  530MOL0     H71527   7.810  -0.084   7.924 -0.2744  1.1558 -0.3107
  530MOL0     H71528   7.983   0.057   8.128 -1.7220 -0.6028  0.5512
  530MOL0     H71529   8.044  -0.012   7.975 -3.1953  4.6441 -2.8872
  530MOL0     H71530   7.956  -0.234   8.052  0.3987 -0.3534 -1.1271
  530MOL0     H71531   7.885  -0.158   8.191 -1.3897  1.7078 -1.2777
  530MOL0     H71532   7.120   0.536   7.794 -0.1268 -3.7413  1.9833
  530MOL0     H71533   7.013   0.751   7.858  0.6344 -0.8457 -2.4486
  530MOL0     H71534   6.976   1.112   7.919 -1.3228 -0.6487 -0.5193
  530MOL0     H71535   6.868   1.339   7.938  2.4715  0.3416  1.0588
  530MOL0     H71536   6.070   3.198   8.628  0.3062 -0.2326 -0.0264
  530MOL0     H71537   6.080   3.318   8.821 -2.5626 -2.0373  0.4770
  530MOL0     H71538   6.412   3.404   9.200 -2.1281  0.5069 -2.2038
  530MOL0     H71539   6.456   3.521   9.417  0.1084 -1.2076  3.9680
  530MOL0     H71540   6.171   3.523   9.727 -0.4819 -0.0487  1.0675
  530MOL0     H71541   6.268   3.383   9.778  0.8354  0.3975  1.4592
  530MOL0     H71542   6.282   3.592   9.933  1.7309 -0.8363  1.3159
  530MOL0     H71543   6.336   3.678   9.797 -0.3468  0.3040  0.4883
  530MOL0     H71544   6.534   3.522   9.792 -1.1194 -1.5844  0.2362
  530MOL0     H71545   6.485   3.461   9.944  0.7964  1.2107  1.1198
  530MOL0     H71546   6.547   3.757   9.932  2.6434  0.5801 -1.8576
  530MOL0     H71547   6.659   3.627   9.991 -0.7027 -0.4355  0.1094
  530MOL0     H71548   6.386   3.630  10.307  1.1352  2.5847  0.4263
  530MOL0     H71549   6.086   3.406   9.568  1.4293 -0.9853  0.1278
  530MOL0     H71550   6.001   3.348   9.345  0.3582  0.2643  0.2445
  531MOL0     O71551  11.392   8.474   2.047 -0.0411 -0.0748 -0.7055
  531MOL0     C71552  11.302   8.390   2.055 -0.5572  1.4506  0.5256
  531MOL0     O71553  11.299   8.268   1.996 -0.2785 -0.2145  0.2858
  531MOL0     C71554  11.414   8.203   1.949 -0.3178 -0.3044  0.4055
  531MOL0     C71555  11.522   8.264   1.875  0.7802  0.6677  0.1016
  531MOL0     C71556  11.627   8.182   1.835  0.7765 -0.3028  0.5364
  531MOL0     C71557  11.626   8.044   1.857  0.4223 -0.0730  1.0402
  531MOL0     O71558  11.747   7.978   1.827  0.0625 -0.0568 -0.1173
  531MOL0     C71559  11.801   7.905   1.936 -0.7008 -0.1972 -0.6756
  531MOL0     C71560  11.865   7.995   2.046  0.4329  0.5907 -0.0096
  531MOL0     C71561  11.990   8.060   1.992  1.0186 -0.1934 -0.2773
  531MOL0     C71562  12.022   8.168   2.098 -0.5420  0.8602  0.1927
  531MOL0     C71563  12.165   8.212   2.088 -0.1533 -0.0680  0.0910
  531MOL0     C71564  12.270   8.117   2.143 -0.3145 -0.8975  0.4539
  531MOL0     C71565  12.270   8.081   2.295 -0.1106 -0.2562  0.6992
  531MOL0     C71566  12.230   8.197   2.398  0.0485 -0.4650  0.1273
  531MOL0     N71567  12.334   8.307   2.405  0.0948 -0.0089  0.2274
  531MOL0     C71568  12.399   8.337   2.518 -0.0316 -0.4391 -0.0907
  531MOL0     C71569  12.454   8.456   2.492 -0.7364 -1.2201  0.3048
  531MOL0     C71570  12.542   8.536   2.589 -0.0318 -0.3220 -0.2925
  531MOL0     C71571  12.486   8.681   2.609 -0.0523  0.1695  0.1321
  531MOL0     C71572  12.499   8.729   2.751  0.1917 -0.6558  0.2318
  531MOL0     C71573  12.637   8.712   2.814  0.5561 -0.2566 -0.1277
  531MOL0     O71574  12.720   8.793   2.728  0.2637 -0.4942  0.1713
  531MOL0     C71575  12.849   8.826   2.764  0.0386  0.2233 -0.5766
  531MOL0     C71576  12.938   8.858   2.660  0.7103  0.8701  1.0774
  531MOL0     C71577  13.080   8.852   2.663  0.7502 -1.3297  0.0715
  531MOL0     C71578  13.146   8.836   2.529  0.2203  0.0042 -1.1985
  531MOL0     C71579  13.135   8.852   2.796 -1.0023  0.6936  0.0931
  531MOL0     C71580  13.278   8.845   2.827 -0.6292  0.2623 -1.2855
  531MOL0     O71581  13.327   8.792   2.944  0.3218 -0.2324  0.5745
  531MOL0     C71582  13.460   8.776   2.960 -0.1582 -0.0930 -0.3285
  531MOL0     C71583  13.567   8.776   2.867  0.0784  0.4460  0.2965
  531MOL0     C71584  13.696   8.761   2.910  0.8667 -0.8194 -0.1905
  531MOL0     C71585  13.734   8.747   3.045 -0.2665  0.2316  0.4573
  531MOL0     O71586  13.858   8.700   3.084 -0.2623  0.0854 -0.3105
  531MOL0     C71587  13.961   8.692   2.983 -0.8953 -0.2823  0.7557
  531MOL0     C71588  14.091   8.671   3.052  0.0909  0.2523 -0.6445
  531MOL0     C71589  14.183   8.596   2.958  0.4023  0.4676  0.2736
  531MOL0     C71590  14.329   8.595   2.997  0.1016  1.0800 -0.5890
  531MOL0     C71591  14.413   8.492   2.919 -0.6790 -0.8365 -0.5671
  531MOL0     C71592  14.482   8.554   2.799  0.3703 -0.2441 -1.1868
  531MOL0     C71593  14.550   8.462   2.706  0.7690 -0.5723  1.1392
  531MOL0     C71594  14.651   8.538   2.620 -0.2754  0.5564  0.6397
  531MOL0    Cl71595  14.562   8.681   2.543  0.1021 -0.2712  0.2034
  531MOL0     C71596  13.632   8.743   3.136  0.2029 -0.2936 -0.7565
  531MOL0     C71597  13.493   8.752   3.094 -0.2230  1.0501  0.2761
  531MOL0     O71598  13.348   8.909   2.753 -0.0088  0.3219 -0.5165
  531MOL0     C71599  13.044   8.854   2.907  0.9999 -0.3019  0.5775
  531MOL0     C71600  12.903   8.834   2.891  0.2118  0.1979  0.0987
  531MOL0     N71601  12.419   8.505   2.369 -0.3085 -0.5850  0.0722
  531MOL0     N71602  12.345   8.411   2.316  0.4056 -0.3927 -0.0727
  531MOL0     C71603  11.524   7.989   1.945  0.4173  0.0480  1.0371
  531MOL0     C71604  11.424   8.067   1.990 -0.4178 -0.3412 -0.0811
  531MOL0     C71605  11.190   8.435   2.142  0.0593  0.0600 -0.1904
  531MOL0     C71606  11.102   8.337   2.190 -0.4924 -0.2117 -0.0857
  531MOL0     C71607  11.006   8.380   2.276  1.1091 -0.2154 -0.5294
  531MOL0     C71608  10.972   8.510   2.300  1.0018 -0.3731  0.1079
  531MOL0     O71609  10.866   8.530   2.377 -0.0902  0.5488 -0.8500
  531MOL0     C71610  10.875   8.639   2.466  0.6115  0.0886 -0.1854
  531MOL0     C71611  10.788   8.604   2.589 -0.1301 -0.8355 -0.3137
  531MOL0     C71612  10.850   8.491   2.666 -1.0251  0.1537  0.5446
  531MOL0     C71613  10.991   8.519   2.718 -0.4951  0.1972  0.0620
  531MOL0     C71614  10.993   8.625   2.823  0.6039  0.3290  0.1662
  531MOL0     C71615  10.976   8.714   2.905 -0.6735  0.6626  1.3777
  531MOL0     C71616  11.050   8.610   2.251  0.2991 -0.3071 -1.1207
  531MOL0     C71617  11.167   8.569   2.176 -0.8237 -0.3254  0.4554
  531MOL0     H71618  11.511   8.371   1.871  0.0636  0.8274  3.4231
  531MOL0     H71619  11.719   8.221   1.793  2.5120 -0.8338  3.5118
  531MOL0     H71620  11.723   7.843   1.981 -0.9217  0.0652 -0.6930
  531MOL0     H71621  11.876   7.838   1.891  1.8894  1.8247  0.3947
  531MOL0     H71622  11.777   8.058   2.064 -2.6176 -3.5369  1.1490
  531MOL0     H71623  11.876   7.937   2.138  2.0052  2.8607  1.3329
  531MOL0     H71624  12.053   7.972   1.975 -1.2937 -2.0512  0.2330
  531MOL0     H71625  11.988   8.113   1.896  1.7902 -4.0260 -2.6566
  531MOL0     H71626  11.954   8.253   2.101 -0.6347  0.7495  2.4034
  531MOL0     H71627  12.014   8.128   2.199  1.9421  1.3655  0.6514
  531MOL0     H71628  12.193   8.239   1.985 -0.5964  0.9665  0.2231
  531MOL0     H71629  12.177   8.306   2.143 -3.8986  1.3659 -1.1913
  531MOL0     H71630  12.253   8.019   2.098  2.8841 -1.1393 -0.4552
  531MOL0     H71631  12.366   8.158   2.111 -1.9292  3.1297  0.1608
  531MOL0     H71632  12.201   7.997   2.301  0.1748 -0.5176  0.3887
  531MOL0     H71633  12.372   8.047   2.320  0.7128  3.0093  2.3315
  531MOL0     H71634  12.198   8.168   2.498 -1.5378  1.8342  0.3724
  531MOL0     H71635  12.139   8.235   2.350  0.6711 -1.9525 -2.4479
  531MOL0     H71636  12.398   8.280   2.610  0.1339  0.3159  0.3857
  531MOL0     H71637  12.543   8.482   2.684  2.9474 -1.7624 -1.0111
  531MOL0     H71638  12.646   8.540   2.555 -0.1788  1.0485 -0.6135
  531MOL0     H71639  12.383   8.679   2.572  1.0132 -3.7897 -3.3298
  531MOL0     H71640  12.535   8.756   2.546  1.6976  1.8528  3.2397
  531MOL0     H71641  12.430   8.663   2.805  0.2707  1.7367  3.5275
  531MOL0     H71642  12.476   8.836   2.753 -0.8898 -0.8460 -0.8280
  531MOL0     H71643  12.665   8.606   2.813  0.0742 -0.3896  0.2176
  531MOL0     H71644  12.638   8.746   2.918 -2.0497  0.2712 -0.2138
  531MOL0     H71645  12.898   8.862   2.559 -1.6903 -1.5374  1.7985
  531MOL0     H71646  13.158   8.939   2.494 -1.1592  0.4166 -0.5309
  531MOL0     H71647  13.239   8.782   2.549 -0.5547  0.0591  3.7507
  531MOL0     H71648  13.088   8.771   2.463  0.5092  0.1173 -1.5694
  531MOL0     H71649  13.547   8.790   2.761 -3.1521 -2.2109  0.3836
  531MOL0     H71650  13.771   8.733   2.837 -0.3963 -3.7347 -0.4824
  531MOL0     H71651  13.936   8.604   2.923  0.1076 -0.5469  0.7083
  531MOL0     H71652  13.966   8.780   2.918  0.7101 -1.6226 -1.0509
  531MOL0     H71653  14.140   8.760   3.093 -2.5136  1.9593 -0.9752
  531MOL0     H71654  14.073   8.605   3.137 -0.5671 -0.4182 -1.2838
  531MOL0     H71655  14.175   8.640   2.858 -1.1310 -1.3870 -0.4733
  531MOL0     H71656  14.147   8.493   2.955 -2.6077  1.4500 -0.3268
  531MOL0     H71657  14.367   8.697   2.985 -1.4335  1.5465 -1.8762
  531MOL0     H71658  14.348   8.553   3.096 -0.5527 -1.3376 -1.4129
  531MOL0     H71659  14.354   8.403   2.900 -2.8840  0.6915 -1.2298
  531MOL0     H71660  14.493   8.463   2.988  2.4404  2.7775 -2.2667
  531MOL0     H71661  14.397   8.595   2.743 -1.4812  0.3190  1.7957
  531MOL0     H71662  14.538   8.642   2.834 -0.5547  0.6623 -1.9205
  531MOL0     H71663  14.478   8.417   2.638  2.2239  0.3940 -1.1624
  531MOL0     H71664  14.593   8.373   2.753  0.6978 -1.2903 -0.1105
  531MOL0     H71665  14.700   8.480   2.541  0.0717 -0.2735  1.4417
  531MOL0     H71666  14.731   8.573   2.686 -1.9909  0.4615  2.8739
  531MOL0     H71667  13.664   8.728   3.239  0.8587  2.8459 -0.4133
  531MOL0     H71668  13.419   8.777   3.169  0.5293  1.5379  0.8807
  531MOL0     H71669  13.085   8.854   3.008  0.2579  0.4452  0.8890
  531MOL0     H71670  12.840   8.815   2.978 -1.4740 -0.0674 -1.1281
  531MOL0     H71671  11.518   7.882   1.960  2.0407 -0.1522  0.4618
  531MOL0     H71672  11.342   8.031   2.051  0.0327  1.6832  1.8445
  531MOL0     H71673  11.108   8.230   2.171  3.3421 -0.5050  1.7276
  531MOL0     H71674  10.942   8.307   2.325  1.1919  1.2589  1.9185
  531MOL0     H71675  10.975   8.673   2.495  2.1501 -2.9273 -1.4141
  531MOL0     H71676  10.828   8.724   2.416 -1.3098 -1.1487 -0.5884
  531MOL0     H71677  10.685   8.583   2.556  0.7790 -2.1583 -2.5715
  531MOL0     H71678  10.761   8.699   2.636 -0.6987 -0.0445 -2.1340
  531MOL0     H71679  10.874   8.402   2.607  0.1837 -0.6505  2.1742
  531MOL0     H71680  10.788   8.465   2.753 -0.4007  0.6934  1.1597
  531MOL0     H71681  11.061   8.548   2.639 -1.7459 -1.0246 -1.5585
  531MOL0     H71682  11.021   8.423   2.762 -2.4006 -0.9154 -0.9224
  531MOL0     H71683  10.976   8.780   2.990  2.5687 -1.2491  3.0727
  531MOL0     H71684  11.036   8.715   2.278  2.3850 -0.8746  3.1183
  531MOL0     H71685  11.228   8.651   2.139 -1.2455  0.6219  1.7439
  532MOL0     O71686   6.539   2.574   0.573  0.0691  0.0031 -0.2603
  532MOL0     C71687   6.632   2.550   0.646 -0.6738  0.0693  0.0675
  532MOL0     O71688   6.686   2.636   0.747  1.0098 -0.2547 -0.4515
  532MOL0     C71689   6.611   2.749   0.764 -0.1839 -1.0249  0.0327
  532MOL0     C71690   6.481   2.750   0.813  0.7131  0.2832 -0.8648
  532MOL0     C71691   6.430   2.883   0.851 -0.4772  0.6005 -0.0479
  532MOL0     C71692   6.501   3.001   0.835 -0.0681  0.3392  0.6396
  532MOL0     O71693   6.468   3.120   0.899  0.3328 -0.2008  1.1780
  532MOL0     C71694   6.328   3.137   0.942  0.1433 -0.0540 -1.0782
  532MOL0     C71695   6.276   3.279   0.900  0.0796 -0.2006  0.0677
  532MOL0     C71696   6.124   3.314   0.951 -0.1186  0.7384 -0.0466
  532MOL0     C71697   6.089   3.458   0.915  0.2777  1.1556  0.0607
  532MOL0     C71698   6.149   3.566   1.006 -0.0832  0.7253 -0.7458
  532MOL0     C71699   6.096   3.560   1.163 -0.0506 -0.2481 -0.5675
  532MOL0     C71700   5.947   3.542   1.184  0.7234  0.1870 -0.0456
  532MOL0     C71701   5.890   3.542   1.328 -0.4986  0.4701  0.2028
  532MOL0     N71702   5.925   3.670   1.396 -0.3723  0.3940 -0.1029
  532MOL0     C71703   5.993   3.684   1.512  1.1177 -1.1154 -0.1438
  532MOL0     C71704   5.982   3.815   1.540 -0.5642  0.7556 -0.6144
  532MOL0     C71705   6.044   3.873   1.661 -0.0313  0.4722  0.1482
  532MOL0     C71706   5.984   4.010   1.693  0.5502  0.7566 -1.0637
  532MOL0     C71707   6.037   4.061   1.829 -0.6220  0.3437 -0.3799
  532MOL0     C71708   5.925   4.130   1.909  0.1189 -0.5457  0.3334
  532MOL0     O71709   5.842   4.210   1.821  0.2548  0.0013  0.0518
  532MOL0     C71710   5.781   4.327   1.862  0.7005  0.6966  0.2311
  532MOL0     C71711   5.745   4.427   1.772 -0.1402 -0.0987  0.1223
  532MOL0     C71712   5.680   4.543   1.815 -1.3186 -0.2983 -0.2604
  532MOL0     C71713   5.622   4.641   1.706 -0.3940  1.0229  0.3784
  532MOL0     C71714   5.646   4.565   1.950  0.9065  0.1302 -0.6061
  532MOL0     C71715   5.589   4.686   2.013  0.2069  0.9052 -0.0336
  532MOL0     O71716   5.577   4.683   2.155 -0.4575 -0.5436 -0.3498
  532MOL0     C71717   5.507   4.784   2.213 -0.1871 -0.4213  0.2043
  532MOL0     C71718   5.573   4.881   2.293 -0.5237  0.7718  0.3085
  532MOL0     C71719   5.507   4.986   2.360 -0.0429  0.6881  1.0191
  532MOL0     C71720   5.366   4.979   2.345 -0.3221 -0.2096 -0.8539
  532MOL0     O71721   5.279   5.077   2.399 -0.7189 -0.4492 -0.2869
  532MOL0     C71722   5.331   5.207   2.428 -0.0735 -0.5447 -1.0952
  532MOL0     C71723   5.215   5.297   2.461 -1.2637 -0.1832 -0.3436
  532MOL0     C71724   5.268   5.449   2.461 -0.7259  0.7574 -0.3594
  532MOL0     C71725   5.139   5.524   2.507 -0.0640  0.1383  1.1271
  532MOL0     C71726   5.148   5.680   2.508 -0.0746 -0.3111 -0.6393
  532MOL0     C71727   5.007   5.739   2.475  0.5968  0.4493  0.2400
  532MOL0     C71728   4.905   5.694   2.577  0.1438 -0.0676 -0.3748
  532MOL0     C71729   4.772   5.773   2.580  0.0377  0.4738  0.5933
  532MOL0    Cl71730   4.658   5.697   2.685 -0.1141  0.1286 -0.1316
  532MOL0     C71731   5.296   4.881   2.268 -0.5657 -1.1141  0.3257
  532MOL0     C71732   5.365   4.780   2.209  1.0180  0.6021 -0.6850
  532MOL0     O71733   5.560   4.786   1.945  0.1493 -0.2821  0.3995
  532MOL0     C71734   5.681   4.461   2.039  0.5264 -0.1526  0.1500
  532MOL0     C71735   5.743   4.342   1.993  0.2485  0.1895 -0.4355
  532MOL0     N71736   5.897   3.872   1.441  0.5462  0.0847 -0.5476
  532MOL0     N71737   5.858   3.784   1.361 -0.0593 -0.6237 -0.1877
  532MOL0     C71738   6.616   2.995   0.768 -0.3151  0.4238  0.1192
  532MOL0     C71739   6.671   2.873   0.729  0.2310 -0.1024  0.8806
  532MOL0     C71740   6.726   2.444   0.620 -0.0857  1.1851  0.5220
  532MOL0     C71741   6.708   2.364   0.498 -0.0317  0.0524 -0.5113
  532MOL0     C71742   6.804   2.256   0.481  0.7221 -0.2146 -0.1254
  532MOL0     C71743   6.914   2.239   0.560  0.4357 -0.9760  0.3504
  532MOL0     O71744   6.999   2.138   0.515  0.2420 -0.1830  0.0046
  532MOL0     C71745   7.139   2.149   0.558 -1.0007 -0.0501  0.1333
  532MOL0     C71746   7.215   2.276   0.520  0.2822 -0.9569 -0.1805
  532MOL0     C71747   7.231   2.316   0.374 -0.5147  0.5523 -0.3644
  532MOL0     C71748   7.315   2.439   0.352  0.7080 -0.2332  0.5630
  532MOL0     C71749   7.319   2.483   0.212  0.0458 -0.0859  0.9181
  532MOL0     C71750   7.318   2.521   0.095 -1.0292  0.1564 -0.7009
  532MOL0     C71751   6.942   2.332   0.678 -0.8171  1.1515  0.8900
  532MOL0     C71752   6.847   2.430   0.695  0.2093  0.0177  0.0522
  532MOL0     H71753   6.427   2.657   0.826  1.0673  0.1980  0.1019
  532MOL0     H71754   6.333   2.866   0.897 -1.2766 -2.7079 -2.5955
  532MOL0     H71755   6.258   3.063   0.901 -2.6578  2.0249 -0.3392
  532MOL0     H71756   6.316   3.125   1.050 -0.8667  2.8296 -0.7913
  532MOL0     H71757   6.347   3.346   0.950 -0.2389 -0.8573  1.4296
  532MOL0     H71758   6.275   3.277   0.791 -4.7709 -1.6098 -0.0823
  532MOL0     H71759   6.053   3.256   0.891  2.3049  1.2292 -3.7399
  532MOL0     H71760   6.113   3.294   1.058 -1.0444 -1.6442 -0.5084
  532MOL0     H71761   6.117   3.484   0.813  0.4308  2.0163  0.3194
  532MOL0     H71762   5.980   3.467   0.918  0.3324  2.6029 -1.1857
  532MOL0     H71763   6.258   3.564   1.002 -0.0794  1.2172 -0.9144
  532MOL0     H71764   6.120   3.664   0.968 -2.4031  0.3858 -0.0341
  532MOL0     H71765   6.147   3.474   1.208 -3.2860 -1.5645  0.9211
  532MOL0     H71766   6.129   3.653   1.212  0.7896  0.2656 -2.0558
  532MOL0     H71767   5.884   3.609   1.124 -0.6636 -1.7162 -0.8085
  532MOL0     H71768   5.920   3.441   1.151 -0.9105  0.4765  0.2793
  532MOL0     H71769   5.927   3.456   1.385 -2.4471  0.0363  0.8817
  532MOL0     H71770   5.781   3.541   1.319 -0.5098 -0.7248  0.3842
  532MOL0     H71771   6.046   3.601   1.556  2.4045 -2.7775 -4.2949
  532MOL0     H71772   6.034   3.818   1.755  4.7975  2.8838  2.4283
  532MOL0     H71773   6.151   3.890   1.641  0.2332 -0.8483  0.3459
  532MOL0     H71774   5.877   3.990   1.704  0.5285  1.0469 -0.7073
  532MOL0     H71775   6.003   4.080   1.612  0.3249  0.1281 -1.6655
  532MOL0     H71776   6.120   4.129   1.808 -1.6818  1.1665 -2.1922
  532MOL0     H71777   6.078   3.974   1.880  0.5989  0.6367 -0.8131
  532MOL0     H71778   5.970   4.189   1.989 -2.9941 -0.1765  1.9821
  532MOL0     H71779   5.868   4.047   1.953  0.4711 -1.1174 -0.2799
  532MOL0     H71780   5.776   4.414   1.668 -2.1752  0.1784 -0.5659
  532MOL0     H71781   5.663   4.741   1.721 -3.6806  2.3808  1.3105
  532MOL0     H71782   5.650   4.602   1.607 -0.2691 -0.7523  1.0847
  532MOL0     H71783   5.514   4.655   1.718 -0.3879  0.6902  0.8239
  532MOL0     H71784   5.679   4.868   2.278 -1.0126 -0.6100 -2.9533
  532MOL0     H71785   5.567   5.067   2.400  2.4570  0.3799 -1.8140
  532MOL0     H71786   5.395   5.194   2.516 -2.0554 -0.9708  0.3556
  532MOL0     H71787   5.396   5.225   2.342 -0.7580 -5.0905 -2.8442
  532MOL0     H71788   5.134   5.284   2.389 -0.4696  1.7908 -1.6703
  532MOL0     H71789   5.183   5.268   2.562 -0.6624  0.4642  0.0434
  532MOL0     H71790   5.299   5.483   2.362 -0.5345 -0.2593 -0.6548
  532MOL0     H71791   5.341   5.462   2.541 -0.3907  2.0005 -0.8513
  532MOL0     H71792   5.061   5.487   2.440  2.1041 -2.2914 -0.2628
  532MOL0     H71793   5.110   5.494   2.608 -1.3163  3.6913  1.9667
  532MOL0     H71794   5.227   5.711   2.439 -0.6755  0.0897 -1.1578
  532MOL0     H71795   5.186   5.706   2.608  3.1533  0.3139 -1.8982
  532MOL0     H71796   5.023   5.847   2.484  4.2782 -0.0858  2.2425
  532MOL0     H71797   4.964   5.710   2.379 -1.3970  0.0594  1.1943
  532MOL0     H71798   4.958   5.700   2.673  3.5857 -0.0691 -2.1304
  532MOL0     H71799   4.876   5.591   2.552  1.1017 -0.5884  0.6059
  532MOL0     H71800   4.730   5.774   2.479 -1.1742 -1.5024  1.0301
  532MOL0     H71801   4.789   5.877   2.611  1.5592 -0.1041  1.8672
  532MOL0     H71802   5.187   4.881   2.271 -0.5677 -2.5102  1.0108
  532MOL0     H71803   5.316   4.712   2.139  0.3975  0.6473 -0.3051
  532MOL0     H71804   5.651   4.469   2.143 -0.1436  1.2833 -0.1426
  532MOL0     H71805   5.766   4.274   2.075  1.5562  1.8228  0.6287
  532MOL0     H71806   6.668   3.086   0.737  0.5728 -0.3659 -0.7724
  532MOL0     H71807   6.771   2.874   0.687 -0.0854 -0.9159  0.0783
  532MOL0     H71808   6.624   2.392   0.434  1.2378  1.7727 -1.5284
  532MOL0     H71809   6.796   2.204   0.386 -0.6907  1.6771 -1.1142
  532MOL0     H71810   7.150   2.117   0.662  0.6239 -1.1958 -0.3471
  532MOL0     H71811   7.200   2.073   0.508  1.6732 -0.1319  3.2222
  532MOL0     H71812   7.313   2.269   0.567 -1.1141 -0.6050  3.0845
  532MOL0     H71813   7.170   2.362   0.571  0.7435  0.9777 -2.8305
  532MOL0     H71814   7.132   2.331   0.331 -1.8541 -1.1094  1.9102
  532MOL0     H71815   7.286   2.235   0.324 -1.0514  0.4980 -0.8772
  532MOL0     H71816   7.412   2.424   0.399  1.0950  0.9453  0.1785
  532MOL0     H71817   7.265   2.520   0.405  0.7913  0.5072 -0.4574
  532MOL0     H71818   7.321   2.552  -0.007 -2.1395  1.3261 -0.3989
  532MOL0     H71819   7.023   2.314   0.748 -0.6764 -0.1268  0.4163
  532MOL0     H71820   6.865   2.492   0.783 -2.3336  1.0530 -0.0671
  533MOL0     O71821   8.246  10.917   1.557  1.2648 -0.2609  0.1138
  533MOL0     C71822   8.199  11.029   1.543 -0.2482 -0.5627  0.4509
  533MOL0     O71823   8.268  11.148   1.518  0.7416  0.2510  0.2731
  533MOL0     C71824   8.402  11.148   1.528 -0.6384  0.0180 -0.1935
  533MOL0     C71825   8.486  11.158   1.416  0.3917  0.6893  0.1868
  533MOL0     C71826   8.632  11.170   1.428 -0.5202 -0.2575  0.3510
  533MOL0     C71827   8.685  11.160   1.551 -0.7689  0.5798  0.4174
  533MOL0     O71828   8.818  11.165   1.587 -0.1709 -0.3706 -0.3259
  533MOL0     C71829   8.921  11.129   1.498 -0.4297  0.0249 -0.3536
  533MOL0     C71830   9.040  11.096   1.582 -0.3742  0.5688 -0.2108
  533MOL0     C71831   9.013  10.971   1.668 -0.4239  0.7069  0.3420
  533MOL0     C71832   9.126  10.945   1.769 -0.3152 -0.7398 -0.1307
  533MOL0     C71833   9.191  10.806   1.736 -0.6122 -0.4404  0.6142
  533MOL0     C71834   9.300  10.761   1.843  0.1150 -0.6325  0.8385
  533MOL0     C71835   9.426  10.842   1.826 -0.3916 -0.3460 -0.1710
  533MOL0     C71836   9.454  10.926   1.955 -0.3282 -0.3985 -0.2709
  533MOL0     N71837   9.507  11.062   1.924  0.0397 -0.0696 -0.2858
  533MOL0     C71838   9.431  11.177   1.917  0.6246  0.5188 -0.2118
  533MOL0     C71839   9.517  11.282   1.909  0.1071 -0.3186  0.0466
  533MOL0     C71840   9.476  11.418   1.867  0.6434  0.1250  0.3004
  533MOL0     C71841   9.548  11.534   1.951  0.4320 -0.1983 -0.5325
  533MOL0     C71842   9.458  11.584   2.058 -0.5684 -0.0411  0.6738
  533MOL0     C71843   9.528  11.663   2.170  1.3176 -0.1679  0.7659
  533MOL0     O71844   9.604  11.774   2.100  0.2241  0.3554  0.2488
  533MOL0     C71845   9.600  11.905   2.161 -0.3889 -0.0782  0.6252
  533MOL0     C71846   9.559  12.010   2.078  0.8046 -0.6150 -1.1997
  533MOL0     C71847   9.534  12.139   2.140  0.2042 -0.7304 -0.3536
  533MOL0     C71848   9.471  12.241   2.054 -0.0340 -0.2235 -0.5882
  533MOL0     C71849   9.578  12.164   2.272  0.9962 -0.0327 -0.3896
  533MOL0     C71850   9.562  12.290   2.348 -0.1316 -0.6696  0.3918
  533MOL0     O71851   9.663  12.318   2.433 -0.3961 -0.0328  0.0834
  533MOL0     C71852   9.656  12.420   2.516 -0.4444  0.9213 -0.7429
  533MOL0     C71853   9.630  12.403   2.654 -0.0380  0.0864  0.3917
  533MOL0     C71854   9.621  12.515   2.743 -0.1124  0.3582  0.4995
  533MOL0     C71855   9.648  12.645   2.696 -0.4155  0.0429  0.9529
  533MOL0     O71856   9.647  12.753   2.775 -0.0634 -0.0317  0.4424
  533MOL0     C71857   9.701  12.876   2.729  0.1718 -0.6493  0.6731
  533MOL0     C71858   9.750  12.970   2.843 -0.0159 -0.3617 -0.3710
  533MOL0     C71859   9.838  13.090   2.794  0.9991 -0.0383  0.2336
  533MOL0     C71860   9.867  13.181   2.914  0.2653  0.8569 -0.0065
  533MOL0     C71861   9.971  13.281   2.871  0.2840 -0.5323  0.0210
  533MOL0     C71862   9.996  13.371   2.985 -0.4875  0.0287 -0.1303
  533MOL0     C71863  10.083  13.486   2.932 -0.2917 -0.0606  0.2892
  533MOL0     C71864  10.092  13.603   3.030 -0.1318  0.3766 -0.2852
  533MOL0    Cl71865  10.138  13.758   2.945 -0.0298  0.4099  0.2592
  533MOL0     C71866   9.668  12.652   2.555  0.0417 -0.1269 -0.4641
  533MOL0     C71867   9.679  12.545   2.467  0.0968 -0.6934  0.4143
  533MOL0     O71868   9.460  12.353   2.344  0.0092 -0.3748 -0.0666
  533MOL0     C71869   9.634  12.060   2.345  0.0215  0.2421 -0.8005
  533MOL0     C71870   9.637  11.931   2.287  0.0348  0.2071 -0.6089
  533MOL0     N71871   9.644  11.220   1.915  0.1201  0.0295 -0.1942
  533MOL0     N71872   9.643  11.093   1.924  0.1513 -0.6538 -0.5187
  533MOL0     C71873   8.600  11.158   1.658 -0.1408  0.2852 -0.0403
  533MOL0     C71874   8.460  11.159   1.659  0.6744 -1.4862  0.5721
  533MOL0     C71875   8.051  11.028   1.542 -0.1257 -0.5683  0.6905
  533MOL0     C71876   7.974  10.919   1.580 -0.4859  0.4412 -0.6652
  533MOL0     C71877   7.837  10.921   1.555  0.3516  0.6512 -0.4695
  533MOL0     C71878   7.772  11.030   1.502  0.5166  0.0022 -0.3109
  533MOL0     O71879   7.636  11.034   1.509 -0.0602 -0.1395  0.5087
  533MOL0     C71880   7.571  11.089   1.389  0.1054  0.1905 -1.3185
  533MOL0     C71881   7.492  10.978   1.312 -0.4991 -0.3210  0.1782
  533MOL0     C71882   7.567  10.849   1.319 -1.0744 -0.4933 -0.2781
  533MOL0     C71883   7.518  10.745   1.219  0.2438 -0.1234  0.9606
  533MOL0     C71884   7.370  10.716   1.218 -0.6503 -0.1920 -0.0443
  533MOL0     C71885   7.254  10.690   1.227  0.6717 -0.6363  0.7748
  533MOL0     C71886   7.855  11.144   1.469 -0.1078  0.5217  0.6369
  533MOL0     C71887   7.990  11.145   1.487 -0.0509 -0.0899  0.8053
  533MOL0     H71888   8.441  11.159   1.317  1.5201 -0.0013 -0.3438
  533MOL0     H71889   8.691  11.164   1.337 -1.1666 -1.5525 -0.0160
  533MOL0     H71890   8.893  11.041   1.439 -2.2068  0.1879  0.1799
  533MOL0     H71891   8.942  11.211   1.429 -0.4534  2.2628  2.1238
  533MOL0     H71892   9.130  11.073   1.525 -1.0500 -4.9179  0.3572
  533MOL0     H71893   9.065  11.188   1.634  1.3186  1.5018 -2.5078
  533MOL0     H71894   8.923  10.991   1.727 -0.7922 -0.4195  0.1829
  533MOL0     H71895   8.991  10.885   1.604  1.0235 -0.2900  1.1158
  533MOL0     H71896   9.206  11.019   1.780 -0.5659 -0.5310  0.3006
  533MOL0     H71897   9.088  10.937   1.871  0.4109  0.4178  0.2531
  533MOL0     H71898   9.118  10.727   1.760 -0.9995 -0.1121  0.5285
  533MOL0     H71899   9.214  10.787   1.631 -1.5587 -0.5319  0.4089
  533MOL0     H71900   9.270  10.757   1.948 -0.2998  1.0614  0.8140
  533MOL0     H71901   9.327  10.658   1.817  0.1767 -0.2432 -0.7629
  533MOL0     H71902   9.509  10.775   1.804 -1.3415 -1.6463  0.0737
  533MOL0     H71903   9.420  10.903   1.735 -0.2174  0.8723  0.6109
  533MOL0     H71904   9.537  10.876   2.006  2.8124  1.4045 -3.2133
  533MOL0     H71905   9.379  10.923   2.036  2.1832 -1.6152  2.1881
  533MOL0     H71906   9.322  11.176   1.912  0.4919  1.4313  1.5760
  533MOL0     H71907   9.505  11.424   1.762 -1.9038  0.1943 -0.4549
  533MOL0     H71908   9.368  11.433   1.876  0.9037  1.4755  1.4846
  533MOL0     H71909   9.575  11.620   1.888 -1.0015  0.9575  0.3770
  533MOL0     H71910   9.640  11.493   1.995 -0.2732  1.7473  3.0972
  533MOL0     H71911   9.405  11.502   2.107  0.9446 -1.7374 -0.4248
  533MOL0     H71912   9.392  11.660   2.014 -1.2341 -0.1213  1.5039
  533MOL0     H71913   9.580  11.600   2.243 -1.9537 -1.8491  1.8504
  533MOL0     H71914   9.454  11.717   2.229 -1.1413 -0.7727 -1.5608
  533MOL0     H71915   9.525  11.986   1.978 -0.1817  0.1289 -1.0512
  533MOL0     H71916   9.522  12.337   2.065 -0.5519 -0.1317  1.3623
  533MOL0     H71917   9.475  12.208   1.949 -0.9205 -1.7259 -0.1846
  533MOL0     H71918   9.369  12.263   2.086  0.0872 -2.4616  1.6368
  533MOL0     H71919   9.620  12.302   2.694  3.2922 -1.1938 -1.5303
  533MOL0     H71920   9.594  12.493   2.846  1.9187 -2.7547  0.5052
  533MOL0     H71921   9.784  12.863   2.659 -1.0834 -3.6530 -0.4119
  533MOL0     H71922   9.622  12.931   2.677  0.7850 -0.7835 -0.4452
  533MOL0     H71923   9.665  12.998   2.907  0.1204  1.7602 -1.0539
  533MOL0     H71924   9.824  12.911   2.898  0.5597  1.4753  0.9315
  533MOL0     H71925   9.788  13.146   2.715 -1.7067 -2.0865  0.3724
  533MOL0     H71926   9.936  13.053   2.760  0.4587  0.9682 -2.7024
  533MOL0     H71927   9.768  13.215   2.947 -0.4638 -3.1287  2.5598
  533MOL0     H71928   9.904  13.125   3.000  0.8844 -2.4647 -2.2672
  533MOL0     H71929   9.921  13.349   2.801  0.1020  1.5622  2.0263
  533MOL0     H71930  10.064  13.240   2.832  1.5015 -0.3905  2.5589
  533MOL0     H71931   9.899  13.401   3.026 -0.9385 -1.8591  0.2621
  533MOL0     H71932  10.041  13.315   3.068  0.4495  0.8953 -0.0277
  533MOL0     H71933  10.052  13.518   2.832 -1.7492 -4.3442 -0.8289
  533MOL0     H71934  10.186  13.450   2.921  0.1709  0.5295  2.3535
  533MOL0     H71935  10.157  13.585   3.116  1.0185  0.1961 -1.1701
  533MOL0     H71936   9.990  13.612   3.069  0.5786 -0.0583  1.7473
  533MOL0     H71937   9.670  12.751   2.510  0.1761 -0.2761 -0.7854
  533MOL0     H71938   9.690  12.572   2.362 -1.2294  2.3371  0.9269
  533MOL0     H71939   9.675  12.069   2.445 -2.7470  1.7799  0.3249
  533MOL0     H71940   9.674  11.851   2.350  0.2824  0.3381 -0.5845
  533MOL0     H71941   8.645  11.164   1.757 -3.5433  1.0840  1.6046
  533MOL0     H71942   8.403  11.166   1.751 -3.2991 -0.6239 -1.6787
  533MOL0     H71943   8.018  10.835   1.634  0.0093 -0.2808 -2.1401
  533MOL0     H71944   7.774  10.838   1.586  1.9651 -0.2451  0.5359
  533MOL0     H71945   7.509  11.168   1.433  0.0658 -0.1735 -0.6941
  533MOL0     H71946   7.645  11.137   1.324  3.5898 -0.2307  1.9432
  533MOL0     H71947   7.472  11.006   1.208  1.3745 -0.4404 -0.2549
  533MOL0     H71948   7.397  10.961   1.364  0.7973 -0.7145  2.5284
  533MOL0     H71949   7.565  10.810   1.421  1.7521 -0.6373 -0.1898
  533MOL0     H71950   7.671  10.871   1.291 -0.8226 -0.8336  0.3602
  533MOL0     H71951   7.564  10.648   1.238 -1.8019 -1.3053  0.2806
  533MOL0     H71952   7.540  10.767   1.115 -1.9877 -3.6109 -0.4368
  533MOL0     H71953   7.159  10.643   1.239  0.2730 -0.9526 -2.6233
  533MOL0     H71954   7.795  11.223   1.425 -2.8885 -2.0497 -0.5119
  533MOL0     H71955   8.050  11.233   1.467  1.4771 -1.2234  0.1725
  534MOL0     O71956   7.517   3.014   5.100 -0.4918 -0.1067  0.5629
  534MOL0     C71957   7.576   2.908   5.071  0.0073  0.3374 -0.4565
  534MOL0     O71958   7.575   2.858   4.949 -1.1085 -0.2251  0.5889
  534MOL0     C71959   7.526   2.923   4.836 -0.3722 -0.4987 -0.9732
  534MOL0     C71960   7.402   2.888   4.796  1.3874  1.1411 -0.1443
  534MOL0     C71961   7.330   2.951   4.695 -0.1832 -0.2915  0.9835
  534MOL0     C71962   7.378   3.064   4.625 -0.2319  1.2366 -0.1129
  534MOL0     O71963   7.306   3.121   4.525  0.3522  0.0441 -0.4608
  534MOL0     C71964   7.281   3.046   4.411  0.5314 -0.0532  0.2962
  534MOL0     C71965   7.390   3.101   4.313 -0.5235  0.2783 -0.0795
  534MOL0     C71966   7.375   3.010   4.183 -0.6124  0.4321 -0.3759
  534MOL0     C71967   7.442   3.065   4.054  0.5762 -0.1897 -1.1532
  534MOL0     C71968   7.448   2.950   3.961  0.1068  0.7472  0.9806
  534MOL0     C71969   7.484   2.994   3.824  0.2213 -0.0927 -1.0842
  534MOL0     C71970   7.507   2.874   3.739  0.4867 -0.0958 -0.2013
  534MOL0     C71971   7.552   2.914   3.600  0.3385 -1.2676 -0.3222
  534MOL0     N71972   7.579   2.792   3.521 -0.9416 -0.1293 -0.2840
  534MOL0     C71973   7.481   2.701   3.483  0.2932 -0.3680  0.9054
  534MOL0     C71974   7.536   2.587   3.444 -0.2871  0.4574  0.0920
  534MOL0     C71975   7.469   2.455   3.427 -0.1777  0.1011  0.5867
  534MOL0     C71976   7.490   2.387   3.291 -0.2981  0.4828  0.1242
  534MOL0     C71977   7.616   2.307   3.281 -0.0553  0.4377 -0.1992
  534MOL0     C71978   7.609   2.207   3.163 -0.2491  0.7186 -0.2706
  534MOL0     O71979   7.636   2.297   3.058 -0.1557 -0.1707  0.0355
  534MOL0     C71980   7.609   2.240   2.932 -0.0527 -0.0166  0.1283
  534MOL0     C71981   7.520   2.132   2.908  0.0200  0.0863  0.7348
  534MOL0     C71982   7.471   2.101   2.781 -0.3319 -1.1267  0.0733
  534MOL0     C71983   7.364   1.995   2.765  0.0500 -0.3051 -0.6568
  534MOL0     C71984   7.521   2.183   2.676 -0.5691 -0.1076  0.4388
  534MOL0     C71985   7.475   2.174   2.532 -2.0575 -0.4451 -0.1184
  534MOL0     O71986   7.456   2.294   2.466  0.3536 -0.6467  0.1877
  534MOL0     C71987   7.467   2.291   2.331  0.3721 -0.2735  0.6168
  534MOL0     C71988   7.376   2.365   2.250  0.2702  0.0380 -0.9883
  534MOL0     C71989   7.384   2.356   2.109  0.3004 -0.7912  0.2947
  534MOL0     C71990   7.494   2.295   2.041 -0.3071 -0.2561  0.9137
  534MOL0     O71991   7.517   2.293   1.911  0.1346 -0.0607  0.9288
  534MOL0     C71992   7.422   2.358   1.820  0.5766 -0.3453  0.1169
  534MOL0     C71993   7.413   2.513   1.819 -0.6900  0.2632  0.5919
  534MOL0     C71994   7.545   2.587   1.784  0.2760  0.1408 -0.2867
  534MOL0     C71995   7.531   2.734   1.807  1.0655 -0.2349 -0.5791
  534MOL0     C71996   7.666   2.814   1.783 -1.0450 -0.3848  0.6746
  534MOL0     C71997   7.676   2.906   1.899 -0.5289  0.5500 -0.0784
  534MOL0     C71998   7.587   3.018   1.886 -0.3333  0.1285  0.1157
  534MOL0     C71999   7.628   3.116   1.775 -0.0905 -0.1491  0.2585
  534MOL0    Cl72000   7.532   3.268   1.784 -0.3325  0.6494  0.0376
  534MOL0     C72001   7.593   2.229   2.124  0.7271 -0.0285  0.4114
  534MOL0     C72002   7.575   2.227   2.262  0.1314  0.1909 -0.1033
  534MOL0     O72003   7.463   2.059   2.482  0.1985 -0.0019 -0.4266
  534MOL0     C72004   7.604   2.296   2.703 -0.1585  0.0509 -0.2014
  534MOL0     C72005   7.640   2.324   2.830  0.3464 -0.1533  0.4547
  534MOL0     N72006   7.670   2.622   3.432 -0.0072  0.5026 -0.2062
  534MOL0     N72007   7.690   2.744   3.472 -0.1426  0.5676 -1.0710
  534MOL0     C72008   7.505   3.104   4.667 -0.6627  0.0658 -0.0298
  534MOL0     C72009   7.586   3.035   4.765  0.6890 -0.0034  0.3325
  534MOL0     C72010   7.639   2.825   5.181 -0.3990 -0.8626 -0.5734
  534MOL0     C72011   7.700   2.701   5.157 -0.5681  0.7073 -0.1519
  534MOL0     C72012   7.769   2.631   5.261 -0.2381  0.2437  0.3839
  534MOL0     C72013   7.773   2.684   5.393  0.1121 -0.0109 -0.1717
  534MOL0     O72014   7.828   2.601   5.483  0.0369 -0.7027  0.1419
  534MOL0     C72015   7.848   2.632   5.615  0.3312 -0.0630 -0.4182
  534MOL0     C72016   7.893   2.510   5.708  0.5634 -0.2697  0.5371
  534MOL0     C72017   8.002   2.430   5.630 -1.3517 -0.2421  0.5286
  534MOL0     C72018   8.064   2.321   5.714  0.4617  0.3657 -0.6936
  534MOL0     C72019   7.978   2.200   5.714  0.4474  0.4894  0.7211
  534MOL0     C72020   7.895   2.105   5.708  0.1819 -1.0233 -0.8527
  534MOL0     C72021   7.703   2.803   5.421  0.0022  0.1721  0.0582
  534MOL0     C72022   7.639   2.877   5.312 -0.3030  0.4698 -0.5975
  534MOL0     H72023   7.357   2.803   4.847 -0.5146  2.1409 -0.0691
  534MOL0     H72024   7.238   2.901   4.666 -0.6381  1.1406 -0.1792
  534MOL0     H72025   7.275   2.937   4.424 -2.8844 -0.0925 -0.8022
  534MOL0     H72026   7.188   3.083   4.368  1.1965  0.8924 -0.3701
  534MOL0     H72027   7.379   3.208   4.298  0.0331  0.2236 -0.8760
  534MOL0     H72028   7.483   3.075   4.365 -0.6428 -1.2370 -0.5482
  534MOL0     H72029   7.427   2.914   4.195  2.0672  1.6229 -1.5852
  534MOL0     H72030   7.268   2.991   4.168 -0.6037 -0.9025  1.0872
  534MOL0     H72031   7.383   3.149   4.018  1.1193  0.2066 -1.1329
  534MOL0     H72032   7.540   3.109   4.077 -0.4401  0.5758  2.3955
  534MOL0     H72033   7.523   2.871   3.978  0.5124  0.0731 -2.9029
  534MOL0     H72034   7.361   2.884   3.952  3.6303 -4.4147 -0.5209
  534MOL0     H72035   7.405   3.056   3.780 -1.6163  0.5640  2.7479
  534MOL0     H72036   7.578   3.051   3.820 -1.2442  2.5441 -0.4032
  534MOL0     H72037   7.572   2.798   3.785  0.9995  0.0525 -0.6722
  534MOL0     H72038   7.414   2.817   3.729  1.3298 -1.3358 -1.1979
  534MOL0     H72039   7.652   2.959   3.609  0.1216 -0.8837  0.1771
  534MOL0     H72040   7.483   2.980   3.547  0.1614 -1.7418 -0.6911
  534MOL0     H72041   7.374   2.717   3.497  0.3296 -1.6284  3.0863
  534MOL0     H72042   7.503   2.396   3.514  1.0554  0.1668  0.1638
  534MOL0     H72043   7.361   2.460   3.442 -0.2860 -0.2194 -0.0730
  534MOL0     H72044   7.488   2.453   3.203  0.9943 -1.1036 -1.1455
  534MOL0     H72045   7.404   2.320   3.284 -2.0386  2.5857  0.0222
  534MOL0     H72046   7.637   2.245   3.368 -2.8254 -0.8243 -0.3147
  534MOL0     H72047   7.705   2.371   3.279 -0.9716  1.9393  2.2021
  534MOL0     H72048   7.515   2.152   3.170 -0.8221  1.7206  0.0146
  534MOL0     H72049   7.699   2.145   3.174 -0.6093  0.5046  1.9292
  534MOL0     H72050   7.489   2.066   2.989 -0.8321  1.8861  1.9386
  534MOL0     H72051   7.416   1.916   2.711  1.3113 -0.4774  0.7517
  534MOL0     H72052   7.338   1.959   2.864 -3.0422 -2.1555 -1.9800
  534MOL0     H72053   7.273   2.034   2.717 -0.5632  0.3921  1.0153
  534MOL0     H72054   7.295   2.417   2.301 -0.5052 -1.5067 -0.5783
  534MOL0     H72055   7.307   2.412   2.056 -0.3715  1.3530  3.2482
  534MOL0     H72056   7.451   2.325   1.720 -0.4947 -1.3979  0.1307
  534MOL0     H72057   7.317   2.330   1.828 -0.1726  2.1937  0.1289
  534MOL0     H72058   7.347   2.543   1.738  0.0971  2.7693  0.7885
  534MOL0     H72059   7.383   2.549   1.918 -2.3876  2.6052 -0.6792
  534MOL0     H72060   7.570   2.570   1.679  1.7467  0.8586 -0.0762
  534MOL0     H72061   7.621   2.542   1.848  2.1402  0.9129 -1.8537
  534MOL0     H72062   7.456   2.775   1.739  0.0996  2.1903  1.7981
  534MOL0     H72063   7.486   2.740   1.907 -2.1640 -0.7359 -1.8652
  534MOL0     H72064   7.669   2.878   1.695  1.0584 -0.9991  0.2279
  534MOL0     H72065   7.749   2.745   1.765  0.0525  1.2498 -0.8217
  534MOL0     H72066   7.648   2.861   1.995 -3.4275 -0.9494 -1.4708
  534MOL0     H72067   7.779   2.942   1.904 -0.6214  0.7702  0.2448
  534MOL0     H72068   7.580   3.075   1.979  1.0638 -1.5187  1.2753
  534MOL0     H72069   7.491   2.974   1.856  1.2386 -2.6002 -1.3222
  534MOL0     H72070   7.618   3.070   1.676 -0.6409  0.5028  0.0106
  534MOL0     H72071   7.734   3.143   1.780 -0.1678  0.4655 -1.0035
  534MOL0     H72072   7.672   2.165   2.087  0.5801 -0.1597  0.3200
  534MOL0     H72073   7.652   2.180   2.321 -0.3188  2.1760  2.2048
  534MOL0     H72074   7.638   2.368   2.629 -0.2584 -0.8514 -1.1568
  534MOL0     H72075   7.702   2.407   2.861 -1.4274  1.7626 -0.8409
  534MOL0     H72076   7.555   3.182   4.612 -1.2597  0.9394  0.6364
  534MOL0     H72077   7.687   3.071   4.784  1.4728 -1.6278 -0.5356
  534MOL0     H72078   7.708   2.658   5.058 -1.7411  1.1277 -0.4447
  534MOL0     H72079   7.803   2.532   5.230 -0.1938  1.1411 -2.8180
  534MOL0     H72080   7.923   2.712   5.623  0.3135 -0.0445 -0.4322
  534MOL0     H72081   7.768   2.692   5.659  3.2310  2.9648  1.2745
  534MOL0     H72082   7.816   2.442   5.744 -2.0465  2.7296  1.0425
  534MOL0     H72083   7.941   2.560   5.793  1.5828 -2.0470  1.0551
  534MOL0     H72084   8.077   2.507   5.606 -2.9410  1.2107 -0.0173
  534MOL0     H72085   7.978   2.381   5.536  0.8618 -0.9039  0.2509
  534MOL0     H72086   8.064   2.365   5.814  2.8925 -1.4990  0.2414
  534MOL0     H72087   8.163   2.285   5.684  0.4516 -0.8240  0.6113
  534MOL0     H72088   7.821   2.028   5.712 -1.4767  0.5312  0.3422
  534MOL0     H72089   7.704   2.835   5.525 -0.4198 -2.6402  1.0275
  534MOL0     H72090   7.593   2.971   5.338 -3.1754 -0.9748  0.0203
  535MOL0     O72091  10.333   9.848   1.917 -0.0866  0.1719  0.5488
  535MOL0     C72092  10.358   9.965   1.946 -0.4440 -0.0917  0.3265
  535MOL0     O72093  10.441  10.048   1.876  0.2041  0.5843  0.2911
  535MOL0     C72094  10.500   9.986   1.769  0.3804  1.0617  0.6841
  535MOL0     C72095  10.635   9.963   1.771 -0.4318  0.1303 -0.2290
  535MOL0     C72096  10.704   9.907   1.670 -0.1698  0.5666 -0.1355
  535MOL0     C72097  10.638   9.854   1.564  0.4968  0.7277 -0.6108
  535MOL0     O72098  10.705   9.811   1.455 -0.6756  0.3176  0.0049
  535MOL0     C72099  10.798   9.699   1.467 -0.1384  0.4646  0.2322
  535MOL0     C72100  10.818   9.623   1.329  0.4830 -0.8028 -0.0534
  535MOL0     C72101  10.690   9.537   1.314  0.5032 -0.0409  0.0511
  535MOL0     C72102  10.696   9.451   1.193 -0.3554 -0.2605  0.4781
  535MOL0     C72103  10.653   9.536   1.073  0.2143  0.8604  0.6300
  535MOL0     C72104  10.502   9.558   1.065 -0.1705 -0.2238 -1.0286
  535MOL0     C72105  10.460   9.620   0.931  0.5727 -0.1133 -0.5832
  535MOL0     C72106  10.517   9.758   0.904 -0.2922  0.2770  0.5988
  535MOL0     N72107  10.492   9.852   1.019  1.1942  0.0529  0.5961
  535MOL0     C72108  10.584   9.921   1.090  0.7837 -0.2286  0.1024
  535MOL0     C72109  10.513   9.990   1.184 -1.4588  0.0438  0.7889
  535MOL0     C72110  10.584  10.091   1.268  0.1087 -0.5019  0.1348
  535MOL0     C72111  10.500  10.202   1.334  0.5409 -0.6023  0.4929
  535MOL0     C72112  10.438  10.294   1.232  0.2492 -0.0004  0.0022
  535MOL0     C72113  10.542  10.381   1.167 -0.0232 -0.3404 -0.3090
  535MOL0     O72114  10.617  10.303   1.065 -0.1808  0.4017 -0.4792
  535MOL0     C72115  10.740  10.348   1.020 -0.1316 -0.7121  0.2051
  535MOL0     C72116  10.801  10.270   0.920 -0.0372  0.1285 -0.2055
  535MOL0     C72117  10.922  10.304   0.856 -1.1685  1.0306 -0.2965
  535MOL0     C72118  10.963  10.205   0.748 -0.5834  0.1427  0.1167
  535MOL0     C72119  10.989  10.423   0.898  0.4141 -0.3318 -0.2124
  535MOL0     C72120  11.107  10.478   0.823 -0.0958 -0.4778 -0.5426
  535MOL0     O72121  11.124  10.447   0.693 -0.0130  0.2423 -0.1219
  535MOL0     C72122  11.240  10.448   0.621 -0.8036 -0.4477  0.6437
  535MOL0     C72123  11.237  10.393   0.494 -0.2199 -0.6804 -0.5638
  535MOL0     C72124  11.342  10.399   0.400 -0.5081  0.0636  0.0508
  535MOL0     C72125  11.458  10.468   0.434 -0.3439  0.2529 -0.8573
  535MOL0     O72126  11.569  10.471   0.350 -0.3480  0.8424 -0.5678
  535MOL0     C72127  11.683  10.401   0.396 -0.5799  0.4610  0.3543
  535MOL0     C72128  11.803  10.486   0.436 -0.7405 -0.8793  0.6287
  535MOL0     C72129  11.931  10.418   0.418 -0.0707 -0.6945  0.8070
  535MOL0     C72130  12.046  10.514   0.429 -0.5011  0.7916 -0.1413
  535MOL0     C72131  12.190  10.467   0.388 -0.1143 -0.1940  0.0829
  535MOL0     C72132  12.199  10.458   0.234  0.0348 -0.6298 -0.1012
  535MOL0     C72133  12.342  10.436   0.192 -0.5084  0.2186  1.0401
  535MOL0     C72134  12.369  10.473   0.038  1.1152  0.2691 -0.9061
  535MOL0    Cl72135  12.515  10.389  -0.032 -0.0375 -0.0296 -0.0483
  535MOL0     C72136  11.462  10.530   0.562 -0.0292  0.0997 -0.2697
  535MOL0     C72137  11.362  10.512   0.654  0.0977 -1.1109  0.2808
  535MOL0     O72138  11.189  10.519   0.898 -0.6056  0.7937  0.0442
  535MOL0     C72139  10.927  10.500   0.996 -0.2854 -0.6510  0.2197
  535MOL0     C72140  10.803  10.464   1.057 -0.0676 -0.0563 -0.2030
  535MOL0     N72141  10.387   9.943   1.181  0.1823 -0.1361  0.2221
  535MOL0     N72142  10.370   9.861   1.087  0.0382  0.5628  0.2513
  535MOL0     C72143  10.506   9.887   1.545 -0.0915  0.5959  0.8115
  535MOL0     C72144  10.437   9.954   1.647 -0.7494  0.4819  0.4917
  535MOL0     C72145  10.285  10.041   2.051 -0.5431 -0.2546  0.5164
  535MOL0     C72146  10.324  10.170   2.083  0.0666 -0.8742  0.4000
  535MOL0     C72147  10.253  10.247   2.178 -0.1838  0.2163  0.1200
  535MOL0     C72148  10.148  10.184   2.246  0.1907 -0.4855 -0.2307
  535MOL0     O72149  10.092  10.245   2.351 -0.1973  0.0286  0.5984
  535MOL0     C72150  10.134  10.186   2.471  0.1963  0.7669  0.3170
  535MOL0     C72151  10.153  10.287   2.580  0.1759 -0.0445  0.0823
  535MOL0     C72152  10.213  10.230   2.709 -0.2280 -0.9395  0.2980
  535MOL0     C72153  10.121  10.138   2.794 -0.5039  0.1479 -0.7534
  535MOL0     C72154  10.202  10.075   2.901  0.8121 -0.4137 -0.2145
  535MOL0     C72155  10.279  10.026   2.982  0.4010 -0.5535 -0.3018
  535MOL0     C72156  10.113  10.053   2.221  0.8926 -0.1149  0.7160
  535MOL0     C72157  10.177   9.985   2.124  0.0314  0.3435 -0.2695
  535MOL0     H72158  10.693  10.003   1.854  1.5795 -0.0981 -1.4692
  535MOL0     H72159  10.812   9.904   1.660 -0.3892 -0.3550 -2.6770
  535MOL0     H72160  10.901   9.726   1.494 -0.3667  0.4248  1.1903
  535MOL0     H72161  10.760   9.625   1.538 -2.7104  0.9808 -0.5222
  535MOL0     H72162  10.819   9.686   1.240 -1.3154 -3.2480 -1.9378
  535MOL0     H72163  10.903   9.556   1.340  1.6348  0.8761  2.0867
  535MOL0     H72164  10.684   9.486   1.411 -1.6494  1.6159  0.8897
  535MOL0     H72165  10.602   9.602   1.315 -2.6188 -3.9529  0.0230
  535MOL0     H72166  10.799   9.422   1.172  0.0760  1.4221  0.0859
  535MOL0     H72167  10.634   9.362   1.209 -0.2641 -0.0878  1.9713
  535MOL0     H72168  10.719   9.623   1.074  0.6373  0.5519  0.3010
  535MOL0     H72169  10.679   9.479   0.983 -0.8053 -1.1176  1.5336
  535MOL0     H72170  10.455   9.460   1.072  0.5660 -0.6601 -2.0026
  535MOL0     H72171  10.477   9.627   1.147  1.9514  1.3788 -1.6335
  535MOL0     H72172  10.473   9.548   0.849 -1.7744  0.7706 -1.8268
  535MOL0     H72173  10.352   9.639   0.930  0.8091  1.7312  1.5446
  535MOL0     H72174  10.476   9.804   0.814 -0.3145 -2.9439 -1.1718
  535MOL0     H72175  10.626   9.758   0.903 -0.2577  2.2804 -0.3079
  535MOL0     H72176  10.691   9.923   1.072  1.1204  1.0523  1.9684
  535MOL0     H72177  10.600  10.045   1.366  1.8447  2.0358  1.1362
  535MOL0     H72178  10.678  10.126   1.224  0.5386 -4.3334 -2.5362
  535MOL0     H72179  10.575  10.254   1.394 -1.1294 -1.3817  3.4378
  535MOL0     H72180  10.424  10.163   1.403 -2.6045  2.6259 -0.8255
  535MOL0     H72181  10.371  10.356   1.292  0.9893 -0.6485  1.5465
  535MOL0     H72182  10.379  10.233   1.163 -0.5603 -3.6745  3.5378
  535MOL0     H72183  10.620  10.407   1.240  0.4414 -0.3156 -0.8072
  535MOL0     H72184  10.489  10.466   1.122  0.1777 -0.1083 -0.1110
  535MOL0     H72185  10.744  10.184   0.889  0.7554  0.3127 -2.3714
  535MOL0     H72186  10.891  10.123   0.742  1.9814 -2.2100 -0.9596
  535MOL0     H72187  10.970  10.255   0.651 -0.3829 -0.7590 -0.3482
  535MOL0     H72188  11.061  10.168   0.779  0.7608  0.2137 -3.5512
  535MOL0     H72189  11.144  10.339   0.484 -3.8407  4.1474  2.4952
  535MOL0     H72190  11.327  10.343   0.308 -2.6468  0.7506 -0.0823
  535MOL0     H72191  11.655  10.330   0.474 -1.6872 -0.8625 -1.1793
  535MOL0     H72192  11.710  10.335   0.313  0.7216 -0.1095  1.2091
  535MOL0     H72193  11.798  10.570   0.367  2.6279  0.5087  1.8499
  535MOL0     H72194  11.802  10.513   0.542  0.6843  0.9368  0.2304
  535MOL0     H72195  11.944  10.375   0.318  2.5577 -0.0654  0.7974
  535MOL0     H72196  11.948  10.336   0.489  2.2728 -0.1581  0.9619
  535MOL0     H72197  12.015  10.596   0.365  0.6984  2.7436  1.6235
  535MOL0     H72198  12.054  10.551   0.532 -0.2273  3.1979 -0.9507
  535MOL0     H72199  12.204  10.373   0.442 -1.8649 -1.4371 -1.4714
  535MOL0     H72200  12.256  10.549   0.415  2.3629 -1.9563 -0.3169
  535MOL0     H72201  12.136  10.375   0.202 -2.0214  0.8636 -0.1506
  535MOL0     H72202  12.159  10.551   0.192 -0.6312 -1.0760 -0.4900
  535MOL0     H72203  12.366  10.330   0.204 -3.0943 -0.3393  2.0411
  535MOL0     H72204  12.414  10.497   0.247  1.9928 -1.7934  0.1999
  535MOL0     H72205  12.380  10.579   0.014  0.7912 -0.0391 -2.5917
  535MOL0     H72206  12.285  10.444  -0.027  0.2855  2.1743 -0.7690
  535MOL0     H72207  11.554  10.579   0.592 -0.1320  0.4430 -0.5085
  535MOL0     H72208  11.374  10.560   0.750  0.6738 -0.4668 -0.1001
  535MOL0     H72209  10.968  10.595   1.028 -2.8233  0.4763  0.4194
  535MOL0     H72210  10.766  10.527   1.138  1.7451  2.1172 -0.9775
  535MOL0     H72211  10.448   9.848   1.462  2.0075 -1.9656  0.4441
  535MOL0     H72212  10.331   9.975   1.645 -0.8693 -0.1321  0.5199
  535MOL0     H72213  10.409  10.218   2.036  0.1525  0.0258  1.4406
  535MOL0     H72214  10.279  10.350   2.198 -2.7394  0.7253  1.2773
  535MOL0     H72215  10.073  10.100   2.500  3.0414 -0.7176  2.4404
  535MOL0     H72216  10.235  10.143   2.468  0.0349  0.3084  1.0216
  535MOL0     H72217  10.055  10.333   2.599  0.0933 -0.6563  1.2431
  535MOL0     H72218  10.219  10.366   2.545  1.6561 -0.8063  1.0427
  535MOL0     H72219  10.255  10.307   2.774 -1.0874 -1.6609  1.7447
  535MOL0     H72220  10.304  10.174   2.681  0.3438 -0.2132  0.6696
  535MOL0     H72221  10.093  10.056   2.726 -0.2524 -2.1205  1.7263
  535MOL0     H72222  10.035  10.193   2.833 -1.1422 -1.9192  0.9446
  535MOL0     H72223  10.350   9.989   3.052 -0.9030  0.3070  1.5787
  535MOL0     H72224  10.028  10.015   2.276  1.0793  1.0296  1.8436
  535MOL0     H72225  10.142   9.889   2.088 -2.8502  0.9159  0.7683
  536MOL0     O72226   2.016   4.409   8.980  0.1591  1.2350  0.2761
  536MOL0     C72227   1.968   4.311   8.918 -0.2081 -0.1196 -0.8487
  536MOL0     O72228   2.025   4.181   8.916  0.1949  0.2554  0.6903
  536MOL0     C72229   2.143   4.177   8.987  0.5141 -0.2928 -0.5342
  536MOL0     C72230   2.261   4.124   8.927  0.7403  0.0811 -0.5254
  536MOL0     C72231   2.369   4.107   9.016 -0.0036  0.2495  0.3128
  536MOL0     C72232   2.369   4.147   9.150  0.0977  0.2252 -0.4827
  536MOL0     O72233   2.473   4.125   9.232 -0.0056  0.4971  0.0417
  536MOL0     C72234   2.450   4.020   9.331  0.4276 -0.0945 -0.1569
  536MOL0     C72235   2.570   4.008   9.426 -0.0006 -0.6971 -0.3582
  536MOL0     C72236   2.708   4.006   9.349 -0.7848  0.0391 -0.6331
  536MOL0     C72237   2.722   3.906   9.224  0.2211  0.9559  0.1417
  536MOL0     C72238   2.861   3.923   9.157  0.2631 -0.5394  0.3272
  536MOL0     C72239   2.902   3.794   9.083 -0.4198  0.2308  0.1748
  536MOL0     C72240   3.015   3.833   8.990  0.3964  0.5643  0.3462
  536MOL0     C72241   3.048   3.697   8.913 -0.2959 -0.1437  0.5193
  536MOL0     N72242   3.036   3.710   8.769  1.0362  0.2802  0.3877
  536MOL0     C72243   3.126   3.760   8.680 -0.2293  0.0107  0.4063
  536MOL0     C72244   3.054   3.770   8.561 -0.7417  0.7423  0.5740
  536MOL0     C72245   3.092   3.820   8.428 -0.1125 -0.2133 -0.0144
  536MOL0     C72246   3.176   3.936   8.454 -1.0590 -0.6151 -0.4646
  536MOL0     C72247   3.145   4.038   8.338 -0.1234  0.7838 -0.0402
  536MOL0     C72248   3.173   3.976   8.201  0.8653 -0.3531 -0.1383
  536MOL0     O72249   3.274   3.874   8.196  0.3093  0.7045  0.0927
  536MOL0     C72250   3.409   3.910   8.182  0.6849 -0.4295  0.2366
  536MOL0     C72251   3.454   4.050   8.185  0.2845  0.3457  1.1289
  536MOL0     C72252   3.590   4.077   8.161 -0.6705 -0.0923 -0.3914
  536MOL0     C72253   3.626   4.224   8.157  0.3475  0.6900  0.0875
  536MOL0     C72254   3.683   3.971   8.127  0.0670  0.1364  0.0651
  536MOL0     C72255   3.826   3.997   8.093  0.2405 -1.2293  0.1577
  536MOL0     O72256   3.906   3.894   8.088 -0.0827 -0.4577 -0.0253
  536MOL0     C72257   4.014   3.904   8.007  0.0735  0.1033  0.3032
  536MOL0     C72258   4.003   3.850   7.874 -0.5259 -0.0306 -1.1260
  536MOL0     C72259   4.111   3.826   7.796 -1.0313  1.0615 -0.1491
  536MOL0     C72260   4.238   3.860   7.851  1.1445 -0.4474 -0.3913
  536MOL0     O72261   4.358   3.837   7.785 -0.1547  0.4056  0.0693
  536MOL0     C72262   4.360   3.791   7.645  0.0748  0.2914 -1.1904
  536MOL0     C72263   4.512   3.750   7.621 -0.2324 -0.0262  0.0362
  536MOL0     C72264   4.551   3.683   7.483 -0.4492 -0.4091 -0.2786
  536MOL0     C72265   4.663   3.583   7.492 -0.3533 -0.7553 -0.3216
  536MOL0     C72266   4.726   3.540   7.362  0.1803  0.5120 -1.0072
  536MOL0     C72267   4.618   3.514   7.256 -0.0180 -0.1114  0.4819
  536MOL0     C72268   4.679   3.432   7.145  0.8914  0.1645  0.2172
  536MOL0     C72269   4.572   3.370   7.058  0.1060 -0.0898 -0.1341
  536MOL0    Cl72270   4.642   3.247   6.957 -0.4735 -0.6441  0.1301
  536MOL0     C72271   4.256   3.915   7.978 -0.6974 -0.0161  0.0034
  536MOL0     C72272   4.146   3.934   8.062  0.7358 -1.3417  1.0071
  536MOL0     O72273   3.860   4.107   8.043  0.1074  0.3767 -0.0571
  536MOL0     C72274   3.630   3.839   8.127 -0.3267  0.0781 -0.6439
  536MOL0     C72275   3.496   3.818   8.152 -0.6606  0.2301 -0.3186
  536MOL0     N72276   2.925   3.718   8.584 -0.2600  0.5833  0.7096
  536MOL0     N72277   2.916   3.682   8.706 -0.1391 -0.6698  0.5532
  536MOL0     C72278   2.248   4.182   9.209  0.6060  0.2857  1.1500
  536MOL0     C72279   2.141   4.200   9.119  0.8089 -0.3315 -0.1183
  536MOL0     C72280   1.860   4.340   8.838 -0.3679 -0.2328 -0.1077
  536MOL0     C72281   1.771   4.246   8.785  0.0514  0.6440  0.8106
  536MOL0     C72282   1.670   4.274   8.691 -0.2970  0.1626 -0.8202
  536MOL0     C72283   1.658   4.397   8.635  0.1126  0.2233  0.5682
  536MOL0     O72284   1.552   4.440   8.555  0.0638  0.1421 -0.4311
  536MOL0     C72285   1.517   4.341   8.454 -0.8065  0.2621  0.4685
  536MOL0     C72286   1.647   4.322   8.366  0.0648 -0.1415 -0.1208
  536MOL0     C72287   1.684   4.463   8.315 -0.2777 -0.4364  1.2002
  536MOL0     C72288   1.591   4.519   8.205  0.9633  0.1003  0.0347
  536MOL0     C72289   1.674   4.631   8.149  0.6714  0.2354 -0.0993
  536MOL0     C72290   1.726   4.733   8.120  0.1830 -0.1911  0.3262
  536MOL0     C72291   1.750   4.498   8.682  0.7622 -0.4704 -0.0432
  536MOL0     C72292   1.845   4.470   8.779 -0.3485  0.2930  0.8772
  536MOL0     H72293   2.262   4.097   8.822 -1.9302 -2.6522 -0.0042
  536MOL0     H72294   2.459   4.074   8.965  0.4966  1.7319  0.1567
  536MOL0     H72295   2.358   4.032   9.389 -0.5145  1.3113 -1.8499
  536MOL0     H72296   2.440   3.927   9.275 -0.3135  1.9884 -3.7743
  536MOL0     H72297   2.558   4.101   9.483  1.7874  0.7163 -2.1616
  536MOL0     H72298   2.563   3.915   9.485  3.1582 -0.0546  1.2225
  536MOL0     H72299   2.726   4.104   9.303 -1.9315 -0.3503 -1.9854
  536MOL0     H72300   2.776   3.976   9.429  1.8967  0.3349 -2.6701
  536MOL0     H72301   2.713   3.804   9.263 -0.4982  1.2902  0.8641
  536MOL0     H72302   2.641   3.920   9.152  0.1713  2.3177  0.4380
  536MOL0     H72303   2.864   4.019   9.103 -0.8785 -0.4535  0.3995
  536MOL0     H72304   2.930   3.950   9.238  0.0250  2.1945 -0.2614
  536MOL0     H72305   2.940   3.719   9.152  2.7429  0.5230 -1.0611
  536MOL0     H72306   2.816   3.754   9.028 -0.9222  3.9331 -2.1145
  536MOL0     H72307   2.972   3.903   8.918 -1.6522 -1.0997 -0.1699
  536MOL0     H72308   3.100   3.866   9.050 -1.0533  1.4572  2.0251
  536MOL0     H72309   2.978   3.622   8.950 -0.6757  1.3566  3.0542
  536MOL0     H72310   3.149   3.665   8.940  0.4867 -0.1122 -2.0620
  536MOL0     H72311   3.226   3.797   8.699  0.1846 -0.2515 -1.1255
  536MOL0     H72312   3.150   3.747   8.372  1.7007  0.8237  0.4338
  536MOL0     H72313   2.998   3.841   8.376 -1.3483 -1.2847  1.6614
  536MOL0     H72314   3.282   3.911   8.459 -1.2792 -2.3268 -2.6958
  536MOL0     H72315   3.161   3.989   8.548  1.5840  5.0209 -2.7108
  536MOL0     H72316   3.197   4.133   8.356 -0.8189  1.3234 -0.8149
  536MOL0     H72317   3.039   4.065   8.335 -0.1819  0.5990 -3.1750
  536MOL0     H72318   3.192   4.056   8.128  0.1854 -0.5773 -0.5700
  536MOL0     H72319   3.087   3.917   8.169  2.4872 -1.8514 -1.9894
  536MOL0     H72320   3.395   4.134   8.221  1.6911  2.2703 -0.8000
  536MOL0     H72321   3.537   4.288   8.155  1.4955  2.3740  0.1496
  536MOL0     H72322   3.686   4.239   8.247  1.6621 -1.0733 -0.4309
  536MOL0     H72323   3.666   4.248   8.058  3.2214  0.8326  1.1810
  536MOL0     H72324   3.901   3.820   7.853 -0.9434  0.1780  0.4800
  536MOL0     H72325   4.077   3.780   7.703 -0.7082  3.0168 -1.3039
  536MOL0     H72326   4.297   3.705   7.622  2.9072 -1.5619 -2.6301
  536MOL0     H72327   4.326   3.863   7.570  0.8740 -1.0136 -2.8636
  536MOL0     H72328   4.576   3.828   7.663 -1.0171 -0.0872  1.4136
  536MOL0     H72329   4.528   3.666   7.689  2.2767 -0.2291 -0.6944
  536MOL0     H72330   4.580   3.763   7.416  2.2186 -1.6243 -0.6810
  536MOL0     H72331   4.460   3.646   7.434  0.3344 -1.0835 -1.2621
  536MOL0     H72332   4.748   3.631   7.541  0.3178 -2.5166  0.2901
  536MOL0     H72333   4.635   3.488   7.538 -1.5606 -2.9054 -4.8892
  536MOL0     H72334   4.797   3.462   7.391 -0.1288  1.3824  2.5724
  536MOL0     H72335   4.787   3.624   7.328  0.0275  1.6432  1.3297
  536MOL0     H72336   4.529   3.462   7.293  0.4502 -0.6910  0.8273
  536MOL0     H72337   4.566   3.596   7.207  0.6780 -2.4840 -4.9727
  536MOL0     H72338   4.729   3.345   7.188 -0.1111 -0.3586  0.3644
  536MOL0     H72339   4.746   3.497   7.090 -0.8212  0.3223 -1.8040
  536MOL0     H72340   4.528   3.456   7.006  0.7047  0.4904  0.2902
  536MOL0     H72341   4.491   3.322   7.114  1.7158 -1.9492  0.7174
  536MOL0     H72342   4.356   3.953   7.998 -0.4790  0.7194 -2.2435
  536MOL0     H72343   4.149   3.970   8.164 -0.4441 -4.6265  2.3505
  536MOL0     H72344   3.697   3.757   8.103 -0.2107  0.0105 -0.1096
  536MOL0     H72345   3.475   3.712   8.161 -0.8505  0.3751  1.0758
  536MOL0     H72346   2.240   4.195   9.316 -4.0779 -1.7513  1.2976
  536MOL0     H72347   2.057   4.243   9.173  0.9145  1.6385 -1.3993
  536MOL0     H72348   1.766   4.145   8.824  0.7006 -1.0346 -3.0612
  536MOL0     H72349   1.602   4.193   8.667 -1.6739  1.1126 -0.2691
  536MOL0     H72350   1.471   4.252   8.498 -0.0393 -0.8115 -0.8114
  536MOL0     H72351   1.436   4.378   8.391 -0.7965 -1.1264 -0.4022
  536MOL0     H72352   1.632   4.264   8.275 -0.1342 -0.3728  0.0571
  536MOL0     H72353   1.720   4.268   8.427 -1.7945  0.3268  2.7375
  536MOL0     H72354   1.782   4.448   8.269 -0.3999 -0.4104  0.9290
  536MOL0     H72355   1.692   4.541   8.391 -1.2076  1.0492 -0.1601
  536MOL0     H72356   1.496   4.560   8.242  0.6709  0.3870 -0.9988
  536MOL0     H72357   1.577   4.445   8.126 -2.6431  2.9841 -2.3586
  536MOL0     H72358   1.782   4.812   8.075 -1.3324  0.8813  0.2362
  536MOL0     H72359   1.745   4.598   8.639  0.2891 -1.2433 -1.9063
  536MOL0     H72360   1.910   4.548   8.818 -1.0305  1.5344 -0.3883
  537MOL0     O72361   6.031   6.900   1.994  0.1015  0.7669  0.1382
  537MOL0     C72362   6.078   6.857   2.100 -0.6094 -0.2417  0.4382
  537MOL0     O72363   6.005   6.813   2.208  0.4794  0.2293 -0.1187
  537MOL0     C72364   5.867   6.800   2.185 -0.3217  0.7021  0.1440
  537MOL0     C72365   5.817   6.720   2.079  0.6830  0.1076  0.3709
  537MOL0     C72366   5.678   6.691   2.067 -0.1919  0.4709  0.0669
  537MOL0     C72367   5.583   6.749   2.151 -1.2484 -0.5426  0.0442
  537MOL0     O72368   5.451   6.737   2.122 -0.1744 -0.5032  0.4197
  537MOL0     C72369   5.373   6.856   2.117  0.3256  0.9210  0.3409
  537MOL0     C72370   5.300   6.900   2.238  0.1952 -0.3721  0.3745
  537MOL0     C72371   5.221   7.026   2.194 -0.0971  0.5269  0.1839
  537MOL0     C72372   5.134   7.095   2.299 -0.5008 -0.3012  0.1296
  537MOL0     C72373   5.026   6.999   2.365 -0.1378 -0.3591  0.1375
  537MOL0     C72374   4.949   7.079   2.464 -0.3753  0.1540 -0.0809
  537MOL0     C72375   4.809   7.035   2.499  0.5133  0.2393  0.8011
  537MOL0     C72376   4.804   6.892   2.551 -0.7104 -0.4950  0.2854
  537MOL0     N72377   4.884   6.874   2.676  0.5605 -0.6911 -0.7229
  537MOL0     C72378   4.838   6.899   2.802  0.7604  0.4511  0.4628
  537MOL0     C72379   4.931   6.862   2.889 -1.0602  0.4552  0.1119
  537MOL0     C72380   4.924   6.869   3.039  0.3225 -0.4612 -0.4263
  537MOL0     C72381   4.996   6.761   3.119 -0.4077  0.5064  0.6213
  537MOL0     C72382   5.007   6.801   3.265 -0.0912 -0.2582 -0.7521
  537MOL0     C72383   5.147   6.862   3.293 -0.1314 -0.3088  0.0557
  537MOL0     O72384   5.143   6.936   3.427 -0.5826 -0.0693  0.6301
  537MOL0     C72385   5.114   6.859   3.541 -0.5023  0.1015  0.4190
  537MOL0     C72386   5.106   6.720   3.548  0.6077 -0.4660 -0.7918
  537MOL0     C72387   5.078   6.649   3.665  0.1165 -0.0737  0.5520
  537MOL0     C72388   5.051   6.502   3.649  0.4300  0.3551 -0.3275
  537MOL0     C72389   5.068   6.719   3.784 -0.5279  0.3760  0.2484
  537MOL0     C72390   5.039   6.650   3.918  0.2357  0.2304 -0.0068
  537MOL0     O72391   5.004   6.742   4.013 -0.0574  0.9365  0.2155
  537MOL0     C72392   4.986   6.708   4.145 -0.0503  0.5985  0.4967
  537MOL0     C72393   5.082   6.759   4.239  0.4249  0.0747  0.2967
  537MOL0     C72394   5.061   6.741   4.375 -0.3092  0.7752 -0.6386
  537MOL0     C72395   4.961   6.652   4.417  0.9556 -0.5902 -0.5810
  537MOL0     O72396   4.961   6.610   4.545  0.3432  0.3689 -0.2650
  537MOL0     C72397   4.950   6.710   4.638 -0.4662  0.0352 -0.3094
  537MOL0     C72398   4.825   6.686   4.727  0.1162  0.4846 -0.3624
  537MOL0     C72399   4.831   6.579   4.831 -0.3305  0.4378  0.6869
  537MOL0     C72400   4.695   6.541   4.886  0.8053 -0.8199  0.0234
  537MOL0     C72401   4.637   6.418   4.806  0.0521 -0.6877  0.1938
  537MOL0     C72402   4.501   6.373   4.861 -0.6018 -0.7176 -0.1227
  537MOL0     C72403   4.385   6.479   4.855  0.1064  0.1411 -0.0919
  537MOL0     C72404   4.283   6.433   4.748  0.2374 -0.4422  0.6095
  537MOL0    Cl72405   4.148   6.539   4.738  0.2468  0.4010  0.2804
  537MOL0     C72406   4.864   6.603   4.332  0.4296 -0.4144 -0.3830
  537MOL0     C72407   4.878   6.629   4.194  1.5004 -0.9452  0.5177
  537MOL0     O72408   5.048   6.528   3.934  0.1218 -0.0256  0.1390
  537MOL0     C72409   5.076   6.855   3.777 -0.4878 -0.2520 -0.9561
  537MOL0     C72410   5.095   6.926   3.664  0.4878  0.5663 -0.1038
  537MOL0     N72411   5.033   6.811   2.808 -0.3461 -0.2398  0.0877
  537MOL0     N72412   4.998   6.822   2.686 -0.4586 -0.1388 -0.6718
  537MOL0     C72413   5.640   6.814   2.262 -0.0848  0.5509  0.8789
  537MOL0     C72414   5.775   6.840   2.285  1.3818 -0.3837 -0.0142
  537MOL0     C72415   6.219   6.859   2.125 -0.4714 -0.1601 -0.3941
  537MOL0     C72416   6.277   6.812   2.243  0.2981  1.1494 -0.2699
  537MOL0     C72417   6.415   6.817   2.264 -0.0015  1.1066  0.8902
  537MOL0     C72418   6.500   6.850   2.160  0.3891 -0.2022  0.0220
  537MOL0     O72419   6.636   6.871   2.189  0.6405 -0.0071  0.4368
  537MOL0     C72420   6.711   6.817   2.298 -0.3613 -0.7130  0.4960
  537MOL0     C72421   6.721   6.663   2.294 -0.4517  0.7601 -0.4670
  537MOL0     C72422   6.832   6.605   2.376 -1.1940 -0.8140 -0.9715
  537MOL0     C72423   6.903   6.478   2.326  0.2708 -0.3010  0.4236
  537MOL0     C72424   7.015   6.447   2.408  0.2651 -0.4775  0.4017
  537MOL0     C72425   7.124   6.424   2.457 -0.3068 -0.9863 -0.4043
  537MOL0     C72426   6.443   6.910   2.049  0.0979 -0.0957  0.1778
  537MOL0     C72427   6.304   6.912   2.027 -0.1370 -0.5142 -0.6505
  537MOL0     H72428   5.879   6.680   1.999  0.5075 -0.3247  0.4460
  537MOL0     H72429   5.659   6.629   1.980  1.0557  3.7076 -2.7312
  537MOL0     H72430   5.443   6.930   2.076  0.5733  0.3663 -0.2599
  537MOL0     H72431   5.299   6.828   2.042  1.2177  0.1617 -0.2654
  537MOL0     H72432   5.233   6.821   2.274  2.7698 -3.3803 -0.8952
  537MOL0     H72433   5.372   6.930   2.314  0.7940  2.3065 -1.1245
  537MOL0     H72434   5.304   7.095   2.171  1.5116 -1.3632  0.0547
  537MOL0     H72435   5.168   7.004   2.101  3.8321 -1.4163 -1.8514
  537MOL0     H72436   5.199   7.121   2.383 -2.1536  3.2424  0.4944
  537MOL0     H72437   5.094   7.187   2.256 -0.5318 -1.6075 -2.8899
  537MOL0     H72438   4.964   6.956   2.286 -1.0047 -0.7950  1.0460
  537MOL0     H72439   5.066   6.909   2.412 -0.5708 -0.4683  0.2914
  537MOL0     H72440   5.004   7.088   2.558 -1.5291  0.1227  0.6226
  537MOL0     H72441   4.932   7.178   2.422 -0.7046  0.3987  0.6120
  537MOL0     H72442   4.753   7.103   2.564  2.1952  0.6688  1.8615
  537MOL0     H72443   4.756   7.037   2.403  1.3474 -1.6122  0.2412
  537MOL0     H72444   4.850   6.819   2.483 -0.1279  2.3110 -2.5499
  537MOL0     H72445   4.699   6.877   2.576 -1.5992  4.8743  1.0750
  537MOL0     H72446   4.744   6.939   2.838 -0.1370 -1.3016  0.2064
  537MOL0     H72447   4.968   6.967   3.056  2.1141 -0.9459 -1.8588
  537MOL0     H72448   4.818   6.868   3.066  0.0019  0.7549 -1.5544
  537MOL0     H72449   5.098   6.753   3.079 -0.5630 -0.7554  0.4385
  537MOL0     H72450   4.942   6.666   3.115 -0.9750  0.7321  2.3865
  537MOL0     H72451   4.991   6.707   3.319  1.2247  0.9006  1.8109
  537MOL0     H72452   4.934   6.879   3.287  1.6917  1.5633 -1.0265
  537MOL0     H72453   5.174   6.939   3.220 -0.2739 -0.2699  0.0449
  537MOL0     H72454   5.218   6.779   3.291 -3.2929 -3.2417  0.2697
  537MOL0     H72455   5.113   6.650   3.466 -2.6534 -1.2969 -0.4868
  537MOL0     H72456   5.048   6.486   3.541 -1.1025 -2.0590 -0.0305
  537MOL0     H72457   5.128   6.444   3.701  0.5235  2.4190  1.9967
  537MOL0     H72458   4.948   6.479   3.679 -0.3054 -2.0293 -4.0276
  537MOL0     H72459   5.168   6.824   4.225  0.0166  0.5302 -0.0882
  537MOL0     H72460   5.139   6.771   4.445  0.3634 -0.1125 -0.9889
  537MOL0     H72461   5.048   6.719   4.684 -1.5311  0.0112  2.0741
  537MOL0     H72462   4.936   6.811   4.598  0.5997  1.6371  3.0612
  537MOL0     H72463   4.818   6.773   4.793  2.8054  0.2637  0.3326
  537MOL0     H72464   4.732   6.669   4.673  0.1066 -3.3305  0.5839
  537MOL0     H72465   4.890   6.609   4.918  2.2728 -2.0226 -0.0713
  537MOL0     H72466   4.891   6.494   4.794 -2.4564  0.2696 -2.8680
  537MOL0     H72467   4.703   6.516   4.992 -0.9859  1.6781  0.8480
  537MOL0     H72468   4.633   6.630   4.872 -0.7938 -1.7826  0.6388
  537MOL0     H72469   4.705   6.334   4.827 -1.4648 -2.3021 -1.0538
  537MOL0     H72470   4.632   6.423   4.697  1.0732 -0.3921  0.1446
  537MOL0     H72471   4.471   6.283   4.806  1.1378 -2.7728  2.1276
  537MOL0     H72472   4.515   6.336   4.962  1.6592  1.3604  0.4303
  537MOL0     H72473   4.428   6.579   4.841  1.4490 -0.6656 -2.1129
  537MOL0     H72474   4.329   6.473   4.949 -1.5013 -0.1189 -1.0472
  537MOL0     H72475   4.246   6.331   4.760 -1.9820 -0.3008 -3.3294
  537MOL0     H72476   4.322   6.427   4.646 -2.5227 -0.2205 -0.5324
  537MOL0     H72477   4.775   6.552   4.367 -0.8041  2.7846  1.6328
  537MOL0     H72478   4.803   6.596   4.123  1.9590 -0.3893 -0.2398
  537MOL0     H72479   5.067   6.914   3.868 -0.7918  2.8542 -2.8421
  537MOL0     H72480   5.091   7.034   3.653 -3.2432  0.5981  0.3608
  537MOL0     H72481   5.571   6.853   2.337 -3.2691 -0.0528 -1.5543
  537MOL0     H72482   5.807   6.902   2.368 -0.2674 -0.1190  0.4450
  537MOL0     H72483   6.216   6.777   2.326  1.6646 -2.8136 -0.7293
  537MOL0     H72484   6.457   6.801   2.363  0.1022 -0.6262  0.5947
  537MOL0     H72485   6.810   6.863   2.305 -0.8209  0.2807  0.7080
  537MOL0     H72486   6.663   6.849   2.391 -0.1524  1.3616 -0.0522
  537MOL0     H72487   6.744   6.647   2.188 -0.1889  1.8995 -0.5911
  537MOL0     H72488   6.623   6.616   2.309  0.2725 -2.4142 -4.0802
  537MOL0     H72489   6.796   6.589   2.478  0.5718  5.6818  1.1744
  537MOL0     H72490   6.917   6.672   2.392 -0.5631 -2.2883  2.8096
  537MOL0     H72491   6.937   6.486   2.222  2.5598 -0.2118  1.1241
  537MOL0     H72492   6.830   6.396   2.321 -1.4427  1.2014  0.0105
  537MOL0     H72493   7.225   6.421   2.494 -1.0144 -0.4873  1.6611
  537MOL0     H72494   6.510   6.945   1.970  1.1859 -4.0247 -0.8697
  537MOL0     H72495   6.260   6.961   1.941 -1.1102  3.1288  1.6872
  538MOL0     O72496   6.237   6.984  10.686  0.5801  0.1417  0.4792
  538MOL0     C72497   6.225   6.882  10.620 -0.2916 -0.0709  0.2551
  538MOL0     O72498   6.194   6.755  10.661  0.5207 -0.0922  0.2459
  538MOL0     C72499   6.176   6.728  10.789  0.3109  0.4859  0.4779
  538MOL0     C72500   6.049   6.688  10.831  0.1350 -0.3615  0.3952
  538MOL0     C72501   6.022   6.629  10.954 -0.3178 -0.2156 -0.2147
  538MOL0     C72502   6.127   6.614  11.050  0.9793  0.5237 -0.5526
  538MOL0     O72503   6.093   6.570  11.178 -0.0822 -0.2335  0.2430
  538MOL0     C72504   6.090   6.679  11.271  0.3688  0.0065 -0.3096
  538MOL0     C72505   5.952   6.733  11.294  0.7378  0.3223 -0.5521
  538MOL0     C72506   5.926   6.829  11.409 -0.0899  0.9016  0.0844
  538MOL0     C72507   5.925   6.975  11.368 -0.3604  0.0500 -0.0036
  538MOL0     C72508   6.065   7.046  11.384 -0.2449 -1.1242  0.8511
  538MOL0     C72509   6.096   7.071  11.532 -0.8729  0.5464  0.2904
  538MOL0     C72510   6.240   7.133  11.561  0.5345  0.4812  0.6014
  538MOL0     C72511   6.360   7.055  11.508 -0.1820  0.6732  0.0826
  538MOL0     N72512   6.341   6.921  11.542 -0.4398 -0.2584 -0.2645
  538MOL0     C72513   6.334   6.875  11.672  0.0406 -0.8859 -0.3357
  538MOL0     C72514   6.339   6.740  11.672  0.6966 -0.3889  0.4258
  538MOL0     C72515   6.359   6.664  11.797 -0.0622 -0.7379  1.1080
  538MOL0     C72516   6.233   6.594  11.830 -0.2932  0.6241 -0.1136
  538MOL0     C72517   6.252   6.494  11.942  0.6088 -0.8829  0.2776
  538MOL0     C72518   6.115   6.445  11.998 -0.9945  0.5269 -1.0149
  538MOL0     O72519   6.133   6.368  12.120 -0.5568  0.3869 -0.0707
  538MOL0     C72520   6.017   6.338  12.195 -0.0935  0.5321  0.5760
  538MOL0     C72521   5.899   6.305  12.144  0.1567  0.7256 -0.3079
  538MOL0     C72522   5.794   6.253  12.231 -0.9454 -0.8603 -0.6658
  538MOL0     C72523   5.662   6.211  12.171  0.5644  0.4981 -0.8144
  538MOL0     C72524   5.807   6.235  12.374 -0.4458  0.0349 -0.4939
  538MOL0     C72525   5.703   6.192  12.482 -0.0005  0.2178 -0.1124
  538MOL0     O72526   5.720   6.233  12.609 -0.0165 -0.0250 -0.1235
  538MOL0     C72527   5.620   6.219  12.702 -0.3597  0.1143  0.1545
  538MOL0     C72528   5.634   6.125  12.804  0.5417  0.5094  0.2941
  538MOL0     C72529   5.532   6.115  12.905  0.2517 -0.9011  0.1248
  538MOL0     C72530   5.416   6.199  12.899 -0.2810  1.1271 -0.9462
  538MOL0     O72531   5.308   6.198  12.985 -0.3276 -0.5768  0.7264
  538MOL0     C72532   5.314   6.100  13.091  0.9089 -0.7347 -0.0982
  538MOL0     C72533   5.187   6.102  13.188  0.1808  0.1777 -0.0366
  538MOL0     C72534   5.161   5.982  13.281 -0.6891  0.2904 -0.1402
  538MOL0     C72535   5.278   5.977  13.382  0.2205 -0.1638  0.3344
  538MOL0     C72536   5.251   5.873  13.498 -0.1316  0.7019 -0.3532
  538MOL0     C72537   5.221   5.734  13.442  0.0672  0.2930 -0.6343
  538MOL0     C72538   5.222   5.615  13.543 -0.3693 -0.6802  0.6522
  538MOL0     C72539   5.203   5.477  13.464  0.4961 -0.6387  0.7819
  538MOL0    Cl72540   5.347   5.422  13.364 -0.2700 -0.0424  0.1219
  538MOL0     C72541   5.413   6.301  12.803  0.0739  0.3367  0.5118
  538MOL0     C72542   5.510   6.312  12.702  0.5731  0.6470 -0.0197
  538MOL0     O72543   5.604   6.129  12.447 -0.3166  0.2731 -0.0009
  538MOL0     C72544   5.936   6.276  12.419  0.1155 -1.0269  0.1413
  538MOL0     C72545   6.033   6.328  12.332 -0.3602 -0.2900 -0.1375
  538MOL0     N72546   6.351   6.699  11.538  0.0108 -0.4566 -0.5609
  538MOL0     N72547   6.355   6.806  11.471  0.2197 -0.1751  0.3970
  538MOL0     C72548   6.250   6.666  11.008  0.0391  1.1177 -0.3013
  538MOL0     C72549   6.274   6.720  10.886 -0.8502 -0.1531  0.0423
  538MOL0     C72550   6.260   6.894  10.483 -0.2133 -0.5622 -0.5364
  538MOL0     C72551   6.233   6.793  10.383  0.2213 -0.0484 -1.0571
  538MOL0     C72552   6.276   6.794  10.256 -0.3127 -0.5966 -0.2541
  538MOL0     C72553   6.365   6.900  10.216  0.7052 -0.2883 -0.6582
  538MOL0     O72554   6.426   6.888  10.093 -0.7912  0.3397 -0.0793
  538MOL0     C72555   6.567   6.914  10.082 -0.6249 -0.7965  0.1050
  538MOL0     C72556   6.608   6.871   9.942  0.0080  0.2862 -0.5764
  538MOL0     C72557   6.747   6.937   9.899 -0.1985 -0.5746  0.2341
  538MOL0     C72558   6.743   7.088   9.871  0.4416 -0.1079 -0.4871
  538MOL0     C72559   6.871   7.131   9.830 -0.1819 -1.0114  1.2461
  538MOL0     C72560   6.985   7.143   9.795 -0.0495 -0.3776 -0.5077
  538MOL0     C72561   6.378   7.005  10.305 -0.3119  0.8036  0.2697
  538MOL0     C72562   6.332   7.007  10.440  0.5557 -0.3797 -0.3840
  538MOL0     H72563   5.960   6.690  10.769  1.5436 -3.3521 -1.9988
  538MOL0     H72564   5.925   6.590  10.982 -0.3408 -0.1866 -0.2550
  538MOL0     H72565   6.129   6.647  11.368  1.0161  1.1691 -0.1726
  538MOL0     H72566   6.151   6.764  11.238  0.7084 -0.1728 -0.1454
  538MOL0     H72567   5.915   6.773  11.199  0.7467 -0.7353 -1.0138
  538MOL0     H72568   5.887   6.646  11.306  0.3056  0.7544  0.3136
  538MOL0     H72569   5.824   6.811  11.445 -0.6190 -2.4655 -2.6392
  538MOL0     H72570   5.994   6.810  11.493 -1.8215 -0.2538  1.3044
  538MOL0     H72571   5.909   6.982  11.260  0.8792 -0.1360 -0.2144
  538MOL0     H72572   5.847   7.028  11.423 -0.1610 -1.0042  1.3716
  538MOL0     H72573   6.146   6.986  11.342  0.1157  0.7603 -1.3766
  538MOL0     H72574   6.069   7.139  11.327  1.4343 -1.4986  0.3071
  538MOL0     H72575   6.020   7.139  11.572 -1.8670 -0.7793  0.7427
  538MOL0     H72576   6.098   6.977  11.589  2.5653  0.4840  0.2876
  538MOL0     H72577   6.255   7.238  11.534  0.1737  0.8647  1.8614
  538MOL0     H72578   6.250   7.136  11.670  2.1948 -1.6320  0.5746
  538MOL0     H72579   6.454   7.091  11.551 -1.0202  1.9428  0.8930
  538MOL0     H72580   6.369   7.070  11.400  0.8518 -1.2328 -0.1419
  538MOL0     H72581   6.338   6.936  11.762  1.0516 -0.1956 -0.8243
  538MOL0     H72582   6.439   6.592  11.776 -0.1499 -0.8631  1.1996
  538MOL0     H72583   6.386   6.731  11.878  1.0759 -1.6120  1.4772
  538MOL0     H72584   6.207   6.522  11.751  1.8234 -2.0696  1.4418
  538MOL0     H72585   6.147   6.657  11.849 -4.2545 -3.9461 -0.9037
  538MOL0     H72586   6.277   6.552  12.032 -3.9590  2.4190 -0.2542
  538MOL0     H72587   6.312   6.407  11.914  2.4287  0.9481 -1.8852
  538MOL0     H72588   6.066   6.385  11.921 -1.2471  2.3402 -2.3377
  538MOL0     H72589   6.045   6.528  12.013 -1.9154 -0.2762 -0.7810
  538MOL0     H72590   5.884   6.321  12.038  1.5161  1.6322 -0.3841
  538MOL0     H72591   5.652   6.206  12.062  0.3169  2.9045 -0.9358
  538MOL0     H72592   5.637   6.110  12.206 -0.7933 -0.0212 -3.0927
  538MOL0     H72593   5.587   6.284  12.201 -0.9756  0.5662 -4.3744
  538MOL0     H72594   5.722   6.062  12.797 -1.9680 -3.0654 -2.5989
  538MOL0     H72595   5.532   6.026  12.968  1.4126 -0.4607  0.7651
  538MOL0     H72596   5.332   5.999  13.052 -0.0742 -1.8844  2.2343
  538MOL0     H72597   5.401   6.112  13.156  0.1202 -2.7461  1.4324
  538MOL0     H72598   5.199   6.179  13.265 -1.8509 -2.1077  2.8146
  538MOL0     H72599   5.100   6.118  13.123 -0.5306 -3.0191 -0.0668
  538MOL0     H72600   5.150   5.887  13.229 -0.3249  0.8162 -1.2132
  538MOL0     H72601   5.067   5.999  13.335  0.0916  2.4583  0.6466
  538MOL0     H72602   5.374   5.960  13.332  0.1337  1.9221 -0.6448
  538MOL0     H72603   5.286   6.076  13.429 -0.7982  0.5877 -1.0096
  538MOL0     H72604   5.163   5.903  13.556 -0.6604 -0.9831 -0.2279
  538MOL0     H72605   5.331   5.866  13.573 -0.7433  1.0636  0.3410
  538MOL0     H72606   5.122   5.735  13.396 -0.9896 -3.9233  1.0023
  538MOL0     H72607   5.295   5.718  13.363  3.3727 -0.0958  2.2503
  538MOL0     H72608   5.134   5.625  13.607 -1.6055 -1.6450 -0.8212
  538MOL0     H72609   5.305   5.607  13.614 -1.1920  0.1574  1.7367
  538MOL0     H72610   5.122   5.489  13.392 -0.1901 -2.1903  1.2438
  538MOL0     H72611   5.172   5.396  13.530 -1.3501 -0.4480  0.2155
  538MOL0     H72612   5.328   6.369  12.794 -1.5832 -1.5886  0.8723
  538MOL0     H72613   5.514   6.394  12.632  2.5368  1.4727  0.9826
  538MOL0     H72614   5.952   6.283  12.526 -0.3919 -3.4207  0.4393
  538MOL0     H72615   6.134   6.350  12.365 -0.6570  2.3514 -0.7642
  538MOL0     H72616   6.328   6.665  11.083 -1.1670 -0.0813  0.9963
  538MOL0     H72617   6.374   6.755  10.866 -1.5197  0.5580 -2.3022
  538MOL0     H72618   6.178   6.708  10.422  0.0255  0.5306 -0.0277
  538MOL0     H72619   6.250   6.708  10.195  1.1626  1.4734 -4.2086
  538MOL0     H72620   6.590   7.021  10.085  0.7872 -0.8581 -3.1727
  538MOL0     H72621   6.619   6.854  10.158 -0.4165 -0.8465 -0.0755
  538MOL0     H72622   6.526   6.897   9.875 -1.5771  3.1737  2.1998
  538MOL0     H72623   6.625   6.763   9.948  2.7363  0.5403 -2.1000
  538MOL0     H72624   6.782   6.887   9.808  0.5216  0.0101  0.1818
  538MOL0     H72625   6.825   6.909   9.970 -0.4823 -0.6184  0.5296
  538MOL0     H72626   6.715   7.142   9.962  0.5839 -1.9548  0.7052
  538MOL0     H72627   6.672   7.114   9.792 -0.1904 -4.8269 -1.8131
  538MOL0     H72628   7.090   7.159   9.782  0.1947  0.4187  1.9076
  538MOL0     H72629   6.446   7.087  10.282  1.0443  0.1796  1.7956
  538MOL0     H72630   6.359   7.088  10.507  2.2493 -1.8110  0.7713
  539MOL0     O72631   0.861   8.643   0.234  0.5399 -0.1678  0.4863
  539MOL0     C72632   0.798   8.562   0.158 -1.4576 -0.4033  0.3666
  539MOL0     O72633   0.798   8.428   0.165 -0.0311  0.2649 -0.5039
  539MOL0     C72634   0.840   8.385   0.295 -0.6054 -1.0472 -0.3696
  539MOL0     C72635   0.953   8.304   0.304 -0.2872  0.4016 -0.8495
  539MOL0     C72636   1.003   8.248   0.428 -0.1621 -0.1435  0.2859
  539MOL0     C72637   0.935   8.288   0.541 -0.1922  0.5986 -0.2698
  539MOL0     O72638   0.987   8.264   0.666  0.3215  0.0651 -0.3350
  539MOL0     C72639   0.929   8.145   0.721  1.0898 -0.0187  0.1751
  539MOL0     C72640   1.039   8.081   0.802  0.5639  0.1753  1.0651
  539MOL0     C72641   1.079   8.165   0.921  0.0394  0.0377 -0.1510
  539MOL0     C72642   1.220   8.229   0.905  0.3453  1.1702  0.2411
  539MOL0     C72643   1.243   8.342   1.009  0.2925 -0.6087  0.6483
  539MOL0     C72644   1.385   8.393   0.997 -1.0755  0.0062 -0.0470
  539MOL0     C72645   1.418   8.505   1.084  0.7248 -0.4689  0.5361
  539MOL0     C72646   1.345   8.643   1.065 -0.4966  0.1496  0.4102
  539MOL0     N72647   1.347   8.686   0.917  0.8678  0.2441  0.8495
  539MOL0     C72648   1.244   8.653   0.832 -0.6919  0.1129 -0.1495
  539MOL0     C72649   1.250   8.735   0.730  0.3290 -0.3107 -0.0863
  539MOL0     C72650   1.180   8.747   0.603 -1.2866  0.2287  0.6101
  539MOL0     C72651   1.125   8.604   0.556 -0.0036  0.6018  0.4641
  539MOL0     C72652   1.226   8.514   0.487 -0.5214  0.3492  0.5098
  539MOL0     C72653   1.329   8.589   0.396 -0.6630 -0.3875 -0.5454
  539MOL0     O72654   1.415   8.505   0.318 -0.3117  0.2588  0.1424
  539MOL0     C72655   1.363   8.414   0.233 -0.3111 -0.0823 -0.0982
  539MOL0     C72656   1.424   8.293   0.229  0.1396  0.0165 -0.8581
  539MOL0     C72657   1.389   8.192   0.137  0.0677 -0.3119  0.2250
  539MOL0     C72658   1.458   8.060   0.142  0.5025  1.1344  0.6908
  539MOL0     C72659   1.289   8.216   0.048  0.4220 -0.8982  0.0060
  539MOL0     C72660   1.233   8.121  -0.048  0.1119  0.6842 -1.2076
  539MOL0     O72661   1.098   8.112  -0.049  0.3584  0.1318  0.3488
  539MOL0     C72662   1.032   8.061  -0.157  0.1830  0.7826  0.1742
  539MOL0     C72663   0.925   8.140  -0.213 -1.4444 -0.6473 -0.0853
  539MOL0     C72664   0.856   8.087  -0.324 -0.1208 -0.0591 -0.2387
  539MOL0     C72665   0.867   7.955  -0.366 -1.2502  1.1639 -0.1702
  539MOL0     O72666   0.780   7.895  -0.451 -0.1343  0.9593  0.7130
  539MOL0     C72667   0.820   7.803  -0.551  0.0296  0.4372  0.2529
  539MOL0     C72668   0.705   7.703  -0.587  0.3820  1.1309 -0.5159
  539MOL0     C72669   0.740   7.635  -0.727  1.5325 -0.2290  0.2039
  539MOL0     C72670   0.657   7.502  -0.751 -0.2122 -0.6626 -0.0559
  539MOL0     C72671   0.674   7.451  -0.889 -0.5560  0.6190 -0.0546
  539MOL0     C72672   0.603   7.313  -0.891  0.0558 -0.6770 -0.0576
  539MOL0     C72673   0.581   7.282  -1.036  0.6681  0.2536  0.6692
  539MOL0     C72674   0.525   7.146  -1.055 -0.8340  0.8193  0.1975
  539MOL0    Cl72675   0.361   7.150  -1.002 -0.2101  0.0287  0.3385
  539MOL0     C72676   0.973   7.877  -0.299 -0.2050 -0.1667  1.3723
  539MOL0     C72677   1.054   7.928  -0.204 -0.3031  0.1129 -0.2243
  539MOL0     O72678   1.310   8.073  -0.132 -0.2209 -0.9884 -1.0289
  539MOL0     C72679   1.215   8.337   0.063  0.7904  0.3016 -0.4366
  539MOL0     C72680   1.249   8.435   0.151 -0.0146  0.6727 -0.5218
  539MOL0     N72681   1.364   8.816   0.751  0.1366 -0.2959  0.1512
  539MOL0     N72682   1.415   8.790   0.864 -0.4073 -0.3876 -0.9874
  539MOL0     C72683   0.817   8.364   0.529 -0.1939  0.2773  0.2624
  539MOL0     C72684   0.774   8.423   0.415 -0.6871 -0.0793  0.1917
  539MOL0     C72685   0.725   8.619   0.043 -0.8866 -0.6466 -0.6203
  539MOL0     C72686   0.719   8.757   0.011 -0.4687  0.1948  0.3959
  539MOL0     C72687   0.644   8.800  -0.093 -1.1725 -0.3793  0.6049
  539MOL0     C72688   0.581   8.709  -0.187 -0.7612  0.7675  0.1573
  539MOL0     O72689   0.505   8.750  -0.297  0.4382 -0.3502 -0.8891
  539MOL0     C72690   0.388   8.816  -0.255  0.4485 -0.7073 -0.2425
  539MOL0     C72691   0.295   8.719  -0.186 -0.1071 -0.3103 -0.6976
  539MOL0     C72692   0.254   8.597  -0.258 -0.6392 -0.3679 -0.0044
  539MOL0     C72693   0.112   8.613  -0.316 -0.6115  1.4764 -0.0590
  539MOL0     C72694   0.094   8.703  -0.433 -0.8167  0.3194 -0.3563
  539MOL0     C72695   0.074   8.779  -0.522  0.2380 -0.8203  0.0694
  539MOL0     C72696   0.591   8.574  -0.153  1.1559  0.1183  0.0324
  539MOL0     C72697   0.651   8.530  -0.037 -1.5974  0.9836 -0.2792
  539MOL0     H72698   1.004   8.281   0.211 -0.3906  0.3815 -0.9016
  539MOL0     H72699   1.091   8.184   0.427 -0.3089 -0.4165  2.2805
  539MOL0     H72700   0.832   8.162   0.768  0.2388 -1.0597 -1.1402
  539MOL0     H72701   0.901   8.072   0.645  2.4523  1.4471 -1.8653
  539MOL0     H72702   1.003   7.984   0.837  1.1890 -0.4027  0.1417
  539MOL0     H72703   1.123   8.054   0.737  0.2955 -0.5197  0.9907
  539MOL0     H72704   1.003   8.243   0.934 -0.7220 -1.0893  2.9600
  539MOL0     H72705   1.081   8.113   1.017  2.7679 -0.8958 -0.6208
  539MOL0     H72706   1.284   8.144   0.929 -2.0810 -0.5565  0.9661
  539MOL0     H72707   1.241   8.256   0.801  2.7167 -1.8771 -0.2247
  539MOL0     H72708   1.176   8.429   1.004 -1.2187 -1.7132  0.9794
  539MOL0     H72709   1.232   8.292   1.105 -1.3377 -5.1533 -1.6451
  539MOL0     H72710   1.461   8.315   1.004  3.4079  3.9828  0.7599
  539MOL0     H72711   1.398   8.432   0.895 -0.8730 -0.2367 -0.1135
  539MOL0     H72712   1.404   8.478   1.189  0.9176  0.8710  0.9312
  539MOL0     H72713   1.523   8.530   1.065  0.5828 -0.1275  0.1846
  539MOL0     H72714   1.399   8.719   1.123  2.8300  0.7347 -3.0492
  539MOL0     H72715   1.244   8.637   1.107 -1.4744 -0.5360 -1.8805
  539MOL0     H72716   1.168   8.576   0.838  0.4780 -1.2438 -1.8410
  539MOL0     H72717   1.104   8.821   0.629 -1.5426  0.0140  0.4710
  539MOL0     H72718   1.247   8.786   0.526 -0.7905 -0.5061  0.6580
  539MOL0     H72719   1.053   8.632   0.478 -1.8309  1.2930  2.3113
  539MOL0     H72720   1.066   8.553   0.633 -1.3724 -0.1308 -1.0197
  539MOL0     H72721   1.171   8.445   0.422 -1.1144 -0.4175  1.8013
  539MOL0     H72722   1.285   8.444   0.547 -0.3076 -0.0291 -0.1357
  539MOL0     H72723   1.396   8.652   0.456 -0.3571 -1.4699  0.2843
  539MOL0     H72724   1.268   8.645   0.325  1.2023  0.1069 -1.8370
  539MOL0     H72725   1.505   8.289   0.300 -1.3254  0.8394  0.9442
  539MOL0     H72726   1.382   7.988   0.173 -1.4252  2.1922 -1.3353
  539MOL0     H72727   1.515   8.028   0.054  0.7840  1.6486  0.6799
  539MOL0     H72728   1.537   8.064   0.218  1.4245 -1.1582 -0.0524
  539MOL0     H72729   0.918   8.244  -0.183 -1.8121 -0.4376 -0.8690
  539MOL0     H72730   0.777   8.153  -0.358  0.0257  0.6980  0.8588
  539MOL0     H72731   0.839   7.863  -0.640  0.8743 -0.6313 -0.3056
  539MOL0     H72732   0.907   7.740  -0.532 -0.9103 -1.2298 -0.7282
  539MOL0     H72733   0.702   7.628  -0.507 -1.2011 -0.1783 -1.7325
  539MOL0     H72734   0.605   7.743  -0.606 -1.2808 -2.4142 -0.1520
  539MOL0     H72735   0.846   7.614  -0.743  1.0108 -2.7579 -0.4779
  539MOL0     H72736   0.714   7.706  -0.806  0.6333 -2.2586 -1.4256
  539MOL0     H72737   0.682   7.428  -0.674 -3.0821 -0.6257  1.0152
  539MOL0     H72738   0.556   7.532  -0.722  0.0661 -0.0188  0.2647
  539MOL0     H72739   0.782   7.448  -0.904 -0.5221 -0.7927  0.3129
  539MOL0     H72740   0.630   7.519  -0.962 -2.0042  1.0253  1.1588
  539MOL0     H72741   0.663   7.236  -0.840  1.0826  0.9740  1.3393
  539MOL0     H72742   0.506   7.319  -0.841 -0.0103 -1.8936 -0.0061
  539MOL0     H72743   0.673   7.289  -1.094  0.2605 -0.2681 -0.0583
  539MOL0     H72744   0.513   7.361  -1.071  1.7320  1.1957  0.6486
  539MOL0     H72745   0.582   7.073  -0.997 -0.9694  1.9150  1.7821
  539MOL0     H72746   0.535   7.132  -1.163 -1.6618 -1.1726  0.3395
  539MOL0     H72747   0.989   7.778  -0.340 -1.0573  0.3833 -0.3933
  539MOL0     H72748   1.137   7.869  -0.166 -2.0053 -1.5284  1.1653
  539MOL0     H72749   1.118   8.355   0.017  1.1406  0.1974 -1.2212
  539MOL0     H72750   1.189   8.525   0.142 -1.3248 -0.3891 -3.2557
  539MOL0     H72751   0.762   8.398   0.616 -1.8260  0.9455 -1.0026
  539MOL0     H72752   0.700   8.502   0.408 -1.0800 -0.3966  0.6920
  539MOL0     H72753   0.772   8.827   0.074 -0.3561 -0.6234  1.2197
  539MOL0     H72754   0.643   8.906  -0.117  1.5462 -0.4788 -0.3031
  539MOL0     H72755   0.403   8.895  -0.181 -1.5903  0.6902 -1.2198
  539MOL0     H72756   0.332   8.854  -0.342  1.6878  1.5089 -0.1486
  539MOL0     H72757   0.204   8.770  -0.156 -0.4825 -1.5497  0.3741
  539MOL0     H72758   0.344   8.680  -0.095 -2.0187 -3.0472 -0.7015
  539MOL0     H72759   0.262   8.517  -0.183 -3.5605 -1.1665 -0.4499
  539MOL0     H72760   0.319   8.574  -0.343 -0.3239 -0.4840  0.2617
  539MOL0     H72761   0.043   8.639  -0.236 -5.0065  0.5796 -3.2229
  539MOL0     H72762   0.080   8.512  -0.344  1.9369 -0.0409  1.9329
  539MOL0     H72763   0.065   8.846  -0.605 -0.7726 -2.1386 -0.9191
  539MOL0     H72764   0.534   8.503  -0.213  0.3404 -0.8379  1.8539
  539MOL0     H72765   0.670   8.427  -0.009 -1.2257  1.6860  2.3176
  540MOL0     O72766   8.671   9.624   8.194  0.0685 -0.0974  0.0521
  540MOL0     C72767   8.746   9.712   8.228 -0.5799 -0.4105  0.4206
  540MOL0     O72768   8.726   9.800   8.326 -0.2855 -0.6252  0.3199
  540MOL0     C72769   8.632   9.783   8.425 -0.0833 -0.9751 -0.6083
  540MOL0     C72770   8.636   9.889   8.516 -0.3711 -0.3851 -0.8666
  540MOL0     C72771   8.535   9.910   8.615 -0.4297  0.6768  0.1201
  540MOL0     C72772   8.424   9.817   8.620  0.1468 -0.0291 -0.6076
  540MOL0     O72773   8.319   9.842   8.706 -0.4483  0.3963  0.0161
  540MOL0     C72774   8.302   9.968   8.777 -0.3870 -0.5340  0.4444
  540MOL0     C72775   8.384  10.005   8.904 -0.5685 -0.6650 -1.2959
  540MOL0     C72776   8.329   9.923   9.023  0.6169 -0.3844 -0.0601
  540MOL0     C72777   8.393   9.969   9.148 -0.4301 -0.2748 -0.1968
  540MOL0     C72778   8.332   9.919   9.283 -0.7027  0.5100 -0.8958
  540MOL0     C72779   8.424   9.969   9.401  0.3229  0.2322  0.8399
  540MOL0     C72780   8.400  10.109   9.464  0.3521  0.9479 -0.0522
  540MOL0     C72781   8.505  10.207   9.408 -0.0076  0.2319 -0.0706
  540MOL0     N72782   8.446  10.341   9.418  0.0643  0.3717 -0.0823
  540MOL0     C72783   8.356  10.396   9.330 -0.2402  0.5176  0.6062
  540MOL0     C72784   8.340  10.524   9.354 -0.0831  0.5935 -0.6752
  540MOL0     C72785   8.229  10.609   9.299  0.3713  0.5222 -0.4513
  540MOL0     C72786   8.277  10.741   9.231 -0.5873 -0.5701  0.0421
  540MOL0     C72787   8.153  10.786   9.144  0.0464 -1.2079  0.1245
  540MOL0     C72788   8.188  10.919   9.078  0.7143  0.0199 -0.3500
  540MOL0     O72789   8.105  10.960   8.974  0.5092  0.1037  0.0886
  540MOL0     C72790   8.129  10.930   8.840  0.1190  0.3189 -0.7491
  540MOL0     C72791   8.045  10.980   8.733 -0.1029  0.4117 -0.0014
  540MOL0     C72792   8.059  10.946   8.600 -0.2983 -0.0836  0.4866
  540MOL0     C72793   7.971  11.011   8.487 -0.2426 -0.2331 -0.6940
  540MOL0     C72794   8.161  10.856   8.565 -0.0265  0.7812 -1.0490
  540MOL0     C72795   8.190  10.827   8.421 -0.7497  0.3204  0.0912
  540MOL0     O72796   8.177  10.697   8.376  0.5198  0.2888  0.9403
  540MOL0     C72797   8.135  10.682   8.246  0.6420  0.4910  0.2529
  540MOL0     C72798   8.006  10.728   8.198  0.5322  0.3204  0.9471
  540MOL0     C72799   7.960  10.722   8.063  0.1961  0.9528  0.6889
  540MOL0     C72800   8.046  10.666   7.965  0.6499 -0.2357 -0.8438
  540MOL0     O72801   8.004  10.637   7.843  0.3088 -0.1856 -0.9694
  540MOL0     C72802   7.922  10.737   7.778 -0.4640  0.2908 -0.8790
  540MOL0     C72803   7.782  10.676   7.745  0.4759 -0.4471  0.4892
  540MOL0     C72804   7.678  10.787   7.707  0.4626  0.6441 -0.5966
  540MOL0     C72805   7.538  10.724   7.714  0.3420  1.0099 -0.2766
  540MOL0     C72806   7.435  10.812   7.657  0.4694 -0.8853 -0.2581
  540MOL0     C72807   7.396  10.786   7.517  0.5424 -0.1296  0.6097
  540MOL0     C72808   7.267  10.846   7.462  0.2689 -0.4982 -0.6933
  540MOL0     C72809   7.244  10.806   7.319  0.1867  0.2147  0.0744
  540MOL0    Cl72810   7.112  10.912   7.264  0.2045  0.0760  0.2765
  540MOL0     C72811   8.160  10.604   8.014  0.3337 -0.0146 -0.9408
  540MOL0     C72812   8.207  10.610   8.153  0.0428 -0.4561  0.0429
  540MOL0     O72813   8.233  10.924   8.361  0.7495 -0.0502 -0.4129
  540MOL0     C72814   8.250  10.808   8.663 -0.3543 -0.3086  0.6690
  540MOL0     C72815   8.232  10.843   8.807  0.1397 -0.5446 -0.2589
  540MOL0     N72816   8.435  10.553   9.456  0.0402  0.0066 -0.5431
  540MOL0     N72817   8.487  10.436   9.501  1.2056 -0.4055 -0.7225
  540MOL0     C72818   8.428   9.712   8.529  1.2626 -1.1153  0.9772
  540MOL0     C72819   8.531   9.686   8.437 -0.1621  0.5181 -0.2121
  540MOL0     C72820   8.881   9.729   8.176  0.0038 -0.7012  0.8620
  540MOL0     C72821   8.933   9.651   8.074  0.3102 -0.5531  1.1814
  540MOL0     C72822   9.064   9.653   8.024 -0.3271  0.1070  0.1311
  540MOL0     C72823   9.157   9.740   8.094  0.8892  0.1664 -0.5123
  540MOL0     O72824   9.296   9.738   8.072  0.2491  0.1999 -0.1872
  540MOL0     C72825   9.344   9.685   7.943 -0.5648 -0.0572  0.3126
  540MOL0     C72826   9.490   9.730   7.915 -0.7444 -0.8922  0.2878
  540MOL0     C72827   9.496   9.867   7.849  0.3014  0.8299  0.3291
  540MOL0     C72828   9.630   9.905   7.790 -0.9973  0.4144  0.2674
  540MOL0     C72829   9.716   9.945   7.898 -0.4718 -0.1093  0.1965
  540MOL0     C72830   9.785   9.984   7.989  0.1349 -0.1612  0.6309
  540MOL0     C72831   9.106   9.822   8.202  0.8791  0.0281 -0.6624
  540MOL0     C72832   8.969   9.827   8.235  0.1221 -0.1694  0.2870
  540MOL0     H72833   8.720   9.959   8.516  0.2199 -1.0385  0.6854
  540MOL0     H72834   8.536  10.000   8.676 -0.7489  1.0853 -0.4618
  540MOL0     H72835   8.315  10.044   8.699  4.2922 -0.3662  1.1401
  540MOL0     H72836   8.200   9.972   8.817  0.0327  0.9346  1.4671
  540MOL0     H72837   8.489   9.977   8.892 -0.5012  0.2101 -3.0237
  540MOL0     H72838   8.375  10.111   8.928  0.3711 -1.1305  1.4172
  540MOL0     H72839   8.220   9.928   9.033  0.6457  1.2424 -0.3294
  540MOL0     H72840   8.355   9.817   9.015  0.0743 -0.3766 -2.9167
  540MOL0     H72841   8.500   9.948   9.136 -0.4339  0.5244 -2.0689
  540MOL0     H72842   8.373  10.077   9.144  0.4323 -0.0784  0.4234
  540MOL0     H72843   8.231   9.955   9.304 -0.6092  0.1676  0.1787
  540MOL0     H72844   8.332   9.810   9.289 -1.5828  0.5944  1.6588
  540MOL0     H72845   8.402   9.896   9.479 -1.2808 -1.3427 -1.0084
  540MOL0     H72846   8.529   9.952   9.372  0.1675 -0.8847  0.9098
  540MOL0     H72847   8.300  10.140   9.432  1.7585  2.8260 -3.1166
  540MOL0     H72848   8.399  10.114   9.573  1.6629  3.1420 -0.0719
  540MOL0     H72849   8.530  10.192   9.303  0.3279  1.3176 -0.1636
  540MOL0     H72850   8.590  10.203   9.476 -0.3038  6.8535  1.3699
  540MOL0     H72851   8.295  10.332   9.267 -0.4067 -1.3277  2.5160
  540MOL0     H72852   8.173  10.553   9.224  0.1931  1.6602 -1.2038
  540MOL0     H72853   8.161  10.635   9.381  1.3047 -0.9803  0.8475
  540MOL0     H72854   8.362  10.725   9.164 -0.4420 -2.2098  0.5761
  540MOL0     H72855   8.295  10.820   9.305 -2.8711 -2.0146  2.3110
  540MOL0     H72856   8.060  10.790   9.201 -0.9727  0.8870 -1.5190
  540MOL0     H72857   8.140  10.708   9.069  1.9761 -1.5615  0.1092
  540MOL0     H72858   8.293  10.927   9.047  0.7583  1.0172  0.0252
  540MOL0     H72859   8.177  10.997   9.153 -2.3702  1.2189 -1.9008
  540MOL0     H72860   7.963  11.046   8.759 -1.1049 -1.0804  0.7118
  540MOL0     H72861   8.018  11.103   8.449  2.2739 -1.0230  0.3014
  540MOL0     H72862   7.955  10.942   8.404 -1.2908 -0.4343 -0.3365
  540MOL0     H72863   7.876  11.045   8.529 -0.0352  1.4806 -1.5195
  540MOL0     H72864   7.953  10.789   8.271  1.7475  0.6444  1.5893
  540MOL0     H72865   7.855  10.742   8.044 -1.0945 -2.6422  2.9161
  540MOL0     H72866   7.901  10.838   7.816 -0.8278  1.1071 -3.0967
  540MOL0     H72867   7.967  10.750   7.680 -1.1619  0.8657 -1.1375
  540MOL0     H72868   7.795  10.604   7.664 -0.4481 -0.2422  0.1456
  540MOL0     H72869   7.745  10.641   7.842  5.3389  2.0400  3.6615
  540MOL0     H72870   7.692  10.829   7.607 -0.1965  2.5455  0.0511
  540MOL0     H72871   7.687  10.874   7.773  0.6574  2.3833 -2.8112
  540MOL0     H72872   7.539  10.640   7.645 -0.0002  1.1985 -0.5156
  540MOL0     H72873   7.516  10.704   7.819  3.2390 -2.8433 -0.1894
  540MOL0     H72874   7.454  10.918   7.673  1.5681 -1.0794 -0.2163
  540MOL0     H72875   7.345  10.796   7.718  0.5058  4.3827  1.7185
  540MOL0     H72876   7.479  10.832   7.463  1.3900  0.1240  2.0847
  540MOL0     H72877   7.383  10.678   7.503  0.8202 -0.0370 -0.3743
  540MOL0     H72878   7.287  10.954   7.454 -0.2591 -0.2888  0.5471
  540MOL0     H72879   7.182  10.838   7.530  0.8006 -2.2248 -0.1863
  540MOL0     H72880   7.195  10.708   7.312 -1.9497  1.2993 -1.1285
  540MOL0     H72881   7.333  10.824   7.258 -0.3204  1.8454 -0.2238
  540MOL0     H72882   8.214  10.545   7.941 -0.9391 -1.0838 -1.0639
  540MOL0     H72883   8.301  10.571   8.192 -0.9585 -4.0914 -0.7367
  540MOL0     H72884   8.329  10.737   8.638  0.9636 -0.0018  3.5370
  540MOL0     H72885   8.306  10.790   8.866  0.9093  0.7800  0.0229
  540MOL0     H72886   8.342   9.646   8.532  0.8946 -0.9122 -2.0849
  540MOL0     H72887   8.528   9.591   8.385 -1.3267 -0.2769  1.2350
  540MOL0     H72888   8.860   9.580   8.038  0.7124 -1.4713  2.1166
  540MOL0     H72889   9.089   9.587   7.942 -1.7122  2.4348 -2.3162
  540MOL0     H72890   9.332   9.576   7.953 -0.0804 -0.6268 -3.8271
  540MOL0     H72891   9.285   9.701   7.853  1.5497  0.3369 -1.0550
  540MOL0     H72892   9.546   9.662   7.850  1.5355  1.2118 -0.0776
  540MOL0     H72893   9.547   9.726   8.008 -0.4014  0.1593  0.1337
  540MOL0     H72894   9.448   9.933   7.923 -3.6474 -1.6576  0.2319
  540MOL0     H72895   9.427   9.865   7.765  0.3568  0.6634  0.2885
  540MOL0     H72896   9.611   9.992   7.727 -4.8863 -0.9254 -0.7370
  540MOL0     H72897   9.664   9.828   7.721 -3.4520 -0.1348 -0.4429
  540MOL0     H72898   9.851  10.038   8.054  0.6300  3.4726 -2.5269
  540MOL0     H72899   9.181   9.891   8.239 -0.1519  0.5436  0.4958
  540MOL0     H72900   8.938   9.902   8.307  2.0571  0.9741 -0.0081
  541MOL0     O72901   4.815   1.804   4.801 -1.1593  0.3885 -0.5710
  541MOL0     C72902   4.849   1.703   4.873  0.1799  0.4844  0.6539
  541MOL0     O72903   4.910   1.719   4.996 -0.3872 -0.1982  0.0759
  541MOL0     C72904   4.937   1.843   5.042  0.5303 -0.6055  1.4905
  541MOL0     C72905   5.012   1.935   4.966 -0.6601 -0.4488 -0.3512
  541MOL0     C72906   5.026   2.070   5.006 -0.4955 -0.5299  0.2697
  541MOL0     C72907   4.969   2.105   5.126  0.3361  0.2538 -0.4494
  541MOL0     O72908   4.981   2.236   5.176  0.1972 -0.2651  0.7064
  541MOL0     C72909   4.892   2.287   5.274 -1.1891  0.2579 -0.3269
  541MOL0     C72910   4.885   2.437   5.274  0.6533 -0.4108  0.5194
  541MOL0     C72911   4.798   2.497   5.383  0.9562  0.4939 -0.0095
  541MOL0     C72912   4.870   2.489   5.520  0.1010 -0.7558  0.0493
  541MOL0     C72913   4.768   2.521   5.635 -0.5771 -0.1129 -1.4152
  541MOL0     C72914   4.719   2.660   5.637 -0.4003  0.1689  0.2100
  541MOL0     C72915   4.631   2.688   5.772 -0.4991 -0.5158  0.7224
  541MOL0     C72916   4.582   2.835   5.764  1.0118 -0.6014 -0.2144
  541MOL0     N72917   4.522   2.883   5.888  0.4953  0.2431 -0.1186
  541MOL0     C72918   4.434   2.992   5.889  0.3250 -0.8062 -0.5291
  541MOL0     C72919   4.439   3.043   6.016 -0.1608  0.4636  0.3076
  541MOL0     C72920   4.356   3.155   6.065 -1.3599  0.0248 -0.1221
  541MOL0     C72921   4.311   3.148   6.203 -0.2038  0.8732 -0.3673
  541MOL0     C72922   4.291   3.290   6.256  0.4543  0.3964  0.1851
  541MOL0     C72923   4.262   3.287   6.410 -0.5767 -0.6764  0.4509
  541MOL0     O72924   4.314   3.402   6.472  0.0992  0.0960 -0.3792
  541MOL0     C72925   4.297   3.417   6.611  0.8035 -0.6022 -0.3424
  541MOL0     C72926   4.360   3.534   6.660 -0.1739  0.1814 -0.6549
  541MOL0     C72927   4.348   3.578   6.801  0.1096  0.4915  0.2659
  541MOL0     C72928   4.429   3.708   6.843  0.1434  0.0476 -0.0885
  541MOL0     C72929   4.273   3.497   6.884  0.9695  0.8919 -0.2885
  541MOL0     C72930   4.254   3.516   7.029 -0.3293  0.0438  0.0485
  541MOL0     O72931   4.214   3.404   7.104 -0.2504  0.3354  0.3848
  541MOL0     C72932   4.188   3.416   7.234 -0.1832  0.6053 -0.0160
  541MOL0     C72933   4.169   3.284   7.293  0.0638  0.3311  0.0440
  541MOL0     C72934   4.118   3.276   7.426  0.0859  0.8802  0.8014
  541MOL0     C72935   4.088   3.387   7.497 -0.0986 -0.2091  0.2462
  541MOL0     O72936   4.054   3.380   7.627  0.2715 -0.0027  1.0801
  541MOL0     C72937   4.126   3.290   7.714 -0.4957  0.4236 -0.0401
  541MOL0     C72938   4.059   3.310   7.845  0.8277  0.2553  0.1576
  541MOL0     C72939   4.073   3.451   7.896 -0.0166 -0.1018 -0.0317
  541MOL0     C72940   4.015   3.490   8.034  0.3500 -0.0811  0.4955
  541MOL0     C72941   3.871   3.452   8.058  0.1940  1.0284  0.1993
  541MOL0     C72942   3.821   3.468   8.205 -0.2254 -0.3540  0.1496
  541MOL0     C72943   3.671   3.466   8.206  0.4817  0.1210 -0.5701
  541MOL0     C72944   3.605   3.513   8.334  0.2377  1.2874  0.2043
  541MOL0    Cl72945   3.632   3.389   8.464 -0.3466 -0.3916 -0.6011
  541MOL0     C72946   4.087   3.510   7.435  0.6891 -0.2159  0.2942
  541MOL0     C72947   4.136   3.525   7.304 -1.0206  0.7752 -0.9100
  541MOL0     O72948   4.275   3.628   7.073 -0.0768 -0.4014  0.3999
  541MOL0     C72949   4.215   3.378   6.830 -0.1047 -0.0454 -1.0636
  541MOL0     C72950   4.228   3.337   6.698  0.4751  0.7144 -1.0093
  541MOL0     N72951   4.518   2.957   6.093 -0.2147  0.2242  0.4050
  541MOL0     N72952   4.560   2.855   6.016  1.5256  0.5243  0.2895
  541MOL0     C72953   4.897   2.012   5.206 -0.1611 -0.0265  0.2646
  541MOL0     C72954   4.874   1.889   5.150 -0.3616 -0.2728 -0.4737
  541MOL0     C72955   4.825   1.573   4.804  0.1905  0.1831  0.0438
  541MOL0     C72956   4.906   1.464   4.841  0.1163  0.0284 -0.3559
  541MOL0     C72957   4.924   1.365   4.740 -0.2940 -0.6414 -0.7791
  541MOL0     C72958   4.836   1.354   4.639 -0.5248  0.6538  0.0729
  541MOL0     O72959   4.817   1.244   4.569  0.0377  0.4024  0.6952
  541MOL0     C72960   4.891   1.127   4.600 -0.0942 -0.0124  0.1140
  541MOL0     C72961   4.836   1.008   4.535 -0.9341  0.3079  0.2450
  541MOL0     C72962   4.800   1.019   4.387 -1.3184 -0.4203  0.7004
  541MOL0     C72963   4.909   1.075   4.288  0.0886 -0.7944  0.4919
  541MOL0     C72964   4.838   1.130   4.165  0.2032 -0.8742 -0.3619
  541MOL0     C72965   4.786   1.163   4.062 -0.5365  0.7326  0.6984
  541MOL0     C72966   4.735   1.450   4.620 -0.0459  0.4672  1.1486
  541MOL0     C72967   4.735   1.561   4.705 -0.0684 -0.1556 -0.2991
  541MOL0     H72968   5.070   1.918   4.877  2.2924  2.8097  0.7417
  541MOL0     H72969   5.063   2.148   4.940 -0.4162 -0.1375  0.7693
  541MOL0     H72970   4.788   2.254   5.264 -1.5316  1.4381 -0.7332
  541MOL0     H72971   4.923   2.248   5.372 -1.1346 -5.6344 -2.2821
  541MOL0     H72972   4.981   2.490   5.279 -1.5228  4.1452 -0.5919
  541MOL0     H72973   4.844   2.467   5.177 -1.0460 -1.3141  0.9192
  541MOL0     H72974   4.790   2.604   5.362  0.7486  0.2916 -0.9681
  541MOL0     H72975   4.697   2.456   5.379  0.9098  0.6360 -0.2848
  541MOL0     H72976   4.910   2.387   5.531 -0.4383 -1.1634 -1.4949
  541MOL0     H72977   4.955   2.558   5.516 -0.2392 -0.3529 -0.3039
  541MOL0     H72978   4.686   2.448   5.635 -0.1972 -0.7597  2.3742
  541MOL0     H72979   4.821   2.500   5.728 -1.7843  1.8492 -0.1904
  541MOL0     H72980   4.796   2.737   5.633 -1.4166  1.1581 -1.5670
  541MOL0     H72981   4.655   2.681   5.551  1.6817  3.1616 -0.7713
  541MOL0     H72982   4.543   2.626   5.789 -0.6373 -0.1678  1.3196
  541MOL0     H72983   4.705   2.678   5.852  1.0857 -4.4182 -0.9667
  541MOL0     H72984   4.499   2.849   5.693  3.7197  0.4078 -3.4840
  541MOL0     H72985   4.673   2.890   5.739  2.6231 -1.7869  2.6300
  541MOL0     H72986   4.375   3.028   5.805 -2.7260  2.3740  2.6515
  541MOL0     H72987   4.421   3.243   6.059 -0.4841 -0.6620 -1.1084
  541MOL0     H72988   4.274   3.180   5.998  0.9019  3.7063 -1.8938
  541MOL0     H72989   4.390   3.097   6.259 -0.3896 -0.0144 -0.9050
  541MOL0     H72990   4.222   3.086   6.210 -0.0867  0.7406 -0.0441
  541MOL0     H72991   4.216   3.347   6.201  1.0169 -0.1481 -1.2138
  541MOL0     H72992   4.386   3.343   6.244  1.2750 -1.4145 -2.1187
  541MOL0     H72993   4.296   3.197   6.460  1.1673 -0.5332 -0.3927
  541MOL0     H72994   4.157   3.278   6.441 -0.9426  1.3843  0.0118
  541MOL0     H72995   4.409   3.589   6.580  2.9790 -2.0900 -0.4614
  541MOL0     H72996   4.525   3.688   6.892  0.0164 -0.2450  0.0418
  541MOL0     H72997   4.456   3.763   6.752  0.8987 -0.6074 -0.2741
  541MOL0     H72998   4.380   3.775   6.914 -0.6974  1.8080 -2.2089
  541MOL0     H72999   4.168   3.193   7.233 -0.8031  1.0882 -1.1464
  541MOL0     H73000   4.111   3.174   7.463  1.5185  0.1099 -0.8480
  541MOL0     H73001   4.127   3.186   7.681 -0.1918  0.7780 -1.1993
  541MOL0     H73002   4.231   3.317   7.730 -1.2037  1.9891  2.5975
  541MOL0     H73003   3.953   3.282   7.841  1.4095 -2.0184 -1.4721
  541MOL0     H73004   4.103   3.241   7.917 -4.0922  0.0984  3.5237
  541MOL0     H73005   4.032   3.523   7.824 -2.3043 -1.1178  0.1845
  541MOL0     H73006   4.181   3.471   7.904 -0.3995  1.6114  1.5894
  541MOL0     H73007   4.063   3.444   8.120 -0.1975  2.0264  2.0199
  541MOL0     H73008   4.021   3.599   8.044  0.4158 -0.0358  0.0012
  541MOL0     H73009   3.860   3.347   8.028  1.9232  1.3251 -1.7305
  541MOL0     H73010   3.813   3.511   7.986 -2.8671 -2.1263 -0.1854
  541MOL0     H73011   3.857   3.384   8.264 -0.4601 -1.1056 -0.7670
  541MOL0     H73012   3.861   3.562   8.246  0.3161 -0.0698 -0.9891
  541MOL0     H73013   3.632   3.370   8.171  1.4173  0.2173 -1.9854
  541MOL0     H73014   3.645   3.538   8.128  0.1442  0.6190 -0.0012
  541MOL0     H73015   3.500   3.512   8.305  0.7097 -0.1821 -1.7093
  541MOL0     H73016   3.632   3.613   8.368  1.4506  0.7319  0.9406
  541MOL0     H73017   4.038   3.598   7.474 -1.6973 -0.1305 -2.6081
  541MOL0     H73018   4.123   3.615   7.244 -0.6159 -0.1440 -2.4308
  541MOL0     H73019   4.140   3.328   6.890 -1.0235 -0.3539 -2.4329
  541MOL0     H73020   4.181   3.242   6.673 -1.8605  1.9637 -1.5476
  541MOL0     H73021   4.845   2.042   5.297  0.6084  1.9930  0.0832
  541MOL0     H73022   4.797   1.824   5.191  1.4084 -1.4695  1.1158
  541MOL0     H73023   4.978   1.469   4.922 -1.0819  0.1166  0.7300
  541MOL0     H73024   4.994   1.284   4.759  0.2620  0.4721  2.4987
  541MOL0     H73025   4.993   1.153   4.570  1.0381 -1.3525  2.4915
  541MOL0     H73026   4.898   1.117   4.709  2.0481 -0.2522 -0.0067
  541MOL0     H73027   4.738   0.985   4.578 -1.6014  3.6143  0.7696
  541MOL0     H73028   4.908   0.927   4.554 -0.8797  0.1726 -0.4973
  541MOL0     H73029   4.718   1.091   4.381  0.4187  1.5520 -1.1361
  541MOL0     H73030   4.776   0.921   4.345 -0.2330 -0.0684 -0.8303
  541MOL0     H73031   4.964   0.987   4.252 -0.2832 -0.5540 -0.7165
  541MOL0     H73032   4.974   1.150   4.333  1.2044 -0.6185 -1.3343
  541MOL0     H73033   4.736   1.192   3.971  1.1367 -0.9983 -0.8623
  541MOL0     H73034   4.670   1.445   4.533  1.2315  1.5675  0.0684
  541MOL0     H73035   4.663   1.642   4.698 -1.4957 -1.3154  0.3309
  542MOL0     O73036   8.725   8.260   1.524 -0.3800 -0.7024  0.2877
  542MOL0     C73037   8.627   8.232   1.455  0.2710 -0.1829  0.0130
  542MOL0     O73038   8.593   8.103   1.404  0.8238 -0.5491  0.4985
  542MOL0     C73039   8.681   7.996   1.399  0.7065  0.6836  0.9640
  542MOL0     C73040   8.818   8.012   1.377  0.0100 -0.3053  0.0462
  542MOL0     C73041   8.911   7.906   1.366 -0.2037 -0.2447  0.2372
  542MOL0     C73042   8.852   7.774   1.364 -0.7541 -0.5406 -0.1699
  542MOL0     O73043   8.911   7.659   1.330 -0.7525  0.6565  0.5238
  542MOL0     C73044   9.052   7.637   1.315 -0.6432  0.4675 -0.9199
  542MOL0     C73045   9.083   7.561   1.199  0.3330  0.4350 -0.6825
  542MOL0     C73046   9.011   7.427   1.203 -0.1785 -1.0766 -0.1925
  542MOL0     C73047   9.087   7.333   1.103 -0.2273  0.4243  0.1390
  542MOL0     C73048   9.078   7.380   0.954  0.8633  0.4367 -0.8333
  542MOL0     C73049   9.117   7.258   0.885  0.0035  0.3189 -0.0644
  542MOL0     C73050   9.090   7.271   0.738 -0.8435 -0.1924 -0.6266
  542MOL0     C73051   9.123   7.147   0.644  0.6421  0.7987 -0.0284
  542MOL0     N73052   9.123   7.203   0.507 -0.1712 -0.0713  0.4619
  542MOL0     C73053   9.010   7.250   0.436 -0.5870  0.6855 -0.4561
  542MOL0     C73054   9.061   7.277   0.316 -0.1327 -0.1764 -0.9249
  542MOL0     C73055   8.987   7.351   0.212  0.2240 -0.4895 -0.5437
  542MOL0     C73056   9.088   7.422   0.122 -0.2591 -0.4581 -1.5532
  542MOL0     C73057   9.004   7.534   0.048  0.2707 -0.1636 -0.2578
  542MOL0     C73058   9.066   7.578  -0.082 -0.8879  0.2306  0.5417
  542MOL0     O73059   9.083   7.463  -0.163 -0.2343 -0.1670 -0.4442
  542MOL0     C73060   9.150   7.482  -0.279  0.4026 -0.1821  0.0024
  542MOL0     C73061   9.195   7.367  -0.338 -0.1671  0.3279 -0.6320
  542MOL0     C73062   9.272   7.354  -0.457 -0.9436  0.7373  0.4526
  542MOL0     C73063   9.303   7.211  -0.504  0.0950 -1.0003 -1.0150
  542MOL0     C73064   9.303   7.475  -0.524 -0.7662  0.6179 -1.1521
  542MOL0     C73065   9.361   7.478  -0.660  0.5520  0.4611 -0.2110
  542MOL0     O73066   9.376   7.605  -0.708 -0.7770 -0.6678  0.2273
  542MOL0     C73067   9.445   7.614  -0.819 -0.3391  0.7966  0.1509
  542MOL0     C73068   9.587   7.578  -0.825 -0.6979 -0.2226 -0.0299
  542MOL0     C73069   9.657   7.596  -0.944  0.2852 -0.1110 -0.5047
  542MOL0     C73070   9.603   7.660  -1.052  0.1336 -0.4842  0.3393
  542MOL0     O73071   9.682   7.681  -1.161 -0.0896  0.2297  0.3327
  542MOL0     C73072   9.640   7.771  -1.261  0.5188  0.1340  0.8933
  542MOL0     C73073   9.740   7.766  -1.382 -0.9611  0.0643  0.1757
  542MOL0     C73074   9.759   7.624  -1.438  0.2162  0.9242  0.9394
  542MOL0     C73075   9.869   7.540  -1.372  0.5583  0.2860  0.1077
  542MOL0     C73076   9.903   7.406  -1.439 -0.6129 -0.1104 -0.5676
  542MOL0     C73077  10.013   7.414  -1.552  0.1106  0.4171  0.4436
  542MOL0     C73078  10.157   7.409  -1.510  0.4918 -0.5372  0.2523
  542MOL0     C73079  10.209   7.269  -1.514  1.0417 -0.4593  0.0996
  542MOL0    Cl73080  10.360   7.254  -1.419 -0.2764 -0.3707  0.1125
  542MOL0     C73081   9.469   7.702  -1.047  0.1005 -0.0842  0.0585
  542MOL0     C73082   9.392   7.686  -0.929 -0.9130  0.2873 -0.3615
  542MOL0     O73083   9.402   7.369  -0.711 -0.7970  0.6096  0.4657
  542MOL0     C73084   9.261   7.594  -0.460 -0.3829 -0.5710 -0.4468
  542MOL0     C73085   9.189   7.601  -0.340 -0.7461  0.2407 -0.1992
  542MOL0     N73086   9.195   7.247   0.308 -0.1078 -0.3892  0.4309
  542MOL0     N73087   9.239   7.212   0.424  0.3835  0.3713 -0.2363
  542MOL0     C73088   8.720   7.754   1.392  0.8138  0.2126  0.0408
  542MOL0     C73089   8.634   7.862   1.414  1.0633  0.3833 -0.1014
  542MOL0     C73090   8.526   8.338   1.426  0.3618 -0.8620  0.5162
  542MOL0     C73091   8.523   8.467   1.496 -0.6409  0.9856 -0.1495
  542MOL0     C73092   8.425   8.554   1.481 -0.1106  0.2631 -0.5305
  542MOL0     C73093   8.324   8.532   1.388  0.8389 -0.1772 -0.7261
  542MOL0     O73094   8.219   8.624   1.372  0.4779  0.3240 -1.0091
  542MOL0     C73095   8.126   8.637   1.483  0.3609  0.2837 -0.5423
  542MOL0     C73096   7.986   8.641   1.424 -0.0205  0.8370  0.1853
  542MOL0     C73097   7.886   8.706   1.509 -0.2652 -0.1241  0.1161
  542MOL0     C73098   7.749   8.721   1.447  0.6312  0.6646 -0.9208
  542MOL0     C73099   7.676   8.586   1.440 -0.9424  0.5705  0.1642
  542MOL0     C73100   7.636   8.473   1.452  0.2158  0.4553  0.5794
  542MOL0     C73101   8.328   8.426   1.308 -0.3231 -0.0291  0.0013
  542MOL0     C73102   8.425   8.328   1.324 -0.9215  1.0211  0.4555
  542MOL0     H73103   8.867   8.107   1.356  0.6842 -0.7238 -0.3159
  542MOL0     H73104   9.015   7.928   1.348 -0.5817  0.6452 -0.9769
  542MOL0     H73105   9.101   7.735   1.310 -2.1193  1.2872 -0.0850
  542MOL0     H73106   9.095   7.595   1.406  1.3722  0.5683 -1.7805
  542MOL0     H73107   9.043   7.614   1.112 -0.6894 -1.8560 -1.6945
  542MOL0     H73108   9.190   7.540   1.187  0.6267  3.0933 -4.3588
  542MOL0     H73109   9.006   7.392   1.307  2.1535  0.6006  0.5489
  542MOL0     H73110   8.909   7.447   1.171 -0.0145  2.4137  1.1242
  542MOL0     H73111   9.189   7.302   1.127  0.1818  2.0955  0.7152
  542MOL0     H73112   9.034   7.239   1.121  1.4160 -0.8884 -1.5273
  542MOL0     H73113   8.973   7.395   0.930  0.9221 -1.3069 -2.3813
  542MOL0     H73114   9.141   7.469   0.942  2.5429 -0.5677  0.0253
  542MOL0     H73115   9.221   7.233   0.912  0.6856  2.6036 -0.3474
  542MOL0     H73116   9.059   7.172   0.919 -0.4732  0.3727 -0.7296
  542MOL0     H73117   8.986   7.300   0.721 -0.7673  0.6862  0.2905
  542MOL0     H73118   9.134   7.360   0.693  0.1022  0.1545  0.8910
  542MOL0     H73119   9.055   7.063   0.661  0.5801  0.3826 -2.0962
  542MOL0     H73120   9.228   7.119   0.657  2.3713  6.1335 -0.1776
  542MOL0     H73121   8.910   7.264   0.476 -0.9747 -0.5633 -0.9586
  542MOL0     H73122   8.930   7.280   0.152 -2.7342  1.6735 -0.5115
  542MOL0     H73123   8.913   7.419   0.254 -1.8848 -0.7253 -3.5894
  542MOL0     H73124   9.135   7.338   0.070  1.4941 -1.6016  1.6116
  542MOL0     H73125   9.168   7.478   0.172 -0.9339 -1.5166  0.8304
  542MOL0     H73126   8.974   7.618   0.112 -1.7660 -0.7588 -0.3503
  542MOL0     H73127   8.905   7.502   0.014  1.4444 -1.4978 -2.6042
  542MOL0     H73128   9.163   7.628  -0.075 -1.9398  2.3994  0.4798
  542MOL0     H73129   9.000   7.647  -0.137 -1.5760  0.4941  1.6711
  542MOL0     H73130   9.147   7.276  -0.305 -0.9982  0.2095 -2.0690
  542MOL0     H73131   9.252   7.174  -0.594  1.6642  0.8367 -2.7619
  542MOL0     H73132   9.410   7.196  -0.524  0.6297  0.9919  0.0995
  542MOL0     H73133   9.280   7.138  -0.426  3.3728 -1.9698 -0.8146
  542MOL0     H73134   9.639   7.541  -0.737  0.5631  0.8114 -0.3209
  542MOL0     H73135   9.764   7.577  -0.940  0.4558  0.8653  0.1843
  542MOL0     H73136   9.543   7.739  -1.301  1.2754  1.5194 -2.3998
  542MOL0     H73137   9.628   7.877  -1.241 -1.1275  0.4804 -1.5241
  542MOL0     H73138   9.701   7.837  -1.455 -1.6575 -0.1052  0.3725
  542MOL0     H73139   9.834   7.814  -1.355 -0.3479 -1.1565  0.2534
  542MOL0     H73140   9.784   7.634  -1.544 -1.4438  0.3003  0.4679
  542MOL0     H73141   9.663   7.571  -1.436  1.8694 -2.7956 -2.7050
  542MOL0     H73142   9.965   7.591  -1.363  2.3951 -2.9729  0.2976
  542MOL0     H73143   9.830   7.517  -1.273 -0.2325  2.1743  0.2797
  542MOL0     H73144   9.815   7.352  -1.476 -1.8690  2.3711 -1.4522
  542MOL0     H73145   9.945   7.344  -1.360  2.2887  1.0459 -1.0940
  542MOL0     H73146   9.996   7.345  -1.635  0.9878  1.3110 -0.5030
  542MOL0     H73147   9.998   7.516  -1.590  0.0733 -0.0814 -0.9345
  542MOL0     H73148  10.167   7.443  -1.406 -1.9456 -1.9216  1.0063
  542MOL0     H73149  10.215   7.468  -1.582 -0.4138 -1.3430 -1.1672
  542MOL0     H73150  10.235   7.250  -1.618  3.4394  2.0498  0.1548
  542MOL0     H73151  10.135   7.201  -1.470  0.5725  0.2108  0.3712
  542MOL0     H73152   9.428   7.748  -1.136 -3.7403 -2.6129  0.2952
  542MOL0     H73153   9.286   7.709  -0.920 -1.0684 -0.1530 -1.0059
  542MOL0     H73154   9.278   7.692  -0.503 -4.5475  0.5672 -0.0053
  542MOL0     H73155   9.168   7.700  -0.301  3.7327  1.0223  0.7827
  542MOL0     H73156   8.677   7.656   1.375 -0.7820  0.7988  0.4893
  542MOL0     H73157   8.529   7.838   1.423  1.0807 -0.8111 -2.4753
  542MOL0     H73158   8.602   8.485   1.568  1.7371 -0.1369 -2.3613
  542MOL0     H73159   8.436   8.644   1.540 -0.0232  0.3909 -0.7407
  542MOL0     H73160   8.122   8.556   1.557  0.7820  0.7979  0.0538
  542MOL0     H73161   8.143   8.729   1.539  0.5465  0.4632 -0.8911
  542MOL0     H73162   7.956   8.536   1.414  2.2347  0.1339  0.1771
  542MOL0     H73163   7.992   8.691   1.327  3.4494 -1.2169 -0.8479
  542MOL0     H73164   7.921   8.808   1.531 -1.7855  0.3312  0.5545
  542MOL0     H73165   7.870   8.657   1.606  0.7281 -0.6823  0.0131
  542MOL0     H73166   7.752   8.765   1.347  1.1826 -0.2964 -1.3318
  542MOL0     H73167   7.695   8.787   1.515  2.7300 -0.9624  2.6259
  542MOL0     H73168   7.606   8.370   1.457  1.5651 -0.0177 -0.6825
  542MOL0     H73169   8.276   8.418   1.213 -0.0751 -0.5196 -0.0926
  542MOL0     H73170   8.423   8.249   1.250  0.4998  3.4262 -2.3663
  543MOL0     O73171   1.466   4.677   3.274  0.0841 -0.2364  0.1238
  543MOL0     C73172   1.534   4.581   3.322 -1.0760  0.4689  0.5801
  543MOL0     O73173   1.670   4.589   3.348  0.0867 -0.1432  0.4798
  543MOL0     C73174   1.749   4.693   3.291  0.0975  0.2717  0.2537
  543MOL0     C73175   1.852   4.757   3.359 -0.7112 -0.4786 -0.4810
  543MOL0     C73176   1.914   4.869   3.299 -0.4655  0.4295 -1.0847
  543MOL0     C73177   1.875   4.914   3.172 -0.2187 -0.5748  0.0836
  543MOL0     O73178   1.935   5.007   3.094 -0.2494  0.0815 -0.1528
  543MOL0     C73179   2.057   5.048   3.136 -0.4986  0.2260  0.1139
  543MOL0     C73180   2.093   5.182   3.057  0.2514  0.3352 -0.3826
  543MOL0     C73181   2.220   5.244   3.125  0.2852  0.3099  0.0868
  543MOL0     C73182   2.274   5.350   3.033 -0.4537  0.9729  0.8075
  543MOL0     C73183   2.354   5.269   2.928 -0.9792  0.2534  0.8871
  543MOL0     C73184   2.383   5.364   2.805 -0.2138  0.1435  0.5248
  543MOL0     C73185   2.252   5.404   2.719 -0.2100  0.0507  0.4193
  543MOL0     C73186   2.182   5.285   2.657  0.1899  0.1495  0.1448
  543MOL0     N73187   2.076   5.325   2.574  0.0636 -0.3506 -0.5369
  543MOL0     C73188   1.947   5.347   2.608 -0.3383 -0.2891 -0.1701
  543MOL0     C73189   1.882   5.386   2.502  0.0523 -1.0623  0.8351
  543MOL0     C73190   1.745   5.448   2.495 -0.3032  0.4504  0.4394
  543MOL0     C73191   1.656   5.413   2.375  0.7278  0.8548  0.2156
  543MOL0     C73192   1.504   5.441   2.393  0.6970 -0.5283 -0.0838
  543MOL0     C73193   1.407   5.418   2.284  0.0684  0.4236  0.0326
  543MOL0     O73194   1.304   5.511   2.292  0.0567 -0.6108 -0.3841
  543MOL0     C73195   1.297   5.613   2.206  0.4159 -0.5136  0.0769
  543MOL0     C73196   1.171   5.662   2.165 -0.0720  0.8098 -1.0071
  543MOL0     C73197   1.161   5.768   2.075 -0.6394  0.1930 -0.0420
  543MOL0     C73198   1.022   5.821   2.037  0.0564  1.1368  0.3386
  543MOL0     C73199   1.283   5.829   2.020  0.6128 -0.2982 -0.3780
  543MOL0     C73200   1.288   5.944   1.924  0.2329 -0.1091  0.4727
  543MOL0     O73201   1.403   5.963   1.859  0.1000 -0.0666 -0.7232
  543MOL0     C73202   1.429   6.080   1.787 -0.2851 -1.0419 -0.0314
  543MOL0     C73203   1.361   6.099   1.667  0.1746  0.6910  1.4353
  543MOL0     C73204   1.380   6.201   1.573 -0.3733  0.2400 -0.2907
  543MOL0     C73205   1.480   6.292   1.598  0.3961 -0.4109  0.3378
  543MOL0     O73206   1.503   6.391   1.503 -0.7734 -0.6261  0.6811
  543MOL0     C73207   1.583   6.505   1.533  0.6278  0.1900  0.4678
  543MOL0     C73208   1.715   6.478   1.460  0.1410  0.5940 -0.5711
  543MOL0     C73209   1.817   6.585   1.498  0.4612  0.6369 -0.1187
  543MOL0     C73210   1.880   6.562   1.637 -0.3269 -0.4301 -0.0567
  543MOL0     C73211   1.995   6.653   1.656 -0.2393 -0.7298  0.2391
  543MOL0     C73212   1.954   6.804   1.633  0.5874  0.2401  0.0189
  543MOL0     C73213   2.063   6.905   1.695  0.5862  0.0973 -0.5230
  543MOL0     C73214   2.201   6.897   1.631 -0.0255 -0.5983  1.4224
  543MOL0    Cl73215   2.166   6.921   1.453  0.0118  0.1279  0.0042
  543MOL0     C73216   1.555   6.279   1.714 -0.5988  0.5862 -0.1616
  543MOL0     C73217   1.539   6.174   1.800  0.1032  0.8768 -0.7350
  543MOL0     O73218   1.192   6.024   1.929 -0.4426 -0.2230  0.2968
  543MOL0     C73219   1.408   5.777   2.063 -0.8190 -0.4891 -0.1192
  543MOL0     C73220   1.411   5.675   2.155  0.2452 -0.5652  0.3100
  543MOL0     N73221   1.976   5.398   2.403  0.7629  0.3831 -0.3497
  543MOL0     N73222   2.091   5.350   2.445  0.4321  0.4566 -0.0714
  543MOL0     C73223   1.784   4.842   3.100 -0.3320 -0.0365 -0.2649
  543MOL0     C73224   1.716   4.736   3.157 -0.1867 -0.8239  0.1494
  543MOL0     C73225   1.485   4.443   3.315 -0.0673 -0.6572  0.0035
  543MOL0     C73226   1.375   4.420   3.233 -0.5081 -0.5459 -0.3346
  543MOL0     C73227   1.326   4.290   3.208 -0.4248 -0.2351 -0.3535
  543MOL0     C73228   1.387   4.180   3.279  0.3531 -0.3220  0.0210
  543MOL0     O73229   1.352   4.050   3.260  0.6039  0.4094 -0.0032
  543MOL0     C73230   1.237   4.009   3.183  0.3195 -0.8273  0.5691
  543MOL0     C73231   1.243   3.859   3.154 -0.0513 -0.8566  0.7816
  543MOL0     C73232   1.143   3.808   3.055 -0.9933  0.5248 -0.1659
  543MOL0     C73233   1.013   3.886   3.061  0.2136 -0.2950 -0.3008
  543MOL0     C73234   0.935   3.832   3.174  0.0207 -0.8410 -0.0831
  543MOL0     C73235   0.852   3.795   3.260 -0.4167 -0.0814  0.6251
  543MOL0     C73236   1.494   4.210   3.364  0.6761  0.8792 -0.6629
  543MOL0     C73237   1.541   4.341   3.394 -0.3567  0.2099 -0.6160
  543MOL0     H73238   1.877   4.720   3.458  2.2682 -1.6289 -1.5379
  543MOL0     H73239   2.002   4.911   3.347 -1.2812 -0.2681  1.1375
  543MOL0     H73240   2.055   5.086   3.238  0.0175  0.9868 -0.1459
  543MOL0     H73241   2.129   4.968   3.116  0.4652  0.4109  2.4780
  543MOL0     H73242   2.110   5.152   2.953 -2.9452 -2.1717 -0.3582
  543MOL0     H73243   2.032   5.272   3.043  2.7688  2.0615 -0.9131
  543MOL0     H73244   2.189   5.283   3.222 -0.5289  0.0036 -0.0408
  543MOL0     H73245   2.293   5.162   3.134 -0.9700 -1.2525 -2.5113
  543MOL0     H73246   2.201   5.412   2.980  0.6001  2.6117  1.1947
  543MOL0     H73247   2.343   5.416   3.085 -2.0583  2.4466  1.1352
  543MOL0     H73248   2.447   5.242   2.979 -0.7939  1.5670  1.2799
  543MOL0     H73249   2.295   5.182   2.896 -0.1575  0.1946 -0.5472
  543MOL0     H73250   2.432   5.455   2.840 -0.1896 -0.3562  1.8258
  543MOL0     H73251   2.446   5.300   2.742 -0.4090 -0.7293  1.2051
  543MOL0     H73252   2.178   5.451   2.784 -0.3195  0.4274  0.0277
  543MOL0     H73253   2.286   5.468   2.637  1.1745 -0.5278  0.5143
  543MOL0     H73254   2.155   5.212   2.734 -0.6142  0.0117 -0.2687
  543MOL0     H73255   2.255   5.252   2.583  2.0550  4.8607 -0.5334
  543MOL0     H73256   1.904   5.344   2.708 -0.1175  1.2028 -0.0100
  543MOL0     H73257   1.689   5.405   2.579 -3.0815  2.2666 -0.3451
  543MOL0     H73258   1.754   5.557   2.503  0.7517  0.5085 -1.1353
  543MOL0     H73259   1.656   5.311   2.336 -1.6036  1.6590 -2.2473
  543MOL0     H73260   1.683   5.479   2.293  1.5690 -1.3082 -1.3158
  543MOL0     H73261   1.504   5.548   2.416  3.7445 -0.6512  0.9554
  543MOL0     H73262   1.447   5.391   2.471  1.3263 -1.0692  0.0423
  543MOL0     H73263   1.363   5.320   2.302  0.2212  0.4157  0.3564
  543MOL0     H73264   1.463   5.423   2.190  2.9504  0.1306  1.6230
  543MOL0     H73265   1.097   5.592   2.203  1.5342 -0.5769 -0.3193
  543MOL0     H73266   0.946   5.761   2.088 -1.1307  0.9719 -1.5194
  543MOL0     H73267   1.005   5.921   2.078 -0.0546  2.1452 -2.0136
  543MOL0     H73268   1.012   5.805   1.929  0.0925  3.4045 -0.0536
  543MOL0     H73269   1.277   6.032   1.650  0.4232  0.5854  0.5626
  543MOL0     H73270   1.330   6.202   1.477  0.3056 -2.1708 -0.7487
  543MOL0     H73271   1.537   6.593   1.487  1.0552 -0.1630 -0.6497
  543MOL0     H73272   1.595   6.508   1.642  2.5150 -1.1097  0.3501
  543MOL0     H73273   1.770   6.384   1.461  1.2461  1.1882  2.2256
  543MOL0     H73274   1.697   6.481   1.352  0.1840 -0.2404 -0.6070
  543MOL0     H73275   1.767   6.681   1.486 -1.6162 -0.6302 -2.5629
  543MOL0     H73276   1.888   6.571   1.416 -3.6087 -1.3035 -3.7298
  543MOL0     H73277   1.807   6.583   1.715  0.7677  0.4986  0.7422
  543MOL0     H73278   1.906   6.459   1.663 -3.7263 -1.6200 -0.8537
  543MOL0     H73279   2.067   6.625   1.579 -1.8222 -0.5721 -1.3715
  543MOL0     H73280   2.047   6.644   1.752 -4.3085  1.7932  3.0473
  543MOL0     H73281   1.931   6.824   1.528  2.1761  1.6472 -0.0997
  543MOL0     H73282   1.861   6.831   1.685  1.9062  0.7215  2.2675
  543MOL0     H73283   2.060   6.875   1.801 -0.5967  0.2432 -0.5012
  543MOL0     H73284   2.022   7.002   1.668 -0.5008 -0.1775  0.0599
  543MOL0     H73285   2.239   6.794   1.633 -1.3229 -1.4096 -3.2455
  543MOL0     H73286   2.267   6.975   1.671 -0.5683  0.7344 -0.1816
  543MOL0     H73287   1.634   6.350   1.735 -1.4798  2.1263 -1.7557
  543MOL0     H73288   1.595   6.175   1.893 -0.9667  2.8173 -0.0517
  543MOL0     H73289   1.498   5.820   2.020 -0.6599  0.3523  1.0008
  543MOL0     H73290   1.507   5.646   2.197  0.9419  3.8386  2.2645
  543MOL0     H73291   1.761   4.873   2.999  1.2180  0.9424 -0.3569
  543MOL0     H73292   1.642   4.676   3.104  1.3922 -3.4852  0.7831
  543MOL0     H73293   1.336   4.498   3.169  1.3720  2.4019  1.8623
  543MOL0     H73294   1.244   4.285   3.137  1.9237 -1.6885 -3.1606
  543MOL0     H73295   1.149   4.039   3.241  2.0350 -0.3083  3.0508
  543MOL0     H73296   1.230   4.064   3.088 -4.1464  1.1017  1.7242
  543MOL0     H73297   1.229   3.808   3.250  0.5019 -1.9752  0.2945
  543MOL0     H73298   1.343   3.829   3.120 -0.2534 -0.1353 -0.5063
  543MOL0     H73299   1.141   3.700   3.070 -1.3131  0.6983  1.0779
  543MOL0     H73300   1.183   3.816   2.953 -0.0864 -1.1120  0.0295
  543MOL0     H73301   0.961   3.862   2.968 -2.2293 -0.1195  0.9424
  543MOL0     H73302   1.023   3.995   3.062 -0.0082 -0.2375  1.9812
  543MOL0     H73303   0.796   3.761   3.344  2.7147 -1.5598  2.2934
  543MOL0     H73304   1.553   4.136   3.418  2.0481 -0.2304 -3.4708
  543MOL0     H73305   1.620   4.358   3.467  1.2959 -3.3122 -1.3280
  544MOL0     O73306   8.956   3.232   7.194  0.1157 -0.1044 -0.8594
  544MOL0     C73307   8.843   3.195   7.227 -0.4783 -0.7395 -0.2201
  544MOL0     O73308   8.798   3.160   7.362 -0.1279 -0.4677  0.1194
  544MOL0     C73309   8.883   3.188   7.466 -0.1052 -0.3149  0.0121
  544MOL0     C73310   8.908   3.083   7.556 -0.0286 -1.1631  0.0364
  544MOL0     C73311   8.995   3.105   7.665  0.4406  0.1140  0.2085
  544MOL0     C73312   9.051   3.230   7.684 -0.0774  0.1735 -0.4551
  544MOL0     O73313   9.129   3.247   7.790 -1.1062 -0.6422 -0.3710
  544MOL0     C73314   9.156   3.385   7.819  0.8446 -1.1991  0.1920
  544MOL0     C73315   9.236   3.410   7.945 -0.8648  0.0077 -0.4752
  544MOL0     C73316   9.186   3.320   8.072 -0.1016  0.4029  0.3212
  544MOL0     C73317   9.045   3.364   8.101  0.5823 -0.2124  0.4295
  544MOL0     C73318   8.989   3.277   8.214  0.0393  0.2952  0.1455
  544MOL0     C73319   8.846   3.322   8.258  0.0271 -0.7077  0.2208
  544MOL0     C73320   8.785   3.251   8.379 -0.4599  0.5709  0.5091
  544MOL0     C73321   8.680   3.321   8.462  0.7892 -0.0831 -0.1602
  544MOL0     N73322   8.580   3.241   8.530 -0.1445  0.1840  0.7068
  544MOL0     C73323   8.583   3.105   8.562  0.0839 -0.2712  0.0396
  544MOL0     C73324   8.487   3.087   8.652  0.7203  0.2697  0.3329
  544MOL0     C73325   8.443   2.966   8.732  0.4632 -0.6428  0.1873
  544MOL0     C73326   8.557   2.861   8.745 -0.7615 -0.0772 -0.5469
  544MOL0     C73327   8.498   2.735   8.825 -0.5108 -0.0618  0.0855
  544MOL0     C73328   8.602   2.623   8.861  0.2557  0.1609 -0.0421
  544MOL0     O73329   8.543   2.523   8.949 -0.7457  0.2517  0.1105
  544MOL0     C73330   8.631   2.430   9.002  0.0114 -0.4750  0.9047
  544MOL0     C73331   8.768   2.417   8.966 -0.6497 -0.4117 -0.3694
  544MOL0     C73332   8.853   2.325   9.031  0.6081  0.4290 -0.3842
  544MOL0     C73333   8.998   2.336   8.990  0.3579  0.4079  0.8844
  544MOL0     C73334   8.798   2.224   9.106 -0.8357  0.5202 -0.2642
  544MOL0     C73335   8.875   2.118   9.178 -0.8032 -0.4334 -0.2488
  544MOL0     O73336   9.008   2.116   9.170 -0.5108  0.0545 -0.3141
  544MOL0     C73337   9.085   2.005   9.182  0.4997  0.8373  0.5170
  544MOL0     C73338   9.216   2.039   9.206 -0.7445 -0.6921 -0.0159
  544MOL0     C73339   9.316   1.937   9.222  0.2908 -0.4650  0.8161
  544MOL0     C73340   9.283   1.800   9.218 -0.0115  0.0549 -1.2649
  544MOL0     O73341   9.370   1.693   9.241  0.4092  0.0762  0.2789
  544MOL0     C73342   9.492   1.714   9.306  0.7181  0.5477  0.2637
  544MOL0     C73343   9.569   1.584   9.336  0.0893 -0.2782  0.1462
  544MOL0     C73344   9.705   1.577   9.277 -0.8919  0.0739 -0.2997
  544MOL0     C73345   9.809   1.651   9.364  0.2600 -0.3461 -0.0929
  544MOL0     C73346   9.922   1.680   9.273  0.7108  0.5655 -0.1213
  544MOL0     C73347  10.030   1.759   9.356 -0.6668 -0.6755  0.7952
  544MOL0     C73348  10.162   1.760   9.268 -0.1982 -0.6808 -0.3442
  544MOL0     C73349  10.292   1.788   9.348 -0.0749  0.1209  0.1265
  544MOL0    Cl73350  10.426   1.812   9.227  0.1725  0.2326 -0.5696
  544MOL0     C73351   9.153   1.769   9.197 -0.1428  0.9366 -0.3741
  544MOL0     C73352   9.055   1.866   9.179  0.3130  0.5825  0.7645
  544MOL0     O73353   8.807   2.033   9.235 -0.6497  0.1115 -0.5385
  544MOL0     C73354   8.663   2.237   9.134  0.6964 -0.4831 -0.6333
  544MOL0     C73355   8.580   2.328   9.072  0.4819 -0.2455  0.1449
  544MOL0     N73356   8.435   3.213   8.681  0.3193  0.6592  0.3505
  544MOL0     N73357   8.486   3.302   8.600 -0.1116  0.6217  0.2443
  544MOL0     C73358   9.015   3.331   7.594 -0.0285 -0.4084  0.1725
  544MOL0     C73359   8.933   3.308   7.481  0.0658 -0.9813  0.3286
  544MOL0     C73360   8.763   3.172   7.105  0.5834 -0.1235 -0.2162
  544MOL0     C73361   8.799   3.204   6.976  0.0398 -0.8968  0.0137
  544MOL0     C73362   8.722   3.159   6.860  0.3133 -0.5434  0.2603
  544MOL0     C73363   8.598   3.106   6.885 -0.2645 -0.9688  0.4273
  544MOL0     O73364   8.506   3.091   6.789  0.4635  0.2109 -0.2247
  544MOL0     C73365   8.541   3.066   6.657 -0.6303 -0.6090  0.7379
  544MOL0     C73366   8.611   2.938   6.622  0.8830 -0.9369 -1.1247
  544MOL0     C73367   8.554   2.810   6.687  0.3100 -0.0192  0.2724
  544MOL0     C73368   8.415   2.769   6.647 -0.5218  0.7537  0.1539
  544MOL0     C73369   8.399   2.720   6.510 -0.3727 -0.7397  0.5861
  544MOL0     C73370   8.380   2.674   6.402 -0.2854  0.0365 -1.3491
  544MOL0     C73371   8.555   3.092   7.016 -0.1854 -0.4256 -0.7325
  544MOL0     C73372   8.635   3.112   7.127  0.5036  0.2826  0.2416
  544MOL0     H73373   8.861   2.989   7.530  0.0452 -0.9327 -0.9397
  544MOL0     H73374   9.006   3.014   7.723  0.4351 -1.5981 -2.3041
  544MOL0     H73375   9.215   3.433   7.739 -1.9166 -0.5820 -1.6197
  544MOL0     H73376   9.058   3.434   7.823  0.2479 -2.0371 -2.4139
  544MOL0     H73377   9.339   3.384   7.919 -1.4202 -0.9274 -1.9356
  544MOL0     H73378   9.222   3.517   7.960  0.3039  0.3728 -1.7120
  544MOL0     H73379   9.190   3.211   8.057  2.4456  0.5169 -0.1983
  544MOL0     H73380   9.256   3.339   8.153  0.4552 -0.2117 -0.0063
  544MOL0     H73381   9.038   3.468   8.133  0.7223 -0.5652  1.6623
  544MOL0     H73382   8.982   3.351   8.013 -2.8304  4.2724  1.8434
  544MOL0     H73383   8.977   3.172   8.185  1.3490 -0.1619  1.1783
  544MOL0     H73384   9.057   3.290   8.298 -0.0851 -0.6189  0.3968
  544MOL0     H73385   8.859   3.431   8.267 -1.4706 -0.2723 -2.1293
  544MOL0     H73386   8.770   3.305   8.182  0.5189  1.6215 -0.8903
  544MOL0     H73387   8.729   3.169   8.330 -0.3197  0.3649  0.6954
  544MOL0     H73388   8.864   3.200   8.435  1.7928  0.7035 -2.3184
  544MOL0     H73389   8.633   3.398   8.399  1.1270  0.8136  0.6625
  544MOL0     H73390   8.733   3.368   8.545 -0.9419 -0.4329  1.2095
  544MOL0     H73391   8.637   3.029   8.507  3.7464  2.6874 -0.8603
  544MOL0     H73392   8.417   2.990   8.836 -0.4268 -3.0679  0.5940
  544MOL0     H73393   8.352   2.923   8.689  0.1550  1.7227 -1.7728
  544MOL0     H73394   8.644   2.906   8.794  1.7514 -1.8139 -3.1373
  544MOL0     H73395   8.592   2.827   8.647 -1.4037 -0.5345 -0.6234
  544MOL0     H73396   8.410   2.702   8.768 -1.9330  3.0524  0.2409
  544MOL0     H73397   8.464   2.771   8.923  1.7798 -3.2214  2.1999
  544MOL0     H73398   8.690   2.673   8.900  0.2657  0.7848 -0.8475
  544MOL0     H73399   8.627   2.567   8.771  1.7869  3.0851 -1.5771
  544MOL0     H73400   8.800   2.494   8.896 -1.8220 -1.2128 -1.8199
  544MOL0     H73401   9.057   2.366   9.078  3.4683  0.6922 -1.1505
  544MOL0     H73402   9.033   2.240   8.951  0.3936  0.9297 -0.4136
  544MOL0     H73403   9.011   2.406   8.907  0.7570 -0.7783 -0.0837
  544MOL0     H73404   9.247   2.143   9.204  2.5827 -1.5689 -0.5388
  544MOL0     H73405   9.413   1.960   9.264  0.0124  3.3638 -0.3014
  544MOL0     H73406   9.555   1.780   9.245  1.6767 -0.2596  0.3485
  544MOL0     H73407   9.467   1.777   9.392 -1.8721  0.9949 -0.7309
  544MOL0     H73408   9.572   1.576   9.445  2.4546 -3.5781 -0.0144
  544MOL0     H73409   9.511   1.494   9.310  2.1338 -2.1014  1.5725
  544MOL0     H73410   9.700   1.619   9.176  2.0917  1.7924  0.1485
  544MOL0     H73411   9.734   1.474   9.255 -0.7498 -0.4866  2.2251
  544MOL0     H73412   9.772   1.749   9.395  2.4364  1.5159 -2.8617
  544MOL0     H73413   9.835   1.584   9.447  1.2967 -2.0989 -1.7493
  544MOL0     H73414   9.890   1.736   9.185 -0.2208  0.8424  0.3858
  544MOL0     H73415   9.965   1.581   9.255  1.8053  0.4032  2.7983
  544MOL0     H73416  10.011   1.865   9.379  0.0400 -0.0507 -1.2543
  544MOL0     H73417  10.049   1.706   9.450  2.6051  1.3976  1.4794
  544MOL0     H73418  10.146   1.838   9.193 -0.5152  0.9307  1.3283
  544MOL0     H73419  10.173   1.669   9.209  2.8323  0.0350 -1.0302
  544MOL0     H73420  10.322   1.705   9.412 -0.4797 -0.6434 -0.6573
  544MOL0     H73421  10.264   1.878   9.403  0.5229  0.4708 -0.1341
  544MOL0     H73422   9.117   1.666   9.199  0.7227  0.5838  2.9176
  544MOL0     H73423   8.955   1.836   9.148 -1.1345  0.1663  5.1836
  544MOL0     H73424   8.619   2.171   9.209  1.9162 -1.9027 -1.1163
  544MOL0     H73425   8.472   2.328   9.086  0.8428 -0.9835  4.1265
  544MOL0     H73426   9.065   3.427   7.598 -0.9248  0.0424  0.7366
  544MOL0     H73427   8.916   3.386   7.408  2.5574 -0.2309  0.4455
  544MOL0     H73428   8.893   3.255   6.957  1.0976 -0.6182  4.6703
  544MOL0     H73429   8.765   3.187   6.764 -1.1857 -1.4922 -0.7301
  544MOL0     H73430   8.448   3.070   6.600 -0.3155  1.5059  0.2808
  544MOL0     H73431   8.608   3.140   6.612 -1.4554 -1.5474 -2.2132
  544MOL0     H73432   8.716   2.959   6.646  0.1764 -0.3106  1.9349
  544MOL0     H73433   8.588   2.921   6.517 -0.3284 -1.2239 -0.8288
  544MOL0     H73434   8.553   2.819   6.796 -2.2330 -1.5676  0.4732
  544MOL0     H73435   8.620   2.725   6.668 -1.3699 -2.4159  4.0005
  544MOL0     H73436   8.348   2.852   6.672 -1.3342  0.8876 -2.1902
  544MOL0     H73437   8.382   2.686   6.710 -1.1073  1.2469  0.5132
  544MOL0     H73438   8.352   2.631   6.309  0.9132 -0.9157 -1.3010
  544MOL0     H73439   8.460   3.042   7.027 -1.2349  1.6511  0.3216
  544MOL0     H73440   8.608   3.067   7.222  4.0459 -1.6401  0.5481
  545MOL0     O73441   9.424   7.664  11.314  0.1655  0.4719 -0.1717
  545MOL0     C73442   9.538   7.675  11.360  0.1865  0.0798  0.2658
  545MOL0     O73443   9.642   7.761  11.310 -0.1353 -0.2559  0.5605
  545MOL0     C73444   9.635   7.830  11.196 -0.6037  0.2503  0.9255
  545MOL0     C73445   9.572   7.767  11.089 -0.6024 -0.2243 -0.0090
  545MOL0     C73446   9.569   7.838  10.971 -0.7226  0.5172  0.8451
  545MOL0     C73447   9.616   7.969  10.953 -0.2566  0.3194 -0.0719
  545MOL0     O73448   9.614   8.031  10.835  0.5458 -0.2687  0.4806
  545MOL0     C73449   9.530   7.975  10.737  0.3295 -0.7701 -0.5452
  545MOL0     C73450   9.528   8.060  10.606  0.1700 -0.9311  0.4871
  545MOL0     C73451   9.504   8.206  10.624 -0.5798 -0.0365 -0.0814
  545MOL0     C73452   9.546   8.274  10.493  0.7400  0.3325  0.2233
  545MOL0     C73453   9.465   8.224  10.369  0.1162  1.0106  0.3836
  545MOL0     C73454   9.445   8.329  10.268 -0.0896  0.5116  0.1080
  545MOL0     C73455   9.579   8.372  10.198 -0.6225 -0.3762 -0.7270
  545MOL0     C73456   9.622   8.271  10.103 -0.4842  0.4477 -0.6580
  545MOL0     N73457   9.693   8.337   9.993  0.1421  0.9297 -0.1138
  545MOL0     C73458   9.827   8.322   9.985  0.3538 -0.2358  0.5723
  545MOL0     C73459   9.858   8.326   9.854 -0.4347  0.3917  0.3017
  545MOL0     C73460   9.998   8.300   9.791 -0.4923  0.1987  0.2429
  545MOL0     C73461  10.097   8.412   9.825  0.6209  0.0646 -0.0054
  545MOL0     C73462  10.191   8.388   9.944  0.7594  0.6092 -0.3447
  545MOL0     C73463  10.271   8.509   9.984  0.1244  0.4161  0.4405
  545MOL0     O73464  10.350   8.559   9.870  0.1780 -0.3012  0.3021
  545MOL0     C73465  10.437   8.663   9.875 -0.0244  0.4481 -1.2033
  545MOL0     C73466  10.440   8.751   9.977 -0.6094  1.2605 -0.1341
  545MOL0     C73467  10.526   8.866   9.978  0.1709 -0.2187 -0.0750
  545MOL0     C73468  10.516   8.964  10.097 -0.0437  1.2071  0.9235
  545MOL0     C73469  10.620   8.877   9.867  0.2255  0.6936  0.5727
  545MOL0     C73470  10.713   8.997   9.839  1.0386 -0.1597 -0.6299
  545MOL0     O73471  10.789   8.989   9.730 -0.2038 -0.9325 -0.1044
  545MOL0     C73472  10.870   9.091   9.699 -0.1121 -0.0473  0.7246
  545MOL0     C73473  10.861   9.152   9.572 -0.0357  0.3076 -0.1878
  545MOL0     C73474  10.937   9.267   9.546 -1.2435  1.0715  0.7420
  545MOL0     C73475  11.023   9.323   9.640  0.4028 -0.5949 -0.3594
  545MOL0     O73476  11.094   9.434   9.599  0.8393  0.2470 -0.2289
  545MOL0     C73477  11.022   9.553   9.621 -0.8524 -0.7016 -0.2308
  545MOL0     C73478  11.102   9.673   9.585 -0.4639  0.1393  0.2241
  545MOL0     C73479  11.147   9.679   9.438  0.0299 -0.3944  0.6252
  545MOL0     C73480  11.258   9.769   9.407 -0.7086 -1.2823 -0.1864
  545MOL0     C73481  11.297   9.759   9.258 -1.0952  0.3146  0.0732
  545MOL0     C73482  11.365   9.882   9.207 -0.0368 -0.3355  0.2615
  545MOL0     C73483  11.421   9.863   9.064  0.1521  0.7517  0.5769
  545MOL0     C73484  11.318   9.882   8.961 -0.6232 -0.0425  1.2915
  545MOL0    Cl73485  11.408   9.878   8.800 -0.4969  0.3483 -0.2625
  545MOL0     C73486  11.044   9.253   9.756 -0.9775  0.4072 -0.0265
  545MOL0     C73487  10.977   9.130   9.786  0.4476 -0.7573  0.0444
  545MOL0     O73488  10.707   9.090   9.913 -0.1092 -1.0151  0.1277
  545MOL0     C73489  10.609   8.782   9.766  0.6321 -0.5973 -0.0906
  545MOL0     C73490  10.525   8.680   9.767  0.1648  0.3601  0.7920
  545MOL0     N73491   9.742   8.359   9.779  0.3226 -1.2253 -0.0282
  545MOL0     N73492   9.655   8.375   9.869 -0.3083  0.4045 -0.0405
  545MOL0     C73493   9.684   8.022  11.067  0.2028 -0.7208  0.4662
  545MOL0     C73494   9.699   7.953  11.186  0.6808  0.2154  0.7834
  545MOL0     C73495   9.577   7.591  11.480 -0.5596 -0.3430  0.1584
  545MOL0     C73496   9.488   7.507  11.544  0.3336 -0.1957  0.6169
  545MOL0     C73497   9.511   7.450  11.671  0.2580 -0.8908 -0.8091
  545MOL0     C73498   9.636   7.459  11.724  0.5533 -0.2000  0.0958
  545MOL0     O73499   9.673   7.395  11.845  0.1911 -0.3359 -0.1418
  545MOL0     C73500   9.573   7.308  11.909  0.6315 -0.0210  0.4594
  545MOL0     C73501   9.631   7.240  12.030 -0.1309 -0.0317  0.1655
  545MOL0     C73502   9.533   7.133  12.083 -0.1899 -1.0026  0.6439
  545MOL0     C73503   9.622   7.030  12.158  0.5354 -0.0170  0.4630
  545MOL0     C73504   9.690   7.077  12.272  0.2371  0.2137  0.1106
  545MOL0     C73505   9.752   7.119  12.368  0.6395  0.2661 -0.8156
  545MOL0     C73506   9.730   7.534  11.658 -0.1627 -0.7761 -0.6488
  545MOL0     C73507   9.696   7.611  11.549 -0.2062 -0.2455  0.4964
  545MOL0     H73508   9.543   7.662  11.085  1.6491 -0.8982 -3.4499
  545MOL0     H73509   9.533   7.788  10.881  1.5679  0.8381 -0.3298
  545MOL0     H73510   9.562   7.874  10.713 -1.1068 -1.8193  1.6568
  545MOL0     H73511   9.430   7.979  10.781  0.8713 -2.9002  1.0125
  545MOL0     H73512   9.622   8.040  10.554 -0.6986 -0.7998 -1.1874
  545MOL0     H73513   9.446   8.017  10.548 -1.5960  1.5838  0.9484
  545MOL0     H73514   9.401   8.221  10.660  0.3632 -0.2595  2.9958
  545MOL0     H73515   9.559   8.244  10.711 -0.3233 -1.5370  0.4462
  545MOL0     H73516   9.532   8.380  10.519  2.5577  0.7570 -0.3796
  545MOL0     H73517   9.652   8.252  10.478  0.8799  1.1225  0.0303
  545MOL0     H73518   9.505   8.137  10.317 -0.8733  1.7900 -1.8093
  545MOL0     H73519   9.366   8.186  10.396  0.5946 -1.0397 -0.5781
  545MOL0     H73520   9.366   8.315  10.194 -3.0618  0.0470  3.1561
  545MOL0     H73521   9.419   8.419  10.323  2.3651  1.5891 -0.3628
  545MOL0     H73522   9.562   8.465  10.141  1.1494 -1.6440 -3.5345
  545MOL0     H73523   9.654   8.410  10.267 -2.3277  3.3678 -0.6386
  545MOL0     H73524   9.544   8.209  10.059 -0.4766 -0.4109  0.5025
  545MOL0     H73525   9.691   8.198  10.146  1.9029  1.2583 -2.8511
  545MOL0     H73526   9.902   8.304  10.061  2.1687 -1.3045 -1.3599
  545MOL0     H73527  10.042   8.209   9.832 -1.3175  1.1363  3.5204
  545MOL0     H73528   9.994   8.289   9.683 -2.0522 -1.0629  0.3996
  545MOL0     H73529  10.040   8.505   9.837 -0.5782 -0.2568 -2.6533
  545MOL0     H73530  10.159   8.435   9.738 -0.0116 -1.2484 -0.8214
  545MOL0     H73531  10.257   8.308   9.909  1.0830  0.2068  1.1126
  545MOL0     H73532  10.139   8.349  10.032 -1.1273  1.6504 -0.9513
  545MOL0     H73533  10.331   8.484  10.072 -1.5501 -2.0743  0.9952
  545MOL0     H73534  10.201   8.590  10.007 -0.8469 -0.8355  2.1402
  545MOL0     H73535  10.368   8.753  10.058 -2.8944  0.6331 -2.0666
  545MOL0     H73536  10.451   9.051  10.083 -2.1072 -0.3848  0.0151
  545MOL0     H73537  10.476   8.913  10.185 -1.3132  2.1740  0.9476
  545MOL0     H73538  10.618   8.990  10.127  0.2971 -4.1336  6.1343
  545MOL0     H73539  10.797   9.104   9.498  1.9003 -0.8123 -1.2356
  545MOL0     H73540  10.933   9.313   9.448 -2.5908  0.7256  0.6123
  545MOL0     H73541  10.930   9.551   9.561  0.0003 -0.7740 -1.5816
  545MOL0     H73542  10.992   9.562   9.726  0.4423  4.3489 -0.0482
  545MOL0     H73543  11.058   9.767   9.617  0.4685  0.7908 -0.3594
  545MOL0     H73544  11.190   9.653   9.647  0.4615  1.5017 -0.5912
  545MOL0     H73545  11.060   9.719   9.385  1.5421 -1.0013 -2.5871
  545MOL0     H73546  11.185   9.582   9.404  2.1936  0.0850  1.5203
  545MOL0     H73547  11.241   9.875   9.429 -1.1279 -1.0065 -1.6753
  545MOL0     H73548  11.340   9.751   9.477  2.1488  4.7488 -1.3560
  545MOL0     H73549  11.202   9.747   9.205 -1.7263  0.0479  1.2270
  545MOL0     H73550  11.366   9.676   9.240 -0.6243  0.9043 -0.8737
  545MOL0     H73551  11.282   9.954   9.204 -2.6057 -3.1132 -0.7345
  545MOL0     H73552  11.434   9.922   9.281  2.0862 -3.0976 -0.0589
  545MOL0     H73553  11.457   9.761   9.046  2.3206  1.3379  1.2731
  545MOL0     H73554  11.500   9.933   9.037  0.0757  0.4574 -0.4708
  545MOL0     H73555  11.274   9.982   8.968  0.0081  0.3243  0.2087
  545MOL0     H73556  11.236   9.809   8.967 -1.2857  0.8247  4.5199
  545MOL0     H73557  11.119   9.291   9.825 -1.2932  1.4581 -0.2438
  545MOL0     H73558  11.003   9.066   9.869  0.6808 -1.2871 -0.4327
  545MOL0     H73559  10.660   8.802   9.673  0.1172  3.1115  0.2467
  545MOL0     H73560  10.536   8.610   9.685  1.6232 -0.9261  2.0195
  545MOL0     H73561   9.739   8.114  11.049  0.3570 -1.0768 -1.0253
  545MOL0     H73562   9.751   7.999  11.269 -3.1177  0.0802  3.4807
  545MOL0     H73563   9.396   7.485  11.492  0.6902 -2.3066  0.7906
  545MOL0     H73564   9.428   7.394  11.713 -2.3284  2.0696 -1.6547
  545MOL0     H73565   9.494   7.374  11.945 -1.1094 -1.1150 -1.2287
  545MOL0     H73566   9.528   7.231  11.845  0.8306  1.3566 -1.3988
  545MOL0     H73567   9.641   7.312  12.112  0.7605  0.5540 -0.4271
  545MOL0     H73568   9.734   7.206  12.014  0.1547 -1.1398  3.6577
  545MOL0     H73569   9.481   7.076  12.006 -2.0193  0.0725  1.0266
  545MOL0     H73570   9.452   7.177  12.141  1.1115  2.3382  0.1716
  545MOL0     H73571   9.704   6.996  12.095  3.7521  2.0389  3.2119
  545MOL0     H73572   9.548   6.958  12.195 -2.2913  0.3635 -3.7982
  545MOL0     H73573   9.804   7.168  12.447  2.2475  2.0950 -2.8688
  545MOL0     H73574   9.832   7.555  11.689  0.7599 -0.4339 -3.6240
  545MOL0     H73575   9.769   7.682  11.510 -2.2729  0.4821 -2.4023
  546MOL0     O73576   5.907   4.819  10.615  0.1322  0.9740 -0.0334
  546MOL0     C73577   5.905   4.692  10.599 -0.4039 -1.3007 -0.0030
  546MOL0     O73578   5.992   4.607  10.647  0.1283 -0.1751 -0.1614
  546MOL0     C73579   6.094   4.646  10.729  0.0752  0.2303 -0.9599
  546MOL0     C73580   6.230   4.608  10.698  0.3609 -0.0492 -0.6798
  546MOL0     C73581   6.336   4.655  10.769  0.2888 -0.2549 -1.4379
  546MOL0     C73582   6.314   4.754  10.871 -0.9161 -0.3445 -0.4047
  546MOL0     O73583   6.420   4.809  10.937 -0.3671 -0.7148 -0.8815
  546MOL0     C73584   6.401   4.890  11.062 -0.1349 -0.2089  1.1561
  546MOL0     C73585   6.443   5.035  11.023  0.2201 -0.5119 -0.6343
  546MOL0     C73586   6.579   5.050  10.967 -0.2044  0.4222 -0.9362
  546MOL0     C73587   6.617   5.199  10.945 -0.0706  0.4055 -0.3337
  546MOL0     C73588   6.762   5.197  10.882  1.0762 -0.3056  1.0399
  546MOL0     C73589   6.882   5.150  10.958 -0.5168 -0.7330 -0.3618
  546MOL0     C73590   7.015   5.144  10.873 -0.4142 -0.3570 -0.1611
  546MOL0     C73591   7.010   5.024  10.786 -0.2365  0.8806  0.5380
  546MOL0     N73592   6.994   5.052  10.641 -0.1711 -0.5789 -0.1823
  546MOL0     C73593   6.914   4.980  10.554 -0.2443  0.0807 -0.5789
  546MOL0     C73594   6.938   5.020  10.426 -0.3597  0.6558  0.2640
  546MOL0     C73595   6.858   4.983  10.297 -0.0700 -0.1995 -0.1911
  546MOL0     C73596   6.738   5.077  10.247  0.1950  0.2300  0.6001
  546MOL0     C73597   6.744   5.078  10.096 -0.7426 -0.0052 -0.5507
  546MOL0     C73598   6.606   5.093  10.023 -1.1236  1.1636 -0.6233
  546MOL0     O73599   6.521   5.198  10.085 -0.4525 -0.3211 -0.6403
  546MOL0     C73600   6.391   5.185  10.056  0.5278 -0.6429 -1.2160
  546MOL0     C73601   6.293   5.186  10.160 -0.2278  0.0300 -0.3267
  546MOL0     C73602   6.150   5.178  10.135 -1.0351  1.3687 -0.6194
  546MOL0     C73603   6.047   5.179  10.244 -0.1143 -0.9314 -0.3465
  546MOL0     C73604   6.105   5.182  10.002 -0.2662  0.3159  0.3036
  546MOL0     C73605   5.967   5.183   9.949  0.0949 -0.1259  0.0730
  546MOL0     O73606   5.947   5.213   9.813  0.4600  0.3083  0.2601
  546MOL0     C73607   5.837   5.174   9.746  0.2255  0.2555 -0.4098
  546MOL0     C73608   5.774   5.260   9.668 -0.2491  0.1041  0.7864
  546MOL0     C73609   5.643   5.218   9.617 -1.2308  0.2296  0.2911
  546MOL0     C73610   5.589   5.099   9.646 -0.6671  0.6837  0.9665
  546MOL0     O73611   5.466   5.049   9.607  0.1744 -0.5540  0.9100
  546MOL0     C73612   5.403   5.093   9.483 -0.0362 -0.3214  0.2706
  546MOL0     C73613   5.253   5.063   9.498  0.1169  0.1581 -0.6133
  546MOL0     C73614   5.177   5.161   9.598 -0.9388 -0.0599  0.5174
  546MOL0     C73615   5.025   5.139   9.580  0.0310 -0.1142  0.1015
  546MOL0     C73616   4.952   5.204   9.706 -0.1916  0.1948  0.6439
  546MOL0     C73617   4.796   5.227   9.683 -0.3403 -0.0741 -0.5747
  546MOL0     C73618   4.777   5.347   9.574  0.0095  0.9840 -1.2216
  546MOL0     C73619   4.629   5.398   9.581 -0.7931  0.1381 -0.7564
  546MOL0    Cl73620   4.589   5.485   9.735  0.2035  0.4408 -0.2046
  546MOL0     C73621   5.674   5.001   9.711  0.5203  0.5513  0.0687
  546MOL0     C73622   5.795   5.047   9.758  0.1884  0.5850 -0.4110
  546MOL0     O73623   5.876   5.138  10.017 -0.0386  0.0702 -0.8209
  546MOL0     C73624   6.204   5.165   9.900 -0.0061 -0.8469  0.4532
  546MOL0     C73625   6.344   5.163   9.923 -0.0873  0.0815  0.2561
  546MOL0     N73626   7.035   5.115  10.436 -0.2482  0.2317  0.3153
  546MOL0     N73627   7.062   5.140  10.564  0.5018 -0.2177  0.1524
  546MOL0     C73628   6.185   4.798  10.896 -0.2291  0.1738 -0.6667
  546MOL0     C73629   6.076   4.740  10.828  0.0789  0.2180 -0.2838
  546MOL0     C73630   5.793   4.635  10.514 -0.1490  0.1395 -0.6295
  546MOL0     C73631   5.724   4.717  10.421 -0.4474 -0.4020  0.7476
  546MOL0     C73632   5.608   4.673  10.350  0.3116 -0.2090  0.7529
  546MOL0     C73633   5.585   4.535  10.353  0.4721 -0.3441  0.2585
  546MOL0     O73634   5.491   4.474  10.272 -0.0610  0.0034 -0.6840
  546MOL0     C73635   5.415   4.546  10.173 -0.2188  0.4603  0.1439
  546MOL0     C73636   5.357   4.443  10.063 -0.2308  0.4145 -0.4090
  546MOL0     C73637   5.297   4.501   9.937  0.6211  0.6667 -0.4019
  546MOL0     C73638   5.397   4.557   9.839 -0.2330 -0.4535  0.5914
  546MOL0     C73639   5.397   4.703   9.842  0.5620  0.4917 -0.8898
  546MOL0     C73640   5.420   4.821   9.851  0.8855  1.2364  0.3591
  546MOL0     C73641   5.647   4.448  10.444  0.8923 -0.1806  0.7101
  546MOL0     C73642   5.755   4.493  10.523  0.3086  0.3285 -1.0406
  546MOL0     H73643   6.256   4.538  10.620 -1.5022 -0.7295 -0.7436
  546MOL0     H73644   6.442   4.630  10.769  0.8662  1.5025  2.3018
  546MOL0     H73645   6.303   4.877  11.108 -0.8816  1.2804  0.0794
  546MOL0     H73646   6.477   4.844  11.126  1.1259 -1.9841 -1.4059
  546MOL0     H73647   6.377   5.084  10.952 -0.8330  1.2616  1.4459
  546MOL0     H73648   6.417   5.082  11.118 -1.5930  0.5383 -1.5953
  546MOL0     H73649   6.656   5.006  11.031  0.3597  5.2189  2.2037
  546MOL0     H73650   6.578   5.006  10.867  0.4589  2.3776 -1.8430
  546MOL0     H73651   6.560   5.246  10.865 -1.4271 -1.2738 -0.4077
  546MOL0     H73652   6.617   5.264  11.033 -1.1034  2.1393 -1.5375
  546MOL0     H73653   6.766   5.139  10.789  3.1767  0.6607  0.4658
  546MOL0     H73654   6.778   5.301  10.853 -2.1343  0.3391  1.1148
  546MOL0     H73655   6.893   5.209  11.049  0.4489  1.3936 -1.7728
  546MOL0     H73656   6.862   5.049  10.997 -1.9003 -1.2122 -2.1166
  546MOL0     H73657   7.026   5.236  10.815  0.2773 -0.6808 -0.5575
  546MOL0     H73658   7.103   5.149  10.939 -2.0381  4.7329  2.1533
  546MOL0     H73659   6.924   4.959  10.809  0.8861 -0.5987  0.7088
  546MOL0     H73660   7.093   4.956  10.808 -1.2621 -0.3806  0.6116
  546MOL0     H73661   6.843   4.900  10.573  1.3838 -2.1203 -2.9995
  546MOL0     H73662   6.939   4.996  10.224 -1.6200  1.7141 -1.6903
  546MOL0     H73663   6.830   4.877  10.296  0.4384 -0.3413 -1.1325
  546MOL0     H73664   6.748   5.176  10.292 -1.0122 -0.0164  1.4714
  546MOL0     H73665   6.647   5.028  10.283 -2.5704  1.7505 -3.6379
  546MOL0     H73666   6.776   4.977  10.068  1.1210  0.1125  0.9685
  546MOL0     H73667   6.816   5.155  10.068 -1.9756  1.8222  1.0034
  546MOL0     H73668   6.555   5.000  10.048 -1.2493  1.5513  0.6159
  546MOL0     H73669   6.615   5.103   9.914  0.3859 -0.3514 -0.6856
  546MOL0     H73670   6.334   5.186  10.260 -0.6958 -2.0505 -0.0803
  546MOL0     H73671   5.966   5.246  10.216 -0.8983 -2.2231 -1.2858
  546MOL0     H73672   6.001   5.081  10.260 -0.7214 -0.8069 -1.2666
  546MOL0     H73673   6.098   5.211  10.335  4.5356 -3.2625 -1.7722
  546MOL0     H73674   5.817   5.357   9.644  1.4045 -0.9800 -0.8852
  546MOL0     H73675   5.583   5.288   9.559 -1.9609  0.2551  1.0547
  546MOL0     H73676   5.416   5.200   9.464  2.3696 -0.7856 -1.1836
  546MOL0     H73677   5.434   5.037   9.393  0.3243 -1.7003  1.2151
  546MOL0     H73678   5.203   5.074   9.401  1.0726  1.0856 -1.0187
  546MOL0     H73679   5.236   4.960   9.531 -2.5149  1.5602  3.0889
  546MOL0     H73680   5.208   5.266   9.598  0.6421 -0.3553 -3.3253
  546MOL0     H73681   5.189   5.127   9.701 -1.5713  0.7850  0.8831
  546MOL0     H73682   5.002   5.189   9.485 -0.0613 -1.9484 -0.8800
  546MOL0     H73683   5.009   5.033   9.564  0.0135  0.1877 -2.2350
  546MOL0     H73684   5.002   5.297   9.735 -1.7271  0.8899  1.1247
  546MOL0     H73685   4.965   5.138   9.793  1.2276  0.1703  0.4484
  546MOL0     H73686   4.753   5.133   9.647  1.0087 -0.3601 -1.5037
  546MOL0     H73687   4.740   5.262   9.770 -0.0078 -1.3204  0.1657
  546MOL0     H73688   4.783   5.293   9.480 -3.1679 -1.9445  0.0600
  546MOL0     H73689   4.855   5.423   9.591  1.7138 -1.0204  0.5947
  546MOL0     H73690   4.562   5.311   9.580 -4.1460  2.4049  1.8437
  546MOL0     H73691   4.597   5.466   9.502 -0.7901  3.7013  2.0641
  546MOL0     H73692   5.652   4.895   9.724  0.5057  0.6109  0.5515
  546MOL0     H73693   5.861   4.979   9.811 -0.8473 -0.7575 -0.7869
  546MOL0     H73694   6.172   5.152   9.797 -1.7052 -3.1984  1.1622
  546MOL0     H73695   6.419   5.140   9.848 -0.9887 -1.4081 -0.2365
  546MOL0     H73696   6.154   4.868  10.972 -0.3363  2.1461 -2.4358
  546MOL0     H73697   5.974   4.763  10.857 -0.4939 -2.8584  0.4750
  546MOL0     H73698   5.752   4.822  10.421 -0.0922 -0.4744  2.6474
  546MOL0     H73699   5.544   4.738  10.291  0.7206 -2.7735 -2.8107
  546MOL0     H73700   5.334   4.602  10.221 -2.8603 -4.4249  2.1114
  546MOL0     H73701   5.480   4.617  10.121  0.5989 -0.2657  0.1602
  546MOL0     H73702   5.280   4.382  10.110  2.5049 -3.1867 -0.2125
  546MOL0     H73703   5.436   4.375  10.031 -3.1695 -3.8483  0.6560
  546MOL0     H73704   5.214   4.567   9.962 -2.2729 -2.1772 -1.7473
  546MOL0     H73705   5.259   4.413   9.883 -3.7130  1.2566  1.3080
  546MOL0     H73706   5.369   4.535   9.736 -1.0372  2.0314  0.2086
  546MOL0     H73707   5.495   4.517   9.866  0.0854  0.4767  0.8657
  546MOL0     H73708   5.446   4.925   9.856  1.7250  1.1135 -0.8871
  546MOL0     H73709   5.612   4.346  10.439  0.7279 -0.3930  3.9041
  546MOL0     H73710   5.813   4.440  10.598  0.0217  0.0926 -0.9808
  547MOL0     O73711   8.704   5.953   4.791  0.1123 -0.5523  0.2368
  547MOL0     C73712   8.805   5.992   4.850 -0.1472 -0.8509 -0.2762
  547MOL0     O73713   8.893   6.085   4.805  0.3939  0.0860  0.3706
  547MOL0     C73714   8.874   6.137   4.679 -0.0960  0.2445  0.5825
  547MOL0     C73715   8.778   6.234   4.671  0.3738 -0.1745  0.4353
  547MOL0     C73716   8.764   6.309   4.561  1.1324 -0.7615  0.0562
  547MOL0     C73717   8.843   6.301   4.451  0.5297 -0.2022 -0.1250
  547MOL0     O73718   8.830   6.393   4.348  0.3922 -0.5451 -0.1101
  547MOL0     C73719   8.936   6.429   4.268  0.2589  1.3111 -1.3049
  547MOL0     C73720   8.895   6.522   4.152  0.8717  0.7303 -0.8955
  547MOL0     C73721   8.811   6.655   4.185 -0.1343 -1.0633 -0.1356
  547MOL0     C73722   8.895   6.749   4.270 -0.0809 -0.0536 -0.4494
  547MOL0     C73723   8.843   6.895   4.270 -0.5469  0.1859 -0.6580
  547MOL0     C73724   8.940   6.976   4.343 -0.2019 -0.0819 -0.2430
  547MOL0     C73725   8.972   6.916   4.494  0.0498  0.2851  0.0188
  547MOL0     C73726   9.039   7.020   4.579  0.5017 -0.0559  0.5580
  547MOL0     N73727   8.943   7.096   4.665 -1.0733  0.4259  0.9138
  547MOL0     C73728   8.816   7.132   4.628 -0.3354 -0.3521  0.5019
  547MOL0     C73729   8.750   7.155   4.749  0.1599  0.3084 -0.0655
  547MOL0     C73730   8.600   7.181   4.765 -0.1731  0.1035 -0.2264
  547MOL0     C73731   8.515   7.054   4.738  0.0336  0.9084 -0.4825
  547MOL0     C73732   8.364   7.095   4.749 -0.1709 -0.3756  0.6636
  547MOL0     C73733   8.271   6.976   4.729 -0.0795 -0.4529  0.8420
  547MOL0     O73734   8.160   7.012   4.795  0.5908  0.0615  0.2323
  547MOL0     C73735   8.075   6.914   4.839 -0.5890  0.2862  0.2575
  547MOL0     C73736   7.979   6.938   4.939 -1.3455 -0.9249 -0.3907
  547MOL0     C73737   7.882   6.845   4.984  0.2956 -0.1324  0.4392
  547MOL0     C73738   7.800   6.901   5.092  0.7519  0.8549 -0.3752
  547MOL0     C73739   7.877   6.716   4.935  0.7779  1.5857 -1.2119
  547MOL0     C73740   7.807   6.594   4.992 -0.5161  0.0222  0.5363
  547MOL0     O73741   7.860   6.470   4.980  0.3225  0.1032 -0.3128
  547MOL0     C73742   7.823   6.377   5.071 -0.1986 -0.3299 -0.3284
  547MOL0     C73743   7.910   6.354   5.185 -0.4195  0.5518  0.6477
  547MOL0     C73744   7.875   6.250   5.282  0.2199  0.3834 -0.5885
  547MOL0     C73745   7.747   6.189   5.283  0.2366 -0.0365  0.2786
  547MOL0     O73746   7.720   6.103   5.383  0.4287  0.2389 -0.1541
  547MOL0     C73747   7.619   6.000   5.361 -0.1979 -0.3923  0.2765
  547MOL0     C73748   7.628   5.894   5.478  0.5613 -0.9623 -1.0142
  547MOL0     C73749   7.742   5.803   5.450  0.2997  0.2091  0.0270
  547MOL0     C73750   7.725   5.677   5.535 -0.1060 -1.0753 -0.5754
  547MOL0     C73751   7.837   5.586   5.503 -0.6838  0.6443 -0.9052
  547MOL0     C73752   7.844   5.447   5.573 -0.5497  0.6747 -1.1705
  547MOL0     C73753   7.717   5.363   5.555  0.6499  1.1516 -0.1952
  547MOL0     C73754   7.709   5.232   5.646  0.0742 -0.6574 -0.0380
  547MOL0    Cl73755   7.832   5.104   5.611 -0.2138  0.0952 -0.1332
  547MOL0     C73756   7.666   6.210   5.161 -0.0649 -0.5996 -0.2797
  547MOL0     C73757   7.700   6.308   5.062 -0.3551  0.2591 -0.0684
  547MOL0     O73758   7.707   6.617   5.050  0.5317  0.1920  0.7350
  547MOL0     C73759   7.975   6.681   4.840  0.1460  0.4969  0.1875
  547MOL0     C73760   8.069   6.778   4.785 -0.6933  1.2720 -1.0737
  547MOL0     N73761   8.828   7.122   4.847 -0.4970 -0.6994 -0.9385
  547MOL0     N73762   8.948   7.098   4.802 -0.4091  0.4094 -0.2822
  547MOL0     C73763   8.944   6.193   4.450  0.1917  0.2318  0.0541
  547MOL0     C73764   8.958   6.118   4.567 -0.0481  0.0632  0.5607
  547MOL0     C73765   8.842   5.921   4.975 -0.6504 -0.7690 -0.7763
  547MOL0     C73766   8.769   5.814   5.027  0.6369  0.4594  0.0233
  547MOL0     C73767   8.793   5.758   5.157 -0.2884  0.4032 -0.1329
  547MOL0     C73768   8.911   5.798   5.230 -1.3611  0.6599 -0.4490
  547MOL0     O73769   8.946   5.745   5.351 -0.4761 -0.3901  0.2606
  547MOL0     C73770   8.882   5.624   5.386 -0.4008 -0.0092  0.3241
  547MOL0     C73771   8.928   5.505   5.305 -0.1347 -1.4435 -0.0235
  547MOL0     C73772   9.081   5.491   5.313  0.0260  0.5452  1.0183
  547MOL0     C73773   9.147   5.495   5.453 -0.3603 -0.0715 -0.1189
  547MOL0     C73774   9.119   5.373   5.533  0.3429  0.6856  0.4292
  547MOL0     C73775   9.095   5.261   5.585 -0.1871 -0.1591 -0.0611
  547MOL0     C73776   8.987   5.910   5.182  0.4179 -0.0942 -0.2485
  547MOL0     C73777   8.950   5.970   5.055  0.2811 -0.0411 -0.2858
  547MOL0     H73778   8.724   6.262   4.761  1.5414 -1.3625  1.5539
  547MOL0     H73779   8.689   6.387   4.553  0.0286 -1.9714 -3.0301
  547MOL0     H73780   9.013   6.487   4.320  2.3423 -2.3456  0.0355
  547MOL0     H73781   8.984   6.338   4.230  0.3725  0.1519  1.4172
  547MOL0     H73782   8.985   6.546   4.096 -0.2566  0.3896 -2.9773
  547MOL0     H73783   8.825   6.470   4.085  1.0896  2.9351 -2.9814
  547MOL0     H73784   8.785   6.706   4.091  3.0465  2.1919  0.5012
  547MOL0     H73785   8.728   6.621   4.247  2.2789  1.5120  5.0791
  547MOL0     H73786   8.886   6.706   4.370 -2.1971  1.0287 -0.1075
  547MOL0     H73787   8.999   6.742   4.239  0.9624  2.2576  2.1313
  547MOL0     H73788   8.831   6.928   4.167 -0.0363 -0.4551 -0.9258
  547MOL0     H73789   8.741   6.900   4.309 -0.5337 -0.1792 -0.5706
  547MOL0     H73790   9.036   6.965   4.292  0.0585 -1.1019  0.4271
  547MOL0     H73791   8.920   7.083   4.341 -0.1250  0.0102  1.6381
  547MOL0     H73792   8.882   6.871   4.536  0.9738 -1.4549  0.2579
  547MOL0     H73793   9.039   6.832   4.472 -2.2672 -1.6399 -0.1192
  547MOL0     H73794   9.093   7.093   4.519 -0.6437  0.0937 -0.3341
  547MOL0     H73795   9.110   6.969   4.644  2.3559 -0.6008 -1.7623
  547MOL0     H73796   8.769   7.152   4.532 -1.5941 -0.2465  1.1221
  547MOL0     H73797   8.585   7.205   4.871  1.1263 -0.5190  0.1207
  547MOL0     H73798   8.583   7.264   4.696  1.8960  0.1485 -0.7429
  547MOL0     H73799   8.522   6.977   4.815 -5.3028 -0.4665 -1.0025
  547MOL0     H73800   8.535   7.016   4.637  2.6296  0.5319  0.1052
  547MOL0     H73801   8.352   7.170   4.671 -1.1254  0.0715  1.2126
  547MOL0     H73802   8.351   7.127   4.853  0.9496  0.4994  0.5498
  547MOL0     H73803   8.320   6.884   4.761  0.5179 -0.1759  0.7391
  547MOL0     H73804   8.247   6.960   4.624  1.7254 -2.0057  0.6154
  547MOL0     H73805   7.996   7.032   4.989  0.4781  0.4746 -3.3413
  547MOL0     H73806   7.821   6.851   5.187  1.7133  0.1598 -0.9286
  547MOL0     H73807   7.817   7.009   5.104 -0.0246  1.0243 -0.7690
  547MOL0     H73808   7.697   6.878   5.065  1.7217 -1.2191 -2.7005
  547MOL0     H73809   8.003   6.410   5.186  0.2608 -0.5563  1.1758
  547MOL0     H73810   7.931   6.226   5.371 -2.5327 -2.6014  0.5290
  547MOL0     H73811   7.526   6.057   5.352  0.8770  1.1618 -1.8041
  547MOL0     H73812   7.633   5.953   5.263  1.3718  4.6874 -2.2937
  547MOL0     H73813   7.646   5.948   5.571 -1.4270 -1.9789  0.0310
  547MOL0     H73814   7.535   5.836   5.483  0.1676 -0.2082  1.5290
  547MOL0     H73815   7.839   5.849   5.472  1.6637 -1.9074 -1.3315
  547MOL0     H73816   7.736   5.792   5.342 -2.3758  0.8747  0.0194
  547MOL0     H73817   7.717   5.707   5.640 -0.3378  1.9468 -1.3727
  547MOL0     H73818   7.629   5.628   5.516 -1.5081  1.1429  0.3704
  547MOL0     H73819   7.928   5.638   5.535 -1.1219  0.4989  0.6870
  547MOL0     H73820   7.842   5.576   5.394  3.4548  0.3850 -0.8818
  547MOL0     H73821   7.921   5.384   5.527 -1.8235 -0.8326 -1.3404
  547MOL0     H73822   7.869   5.450   5.679 -1.1444  1.1475 -1.0358
  547MOL0     H73823   7.710   5.322   5.454  0.0254 -0.6966  0.5404
  547MOL0     H73824   7.625   5.421   5.566  0.1545  0.2865  0.3583
  547MOL0     H73825   7.608   5.192   5.639 -0.6590  0.8164  1.4468
  547MOL0     H73826   7.717   5.263   5.751  4.7190 -0.1798 -0.3308
  547MOL0     H73827   7.573   6.154   5.153 -0.6976  0.1850  1.1812
  547MOL0     H73828   7.640   6.328   4.974  1.0318  1.6131 -0.7610
  547MOL0     H73829   7.980   6.577   4.812  1.0499  0.9545 -1.4464
  547MOL0     H73830   8.145   6.759   4.711 -0.3364 -5.1540  0.3503
  547MOL0     H73831   9.014   6.184   4.368 -1.5436  0.0383 -1.4664
  547MOL0     H73832   9.041   6.048   4.570  0.3073  0.4634  0.1530
  547MOL0     H73833   8.678   5.787   4.975 -0.1637  2.5296  0.2620
  547MOL0     H73834   8.724   5.687   5.201  1.1096 -0.4487  0.7420
  547MOL0     H73835   8.903   5.616   5.493  1.9387  1.0585  0.0027
  547MOL0     H73836   8.774   5.637   5.370 -0.4535 -1.4307 -0.6492
  547MOL0     H73837   8.903   5.522   5.200 -1.8037 -0.5194  0.4780
  547MOL0     H73838   8.887   5.410   5.341  0.7926 -2.9348 -2.6640
  547MOL0     H73839   9.139   5.569   5.263  0.3795  0.3012  1.0444
  547MOL0     H73840   9.115   5.404   5.257  1.7375  2.3792 -0.9755
  547MOL0     H73841   9.106   5.576   5.514 -1.9460 -0.3028 -0.8247
  547MOL0     H73842   9.255   5.506   5.441 -0.2534 -2.1518 -1.5279
  547MOL0     H73843   9.082   5.163   5.626  0.7871 -0.3270 -0.1202
  547MOL0     H73844   9.065   5.940   5.251 -0.2032 -2.0423  1.4088
  547MOL0     H73845   9.006   6.058   5.027 -0.5288  1.6464  2.8916
  548MOL0     O73846   4.776   8.018   8.878  0.1816  0.2073  0.0521
  548MOL0     C73847   4.817   8.074   8.777  0.2325  0.0836 -0.2897
  548MOL0     O73848   4.888   8.019   8.672  0.6448  0.0060 -0.6947
  548MOL0     C73849   4.896   7.889   8.670  0.1299  1.0162  0.1192
  548MOL0     C73850   4.802   7.804   8.605  0.7757 -0.0582 -0.3958
  548MOL0     C73851   4.799   7.666   8.618  0.0707  0.6593 -0.0314
  548MOL0     C73852   4.918   7.607   8.671  0.7044  0.0787 -0.0734
  548MOL0     O73853   4.937   7.469   8.700 -0.6248  0.6032 -0.1206
  548MOL0     C73854   4.942   7.372   8.595 -0.7842 -0.6591  0.2659
  548MOL0     C73855   5.090   7.326   8.578  0.3635  0.1540  0.1784
  548MOL0     C73856   5.110   7.207   8.474  0.6883 -0.6285 -0.3830
  548MOL0     C73857   5.134   7.256   8.332  0.2075 -1.1167 -1.4552
  548MOL0     C73858   5.090   7.167   8.220  0.4804  0.4070  0.3393
  548MOL0     C73859   4.943   7.150   8.210 -0.9720 -0.9216  1.2233
  548MOL0     C73860   4.899   7.070   8.087 -0.0082  0.0593  0.1165
  548MOL0     C73861   4.879   6.923   8.129 -0.1905 -1.1921  0.1513
  548MOL0     N73862   4.754   6.904   8.208 -0.2896  0.1248  0.4613
  548MOL0     C73863   4.752   6.894   8.349 -0.6689  0.4368 -0.6024
  548MOL0     C73864   4.623   6.878   8.382 -0.9924  0.2670 -0.0718
  548MOL0     C73865   4.568   6.832   8.519  0.4094 -0.2296 -0.1040
  548MOL0     C73866   4.650   6.716   8.571  0.2176 -1.0386 -0.5448
  548MOL0     C73867   4.560   6.619   8.644 -0.8585 -0.2907  0.4495
  548MOL0     C73868   4.494   6.668   8.777  0.5985 -0.8066 -0.1542
  548MOL0     O73869   4.594   6.729   8.868  0.4468  0.2769 -0.0412
  548MOL0     C73870   4.562   6.770   8.996 -0.5718  0.5862 -0.0903
  548MOL0     C73871   4.440   6.821   9.042 -0.5824 -0.4542  0.1334
  548MOL0     C73872   4.414   6.857   9.177 -0.3274  0.4667  0.7879
  548MOL0     C73873   4.274   6.903   9.217  0.3886  0.3027 -0.3493
  548MOL0     C73874   4.515   6.825   9.271  0.4885  0.1316 -0.7974
  548MOL0     C73875   4.509   6.846   9.417  0.4523  0.8404  0.2271
  548MOL0     O73876   4.630   6.874   9.479  0.6302 -0.0336 -0.3117
  548MOL0     C73877   4.636   6.880   9.616  0.6714 -0.0533  0.0021
  548MOL0     C73878   4.595   6.991   9.683  0.2003  1.1686 -0.0205
  548MOL0     C73879   4.593   6.995   9.825 -0.2879  0.3673 -0.4336
  548MOL0     C73880   4.659   6.895   9.904  0.3371  0.1464  0.4667
  548MOL0     O73881   4.670   6.929  10.038  0.7465  0.7982 -1.0391
  548MOL0     C73882   4.685   6.809  10.123  0.5416  0.3601 -0.2979
  548MOL0     C73883   4.633   6.815  10.270 -0.3522  0.2760  0.1267
  548MOL0     C73884   4.484   6.759  10.283  0.5206 -0.2394 -0.1138
  548MOL0     C73885   4.474   6.608  10.337 -0.6082 -0.3648 -0.1344
  548MOL0     C73886   4.488   6.572  10.486  0.0091 -0.4909 -0.8241
  548MOL0     C73887   4.424   6.677  10.581  0.4526 -0.4195  1.6381
  548MOL0     C73888   4.266   6.702  10.582 -0.2652  0.7803  0.1423
  548MOL0     C73889   4.192   6.578  10.634 -0.4571 -0.1076  1.3175
  548MOL0    Cl73890   4.230   6.575  10.808  0.0521  0.1211 -0.2395
  548MOL0     C73891   4.703   6.784   9.828 -0.3563  0.1321 -0.3948
  548MOL0     C73892   4.698   6.774   9.686 -0.3753 -0.3135  0.4225
  548MOL0     O73893   4.405   6.828   9.479 -0.2726  0.0964 -0.4340
  548MOL0     C73894   4.638   6.784   9.223  0.0583  0.3485 -0.3598
  548MOL0     C73895   4.667   6.772   9.092 -0.4073  0.7333  0.2284
  548MOL0     N73896   4.544   6.900   8.269 -0.0991 -0.0677  0.4158
  548MOL0     N73897   4.618   6.914   8.171  0.2880 -0.5186  0.3341
  548MOL0     C73898   5.030   7.684   8.712  0.1307  0.4292  1.0240
  548MOL0     C73899   5.011   7.825   8.712  0.8300 -0.3816  0.4945
  548MOL0     C73900   4.793   8.214   8.769 -0.8355  0.3009  0.6528
  548MOL0     C73901   4.762   8.266   8.642  0.7953 -0.7833 -0.4745
  548MOL0     C73902   4.750   8.401   8.621  0.6153 -0.2726  0.0591
  548MOL0     C73903   4.767   8.487   8.724 -0.1018 -0.4125  0.3888
  548MOL0     O73904   4.748   8.614   8.682 -0.7203  0.7389 -0.4717
  548MOL0     C73905   4.775   8.717   8.780  0.4572 -1.3656  0.3098
  548MOL0     C73906   4.716   8.852   8.750 -0.8839 -0.5194  0.7037
  548MOL0     C73907   4.765   8.961   8.851  0.0856 -0.7551  0.3291
  548MOL0     C73908   4.880   9.047   8.790  0.2924 -0.3456  0.0137
  548MOL0     C73909   4.995   8.964   8.806 -0.3316  0.0615  0.8166
  548MOL0     C73910   5.100   8.925   8.828 -0.3834  0.1165 -0.2738
  548MOL0     C73911   4.803   8.438   8.856 -0.2405  0.0849 -0.7581
  548MOL0     C73912   4.815   8.301   8.879  0.3663  0.5782  0.7916
  548MOL0     H73913   4.719   7.852   8.554 -0.4997 -1.7744 -0.0383
  548MOL0     H73914   4.727   7.594   8.580  0.6340  1.0312 -1.9067
  548MOL0     H73915   4.900   7.281   8.638  2.0721 -1.8349  0.7750
  548MOL0     H73916   4.891   7.392   8.500  1.0190  3.8106 -0.0045
  548MOL0     H73917   5.156   7.409   8.556 -1.8141  1.5307 -1.6653
  548MOL0     H73918   5.129   7.288   8.673  0.0286 -0.6341  0.0114
  548MOL0     H73919   5.193   7.141   8.499  0.7967  0.1940  1.6162
  548MOL0     H73920   5.021   7.143   8.476 -1.3069  1.9937  0.1012
  548MOL0     H73921   5.090   7.356   8.325 -0.9618 -1.4075  0.6324
  548MOL0     H73922   5.241   7.279   8.329  0.7336 -1.6438  3.5593
  548MOL0     H73923   5.102   7.203   8.117 -0.4455 -1.1346 -0.3659
  548MOL0     H73924   5.134   7.066   8.221 -3.9500 -1.7887 -0.3976
  548MOL0     H73925   4.901   7.107   8.302 -1.7271  0.4839  1.5612
  548MOL0     H73926   4.890   7.245   8.202  0.0734 -0.0895  3.1946
  548MOL0     H73927   4.809   7.111   8.040 -0.1304  0.7362  0.9101
  548MOL0     H73928   4.975   7.076   8.009 -1.0764  0.5213 -0.9228
  548MOL0     H73929   4.965   6.892   8.189 -0.6623 -0.3429  1.3138
  548MOL0     H73930   4.888   6.869   8.035 -0.4604 -0.5156 -0.2730
  548MOL0     H73931   4.840   6.897   8.413 -0.5695 -0.1743 -0.7046
  548MOL0     H73932   4.584   6.916   8.587 -0.1886  1.3047 -1.7862
  548MOL0     H73933   4.461   6.814   8.503  0.3710  2.4899 -4.7875
  548MOL0     H73934   4.722   6.768   8.635 -1.4516  1.8347 -0.8342
  548MOL0     H73935   4.702   6.672   8.485 -1.2030  0.2840 -2.1378
  548MOL0     H73936   4.607   6.520   8.653  2.4465  0.9796 -1.1128
  548MOL0     H73937   4.473   6.604   8.580 -1.4919 -1.7138  1.5781
  548MOL0     H73938   4.455   6.581   8.830  1.0991  0.3811  2.3395
  548MOL0     H73939   4.412   6.737   8.757  2.5423  1.1353 -2.0684
  548MOL0     H73940   4.355   6.827   8.974  0.7115  2.1974 -1.4172
  548MOL0     H73941   4.222   6.928   9.124 -0.4169 -2.4020 -0.7354
  548MOL0     H73942   4.222   6.824   9.272  3.0982  1.0125  3.7247
  548MOL0     H73943   4.291   6.978   9.295 -3.8059 -3.0371  4.5000
  548MOL0     H73944   4.550   7.072   9.627 -1.3429  0.6551  0.4544
  548MOL0     H73945   4.548   7.078   9.880 -0.8990 -0.2685  0.0449
  548MOL0     H73946   4.629   6.726  10.079 -0.6072  0.3957  1.0449
  548MOL0     H73947   4.792   6.788  10.124  0.5621  0.3114 -1.6122
  548MOL0     H73948   4.708   6.749  10.315  0.5838 -0.8819 -2.8665
  548MOL0     H73949   4.642   6.916  10.311 -2.7723  1.1542 -1.3328
  548MOL0     H73950   4.431   6.767  10.188  0.0618 -0.3278  0.1308
  548MOL0     H73951   4.424   6.828  10.342 -2.5813 -1.0387 -2.0932
  548MOL0     H73952   4.368   6.586  10.319 -0.8808  0.6433  0.1952
  548MOL0     H73953   4.529   6.536  10.275  1.1536  0.4454  0.4168
  548MOL0     H73954   4.596   6.569  10.501 -0.0099  2.3275  0.6840
  548MOL0     H73955   4.454   6.471  10.512 -1.9026  0.1972 -0.4454
  548MOL0     H73956   4.452   6.660  10.686  1.1078 -1.1792  1.3559
  548MOL0     H73957   4.466   6.771  10.546 -0.1887 -0.8715 -0.5347
  548MOL0     H73958   4.253   6.713  10.474 -1.7257  1.0331  0.3183
  548MOL0     H73959   4.254   6.793  10.641 -2.5634 -0.1470  1.2416
  548MOL0     H73960   4.211   6.490  10.572 -1.1253  0.1763  0.6974
  548MOL0     H73961   4.086   6.591  10.608 -0.7105 -3.2622  0.3600
  548MOL0     H73962   4.743   6.701   9.886  0.2517 -0.4293 -1.5896
  548MOL0     H73963   4.726   6.685   9.630  1.3034 -0.4550  1.4148
  548MOL0     H73964   4.719   6.765   9.293  1.3227 -2.0845 -2.3015
  548MOL0     H73965   4.768   6.741   9.070 -0.8491 -3.3854  2.8403
  548MOL0     H73966   5.117   7.629   8.747  0.2936 -0.9467 -1.3108
  548MOL0     H73967   5.095   7.892   8.723  2.2393 -1.8738 -0.6089
  548MOL0     H73968   4.747   8.194   8.562 -1.1336 -2.2979  1.1755
  548MOL0     H73969   4.743   8.441   8.521  0.9547 -2.0068 -0.7052
  548MOL0     H73970   4.720   8.691   8.871  0.0020 -0.1661  0.4010
  548MOL0     H73971   4.880   8.717   8.810  1.1893 -0.9199 -2.0171
  548MOL0     H73972   4.608   8.842   8.737 -0.6314 -3.2591  0.1217
  548MOL0     H73973   4.748   8.881   8.649  0.5562 -2.5106  0.5349
  548MOL0     H73974   4.792   8.911   8.944 -2.6792 -0.5878  1.3045
  548MOL0     H73975   4.682   9.031   8.868  1.9633  3.3192 -4.5320
  548MOL0     H73976   4.895   9.132   8.857  2.9936  1.7543 -3.0090
  548MOL0     H73977   4.860   9.073   8.686  1.2073 -0.9834 -0.3394
  548MOL0     H73978   5.191   8.885   8.868  0.8473  0.2555 -2.7693
  548MOL0     H73979   4.815   8.502   8.943  2.1993  1.1307 -1.7565
  548MOL0     H73980   4.837   8.261   8.978  1.2136  0.3472  0.5130
  549MOL0     O73981   8.886   9.789   3.040  0.0820 -1.0220  0.3579
  549MOL0     C73982   8.787   9.793   3.113  0.9377  0.0855 -0.5388
  549MOL0     O73983   8.658   9.777   3.087  0.2357  0.4360  0.2101
  549MOL0     C73984   8.623   9.746   2.954 -0.6499 -0.2489 -0.9547
  549MOL0     C73985   8.686   9.654   2.871 -0.4409  0.5287 -0.5979
  549MOL0     C73986   8.642   9.616   2.748  0.3778  0.4672  0.6662
  549MOL0     C73987   8.534   9.688   2.682  0.8488 -0.1016  0.3323
  549MOL0     O73988   8.516   9.682   2.554 -0.4817 -0.0195 -0.6442
  549MOL0     C73989   8.587   9.578   2.481 -0.6607 -0.0514  0.4989
  549MOL0     C73990   8.556   9.580   2.334 -1.2972 -0.1297 -0.1114
  549MOL0     C73991   8.428   9.515   2.280  0.0682  0.1414  0.6975
  549MOL0     C73992   8.440   9.364   2.307 -0.5934 -0.7769 -0.2353
  549MOL0     C73993   8.322   9.290   2.242 -0.5801 -0.3967 -0.5756
  549MOL0     C73994   8.343   9.137   2.262  0.5490 -0.2901  1.3100
  549MOL0     C73995   8.292   9.081   2.396  0.4011  0.8068 -1.1766
  549MOL0     C73996   8.371   8.970   2.459  0.2255 -0.3379  0.2934
  549MOL0     N73997   8.364   8.835   2.386  1.0152 -0.8952  0.0775
  549MOL0     C73998   8.264   8.741   2.395  0.0450 -0.7791  0.5779
  549MOL0     C73999   8.306   8.637   2.318 -0.7768 -0.1338 -0.3858
  549MOL0     C74000   8.261   8.494   2.326 -0.0306  0.4746  0.8795
  549MOL0     C74001   8.114   8.466   2.294  0.4249 -0.8642 -0.4839
  549MOL0     C74002   8.078   8.316   2.274  0.1321  0.1576  0.1464
  549MOL0     C74003   8.117   8.259   2.135 -0.2564  0.1858  0.4237
  549MOL0     O74004   8.056   8.332   2.026  0.9261  0.1584  1.2281
  549MOL0     C74005   8.072   8.282   1.897  0.8033 -1.5280 -0.6091
  549MOL0     C74006   8.152   8.170   1.856  0.7439 -0.3076  0.3168
  549MOL0     C74007   8.169   8.132   1.722 -0.1327 -0.1695  0.2891
  549MOL0     C74008   8.262   8.015   1.687 -0.9971  0.1029 -0.0747
  549MOL0     C74009   8.104   8.207   1.623 -0.4163 -0.3116  0.5838
  549MOL0     C74010   8.107   8.170   1.471  0.8657 -0.0775 -0.2107
  549MOL0     O74011   8.000   8.220   1.395  0.2031  0.7933  0.0797
  549MOL0     C74012   8.014   8.203   1.260  0.2789  0.2420  0.4256
  549MOL0     C74013   8.038   8.308   1.167  0.2742 -0.5370 -0.0998
  549MOL0     C74014   8.095   8.283   1.038  0.3197 -0.3393 -0.5606
  549MOL0     C74015   8.115   8.158   0.988 -0.3721 -0.0410 -0.4723
  549MOL0     O74016   8.169   8.138   0.867  0.6151 -0.5757  0.2479
  549MOL0     C74017   8.102   8.049   0.782  0.1312 -0.1531  0.6768
  549MOL0     C74018   8.106   8.114   0.639  0.0551  0.1349 -0.6755
  549MOL0     C74019   8.245   8.127   0.571 -0.0709 -0.5964  0.6338
  549MOL0     C74020   8.290   7.988   0.521 -0.0946 -0.1248  0.0554
  549MOL0     C74021   8.424   7.984   0.463 -0.2794 -1.2855  0.0363
  549MOL0     C74022   8.438   8.058   0.329 -1.2335 -0.0349 -0.5094
  549MOL0     C74023   8.344   8.016   0.220 -1.1254  0.1431  0.6971
  549MOL0     C74024   8.367   8.078   0.083  0.3994 -0.1170 -0.3895
  549MOL0    Cl74025   8.287   7.971  -0.048 -0.4512  0.0874  0.3983
  549MOL0     C74026   8.081   8.047   1.063  0.3280 -0.2714 -0.0567
  549MOL0     C74027   8.034   8.071   1.204  0.0473  0.6204  0.5041
  549MOL0     O74028   8.207   8.104   1.428  0.4096  0.5171 -0.0997
  549MOL0     C74029   8.027   8.320   1.657 -1.3006 -0.4141  0.4454
  549MOL0     C74030   8.016   8.354   1.791 -0.6974 -0.4059 -0.8136
  549MOL0     N74031   8.430   8.669   2.262  0.5846  0.8574 -0.3650
  549MOL0     N74032   8.463   8.783   2.313 -0.3430  0.2705  0.5881
  549MOL0     C74033   8.464   9.776   2.765  0.7611  0.6422  0.1772
  549MOL0     C74034   8.503   9.808   2.907  0.3917  0.2229 -0.2387
  549MOL0     C74035   8.818   9.831   3.259  0.4793 -0.2137  0.5228
  549MOL0     C74036   8.941   9.891   3.285 -0.1277  0.7554 -0.0108
  549MOL0     C74037   8.958   9.924   3.428  0.2049 -0.8908 -1.0281
  549MOL0     C74038   8.858   9.908   3.528  1.0473 -0.0074 -0.1804
  549MOL0     O74039   8.882   9.941   3.661  0.5196  0.8707 -0.1507
  549MOL0     C74040   9.014   9.931   3.717 -0.7698  0.1371  0.3076
  549MOL0     C74041   9.052  10.081   3.747  0.2804  0.3999 -0.4633
  549MOL0     C74042   9.189  10.077   3.816  0.0262 -0.4694  0.2436
  549MOL0     C74043   9.233  10.216   3.868  0.7718 -0.5677  0.1014
  549MOL0     C74044   9.241  10.328   3.770 -0.3012  0.8888  0.1390
  549MOL0     C74045   9.231  10.414   3.690  0.4984  0.4934 -0.3198
  549MOL0     C74046   8.740   9.856   3.488  0.4318 -0.8296 -0.2702
  549MOL0     C74047   8.721   9.811   3.359  1.0808 -0.1699  0.0318
  549MOL0     H74048   8.776   9.603   2.903 -0.9713 -0.5777 -0.8177
  549MOL0     H74049   8.704   9.537   2.707  0.9112  0.2182  1.9189
  549MOL0     H74050   8.691   9.612   2.491 -0.4793 -0.2210 -0.7101
  549MOL0     H74051   8.598   9.473   2.512  1.4495  0.2548  0.9313
  549MOL0     H74052   8.569   9.679   2.289  2.1112 -0.9211 -1.1423
  549MOL0     H74053   8.644   9.525   2.300 -0.4495  0.8889  0.4016
  549MOL0     H74054   8.337   9.558   2.322  0.0912 -1.7127  2.7848
  549MOL0     H74055   8.434   9.520   2.170 -1.4732 -3.9676  0.2670
  549MOL0     H74056   8.537   9.330   2.269  0.7340  2.9199 -0.5832
  549MOL0     H74057   8.430   9.342   2.414 -0.3849 -0.3775 -0.1298
  549MOL0     H74058   8.221   9.315   2.278  0.3276  0.5145  1.4967
  549MOL0     H74059   8.334   9.327   2.140 -3.3130 -1.0710 -1.2236
  549MOL0     H74060   8.278   9.094   2.185  0.4497  1.1801  0.5291
  549MOL0     H74061   8.445   9.104   2.242 -0.1371 -0.9068 -1.6653
  549MOL0     H74062   8.301   9.167   2.464  2.4142 -0.7697  0.6945
  549MOL0     H74063   8.186   9.057   2.385 -0.2733  1.3969  2.4911
  549MOL0     H74064   8.328   8.951   2.557 -0.1338  0.8507  0.3703
  549MOL0     H74065   8.476   8.997   2.472  0.0036  0.9674 -0.4789
  549MOL0     H74066   8.172   8.750   2.451 -0.9427  0.2375 -1.1043
  549MOL0     H74067   8.316   8.431   2.256  3.4703  2.9906  1.1072
  549MOL0     H74068   8.279   8.456   2.427 -5.3401 -3.3415  0.8207
  549MOL0     H74069   8.085   8.534   2.213  0.5155 -1.0622 -0.6850
  549MOL0     H74070   8.061   8.503   2.382 -0.8202  0.5485 -1.7619
  549MOL0     H74071   7.976   8.300   2.309  0.0029  2.6543  1.1285
  549MOL0     H74072   8.141   8.262   2.346 -1.2681 -0.4869  0.9256
  549MOL0     H74073   8.084   8.155   2.138  0.3593 -0.0235  0.1768
  549MOL0     H74074   8.226   8.255   2.122 -0.1570 -0.3010  1.3207
  549MOL0     H74075   8.208   8.114   1.930  1.7526  0.4769  0.1769
  549MOL0     H74076   8.217   7.936   1.627  0.0557 -0.5119 -0.0757
  549MOL0     H74077   8.344   8.060   1.630 -1.7003  0.8879 -0.5014
  549MOL0     H74078   8.305   7.967   1.775 -1.2742 -1.8017 -0.9367
  549MOL0     H74079   8.037   8.412   1.197  1.0550 -0.7585  0.7217
  549MOL0     H74080   8.108   8.377   0.986 -0.2300  0.1008  0.0685
  549MOL0     H74081   8.150   7.950   0.783 -1.4464 -0.9590  0.1841
  549MOL0     H74082   8.000   8.026   0.816  0.4316 -0.8772  1.1356
  549MOL0     H74083   8.047   8.060   0.564 -2.1246  1.1467  0.2434
  549MOL0     H74084   8.062   8.214   0.651  2.0346  0.8269  1.6225
  549MOL0     H74085   8.318   8.174   0.638 -1.8403  2.0403  0.8695
  549MOL0     H74086   8.233   8.187   0.480  1.0979  0.3580  1.0787
  549MOL0     H74087   8.293   7.928   0.613 -2.1187  1.9588  1.5983
  549MOL0     H74088   8.216   7.947   0.452 -1.3530  1.4356  0.4158
  549MOL0     H74089   8.442   7.877   0.448 -2.6148 -1.7266  0.0339
  549MOL0     H74090   8.491   8.030   0.536 -2.6627  0.5578  1.1722
  549MOL0     H74091   8.437   8.168   0.331 -1.7824  0.1073 -3.5540
  549MOL0     H74092   8.539   8.043   0.290 -1.6247 -0.5379 -1.3412
  549MOL0     H74093   8.240   8.035   0.248 -2.0059 -0.1224 -2.0518
  549MOL0     H74094   8.354   7.908   0.203 -0.9039  0.4090 -1.1288
  549MOL0     H74095   8.469   8.107   0.055  0.6523  1.7025  2.1063
  549MOL0     H74096   8.319   8.175   0.097  1.3235 -0.0764  3.7508
  549MOL0     H74097   8.086   7.943   1.034  0.4606  0.0121 -1.0718
  549MOL0     H74098   8.010   7.983   1.263 -2.5153  1.4900  0.8814
  549MOL0     H74099   7.982   8.393   1.589 -0.2306  0.5698  0.7605
  549MOL0     H74100   7.977   8.453   1.815 -2.4446 -1.4021  0.7677
  549MOL0     H74101   8.376   9.825   2.724  0.8878  0.9669  0.2890
  549MOL0     H74102   8.429   9.860   2.967 -1.2529 -0.9538 -1.1545
  549MOL0     H74103   9.020   9.897   3.211  0.5381 -0.9817  0.5011
  549MOL0     H74104   9.048   9.975   3.460  0.2783 -3.0419  2.7196
  549MOL0     H74105   9.023   9.862   3.802  0.1317 -1.8109 -1.3058
  549MOL0     H74106   9.080   9.896   3.638 -1.7170 -0.2978 -0.3044
  549MOL0     H74107   8.967  10.107   3.810  1.4136 -1.1337  1.8254
  549MOL0     H74108   9.059  10.139   3.655  0.3876  0.6581 -0.2918
  549MOL0     H74109   9.267  10.038   3.750 -1.4324 -0.7180 -1.4402
  549MOL0     H74110   9.186  10.023   3.911  1.8945 -2.3707 -0.6995
  549MOL0     H74111   9.327  10.210   3.924 -0.4443  0.3080  2.3675
  549MOL0     H74112   9.163  10.258   3.941  0.7933 -1.2651  0.5418
  549MOL0     H74113   9.213  10.496   3.623 -0.7611  0.5643  0.0724
  549MOL0     H74114   8.664   9.846   3.564 -0.6247  1.1310 -0.9898
  549MOL0     H74115   8.623   9.774   3.331  1.6472  1.2467 -4.8727
  550MOL0     O74116   3.479   5.971   2.697  0.3109  0.1333 -0.5501
  550MOL0     C74117   3.476   6.083   2.635 -0.2541  0.1360 -0.3153
  550MOL0     O74118   3.591   6.158   2.593 -0.7896  0.5805 -0.0056
  550MOL0     C74119   3.700   6.075   2.567 -0.5398 -0.3166  0.1114
  550MOL0     C74120   3.768   5.996   2.661  0.4803  0.1901 -0.2151
  550MOL0     C74121   3.871   5.915   2.617 -0.2109 -0.0377  0.0222
  550MOL0     C74122   3.904   5.905   2.479  0.2313  1.1058  0.2006
  550MOL0     O74123   4.008   5.816   2.462  0.6367  0.7327 -0.9915
  550MOL0     C74124   4.087   5.844   2.347  0.3059  0.6107  1.0849
  550MOL0     C74125   4.202   5.730   2.340  0.1749  0.7529  0.0706
  550MOL0     C74126   4.310   5.758   2.444 -0.3705 -0.4299 -0.1231
  550MOL0     C74127   4.388   5.635   2.480  0.3017  0.6729 -0.0036
  550MOL0     C74128   4.466   5.563   2.373 -0.3074  0.1590  0.9076
  550MOL0     C74129   4.523   5.440   2.424 -0.1821  0.5867 -0.0407
  550MOL0     C74130   4.625   5.374   2.331 -0.6487 -0.8524 -0.1567
  550MOL0     C74131   4.773   5.433   2.359  0.1386  0.2515 -0.4430
  550MOL0     N74132   4.856   5.382   2.251 -0.4281 -1.0037 -0.1573
  550MOL0     C74133   4.906   5.259   2.254  1.3096  0.7401  1.0266
  550MOL0     C74134   4.941   5.240   2.119  0.0260  0.0844 -0.6487
  550MOL0     C74135   4.983   5.106   2.065 -0.9577 -0.1815  0.1598
  550MOL0     C74136   5.106   5.106   1.984  0.0169 -0.1901 -0.7161
  550MOL0     C74137   5.148   4.973   1.926 -1.0028  0.1055  0.5733
  550MOL0     C74138   5.287   4.979   1.858 -0.1695 -0.0293 -0.4985
  550MOL0     O74139   5.279   5.065   1.744 -0.0154  0.3851 -0.5405
  550MOL0     C74140   5.394   5.061   1.669  0.5767  0.4440  0.9551
  550MOL0     C74141   5.403   4.964   1.569  0.5440 -0.7327  0.0525
  550MOL0     C74142   5.511   4.947   1.490  0.1031  0.3347  0.2697
  550MOL0     C74143   5.520   4.832   1.400 -0.7362 -0.0255 -0.3915
  550MOL0     C74144   5.619   5.035   1.499 -0.1997 -0.3184 -0.7162
  550MOL0     C74145   5.739   5.038   1.409  0.0382 -0.3999  0.2788
  550MOL0     O74146   5.828   5.138   1.442  0.2715  0.2272  0.6568
  550MOL0     C74147   5.900   5.190   1.336  0.8378 -0.0320 -0.2601
  550MOL0     C74148   6.010   5.125   1.283 -0.6489 -0.0375 -0.1844
  550MOL0     C74149   6.086   5.182   1.187  0.6056 -0.6322  0.3337
  550MOL0     C74150   6.046   5.301   1.124 -0.9283  0.0456  0.0342
  550MOL0     O74151   6.110   5.342   1.011 -0.0711 -0.1232 -0.2202
  550MOL0     C74152   6.114   5.488   0.976 -0.0079  0.0141 -0.2790
  550MOL0     C74153   6.218   5.502   0.872 -0.4438 -0.5582  0.3479
  550MOL0     C74154   6.201   5.425   0.737 -0.0786  0.4508  0.2841
  550MOL0     C74155   6.299   5.471   0.632 -1.2576 -0.7627  0.3179
  550MOL0     C74156   6.309   5.384   0.510  0.6691  0.1106  0.6245
  550MOL0     C74157   6.404   5.428   0.399 -0.1257 -0.1847 -0.2815
  550MOL0     C74158   6.373   5.572   0.353  0.0268  0.9071 -0.2040
  550MOL0     C74159   6.441   5.598   0.214 -0.5920 -0.5716 -0.8644
  550MOL0    Cl74160   6.339   5.711   0.115  0.2269  0.2094 -0.2344
  550MOL0     C74161   5.932   5.362   1.169 -1.1340  0.9568  0.8461
  550MOL0     C74162   5.859   5.311   1.277 -0.5049  0.0089  0.4330
  550MOL0     O74163   5.747   4.967   1.311  0.1106 -0.8612  0.5076
  550MOL0     C74164   5.615   5.132   1.607 -0.3878  0.3319 -0.4441
  550MOL0     C74165   5.495   5.150   1.686  0.4935 -0.5905  0.8779
  550MOL0     N74166   4.926   5.366   2.054 -0.1101 -0.2079 -0.0332
  550MOL0     N74167   4.896   5.449   2.140 -0.5158 -0.5987 -0.0937
  550MOL0     C74168   3.847   5.994   2.386  1.0511  0.0109  0.6011
  550MOL0     C74169   3.739   6.077   2.433 -0.1158 -0.5184 -0.0749
  550MOL0     C74170   3.349   6.148   2.621  1.0861 -0.0719  0.5130
  550MOL0     C74171   3.337   6.287   2.584  0.3831  0.0249 -0.6311
  550MOL0     C74172   3.207   6.345   2.577 -0.2049  0.4098 -0.1146
  550MOL0     C74173   3.093   6.272   2.618 -0.0701 -0.0468  0.2191
  550MOL0     O74174   2.971   6.334   2.616 -0.0789 -0.5813 -0.1549
  550MOL0     C74175   2.912   6.399   2.504 -0.3468 -0.8793  0.5917
  550MOL0     C74176   2.764   6.429   2.521  0.8663  0.1993  0.3064
  550MOL0     C74177   2.732   6.559   2.443 -0.5737  0.3708  0.1757
  550MOL0     C74178   2.583   6.587   2.455 -0.4059  0.3308 -0.5550
  550MOL0     C74179   2.538   6.638   2.583  0.2954  0.5206  0.1229
  550MOL0     C74180   2.497   6.672   2.688 -0.1984  0.8460  0.5188
  550MOL0     C74181   3.099   6.136   2.652 -0.0870  0.0962 -0.2530
  550MOL0     C74182   3.227   6.077   2.640  0.1268  0.5971 -0.6742
  550MOL0     H74183   3.744   5.999   2.766 -0.0487 -1.2145 -0.2780
  550MOL0     H74184   3.921   5.857   2.694  1.3419 -0.6378 -1.3825
  550MOL0     H74185   4.014   5.826   2.268 -2.1665  0.0598  3.3285
  550MOL0     H74186   4.131   5.944   2.344 -1.6034  1.5070  1.8506
  550MOL0     H74187   4.158   5.634   2.369  1.4189 -0.2469 -1.2420
  550MOL0     H74188   4.238   5.712   2.239 -3.2809 -1.2303 -0.9928
  550MOL0     H74189   4.390   5.820   2.402  0.2843 -0.4725  1.0051
  550MOL0     H74190   4.257   5.806   2.526  0.3891  2.9069 -1.4386
  550MOL0     H74191   4.447   5.663   2.567  1.4446 -3.2206  0.6253
  550MOL0     H74192   4.313   5.565   2.517 -0.1573  1.5748  0.8114
  550MOL0     H74193   4.403   5.554   2.284 -1.4686  4.1917  1.1119
  550MOL0     H74194   4.548   5.628   2.340  0.2981 -2.0735 -2.4233
  550MOL0     H74195   4.567   5.459   2.522  0.2828 -0.1401 -0.1040
  550MOL0     H74196   4.456   5.354   2.431  0.6006 -0.0315 -0.0002
  550MOL0     H74197   4.630   5.265   2.335  0.8202 -1.0375 -3.8472
  550MOL0     H74198   4.590   5.403   2.232 -0.7538  1.2051  0.4429
  550MOL0     H74199   4.809   5.391   2.453  0.8503 -1.0379 -1.2649
  550MOL0     H74200   4.781   5.542   2.365  4.2834  0.3513 -3.3912
  550MOL0     H74201   4.889   5.182   2.329  0.4414 -1.3732 -1.1854
  550MOL0     H74202   4.993   5.027   2.140 -0.8134 -0.0892  0.2368
  550MOL0     H74203   4.905   5.073   1.996 -1.1329  1.4870 -0.5034
  550MOL0     H74204   5.191   5.130   2.050  0.3267 -1.4146 -0.6429
  550MOL0     H74205   5.100   5.188   1.912 -0.9197 -1.1972 -1.8050
  550MOL0     H74206   5.079   4.938   1.848  0.1317 -2.9321  0.7808
  550MOL0     H74207   5.150   4.901   2.008 -3.0821 -0.3690  0.2602
  550MOL0     H74208   5.327   4.880   1.833 -2.5749 -0.7834 -1.6233
  550MOL0     H74209   5.353   5.022   1.934  1.5651 -3.8597  0.3928
  550MOL0     H74210   5.318   4.896   1.558 -0.0933  0.1011 -0.2775
  550MOL0     H74211   5.509   4.882   1.303 -0.9128  3.8546  1.4404
  550MOL0     H74212   5.611   4.771   1.400 -2.0487 -2.1485 -2.2408
  550MOL0     H74213   5.444   4.753   1.408  0.0736 -0.6157  4.0224
  550MOL0     H74214   6.033   5.026   1.322  1.1982  0.4531  0.1059
  550MOL0     H74215   6.162   5.117   1.146 -1.5387 -0.3791 -4.7786
  550MOL0     H74216   6.017   5.523   0.940  0.1176 -0.3526 -1.0139
  550MOL0     H74217   6.135   5.550   1.063  0.0502  1.7463 -1.4704
  550MOL0     H74218   6.224   5.609   0.852 -1.5516 -0.5137  0.1955
  550MOL0     H74219   6.306   5.486   0.934 -2.6902 -0.0988  3.9082
  550MOL0     H74220   6.103   5.455   0.699  0.5641  0.4764 -1.4652
  550MOL0     H74221   6.206   5.317   0.750  1.5106 -0.0163 -3.1595
  550MOL0     H74222   6.284   5.577   0.610 -1.2944 -0.2557  2.6109
  550MOL0     H74223   6.403   5.460   0.663 -0.4217 -1.3227 -2.4083
  550MOL0     H74224   6.212   5.370   0.461  1.0912  0.1346 -0.2403
  550MOL0     H74225   6.334   5.280   0.536 -2.9168 -0.8994  0.5379
  550MOL0     H74226   6.509   5.422   0.431 -0.2211  0.0482  0.0797
  550MOL0     H74227   6.397   5.361   0.312  2.9571  0.4669 -1.1731
  550MOL0     H74228   6.409   5.639   0.432  0.1801 -0.7553  1.1994
  550MOL0     H74229   6.265   5.589   0.340 -0.1645  0.4356  0.6634
  550MOL0     H74230   6.424   5.507   0.157 -2.7912  1.2594 -3.3536
  550MOL0     H74231   6.546   5.624   0.231 -0.3909 -1.5054 -0.6280
  550MOL0     H74232   5.906   5.458   1.124  1.2573  2.3759  2.2554
  550MOL0     H74233   5.784   5.368   1.330 -0.2030  1.7847 -0.9339
  550MOL0     H74234   5.703   5.194   1.620 -1.6402  2.2934 -0.9903
  550MOL0     H74235   5.480   5.228   1.761 -1.0901 -1.3940  1.4410
  550MOL0     H74236   3.879   5.995   2.282 -0.5533 -1.6045  0.0455
  550MOL0     H74237   3.681   6.143   2.370  0.6386  2.0693  1.7785
  550MOL0     H74238   3.426   6.344   2.562  1.3937 -0.4780  1.8097
  550MOL0     H74239   3.188   6.446   2.542  1.5900  0.6258 -0.5462
  550MOL0     H74240   2.970   6.491   2.494  0.0611 -1.1466  0.4613
  550MOL0     H74241   2.926   6.343   2.411  1.4917  0.8575 -0.2580
  550MOL0     H74242   2.726   6.442   2.623 -1.0370  2.1427 -0.5773
  550MOL0     H74243   2.703   6.349   2.478 -0.9650  1.7212 -0.0646
  550MOL0     H74244   2.759   6.544   2.338  0.6742 -0.0062  0.5373
  550MOL0     H74245   2.788   6.638   2.492 -1.1904  1.6635 -1.1134
  550MOL0     H74246   2.531   6.491   2.444  2.9373 -1.4317 -2.8928
  550MOL0     H74247   2.552   6.665   2.384 -0.7426 -1.4419 -2.4751
  550MOL0     H74248   2.475   6.688   2.792 -0.3127 -0.3190  0.6861
  550MOL0     H74249   3.017   6.068   2.673  0.1764  0.5691  2.6284
  550MOL0     H74250   3.242   5.972   2.661  1.3489  1.4035  3.3175
  551MOL0     O74251   5.985   3.510  10.628  0.3589  0.5866 -0.2262
  551MOL0     C74252   6.020   3.554  10.742  0.1019  0.0935  0.3889
  551MOL0     O74253   6.139   3.605  10.780  0.5724  0.4886 -0.3113
  551MOL0     C74254   6.216   3.676  10.695 -0.5516 -0.2889  0.9602
  551MOL0     C74255   6.175   3.727  10.573  0.7297 -0.4626  0.8244
  551MOL0     C74256   6.260   3.821  10.505 -0.3499 -0.0024  0.4534
  551MOL0     C74257   6.401   3.824  10.536  0.1938  0.2509  0.1456
  551MOL0     O74258   6.484   3.900  10.454 -0.3120 -0.6486 -0.0794
  551MOL0     C74259   6.568   3.997  10.521 -0.8764  0.8845 -0.2368
  551MOL0     C74260   6.626   4.091  10.413  0.6007 -0.7895  0.1406
  551MOL0     C74261   6.714   4.010  10.308  0.7052 -0.1306  0.0169
  551MOL0     C74262   6.760   4.109  10.207  0.0001 -0.1471  0.1687
  551MOL0     C74263   6.855   4.036  10.105  0.2285 -0.4077 -0.3606
  551MOL0     C74264   6.906   4.137  10.005  0.7398  0.8565 -1.0784
  551MOL0     C74265   6.951   4.058   9.878  0.7586 -0.7513 -0.0413
  551MOL0     C74266   6.974   4.156   9.763  0.6449 -0.0604  0.2068
  551MOL0     N74267   7.108   4.209   9.754  0.5408  0.3120  0.7065
  551MOL0     C74268   7.218   4.142   9.700 -0.4794 -0.4079  0.8617
  551MOL0     C74269   7.321   4.225   9.735  1.0113 -0.2327  0.0981
  551MOL0     C74270   7.460   4.217   9.707 -0.8092 -0.0713 -0.1694
  551MOL0     C74271   7.555   4.160   9.818  0.1358 -0.3846 -0.2948
  551MOL0     C74272   7.492   4.047   9.893  0.6026 -0.3159  0.4405
  551MOL0     C74273   7.581   4.006  10.012  1.9299 -0.1953 -0.6830
  551MOL0     O74274   7.516   3.903  10.092  0.5391 -0.4159  0.6538
  551MOL0     C74275   7.425   3.925  10.191 -0.4633  0.0551  0.1228
  551MOL0     C74276   7.338   4.031  10.210 -0.7154 -0.3336 -0.3230
  551MOL0     C74277   7.244   4.028  10.320  0.2529  0.4871  0.3458
  551MOL0     C74278   7.152   4.149  10.350  0.2337  0.2388  0.0442
  551MOL0     C74279   7.247   3.909  10.411  0.5629 -0.1935 -0.5064
  551MOL0     C74280   7.156   3.888  10.526 -1.6142 -0.4651  0.2122
  551MOL0     O74281   7.180   3.775  10.609  0.7138 -1.0795 -0.2634
  551MOL0     C74282   7.083   3.750  10.701  0.4919  0.9478 -0.8187
  551MOL0     C74283   7.126   3.729  10.832 -0.2949  1.0120  0.5848
  551MOL0     C74284   7.032   3.695  10.935 -0.3003  0.4913  0.1680
  551MOL0     C74285   6.901   3.663  10.895 -0.3163  0.9005 -0.3062
  551MOL0     O74286   6.818   3.613  10.993  0.4084 -0.8178 -0.3691
  551MOL0     C74287   6.825   3.668  11.133 -0.2305  0.9195  0.1150
  551MOL0     C74288   6.707   3.611  11.223  0.6177 -0.2014 -0.3871
  551MOL0     C74289   6.715   3.460  11.242 -0.2069 -0.2914  0.6908
  551MOL0     C74290   6.677   3.389  11.110 -0.9537 -0.1970 -0.0675
  551MOL0     C74291   6.624   3.245  11.138 -0.1373 -1.3710  0.0161
  551MOL0     C74292   6.729   3.133  11.155  0.6224  0.2746 -0.8060
  551MOL0     C74293   6.658   3.004  11.219  0.0090 -0.1633 -0.5537
  551MOL0     C74294   6.758   2.898  11.257  0.6658  0.7132 -0.8251
  551MOL0    Cl74295   6.907   2.960  11.342 -0.3119 -0.1506 -0.3060
  551MOL0     C74296   6.860   3.666  10.758 -0.2917  0.1687  0.7272
  551MOL0     C74297   6.948   3.711  10.665 -0.7688  0.5409  0.2379
  551MOL0     O74298   7.057   3.961  10.537  0.4309 -0.0941  0.3446
  551MOL0     C74299   7.336   3.806  10.380 -0.7334 -0.4924  0.2300
  551MOL0     C74300   7.419   3.810  10.277  0.9980  0.3436 -0.2600
  551MOL0     N74301   7.277   4.337   9.807  0.6285  0.3702  0.1063
  551MOL0     N74302   7.152   4.322   9.810  0.0333 -0.0643 -0.5672
  551MOL0     C74303   6.448   3.752  10.648  0.4649  0.7907  0.2479
  551MOL0     C74304   6.350   3.690  10.731 -0.2765 -0.0902 -1.1458
  551MOL0     C74305   5.917   3.568  10.852  0.1371 -0.3610 -0.8058
  551MOL0     C74306   5.788   3.538  10.815  0.3737 -0.9902  1.1895
  551MOL0     C74307   5.685   3.557  10.911  0.7489 -0.2968  0.3500
  551MOL0     C74308   5.716   3.600  11.043 -0.2191 -0.1623 -0.1964
  551MOL0     O74309   5.617   3.617  11.140 -0.3089 -0.4736 -0.2016
  551MOL0     C74310   5.493   3.559  11.144 -0.3753 -0.1121 -0.1718
  551MOL0     C74311   5.403   3.607  11.266 -0.0542 -0.3671  0.0427
  551MOL0     C74312   5.424   3.752  11.313 -1.1252 -0.1673  0.6209
  551MOL0     C74313   5.406   3.779  11.461 -0.1321 -0.3071  0.4987
  551MOL0     C74314   5.383   3.921  11.487  0.6108 -0.2274 -0.3338
  551MOL0     C74315   5.389   4.044  11.497 -0.6335 -0.4092  0.0695
  551MOL0     C74316   5.855   3.620  11.078  1.0628 -0.3180 -0.7722
  551MOL0     C74317   5.955   3.609  10.983  1.0140 -0.2187 -0.5030
  551MOL0     H74318   6.079   3.707  10.527 -0.0674  2.8089  0.8797
  551MOL0     H74319   6.226   3.866  10.413 -0.2870 -0.1716  0.3476
  551MOL0     H74320   6.517   4.055  10.599  0.6884  1.6664  0.2387
  551MOL0     H74321   6.648   3.939  10.567 -1.3284 -1.7942 -2.5714
  551MOL0     H74322   6.556   4.146  10.351  2.9102 -0.0755 -2.0056
  551MOL0     H74323   6.684   4.161  10.474 -1.3033 -1.2252  2.6097
  551MOL0     H74324   6.800   3.959  10.352 -0.0811 -1.0912  0.4767
  551MOL0     H74325   6.655   3.928  10.267  0.5849  0.6193 -1.3811
  551MOL0     H74326   6.678   4.158  10.155 -1.4578  0.5298  2.8937
  551MOL0     H74327   6.822   4.184  10.256  2.5054 -1.7113 -0.4002
  551MOL0     H74328   6.941   3.989  10.153  1.1720 -0.4310 -1.9981
  551MOL0     H74329   6.802   3.958  10.049 -0.6061  1.0614 -1.7111
  551MOL0     H74330   6.824   4.207   9.991  0.0822  0.0196 -1.5477
  551MOL0     H74331   6.985   4.198  10.049  0.6926  1.0390 -1.2496
  551MOL0     H74332   7.032   3.985   9.888 -2.2194 -5.0741 -3.2902
  551MOL0     H74333   6.862   4.001   9.850 -0.0301  1.6642 -2.9122
  551MOL0     H74334   6.899   4.235   9.770  1.9880  1.3655 -0.7591
  551MOL0     H74335   6.949   4.097   9.674  2.0364 -2.2032  1.1670
  551MOL0     H74336   7.228   4.042   9.660 -0.6091 -0.2172  0.3390
  551MOL0     H74337   7.478   4.174   9.608  0.1584  0.6700 -0.3364
  551MOL0     H74338   7.495   4.318   9.686  0.4044 -0.5920 -0.8199
  551MOL0     H74339   7.592   4.241   9.882 -0.2485 -1.3961  1.2653
  551MOL0     H74340   7.637   4.122   9.757 -1.4151  1.3900 -3.7682
  551MOL0     H74341   7.476   3.959   9.830  1.8315 -0.1649 -0.1022
  551MOL0     H74342   7.388   4.068   9.921 -0.0397 -0.1602 -1.8056
  551MOL0     H74343   7.590   4.084  10.088 -1.3740 -0.8387  0.5406
  551MOL0     H74344   7.681   3.982   9.974  1.3898 -0.0397 -2.3048
  551MOL0     H74345   7.363   4.105  10.134  1.5320 -1.0293 -0.3532
  551MOL0     H74346   7.167   4.222  10.271  0.0981  1.1097  0.8055
  551MOL0     H74347   7.044   4.131  10.357  0.5721 -1.7452  1.0589
  551MOL0     H74348   7.183   4.197  10.443 -2.1558  1.1197  0.4676
  551MOL0     H74349   7.234   3.739  10.844  0.1867 -0.3940 -1.8704
  551MOL0     H74350   7.061   3.675  11.038 -0.1529  0.0672  0.0469
  551MOL0     H74351   6.922   3.638  11.175 -0.5777  0.9992  0.9931
  551MOL0     H74352   6.814   3.777  11.130 -2.1504  0.7322 -1.4597
  551MOL0     H74353   6.729   3.646  11.324 -3.1975  0.1311  0.4767
  551MOL0     H74354   6.609   3.648  11.192  0.0031 -2.6505 -1.6983
  551MOL0     H74355   6.637   3.445  11.318  0.2096 -2.3441  0.7585
  551MOL0     H74356   6.810   3.430  11.286 -0.3637  0.6795  1.7416
  551MOL0     H74357   6.607   3.453  11.057  0.5337  0.8613 -0.8002
  551MOL0     H74358   6.762   3.373  11.043 -0.2837  0.4797  0.5941
  551MOL0     H74359   6.563   3.218  11.051  2.1799  1.0614 -2.5449
  551MOL0     H74360   6.556   3.260  11.223  0.9222  0.9050  0.5287
  551MOL0     H74361   6.772   3.094  11.062 -0.9862 -2.2966 -0.5863
  551MOL0     H74362   6.795   3.166  11.235 -1.0805 -2.8013  2.1291
  551MOL0     H74363   6.584   2.952  11.157 -2.1162 -1.2923  2.6876
  551MOL0     H74364   6.614   3.033  11.314 -0.1591 -0.5861 -0.5029
  551MOL0     H74365   6.786   2.859  11.159 -0.6138  0.1172 -0.9780
  551MOL0     H74366   6.707   2.815  11.307  0.1077  0.4316 -1.8254
  551MOL0     H74367   6.763   3.632  10.723 -1.1087  0.0597  2.9502
  551MOL0     H74368   6.909   3.727  10.565 -1.5732 -3.5559 -0.2478
  551MOL0     H74369   7.346   3.729  10.456  1.0872  0.0693  0.6103
  551MOL0     H74370   7.494   3.732  10.268 -0.0437 -1.1103  2.3903
  551MOL0     H74371   6.553   3.745  10.674  1.4847  2.9469 -2.8318
  551MOL0     H74372   6.372   3.652  10.830 -2.8463  3.3363  0.9733
  551MOL0     H74373   5.755   3.508  10.716 -2.3527  2.7293  0.7489
  551MOL0     H74374   5.582   3.546  10.880 -0.3998 -0.1949  3.7037
  551MOL0     H74375   5.442   3.595  11.054  1.5418 -1.1369 -1.7377
  551MOL0     H74376   5.491   3.451  11.128  1.8147 -0.2155  0.0069
  551MOL0     H74377   5.418   3.538  11.349 -1.9434  1.2014  1.7783
  551MOL0     H74378   5.296   3.591  11.252 -0.6274  1.9672  1.2605
  551MOL0     H74379   5.350   3.808  11.255 -0.4382  1.4695  1.2374
  551MOL0     H74380   5.524   3.788  11.288 -2.0139  0.7201 -2.0656
  551MOL0     H74381   5.489   3.736  11.519  0.6545  0.5618  0.0345
  551MOL0     H74382   5.307   3.734  11.477  0.1516 -2.7018 -3.3306
  551MOL0     H74383   5.403   4.149  11.511  0.8125 -0.9327  3.4728
  551MOL0     H74384   5.875   3.648  11.181 -1.7943  0.2884 -0.2785
  551MOL0     H74385   6.060   3.630  10.999  1.2031 -1.6408  0.2473
  552MOL0     O74386   1.317   6.395   5.929 -0.8493 -0.0460  0.7865
  552MOL0     C74387   1.202   6.434   5.923 -1.2448  0.4316 -0.4209
  552MOL0     O74388   1.106   6.414   6.023  0.1538  0.0696  0.4915
  552MOL0     C74389   1.133   6.338   6.126  0.3662 -0.1132 -0.4667
  552MOL0     C74390   1.084   6.208   6.132 -0.2334 -0.0658 -1.2960
  552MOL0     C74391   1.128   6.135   6.249  0.2431 -0.0627  0.5222
  552MOL0     C74392   1.206   6.195   6.347 -0.5518  0.3652 -0.1846
  552MOL0     O74393   1.245   6.127   6.454  0.6640 -0.1767 -0.2133
  552MOL0     C74394   1.335   6.022   6.443 -1.1983  0.9257  0.3156
  552MOL0     C74395   1.360   5.945   6.567 -0.6621  1.5421 -0.6774
  552MOL0     C74396   1.449   6.028   6.668  0.4676 -0.8515  0.1134
  552MOL0     C74397   1.481   5.938   6.783 -0.4681  0.3634 -0.7611
  552MOL0     C74398   1.579   6.001   6.880 -0.6854  0.3967  0.1467
  552MOL0     C74399   1.715   5.964   6.849  0.4047  0.5157  0.5124
  552MOL0     C74400   1.818   6.033   6.949 -0.7482  0.3457  0.4725
  552MOL0     C74401   1.827   5.947   7.078  0.0046 -0.2689 -0.2913
  552MOL0     N74402   1.876   6.024   7.194 -0.2892  0.0660 -0.1376
  552MOL0     C74403   1.842   6.151   7.216 -0.0880 -0.2333  0.3099
  552MOL0     C74404   1.925   6.195   7.313 -0.0879  0.1884  0.5462
  552MOL0     C74405   1.933   6.330   7.380  0.4171  0.3445  0.4288
  552MOL0     C74406   1.907   6.455   7.289  0.0019  0.5443 -0.7787
  552MOL0     C74407   1.995   6.452   7.167 -0.0308  0.8985  0.1047
  552MOL0     C74408   1.967   6.588   7.101 -0.7640  0.0425  0.8891
  552MOL0     O74409   2.035   6.589   6.968 -0.0839 -0.0539 -0.2596
  552MOL0     C74410   1.938   6.582   6.866 -0.6446  1.2501 -0.2540
  552MOL0     C74411   1.907   6.697   6.799 -1.0895 -0.3783 -0.2046
  552MOL0     C74412   1.820   6.702   6.694 -0.4157  0.1124 -0.0778
  552MOL0     C74413   1.773   6.846   6.656  0.2097 -0.8294 -0.3470
  552MOL0     C74414   1.767   6.579   6.645 -0.3896  0.9447  0.1750
  552MOL0     C74415   1.675   6.581   6.533  0.8696 -0.2103 -0.3489
  552MOL0     O74416   1.711   6.642   6.418  0.4132 -0.2330 -0.0550
  552MOL0     C74417   1.620   6.683   6.330 -0.8054 -0.4206 -0.5044
  552MOL0     C74418   1.504   6.738   6.381  0.5223  0.0005 -0.3270
  552MOL0     C74419   1.402   6.780   6.293  0.3924  0.8151 -0.3350
  552MOL0     C74420   1.409   6.756   6.152 -0.1621  1.0421  0.2775
  552MOL0     O74421   1.310   6.809   6.076 -0.3078 -0.1312 -0.1260
  552MOL0     C74422   1.330   6.841   5.941 -1.3047 -0.5673 -0.4698
  552MOL0     C74423   1.208   6.907   5.893  0.4558 -0.0700 -1.1567
  552MOL0     C74424   1.238   6.968   5.748  0.9151 -0.4273  0.5946
  552MOL0     C74425   1.123   7.071   5.708 -0.1127 -0.1515  0.2752
  552MOL0     C74426   1.146   7.116   5.559 -0.3521  0.3902 -0.1498
  552MOL0     C74427   1.020   7.157   5.488 -0.0934  0.0900  0.7451
  552MOL0     C74428   0.935   7.258   5.563  0.0531 -0.2380 -0.3106
  552MOL0     C74429   0.808   7.300   5.493  1.0394  0.0619 -0.2565
  552MOL0    Cl74430   0.668   7.173   5.482  0.4066  0.2395  0.6890
  552MOL0     C74431   1.526   6.691   6.100  0.1979  0.5473 -0.2646
  552MOL0     C74432   1.618   6.641   6.192 -0.5365 -1.2635  0.0741
  552MOL0     O74433   1.570   6.515   6.545  0.5556 -0.0226 -0.2828
  552MOL0     C74434   1.785   6.463   6.712 -0.5574  0.1901  0.1530
  552MOL0     C74435   1.871   6.466   6.831 -0.1580 -1.3206 -0.2070
  552MOL0     N74436   1.996   6.083   7.351 -0.5938 -0.5622  0.4879
  552MOL0     N74437   1.975   5.976   7.272  0.3498  0.1244 -1.0386
  552MOL0     C74438   1.224   6.334   6.349  0.6620  0.0992  0.6458
  552MOL0     C74439   1.182   6.407   6.240 -0.6181  0.1622 -0.0606
  552MOL0     C74440   1.174   6.510   5.793  0.2759  0.3126 -0.5584
  552MOL0     C74441   1.269   6.520   5.682  0.2044  0.3186 -1.0875
  552MOL0     C74442   1.231   6.582   5.568  0.5540 -0.4058 -0.0114
  552MOL0     C74443   1.102   6.650   5.556 -0.4767 -0.3856 -0.8835
  552MOL0     O74444   1.062   6.717   5.442 -0.7912  0.3043  1.0424
  552MOL0     C74445   1.159   6.741   5.336 -0.1494 -0.4043  0.2622
  552MOL0     C74446   1.152   6.636   5.219  0.7414 -0.3627 -0.8650
  552MOL0     C74447   1.027   6.648   5.130  0.6654  0.2162  0.7855
  552MOL0     C74448   0.985   6.507   5.088 -0.2786 -1.2918  0.3788
  552MOL0     C74449   0.876   6.517   4.996  0.3414 -0.3421  0.7768
  552MOL0     C74450   0.773   6.519   4.936 -0.4819 -0.0578  0.5639
  552MOL0     C74451   1.011   6.645   5.661  0.3874  0.8377  0.6509
  552MOL0     C74452   1.047   6.569   5.773 -0.4460  0.3030 -0.6511
  552MOL0     H74453   1.024   6.176   6.047  0.7843 -0.9803 -1.7031
  552MOL0     H74454   1.105   6.030   6.266  3.6506 -0.9095  0.6341
  552MOL0     H74455   1.293   5.947   6.375 -1.8283  1.8923 -0.3692
  552MOL0     H74456   1.434   6.059   6.416 -1.4538  2.2368  1.0958
  552MOL0     H74457   1.263   5.923   6.610 -1.6065 -0.1039 -3.3335
  552MOL0     H74458   1.395   5.844   6.540  0.5137  1.9740 -0.8293
  552MOL0     H74459   1.547   6.048   6.623  2.0759 -2.0941  2.7734
  552MOL0     H74460   1.397   6.121   6.689 -1.6379 -1.6259 -1.3622
  552MOL0     H74461   1.390   5.924   6.842  1.0279 -5.6248  0.7891
  552MOL0     H74462   1.506   5.835   6.758  1.6634  0.6343  0.0613
  552MOL0     H74463   1.560   6.108   6.893  1.9003  1.0173 -0.6399
  552MOL0     H74464   1.562   5.960   6.980 -0.3433  0.5335  0.2627
  552MOL0     H74465   1.726   5.857   6.826 -0.6132  0.3481  0.7779
  552MOL0     H74466   1.733   6.019   6.756 -0.5080  0.6732  0.4225
  552MOL0     H74467   1.915   6.012   6.902  0.3967  1.8224  2.0415
  552MOL0     H74468   1.796   6.139   6.963  1.0992  0.9522 -0.8717
  552MOL0     H74469   1.882   5.855   7.058  0.2180 -0.4861  1.1927
  552MOL0     H74470   1.725   5.913   7.097  0.8057 -2.7904 -0.1943
  552MOL0     H74471   1.782   6.222   7.159 -0.5649  0.9696  2.2125
  552MOL0     H74472   1.851   6.327   7.453  1.3299  1.3970  1.5317
  552MOL0     H74473   2.024   6.347   7.437 -0.1061 -0.5272  1.5801
  552MOL0     H74474   1.926   6.538   7.358 -1.2599 -2.1909  3.2680
  552MOL0     H74475   1.800   6.453   7.266 -0.0626  3.6322 -1.2243
  552MOL0     H74476   1.969   6.372   7.097  2.8482  0.5924 -0.7345
  552MOL0     H74477   2.098   6.438   7.200  0.3204 -1.9143 -1.8386
  552MOL0     H74478   2.019   6.662   7.163 -0.4505 -0.3327  1.0854
  552MOL0     H74479   1.859   6.599   7.097 -0.7207  0.0400 -0.9342
  552MOL0     H74480   1.953   6.784   6.843  2.0240 -2.7354  1.5833
  552MOL0     H74481   1.668   6.850   6.625  0.0141  2.5842  0.4444
  552MOL0     H74482   1.772   6.921   6.736  0.2015  0.5238 -1.5972
  552MOL0     H74483   1.833   6.890   6.576 -0.0662 -0.0260 -0.1227
  552MOL0     H74484   1.490   6.753   6.488 -1.8348 -0.5212 -0.5035
  552MOL0     H74485   1.326   6.843   6.337  0.9243  1.1085  0.1835
  552MOL0     H74486   1.411   6.912   5.925  2.6549 -4.6191 -0.6613
  552MOL0     H74487   1.356   6.756   5.876 -0.4676 -0.9846  0.3982
  552MOL0     H74488   1.127   6.834   5.879  0.3141 -0.1062 -0.2558
  552MOL0     H74489   1.176   6.985   5.964  1.0985 -0.0893 -0.8393
  552MOL0     H74490   1.231   6.888   5.673  0.1306  1.1249 -1.0546
  552MOL0     H74491   1.333   7.021   5.738 -1.0972  3.3250 -0.6155
  552MOL0     H74492   1.033   7.010   5.706  1.5008 -2.7266  1.2754
  552MOL0     H74493   1.115   7.154   5.779 -2.5329 -0.8955  0.9574
  552MOL0     H74494   1.177   7.037   5.490 -0.9315 -0.2417  0.2986
  552MOL0     H74495   1.223   7.194   5.563 -0.2473  0.2663  0.2592
  552MOL0     H74496   1.040   7.183   5.383  1.2487  3.9020  1.7852
  552MOL0     H74497   0.946   7.077   5.480  2.5278 -2.2958 -3.1070
  552MOL0     H74498   1.001   7.344   5.580  1.0068 -0.9659 -0.2097
  552MOL0     H74499   0.904   7.215   5.659 -1.9104  2.5361  0.3926
  552MOL0     H74500   0.828   7.329   5.390 -0.2285  0.2279 -0.4760
  552MOL0     H74501   0.772   7.390   5.544 -1.7401 -1.9040  1.5400
  552MOL0     H74502   1.526   6.659   5.996 -0.3140 -0.1705 -0.0547
  552MOL0     H74503   1.703   6.579   6.164  1.4112  1.0319  0.5053
  552MOL0     H74504   1.727   6.375   6.687 -0.2901 -1.3661  4.2998
  552MOL0     H74505   1.893   6.376   6.887 -1.4865 -1.0303  0.8441
  552MOL0     H74506   1.280   6.372   6.435  0.0416 -0.3877  1.2758
  552MOL0     H74507   1.204   6.514   6.240  0.4939 -0.0023  2.3334
  552MOL0     H74508   1.363   6.468   5.693  0.0805 -0.2596 -2.5228
  552MOL0     H74509   1.301   6.591   5.486 -1.1962 -0.0838 -1.5102
  552MOL0     H74510   1.121   6.833   5.291 -0.2171 -0.7516 -0.4016
  552MOL0     H74511   1.258   6.767   5.375  0.2213 -0.6477 -0.4986
  552MOL0     H74512   1.155   6.537   5.266 -2.4690  0.8554  2.3894
  552MOL0     H74513   1.239   6.644   5.153  2.8922  1.7384  1.9712
  552MOL0     H74514   1.056   6.694   5.035 -1.7710 -1.0667 -0.6830
  552MOL0     H74515   0.940   6.703   5.166  0.3059 -0.0890  0.3965
  552MOL0     H74516   0.946   6.465   5.182  1.4563 -1.0305  1.2626
  552MOL0     H74517   1.074   6.460   5.044  1.0078  1.9903 -0.8369
  552MOL0     H74518   0.669   6.511   4.912 -1.2352 -2.2557  3.8470
  552MOL0     H74519   0.911   6.688   5.655  1.2415  2.8924  0.4687
  552MOL0     H74520   0.979   6.571   5.858  1.3462 -0.4275  0.8618
  553MOL0     O74521   9.149   8.881   2.509  0.1295 -0.6007 -0.1568
  553MOL0     C74522   9.267   8.886   2.531  0.8222 -0.2084 -0.1956
  553MOL0     O74523   9.358   8.973   2.466  0.3163  0.1952  0.1271
  553MOL0     C74524   9.320   9.049   2.360  0.2634 -0.2702 -0.3971
  553MOL0     C74525   9.244   8.998   2.253 -0.2393  0.1604  0.9535
  553MOL0     C74526   9.203   9.083   2.144  0.0062  0.6286  0.5045
  553MOL0     C74527   9.233   9.213   2.155  0.7351 -0.2590  0.4873
  553MOL0     O74528   9.190   9.275   2.036 -0.2150  0.0280 -0.1859
  553MOL0     C74529   9.225   9.413   2.032  0.6987 -0.6929  0.2101
  553MOL0     C74530   9.159   9.484   1.919  0.2311  0.4871  0.8609
  553MOL0     C74531   9.010   9.517   1.938  0.6279  0.8252  0.9319
  553MOL0     C74532   8.907   9.405   1.974 -0.1480 -0.3582 -0.2766
  553MOL0     C74533   8.755   9.439   1.948 -0.0245  0.0556 -0.3304
  553MOL0     C74534   8.716   9.479   1.800 -0.8718 -0.1141 -0.0722
  553MOL0     C74535   8.571   9.463   1.774 -0.6188  0.2716  0.5789
  553MOL0     C74536   8.487   9.562   1.845  0.1322  0.0143  0.1001
  553MOL0     N74537   8.519   9.700   1.867  0.5348  0.0570 -0.1130
  553MOL0     C74538   8.452   9.797   1.802 -0.9341  0.3706  0.2507
  553MOL0     C74539   8.470   9.917   1.857  0.3722 -0.0660 -0.9433
  553MOL0     C74540   8.427  10.055   1.810  0.0562  0.0505 -0.1434
  553MOL0     C74541   8.277  10.063   1.774  0.2818 -0.0543  0.1858
  553MOL0     C74542   8.214  10.210   1.794  0.1170  1.1251  0.1126
  553MOL0     C74543   8.058  10.207   1.782 -0.3470  0.2404 -0.9287
  553MOL0     O74544   8.002  10.328   1.801  0.0349 -0.4296 -0.5984
  553MOL0     C74545   7.864  10.345   1.815 -0.0885 -0.6634 -0.1767
  553MOL0     C74546   7.770  10.240   1.835 -0.2736 -0.1906  0.9805
  553MOL0     C74547   7.630  10.258   1.829 -0.0866 -0.2794  0.2451
  553MOL0     C74548   7.542  10.137   1.847 -0.1944  0.1003  0.3684
  553MOL0     C74549   7.577  10.392   1.811  0.0428  0.2297 -0.2929
  553MOL0     C74550   7.428  10.426   1.802  0.3390 -0.7397 -0.6810
  553MOL0     O74551   7.397  10.559   1.815  0.4168 -1.6170 -0.2593
  553MOL0     C74552   7.270  10.595   1.763  0.3283  0.4686  0.2112
  553MOL0     C74553   7.260  10.635   1.626  0.2095 -0.3374 -1.1987
  553MOL0     C74554   7.149  10.691   1.575  0.1226  0.2371  1.1024
  553MOL0     C74555   7.034  10.692   1.649 -0.3133 -0.4061 -0.5464
  553MOL0     O74556   6.913  10.719   1.592  0.0230  0.8385  0.2181
  553MOL0     C74557   6.876  10.846   1.628 -0.6782  0.1533 -0.2351
  553MOL0     C74558   6.769  10.895   1.522  0.2379 -0.2637  0.9825
  553MOL0     C74559   6.831  10.883   1.377  0.4804 -0.0391 -0.6105
  553MOL0     C74560   6.950  10.978   1.371 -0.9252 -0.9067  0.2752
  553MOL0     C74561   6.990  11.002   1.222  0.3923 -0.5304  0.7217
  553MOL0     C74562   7.134  11.057   1.192 -1.2257 -0.4605  1.0139
  553MOL0     C74563   7.192  11.022   1.049  0.1675  0.2782 -0.2092
  553MOL0     C74564   7.241  11.147   0.972  0.2321  0.2785 -0.2760
  553MOL0    Cl74565   7.401  11.205   1.029  0.2225  0.2990  0.1106
  553MOL0     C74566   7.029  10.637   1.779 -0.4637  0.4396 -0.4159
  553MOL0     C74567   7.151  10.596   1.837  0.4358  0.0754  0.8189
  553MOL0     O74568   7.345  10.338   1.784  0.0087  0.9176 -0.7755
  553MOL0     C74569   7.676  10.497   1.808  0.7519 -1.1519 -0.3070
  553MOL0     C74570   7.811  10.476   1.803 -0.6515  0.9420 -0.4248
  553MOL0     N74571   8.548   9.894   1.968  0.3222  0.0489 -0.1013
  553MOL0     N74572   8.578   9.763   1.976  0.4826 -0.5594  0.3566
  553MOL0     C74573   9.304   9.264   2.262 -0.2034  0.0598  0.2090
  553MOL0     C74574   9.366   9.186   2.357  0.2247  0.4998 -0.0266
  553MOL0     C74575   9.313   8.809   2.654 -0.4743  0.6763  0.5395
  553MOL0     C74576   9.226   8.738   2.733 -0.6250  0.8733 -0.4175
  553MOL0     C74577   9.271   8.652   2.829  0.8646  0.4599  0.7595
  553MOL0     C74578   9.402   8.644   2.872 -0.1139  1.2104  0.6741
  553MOL0     O74579   9.421   8.563   2.980  0.5391  0.1207 -0.8447
  553MOL0     C74580   9.551   8.553   3.049  0.5867 -0.0801  0.3741
  553MOL0     C74581   9.655   8.470   2.981 -0.2756 -0.0933 -0.1704
  553MOL0     C74582   9.632   8.324   2.971 -1.2235 -0.2911 -0.6424
  553MOL0     C74583   9.634   8.242   3.103 -0.2040 -0.5749  0.6760
  553MOL0     C74584   9.594   8.112   3.040  0.0393  0.3136 -0.7215
  553MOL0     C74585   9.544   8.025   2.988  0.0472  0.2321  0.4689
  553MOL0     C74586   9.486   8.726   2.800  0.0688 -0.4690 -0.3718
  553MOL0     C74587   9.447   8.800   2.687 -0.3469 -0.1319 -0.2525
  553MOL0     H74588   9.213   8.894   2.248 -0.2803  0.1905  0.5513
  553MOL0     H74589   9.159   9.045   2.053 -0.1791  1.3397  0.2926
  553MOL0     H74590   9.186   9.457   2.123 -0.6696  0.3358 -0.8291
  553MOL0     H74591   9.334   9.425   2.025  0.7161 -0.6756  0.5290
  553MOL0     H74592   9.216   9.577   1.915  4.3821 -1.7950 -2.7059
  553MOL0     H74593   9.184   9.434   1.825  0.9781 -0.2514  1.4364
  553MOL0     H74594   8.996   9.585   2.023  0.3948 -0.2894  1.8044
  553MOL0     H74595   8.974   9.561   1.845  2.3532  0.1989 -0.0692
  553MOL0     H74596   8.927   9.318   1.910  0.7144  0.6336 -1.3995
  553MOL0     H74597   8.907   9.370   2.078 -3.1160  0.3198  0.0150
  553MOL0     H74598   8.700   9.348   1.973  0.5533  0.1486  1.3940
  553MOL0     H74599   8.726   9.524   2.010 -1.1237 -0.9322  0.5487
  553MOL0     H74600   8.749   9.576   1.761 -0.9384 -1.1082 -2.8235
  553MOL0     H74601   8.770   9.408   1.736  0.5187  0.4928  0.4069
  553MOL0     H74602   8.549   9.480   1.668 -0.0460  0.7139  0.5236
  553MOL0     H74603   8.546   9.359   1.795 -0.8865 -0.2282 -1.8931
  553MOL0     H74604   8.488   9.520   1.946  1.0725 -0.6440 -0.1663
  553MOL0     H74605   8.388   9.557   1.799  0.4491 -0.7325 -0.5161
  553MOL0     H74606   8.390   9.779   1.715 -2.5779  0.5636  1.3392
  553MOL0     H74607   8.438  10.129   1.890 -2.3962  1.8177 -1.3025
  553MOL0     H74608   8.491  10.093   1.729  0.4152  1.3116  0.6963
  553MOL0     H74609   8.226   9.994   1.841  0.9372 -0.1856  0.5578
  553MOL0     H74610   8.276  10.039   1.668  3.1714  3.2770 -0.7952
  553MOL0     H74611   8.262  10.281   1.726  2.3558  1.3496  1.7905
  553MOL0     H74612   8.240  10.218   1.900  3.5434  0.1303 -0.5385
  553MOL0     H74613   8.021  10.129   1.849 -0.4396  0.1480 -1.0869
  553MOL0     H74614   8.037  10.153   1.690 -0.4558 -3.1434  0.9231
  553MOL0     H74615   7.807  10.138   1.843 -0.5959 -0.5996 -1.7666
  553MOL0     H74616   7.448  10.166   1.895 -1.1742  0.9253 -1.9458
  553MOL0     H74617   7.520  10.099   1.747  1.9652  1.8185 -0.8522
  553MOL0     H74618   7.602  10.067   1.907  0.1214 -1.1543 -1.3519
  553MOL0     H74619   7.348  10.623   1.563  2.2284 -1.3834  1.6049
  553MOL0     H74620   7.167  10.734   1.477 -1.4231 -1.4817 -0.0363
  553MOL0     H74621   6.833  10.855   1.728  2.9084  2.5518  1.2692
  553MOL0     H74622   6.953  10.923   1.628 -0.2328 -0.2592 -1.4176
  553MOL0     H74623   6.673  10.841   1.521 -2.0123  3.2269 -1.9693
  553MOL0     H74624   6.752  11.002   1.534  2.9463  0.1963  1.1047
  553MOL0     H74625   6.756  10.912   1.303  0.0837 -2.8764 -1.4500
  553MOL0     H74626   6.861  10.783   1.345  4.2381  0.2309  1.4683
  553MOL0     H74627   6.920  11.073   1.416 -0.9765 -0.5958 -0.4048
  553MOL0     H74628   7.038  10.936   1.421  0.2756  0.6835 -0.4046
  553MOL0     H74629   6.935  11.087   1.180  0.5791 -1.8265 -2.4424
  553MOL0     H74630   6.960  10.916   1.162  1.6548 -0.8145  0.4637
  553MOL0     H74631   7.143  11.164   1.211  0.8960 -0.1375 -1.3230
  553MOL0     H74632   7.207  11.012   1.260 -0.4472 -2.6304 -1.0943
  553MOL0     H74633   7.124  10.985   0.972 -1.7380 -0.6329  1.8294
  553MOL0     H74634   7.278  10.956   1.063  0.0885 -0.1989 -1.7218
  553MOL0     H74635   7.182  11.238   0.986  0.9649  0.2317  5.6957
  553MOL0     H74636   7.240  11.132   0.863  0.5705  0.0571 -0.2493
  553MOL0     H74637   6.933  10.628   1.830 -0.9412 -0.6461 -1.4533
  553MOL0     H74638   7.161  10.570   1.942  0.7323  0.8664  0.9912
  553MOL0     H74639   7.642  10.599   1.792 -1.4934 -1.8990 -0.6811
  553MOL0     H74640   7.877  10.562   1.798  0.7694 -0.1474 -4.0933
  553MOL0     H74641   9.322   9.371   2.258  2.1902 -0.1678  2.3996
  553MOL0     H74642   9.434   9.221   2.434  2.2357 -0.1811 -1.4270
  553MOL0     H74643   9.119   8.751   2.722 -0.9449 -1.3391 -0.4170
  553MOL0     H74644   9.197   8.582   2.866 -0.3267 -0.2864 -2.6765
  553MOL0     H74645   9.594   8.652   3.070 -0.3255  0.0010  1.9826
  553MOL0     H74646   9.521   8.498   3.138 -2.6334 -1.6042 -1.4860
  553MOL0     H74647   9.745   8.486   3.042 -0.2316  0.0104 -0.2624
  553MOL0     H74648   9.674   8.517   2.884 -2.0078  1.3569  0.1389
  553MOL0     H74649   9.709   8.294   2.900  0.6519  2.0834  0.2142
  553MOL0     H74650   9.542   8.321   2.909  0.9063  1.7026 -4.1869
  553MOL0     H74651   9.551   8.273   3.166 -1.5268  1.3875 -1.8260
  553MOL0     H74652   9.727   8.225   3.158 -1.6777 -3.0614  2.6569
  553MOL0     H74653   9.475   7.953   2.948 -0.3109  1.5168 -1.3493
  553MOL0     H74654   9.590   8.730   2.832  0.3714  0.3312 -1.4130
  553MOL0     H74655   9.523   8.853   2.630 -1.1945  1.3571 -0.0483
  554MOL0     O74656   7.415   2.944   9.609 -0.0904  0.5808 -0.2966
  554MOL0     C74657   7.445   2.935   9.732 -1.4351  0.2903  0.2400
  554MOL0     O74658   7.542   3.009   9.805  0.0984 -0.1294 -0.1736
  554MOL0     C74659   7.621   3.099   9.748 -0.6113  0.2536  0.1657
  554MOL0     C74660   7.743   3.121   9.809  0.3856  0.0382 -0.4191
  554MOL0     C74661   7.824   3.228   9.770  0.8848 -0.9521  0.0217
  554MOL0     C74662   7.795   3.309   9.658  0.4411  0.6561  0.1972
  554MOL0     O74663   7.881   3.410   9.638 -0.4627 -0.5743  0.0057
  554MOL0     C74664   7.830   3.513   9.545 -0.3373  0.2727 -0.4171
  554MOL0     C74665   7.742   3.613   9.623 -0.3698 -0.4037  0.1794
  554MOL0     C74666   7.806   3.678   9.740  0.4092  0.4355 -0.6978
  554MOL0     C74667   7.789   3.608   9.884  0.8407 -0.6625  0.3118
  554MOL0     C74668   7.849   3.696   9.995 -0.0951 -0.2765  0.3655
  554MOL0     C74669   7.774   3.677  10.124 -0.1243  0.0503 -0.7884
  554MOL0     C74670   7.715   3.536  10.154 -0.6064  0.3672  0.6905
  554MOL0     C74671   7.697   3.510  10.306  0.4579 -0.1063  0.4934
  554MOL0     N74672   7.607   3.388  10.328  0.5653  0.3349 -0.5770
  554MOL0     C74673   7.620   3.266  10.269  0.2979  0.8631  0.5988
  554MOL0     C74674   7.509   3.196  10.281  0.0621 -1.3485 -0.2326
  554MOL0     C74675   7.493   3.062  10.207  0.4507 -0.0956 -0.6931
  554MOL0     C74676   7.578   2.946  10.277 -0.0578 -0.1646 -0.8184
  554MOL0     C74677   7.570   2.917  10.426  0.4440  1.0005  0.2169
  554MOL0     C74678   7.510   2.775  10.451  0.2239  0.7052  0.1447
  554MOL0     O74679   7.376   2.785  10.416 -0.3393  0.3919 -0.0050
  554MOL0     C74680   7.283   2.695  10.475 -0.5112 -0.5875  0.8772
  554MOL0     C74681   7.154   2.729  10.513 -0.2938 -0.2435  0.9225
  554MOL0     C74682   7.062   2.634  10.558  0.6298  0.6616 -0.4300
  554MOL0     C74683   6.916   2.686  10.600  0.4602  0.9722  0.0121
  554MOL0     C74684   7.097   2.496  10.584 -0.0795 -0.3934 -0.1685
  554MOL0     C74685   7.009   2.388  10.626 -0.1322 -0.2241 -0.1295
  554MOL0     O74686   6.877   2.392  10.595 -0.5152  0.5527  0.3042
  554MOL0     C74687   6.801   2.288  10.635  0.8072 -0.1293 -0.0833
  554MOL0     C74688   6.703   2.308  10.736 -0.1789  0.1639  0.1453
  554MOL0     C74689   6.611   2.203  10.761 -1.1728  0.0633 -1.5332
  554MOL0     C74690   6.610   2.083  10.688 -0.3711 -0.0258 -0.7397
  554MOL0     O74691   6.525   1.972  10.717  0.1386 -0.1986 -0.1003
  554MOL0     C74692   6.386   1.997  10.723 -0.9198 -0.3124  0.1726
  554MOL0     C74693   6.311   1.864  10.710 -0.1383 -0.5042 -0.5282
  554MOL0     C74694   6.359   1.763  10.815  0.5009  0.9042  0.0440
  554MOL0     C74695   6.288   1.626  10.794 -0.1807  0.3985 -0.4865
  554MOL0     C74696   6.297   1.541  10.924 -0.3301 -0.3215  0.6091
  554MOL0     C74697   6.214   1.410  10.910 -0.2372 -0.1981 -0.3716
  554MOL0     C74698   6.207   1.343  11.053 -0.1000 -0.6314 -0.7795
  554MOL0     C74699   6.095   1.399  11.135  0.3020 -0.4100  0.8220
  554MOL0    Cl74700   6.103   1.313  11.300 -0.4976  0.4043 -0.0222
  554MOL0     C74701   6.701   2.064  10.584 -0.7591 -0.0358 -0.0946
  554MOL0     C74702   6.797   2.170  10.558  0.1962 -0.3695 -0.6928
  554MOL0     O74703   7.056   2.313  10.715 -0.1854 -0.2027 -0.4472
  554MOL0     C74704   7.234   2.466  10.559  0.5018  0.1669 -0.4399
  554MOL0     C74705   7.319   2.560  10.493 -0.9247  0.5068 -0.3975
  554MOL0     N74706   7.414   3.269  10.354 -0.4069 -0.7291 -0.1125
  554MOL0     N74707   7.473   3.384  10.379 -0.7782 -0.6291 -0.1630
  554MOL0     C74708   7.675   3.274   9.589  0.4258  0.5113  0.1174
  554MOL0     C74709   7.587   3.180   9.646  0.1382  0.5361 -1.0798
  554MOL0     C74710   7.373   2.823   9.812  0.6302  0.7511  0.6064
  554MOL0     C74711   7.411   2.794   9.941  0.2450  0.4132 -0.6428
  554MOL0     C74712   7.332   2.691  10.010  0.1859  0.5838  0.2489
  554MOL0     C74713   7.242   2.608   9.942  0.0304 -0.2962  0.0189
  554MOL0     O74714   7.155   2.523  10.008 -0.3535  0.2751 -0.0893
  554MOL0     C74715   7.113   2.557  10.143  0.1316  0.4451 -1.2176
  554MOL0     C74716   6.986   2.472  10.185  0.5238 -0.1090 -0.4503
  554MOL0     C74717   6.851   2.527  10.133 -0.0185 -0.0207  0.1568
  554MOL0     C74718   6.740   2.456  10.199 -0.0981  0.5930  0.0889
  554MOL0     C74719   6.619   2.529  10.159 -0.1677  0.2726 -0.1444
  554MOL0     C74720   6.530   2.598  10.121 -0.1572 -0.0238 -0.4372
  554MOL0     C74721   7.212   2.642   9.809  0.3889  0.1588 -0.4915
  554MOL0     C74722   7.275   2.755   9.750 -0.1793 -0.0204  0.2557
  554MOL0     H74723   7.777   3.055   9.887 -1.0319 -1.3678 -0.9371
  554MOL0     H74724   7.919   3.253   9.815  1.2815  0.4597 -1.4903
  554MOL0     H74725   7.910   3.567   9.494 -0.8580  0.9922 -0.4877
  554MOL0     H74726   7.777   3.474   9.458  0.0917 -0.4588 -0.3571
  554MOL0     H74727   7.718   3.693   9.552 -1.3048 -2.4183 -1.9209
  554MOL0     H74728   7.652   3.559   9.654 -1.5078  1.7384  0.8390
  554MOL0     H74729   7.912   3.702   9.729  0.9396  0.1925  2.7675
  554MOL0     H74730   7.744   3.769   9.749  0.2442  0.1379  1.7518
  554MOL0     H74731   7.682   3.607   9.904  1.0272  4.3966  3.4959
  554MOL0     H74732   7.841   3.512   9.873  3.6574  0.6769  0.9148
  554MOL0     H74733   7.951   3.660  10.011  0.4495  0.4488 -1.2537
  554MOL0     H74734   7.852   3.804   9.976  0.3437 -0.6062 -1.6631
  554MOL0     H74735   7.849   3.702  10.200  0.6393 -0.6851 -1.2933
  554MOL0     H74736   7.682   3.737  10.131 -2.6293 -3.5222  0.1512
  554MOL0     H74737   7.615   3.508  10.118 -0.4655  0.5178  0.1722
  554MOL0     H74738   7.781   3.465  10.103  0.9838  1.5876  0.9705
  554MOL0     H74739   7.663   3.594  10.367  1.0336 -0.4469  1.2926
  554MOL0     H74740   7.794   3.491  10.353  0.2363  0.2332  1.0922
  554MOL0     H74741   7.705   3.240  10.207 -1.0547 -0.9223 -0.6035
  554MOL0     H74742   7.387   3.046  10.185  0.1483  1.0325 -0.1687
  554MOL0     H74743   7.537   3.090  10.111  2.1524 -1.2834 -0.3074
  554MOL0     H74744   7.685   2.955  10.258  0.0029 -0.2923 -0.5367
  554MOL0     H74745   7.562   2.851  10.226  1.2846 -0.5277 -0.5884
  554MOL0     H74746   7.507   2.995  10.470 -0.0563 -0.5556  2.4686
  554MOL0     H74747   7.668   2.929  10.474  0.0063  1.7027  0.9649
  554MOL0     H74748   7.520   2.738  10.553  2.7513 -3.9349 -1.4997
  554MOL0     H74749   7.553   2.697  10.387  0.7027 -2.9458  4.4300
  554MOL0     H74750   7.115   2.830  10.501  0.1400 -0.1322  0.3746
  554MOL0     H74751   6.909   2.794  10.611 -0.9207  0.7945  1.0010
  554MOL0     H74752   6.841   2.654  10.527 -1.2936 -2.1134  2.8883
  554MOL0     H74753   6.893   2.649  10.700  2.5003  2.0486  0.9285
  554MOL0     H74754   6.718   2.404  10.785 -2.9768  0.1874  1.1399
  554MOL0     H74755   6.558   2.207  10.856  2.3728 -5.7786  1.2145
  554MOL0     H74756   6.357   2.049  10.815  2.7920 -0.0374  1.3444
  554MOL0     H74757   6.351   2.058  10.639  0.2822 -0.9557 -0.8185
  554MOL0     H74758   6.207   1.894  10.726  0.5470  2.6585 -1.3021
  554MOL0     H74759   6.324   1.825  10.608 -0.3012 -0.2035 -0.6661
  554MOL0     H74760   6.327   1.810  10.909 -1.3217 -0.7202  0.3010
  554MOL0     H74761   6.467   1.746  10.813  0.3102 -0.8059  1.4614
  554MOL0     H74762   6.182   1.646  10.779 -0.0276  0.3763 -1.6655
  554MOL0     H74763   6.321   1.564  10.710 -1.0451 -1.2049  0.3040
  554MOL0     H74764   6.271   1.603  11.010  0.4742  0.6939  0.1340
  554MOL0     H74765   6.401   1.508  10.936  0.1472 -0.3527 -2.6863
  554MOL0     H74766   6.112   1.430  10.877 -0.3878  1.1657  0.8180
  554MOL0     H74767   6.266   1.358  10.829 -1.0468  2.6961 -2.9322
  554MOL0     H74768   6.300   1.365  11.107 -2.5337 -0.7324  3.9820
  554MOL0     H74769   6.188   1.236  11.048 -1.1310 -0.5576  0.7947
  554MOL0     H74770   6.002   1.368  11.086  0.8028  2.7447 -2.5668
  554MOL0     H74771   6.098   1.508  11.139  3.0500 -0.4737  2.6916
  554MOL0     H74772   6.708   1.966  10.540 -0.5187  1.5756 -4.0640
  554MOL0     H74773   6.869   2.147  10.481  0.1714  1.2325 -1.2430
  554MOL0     H74774   7.276   2.369  10.584 -1.6888 -0.7304 -0.0345
  554MOL0     H74775   7.417   2.514  10.483 -0.7629  0.3346  1.6183
  554MOL0     H74776   7.645   3.338   9.507  0.2437  0.7450  0.3641
  554MOL0     H74777   7.490   3.159   9.601 -0.3853 -1.8414  0.9816
  554MOL0     H74778   7.490   2.844   9.996  0.1517 -0.2930  0.1529
  554MOL0     H74779   7.346   2.676  10.116  1.9200  2.9538  0.4281
  554MOL0     H74780   7.191   2.537  10.217 -2.8872  0.4654  2.2443
  554MOL0     H74781   7.098   2.664  10.160  1.6366  0.2907  1.6341
  554MOL0     H74782   6.982   2.464  10.294  1.3733  0.7512 -0.3392
  554MOL0     H74783   6.992   2.376  10.133  1.8784 -0.0773 -0.4041
  554MOL0     H74784   6.846   2.517  10.024 -0.3890 -1.8717  0.3182
  554MOL0     H74785   6.847   2.635  10.152 -0.3435 -0.2524  1.5039
  554MOL0     H74786   6.756   2.481  10.304 -0.3687  0.3685  0.1828
  554MOL0     H74787   6.740   2.352  10.165  4.1976 -0.9140  3.7374
  554MOL0     H74788   6.449   2.656  10.081 -0.7926  1.5309  2.7389
  554MOL0     H74789   7.140   2.588   9.747 -0.3167  1.1390 -0.5419
  554MOL0     H74790   7.247   2.783   9.649 -1.0456  0.1663  0.5374
  555MOL0     O74791   0.286   5.751   6.879  0.3299  0.2014 -0.2304
  555MOL0     C74792   0.335   5.698   6.784  0.0422  1.1135 -0.3002
  555MOL0     O74793   0.360   5.764   6.668 -0.4152  0.6451  0.3178
  555MOL0     C74794   0.332   5.894   6.652 -0.8456  1.2450  1.0413
  555MOL0     C74795   0.203   5.957   6.649  0.1242 -0.5918 -0.6369
  555MOL0     C74796   0.186   6.098   6.628 -0.0884 -0.0864 -0.8426
  555MOL0     C74797   0.302   6.175   6.593 -0.1865 -0.6674  0.1891
  555MOL0     O74798   0.288   6.315   6.575  0.1209  0.4304 -0.1906
  555MOL0     C74799   0.184   6.357   6.486  0.1392 -0.4994  0.1392
  555MOL0     C74800   0.173   6.511   6.477 -0.2168 -0.5174 -0.1907
  555MOL0     C74801   0.055   6.560   6.382  0.4769  0.4980  0.1954
  555MOL0     C74802   0.035   6.706   6.415  0.2510 -0.3982  2.0572
  555MOL0     C74803  -0.067   6.778   6.326  0.2696 -0.3797  0.5377
  555MOL0     C74804  -0.065   6.929   6.357 -0.3805  0.5727 -0.4452
  555MOL0     C74805  -0.175   7.013   6.299  0.3420 -0.3870 -0.7041
  555MOL0     C74806  -0.125   7.163   6.279 -0.4098 -0.5255  0.6045
  555MOL0     N74807  -0.079   7.222   6.405 -0.0324 -0.1465  0.1705
  555MOL0     C74808  -0.142   7.314   6.484 -0.0261 -0.4719 -0.4069
  555MOL0     C74809  -0.080   7.319   6.610 -0.3643 -0.4619  1.0140
  555MOL0     C74810  -0.121   7.393   6.733  0.8704 -0.2964  0.3180
  555MOL0     C74811  -0.270   7.431   6.728  0.6986 -0.2115 -0.6422
  555MOL0     C74812  -0.302   7.524   6.854 -0.4191 -0.0988  0.7688
  555MOL0     C74813  -0.309   7.445   6.987  1.0244  0.5977  0.0572
  555MOL0     O74814  -0.380   7.324   6.965 -0.0757  0.4300 -0.4145
  555MOL0     C74815  -0.454   7.263   7.063  0.0734  0.2054 -0.5778
  555MOL0     C74816  -0.547   7.168   7.021 -0.3805  0.2432 -0.3552
  555MOL0     C74817  -0.635   7.102   7.107  0.3654 -0.0763  0.0103
  555MOL0     C74818  -0.724   6.988   7.047 -0.4112  0.8314  0.4707
  555MOL0     C74819  -0.644   7.142   7.242  0.6335  0.5804  0.1456
  555MOL0     C74820  -0.740   7.097   7.330 -0.3401  0.0412 -0.1648
  555MOL0     O74821  -0.769   7.184   7.433  0.2406 -0.1571 -0.0599
  555MOL0     C74822  -0.873   7.187   7.525  0.2953 -0.1925 -0.2551
  555MOL0     C74823  -0.984   7.099   7.528  1.0500 -0.1502  0.6057
  555MOL0     C74824  -1.088   7.123   7.610  0.5519  0.6694 -0.4327
  555MOL0     C74825  -1.082   7.234   7.696 -0.0697 -0.0961  0.3520
  555MOL0     O74826  -1.199   7.264   7.762  0.1714  0.4845 -0.1823
  555MOL0     C74827  -1.306   7.311   7.682 -0.2337  0.0823  0.5091
  555MOL0     C74828  -1.271   7.400   7.557  0.3727 -0.0202 -0.4644
  555MOL0     C74829  -1.272   7.548   7.595  0.2911 -0.1591  0.2395
  555MOL0     C74830  -1.232   7.632   7.472  0.1860 -1.1084 -0.1790
  555MOL0     C74831  -1.344   7.642   7.357 -0.7679 -0.1848  0.1722
  555MOL0     C74832  -1.283   7.733   7.249 -0.8084 -0.2380  0.7265
  555MOL0     C74833  -1.381   7.783   7.147  0.4298 -1.0421 -0.3897
  555MOL0     C74834  -1.315   7.817   7.008 -0.3299 -0.4586 -0.7919
  555MOL0    Cl74835  -1.220   7.957   7.023 -0.2896  0.2163  0.4845
  555MOL0     C74836  -0.988   7.331   7.684  0.2803 -0.1434 -0.0184
  555MOL0     C74837  -0.881   7.299   7.616  0.4342 -0.9200 -0.0540
  555MOL0     O74838  -0.785   6.987   7.320 -0.2015 -0.4288 -1.2320
  555MOL0     C74839  -0.547   7.236   7.284  1.2411  0.3297  0.4278
  555MOL0     C74840  -0.452   7.297   7.200  1.2666 -0.5696  0.4175
  555MOL0     N74841   0.024   7.227   6.598 -0.1941 -0.3872  0.0970
  555MOL0     N74842   0.028   7.182   6.477  0.2368  0.2600  0.1981
  555MOL0     C74843   0.422   6.109   6.593  0.1177  0.0208  0.3138
  555MOL0     C74844   0.437   5.975   6.618 -0.6760 -0.9072  0.8195
  555MOL0     C74845   0.381   5.554   6.782 -0.1763 -0.4743 -0.6074
  555MOL0     C74846   0.434   5.490   6.669 -0.1031 -0.0414  1.0426
  555MOL0     C74847   0.467   5.353   6.672 -0.0322  0.6600  0.0164
  555MOL0     C74848   0.434   5.279   6.779 -0.6837  0.2663  0.1342
  555MOL0     O74849   0.460   5.145   6.771 -0.2596 -0.0642  0.6401
  555MOL0     C74850   0.426   5.058   6.878  0.0064  0.9270  0.8999
  555MOL0     C74851   0.274   5.033   6.878 -0.2597 -0.9291  0.1180
  555MOL0     C74852   0.266   4.905   6.966  0.1277 -0.6273 -0.5718
  555MOL0     C74853   0.288   4.927   7.122 -1.3283  0.7886 -0.3458
  555MOL0     C74854   0.160   4.967   7.184  0.5098 -0.1902  1.4503
  555MOL0     C74855   0.061   5.013   7.236  0.9643  0.6080 -0.1416
  555MOL0     C74856   0.385   5.341   6.900  1.0434 -0.3991  0.4384
  555MOL0     C74857   0.355   5.478   6.900  0.8881  0.8362  0.5350
  555MOL0     H74858   0.121   5.892   6.680 -2.2264  2.9482  1.2795
  555MOL0     H74859   0.083   6.131   6.621 -0.9664 -2.7603 -1.4998
  555MOL0     H74860   0.201   6.317   6.385 -1.4653 -2.5327  0.6058
  555MOL0     H74861   0.093   6.310   6.524 -0.4132  0.4685  0.0436
  555MOL0     H74862   0.175   6.559   6.576 -4.0915 -0.9145  0.2550
  555MOL0     H74863   0.267   6.536   6.427 -1.7420  0.2836 -2.8646
  555MOL0     H74864   0.083   6.558   6.277 -2.3998 -1.9085 -0.6785
  555MOL0     H74865  -0.036   6.501   6.400 -0.6067  2.0984  0.2366
  555MOL0     H74866   0.012   6.709   6.522  0.1103  1.1959  2.0034
  555MOL0     H74867   0.130   6.760   6.407  0.0106 -0.1788 -0.1426
  555MOL0     H74868  -0.041   6.762   6.221 -0.4087 -0.6511  0.4023
  555MOL0     H74869  -0.160   6.727   6.353  1.0158 -1.2879  1.4999
  555MOL0     H74870  -0.064   6.941   6.466  1.3003  1.3709 -0.5082
  555MOL0     H74871   0.036   6.956   6.326  0.3426 -3.3220 -2.0653
  555MOL0     H74872  -0.218   6.964   6.211 -2.3189  1.3156 -0.4571
  555MOL0     H74873  -0.254   7.023   6.373 -0.1341  0.8924 -1.3511
  555MOL0     H74874  -0.206   7.225   6.239 -0.9119 -2.7567 -2.1659
  555MOL0     H74875  -0.048   7.160   6.202 -0.2185 -0.3666  0.7894
  555MOL0     H74876  -0.239   7.357   6.460  0.1235  1.4753  2.0443
  555MOL0     H74877  -0.094   7.329   6.818 -1.5039 -4.8073 -1.9474
  555MOL0     H74878  -0.068   7.488   6.730 -0.4737  0.5127  1.0914
  555MOL0     H74879  -0.332   7.341   6.728  2.2480 -1.3191 -1.5907
  555MOL0     H74880  -0.294   7.478   6.633  3.8160 -1.5655 -2.2500
  555MOL0     H74881  -0.390   7.586   6.837  0.6674  1.3170  0.0038
  555MOL0     H74882  -0.220   7.596   6.867 -0.8313  0.7629 -1.1265
  555MOL0     H74883  -0.351   7.503   7.070  3.5707  1.9841  0.4967
  555MOL0     H74884  -0.212   7.420   7.030  0.1830 -0.9449  1.1568
  555MOL0     H74885  -0.556   7.150   6.914 -5.8776  1.7697 -0.4237
  555MOL0     H74886  -0.698   6.964   6.944 -2.7343 -0.9616  0.2074
  555MOL0     H74887  -0.708   6.890   7.092  0.8227  0.6298 -0.3653
  555MOL0     H74888  -0.829   7.017   7.059 -0.5437  0.0628  1.1906
  555MOL0     H74889  -0.992   7.025   7.450 -0.3041  2.5978 -2.0457
  555MOL0     H74890  -1.166   7.047   7.618 -2.0529  3.0522 -1.4668
  555MOL0     H74891  -1.352   7.215   7.657  1.3749 -0.3729 -0.8962
  555MOL0     H74892  -1.374   7.368   7.746 -0.1160 -2.0819  2.6769
  555MOL0     H74893  -1.179   7.372   7.506 -0.1320 -1.5208 -0.6065
  555MOL0     H74894  -1.348   7.385   7.481 -0.1938  0.8354 -0.0753
  555MOL0     H74895  -1.207   7.564   7.681 -3.1736  3.5573  2.5094
  555MOL0     H74896  -1.374   7.575   7.623  0.6958 -1.6900  3.5836
  555MOL0     H74897  -1.208   7.737   7.495  1.1094 -0.8728 -2.0186
  555MOL0     H74898  -1.137   7.593   7.436  2.0712  1.1857  1.8813
  555MOL0     H74899  -1.443   7.666   7.397 -0.5407  0.3988  0.3943
  555MOL0     H74900  -1.346   7.541   7.316 -0.3994 -0.9495  1.9545
  555MOL0     H74901  -1.245   7.821   7.301 -2.1487 -0.8251  2.8467
  555MOL0     H74902  -1.201   7.677   7.202 -0.4465 -0.5378  1.6907
  555MOL0     H74903  -1.430   7.870   7.191  0.4462 -1.6119  0.8026
  555MOL0     H74904  -1.453   7.702   7.130  0.2169 -0.4400 -2.6904
  555MOL0     H74905  -1.388   7.830   6.927 -2.5535 -1.2455  0.9806
  555MOL0     H74906  -1.250   7.736   6.973  2.5299  1.0926  0.5561
  555MOL0     H74907  -1.001   7.420   7.745 -2.2969 -0.6427  0.2777
  555MOL0     H74908  -0.794   7.361   7.635  0.5990 -1.4006  0.7948
  555MOL0     H74909  -0.550   7.246   7.392  0.2520  2.0729  0.2624
  555MOL0     H74910  -0.368   7.355   7.238  1.8334 -1.6995  0.9132
  555MOL0     H74911   0.506   6.168   6.556 -0.9263  1.0547 -0.4813
  555MOL0     H74912   0.539   5.939   6.612 -0.4285 -0.0320 -1.3914
  555MOL0     H74913   0.465   5.547   6.582  3.4542 -1.8764  0.9483
  555MOL0     H74914   0.510   5.300   6.587  0.9202  1.3950  0.0219
  555MOL0     H74915   0.487   4.970   6.858 -3.7110 -1.3948 -1.3365
  555MOL0     H74916   0.470   5.095   6.971  4.0332  0.7171 -0.6964
  555MOL0     H74917   0.239   5.011   6.777 -0.4404 -2.3875  0.4834
  555MOL0     H74918   0.220   5.121   6.917  0.7350  0.4623 -1.4951
  555MOL0     H74919   0.344   4.833   6.938 -0.1220 -0.7993 -0.8261
  555MOL0     H74920   0.165   4.870   6.945  0.5474 -0.5592 -2.9105
  555MOL0     H74921   0.370   4.995   7.144 -1.1247 -0.2671  2.5991
  555MOL0     H74922   0.317   4.836   7.175  1.0100  0.1751 -2.5105
  555MOL0     H74923  -0.032   5.026   7.288  0.4387 -2.5824 -0.0884
  555MOL0     H74924   0.351   5.278   6.982 -2.0625 -2.4920 -2.1937
  555MOL0     H74925   0.329   5.541   6.985 -0.1163  2.6790 -1.0411
  556MOL0     O74926   2.303   1.456   3.379  0.4482  0.0478  0.0648
  556MOL0     C74927   2.240   1.471   3.268 -0.1988 -1.7572  0.3596
  556MOL0     O74928   2.288   1.552   3.156 -0.1552  0.3959  0.2650
  556MOL0     C74929   2.384   1.650   3.172 -1.0330 -0.7033 -0.8653
  556MOL0     C74930   2.465   1.684   3.064  0.5841  0.0154 -0.0273
  556MOL0     C74931   2.571   1.776   3.076 -0.8069  0.3086 -0.2208
  556MOL0     C74932   2.589   1.843   3.195  0.7271 -0.9044  0.1613
  556MOL0     O74933   2.669   1.946   3.219 -0.3051  0.3256 -0.4512
  556MOL0     C74934   2.700   2.029   3.107 -1.1154  0.6641  0.2959
  556MOL0     C74935   2.773   2.153   3.156 -0.1280 -0.5486 -1.0894
  556MOL0     C74936   2.803   2.245   3.042 -0.0669  0.2651  0.0380
  556MOL0     C74937   2.841   2.379   3.102  0.3045 -0.1903 -0.1201
  556MOL0     C74938   2.888   2.474   2.990  0.4090  0.0227  0.9941
  556MOL0     C74939   2.953   2.606   3.047 -0.1172  0.0452  0.2435
  556MOL0     C74940   2.933   2.717   2.953 -0.0084 -0.5847 -0.5423
  556MOL0     C74941   2.997   2.708   2.817  0.2073 -0.3498 -0.0104
  556MOL0     N74942   3.007   2.843   2.746  0.1128  0.0401 -0.1740
  556MOL0     C74943   2.893   2.920   2.715 -0.4146 -0.2208 -0.1659
  556MOL0     C74944   2.934   3.052   2.726  0.3704  0.2062 -0.2166
  556MOL0     C74945   2.856   3.182   2.704  0.2021  0.2612 -0.3881
  556MOL0     C74946   2.793   3.238   2.832 -0.2525  0.2156 -1.5304
  556MOL0     C74947   2.702   3.134   2.907  0.4266  0.2134  0.2281
  556MOL0     C74948   2.579   3.112   2.821  0.4831  0.0860 -0.3172
  556MOL0     O74949   2.568   2.994   2.730  0.7752 -0.1806 -1.1439
  556MOL0     C74950   2.541   2.866   2.766 -0.0528  0.2282 -0.7183
  556MOL0     C74951   2.526   2.832   2.905 -0.9932  0.2700 -0.1389
  556MOL0     C74952   2.505   2.699   2.941 -0.2767  0.6003  0.0326
  556MOL0     C74953   2.471   2.662   3.093 -0.7134  0.3098 -0.1527
  556MOL0     C74954   2.499   2.595   2.844  1.3247  0.1347 -0.1231
  556MOL0     C74955   2.458   2.452   2.869  0.6079 -0.1949  0.3929
  556MOL0     O74956   2.397   2.380   2.776  0.3874 -0.3182  0.1564
  556MOL0     C74957   2.357   2.257   2.799 -0.1974 -0.9584 -1.0744
  556MOL0     C74958   2.440   2.144   2.777  0.0934 -0.1481 -0.0958
  556MOL0     C74959   2.398   2.016   2.806  0.0253 -0.6827  0.0004
  556MOL0     C74960   2.263   2.000   2.866 -0.5339  0.4784  0.0169
  556MOL0     O74961   2.227   1.872   2.912  0.2735 -0.6371 -0.2840
  556MOL0     C74962   2.207   1.765   2.822  0.3751  0.3073 -0.4982
  556MOL0     C74963   2.115   1.820   2.717 -0.3643 -0.0641 -0.1042
  556MOL0     C74964   2.072   1.699   2.637  0.1281  0.1180  0.7222
  556MOL0     C74965   1.955   1.740   2.552  0.1740 -0.3852 -0.0628
  556MOL0     C74966   1.894   1.629   2.476  0.1276 -0.0664  0.3193
  556MOL0     C74967   1.999   1.565   2.383  0.6234  0.8171 -0.1182
  556MOL0     C74968   1.924   1.464   2.292 -0.0945  0.7608 -0.4206
  556MOL0     C74969   1.860   1.537   2.174  0.5544  1.2220  0.5894
  556MOL0    Cl74970   1.695   1.576   2.213 -0.4157 -0.1778  0.2795
  556MOL0     C74971   2.179   2.109   2.872  0.5624  0.0498 -0.3781
  556MOL0     C74972   2.226   2.239   2.842  0.1713  0.3824  0.9677
  556MOL0     O74973   2.511   2.401   2.970  0.1582 -0.2887  0.1885
  556MOL0     C74974   2.514   2.630   2.710 -0.0335 -0.2644  0.3247
  556MOL0     C74975   2.524   2.768   2.667 -0.4634  0.4527  0.4393
  556MOL0     N74976   3.070   3.050   2.769  1.0135 -1.0585  0.2176
  556MOL0     N74977   3.112   2.929   2.780 -0.3883 -0.4879  0.8129
  556MOL0     C74978   2.525   1.799   3.307 -0.2363 -0.0095  0.0222
  556MOL0     C74979   2.417   1.707   3.295  0.4275 -0.2107 -0.0180
  556MOL0     C74980   2.113   1.412   3.255  0.2505  0.2115  0.2750
  556MOL0     C74981   2.032   1.423   3.133 -0.3617  0.7510 -1.0857
  556MOL0     C74982   1.903   1.368   3.121  0.8506 -1.0778 -0.2272
  556MOL0     C74983   1.840   1.299   3.224  0.1973 -0.4000  0.8275
  556MOL0     O74984   1.705   1.273   3.205  0.2476 -0.1789 -0.2632
  556MOL0     C74985   1.676   1.131   3.192  0.0083  0.8038  0.0641
  556MOL0     C74986   1.527   1.109   3.163 -0.4367 -0.1155 -0.1796
  556MOL0     C74987   1.484   1.177   3.023  0.5591  0.3465 -0.2261
  556MOL0     C74988   1.341   1.160   2.984  0.8053  0.3060 -0.8375
  556MOL0     C74989   1.265   1.259   3.070 -0.0488 -0.2584  0.7861
  556MOL0     C74990   1.218   1.319   3.167 -0.4732  0.6473  0.1339
  556MOL0     C74991   1.913   1.289   3.340 -0.2960 -0.1657 -0.2376
  556MOL0     C74992   2.046   1.336   3.363  0.2423  0.3434 -0.8174
  556MOL0     H74993   2.450   1.634   2.969 -2.2130 -0.0920  0.3847
  556MOL0     H74994   2.625   1.801   2.986 -0.4530 -1.7813 -0.6401
  556MOL0     H74995   2.774   1.977   3.046 -0.4996 -2.4271  3.3830
  556MOL0     H74996   2.609   2.058   3.053  0.7913  2.1595 -2.4084
  556MOL0     H74997   2.723   2.201   3.240 -3.7767  0.2839 -3.4881
  556MOL0     H74998   2.868   2.120   3.199  1.8655  0.6069 -4.2579
  556MOL0     H74999   2.879   2.196   2.981  0.9933 -0.7942  2.1142
  556MOL0     H75000   2.712   2.258   2.983 -0.6415 -0.2614  0.7781
  556MOL0     H75001   2.751   2.428   3.140  0.3390 -0.3979  0.2335
  556MOL0     H75002   2.922   2.371   3.175  2.5877 -2.0039 -2.6694
  556MOL0     H75003   2.955   2.418   2.925  1.4779  0.6551  1.5255
  556MOL0     H75004   2.796   2.490   2.933  1.5856  1.1879 -0.6872
  556MOL0     H75005   2.946   2.632   3.153 -0.7809 -0.5776  0.3605
  556MOL0     H75006   3.060   2.584   3.062 -0.2190 -0.7419 -0.1094
  556MOL0     H75007   2.826   2.733   2.934 -0.4334 -3.4237 -0.9918
  556MOL0     H75008   2.964   2.808   3.005 -0.7084 -0.1666 -0.8341
  556MOL0     H75009   2.950   2.629   2.758  2.0966 -1.5651  0.0029
  556MOL0     H75010   3.100   2.670   2.826  0.3885 -0.0344 -0.7181
  556MOL0     H75011   2.795   2.885   2.684  0.9957 -2.0146 -3.0285
  556MOL0     H75012   2.934   3.251   2.671  1.0891 -1.2557 -1.6307
  556MOL0     H75013   2.777   3.175   2.629  0.8882 -0.3261 -1.0699
  556MOL0     H75014   2.742   3.332   2.810 -1.4124  0.6714  2.2387
  556MOL0     H75015   2.880   3.261   2.895 -1.4735 -0.8820  0.6738
  556MOL0     H75016   2.674   3.174   3.004  1.2631  2.1793 -0.2870
  556MOL0     H75017   2.738   3.035   2.936 -2.5996 -1.0074  0.1597
  556MOL0     H75018   2.556   3.186   2.743 -2.2766  0.1163  0.4365
  556MOL0     H75019   2.493   3.107   2.889  2.5834 -0.0620  2.4858
  556MOL0     H75020   2.548   2.909   2.978  0.7397  1.1890 -1.5611
  556MOL0     H75021   2.384   2.595   3.094 -2.3274  2.2479  2.9525
  556MOL0     H75022   2.557   2.622   3.146  1.4754  2.2696 -1.9718
  556MOL0     H75023   2.428   2.748   3.145  4.0725  2.7560  0.3242
  556MOL0     H75024   2.534   2.159   2.726 -0.3227 -2.2588 -1.6037
  556MOL0     H75025   2.463   1.930   2.792 -0.0226 -0.4895 -1.5006
  556MOL0     H75026   2.307   1.750   2.781  0.6392  1.3162 -0.2601
  556MOL0     H75027   2.169   1.677   2.874 -1.7691  2.0785  1.1438
  556MOL0     H75028   2.031   1.867   2.770 -0.7779  2.3059 -2.6386
  556MOL0     H75029   2.166   1.895   2.656  0.4683 -0.6898 -0.1868
  556MOL0     H75030   2.050   1.608   2.694 -1.3345 -0.5504 -0.8314
  556MOL0     H75031   2.165   1.681   2.582  0.4448  2.6916  0.2774
  556MOL0     H75032   1.877   1.782   2.617  1.5591 -1.3646  2.4100
  556MOL0     H75033   2.001   1.820   2.494 -0.3824  0.9910  1.3110
  556MOL0     H75034   1.803   1.668   2.429  0.1738 -0.9276 -0.5234
  556MOL0     H75035   1.855   1.554   2.546 -0.9689  1.8289  1.8339
  556MOL0     H75036   2.049   1.645   2.328  3.0828 -0.0574  0.6832
  556MOL0     H75037   2.083   1.511   2.429 -1.8221 -1.8046  1.5926
  556MOL0     H75038   1.853   1.404   2.350 -0.8457  2.3395  0.3438
  556MOL0     H75039   1.996   1.390   2.254 -2.7787 -0.8182 -2.8860
  556MOL0     H75040   1.862   1.482   2.079  1.1711  0.9419  0.7578
  556MOL0     H75041   1.913   1.629   2.149  2.8208 -0.0198  0.5660
  556MOL0     H75042   2.072   2.104   2.891  0.6967 -2.0874  0.0325
  556MOL0     H75043   2.147   2.313   2.838 -1.3179 -1.1561  0.6138
  556MOL0     H75044   2.503   2.559   2.629 -2.6990  0.1717  0.2260
  556MOL0     H75045   2.537   2.801   2.565  0.7951  0.6250  0.6313
  556MOL0     H75046   2.549   1.843   3.403 -0.6466 -2.1629  1.1851
  556MOL0     H75047   2.356   1.688   3.383  2.2901  2.1429  1.9268
  556MOL0     H75048   2.066   1.489   3.054  1.6091  0.9757 -0.0957
  556MOL0     H75049   1.844   1.406   3.039  1.3108 -0.2465 -0.1862
  556MOL0     H75050   1.727   1.099   3.101 -0.1722 -2.1166  0.8936
  556MOL0     H75051   1.712   1.069   3.275 -1.2677  1.2400  0.9792
  556MOL0     H75052   1.464   1.153   3.241 -0.1776 -1.6909  0.9707
  556MOL0     H75053   1.500   1.003   3.170 -1.7997  0.2288  0.1313
  556MOL0     H75054   1.534   1.134   2.936  0.9788 -0.8799  0.5950
  556MOL0     H75055   1.498   1.284   3.040  3.4682 -0.4848  4.6762
  556MOL0     H75056   1.307   1.058   3.003  1.3246  0.0319 -1.3455
  556MOL0     H75057   1.317   1.183   2.880 -3.3340 -1.9241 -0.6086
  556MOL0     H75058   1.187   1.370   3.256  4.3231  0.2969  2.3301
  556MOL0     H75059   1.866   1.241   3.426  0.8668 -1.6171 -0.3621
  556MOL0     H75060   2.080   1.329   3.465 -2.2775  0.6385  0.1095
  557MOL0     O75061  11.430   5.472   5.143  0.2718  0.2249 -0.7890
  557MOL0     C75062  11.321   5.416   5.157 -0.7994  0.4874  0.2302
  557MOL0     O75063  11.295   5.296   5.231  0.1616 -0.4818  0.6249
  557MOL0     C75064  11.391   5.257   5.329 -0.3168 -0.0685  1.0702
  557MOL0     C75065  11.408   5.113   5.348 -0.7251 -0.2384  0.5154
  557MOL0     C75066  11.486   5.059   5.455 -0.0426  0.3566  0.5443
  557MOL0     C75067  11.553   5.141   5.548 -0.4963  0.1036  0.5608
  557MOL0     O75068  11.643   5.084   5.644 -0.3850  0.4912  0.6507
  557MOL0     C75069  11.651   4.942   5.682  0.5378  0.1619  0.3873
  557MOL0     C75070  11.547   4.910   5.790  0.4761 -0.1173 -0.1866
  557MOL0     C75071  11.611   4.865   5.926 -0.0077 -0.3503 -0.3792
  557MOL0     C75072  11.642   4.718   5.930  0.5837  0.3078  0.7317
  557MOL0     C75073  11.685   4.662   6.072  0.5534  0.4166  0.6331
  557MOL0     C75074  11.830   4.727   6.107 -0.4876  0.3364 -0.1580
  557MOL0     C75075  11.879   4.675   6.243 -0.2317  0.2626  0.5353
  557MOL0     C75076  11.889   4.526   6.259  0.9792 -0.0926 -0.6691
  557MOL0     N75077  12.000   4.474   6.176 -0.9765  0.7467 -0.2784
  557MOL0     C75078  12.132   4.522   6.182 -0.5449 -0.3055  0.2347
  557MOL0     C75079  12.193   4.454   6.089  0.0435 -0.0402 -0.1874
  557MOL0     C75080  12.342   4.431   6.063  0.5447  0.3129  0.3109
  557MOL0     C75081  12.440   4.547   6.097  0.8040  1.3006  0.3999
  557MOL0     C75082  12.395   4.688   6.046  0.2860 -0.5094  0.2344
  557MOL0     C75083  12.502   4.796   6.037 -0.0295 -0.0796  0.0971
  557MOL0     O75084  12.525   4.866   6.162  0.4497  0.2013  0.9486
  557MOL0     C75085  12.465   4.986   6.190  1.0784  0.5914  0.2831
  557MOL0     C75086  12.365   5.046   6.117  0.0945 -0.1419 -0.4913
  557MOL0     C75087  12.301   5.169   6.142 -0.3809 -0.2410 -0.7728
  557MOL0     C75088  12.191   5.210   6.042 -0.4094  0.3390  0.3101
  557MOL0     C75089  12.336   5.233   6.263 -0.0775 -0.0488 -0.0401
  557MOL0     C75090  12.270   5.356   6.308 -0.6461  0.0585 -1.0640
  557MOL0     O75091  12.364   5.427   6.397  1.0866  0.7302  0.0584
  557MOL0     C75092  12.335   5.541   6.462  1.1426  0.4883 -0.4158
  557MOL0     C75093  12.451   5.624   6.484  0.3274 -0.0348 -0.5056
  557MOL0     C75094  12.436   5.748   6.549 -0.2171 -0.9522 -0.7300
  557MOL0     C75095  12.313   5.791   6.596  0.2029  0.2338 -0.4601
  557MOL0     O75096  12.284   5.904   6.661  0.7529 -0.5712  0.5881
  557MOL0     C75097  12.318   6.019   6.591  0.4029 -0.2052 -0.3422
  557MOL0     C75098  12.434   6.106   6.649 -0.5050  0.7520  0.2345
  557MOL0     C75099  12.407   6.154   6.790  0.2386 -0.3077 -0.5046
  557MOL0     C75100  12.486   6.269   6.832 -0.4625 -0.8534 -0.4864
  557MOL0     C75101  12.645   6.256   6.814  0.8267 -0.0038 -0.4924
  557MOL0     C75102  12.704   6.367   6.889 -0.4661  0.7810 -0.1376
  557MOL0     C75103  12.852   6.336   6.912 -0.9002 -0.6863  1.1829
  557MOL0     C75104  12.923   6.458   6.977 -0.3331 -0.4010  0.4267
  557MOL0    Cl75105  13.060   6.397   7.065  0.3534 -0.0302 -0.2035
  557MOL0     C75106  12.206   5.703   6.575  0.4419 -0.1689 -0.3626
  557MOL0     C75107  12.210   5.589   6.501 -0.9417 -0.4172 -0.5183
  557MOL0     O75108  12.150   5.381   6.282 -1.0552  0.1595 -0.2468
  557MOL0     C75109  12.439   5.175   6.344  0.2374 -0.6809  1.2346
  557MOL0     C75110  12.510   5.058   6.297 -0.2242  0.0146  0.9701
  557MOL0     N75111  12.101   4.380   6.010 -0.2642 -0.3136 -0.8771
  557MOL0     N75112  11.984   4.399   6.065 -0.7809  0.7257 -0.2626
  557MOL0     C75113  11.540   5.281   5.522 -0.5112 -1.0389 -0.0784
  557MOL0     C75114  11.460   5.340   5.413 -0.3427 -1.0403 -0.1947
  557MOL0     C75115  11.200   5.477   5.085 -0.4922 -0.3989  0.9094
  557MOL0     C75116  11.078   5.422   5.093  0.7129  0.5827 -0.3169
  557MOL0     C75117  10.971   5.489   5.038  0.5479  0.2501 -0.8386
  557MOL0     C75118  10.985   5.605   4.953 -0.0896  0.7857  0.6268
  557MOL0     O75119  10.879   5.648   4.887 -0.5694 -0.2398  0.5034
  557MOL0     C75120  10.887   5.768   4.803 -0.0947 -0.4721 -0.2010
  557MOL0     C75121  10.737   5.783   4.772 -0.9713 -0.0840 -0.5161
  557MOL0     C75122  10.695   5.901   4.672  0.1090  0.6983  0.9102
  557MOL0     C75123  10.554   5.888   4.606  0.5482  0.5292  0.8957
  557MOL0     C75124  10.574   5.957   4.475  1.1047 -0.3327 -0.1759
  557MOL0     C75125  10.572   6.028   4.375 -0.2750  1.1421  0.7161
  557MOL0     C75126  11.110   5.659   4.951 -0.5336  0.0152 -0.5993
  557MOL0     C75127  11.217   5.601   5.018 -1.4592  0.5380 -0.4414
  557MOL0     H75128  11.341   5.041   5.302 -0.7091 -0.1690  0.3843
  557MOL0     H75129  11.490   4.952   5.469  0.3784  0.0981 -1.2154
  557MOL0     H75130  11.642   4.880   5.592 -0.5427  2.5639 -1.2854
  557MOL0     H75131  11.745   4.921   5.733 -0.1988 -0.3728  1.5634
  557MOL0     H75132  11.502   5.006   5.816  0.0253 -0.5438  0.6596
  557MOL0     H75133  11.466   4.843   5.760 -1.4350 -0.0577  4.0489
  557MOL0     H75134  11.700   4.927   5.945  0.8327 -0.9854 -2.0693
  557MOL0     H75135  11.539   4.889   6.004 -1.3637  0.7658 -1.9098
  557MOL0     H75136  11.551   4.671   5.892  0.0238  2.8415 -1.4176
  557MOL0     H75137  11.725   4.701   5.860  0.3098 -1.1651  0.7447
  557MOL0     H75138  11.605   4.674   6.146 -0.0779  0.5428 -0.0578
  557MOL0     H75139  11.685   4.553   6.057 -2.7796  0.4595 -0.4566
  557MOL0     H75140  11.901   4.697   6.030  0.3555 -1.9687  1.4187
  557MOL0     H75141  11.815   4.836   6.109 -0.6517  0.3116  0.1455
  557MOL0     H75142  11.977   4.718   6.268  0.4432 -1.0424  0.2357
  557MOL0     H75143  11.806   4.698   6.322 -1.1145  0.8781 -0.4379
  557MOL0     H75144  11.797   4.476   6.230  2.4910 -1.9173 -2.6544
  557MOL0     H75145  11.902   4.508   6.366  0.7076  2.4228 -0.1418
  557MOL0     H75146  12.172   4.589   6.258 -1.6280  0.8817 -0.2016
  557MOL0     H75147  12.378   4.340   6.111 -0.0907 -2.3550 -3.7222
  557MOL0     H75148  12.364   4.411   5.957  1.1174  3.1686 -0.1982
  557MOL0     H75149  12.541   4.522   6.063  0.2430  0.9480 -1.0929
  557MOL0     H75150  12.430   4.544   6.206 -2.3061  1.0384  0.1994
  557MOL0     H75151  12.317   4.733   6.108  1.7115  3.0507 -0.3282
  557MOL0     H75152  12.358   4.684   5.943  2.8188  3.1295 -1.0472
  557MOL0     H75153  12.463   4.863   5.959 -0.4887 -0.4073  0.0408
  557MOL0     H75154  12.599   4.756   6.006  0.4904  2.1349 -1.3586
  557MOL0     H75155  12.317   4.990   6.037  3.0679 -0.6308 -2.1052
  557MOL0     H75156  12.151   5.311   6.055  0.0183  0.6342 -0.5623
  557MOL0     H75157  12.222   5.185   5.940  0.9915  1.7919  0.3454
  557MOL0     H75158  12.100   5.153   6.062 -1.1426  1.3464 -0.0589
  557MOL0     H75159  12.548   5.586   6.453 -0.6948 -2.3059 -1.1110
  557MOL0     H75160  12.527   5.804   6.572 -0.0816 -1.3870 -0.1824
  557MOL0     H75161  12.348   5.994   6.489 -1.2134  2.4994 -1.5809
  557MOL0     H75162  12.227   6.078   6.578  0.1489 -0.7395 -1.0126
  557MOL0     H75163  12.528   6.049   6.640  0.4038  2.3459 -0.8625
  557MOL0     H75164  12.444   6.191   6.581 -0.9190 -0.3874 -1.3127
  557MOL0     H75165  12.439   6.072   6.855  1.5707  0.5662 -0.0346
  557MOL0     H75166  12.299   6.174   6.791  0.6495  2.3092 -0.5424
  557MOL0     H75167  12.458   6.356   6.771 -2.8333  1.0103  2.9657
  557MOL0     H75168  12.462   6.286   6.937 -1.9215 -2.6664 -0.4834
  557MOL0     H75169  12.681   6.268   6.711  2.6322 -1.9391 -0.1490
  557MOL0     H75170  12.682   6.159   6.848 -0.2584 -0.6709 -1.1193
  557MOL0     H75171  12.697   6.451   6.819  0.5246 -1.2039 -2.7498
  557MOL0     H75172  12.656   6.389   6.985 -2.6446 -0.8544 -0.7793
  557MOL0     H75173  12.900   6.334   6.813 -0.4715  0.9296  1.3197
  557MOL0     H75174  12.870   6.241   6.962  1.3175 -1.4990 -0.9344
  557MOL0     H75175  12.860   6.518   7.044  2.1054  2.1208  0.6272
  557MOL0     H75176  12.964   6.520   6.897 -1.7501  1.1323  0.8091
  557MOL0     H75177  12.108   5.734   6.608  0.3860 -0.5150 -0.2028
  557MOL0     H75178  12.118   5.532   6.490 -1.2010 -0.3752  1.1143
  557MOL0     H75179  12.462   5.231   6.434 -1.4853  3.2070 -0.5133
  557MOL0     H75180  12.597   5.022   6.351  0.5280  0.2639 -0.0414
  557MOL0     H75181  11.597   5.345   5.587 -0.8520  0.7901 -1.5089
  557MOL0     H75182  11.473   5.447   5.406 -0.6724 -0.8383  1.7816
  557MOL0     H75183  11.057   5.345   5.167  0.4168  1.9718  1.1090
  557MOL0     H75184  10.874   5.450   5.068 -1.1814  0.9590 -4.8555
  557MOL0     H75185  10.940   5.841   4.865 -0.3422 -0.7313  0.3182
  557MOL0     H75186  10.940   5.751   4.709 -0.1311 -0.3969 -0.2358
  557MOL0     H75187  10.695   5.793   4.872 -0.6772  1.3550 -0.5175
  557MOL0     H75188  10.699   5.686   4.739 -2.9266 -0.5196  2.6081
  557MOL0     H75189  10.771   5.902   4.593 -2.5613  1.4761 -1.8586
  557MOL0     H75190  10.706   5.996   4.725  1.7912  1.0258  0.0660
  557MOL0     H75191  10.472   5.929   4.665 -0.7276  2.2622 -1.8905
  557MOL0     H75192  10.532   5.781   4.597  1.5231  0.3476  0.5303
  557MOL0     H75193  10.553   6.085   4.286 -1.4276 -0.3394 -0.0188
  557MOL0     H75194  11.127   5.758   4.909  1.0427  0.0431  0.0211
  557MOL0     H75195  11.314   5.646   5.033 -1.5620  0.5328  0.2778
  558MOL0     O75196   6.025   8.113   8.522  0.5373 -0.0707 -0.1643
  558MOL0     C75197   5.943   8.148   8.440  0.1526 -0.0780 -0.6521
  558MOL0     O75198   5.973   8.206   8.316 -0.2412  1.0488 -0.6104
  558MOL0     C75199   6.099   8.242   8.271  0.6766 -1.0485 -0.0880
  558MOL0     C75200   6.158   8.346   8.336 -0.6985 -0.0913 -0.5493
  558MOL0     C75201   6.278   8.412   8.286 -0.0803 -0.0068  0.2117
  558MOL0     C75202   6.339   8.365   8.169  0.4089 -1.0044 -0.6817
  558MOL0     O75203   6.443   8.432   8.119 -0.3886 -0.3763  0.5796
  558MOL0     C75204   6.566   8.406   8.186  1.4980 -0.0694  0.1147
  558MOL0     C75205   6.655   8.527   8.188 -0.8655  0.3789  0.2260
  558MOL0     C75206   6.797   8.485   8.233 -0.2498  0.0023 -0.3618
  558MOL0     C75207   6.897   8.452   8.118 -0.0766 -0.1691  0.0934
  558MOL0     C75208   7.026   8.403   8.161  0.3685  0.0520 -0.2046
  558MOL0     C75209   7.025   8.263   8.225  0.1276 -0.2136 -0.4577
  558MOL0     C75210   7.164   8.199   8.232  1.9434  0.0409  0.0573
  558MOL0     C75211   7.229   8.145   8.108  0.0603 -0.5004  0.0213
  558MOL0     N75212   7.190   8.004   8.098 -0.0568  0.5623 -0.1445
  558MOL0     C75213   7.205   7.908   8.194  0.4948 -0.6221 -0.2595
  558MOL0     C75214   7.144   7.798   8.147 -0.8610  0.4732  0.3710
  558MOL0     C75215   7.143   7.665   8.218 -0.5631  0.2254 -0.4786
  558MOL0     C75216   7.000   7.594   8.204 -0.3354 -0.3700 -0.7384
  558MOL0     C75217   6.986   7.450   8.250 -0.0106 -0.6808  0.3177
  558MOL0     C75218   7.072   7.336   8.203  0.0176 -0.0189  0.9223
  558MOL0     O75219   7.019   7.217   8.260  0.0208 -0.2684  0.2401
  558MOL0     C75220   7.099   7.102   8.256  0.8291 -0.1915  0.0867
  558MOL0     C75221   7.053   7.009   8.343 -0.0239  1.2745 -0.0173
  558MOL0     C75222   7.119   6.877   8.347  0.6680 -0.9927 -0.0952
  558MOL0     C75223   7.050   6.772   8.425 -0.1961 -0.0792 -0.0086
  558MOL0     C75224   7.235   6.858   8.266  0.7991  0.3109 -0.8287
  558MOL0     C75225   7.316   6.726   8.264  0.8467 -1.0881  0.6908
  558MOL0     O75226   7.382   6.695   8.148  0.1615 -0.0049  0.6524
  558MOL0     C75227   7.476   6.588   8.144  0.4268  0.5735  0.4249
  558MOL0     C75228   7.446   6.455   8.191  0.3153 -0.3537  0.6620
  558MOL0     C75229   7.528   6.339   8.186  0.1879  0.6026 -0.2704
  558MOL0     C75230   7.655   6.362   8.122 -0.3554  0.0093 -0.9890
  558MOL0     O75231   7.755   6.273   8.108  0.3745  0.1071 -0.3985
  558MOL0     C75232   7.710   6.137   8.111 -0.8365  0.0708 -0.4503
  558MOL0     C75233   7.800   6.052   8.024 -0.1669  1.3307 -0.0804
  558MOL0     C75234   7.762   5.904   8.014 -0.5443 -1.0269 -0.0327
  558MOL0     C75235   7.868   5.834   7.924 -0.0153 -0.3514 -0.3836
  558MOL0     C75236   7.833   5.681   7.925 -1.4882 -0.3576  0.1389
  558MOL0     C75237   7.944   5.602   7.854  0.1130  0.0088  0.5977
  558MOL0     C75238   8.097   5.640   7.861  0.7470  0.0475 -1.2589
  558MOL0     C75239   8.166   5.605   7.991  0.0720 -0.8929 -1.0255
  558MOL0    Cl75240   8.200   5.435   8.001  0.1698  0.6111  0.6255
  558MOL0     C75241   7.694   6.499   8.077  0.0298 -0.1443 -0.0201
  558MOL0     C75242   7.606   6.611   8.085  0.9726 -0.0011  0.4409
  558MOL0     O75243   7.330   6.663   8.365 -0.0442  0.0285 -0.0598
  558MOL0     C75244   7.260   6.955   8.172 -0.4972  0.6145  0.3504
  558MOL0     C75245   7.191   7.073   8.165  0.3572  0.4686 -0.6968
  558MOL0     N75246   7.099   7.831   8.021 -0.4898  0.2986 -0.1049
  558MOL0     N75247   7.132   7.953   7.987 -0.4398 -0.7672 -0.0448
  558MOL0     C75248   6.280   8.256   8.102 -0.6080  0.1333 -0.7692
  558MOL0     C75249   6.160   8.191   8.155  0.9199 -0.6147 -0.5400
  558MOL0     C75250   5.807   8.108   8.467 -0.5966  0.7872 -0.7685
  558MOL0     C75251   5.769   8.016   8.568 -0.3415 -0.0880 -0.8477
  558MOL0     C75252   5.630   7.996   8.594  0.3390  0.0362 -0.6354
  558MOL0     C75253   5.535   8.042   8.509 -0.3601  0.4246 -0.4133
  558MOL0     O75254   5.412   7.994   8.535  0.6984 -0.2297  0.6599
  558MOL0     C75255   5.306   8.028   8.445  0.0736 -0.0621 -0.1582
  558MOL0     C75256   5.210   7.910   8.436  0.1473  0.4832 -0.1455
  558MOL0     C75257   5.084   7.933   8.358 -0.0382 -0.1345  0.4871
  558MOL0     C75258   5.022   8.073   8.353  0.0353 -0.5355  0.7029
  558MOL0     C75259   4.896   8.077   8.289  0.0655 -0.1522 -0.1527
  558MOL0     C75260   4.790   8.061   8.238  0.7068 -0.1612  0.2687
  558MOL0     C75261   5.575   8.135   8.412  0.0930 -0.6991  0.2840
  558MOL0     C75262   5.704   8.161   8.386 -1.0557 -0.2487 -0.4850
  558MOL0     H75263   6.105   8.406   8.409  0.3393  1.1736 -0.7946
  558MOL0     H75264   6.314   8.506   8.325  1.0777 -0.5823  0.5659
  558MOL0     H75265   6.555   8.369   8.289 -0.4649 -0.7714 -0.2963
  558MOL0     H75266   6.613   8.327   8.127 -0.2775 -0.3315 -1.0136
  558MOL0     H75267   6.648   8.575   8.090 -0.7958  2.4387  1.1849
  558MOL0     H75268   6.617   8.593   8.266  0.2785  0.7492  0.4754
  558MOL0     H75269   6.836   8.557   8.306 -3.9048  1.1633  0.6729
  558MOL0     H75270   6.787   8.394   8.294  2.2671  0.0171  0.1796
  558MOL0     H75271   6.854   8.380   8.047  2.5112 -3.0608  1.2132
  558MOL0     H75272   6.928   8.550   8.081  2.5309 -0.4790  1.1929
  558MOL0     H75273   7.086   8.388   8.071  0.2558 -1.3401 -0.0828
  558MOL0     H75274   7.074   8.480   8.222  0.2488  0.4210 -0.5789
  558MOL0     H75275   6.969   8.259   8.319 -0.2536 -0.1535 -0.6777
  558MOL0     H75276   6.960   8.202   8.161 -0.9739 -0.2922  0.7043
  558MOL0     H75277   7.232   8.276   8.271 -1.0171  2.3702  0.9983
  558MOL0     H75278   7.167   8.133   8.319  1.5961 -0.0432  0.0046
  558MOL0     H75279   7.337   8.134   8.125  0.0590 -1.6389 -0.6263
  558MOL0     H75280   7.205   8.204   8.020 -2.5316 -2.6402 -0.8439
  558MOL0     H75281   7.240   7.927   8.295 -0.0789  1.3659 -0.3731
  558MOL0     H75282   7.203   7.588   8.169 -2.8404 -1.6709 -0.4845
  558MOL0     H75283   7.169   7.666   8.324 -0.0014 -0.7342 -0.5970
  558MOL0     H75284   6.966   7.593   8.100 -1.2520  4.8645 -0.7708
  558MOL0     H75285   6.927   7.660   8.252  0.7913  0.2875  0.1130
  558MOL0     H75286   6.882   7.430   8.223 -0.5239  0.6768  1.1940
  558MOL0     H75287   6.986   7.447   8.359  1.4267 -2.2234  0.3010
  558MOL0     H75288   7.179   7.353   8.219  0.0627  0.4970  0.1586
  558MOL0     H75289   7.056   7.349   8.095  2.3176  1.7178  0.6989
  558MOL0     H75290   6.964   7.013   8.405  0.9987 -2.0059  1.9393
  558MOL0     H75291   6.966   6.812   8.482  0.2467 -0.6840  1.0977
  558MOL0     H75292   7.017   6.698   8.352  0.5842  0.6312 -1.1358
  558MOL0     H75293   7.116   6.721   8.496 -2.7996  0.1753  2.7588
  558MOL0     H75294   7.349   6.438   8.236  0.4201 -3.3426 -0.0506
  558MOL0     H75295   7.505   6.243   8.231 -1.1148 -0.9342 -3.8284
  558MOL0     H75296   7.702   6.099   8.214 -0.8051 -1.4162 -0.9751
  558MOL0     H75297   7.610   6.123   8.069 -0.3245 -0.3867 -1.5411
  558MOL0     H75298   7.798   6.089   7.922  1.4255 -1.1621 -1.1135
  558MOL0     H75299   7.906   6.059   8.052 -0.0509 -0.7580  0.1990
  558MOL0     H75300   7.663   5.896   7.968  0.5605 -3.0046 -2.2766
  558MOL0     H75301   7.766   5.862   8.115  1.9750 -0.0676  0.3330
  558MOL0     H75302   7.848   5.883   7.829 -4.0139  0.9686  0.9223
  558MOL0     H75303   7.969   5.864   7.957 -1.2088  1.9691  1.5032
  558MOL0     H75304   7.744   5.661   7.865  0.9152 -0.5493 -3.7128
  558MOL0     H75305   7.811   5.654   8.029  2.2462 -0.2243  1.0897
  558MOL0     H75306   7.929   5.498   7.885  2.7454 -0.5440  0.2516
  558MOL0     H75307   7.920   5.617   7.748  0.2775 -2.7948  0.0850
  558MOL0     H75308   8.113   5.745   7.836 -0.2772  0.0888 -1.7747
  558MOL0     H75309   8.146   5.583   7.782 -1.4028 -0.9337 -1.9521
  558MOL0     H75310   8.099   5.632   8.074  4.3045  2.5974  1.7108
  558MOL0     H75311   8.257   5.666   7.997 -0.9526  0.6332  3.2373
  558MOL0     H75312   7.794   6.510   8.038 -0.4988 -0.3040 -1.4947
  558MOL0     H75313   7.640   6.712   8.064  2.5533 -0.0134  2.6049
  558MOL0     H75314   7.335   6.938   8.095  0.2129  0.7792  0.9901
  558MOL0     H75315   7.219   7.149   8.093  0.8734  1.2546  0.3068
  558MOL0     H75316   6.318   8.219   8.007  1.6422 -1.0112  0.5002
  558MOL0     H75317   6.116   8.109   8.099 -2.0349 -0.4768  1.3276
  558MOL0     H75318   5.843   7.972   8.634 -0.8085  1.6436  0.9555
  558MOL0     H75319   5.585   7.939   8.675  0.8973 -0.8333 -0.9234
  558MOL0     H75320   5.257   8.122   8.470 -2.3705 -1.3903  0.2679
  558MOL0     H75321   5.348   8.020   8.344 -1.3290 -0.9823 -0.6890
  558MOL0     H75322   5.184   7.896   8.542 -1.6051 -0.3657 -0.6496
  558MOL0     H75323   5.264   7.823   8.397 -2.4392 -1.8073  1.0650
  558MOL0     H75324   5.018   7.859   8.404 -2.2332  0.8487 -0.8905
  558MOL0     H75325   5.088   7.903   8.253 -0.4862  2.4076 -0.3358
  558MOL0     H75326   5.088   8.134   8.290 -0.4747 -0.9863 -0.3025
  558MOL0     H75327   5.020   8.118   8.452  2.5973 -1.7193  1.3910
  558MOL0     H75328   4.701   8.045   8.181 -1.2616  0.3951  2.9690
  558MOL0     H75329   5.496   8.189   8.360  0.3389 -1.3228 -0.7701
  558MOL0     H75330   5.727   8.233   8.308 -1.7774  1.6718  1.0013
  559MOL0     O75331   5.869   8.281   4.986  0.2630  0.0358  0.0592
  559MOL0     C75332   5.746   8.297   4.980  0.2801 -0.0863  0.3559
  559MOL0     O75333   5.669   8.343   5.081  0.6511 -0.4228  0.0814
  559MOL0     C75334   5.732   8.414   5.178 -0.5634 -0.2641 -0.6042
  559MOL0     C75335   5.659   8.519   5.216  0.0171  0.5103 -0.2840
  559MOL0     C75336   5.708   8.607   5.308  0.1280 -0.0416 -1.1994
  559MOL0     C75337   5.825   8.576   5.389 -0.9079 -0.3509 -0.3709
  559MOL0     O75338   5.866   8.653   5.494  0.0274 -0.2742  0.9384
  559MOL0     C75339   5.855   8.796   5.483  0.4045 -0.3142  1.5373
  559MOL0     C75340   5.936   8.858   5.584  0.4232 -0.9420  0.5472
  559MOL0     C75341   5.957   9.013   5.563  0.3528 -0.4782 -0.6605
  559MOL0     C75342   5.833   9.083   5.505  1.0633  0.7566 -0.6868
  559MOL0     C75343   5.852   9.232   5.465 -0.4042  0.5558  0.1837
  559MOL0     C75344   5.854   9.309   5.587  0.6532 -0.5829 -0.9556
  559MOL0     C75345   5.856   9.458   5.546  0.6391 -0.4436 -0.1915
  559MOL0     C75346   5.891   9.547   5.663  0.1281 -0.0113  0.0203
  559MOL0     N75347   6.035   9.548   5.695 -0.4509 -0.3102 -0.3997
  559MOL0     C75348   6.138   9.585   5.608  0.0487 -0.2966 -0.2263
  559MOL0     C75349   6.257   9.558   5.669 -0.1534  0.0056 -1.0639
  559MOL0     C75350   6.390   9.567   5.616 -0.3858  0.5400  0.7164
  559MOL0     C75351   6.486   9.638   5.716 -0.9951 -0.3562 -0.1585
  559MOL0     C75352   6.640   9.643   5.686 -0.2578 -0.0078  0.4537
  559MOL0     C75353   6.704   9.501   5.658  0.1793 -0.6878  0.4904
  559MOL0     O75354   6.682   9.408   5.768  0.4060 -0.0133 -0.2830
  559MOL0     C75355   6.735   9.437   5.893  0.1082 -0.2054 -0.0955
  559MOL0     C75356   6.854   9.506   5.915  0.0085 -1.6749 -0.4844
  559MOL0     C75357   6.926   9.515   6.039 -0.3057 -0.9599  0.5605
  559MOL0     C75358   7.052   9.608   6.050 -0.3096 -0.4172 -1.2440
  559MOL0     C75359   6.857   9.464   6.154 -0.0772  0.1441  0.5251
  559MOL0     C75360   6.902   9.472   6.300 -0.2798  0.0032 -0.6698
  559MOL0     O75361   6.824   9.411   6.388 -0.5196 -0.4126 -1.0364
  559MOL0     C75362   6.861   9.387   6.517 -0.8290  0.5862  0.7655
  559MOL0     C75363   6.781   9.441   6.617  0.5020 -0.2573  0.3572
  559MOL0     C75364   6.806   9.425   6.750  0.1497 -0.2351 -1.0056
  559MOL0     C75365   6.907   9.340   6.793  0.2837 -0.2729  0.0151
  559MOL0     O75366   6.930   9.327   6.926  0.0569  0.3132 -0.5021
  559MOL0     C75367   6.961   9.442   7.006 -0.4294 -0.6003 -0.2869
  559MOL0     C75368   6.940   9.426   7.160 -0.1886 -0.6101 -0.6994
  559MOL0     C75369   7.010   9.542   7.236  0.6962 -0.0726 -0.0062
  559MOL0     C75370   6.997   9.498   7.388 -0.2654  0.7857 -0.1176
  559MOL0     C75371   7.053   9.608   7.488  0.6625 -0.3799  1.5436
  559MOL0     C75372   7.079   9.562   7.623  0.4840 -0.1142 -0.4126
  559MOL0     C75373   7.106   9.677   7.722 -0.7721  0.3655 -0.2289
  559MOL0     C75374   7.183   9.614   7.845 -0.1367 -0.2748  0.4056
  559MOL0    Cl75375   7.179   9.715   7.989 -0.0848 -0.3800 -0.3538
  559MOL0     C75376   6.995   9.292   6.696  0.6199  0.3130 -0.4554
  559MOL0     C75377   6.975   9.312   6.555  0.0257 -0.1521  0.2350
  559MOL0     O75378   7.010   9.527   6.331  0.3061  0.1405  0.4153
  559MOL0     C75379   6.730   9.396   6.129  0.3503 -0.3312 -0.2919
  559MOL0     C75380   6.671   9.388   6.001 -0.0528  0.8758  0.0210
  559MOL0     N75381   6.219   9.506   5.800 -0.5987  0.0247 -0.2043
  559MOL0     N75382   6.092   9.521   5.811 -0.1707 -0.7648  0.7933
  559MOL0     C75383   5.884   8.454   5.359 -0.0273  0.1437 -0.3167
  559MOL0     C75384   5.845   8.380   5.247 -0.3272  0.1409  0.2873
  559MOL0     C75385   5.670   8.251   4.861 -0.3676  0.6330 -0.2654
  559MOL0     C75386   5.533   8.254   4.852 -0.3852  0.0823  0.1847
  559MOL0     C75387   5.469   8.195   4.745 -0.8750  0.0514 -0.2938
  559MOL0     C75388   5.541   8.130   4.641  0.5031  0.1623 -0.1758
  559MOL0     O75389   5.469   8.060   4.543 -0.4654  0.2603 -1.2536
  559MOL0     C75390   5.543   7.982   4.444  0.3591 -0.1153  0.5086
  559MOL0     C75391   5.451   7.881   4.387  1.2169 -0.6689  0.3122
  559MOL0     C75392   5.490   7.778   4.276 -0.3751  0.8140  0.2994
  559MOL0     C75393   5.387   7.694   4.202 -0.0191 -0.9304 -0.0049
  559MOL0     C75394   5.336   7.585   4.288 -0.0515  0.2498  0.9133
  559MOL0     C75395   5.292   7.478   4.330  0.4551  0.6509 -0.2237
  559MOL0     C75396   5.683   8.125   4.652  0.4637 -0.2656  0.1206
  559MOL0     C75397   5.744   8.187   4.762  0.0491  0.5486  0.1756
  559MOL0     H75398   5.570   8.549   5.161  1.0906  1.5896 -1.5067
  559MOL0     H75399   5.650   8.693   5.340 -3.9197 -3.3683  1.4755
  559MOL0     H75400   5.889   8.817   5.380 -2.8383  1.1333  0.6484
  559MOL0     H75401   5.751   8.829   5.480  0.4159 -0.3221 -0.0197
  559MOL0     H75402   5.874   8.847   5.674  0.7844 -2.7307  0.6037
  559MOL0     H75403   6.040   8.828   5.593  0.9690  0.2882 -1.1015
  559MOL0     H75404   5.973   9.045   5.666 -1.0990 -2.2609  0.1779
  559MOL0     H75405   6.047   9.023   5.502 -1.0571 -1.3242 -3.0613
  559MOL0     H75406   5.793   9.032   5.417  0.1997 -1.3665  0.8606
  559MOL0     H75407   5.758   9.063   5.582  0.5755 -1.0274 -1.5624
  559MOL0     H75408   5.943   9.240   5.404  1.3688 -0.4241  2.5631
  559MOL0     H75409   5.762   9.249   5.404 -0.6730 -2.1251 -0.2968
  559MOL0     H75410   5.773   9.281   5.654  0.5400  2.3365  0.2988
  559MOL0     H75411   5.946   9.280   5.639  1.0004  1.4065 -0.3706
  559MOL0     H75412   5.924   9.476   5.462  3.2180  2.8120  2.3459
  559MOL0     H75413   5.756   9.480   5.506  1.2480 -2.7426 -3.4282
  559MOL0     H75414   5.833   9.531   5.754 -2.4303  2.3136 -1.0575
  559MOL0     H75415   5.856   9.645   5.630 -0.0573  0.9543  2.8477
  559MOL0     H75416   6.129   9.612   5.503  1.7401  0.5662 -0.1747
  559MOL0     H75417   6.425   9.465   5.597  0.3738  0.7442  1.0007
  559MOL0     H75418   6.378   9.606   5.515 -2.3146 -3.3170 -0.7415
  559MOL0     H75419   6.470   9.605   5.819  1.9212  0.4647  0.6572
  559MOL0     H75420   6.456   9.743   5.718 -0.2533 -0.1259 -0.9184
  559MOL0     H75421   6.687   9.708   5.761  0.2945  0.8360 -0.5855
  559MOL0     H75422   6.641   9.695   5.590  1.1165 -3.8159 -1.7938
  559MOL0     H75423   6.809   9.527   5.643 -0.4658  3.1872  1.5512
  559MOL0     H75424   6.656   9.463   5.567 -1.1960  2.8399 -0.4254
  559MOL0     H75425   6.914   9.553   5.838 -0.1755  1.1863  1.0062
  559MOL0     H75426   7.095   9.616   6.150 -3.0121 -0.9211  0.0523
  559MOL0     H75427   7.136   9.572   5.990  1.3650  1.5565 -0.1982
  559MOL0     H75428   7.027   9.713   6.030 -1.4636 -0.2819  0.6964
  559MOL0     H75429   6.707   9.514   6.584  1.6285  1.7703  2.0541
  559MOL0     H75430   6.736   9.475   6.817 -1.9770  0.3746 -3.5376
  559MOL0     H75431   7.066   9.469   6.989 -1.0167  1.8163 -0.3207
  559MOL0     H75432   6.904   9.531   6.980  0.5022  0.5547  1.3858
  559MOL0     H75433   6.833   9.429   7.181  0.1164 -0.5694  1.0489
  559MOL0     H75434   6.973   9.326   7.191 -1.1063 -0.6342  0.2844
  559MOL0     H75435   6.955   9.633   7.214  0.1485 -0.4179 -0.0780
  559MOL0     H75436   7.112   9.546   7.196 -0.5331  0.1866 -3.5034
  559MOL0     H75437   6.893   9.480   7.415 -0.4133  0.2511 -1.0322
  559MOL0     H75438   7.044   9.400   7.394  2.3096  1.8343 -1.3555
  559MOL0     H75439   6.973   9.683   7.491  2.6131  2.0583 -1.3076
  559MOL0     H75440   7.146   9.650   7.448  0.4192 -1.4442 -0.2733
  559MOL0     H75441   6.992   9.506   7.656  2.3068 -0.4757  4.5595
  559MOL0     H75442   7.164   9.493   7.620  0.3562 -0.2933  0.0969
  559MOL0     H75443   7.015   9.704   7.777 -2.3028 -5.2186  0.6172
  559MOL0     H75444   7.151   9.760   7.668 -0.2438  0.3775  0.2144
  559MOL0     H75445   7.288   9.610   7.816  0.5114 -2.1446  2.6998
  559MOL0     H75446   7.149   9.513   7.868 -2.9550  1.0412  2.7396
  559MOL0     H75447   7.085   9.244   6.733  0.9944  1.3617  0.0190
  559MOL0     H75448   7.040   9.264   6.483  0.1404 -0.1254  0.3178
  559MOL0     H75449   6.678   9.347   6.211  0.9270  0.6799  0.6978
  559MOL0     H75450   6.583   9.327   5.984  1.6271 -2.5247  2.3356
  559MOL0     H75451   5.971   8.420   5.414 -0.9849  2.3025  2.7977
  559MOL0     H75452   5.897   8.288   5.222 -1.9538 -0.8661  0.4871
  559MOL0     H75453   5.482   8.319   4.922 -0.2329  2.1035 -1.4718
  559MOL0     H75454   5.364   8.220   4.741 -1.2211 -0.4535  2.7990
  559MOL0     H75455   5.581   8.047   4.365 -5.0051  1.4161 -1.2961
  559MOL0     H75456   5.625   7.925   4.488 -0.8386  0.2600  3.4814
  559MOL0     H75457   5.362   7.932   4.350  2.0619 -1.1195 -2.5485
  559MOL0     H75458   5.430   7.810   4.468  1.7954 -1.7537 -0.4646
  559MOL0     H75459   5.570   7.712   4.313 -1.6734 -2.2693 -1.9723
  559MOL0     H75460   5.545   7.833   4.199 -1.2672 -2.4360 -2.9297
  559MOL0     H75461   5.437   7.653   4.114  1.8704  0.1157  0.5090
  559MOL0     H75462   5.310   7.760   4.161  0.2989  1.0279  2.2842
  559MOL0     H75463   5.262   7.378   4.355  0.1636  0.7047 -0.3525
  559MOL0     H75464   5.750   8.072   4.586  2.8026 -1.7789  3.4645
  559MOL0     H75465   5.852   8.201   4.763  0.3461 -1.4549  1.6600
  560MOL0     O75466   6.268   5.585   7.793 -0.2232  0.1949  0.5089
  560MOL0     C75467   6.336   5.488   7.753 -0.3966 -0.1173 -0.5514
  560MOL0     O75468   6.323   5.424   7.633 -0.0750  0.1978 -0.6983
  560MOL0     C75469   6.217   5.436   7.553  0.4116  0.5220  0.6284
  560MOL0     C75470   6.154   5.563   7.535 -0.3395 -0.6802 -0.2649
  560MOL0     C75471   6.048   5.573   7.446  0.2597 -0.0604  0.3735
  560MOL0     C75472   6.002   5.464   7.369 -1.0352 -0.7427  0.0215
  560MOL0     O75473   5.895   5.486   7.286  0.1768 -1.1310 -0.2336
  560MOL0     C75474   5.841   5.395   7.192  0.5444 -0.1596 -0.9089
  560MOL0     C75475   5.760   5.459   7.076  0.0495  0.0224 -1.0116
  560MOL0     C75476   5.632   5.519   7.134  0.5799  0.8566 -0.3000
  560MOL0     C75477   5.533   5.582   7.037  0.5729 -0.6392  0.5009
  560MOL0     C75478   5.428   5.660   7.119  0.5520  0.2284  0.2117
  560MOL0     C75479   5.326   5.555   7.177  0.1667 -0.8558 -0.5442
  560MOL0     C75480   5.208   5.613   7.262 -0.3445  0.1648  0.7232
  560MOL0     C75481   5.238   5.732   7.362 -0.0368  0.2979  0.0308
  560MOL0     N75482   5.326   5.680   7.464 -0.4601  0.0559 -0.7265
  560MOL0     C75483   5.458   5.690   7.478  0.1795  0.0194 -0.4593
  560MOL0     C75484   5.493   5.614   7.595 -0.4940 -0.4547  0.4629
  560MOL0     C75485   5.626   5.577   7.653 -0.2393 -0.1050  0.3286
  560MOL0     C75486   5.673   5.685   7.753  0.5133 -0.6614 -0.1429
  560MOL0     C75487   5.576   5.708   7.876  0.0182  0.2344  0.4158
  560MOL0     C75488   5.599   5.847   7.930  0.8857 -0.5980 -1.0308
  560MOL0     O75489   5.480   5.885   8.012 -0.6651 -0.7844  0.0978
  560MOL0     C75490   5.484   6.009   8.066 -0.2000  0.0861  0.4492
  560MOL0     C75491   5.551   6.116   8.009 -0.4216 -0.1773  0.6086
  560MOL0     C75492   5.547   6.247   8.062 -0.3597 -0.8219 -0.0748
  560MOL0     C75493   5.618   6.354   7.982 -0.3271  0.9353  0.0942
  560MOL0     C75494   5.485   6.268   8.189  0.1745 -1.2582 -0.3413
  560MOL0     C75495   5.475   6.398   8.256  0.3662  0.9889  0.0542
  560MOL0     O75496   5.392   6.395   8.360  0.4566  0.8971 -1.3663
  560MOL0     C75497   5.336   6.511   8.407 -0.1146 -0.5013  1.0433
  560MOL0     C75498   5.390   6.596   8.505 -0.1254  0.0745 -0.2304
  560MOL0     C75499   5.320   6.705   8.549  0.4582  0.2852  0.0230
  560MOL0     C75500   5.198   6.746   8.498 -0.3369 -0.6381  0.6035
  560MOL0     O75501   5.132   6.856   8.543 -0.5074 -0.2147 -0.7882
  560MOL0     C75502   5.051   6.842   8.662 -0.4848  0.1961 -0.5744
  560MOL0     C75503   4.989   6.971   8.708 -0.5932  0.3806  0.2264
  560MOL0     C75504   4.904   6.955   8.831  0.4584 -0.7002  0.3247
  560MOL0     C75505   4.820   7.080   8.841 -0.2141 -0.4848  0.4346
  560MOL0     C75506   4.724   7.078   8.958  0.7358  0.4348 -0.0831
  560MOL0     C75507   4.640   7.204   8.970 -0.1662 -0.0205  1.0419
  560MOL0     C75508   4.566   7.216   9.106  0.2765 -0.5906  0.7219
  560MOL0     C75509   4.451   7.317   9.115 -0.6520 -0.3298  0.3367
  560MOL0    Cl75510   4.324   7.285   8.999  0.4287  0.1877  0.0776
  560MOL0     C75511   5.147   6.663   8.400 -0.4588 -0.0237  0.0702
  560MOL0     C75512   5.211   6.544   8.358 -0.8223  0.5529  0.1041
  560MOL0     O75513   5.522   6.499   8.209 -0.3602 -0.1294  0.4070
  560MOL0     C75514   5.425   6.157   8.248  0.2661  0.6154  0.6092
  560MOL0     C75515   5.428   6.028   8.186  0.5138 -0.6108  0.1122
  560MOL0     N75516   5.367   5.574   7.641  0.5360  1.0133 -0.0997
  560MOL0     N75517   5.280   5.601   7.554 -0.0118 -0.2280 -0.9112
  560MOL0     C75518   6.061   5.338   7.394 -0.7030 -1.1792  0.6887
  560MOL0     C75519   6.162   5.321   7.484  0.5329  0.0898  0.3774
  560MOL0     C75520   6.461   5.466   7.828 -0.6376  0.4838  0.0779
  560MOL0     C75521   6.500   5.554   7.924  0.1026 -0.4064  0.7424
  560MOL0     C75522   6.628   5.534   7.991  1.3049  0.3417  1.1109
  560MOL0     C75523   6.712   5.433   7.961 -0.1857  0.5122 -0.0134
  560MOL0     O75524   6.841   5.414   8.011 -0.2315 -0.0635 -0.5593
  560MOL0     C75525   6.864   5.452   8.148 -0.4228 -0.3682  0.3332
  560MOL0     C75526   7.015   5.448   8.186 -0.0317  0.4346  0.4367
  560MOL0     C75527   7.102   5.560   8.127  0.3578  0.1338 -0.8401
  560MOL0     C75528   7.257   5.530   8.152 -0.2569  0.3233 -0.0396
  560MOL0     C75529   7.345   5.635   8.081 -0.3329  0.4552  0.9027
  560MOL0     C75530   7.401   5.720   8.026 -0.2941  0.4333 -0.0543
  560MOL0     C75531   6.668   5.339   7.863 -0.3322 -0.1682 -0.3420
  560MOL0     C75532   6.546   5.358   7.798 -0.0189 -0.5977  0.2593
  560MOL0     H75533   6.191   5.653   7.583  0.2761 -1.0956  0.0539
  560MOL0     H75534   5.996   5.665   7.423 -0.9064 -1.3321 -2.4895
  560MOL0     H75535   5.921   5.331   7.156  2.6444  0.0288  2.8616
  560MOL0     H75536   5.774   5.332   7.251  1.5233 -0.6520 -0.2902
  560MOL0     H75537   5.823   5.538   7.034  4.3033 -1.0093  2.6808
  560MOL0     H75538   5.725   5.379   7.011 -0.0364  1.2636 -2.5444
  560MOL0     H75539   5.576   5.436   7.178  3.2725 -0.6892  0.4909
  560MOL0     H75540   5.655   5.584   7.219 -2.5261 -0.6674  1.9112
  560MOL0     H75541   5.592   5.660   6.989 -0.4459 -0.6486 -0.8266
  560MOL0     H75542   5.495   5.518   6.956  0.6842 -0.2496  0.1393
  560MOL0     H75543   5.481   5.708   7.202  0.8416  1.9258 -0.8989
  560MOL0     H75544   5.372   5.737   7.063  1.3058 -0.2812 -1.2993
  560MOL0     H75545   5.290   5.486   7.100  2.4603 -2.2849 -0.4541
  560MOL0     H75546   5.374   5.497   7.256  0.0219  0.1691  0.3105
  560MOL0     H75547   5.142   5.655   7.185 -0.0261  2.3460  1.5850
  560MOL0     H75548   5.139   5.536   7.298 -0.0440 -0.2769  0.3651
  560MOL0     H75549   5.151   5.768   7.418  0.5407  4.6515 -1.4729
  560MOL0     H75550   5.266   5.819   7.303  0.7395  0.0424  0.0107
  560MOL0     H75551   5.531   5.742   7.417 -0.0736  1.9949  0.8396
  560MOL0     H75552   5.635   5.486   7.714 -0.8712 -0.2292  0.2454
  560MOL0     H75553   5.701   5.562   7.575  2.9290 -0.3806  3.1659
  560MOL0     H75554   5.690   5.771   7.688  2.3008 -0.5095  0.4831
  560MOL0     H75555   5.767   5.647   7.793 -0.9334 -3.1816  1.1226
  560MOL0     H75556   5.589   5.634   7.956 -0.3296 -1.2297 -0.8271
  560MOL0     H75557   5.472   5.696   7.843 -0.0418  0.1551  0.6296
  560MOL0     H75558   5.616   5.919   7.850 -1.2409  2.6185  1.1342
  560MOL0     H75559   5.683   5.835   8.000 -0.2911  0.2676  0.6102
  560MOL0     H75560   5.587   6.116   7.907 -0.6227  2.0708  0.4770
  560MOL0     H75561   5.562   6.440   7.946  2.4196  3.8939  2.2706
  560MOL0     H75562   5.695   6.393   8.049  2.3061  1.3047 -2.8921
  560MOL0     H75563   5.677   6.312   7.900  0.0815 -0.5527  1.1125
  560MOL0     H75564   5.488   6.560   8.535 -0.8830 -1.4129  0.6091
  560MOL0     H75565   5.365   6.765   8.628  0.1141 -1.4649  1.6381
  560MOL0     H75566   4.965   6.779   8.640 -1.2841  0.8271  0.6693
  560MOL0     H75567   5.118   6.797   8.736  1.4556  0.3593 -2.1359
  560MOL0     H75568   5.072   7.039   8.728  0.6754 -0.4577 -1.8240
  560MOL0     H75569   4.936   7.024   8.628  0.7580  2.8035  0.8445
  560MOL0     H75570   4.954   6.940   8.927  1.3498  3.5740  0.7212
  560MOL0     H75571   4.838   6.870   8.813 -0.9418  0.0782  1.5568
  560MOL0     H75572   4.880   7.172   8.848 -0.8245 -0.0667  0.2540
  560MOL0     H75573   4.757   7.081   8.752 -0.3031  0.6788  0.4901
  560MOL0     H75574   4.785   7.071   9.050  1.5789 -0.9379 -0.7229
  560MOL0     H75575   4.659   6.991   8.955 -0.3873  1.1841  1.2168
  560MOL0     H75576   4.705   7.292   8.965 -1.1064  0.6580 -2.9304
  560MOL0     H75577   4.564   7.210   8.891  0.6217  0.5647  0.3097
  560MOL0     H75578   4.633   7.249   9.185 -0.4138 -0.8841  1.4415
  560MOL0     H75579   4.521   7.119   9.131  0.7305 -0.5004  1.9612
  560MOL0     H75580   4.497   7.416   9.104  0.8722 -1.1019 -0.7286
  560MOL0     H75581   4.410   7.313   9.216  2.1272 -1.7446  1.5389
  560MOL0     H75582   5.049   6.676   8.356 -0.6598  0.0661  0.5339
  560MOL0     H75583   5.166   6.483   8.280  1.8806  0.5924 -1.6193
  560MOL0     H75584   5.362   6.164   8.336  0.3319  1.9802  0.5649
  560MOL0     H75585   5.376   5.947   8.235 -1.1759 -1.0614 -2.2096
  560MOL0     H75586   6.031   5.248   7.342 -2.1605  0.0202 -0.6662
  560MOL0     H75587   6.209   5.223   7.494  0.3341  0.1345  2.0389
  560MOL0     H75588   6.438   5.641   7.946 -0.8734 -0.8446 -0.1964
  560MOL0     H75589   6.674   5.613   8.050  4.7487  0.1372 -1.0399
  560MOL0     H75590   6.823   5.550   8.175  0.1133  1.0512 -3.2831
  560MOL0     H75591   6.818   5.373   8.208  0.5694 -0.2864  1.2197
  560MOL0     H75592   7.054   5.354   8.146 -1.2067 -0.0246  0.3146
  560MOL0     H75593   7.037   5.449   8.293 -2.7723 -1.4169  1.1361
  560MOL0     H75594   7.083   5.648   8.190 -1.7751 -2.8059  3.0616
  560MOL0     H75595   7.072   5.578   8.023 -0.7551 -0.2908 -0.6110
  560MOL0     H75596   7.283   5.432   8.112 -0.2892 -0.4081  1.6237
  560MOL0     H75597   7.291   5.512   8.255 -1.2577 -5.9854 -0.4389
  560MOL0     H75598   7.459   5.808   8.007 -1.1923  1.9288  3.3620
  560MOL0     H75599   6.729   5.253   7.835  1.6519  0.4039  1.8361
  560MOL0     H75600   6.528   5.270   7.737  2.4949 -0.6704 -0.4840
  561MOL0     O75601   0.109   7.623   5.298  0.5339 -0.1421  1.2347
  561MOL0     C75602   0.083   7.515   5.349 -0.0861  0.1538 -0.0427
  561MOL0     O75603   0.140   7.399   5.313  0.5699 -0.0864  0.0546
  561MOL0     C75604   0.244   7.405   5.216  0.4181  0.3005 -0.2874
  561MOL0     C75605   0.365   7.370   5.273  0.4970  0.1893 -0.5829
  561MOL0     C75606   0.483   7.359   5.203  0.2651 -0.4519  0.8169
  561MOL0     C75607   0.469   7.383   5.065 -0.7346 -0.1047  0.4437
  561MOL0     O75608   0.589   7.405   4.999  0.4748 -0.5478 -0.6152
  561MOL0     C75609   0.581   7.409   4.854  0.6960 -0.3322  0.6453
  561MOL0     C75610   0.720   7.432   4.809 -0.4256 -1.0985 -0.1109
  561MOL0     C75611   0.818   7.307   4.806 -0.5107 -0.1332  0.8389
  561MOL0     C75612   0.967   7.326   4.765  0.3326 -0.1299  0.2506
  561MOL0     C75613   1.047   7.423   4.849 -0.1517 -0.4013  0.3883
  561MOL0     C75614   1.180   7.471   4.776  0.5601  0.0440  0.3327
  561MOL0     C75615   1.149   7.553   4.639 -0.0866  0.0929 -0.5423
  561MOL0     C75616   1.044   7.665   4.648  0.1998  0.1269  0.6428
  561MOL0     N75617   1.089   7.768   4.732  0.2236 -0.4648  0.4771
  561MOL0     C75618   1.155   7.885   4.700  0.1052 -1.5968  0.2310
  561MOL0     C75619   1.164   7.952   4.819  0.4224  0.0412 -0.5606
  561MOL0     C75620   1.207   8.089   4.852  0.0297 -1.9719 -0.6394
  561MOL0     C75621   1.091   8.186   4.861 -0.4671  0.1870 -0.2422
  561MOL0     C75622   1.039   8.229   4.722 -0.5570 -0.4150 -0.1367
  561MOL0     C75623   0.892   8.259   4.737 -0.3196 -0.9733 -0.7906
  561MOL0     O75624   0.828   8.254   4.604  0.3549  0.1020  0.1031
  561MOL0     C75625   0.689   8.246   4.606 -0.4661 -0.2110 -0.5301
  561MOL0     C75626   0.628   8.197   4.492 -0.7828  0.4109  0.3175
  561MOL0     C75627   0.485   8.174   4.489  0.4648  0.1370  0.0402
  561MOL0     C75628   0.430   8.106   4.364 -0.2024 -0.8122 -0.1146
  561MOL0     C75629   0.397   8.228   4.595 -0.2108  0.1117 -0.0734
  561MOL0     C75630   0.249   8.219   4.594  0.5633  0.0042 -0.6868
  561MOL0     O75631   0.185   8.255   4.717 -0.5165  0.6033 -0.0317
  561MOL0     C75632   0.054   8.272   4.711  0.2879 -0.5555  0.5160
  561MOL0     C75633  -0.041   8.170   4.697 -0.5060  0.6101  0.5218
  561MOL0     C75634  -0.175   8.194   4.695  0.4944  0.4052  0.3579
  561MOL0     C75635  -0.220   8.321   4.705 -0.0928  0.4576 -0.7565
  561MOL0     O75636  -0.358   8.343   4.716  0.0991  0.3240 -0.3096
  561MOL0     C75637  -0.429   8.467   4.727 -0.6978  0.6961  0.1411
  561MOL0     C75638  -0.561   8.452   4.792  0.2406 -0.0662  0.2983
  561MOL0     C75639  -0.547   8.398   4.931  0.5213  0.0588 -0.3875
  561MOL0     C75640  -0.693   8.346   4.979 -0.3841 -0.3719 -0.2013
  561MOL0     C75641  -0.678   8.313   5.136  0.5750  0.1609 -0.4029
  561MOL0     C75642  -0.593   8.195   5.172  0.2641  0.3901 -0.5129
  561MOL0     C75643  -0.585   8.187   5.324  0.0844 -0.6440 -0.3660
  561MOL0     C75644  -0.547   8.045   5.363  0.6720  0.3790  0.3734
  561MOL0    Cl75645  -0.540   8.022   5.546  0.0581  0.2742 -0.3518
  561MOL0     C75646  -0.133   8.424   4.727 -0.8019  0.3172 -0.3299
  561MOL0     C75647   0.005   8.398   4.728  0.5110 -0.4763 -1.1901
  561MOL0     O75648   0.192   8.191   4.493 -0.6185 -0.4669  0.0160
  561MOL0     C75649   0.467   8.280   4.712  0.6538  0.0505  0.7141
  561MOL0     C75650   0.611   8.285   4.710  0.7709 -0.1676 -0.0132
  561MOL0     N75651   1.113   7.872   4.923 -1.0780  0.0958  0.1561
  561MOL0     N75652   1.087   7.759   4.866  0.1694 -0.0319 -0.3068
  561MOL0     C75653   0.346   7.403   5.002 -0.4051  0.2535 -0.2296
  561MOL0     C75654   0.230   7.432   5.081 -0.1024 -0.3983  0.7137
  561MOL0     C75655  -0.011   7.511   5.466 -0.3484  0.6231  0.0748
  561MOL0     C75656  -0.043   7.385   5.528  0.8007  0.3605  0.7606
  561MOL0     C75657  -0.129   7.397   5.641 -0.0546 -0.0523 -0.1238
  561MOL0     C75658  -0.196   7.515   5.688 -0.8165  0.9584  0.6577
  561MOL0     O75659  -0.291   7.531   5.793 -0.5814 -0.4671 -0.3209
  561MOL0     C75660  -0.353   7.403   5.830  0.4381  0.7980 -0.1932
  561MOL0     C75661  -0.460   7.436   5.936 -0.1371 -0.0352 -0.0242
  561MOL0     C75662  -0.582   7.518   5.890 -0.4725  0.3525  0.5343
  561MOL0     C75663  -0.658   7.616   5.978  0.0893  0.3272 -0.1399
  561MOL0     C75664  -0.676   7.570   6.111  0.0012 -0.9130 -0.5879
  561MOL0     C75665  -0.697   7.510   6.215 -0.7947  0.1246  0.8480
  561MOL0     C75666  -0.169   7.630   5.616 -0.1520  0.5766 -0.5004
  561MOL0     C75667  -0.062   7.633   5.516  0.0081 -0.1290 -0.5238
  561MOL0     H75668   0.373   7.353   5.380 -1.0791  1.9264 -0.1414
  561MOL0     H75669   0.577   7.344   5.257  1.5288  0.2312 -1.0935
  561MOL0     H75670   0.556   7.312   4.810 -0.1648  0.6393 -1.0852
  561MOL0     H75671   0.518   7.484   4.806  0.8687  1.9133  3.6039
  561MOL0     H75672   0.715   7.463   4.704  0.4324  0.1901  0.2015
  561MOL0     H75673   0.756   7.518   4.865 -0.3659 -0.4618 -1.0937
  561MOL0     H75674   0.826   7.264   4.906  0.8317 -2.6976 -0.2657
  561MOL0     H75675   0.766   7.236   4.741 -1.1724  0.0481  1.1671
  561MOL0     H75676   1.015   7.228   4.770 -0.6443 -0.6129  0.4096
  561MOL0     H75677   0.959   7.360   4.661 -0.2192 -0.4826  0.1692
  561MOL0     H75678   0.985   7.496   4.902 -0.8383 -1.3958  0.9920
  561MOL0     H75679   1.077   7.359   4.933  1.3606 -1.6474 -1.0281
  561MOL0     H75680   1.234   7.531   4.851  2.1646  1.4356 -1.8342
  561MOL0     H75681   1.258   7.396   4.766  2.4208  2.0765 -1.4551
  561MOL0     H75682   1.239   7.606   4.607 -0.3031  1.4535  0.9881
  561MOL0     H75683   1.114   7.490   4.556 -1.8667  3.0934 -2.3102
  561MOL0     H75684   0.949   7.623   4.681 -0.0878 -0.2952 -0.6707
  561MOL0     H75685   1.032   7.702   4.545  0.4149 -1.7442 -0.0916
  561MOL0     H75686   1.163   7.919   4.598  1.7929 -1.2283  0.4623
  561MOL0     H75687   1.255   8.076   4.950 -0.3921 -3.2602 -0.5744
  561MOL0     H75688   1.283   8.137   4.790 -1.3766  1.8264  0.3059
  561MOL0     H75689   1.126   8.279   4.906  2.0351  0.6662 -2.8673
  561MOL0     H75690   1.019   8.134   4.925 -2.4513  1.8959 -0.9599
  561MOL0     H75691   1.060   8.152   4.647  0.4974  1.4080 -1.8020
  561MOL0     H75692   1.090   8.317   4.683  0.4521 -0.5994  0.7115
  561MOL0     H75693   0.878   8.360   4.777 -1.7550 -2.0005  1.5140
  561MOL0     H75694   0.840   8.195   4.809 -1.3243 -1.3828 -1.8518
  561MOL0     H75695   0.694   8.163   4.412  2.3540  2.2522  1.9205
  561MOL0     H75696   0.403   8.003   4.384  0.6575 -0.9166  0.5831
  561MOL0     H75697   0.343   8.162   4.328  0.7243  0.0845 -1.0463
  561MOL0     H75698   0.500   8.097   4.280  1.1031  0.4147  0.7906
  561MOL0     H75699  -0.001   8.075   4.661  2.9545  2.8653 -2.3769
  561MOL0     H75700  -0.237   8.108   4.672  0.5652 -0.2782  2.4712
  561MOL0     H75701  -0.375   8.539   4.789 -2.1330  0.7712  1.3455
  561MOL0     H75702  -0.430   8.499   4.623  2.3648 -1.6423 -0.7888
  561MOL0     H75703  -0.615   8.548   4.789  2.9739  1.5668 -0.9769
  561MOL0     H75704  -0.620   8.379   4.736  2.1992 -2.3426  1.0815
  561MOL0     H75705  -0.511   8.477   4.998  0.4805 -0.3266  0.0990
  561MOL0     H75706  -0.474   8.317   4.938 -1.0156 -1.2763  1.1986
  561MOL0     H75707  -0.763   8.426   4.958  1.4232  0.9111 -1.7226
  561MOL0     H75708  -0.723   8.258   4.921 -3.8653 -0.2270  1.1773
  561MOL0     H75709  -0.780   8.294   5.172  1.8581 -3.2468  2.0485
  561MOL0     H75710  -0.655   8.403   5.193  1.1086  0.7131 -1.4571
  561MOL0     H75711  -0.630   8.100   5.133 -1.6651  0.4160  1.1277
  561MOL0     H75712  -0.495   8.221   5.130 -0.7030  2.4969 -1.6022
  561MOL0     H75713  -0.677   8.224   5.372  1.2023  2.1210 -0.1670
  561MOL0     H75714  -0.510   8.260   5.355 -0.9438 -0.5763  2.2330
  561MOL0     H75715  -0.453   8.001   5.326 -0.2959 -0.6040 -1.0068
  561MOL0     H75716  -0.619   7.978   5.316 -0.9169 -2.2840  5.7974
  561MOL0     H75717  -0.152   8.528   4.752 -1.1558  0.4893 -1.2685
  561MOL0     H75718   0.077   8.479   4.738  0.0325 -0.2879  1.3562
  561MOL0     H75719   0.409   8.312   4.798 -0.8512  1.7655 -0.8295
  561MOL0     H75720   0.648   8.342   4.795 -2.5579  0.4865  1.1501
  561MOL0     H75721   0.348   7.427   4.897  3.4521 -3.4746 -1.3078
  561MOL0     H75722   0.137   7.463   5.034  0.0212  0.1871  0.8419
  561MOL0     H75723   0.010   7.293   5.511 -1.2581 -0.9016  0.8363
  561MOL0     H75724  -0.157   7.309   5.699  0.0460  1.6951  2.7759
  561MOL0     H75725  -0.411   7.365   5.745  1.0029 -0.8089  0.1090
  561MOL0     H75726  -0.274   7.335   5.865 -0.7128  0.0497  1.0649
  561MOL0     H75727  -0.416   7.484   6.025  0.6424  0.3866 -0.6294
  561MOL0     H75728  -0.500   7.344   5.979  3.0959 -0.0495  3.5361
  561MOL0     H75729  -0.644   7.445   5.838  3.2025 -1.5529 -1.5510
  561MOL0     H75730  -0.547   7.574   5.803 -2.0376 -0.7401 -0.8723
  561MOL0     H75731  -0.743   7.653   5.921  0.7500  1.9434 -0.1180
  561MOL0     H75732  -0.603   7.710   5.978  0.1218  0.4021 -3.0368
  561MOL0     H75733  -0.711   7.476   6.316 -0.1661 -1.1981  0.5075
  561MOL0     H75734  -0.216   7.718   5.657 -1.3665 -1.5011  3.0037
  561MOL0     H75735  -0.041   7.727   5.465  1.5636 -0.3426 -0.3194
  562MOL0     O75736   0.775   8.850   6.469  0.0093  0.1958 -0.5154
  562MOL0     C75737   0.751   8.740   6.480  0.9223  0.4814  0.4879
  562MOL0     O75738   0.629   8.679   6.447  0.1968 -0.5650 -0.1490
  562MOL0     C75739   0.516   8.742   6.406 -0.9207 -0.5361  0.3449
  562MOL0     C75740   0.395   8.694   6.454 -0.1352  0.1481 -0.2049
  562MOL0     C75741   0.277   8.747   6.401 -0.2927  0.4874  0.3683
  562MOL0     C75742   0.273   8.835   6.299  1.0799 -0.5236  0.9392
  562MOL0     O75743   0.141   8.870   6.262  0.0080 -0.6251 -0.0508
  562MOL0     C75744   0.129   8.991   6.181 -0.3296 -0.7351 -0.4148
  562MOL0     C75745  -0.012   8.997   6.119  0.7823  0.2808  0.0885
  562MOL0     C75746  -0.021   8.897   6.004 -0.0076 -0.1465  0.7271
  562MOL0     C75747  -0.155   8.882   5.941 -0.2877 -0.4814 -0.1663
  562MOL0     C75748  -0.259   8.815   6.031  0.8882  0.3706 -0.5187
  562MOL0     C75749  -0.385   8.778   5.945 -0.6546  0.2411  0.1816
  562MOL0     C75750  -0.495   8.695   6.015 -0.8730 -0.3618 -0.1711
  562MOL0     C75751  -0.635   8.704   5.952 -0.8539 -0.2633 -0.1979
  562MOL0     N75752  -0.745   8.628   6.013  0.4736 -0.3381  0.9868
  562MOL0     C75753  -0.860   8.673   6.066 -0.6478  1.3586 -0.6456
  562MOL0     C75754  -0.921   8.562   6.123  0.2982 -0.3843 -0.5362
  562MOL0     C75755  -1.055   8.534   6.184  0.1629  0.0520  0.1372
  562MOL0     C75756  -1.073   8.611   6.315  0.3557  0.1684  0.6496
  562MOL0     C75757  -1.215   8.607   6.352  0.9376 -0.3113 -0.3623
  562MOL0     C75758  -1.223   8.665   6.489 -0.4084 -0.1422  0.0092
  562MOL0     O75759  -1.224   8.808   6.488  0.6970  0.2309  0.6467
  562MOL0     C75760  -1.349   8.864   6.489 -0.4070  1.4276  0.0836
  562MOL0     C75761  -1.472   8.801   6.468  0.2037  0.3853 -0.4564
  562MOL0     C75762  -1.594   8.871   6.480 -0.2433  0.5989 -0.6420
  562MOL0     C75763  -1.716   8.793   6.454  0.5992 -0.2664 -0.8030
  562MOL0     C75764  -1.581   9.015   6.518  0.3022 -0.5455  0.3017
  562MOL0     C75765  -1.691   9.105   6.542  0.0114  0.1029  0.0406
  562MOL0     O75766  -1.816   9.065   6.507  0.5852 -0.0802 -0.2295
  562MOL0     C75767  -1.900   9.155   6.461 -0.2032  0.2755 -1.6044
  562MOL0     C75768  -1.950   9.150   6.335  0.0186 -0.2169  0.8996
  562MOL0     C75769  -2.052   9.237   6.294 -0.3429 -0.4410 -0.2162
  562MOL0     C75770  -2.115   9.320   6.388  0.2554  0.3542 -0.6788
  562MOL0     O75771  -2.210   9.416   6.359 -0.5555 -0.2871  0.5414
  562MOL0     C75772  -2.261   9.442   6.224 -0.2415  0.1855  0.2444
  562MOL0     C75773  -2.333   9.573   6.221 -0.0242  0.8977 -0.4624
  562MOL0     C75774  -2.235   9.694   6.233 -0.6164  0.4760 -0.0945
  562MOL0     C75775  -2.275   9.816   6.154 -0.1801  0.1837  0.3028
  562MOL0     C75776  -2.171   9.921   6.152 -1.2528  0.2928  0.6306
  562MOL0     C75777  -2.070   9.891   6.046  0.2450 -0.0696  0.3175
  562MOL0     C75778  -1.973  10.007   6.027 -0.0089 -0.0113  0.6464
  562MOL0     C75779  -1.906   9.984   5.892  0.9969 -0.0103  1.2702
  562MOL0    Cl75780  -1.766  10.087   5.857 -0.3104 -0.0456 -0.0757
  562MOL0     C75781  -2.063   9.325   6.518 -0.7989 -0.0856 -0.2349
  562MOL0     C75782  -1.957   9.242   6.556  0.0977 -0.1050  0.2463
  562MOL0     O75783  -1.667   9.221   6.586  0.2750 -0.1607 -1.1095
  562MOL0     C75784  -1.455   9.071   6.531 -0.2804  0.2111  0.3448
  562MOL0     C75785  -1.339   8.996   6.510  0.4309  0.6048 -0.0441
  562MOL0     N75786  -0.839   8.456   6.096  0.1772  0.3457 -0.5463
  562MOL0     N75787  -0.735   8.490   6.029  0.3482 -0.4978  0.4411
  562MOL0     C75788   0.393   8.883   6.240 -0.4045  0.6194 -0.3853
  562MOL0     C75789   0.513   8.839   6.302  0.2342  1.1908  0.7923
  562MOL0     C75790   0.858   8.648   6.532  0.6810  0.2026  0.3330
  562MOL0     C75791   0.980   8.696   6.550 -0.6636  0.6323 -0.2535
  562MOL0     C75792   1.078   8.613   6.603 -0.1872  0.2820  0.9193
  562MOL0     C75793   1.051   8.484   6.630 -1.2920 -0.0059 -0.2824
  562MOL0     O75794   1.151   8.437   6.711  0.6342  0.1221 -0.6643
  562MOL0     C75795   1.172   8.298   6.755 -0.8771 -0.6538 -0.4359
  562MOL0     C75796   1.262   8.215   6.667  0.3868 -0.7101 -0.2573
  562MOL0     C75797   1.388   8.290   6.636 -0.3896  0.0208 -0.0207
  562MOL0     C75798   1.502   8.204   6.601  0.0344 -0.4719  0.3283
  562MOL0     C75799   1.464   8.081   6.538 -1.2877  0.5241 -0.2162
  562MOL0     C75800   1.434   7.982   6.474  0.3885  0.1311 -0.2769
  562MOL0     C75801   0.931   8.426   6.606 -0.5135 -0.4323  0.1309
  562MOL0     C75802   0.837   8.509   6.551  0.1516  0.2701  0.2100
  562MOL0     H75803   0.402   8.606   6.516 -2.6230 -1.4039 -1.9575
  562MOL0     H75804   0.179   8.705   6.423  0.0234 -0.2393  0.4136
  562MOL0     H75805   0.136   9.081   6.243  0.9415 -1.4311  0.5039
  562MOL0     H75806   0.198   8.999   6.097 -1.1566  1.7509 -0.9427
  562MOL0     H75807  -0.084   8.971   6.197  1.6523 -1.5066  0.3462
  562MOL0     H75808  -0.041   9.095   6.080  1.8473 -0.7044 -3.5699
  562MOL0     H75809   0.051   8.922   5.925 -1.5827  2.3183 -0.0266
  562MOL0     H75810   0.016   8.798   6.034 -3.5156 -1.9290 -0.2618
  562MOL0     H75811  -0.196   8.973   5.897  0.0556 -0.4460 -0.4163
  562MOL0     H75812  -0.130   8.813   5.860  2.1173 -0.5007  0.5182
  562MOL0     H75813  -0.216   8.719   6.060 -0.3048  1.1234  4.9342
  562MOL0     H75814  -0.267   8.876   6.122  2.7358  2.6795 -1.8033
  562MOL0     H75815  -0.449   8.860   5.910 -3.0990 -1.3418  0.6744
  562MOL0     H75816  -0.347   8.709   5.869  1.6452  1.5352  0.0599
  562MOL0     H75817  -0.456   8.594   6.033  1.8027  0.6189 -0.1455
  562MOL0     H75818  -0.512   8.740   6.113 -1.7690  0.4571 -0.6879
  562MOL0     H75819  -0.632   8.681   5.845 -2.5218 -2.1886  0.0994
  562MOL0     H75820  -0.664   8.809   5.953  2.6928  0.8608  0.4003
  562MOL0     H75821  -0.893   8.776   6.075  0.1928  1.4646  2.2350
  562MOL0     H75822  -1.133   8.568   6.115 -0.2110  0.6509  0.8355
  562MOL0     H75823  -1.066   8.426   6.195 -0.2694 -0.6250 -4.6833
  562MOL0     H75824  -1.046   8.717   6.315 -0.6307  0.4307  0.8526
  562MOL0     H75825  -1.005   8.558   6.382 -0.7617 -2.5267 -0.2123
  562MOL0     H75826  -1.244   8.501   6.352  0.9545 -0.3157 -0.8479
  562MOL0     H75827  -1.278   8.659   6.280 -4.0193 -2.2781  2.0637
  562MOL0     H75828  -1.136   8.622   6.541 -0.2999 -1.0302 -0.8801
  562MOL0     H75829  -1.304   8.623   6.549  2.5220 -3.2374  2.2175
  562MOL0     H75830  -1.475   8.693   6.470  0.6480  0.3698  1.6344
  562MOL0     H75831  -1.719   8.770   6.348  2.3050 -1.5531 -0.6209
  562MOL0     H75832  -1.709   8.703   6.516  2.7448  0.8404  0.7084
  562MOL0     H75833  -1.813   8.830   6.486 -0.4219 -1.1048 -2.8192
  562MOL0     H75834  -1.911   9.073   6.269  1.6932  0.3290  1.2195
  562MOL0     H75835  -2.085   9.231   6.191  1.2094  1.7434 -0.9107
  562MOL0     H75836  -2.179   9.441   6.152 -1.6594 -0.2991 -1.4236
  562MOL0     H75837  -2.327   9.358   6.199  0.7519  0.2838 -3.0434
  562MOL0     H75838  -2.387   9.575   6.126  0.7427 -1.5709 -1.0225
  562MOL0     H75839  -2.403   9.566   6.305  2.0028  0.4404  1.2838
  562MOL0     H75840  -2.135   9.669   6.198 -0.2172 -0.3266  1.5338
  562MOL0     H75841  -2.222   9.733   6.335  0.7341  0.0761 -0.0947
  562MOL0     H75842  -2.311   9.795   6.053  0.4903 -0.1952  0.1337
  562MOL0     H75843  -2.354   9.858   6.217  1.0389  3.4078 -0.1602
  562MOL0     H75844  -2.119   9.935   6.247 -1.0443 -0.7474  0.6800
  562MOL0     H75845  -2.213  10.020   6.130  1.0591  0.9926 -1.1117
  562MOL0     H75846  -2.004   9.805   6.064  1.2278  0.7726  0.8569
  562MOL0     H75847  -2.124   9.883   5.952  3.6972  3.6725 -2.3110
  562MOL0     H75848  -1.892  10.023   6.100  2.4659  0.1998 -1.9432
  562MOL0     H75849  -2.028  10.100   6.014  2.1716  1.5156  1.7463
  562MOL0     H75850  -1.985  10.013   5.823  0.7824 -0.2238  1.4252
  562MOL0     H75851  -1.885   9.879   5.871  0.2086  0.0871 -0.0953
  562MOL0     H75852  -2.113   9.400   6.576 -0.8965  0.3477 -0.8676
  562MOL0     H75853  -1.937   9.243   6.663 -2.1706 -1.3558  0.7446
  562MOL0     H75854  -1.446   9.175   6.561 -0.2175  0.2338  0.2457
  562MOL0     H75855  -1.243   9.047   6.511  1.5498 -1.3445 -1.3524
  562MOL0     H75856   0.391   8.953   6.157 -1.3616 -1.5028 -2.2584
  562MOL0     H75857   0.604   8.874   6.254 -0.8122  2.3667 -0.4608
  562MOL0     H75858   1.013   8.798   6.535  4.2125 -0.5080  0.9915
  562MOL0     H75859   1.176   8.656   6.622  0.4130  0.1779 -1.6615
  562MOL0     H75860   1.228   8.320   6.846 -1.5436 -1.3053  0.1429
  562MOL0     H75861   1.083   8.241   6.780 -1.4058 -0.1793 -1.1939
  562MOL0     H75862   1.213   8.177   6.576  2.2148 -1.3056 -1.0397
  562MOL0     H75863   1.289   8.124   6.721 -2.1839 -1.8553 -0.7323
  562MOL0     H75864   1.424   8.346   6.723  0.7908  1.9568 -1.6769
  562MOL0     H75865   1.369   8.362   6.557  2.5168 -1.2393 -2.0522
  562MOL0     H75866   1.555   8.193   6.696  2.1358  2.3174 -0.3855
  562MOL0     H75867   1.565   8.266   6.537 -2.9614 -1.6449 -4.2139
  562MOL0     H75868   1.431   7.894   6.413 -0.8537  1.6404 -2.5059
  562MOL0     H75869   0.906   8.322   6.623  0.1176 -0.6260 -0.1123
  562MOL0     H75870   0.741   8.462   6.533 -0.3221  1.4725 -0.4732
  563MOL0     O75871   5.243   7.380   2.039  0.9638  0.3423  0.5734
  563MOL0     C75872   5.315   7.386   1.940 -0.4172  0.1444  0.1494
  563MOL0     O75873   5.272   7.399   1.814  0.2020 -0.6493 -0.1287
  563MOL0     C75874   5.146   7.373   1.773  0.1383  0.0082  0.1769
  563MOL0     C75875   5.123   7.281   1.664  0.0775 -0.1275  0.4871
  563MOL0     C75876   4.989   7.261   1.631  0.0770 -0.0675 -0.1811
  563MOL0     C75877   4.880   7.325   1.692 -0.8071  0.3131  0.3624
  563MOL0     O75878   4.744   7.333   1.644  0.3951  0.6196 -0.4978
  563MOL0     C75879   4.683   7.209   1.593 -0.1762  0.5632  0.2033
  563MOL0     C75880   4.556   7.242   1.524  0.8951 -0.6274 -0.1871
  563MOL0     C75881   4.461   7.330   1.606  0.0282  0.0173  0.8793
  563MOL0     C75882   4.338   7.369   1.535 -0.1892 -0.1257 -0.6538
  563MOL0     C75883   4.273   7.476   1.620 -0.6629 -0.0462  0.1186
  563MOL0     C75884   4.149   7.533   1.553  0.3984  0.4967 -1.1648
  563MOL0     C75885   4.182   7.660   1.471  0.3030 -0.5276 -0.6551
  563MOL0     C75886   4.079   7.773   1.456  0.1608  0.8258  0.4086
  563MOL0     N75887   3.986   7.738   1.339  1.3074 -0.5668 -0.6981
  563MOL0     C75888   3.983   7.825   1.236 -0.3911  0.1855  0.3639
  563MOL0     C75889   3.870   7.794   1.177  0.0535 -0.9259  0.2665
  563MOL0     C75890   3.824   7.841   1.032 -1.4801 -0.4891  0.0608
  563MOL0     C75891   3.705   7.938   1.037 -1.2736  0.0724 -0.5804
  563MOL0     C75892   3.735   8.053   1.137 -0.6559 -0.3450 -0.5553
  563MOL0     C75893   3.606   8.148   1.158  0.1559 -0.6075  0.2181
  563MOL0     O75894   3.653   8.269   1.234  0.0024  0.4152  0.0650
  563MOL0     C75895   3.563   8.367   1.253 -0.2200 -0.7486 -0.2486
  563MOL0     C75896   3.430   8.339   1.296  1.0781  0.0821 -0.5887
  563MOL0     C75897   3.342   8.440   1.343 -1.0329  0.0017  0.0866
  563MOL0     C75898   3.198   8.412   1.359 -0.0944  0.8533 -0.2609
  563MOL0     C75899   3.399   8.571   1.364  0.3723 -0.4392  0.0047
  563MOL0     C75900   3.322   8.693   1.411  0.6453 -0.1033  0.8744
  563MOL0     O75901   3.180   8.695   1.389 -0.4753 -0.0327 -0.5778
  563MOL0     C75902   3.111   8.778   1.470  0.7280 -0.5811  0.1313
  563MOL0     C75903   3.105   8.909   1.438  0.2612  0.8422 -0.5538
  563MOL0     C75904   3.066   9.001   1.543 -0.2287  0.9290  1.1055
  563MOL0     C75905   3.029   8.957   1.675  0.2862 -0.1822  0.7102
  563MOL0     O75906   2.981   9.037   1.773  0.1291  0.5577  0.4098
  563MOL0     C75907   2.910   9.157   1.743 -0.5560 -0.3680  0.0793
  563MOL0     C75908   2.811   9.180   1.854 -0.0923  0.3344 -0.5168
  563MOL0     C75909   2.762   9.324   1.870  1.2984  0.3140  1.0228
  563MOL0     C75910   2.689   9.382   1.744  0.0315 -0.0485  0.1673
  563MOL0     C75911   2.598   9.495   1.780  0.6435 -0.7859 -0.2258
  563MOL0     C75912   2.675   9.623   1.827  0.7925  0.1237 -0.6655
  563MOL0     C75913   2.577   9.745   1.880 -0.2550  0.8281 -0.2450
  563MOL0     C75914   2.640   9.795   2.010  0.3258  0.5529  0.1112
  563MOL0    Cl75915   2.558   9.949   2.059  0.3341 -0.3863 -0.0657
  563MOL0     C75916   3.031   8.824   1.704 -0.6166 -0.3771  0.7800
  563MOL0     C75917   3.070   8.734   1.596  0.0205 -0.3218 -0.7770
  563MOL0     O75918   3.387   8.791   1.448 -0.2020 -0.0398  0.5588
  563MOL0     C75919   3.532   8.589   1.337 -0.1162 -0.3873  1.3005
  563MOL0     C75920   3.614   8.501   1.267 -0.0241  1.1026  0.0174
  563MOL0     N75921   3.797   7.708   1.255  1.3663 -1.2504 -0.1804
  563MOL0     N75922   3.868   7.674   1.358 -0.6144  0.5206  0.5076
  563MOL0     C75923   4.904   7.405   1.801 -0.5455 -1.0494  1.0980
  563MOL0     C75924   5.030   7.434   1.842 -0.3686 -0.1671 -0.0413
  563MOL0     C75925   5.460   7.371   1.955 -0.4503  0.2000  0.2136
  563MOL0     C75926   5.553   7.363   1.843  0.4620  0.2421  0.1655
  563MOL0     C75927   5.694   7.346   1.872  0.2055  0.0590 -0.3449
  563MOL0     C75928   5.737   7.348   1.997 -0.1283  0.3622  0.3304
  563MOL0     O75929   5.866   7.361   2.027 -0.3827  0.1250 -0.1574
  563MOL0     C75930   5.940   7.244   2.016  0.1088  0.0330  0.4640
  563MOL0     C75931   6.074   7.279   1.965  0.2184  0.2126  0.0035
  563MOL0     C75932   6.074   7.332   1.824 -0.6348  0.3207  0.1126
  563MOL0     C75933   6.223   7.373   1.792  0.6436 -0.6360 -0.7137
  563MOL0     C75934   6.307   7.251   1.773 -0.2473 -0.6647  0.1549
  563MOL0     C75935   6.366   7.148   1.749  0.3858 -0.6058 -0.5842
  563MOL0     C75936   5.646   7.378   2.104  0.6511  0.3685  0.2151
  563MOL0     C75937   5.508   7.377   2.081 -0.7056  0.0899 -1.2489
  563MOL0     H75938   5.212   7.225   1.640  0.6067 -0.4950  3.0160
  563MOL0     H75939   4.952   7.198   1.550 -4.0836  2.3742 -0.4728
  563MOL0     H75940   4.741   7.147   1.524  0.3165  0.2596  0.8781
  563MOL0     H75941   4.670   7.137   1.674 -0.3038 -0.4094 -0.6517
  563MOL0     H75942   4.586   7.275   1.424 -1.5638 -0.3757 -0.8944
  563MOL0     H75943   4.502   7.149   1.503  0.7728 -0.0831 -2.4933
  563MOL0     H75944   4.427   7.275   1.695 -1.8695  2.6952  1.9420
  563MOL0     H75945   4.511   7.420   1.643 -1.8526  0.9708  1.2072
  563MOL0     H75946   4.363   7.414   1.439  0.7591  3.1361  0.9606
  563MOL0     H75947   4.282   7.276   1.527  1.4079 -1.3041  0.9254
  563MOL0     H75948   4.248   7.422   1.711  3.0927  0.5891  1.7233
  563MOL0     H75949   4.346   7.554   1.642  2.0809 -1.8964 -1.7406
  563MOL0     H75950   4.088   7.471   1.486 -0.9521  2.1704 -1.5812
  563MOL0     H75951   4.084   7.572   1.632  0.5848  4.7434 -2.8463
  563MOL0     H75952   4.270   7.697   1.525  0.6944 -3.3521  0.8389
  563MOL0     H75953   4.213   7.641   1.368 -1.7346  1.0477 -1.6321
  563MOL0     H75954   4.132   7.866   1.434 -1.6712  1.6530 -0.7025
  563MOL0     H75955   4.012   7.794   1.540 -2.7206 -1.0270 -1.2323
  563MOL0     H75956   4.063   7.893   1.207  0.3523 -0.8791 -0.1648
  563MOL0     H75957   3.908   7.879   0.973 -1.1737 -2.8413 -1.1419
  563MOL0     H75958   3.784   7.758   0.973 -0.8998  1.9165 -4.1541
  563MOL0     H75959   3.616   7.887   1.075 -0.8172  0.6716  1.4161
  563MOL0     H75960   3.696   7.981   0.937 -2.0347  1.0428 -0.1077
  563MOL0     H75961   3.820   8.102   1.090 -0.4168  0.6180  0.8236
  563MOL0     H75962   3.760   8.028   1.241 -0.5427  1.1681 -0.1972
  563MOL0     H75963   3.535   8.087   1.215 -0.6851  2.4343  2.7115
  563MOL0     H75964   3.559   8.170   1.062  1.9017  2.8156 -0.0106
  563MOL0     H75965   3.404   8.234   1.303  2.5496 -0.2097  1.6844
  563MOL0     H75966   3.145   8.479   1.427 -1.3304 -2.7983  2.7492
  563MOL0     H75967   3.136   8.409   1.268 -1.3974 -0.6399  0.6213
  563MOL0     H75968   3.178   8.320   1.414  0.4910  0.4406 -0.7211
  563MOL0     H75969   3.153   8.934   1.344  0.6789  0.4851 -0.4390
  563MOL0     H75970   3.049   9.107   1.528 -1.5092  0.4507 -1.2861
  563MOL0     H75971   2.985   9.236   1.731  1.3083 -1.8104  1.6622
  563MOL0     H75972   2.874   9.142   1.641  1.3606 -2.9326 -0.3143
  563MOL0     H75973   2.725   9.113   1.838  0.3136 -0.4655  0.5318
  563MOL0     H75974   2.853   9.146   1.949 -2.1335 -0.1293  0.2850
  563MOL0     H75975   2.845   9.389   1.899  0.5369  1.9801 -0.3231
  563MOL0     H75976   2.683   9.323   1.945 -2.3651  3.4972 -2.3316
  563MOL0     H75977   2.765   9.422   1.676 -0.8240  1.3031 -0.0270
  563MOL0     H75978   2.638   9.303   1.689  0.7231 -0.5723  0.2640
  563MOL0     H75979   2.528   9.461   1.857  0.2331 -0.0560 -0.2688
  563MOL0     H75980   2.539   9.506   1.688  1.2600 -1.4936 -0.7170
  563MOL0     H75981   2.752   9.594   1.899 -0.7570  2.3946  2.1648
  563MOL0     H75982   2.730   9.666   1.743  0.2605  0.7901 -0.6823
  563MOL0     H75983   2.473   9.716   1.900 -0.6596  3.4015  2.0457
  563MOL0     H75984   2.585   9.827   1.807  4.1121  0.0239 -0.9133
  563MOL0     H75985   2.749   9.805   2.006  0.5152 -1.3333 -0.7661
  563MOL0     H75986   2.624   9.720   2.089  0.3725  1.0656  0.6188
  563MOL0     H75987   3.007   8.782   1.801 -2.6956 -1.4637 -0.1405
  563MOL0     H75988   3.074   8.627   1.613 -3.7822 -0.5647 -0.5634
  563MOL0     H75989   3.583   8.682   1.359  2.2315 -1.0162 -0.9824
  563MOL0     H75990   3.717   8.527   1.248 -0.1771  0.2427 -2.3936
  563MOL0     H75991   4.824   7.461   1.847 -0.1445  2.4873 -2.0632
  563MOL0     H75992   5.051   7.485   1.935  0.9855 -1.3377  0.3322
  563MOL0     H75993   5.530   7.384   1.739  2.6318  1.9920 -0.0485
  563MOL0     H75994   5.767   7.334   1.793  1.6537  1.5624  0.7070
  563MOL0     H75995   5.952   7.193   2.112  2.9261  1.4367  0.9720
  563MOL0     H75996   5.879   7.179   1.953  0.4093 -0.2083  0.4183
  563MOL0     H75997   6.128   7.185   1.979 -2.2955 -1.1488  1.1765
  563MOL0     H75998   6.123   7.349   2.032  0.8997 -1.1750  0.9975
  563MOL0     H75999   6.019   7.425   1.815 -0.3768  0.6227  1.4579
  563MOL0     H76000   6.026   7.263   1.754  2.3775 -1.6475 -0.2043
  563MOL0     H76001   6.268   7.430   1.874  1.6011 -0.2103 -1.5156
  563MOL0     H76002   6.229   7.433   1.701  1.8237 -1.8747 -1.4759
  563MOL0     H76003   6.420   7.058   1.727 -0.0006 -0.8863 -0.3978
  563MOL0     H76004   5.671   7.375   2.209  2.0550  1.1181 -0.0712
  563MOL0     H76005   5.444   7.388   2.168  1.1579  0.8283  0.0933
  564MOL0     O76006  10.719   2.066   9.528  0.3367 -0.8514  0.4607
  564MOL0     C76007  10.643   1.967   9.509  1.2813 -0.2017  0.2557
  564MOL0     O76008  10.671   1.852   9.438  0.0751  0.7462  0.2122
  564MOL0     C76009  10.798   1.821   9.405 -0.2787 -0.1550  0.1068
  564MOL0     C76010  10.912   1.824   9.485 -0.1099 -0.5693  0.2536
  564MOL0     C76011  11.038   1.802   9.423  0.1982 -1.1426 -0.8574
  564MOL0     C76012  11.047   1.752   9.298  0.6282  0.4233  0.3805
  564MOL0     O76013  11.171   1.711   9.245  0.2331 -0.4545  0.0315
  564MOL0     C76014  11.247   1.823   9.193  0.2144 -0.1634  0.0611
  564MOL0     C76015  11.283   1.802   9.039  0.4529  0.0482 -0.0953
  564MOL0     C76016  11.365   1.674   9.024  0.4870 -0.1153 -0.3647
  564MOL0     C76017  11.426   1.653   8.883  0.2909 -0.0635 -0.0859
  564MOL0     C76018  11.494   1.511   8.872 -0.4611 -0.7385  0.0376
  564MOL0     C76019  11.614   1.495   8.959  0.3890  0.2919  0.0973
  564MOL0     C76020  11.608   1.366   9.050  0.0255  0.1412  0.9563
  564MOL0     C76021  11.747   1.353   9.112 -0.2449 -0.1074 -0.2814
  564MOL0     N76022  11.736   1.292   9.246 -0.9704  0.9866  0.0060
  564MOL0     C76023  11.751   1.157   9.269  0.0198 -0.0909 -0.0761
  564MOL0     C76024  11.781   1.154   9.399 -0.6529  0.7810  0.4864
  564MOL0     C76025  11.808   1.042   9.479  0.6863  0.2327 -0.4657
  564MOL0     C76026  11.690   0.940   9.495 -0.7274 -0.0703  0.2245
  564MOL0     C76027  11.579   1.021   9.572 -0.0748  0.0568  0.7904
  564MOL0     C76028  11.445   0.956   9.590 -0.0291  0.5656  0.1256
  564MOL0     O76029  11.361   1.038   9.677 -0.2197  0.4257 -0.6413
  564MOL0     C76030  11.230   1.040   9.653 -0.9620 -0.3393  0.0827
  564MOL0     C76031  11.175   1.107   9.541 -0.1979  0.3140  0.2956
  564MOL0     C76032  11.034   1.098   9.514  0.8601  0.0410 -0.3898
  564MOL0     C76033  10.981   1.183   9.396  0.4386 -0.2617 -0.5579
  564MOL0     C76034  10.952   1.019   9.594  0.1374 -0.4517  0.5066
  564MOL0     C76035  10.801   1.016   9.583 -0.4319  0.5625 -0.6673
  564MOL0     O76036  10.741   1.009   9.708 -0.0346  0.5017  0.8657
  564MOL0     C76037  10.603   0.993   9.716 -0.2575 -0.8550 -0.0713
  564MOL0     C76038  10.531   1.076   9.807  0.7034 -0.1149  0.0986
  564MOL0     C76039  10.398   1.051   9.819 -0.4357 -0.1524 -0.0878
  564MOL0     C76040  10.330   0.969   9.730  0.0260  1.0335 -0.0016
  564MOL0     O76041  10.194   0.969   9.756 -0.4737 -0.7584  0.7016
  564MOL0     C76042  10.143   0.835   9.745  0.3693 -0.3622 -0.2381
  564MOL0     C76043  10.018   0.832   9.840 -0.0311 -0.1693 -0.5148
  564MOL0     C76044  10.052   0.852   9.988  0.4205 -0.4108  1.1808
  564MOL0     C76045  10.064   0.991  10.029  0.4127  0.0159  0.7020
  564MOL0     C76046  10.124   1.008  10.165 -0.0638  0.0167 -0.2064
  564MOL0     C76047  10.051   0.924  10.277 -0.3301  0.2447 -0.2504
  564MOL0     C76048   9.899   0.955  10.288 -0.1248  0.9113 -0.2861
  564MOL0     C76049   9.825   0.891  10.400 -0.5230 -0.2562  0.9313
  564MOL0    Cl76050   9.663   0.941  10.430 -0.3162 -0.0014 -0.4865
  564MOL0     C76051  10.402   0.886   9.643 -0.0801  0.3745  0.7173
  564MOL0     C76052  10.540   0.896   9.633 -0.5322  0.3341 -1.5292
  564MOL0     O76053  10.741   1.027   9.475 -0.1049  0.0963  0.6865
  564MOL0     C76054  11.010   0.953   9.703 -0.4885 -0.5938 -0.1028
  564MOL0     C76055  11.147   0.969   9.740 -0.2775  0.1312 -0.3324
  564MOL0     N76056  11.768   1.275   9.454 -0.7563  0.2506 -0.3846
  564MOL0     N76057  11.752   1.356   9.362 -0.5619  0.2803  0.4326
  564MOL0     C76058  10.935   1.732   9.216  0.7563  0.2416  0.2871
  564MOL0     C76059  10.811   1.774   9.272  0.3925  0.2687 -0.0534
  564MOL0     C76060  10.507   1.976   9.569 -0.9039 -0.7393  0.8076
  564MOL0     C76061  10.438   2.093   9.571 -0.0441  0.0760  0.0195
  564MOL0     C76062  10.318   2.092   9.646  1.2177  0.7644 -0.0625
  564MOL0     C76063  10.260   1.965   9.676  0.0011 -0.3247 -0.4426
  564MOL0     O76064  10.131   1.958   9.734  0.2810  0.0829 -0.2916
  564MOL0     C76065  10.086   2.064   9.823  0.2408 -0.9111 -0.3182
  564MOL0     C76066  10.156   2.062   9.955  0.1918  0.3781 -0.4975
  564MOL0     C76067  10.131   1.940  10.031  0.0145 -0.3053 -0.0892
  564MOL0     C76068  10.205   1.932  10.162 -0.1084 -0.2465  0.0759
  564MOL0     C76069  10.177   1.809  10.236  0.8346 -1.2787 -0.1349
  564MOL0     C76070  10.149   1.710  10.296  0.0644 -0.3036 -0.9513
  564MOL0     C76071  10.322   1.852   9.660 -0.3720  0.6041  0.4057
  564MOL0     C76072  10.451   1.853   9.607  0.4980 -0.5124  0.1320
  564MOL0     H76073  10.907   1.845   9.591  3.1298 -2.1530  0.8436
  564MOL0     H76074  11.129   1.798   9.482 -1.5665 -3.1391  1.9915
  564MOL0     H76075  11.193   1.918   9.189 -3.2969 -2.0534 -0.7326
  564MOL0     H76076  11.338   1.832   9.253 -1.1605  0.4312  2.1824
  564MOL0     H76077  11.196   1.804   8.973  0.0168  0.4009  0.4718
  564MOL0     H76078  11.341   1.892   9.016 -1.4447  1.4196  0.2586
  564MOL0     H76079  11.441   1.669   9.102  0.0355  1.8355  0.2422
  564MOL0     H76080  11.282   1.605   9.038 -1.4153  1.8038 -1.4931
  564MOL0     H76081  11.347   1.668   8.809 -0.1378 -2.0598 -0.1068
  564MOL0     H76082  11.506   1.725   8.864  0.3293 -0.6958 -2.8013
  564MOL0     H76083  11.421   1.433   8.897 -1.9064  0.2946 -0.8343
  564MOL0     H76084  11.523   1.490   8.768  0.2324  1.6721 -0.3094
  564MOL0     H76085  11.695   1.478   8.888  0.9727  3.5278 -0.1912
  564MOL0     H76086  11.626   1.584   9.022 -1.7603  1.2525 -0.7198
  564MOL0     H76087  11.531   1.368   9.128 -3.2331  1.2452 -2.0412
  564MOL0     H76088  11.578   1.274   8.999 -1.3233  1.2973 -0.4341
  564MOL0     H76089  11.799   1.448   9.127 -0.0693 -0.6318  3.2220
  564MOL0     H76090  11.800   1.281   9.049 -3.3961 -1.4708 -1.5629
  564MOL0     H76091  11.724   1.081   9.197 -1.5542 -1.3059  1.6937
  564MOL0     H76092  11.898   0.988   9.450  0.4257 -0.3025 -0.2801
  564MOL0     H76093  11.819   1.090   9.577 -3.2550  0.6712 -0.0475
  564MOL0     H76094  11.715   0.852   9.556  0.5857 -0.5489 -0.9543
  564MOL0     H76095  11.657   0.909   9.396  0.1108  1.1690 -0.4678
  564MOL0     H76096  11.548   1.110   9.517 -0.0653 -1.9019 -2.6436
  564MOL0     H76097  11.621   1.046   9.670  1.9279 -2.2113  0.5960
  564MOL0     H76098  11.460   0.860   9.642 -3.9256 -0.5739 -0.5280
  564MOL0     H76099  11.388   0.925   9.502 -0.4972 -0.5814  0.7987
  564MOL0     H76100  11.247   1.171   9.492 -0.4979  1.4219  1.2477
  564MOL0     H76101  10.877   1.215   9.413  1.4623  2.5180  1.2596
  564MOL0     H76102  11.035   1.277   9.382 -1.1884  0.5044 -2.0000
  564MOL0     H76103  10.985   1.130   9.300 -2.4965 -0.6691 -0.5594
  564MOL0     H76104  10.575   1.155   9.868 -0.1473  1.5733 -1.3684
  564MOL0     H76105  10.337   1.095   9.898  2.5738 -1.2699  3.1190
  564MOL0     H76106  10.123   0.805   9.642  1.2313 -0.2504 -0.4437
  564MOL0     H76107  10.215   0.766   9.791  0.1451 -0.8079 -0.5427
  564MOL0     H76108   9.943   0.902   9.802 -0.5095 -0.2093  0.3442
  564MOL0     H76109   9.969   0.734   9.832 -0.2401 -0.1653  0.5926
  564MOL0     H76110  10.135   0.786  10.013 -0.0007 -2.0216 -1.2515
  564MOL0     H76111   9.974   0.808  10.051  2.2365 -2.6332  1.9948
  564MOL0     H76112  10.140   1.043   9.971 -1.2822  1.3383 -0.4302
  564MOL0     H76113   9.967   1.039  10.020 -0.1494 -1.3153 -0.9052
  564MOL0     H76114  10.127   1.109  10.205 -0.3231 -1.7481  5.0661
  564MOL0     H76115  10.226   0.970  10.154 -0.6840 -2.2243  1.2145
  564MOL0     H76116  10.058   0.815  10.282 -1.3727  0.2086  2.2310
  564MOL0     H76117  10.108   0.945  10.368 -0.8185  1.6352 -0.2365
  564MOL0     H76118   9.845   0.930  10.196  1.0747  0.5173 -0.8943
  564MOL0     H76119   9.898   1.064  10.288  1.2593  0.9453  0.4107
  564MOL0     H76120   9.882   0.906  10.492  2.0273  2.0930 -0.8858
  564MOL0     H76121   9.816   0.789  10.363 -1.0032  0.4965 -1.1453
  564MOL0     H76122  10.347   0.818   9.577 -0.3786 -0.4475  1.7912
  564MOL0     H76123  10.597   0.838   9.561 -4.7837 -4.6396 -1.4109
  564MOL0     H76124  10.949   0.913   9.783 -0.4744  1.0377  0.7445
  564MOL0     H76125  11.203   0.917   9.818 -3.3317 -2.9618  0.0343
  564MOL0     H76126  10.949   1.693   9.116 -3.2212  0.1664 -0.3831
  564MOL0     H76127  10.726   1.779   9.206  0.7408  4.4183 -0.4447
  564MOL0     H76128  10.485   2.182   9.530 -1.8522  0.9863 -0.1755
  564MOL0     H76129  10.259   2.184   9.652  3.6389  2.3199  1.6831
  564MOL0     H76130  10.091   2.160   9.771 -1.7772  0.1497  1.3127
  564MOL0     H76131   9.978   2.047   9.832 -0.2404  0.8571 -2.1513
  564MOL0     H76132  10.108   2.138  10.017 -0.0081 -1.3457  1.5708
  564MOL0     H76133  10.261   2.087   9.942  1.3021 -0.0081  5.0899
  564MOL0     H76134  10.159   1.844   9.986 -0.7368 -1.5741  2.0099
  564MOL0     H76135  10.022   1.940  10.040 -0.1112  2.0525 -0.8666
  564MOL0     H76136  10.181   2.020  10.223 -1.8590 -0.4625 -0.2394
  564MOL0     H76137  10.314   1.928  10.150 -0.0357 -0.2846  0.7019
  564MOL0     H76138  10.129   1.620  10.351 -0.1749  0.3458  0.0430
  564MOL0     H76139  10.260   1.763   9.670 -2.8940  1.6997 -3.3879
  564MOL0     H76140  10.500   1.757   9.598  0.5167 -0.4554 -0.3992
  565MOL0     O76141  10.648   5.569   6.151 -0.0195 -0.8409 -0.2052
  565MOL0     C76142  10.574   5.604   6.246 -0.7370 -0.0033  1.3113
  565MOL0     O76143  10.594   5.708   6.327  0.0276 -1.2655  0.1657
  565MOL0     C76144  10.708   5.786   6.314 -0.8894  0.6422 -0.6854
  565MOL0     C76145  10.705   5.894   6.227  0.3835  0.5044 -0.3089
  565MOL0     C76146  10.813   5.979   6.219  0.2478 -0.3780 -0.6185
  565MOL0     C76147  10.931   5.947   6.293  0.2393  0.5009 -0.5846
  565MOL0     O76148  11.056   6.010   6.278 -0.5400 -0.0542 -0.5240
  565MOL0     C76149  11.065   6.127   6.189  0.6241 -1.5260 -0.9968
  565MOL0     C76150  11.010   6.263   6.247  0.5138  0.4290 -0.6565
  565MOL0     C76151  11.117   6.333   6.344 -0.0599  1.7542  0.2190
  565MOL0     C76152  11.169   6.235   6.451  0.3340 -0.9689  0.8943
  565MOL0     C76153  11.169   6.307   6.580  0.1469 -0.0160  0.7561
  565MOL0     C76154  11.217   6.231   6.705  0.2273  0.3284 -1.1249
  565MOL0     C76155  11.172   6.302   6.832  0.3582 -1.3536  0.5923
  565MOL0     C76156  11.212   6.456   6.830  0.2959 -0.4931  0.2918
  565MOL0     N76157  11.364   6.477   6.852 -0.4812 -0.4948  0.8681
  565MOL0     C76158  11.437   6.409   6.945  0.5352 -1.0875  0.4395
  565MOL0     C76159  11.565   6.435   6.913 -0.6105 -0.3293 -0.3785
  565MOL0     C76160  11.663   6.373   7.017  0.2647  0.4328 -0.4840
  565MOL0     C76161  11.747   6.278   6.936 -0.5003  0.5705  0.0813
  565MOL0     C76162  11.866   6.248   7.042  0.4146  0.1031  0.0897
  565MOL0     C76163  11.959   6.138   6.975  0.5288  1.5278  0.3549
  565MOL0     O76164  12.020   6.068   7.082  0.8199  0.4479  0.1912
  565MOL0     C76165  12.056   5.938   7.071  0.6091 -0.2602  0.2054
  565MOL0     C76166  12.089   5.875   7.184  1.8537  0.5199  0.8242
  565MOL0     C76167  12.154   5.750   7.190 -0.8590  0.6874  0.2556
  565MOL0     C76168  12.186   5.683   7.320 -0.1400  0.6933  0.1515
  565MOL0     C76169  12.193   5.691   7.064  0.1893 -0.1080  0.2952
  565MOL0     C76170  12.267   5.568   7.049  0.9604  0.8564 -0.1653
  565MOL0     O76171  12.321   5.548   6.927  0.2777  0.1226  0.0858
  565MOL0     C76172  12.353   5.420   6.879  0.2743 -0.4889  0.0124
  565MOL0     C76173  12.469   5.357   6.925 -0.0421  0.1821 -0.3077
  565MOL0     C76174  12.481   5.220   6.911  0.2499  0.2841 -0.5610
  565MOL0     C76175  12.396   5.148   6.831 -0.1062 -0.3124 -0.4003
  565MOL0     O76176  12.414   5.011   6.810  0.4013 -0.1882  0.2007
  565MOL0     C76177  12.495   4.937   6.902  1.2730  0.6820 -0.0685
  565MOL0     C76178  12.646   4.934   6.863  0.4476 -0.1918  0.2961
  565MOL0     C76179  12.688   4.826   6.762 -0.1345 -0.0140 -0.0649
  565MOL0     C76180  12.638   4.843   6.621 -0.0668 -0.0840  0.2744
  565MOL0     C76181  12.636   4.716   6.535 -0.4432  1.0149  0.4564
  565MOL0     C76182  12.769   4.671   6.467 -0.3409  0.6806 -0.2461
  565MOL0     C76183  12.739   4.542   6.385 -0.4838  0.0423  1.0870
  565MOL0     C76184  12.714   4.414   6.464 -0.7520 -0.2993  0.1083
  565MOL0    Cl76185  12.859   4.378   6.553 -0.2952  0.2229  0.0024
  565MOL0     C76186  12.285   5.208   6.777 -0.4456  0.0510  0.0331
  565MOL0     C76187  12.260   5.347   6.796 -0.6326 -0.4090 -0.2349
  565MOL0     O76188  12.269   5.487   7.138  0.2032  0.1121 -0.3699
  565MOL0     C76189  12.170   5.771   6.945  0.1476  0.4100 -0.5704
  565MOL0     C76190  12.098   5.889   6.949  0.8480 -0.0724 -0.2414
  565MOL0     N76191  11.575   6.534   6.818 -0.6438 -0.2551  0.4569
  565MOL0     N76192  11.450   6.555   6.784  0.5748  0.0866 -0.0763
  565MOL0     C76193  10.930   5.839   6.386 -0.0052 -0.8457  0.7403
  565MOL0     C76194  10.811   5.766   6.399 -0.7061  0.4507 -0.5852
  565MOL0     C76195  10.441   5.550   6.247 -0.1631 -0.2729 -0.8762
  565MOL0     C76196  10.411   5.425   6.190 -0.9399 -0.3438  0.6278
  565MOL0     C76197  10.287   5.375   6.190  0.3649 -0.2449  0.2542
  565MOL0     C76198  10.177   5.450   6.240 -0.0390  0.3388 -0.5685
  565MOL0     O76199  10.048   5.413   6.221  0.2597 -0.0389  0.7680
  565MOL0     C76200  10.003   5.302   6.148  0.0181  0.3453  0.7115
  565MOL0     C76201   9.856   5.309   6.103 -0.0536 -0.0432 -0.4489
  565MOL0     C76202   9.761   5.349   6.211 -0.8346  0.0136  0.4448
  565MOL0     C76203   9.612   5.337   6.175  0.1147 -0.0475  0.3747
  565MOL0     C76204   9.533   5.373   6.301  0.8682  0.5054 -0.1178
  565MOL0     C76205   9.463   5.403   6.393 -0.1518  0.2148 -0.3330
  565MOL0     C76206  10.203   5.577   6.294  0.3183  0.1597  0.6753
  565MOL0     C76207  10.334   5.627   6.298  0.6222  0.2439  0.0657
  565MOL0     H76208  10.613   5.908   6.170  0.3898  1.1037 -0.1772
  565MOL0     H76209  10.812   6.072   6.163  0.4771  1.1326  1.7694
  565MOL0     H76210  11.171   6.143   6.171  0.2816  0.2868 -1.6439
  565MOL0     H76211  11.014   6.102   6.095  1.5692 -0.8299 -1.7136
  565MOL0     H76212  10.980   6.322   6.160 -1.7603 -0.3844 -0.5050
  565MOL0     H76213  10.917   6.258   6.306 -0.9865  0.0127 -2.9268
  565MOL0     H76214  11.207   6.367   6.291 -0.9823  1.7444 -1.4231
  565MOL0     H76215  11.063   6.419   6.384 -0.0738  0.8294  2.3223
  565MOL0     H76216  11.103   6.151   6.472  0.6487 -1.2497  0.7702
  565MOL0     H76217  11.264   6.198   6.412  0.9338  3.0908 -2.2217
  565MOL0     H76218  11.214   6.405   6.563  0.2855 -0.4257 -1.6210
  565MOL0     H76219  11.062   6.323   6.598  0.0466  0.6584 -0.3307
  565MOL0     H76220  11.154   6.142   6.715 -4.7328  3.2810 -2.1977
  565MOL0     H76221  11.323   6.209   6.691 -0.1368 -0.8031 -2.3051
  565MOL0     H76222  11.064   6.285   6.827  0.7674 -4.1882 -0.5410
  565MOL0     H76223  11.208   6.260   6.927 -0.8551  2.8851  3.1717
  565MOL0     H76224  11.157   6.494   6.916 -0.8744 -0.8569 -0.2643
  565MOL0     H76225  11.182   6.508   6.738 -0.6232 -1.7216 -0.1421
  565MOL0     H76226  11.401   6.338   7.019 -2.3314 -1.2636 -0.9850
  565MOL0     H76227  11.723   6.455   7.057  1.2576  0.0230 -1.0920
  565MOL0     H76228  11.608   6.319   7.094 -1.8806  1.9785 -0.8542
  565MOL0     H76229  11.791   6.318   6.844 -0.1877 -3.1425 -1.5928
  565MOL0     H76230  11.685   6.192   6.911 -0.7361  1.0980 -1.2063
  565MOL0     H76231  11.822   6.207   7.133  0.7815 -0.0164  0.2148
  565MOL0     H76232  11.911   6.344   7.065 -0.3456  0.4781  0.0476
  565MOL0     H76233  12.038   6.183   6.914  0.8048 -0.7605 -1.0809
  565MOL0     H76234  11.911   6.074   6.901  0.8893  1.8735 -0.1886
  565MOL0     H76235  12.063   5.917   7.281  3.3691 -0.5535  1.7306
  565MOL0     H76236  12.100   5.615   7.329  2.1337 -2.4982 -0.4229
  565MOL0     H76237  12.286   5.638   7.330 -0.1517  0.7803  0.6985
  565MOL0     H76238  12.176   5.752   7.405  1.7155 -1.6913  2.5037
  565MOL0     H76239  12.534   5.421   6.984  0.9095 -0.2792 -0.8382
  565MOL0     H76240  12.568   5.168   6.948 -0.6326  1.3005  3.4802
  565MOL0     H76241  12.475   4.973   7.003 -2.7485  1.9246 -1.1277
  565MOL0     H76242  12.466   4.832   6.893 -2.6711  1.6467 -0.4242
  565MOL0     H76243  12.676   5.025   6.811  2.0225 -0.1152  1.2546
  565MOL0     H76244  12.702   4.928   6.957 -1.2506 -2.8152  1.2454
  565MOL0     H76245  12.647   4.739   6.814  3.0525 -0.1068  2.6046
  565MOL0     H76246  12.797   4.822   6.755 -0.0250  2.9260 -2.0655
  565MOL0     H76247  12.533   4.871   6.631 -1.1402 -2.3754 -2.8114
  565MOL0     H76248  12.691   4.923   6.569 -0.1747 -1.0447 -1.3828
  565MOL0     H76249  12.560   4.726   6.458  0.6186  2.6970 -0.4477
  565MOL0     H76250  12.600   4.639   6.603 -0.1682  0.2740 -0.2301
  565MOL0     H76251  12.796   4.746   6.392 -1.6300  0.6541 -0.7765
  565MOL0     H76252  12.849   4.656   6.539  0.4498  3.0924 -0.5540
  565MOL0     H76253  12.819   4.532   6.311 -0.3877 -0.7124  1.2794
  565MOL0     H76254  12.654   4.575   6.325 -0.2072  0.7700  1.0933
  565MOL0     H76255  12.700   4.328   6.398  1.1972 -1.1050  0.6590
  565MOL0     H76256  12.629   4.430   6.530 -0.0311 -0.3008  1.0666
  565MOL0     H76257  12.203   5.162   6.723 -1.5282  1.5067  0.3506
  565MOL0     H76258  12.164   5.389   6.768  0.5747  2.8731  0.1149
  565MOL0     H76259  12.219   5.747   6.851  2.3711  0.8299  0.4328
  565MOL0     H76260  12.082   5.947   6.859  0.8462 -1.9532 -1.5246
  565MOL0     H76261  11.014   5.826   6.453 -1.1152  1.2209  2.6723
  565MOL0     H76262  10.811   5.704   6.488  0.9679  1.8960  0.4879
  565MOL0     H76263  10.502   5.376   6.155  0.3090  1.8103  0.6543
  565MOL0     H76264  10.264   5.285   6.134 -3.0767 -0.3303  1.5914
  565MOL0     H76265  10.065   5.310   6.058 -3.3364  0.4030 -1.8150
  565MOL0     H76266  10.014   5.204   6.196 -0.3670 -0.8178 -1.4170
  565MOL0     H76267   9.827   5.208   6.073  1.0829  0.2050 -2.5617
  565MOL0     H76268   9.853   5.385   6.025  1.3083  1.7953  1.1822
  565MOL0     H76269   9.780   5.455   6.230 -3.5895  0.9274 -1.2699
  565MOL0     H76270   9.773   5.286   6.300  0.0711 -0.0188  0.3003
  565MOL0     H76271   9.592   5.233   6.147  2.3622  0.1642 -2.5559
  565MOL0     H76272   9.584   5.390   6.083 -0.3316 -0.0571  0.5082
  565MOL0     H76273   9.415   5.455   6.473 -0.9874  1.6387 -1.6963
  565MOL0     H76274  10.118   5.640   6.320 -0.5773 -1.5627  2.1974
  565MOL0     H76275  10.336   5.732   6.324 -1.3148  0.1865  0.5986
  566MOL0     O76276  10.749   9.776   2.818  0.1380  0.0007  0.3516
  566MOL0     C76277  10.841   9.700   2.848 -0.6045 -0.5131  0.1618
  566MOL0     O76278  10.872   9.652   2.972 -0.2888 -0.2008 -0.3130
  566MOL0     C76279  10.799   9.665   3.092  0.9931 -0.9594 -0.4639
  566MOL0     C76280  10.876   9.652   3.205 -0.4807  0.7091  0.5837
  566MOL0     C76281  10.812   9.658   3.334  0.1623  0.9119 -0.5705
  566MOL0     C76282  10.676   9.672   3.344  0.4245  0.3254  0.2997
  566MOL0     O76283  10.595   9.636   3.453  0.3059  0.7698  0.5609
  566MOL0     C76284  10.652   9.591   3.575 -0.2231  0.6816 -0.4447
  566MOL0     C76285  10.700   9.447   3.572 -0.6632 -0.2372  0.3503
  566MOL0     C76286  10.592   9.348   3.534  0.1612 -0.0338  0.6558
  566MOL0     C76287  10.636   9.204   3.504 -0.2244  0.4143  0.3890
  566MOL0     C76288  10.516   9.108   3.484  1.2336 -0.5212  0.7161
  566MOL0     C76289  10.550   8.975   3.418  0.5426  0.6129  0.1103
  566MOL0     C76290  10.420   8.913   3.372 -0.0324 -0.1452  0.5743
  566MOL0     C76291  10.423   8.762   3.357 -0.2541 -0.5801 -0.7641
  566MOL0     N76292  10.438   8.720   3.207 -0.3828  0.3404  0.3093
  566MOL0     C76293  10.526   8.771   3.114 -0.5634 -0.8103 -0.5579
  566MOL0     C76294  10.513   8.702   3.002 -0.1252 -0.6491 -0.1737
  566MOL0     C76295  10.590   8.752   2.885  0.6504 -0.0299 -1.1486
  566MOL0     C76296  10.506   8.830   2.785  0.8047 -0.1621  0.4227
  566MOL0     C76297  10.474   8.974   2.848 -0.1482 -0.2985 -0.6272
  566MOL0     C76298  10.397   9.067   2.755  0.0085 -0.6366 -0.3595
  566MOL0     O76299  10.263   9.018   2.734  0.0447 -0.0740 -0.2864
  566MOL0     C76300  10.178   9.107   2.672  0.3834 -0.1531 -0.9093
  566MOL0     C76301  10.037   9.088   2.680  0.1693 -0.6779  0.1641
  566MOL0     C76302   9.939   9.171   2.629 -1.1722 -0.2564  0.1741
  566MOL0     C76303   9.797   9.119   2.645 -0.0247  0.2208 -0.1180
  566MOL0     C76304   9.988   9.293   2.574  0.4750 -0.2120  0.9917
  566MOL0     C76305   9.893   9.383   2.503  0.5215 -0.4603  1.0089
  566MOL0     O76306   9.756   9.343   2.497  0.1224 -0.7740 -0.0190
  566MOL0     C76307   9.671   9.422   2.434  0.0635  0.5908  0.2772
  566MOL0     C76308   9.682   9.451   2.300 -0.4046 -0.8523 -0.1756
  566MOL0     C76309   9.578   9.517   2.233  0.5616  0.4714 -0.8394
  566MOL0     C76310   9.470   9.574   2.312  0.5559 -0.3314  0.6397
  566MOL0     O76311   9.369   9.648   2.252  0.5391 -0.0405  0.1901
  566MOL0     C76312   9.322   9.767   2.322  0.0249 -0.6484 -0.0328
  566MOL0     C76313   9.245   9.873   2.234  0.3321 -0.6149 -0.1343
  566MOL0     C76314   9.346   9.928   2.132 -0.5112  0.0728  0.0907
  566MOL0     C76315   9.304  10.069   2.084  0.6316 -0.1174  0.2127
  566MOL0     C76316   9.389  10.130   1.967  0.5606  0.7165 -0.7122
  566MOL0     C76317   9.321  10.244   1.897  0.9590  0.4087  0.7833
  566MOL0     C76318   9.323  10.378   1.978 -0.1056  0.2262 -0.1829
  566MOL0     C76319   9.459  10.426   2.006 -0.3566 -0.0535 -0.2578
  566MOL0    Cl76320   9.449  10.590   2.073  0.3126  0.0787  0.5033
  566MOL0     C76321   9.461   9.545   2.448 -0.1750  0.9490 -0.3061
  566MOL0     C76322   9.565   9.468   2.510 -0.4491 -1.1546 -0.0625
  566MOL0     O76323   9.929   9.494   2.464  0.4175 -0.2087 -0.8173
  566MOL0     C76324  10.125   9.323   2.573  1.0216 -0.5520  0.1651
  566MOL0     C76325  10.219   9.231   2.615  0.3676  0.0437 -0.1055
  566MOL0     N76326  10.437   8.588   3.022  0.2442 -0.2951 -0.0907
  566MOL0     N76327  10.403   8.602   3.146  0.4627  0.4307  0.2860
  566MOL0     C76328  10.601   9.685   3.225  0.2277 -0.5175 -0.0011
  566MOL0     C76329  10.662   9.683   3.098  0.7116 -0.1438 -0.5641
  566MOL0     C76330  10.938   9.661   2.741  0.8222 -0.8690  0.0695
  566MOL0     C76331  11.022   9.551   2.760 -0.4898  0.0397  0.6745
  566MOL0     C76332  11.092   9.511   2.642  0.3985 -0.2759 -0.0317
  566MOL0     C76333  11.076   9.575   2.520 -0.2297 -0.3118 -0.2883
  566MOL0     O76334  11.127   9.508   2.416 -0.0313  0.8883 -0.2910
  566MOL0     C76335  11.192   9.588   2.324 -1.4154 -0.0585  1.0849
  566MOL0     C76336  11.275   9.516   2.209  0.4239 -0.7383 -0.4727
  566MOL0     C76337  11.326   9.382   2.241 -0.8610  0.1873  0.2831
  566MOL0     C76338  11.462   9.394   2.309 -0.0924 -0.2867 -0.0977
  566MOL0     C76339  11.520   9.273   2.375  0.3252 -0.2181  0.3224
  566MOL0     C76340  11.548   9.158   2.395  0.5912 -0.1217 -0.2405
  566MOL0     C76341  11.005   9.690   2.508 -0.1334 -0.2620  0.2102
  566MOL0     C76342  10.942   9.738   2.622 -0.2270  0.3064 -0.5781
  566MOL0     H76343  10.983   9.634   3.198 -0.0195  2.2037  2.7467
  566MOL0     H76344  10.867   9.637   3.425 -2.8019  2.5159  1.7836
  566MOL0     H76345  10.729   9.658   3.614 -0.8448  0.4592  1.2677
  566MOL0     H76346  10.571   9.596   3.648  1.2421 -0.2527  1.3363
  566MOL0     H76347  10.789   9.444   3.508 -0.4979 -2.3173  0.6060
  566MOL0     H76348  10.731   9.419   3.673  1.5745  3.2725  0.7796
  566MOL0     H76349  10.513   9.353   3.609 -0.1569  0.6878  0.2829
  566MOL0     H76350  10.569   9.389   3.436  0.9204 -0.7800  0.1546
  566MOL0     H76351  10.693   9.198   3.412 -0.5218 -3.3713  0.2623
  566MOL0     H76352  10.694   9.174   3.592  0.9207  0.1463 -0.4343
  566MOL0     H76353  10.468   9.098   3.582 -0.6678  1.7202  0.1193
  566MOL0     H76354  10.452   9.161   3.412 -0.2963 -0.6516  1.9226
  566MOL0     H76355  10.610   8.976   3.327 -0.6713  0.0640 -0.7236
  566MOL0     H76356  10.598   8.901   3.483 -1.4075 -1.3630 -0.5827
  566MOL0     H76357  10.340   8.936   3.443 -1.1351 -1.0550 -0.3524
  566MOL0     H76358  10.394   8.968   3.281 -1.5559  0.4370  1.3214
  566MOL0     H76359  10.330   8.713   3.387  1.2468 -4.8999 -2.3741
  566MOL0     H76360  10.503   8.712   3.412 -2.2695 -4.7433 -1.2053
  566MOL0     H76361  10.592   8.856   3.132 -0.1605 -0.9800 -1.2098
  566MOL0     H76362  10.685   8.791   2.922  2.6460 -3.4883 -2.0704
  566MOL0     H76363  10.629   8.664   2.833 -1.0557 -0.4145 -1.8683
  566MOL0     H76364  10.412   8.781   2.759  0.9877 -0.1868 -0.2049
  566MOL0     H76365  10.559   8.839   2.690 -0.2715 -0.8520 -0.2647
  566MOL0     H76366  10.570   9.020   2.872 -0.8292  0.9273 -0.1171
  566MOL0     H76367  10.417   8.968   2.941 -0.2975  2.3849 -0.4599
  566MOL0     H76368  10.454   9.057   2.663  0.6977 -0.3253  0.0224
  566MOL0     H76369  10.404   9.174   2.781  0.1625 -0.5124 -0.9030
  566MOL0     H76370  10.009   9.004   2.742  4.0761 -2.0443  0.3431
  566MOL0     H76371   9.743   9.181   2.718  0.3193 -2.3966  2.5497
  566MOL0     H76372   9.736   9.117   2.555  2.1032  0.2817 -1.6368
  566MOL0     H76373   9.789   9.017   2.684 -1.0920  0.8001  1.2775
  566MOL0     H76374   9.762   9.400   2.248  1.1034  0.5010  0.7411
  566MOL0     H76375   9.580   9.533   2.126  1.4230  1.4064 -0.6992
  566MOL0     H76376   9.238   9.738   2.387 -0.1311 -1.6019 -0.6414
  566MOL0     H76377   9.398   9.817   2.383  0.4618 -1.5687  0.1911
  566MOL0     H76378   9.158   9.838   2.177  0.6282 -1.2748 -0.1910
  566MOL0     H76379   9.213   9.948   2.307  1.0888  0.9240 -1.3346
  566MOL0     H76380   9.350   9.859   2.048  0.6405  0.0583  0.1496
  566MOL0     H76381   9.443   9.927   2.181 -1.0008 -0.0290  1.0825
  566MOL0     H76382   9.201  10.056   2.052  0.6820 -3.0680  0.9815
  566MOL0     H76383   9.316  10.127   2.176 -0.6575 -2.0297  1.6802
  566MOL0     H76384   9.391  10.047   1.895 -1.9046 -2.9474  3.0051
  566MOL0     H76385   9.485  10.162   2.009 -1.2264  2.0203  2.7438
  566MOL0     H76386   9.380  10.265   1.806 -0.8644 -0.9641 -0.8013
  566MOL0     H76387   9.214  10.228   1.883  0.0117  3.3725  3.4633
  566MOL0     H76388   9.259  10.373   2.066  2.3591  0.0658  1.7046
  566MOL0     H76389   9.289  10.461   1.915  1.3228  0.5492 -0.5537
  566MOL0     H76390   9.508  10.425   1.908 -2.0922 -2.2740 -1.1837
  566MOL0     H76391   9.506  10.373   2.089 -1.9832 -0.9732  0.1339
  566MOL0     H76392   9.378   9.588   2.504  0.4887 -0.3961  1.8429
  566MOL0     H76393   9.557   9.464   2.618 -2.1812  0.9366 -0.0392
  566MOL0     H76394  10.171   9.415   2.539  3.3863 -0.7968  2.3947
  566MOL0     H76395  10.325   9.255   2.605  1.1056 -1.1500  3.3727
  566MOL0     H76396  10.492   9.687   3.229  0.0497 -1.5523 -2.3985
  566MOL0     H76397  10.593   9.681   3.014  1.3372  1.4257 -1.1548
  566MOL0     H76398  11.026   9.490   2.849 -0.5554  1.6346  1.8077
  566MOL0     H76399  11.145   9.417   2.644 -0.4737 -0.7721  0.0139
  566MOL0     H76400  11.126   9.655   2.268 -0.7258  0.9386  1.4376
  566MOL0     H76401  11.273   9.636   2.380 -0.8870  0.4800 -0.1207
  566MOL0     H76402  11.344   9.581   2.154 -0.9031 -0.9045 -2.4442
  566MOL0     H76403  11.195   9.513   2.134  1.5080 -1.4000 -1.6316
  566MOL0     H76404  11.332   9.317   2.153 -0.4081 -0.7264  0.9760
  566MOL0     H76405  11.256   9.339   2.313 -1.6717 -0.1365 -0.6706
  566MOL0     H76406  11.443   9.465   2.390 -2.5188  0.3430 -1.1370
  566MOL0     H76407  11.541   9.443   2.252 -0.8191  1.3841  0.2846
  566MOL0     H76408  11.575   9.055   2.406  0.2643 -0.0044  2.1541
  566MOL0     H76409  10.991   9.736   2.411 -1.4113  1.5334  1.1816
  566MOL0     H76410  10.880   9.827   2.619  0.8881  1.3609  2.7631
  567MOL0     O76411   0.771  11.108   0.836  0.7219 -0.5035 -0.0956
  567MOL0     C76412   0.863  11.032   0.849 -0.2989 -0.2599  0.4362
  567MOL0     O76413   0.968  11.029   0.759  0.2960 -0.4943 -0.0607
  567MOL0     C76414   0.981  11.114   0.648  0.7306 -0.5878 -0.4751
  567MOL0     C76415   1.053  11.232   0.649 -0.0519  0.2164  0.2645
  567MOL0     C76416   1.080  11.299   0.527  0.4174  0.0291 -0.2837
  567MOL0     C76417   1.044  11.248   0.405 -0.3562  0.1404  0.3157
  567MOL0     O76418   1.063  11.331   0.298 -0.5239  0.5333  0.3461
  567MOL0     C76419   0.972  11.342   0.184 -0.1050  0.4590  0.1699
  567MOL0     C76420   1.042  11.444   0.092  0.7098  0.5885  0.2583
  567MOL0     C76421   1.072  11.590   0.153  0.3692  0.0666 -0.2105
  567MOL0     C76422   0.954  11.644   0.244 -0.1327  0.0402  0.4560
  567MOL0     C76423   0.944  11.788   0.215 -0.5131  0.2557  0.3099
  567MOL0     C76424   0.860  11.855   0.324 -0.0814  0.5773 -1.1669
  567MOL0     C76425   0.836  12.003   0.296 -0.5776  0.5970  0.1994
  567MOL0     C76426   0.982  12.076   0.305  0.9389  0.5873 -0.2811
  567MOL0     N76427   0.950  12.216   0.338  0.5666 -0.1316  0.1656
  567MOL0     C76428   0.898  12.302   0.249  0.2977  0.9220 -0.4149
  567MOL0     C76429   0.820  12.388   0.328 -0.0780 -0.1064  0.0718
  567MOL0     C76430   0.732  12.496   0.283  1.4379 -0.8582  0.2685
  567MOL0     C76431   0.691  12.471   0.128 -0.4939  0.0130  1.0019
  567MOL0     C76432   0.588  12.569   0.084 -0.4362 -0.7635 -0.2717
  567MOL0     C76433   0.517  12.555  -0.057  0.0502 -0.0559  0.1952
  567MOL0     O76434   0.622  12.570  -0.164 -0.3344  0.4189  0.3088
  567MOL0     C76435   0.590  12.633  -0.285  0.3017  0.8760 -0.3757
  567MOL0     C76436   0.678  12.720  -0.341  0.5375  0.1663 -0.3648
  567MOL0     C76437   0.665  12.777  -0.471  0.6885 -0.3292 -0.6628
  567MOL0     C76438   0.754  12.897  -0.506 -0.3146  1.2279  0.5945
  567MOL0     C76439   0.553  12.743  -0.549  1.0871 -0.1154  1.0137
  567MOL0     C76440   0.523  12.805  -0.683  1.2868 -0.6596 -0.0779
  567MOL0     O76441   0.396  12.823  -0.721 -0.6674  0.1258  0.4774
  567MOL0     C76442   0.377  12.890  -0.842 -0.0055 -0.5679 -0.0860
  567MOL0     C76443   0.265  12.844  -0.909  0.7113 -0.2337 -0.2408
  567MOL0     C76444   0.237  12.900  -1.036 -0.6200  0.3443 -0.3213
  567MOL0     C76445   0.307  13.010  -1.084  0.1266  0.2207  0.1460
  567MOL0     O76446   0.273  13.054  -1.212 -1.2784  0.3515  0.0452
  567MOL0     C76447   0.244  13.198  -1.217 -0.0493  0.3789 -0.2030
  567MOL0     C76448   0.137  13.220  -1.319 -0.4893 -0.7810  0.2962
  567MOL0     C76449   0.167  13.149  -1.456 -0.4002 -0.3155 -0.0831
  567MOL0     C76450   0.054  13.147  -1.557 -0.1593 -0.5243 -0.1286
  567MOL0     C76451   0.087  13.072  -1.680  0.0859  0.4539 -0.4784
  567MOL0     C76452  -0.033  13.050  -1.772  0.2719  0.0899  0.1010
  567MOL0     C76453   0.020  12.967  -1.888  0.7260 -0.1084 -0.5934
  567MOL0     C76454  -0.099  12.958  -1.985 -0.2062 -0.3852  0.4524
  567MOL0    Cl76455  -0.251  12.907  -1.913 -0.4844  0.0736  0.2887
  567MOL0     C76456   0.423  13.039  -1.023  0.5641 -0.2058 -0.2924
  567MOL0     C76457   0.465  12.986  -0.905 -0.0168  0.1667 -0.3258
  567MOL0     O76458   0.618  12.829  -0.752 -0.2983  0.2883  0.4144
  567MOL0     C76459   0.461  12.652  -0.495 -0.3121  0.3066 -0.5309
  567MOL0     C76460   0.479  12.597  -0.378 -0.9248 -0.2783 -0.6997
  567MOL0     N76461   0.845  12.363   0.460  1.0909  0.0710 -0.4733
  567MOL0     N76462   0.918  12.261   0.460 -0.4453 -0.1259 -0.3229
  567MOL0     C76463   0.969  11.126   0.399 -0.1197 -0.6276  0.0505
  567MOL0     C76464   0.938  11.062   0.519 -0.5208 -0.5315 -0.2323
  567MOL0     C76465   0.857  10.935   0.957 -0.7823 -0.5267  0.2968
  567MOL0     C76466   0.981  10.876   0.985 -0.6456 -0.0971 -0.1897
  567MOL0     C76467   0.997  10.809   1.113 -1.0206  0.2600 -0.4126
  567MOL0     C76468   0.877  10.792   1.189 -0.5167 -0.5512  0.2678
  567MOL0     O76469   0.872  10.727   1.308 -0.2840  0.0694 -0.0596
  567MOL0     C76470   0.996  10.681   1.379 -0.1569 -0.4256  1.1150
  567MOL0     C76471   0.949  10.639   1.517 -0.5333 -0.2964  0.8327
  567MOL0     C76472   0.926  10.752   1.618 -0.5528 -0.3015  0.9816
  567MOL0     C76473   0.850  10.692   1.734 -0.0031  0.1833  0.1185
  567MOL0     C76474   0.792  10.801   1.818 -0.5157 -1.1135 -0.0698
  567MOL0     C76475   0.756  10.881   1.902 -0.4345  0.6100 -0.4884
  567MOL0     C76476   0.753  10.840   1.150 -0.6261 -1.1572  0.2607
  567MOL0     C76477   0.747  10.912   1.032 -0.1332 -0.2799 -0.3645
  567MOL0     H76478   1.086  11.281   0.740 -0.4536 -1.2421  1.2279
  567MOL0     H76479   1.139  11.390   0.536  0.2060 -0.0093  2.0427
  567MOL0     H76480   0.963  11.246   0.132 -1.7702  2.8673 -4.6260
  567MOL0     H76481   0.873  11.383   0.207 -0.0395  2.8269 -3.0195
  567MOL0     H76482   1.137  11.409   0.052 -0.2098  0.1568 -1.6513
  567MOL0     H76483   0.977  11.457   0.005 -1.5726  2.5719  2.1004
  567MOL0     H76484   1.156  11.593   0.224 -0.5536  1.2083  0.8910
  567MOL0     H76485   1.091  11.654   0.066  1.9289  1.3096  0.9732
  567MOL0     H76486   0.853  11.602   0.238  0.1710 -0.8639  1.3681
  567MOL0     H76487   0.984  11.628   0.347  0.4034 -0.6608  0.1973
  567MOL0     H76488   1.042  11.836   0.220 -1.6243  2.5673  2.3857
  567MOL0     H76489   0.907  11.805   0.114  2.0446  1.0359 -0.5661
  567MOL0     H76490   0.760  11.810   0.331  0.8344 -1.4596  0.0074
  567MOL0     H76491   0.914  11.854   0.419 -3.6728  3.1220  1.1875
  567MOL0     H76492   0.775  12.017   0.207 -1.5338  2.9964  1.1412
  567MOL0     H76493   0.782  12.042   0.383  3.0721  1.1609  2.4140
  567MOL0     H76494   1.025  12.074   0.204 -0.3336 -0.5548 -0.8305
  567MOL0     H76495   1.039  12.035   0.388 -2.6047 -0.2113  1.9767
  567MOL0     H76496   0.907  12.294   0.141  3.1120 -1.3740 -0.1382
  567MOL0     H76497   0.648  12.511   0.352  0.7560 -1.4535 -0.4045
  567MOL0     H76498   0.797  12.583   0.285  1.2787 -0.7327 -0.1154
  567MOL0     H76499   0.645  12.371   0.121  0.8612 -0.5313 -1.2707
  567MOL0     H76500   0.773  12.473   0.056  1.0963 -0.6899  2.7343
  567MOL0     H76501   0.635  12.668   0.092  1.2111 -1.5030 -0.4539
  567MOL0     H76502   0.506  12.568   0.157  1.5013 -2.5784  2.0488
  567MOL0     H76503   0.438  12.629  -0.070 -0.0192 -0.1271  0.2106
  567MOL0     H76504   0.473  12.455  -0.057 -2.3480  0.9222  1.5814
  567MOL0     H76505   0.756  12.750  -0.272 -0.3515 -0.9263  1.1649
  567MOL0     H76506   0.777  12.953  -0.415 -0.8369  1.0701  0.8254
  567MOL0     H76507   0.842  12.864  -0.562 -2.1553 -0.5006 -1.4720
  567MOL0     H76508   0.697  12.966  -0.568 -0.1103  1.1939  0.3692
  567MOL0     H76509   0.207  12.765  -0.863  0.7459 -0.7740 -1.0981
  567MOL0     H76510   0.153  12.858  -1.089 -0.7123  0.0349  0.0662
  567MOL0     H76511   0.218  13.232  -1.116 -1.6818 -1.9332  0.2296
  567MOL0     H76512   0.330  13.261  -1.242 -0.0225 -0.2076 -1.6731
  567MOL0     H76513   0.045  13.180  -1.276  0.1604 -1.9814  0.5904
  567MOL0     H76514   0.133  13.328  -1.339  4.1606 -0.3004  0.9192
  567MOL0     H76515   0.191  13.043  -1.438 -0.7240 -0.1521  1.5080
  567MOL0     H76516   0.247  13.195  -1.515 -0.6789  0.4842  0.1507
  567MOL0     H76517  -0.035  13.107  -1.507 -0.2279  1.4907  1.4687
  567MOL0     H76518   0.039  13.251  -1.585  1.7277  0.3294  1.7363
  567MOL0     H76519   0.115  12.973  -1.644  2.9078  1.3753  0.2005
  567MOL0     H76520   0.174  13.110  -1.736 -0.1065 -2.1327 -2.7202
  567MOL0     H76521  -0.100  12.994  -1.706 -2.1436 -0.2187 -2.4301
  567MOL0     H76522  -0.083  13.141  -1.807  1.4647  0.7705  0.0991
  567MOL0     H76523   0.054  12.868  -1.854 -0.8177  0.0156  1.5826
  567MOL0     H76524   0.097  13.029  -1.934 -0.1513  0.7522 -0.9391
  567MOL0     H76525  -0.057  12.886  -2.055  0.2387 -0.6668  0.9982
  567MOL0     H76526  -0.111  13.049  -2.043 -1.7988 -0.2113  0.9975
  567MOL0     H76527   0.496  13.106  -1.067  0.0060  1.1872  0.8284
  567MOL0     H76528   0.560  13.013  -0.860 -0.5314  2.0044 -0.2853
  567MOL0     H76529   0.371  12.627  -0.549 -1.0022  3.9351 -1.3184
  567MOL0     H76530   0.404  12.528  -0.341 -0.8761  0.1496  0.2168
  567MOL0     H76531   0.928  11.103   0.302 -1.6973  4.4046 -0.7661
  567MOL0     H76532   0.877  10.973   0.508 -0.1562 -0.7191 -0.7803
  567MOL0     H76533   1.069  10.890   0.923  1.4714  0.3671  2.7309
  567MOL0     H76534   1.097  10.772   1.136 -0.0502  2.8762 -0.1256
  567MOL0     H76535   1.057  10.606   1.329  0.2656 -0.8314  2.2189
  567MOL0     H76536   1.060  10.766   1.407 -1.1067  0.1969  1.4627
  567MOL0     H76537   1.013  10.562   1.560  2.2007  1.6363  0.4803
  567MOL0     H76538   0.852  10.594   1.492  0.5643 -1.4886 -1.6015
  567MOL0     H76539   0.873  10.832   1.566 -2.0494 -1.0089  1.3800
  567MOL0     H76540   1.024  10.783   1.656 -0.6262 -3.6827  4.5384
  567MOL0     H76541   0.918  10.624   1.786  2.1260 -0.5020 -3.2529
  567MOL0     H76542   0.764  10.629   1.709 -1.5048  1.9482  0.6323
  567MOL0     H76543   0.729  10.938   1.988  1.2907  1.9529 -0.7709
  567MOL0     H76544   0.664  10.827   1.211 -0.5454 -3.5132 -0.0257
  567MOL0     H76545   0.651  10.955   1.003  0.2302  0.5096 -0.4289
  568MOL0     O76546   4.338   1.930   4.882 -0.0370 -0.0389 -0.0842
  568MOL0     C76547   4.224   1.893   4.886  1.1804 -0.7500 -0.0807
  568MOL0     O76548   4.175   1.821   4.991  0.0850 -0.5683 -0.1812
  568MOL0     C76549   4.262   1.799   5.098  0.1124  0.0888  0.0858
  568MOL0     C76550   4.399   1.752   5.081  0.5327 -0.5602 -0.0299
  568MOL0     C76551   4.480   1.730   5.193  0.5716  0.7260 -1.5345
  568MOL0     C76552   4.419   1.725   5.321  1.3781 -0.0934 -0.4059
  568MOL0     O76553   4.507   1.703   5.427  0.4744 -1.1292  0.1429
  568MOL0     C76554   4.456   1.604   5.524  0.3249 -0.5273 -0.8647
  568MOL0     C76555   4.582   1.531   5.563  0.3034  0.3874 -0.3719
  568MOL0     C76556   4.689   1.618   5.638  0.2788 -0.0416  0.4221
  568MOL0     C76557   4.689   1.602   5.786 -1.6840  0.8294  0.3829
  568MOL0     C76558   4.831   1.635   5.843  0.2267  0.6900  0.0832
  568MOL0     C76559   4.827   1.622   5.993 -0.7994  0.2398  0.0840
  568MOL0     C76560   4.960   1.684   6.045  0.8776  0.8487 -0.7382
  568MOL0     C76561   4.978   1.652   6.199  0.2927 -0.1865  0.5760
  568MOL0     N76562   4.987   1.501   6.226 -0.4738 -0.9071  0.1182
  568MOL0     C76563   5.100   1.422   6.226  0.7306 -0.1609  0.7970
  568MOL0     C76564   5.052   1.300   6.283  0.3665  0.4650 -0.1251
  568MOL0     C76565   5.145   1.184   6.309  0.0561 -0.2633  0.9848
  568MOL0     C76566   5.164   1.088   6.186 -0.6923  1.7682 -0.3719
  568MOL0     C76567   5.213   0.945   6.239 -0.0544 -0.5542  0.3554
  568MOL0     C76568   5.334   0.957   6.325  0.6146 -0.4741  0.7482
  568MOL0     O76569   5.392   0.838   6.358 -0.8314  0.7240  1.1632
  568MOL0     C76570   5.445   0.754   6.265 -0.5946 -1.2273  0.7100
  568MOL0     C76571   5.489   0.783   6.137 -0.2951 -0.0848 -0.1687
  568MOL0     C76572   5.558   0.692   6.061 -0.1832  1.1332  1.0109
  568MOL0     C76573   5.623   0.725   5.931 -0.2858 -0.3933  0.1852
  568MOL0     C76574   5.586   0.559   6.110  0.0224 -0.0578 -0.9058
  568MOL0     C76575   5.664   0.447   6.053  0.1848 -0.5807 -0.4009
  568MOL0     O76576   5.654   0.329   6.115 -0.1360  0.1341 -1.1269
  568MOL0     C76577   5.708   0.202   6.091  1.0979  0.0962 -0.0130
  568MOL0     C76578   5.828   0.180   6.024  0.1348 -0.6604  0.1194
  568MOL0     C76579   5.865   0.058   5.979 -0.7673 -0.0707  0.0314
  568MOL0     C76580   5.783  -0.048   6.011  0.0062  0.3793  0.5180
  568MOL0     O76581   5.838  -0.168   5.981 -1.0286 -0.5986 -0.8190
  568MOL0     C76582   5.777  -0.290   6.014  0.4310  0.5527  0.4345
  568MOL0     C76583   5.866  -0.407   5.967 -0.4632 -0.1090  1.4367
  568MOL0     C76584   5.817  -0.543   6.002 -0.8348  0.0733  0.1909
  568MOL0     C76585   5.697  -0.593   5.921 -0.4930 -0.4660 -0.0183
  568MOL0     C76586   5.636  -0.706   5.999  0.1518 -0.4654 -0.3672
  568MOL0     C76587   5.722  -0.832   6.017  0.5251 -0.0928  1.1807
  568MOL0     C76588   5.759  -0.893   5.882 -0.1250  0.2616  0.1089
  568MOL0     C76589   5.735  -1.042   5.887 -0.3211 -0.9098  0.1420
  568MOL0    Cl76590   5.825  -1.127   5.755 -0.3193  0.1414 -0.1618
  568MOL0     C76591   5.655  -0.027   6.070 -0.5781  0.8746 -0.6973
  568MOL0     C76592   5.626   0.096   6.115  0.1235 -0.0489 -0.4001
  568MOL0     O76593   5.717   0.460   5.940  0.1267 -0.1143  0.1955
  568MOL0     C76594   5.528   0.529   6.240  0.7524  0.7511  0.6940
  568MOL0     C76595   5.475   0.628   6.314  0.2488 -0.3293 -0.8215
  568MOL0     N76596   4.915   1.312   6.310 -0.7070 -0.1768  0.1134
  568MOL0     N76597   4.884   1.430   6.281 -0.0181  0.4665  0.4540
  568MOL0     C76598   4.279   1.762   5.331 -0.5398 -0.2431 -0.0130
  568MOL0     C76599   4.205   1.801   5.222  0.2292 -0.1921  0.2995
  568MOL0     C76600   4.130   1.923   4.778 -0.4748  0.3932  0.5292
  568MOL0     C76601   3.997   1.884   4.794 -0.3195  0.2835 -0.3437
  568MOL0     C76602   3.905   1.895   4.696 -0.6437 -0.5269 -0.4899
  568MOL0     C76603   3.942   1.952   4.573 -0.3336  0.2579  1.0895
  568MOL0     O76604   3.857   1.962   4.458  0.6882 -0.8085 -0.4031
  568MOL0     C76605   3.712   1.923   4.463  0.1634 -0.3869  0.0264
  568MOL0     C76606   3.647   2.040   4.391  0.0376  0.5504  0.3478
  568MOL0     C76607   3.653   2.176   4.457 -0.2320 -0.1937  0.3115
  568MOL0     C76608   3.610   2.290   4.369 -0.8922 -0.6614  0.1232
  568MOL0     C76609   3.477   2.271   4.309 -1.4061 -0.3856  0.7832
  568MOL0     C76610   3.366   2.227   4.270 -0.9307 -0.1663  0.2951
  568MOL0     C76611   4.078   1.997   4.547  0.1046 -1.2178 -0.5030
  568MOL0     C76612   4.171   1.982   4.656 -0.2910 -0.8994 -0.4096
  568MOL0     H76613   4.443   1.733   4.983  0.1758  0.5673 -0.4204
  568MOL0     H76614   4.585   1.700   5.200  0.3221  0.2968  1.7399
  568MOL0     H76615   4.398   1.649   5.604 -0.6537  1.3986 -2.5568
  568MOL0     H76616   4.387   1.539   5.470  0.2509 -1.8961  0.8067
  568MOL0     H76617   4.550   1.449   5.628  0.8338 -0.2569 -0.9041
  568MOL0     H76618   4.612   1.491   5.466  1.7333 -2.2107  1.0377
  568MOL0     H76619   4.785   1.597   5.590  1.2888 -0.3318  2.4582
  568MOL0     H76620   4.673   1.724   5.617 -0.1108 -0.2915 -0.5715
  568MOL0     H76621   4.617   1.671   5.832  0.7427  1.5935  3.4316
  568MOL0     H76622   4.660   1.500   5.812 -0.1735 -0.8719 -3.8092
  568MOL0     H76623   4.901   1.566   5.795 -1.5686 -0.2828 -1.2587
  568MOL0     H76624   4.858   1.738   5.821 -0.5564  0.4004 -2.6218
  568MOL0     H76625   4.745   1.678   6.038 -0.4796  2.3339 -1.7631
  568MOL0     H76626   4.821   1.518   6.027  1.6283  0.5293  1.6624
  568MOL0     H76627   5.038   1.628   5.992  1.1272 -0.6141  1.0431
  568MOL0     H76628   4.956   1.791   6.026  0.4965  0.8611 -0.5914
  568MOL0     H76629   4.902   1.698   6.262  1.2476 -1.0438  2.4288
  568MOL0     H76630   5.073   1.705   6.215  0.4401  0.7627 -2.7655
  568MOL0     H76631   5.199   1.452   6.192 -0.0768  1.6438 -0.0688
  568MOL0     H76632   5.241   1.220   6.347  1.4411 -2.1192 -0.5357
  568MOL0     H76633   5.100   1.131   6.394 -1.8705 -2.2668 -1.1501
  568MOL0     H76634   5.235   1.138   6.119  0.3582 -0.7817 -1.2888
  568MOL0     H76635   5.070   1.074   6.133 -0.7186 -2.0011  0.3802
  568MOL0     H76636   5.242   0.883   6.154  0.9035 -0.8939  0.9127
  568MOL0     H76637   5.136   0.896   6.300  1.3767 -0.5271  2.2832
  568MOL0     H76638   5.302   0.998   6.421  3.5257  0.2959  1.4853
  568MOL0     H76639   5.401   1.037   6.292 -0.5338  0.3589  0.3785
  568MOL0     H76640   5.470   0.886   6.107 -0.5799  0.4693  1.7912
  568MOL0     H76641   5.727   0.690   5.932  0.1964  0.9692  1.1766
  568MOL0     H76642   5.574   0.682   5.844 -0.9496  2.2318 -0.8360
  568MOL0     H76643   5.636   0.832   5.910  0.5699 -0.1719  1.6504
  568MOL0     H76644   5.900   0.258   6.003 -1.0266  1.3414  2.9339
  568MOL0     H76645   5.961   0.026   5.938  0.2846  1.0605  1.4837
  568MOL0     H76646   5.754  -0.307   6.120 -0.0866 -1.4499  0.0310
  568MOL0     H76647   5.674  -0.285   5.977  0.1123 -1.2716  0.9843
  568MOL0     H76648   5.905  -0.402   5.865 -0.8599 -2.7280  1.0752
  568MOL0     H76649   5.955  -0.404   6.030 -0.6730 -1.4638  1.8318
  568MOL0     H76650   5.787  -0.559   6.106 -2.3742  0.3934 -0.1770
  568MOL0     H76651   5.897  -0.614   5.977 -1.7330 -1.0539  0.4713
  568MOL0     H76652   5.628  -0.510   5.905 -0.1118  0.5109  2.8016
  568MOL0     H76653   5.730  -0.631   5.824  1.8521  1.0564  0.1048
  568MOL0     H76654   5.538  -0.733   5.957 -0.2295 -0.9102  0.7498
  568MOL0     H76655   5.599  -0.663   6.093 -2.8692 -0.8120 -1.2778
  568MOL0     H76656   5.819  -0.812   6.063  2.4569 -4.8235 -0.2746
  568MOL0     H76657   5.668  -0.903   6.081  0.6929 -0.5344  0.8342
  568MOL0     H76658   5.867  -0.875   5.877 -0.4247  2.1409 -0.1138
  568MOL0     H76659   5.716  -0.842   5.796  0.6335  0.9605  0.1371
  568MOL0     H76660   5.627  -1.058   5.875 -1.0016  2.6303  0.5352
  568MOL0     H76661   5.755  -1.087   5.985 -1.7740 -2.3637 -0.1818
  568MOL0     H76662   5.590  -0.112   6.085  0.8502 -0.7187 -2.7945
  568MOL0     H76663   5.530   0.101   6.166  0.1670  0.6017 -0.3672
  568MOL0     H76664   5.542   0.428   6.276  1.6582 -0.6819 -3.2223
  568MOL0     H76665   5.466   0.607   6.421 -0.4657  0.9981 -0.6013
  568MOL0     H76666   4.225   1.742   5.424 -1.7921 -1.0866 -0.8875
  568MOL0     H76667   4.098   1.815   5.226  0.6792  4.7752  1.0150
  568MOL0     H76668   3.968   1.831   4.884  0.9999  1.8409  1.0692
  568MOL0     H76669   3.801   1.865   4.704 -0.5812 -0.3619  1.2165
  568MOL0     H76670   3.703   1.837   4.396 -0.9326 -0.1226 -0.1824
  568MOL0     H76671   3.666   1.917   4.562 -1.4327 -1.6720 -0.7473
  568MOL0     H76672   3.541   2.015   4.381  0.0422 -0.0260  1.5165
  568MOL0     H76673   3.685   2.045   4.289 -0.5850 -0.6742  0.0327
  568MOL0     H76674   3.757   2.197   4.482  0.0178 -1.9739  0.9184
  568MOL0     H76675   3.591   2.179   4.547 -0.2162  0.9273  0.2954
  568MOL0     H76676   3.695   2.302   4.302  1.0539 -0.4116  2.5020
  568MOL0     H76677   3.610   2.374   4.440 -0.4895 -0.9401  0.4570
  568MOL0     H76678   3.271   2.193   4.234 -1.1607  0.1596  0.5795
  568MOL0     H76679   4.105   2.032   4.447  1.1512  1.7057  0.6997
  568MOL0     H76680   4.267   2.024   4.630 -1.6137  2.2365 -0.7293
  569MOL0     O76681   4.050   9.065   0.003 -0.1989 -0.8225 -0.0301
  569MOL0     C76682   4.033   9.172   0.075 -0.3067 -0.1388 -0.1826
  569MOL0     O76683   4.001   9.302   0.030  0.2407  1.0813  0.5712
  569MOL0     C76684   4.017   9.320  -0.105  0.2652 -0.8334 -0.4796
  569MOL0     C76685   4.146   9.293  -0.161  0.1535  0.3643 -0.1159
  569MOL0     C76686   4.171   9.320  -0.296 -0.5235 -0.5668  0.3009
  569MOL0     C76687   4.075   9.375  -0.384 -0.2549  0.1541  0.6660
  569MOL0     O76688   4.110   9.405  -0.517 -0.3058 -0.4885 -0.6637
  569MOL0     C76689   4.026   9.493  -0.600  0.2064  1.0708  0.3556
  569MOL0     C76690   4.084   9.490  -0.742 -0.3268 -0.1932  0.1973
  569MOL0     C76691   4.015   9.589  -0.837 -0.3620 -0.3900 -0.1584
  569MOL0     C76692   4.021   9.741  -0.788  0.2535 -0.8658 -0.2434
  569MOL0     C76693   4.166   9.789  -0.788 -0.3359  0.0338 -0.3856
  569MOL0     C76694   4.197   9.923  -0.718  0.4067 -0.3598 -0.3059
  569MOL0     C76695   4.131  10.040  -0.791 -0.9387  0.5878  0.3795
  569MOL0     C76696   4.158  10.174  -0.729 -0.1280  0.5131  0.7071
  569MOL0     N76697   4.110  10.191  -0.596 -0.0945  0.4777 -0.4742
  569MOL0     C76698   3.987  10.215  -0.553 -0.6127  0.0090 -1.0224
  569MOL0     C76699   3.990  10.207  -0.418 -0.1026  0.0295 -0.6396
  569MOL0     C76700   3.876  10.234  -0.337  0.1917 -0.7406 -0.4629
  569MOL0     C76701   3.868  10.182  -0.192  0.1816 -0.2326 -1.0585
  569MOL0     C76702   3.885  10.029  -0.181  0.0800 -0.5530 -0.4864
  569MOL0     C76703   3.797   9.949  -0.270  0.1850 -0.3617 -0.1640
  569MOL0     O76704   3.808   9.814  -0.226  0.1642  0.1518 -0.0315
  569MOL0     C76705   3.719   9.726  -0.281 -0.1466  1.4179  0.4098
  569MOL0     C76706   3.715   9.718  -0.416  0.6305  0.7740 -0.1314
  569MOL0     C76707   3.620   9.628  -0.477  0.9205 -0.3840  0.3126
  569MOL0     C76708   3.615   9.639  -0.629  0.0819 -0.1551  0.3523
  569MOL0     C76709   3.546   9.534  -0.397 -0.7823 -0.0938 -0.1688
  569MOL0     C76710   3.450   9.431  -0.441 -0.1540 -0.1475 -0.5591
  569MOL0     O76711   3.378   9.372  -0.340  0.4150  0.1612  0.1858
  569MOL0     C76712   3.280   9.274  -0.375  0.7378 -0.2116 -0.2423
  569MOL0     C76713   3.311   9.158  -0.449 -0.1812 -0.5638 -0.0023
  569MOL0     C76714   3.225   9.052  -0.467  0.5733 -0.3700  0.3394
  569MOL0     C76715   3.099   9.061  -0.408  0.7268 -0.3048  0.2576
  569MOL0     O76716   3.027   8.941  -0.408  0.0993 -0.3428 -0.8345
  569MOL0     C76717   2.894   8.951  -0.336 -0.0510  0.0480  0.0076
  569MOL0     C76718   2.817   8.814  -0.361 -0.1642 -0.3990 -0.0696
  569MOL0     C76719   2.669   8.825  -0.337 -0.6966  0.4834 -0.0173
  569MOL0     C76720   2.628   8.830  -0.184 -0.4762 -0.0469  0.9387
  569MOL0     C76721   2.694   8.710  -0.114 -0.7330  0.2292 -0.6194
  569MOL0     C76722   2.615   8.675   0.019 -0.1899  0.7482 -0.3406
  569MOL0     C76723   2.700   8.581   0.116 -0.2497  0.1641 -0.2891
  569MOL0     C76724   2.596   8.502   0.210 -0.3101 -0.6498 -0.1414
  569MOL0    Cl76725   2.687   8.408   0.331  0.2663  0.1648  0.5460
  569MOL0     C76726   3.064   9.173  -0.331 -0.9898 -0.3757  0.0218
  569MOL0     C76727   3.158   9.284  -0.315 -0.3164  0.4841  0.1197
  569MOL0     O76728   3.456   9.394  -0.557 -0.1523  0.1367 -0.0434
  569MOL0     C76729   3.576   9.540  -0.259 -0.2923  0.1057  0.4039
  569MOL0     C76730   3.645   9.641  -0.203  0.2703  0.3837  0.3160
  569MOL0     N76731   4.119  10.172  -0.380 -0.5187 -0.1908  0.7174
  569MOL0     N76732   4.189  10.157  -0.491  0.1445  0.1603 -0.4531
  569MOL0     C76733   3.948   9.411  -0.325 -0.1225  0.3258  0.0988
  569MOL0     C76734   3.920   9.389  -0.190 -0.0665 -0.5376 -0.3113
  569MOL0     C76735   4.042   9.152   0.220 -0.1986  0.1703 -0.5986
  569MOL0     C76736   4.060   9.261   0.305 -0.2631  0.1183 -0.3350
  569MOL0     C76737   4.065   9.248   0.446  0.1668  0.1577  0.1598
  569MOL0     C76738   4.039   9.124   0.513 -0.1404 -0.5380 -0.5169
  569MOL0     O76739   4.021   9.104   0.647  0.0489 -0.4794  0.5740
  569MOL0     C76740   4.109   9.188   0.720  0.7614 -1.0848 -0.2843
  569MOL0     C76741   4.112   9.182   0.878  0.4961  0.4934 -0.1333
  569MOL0     C76742   4.167   9.303   0.938  0.0356  0.0730 -0.2012
  569MOL0     C76743   4.208   9.295   1.085 -0.4621 -0.8967 -0.3169
  569MOL0     C76744   4.261   9.419   1.149  0.7284 -0.5270  0.4627
  569MOL0     C76745   4.297   9.520   1.214  0.4295  0.1593  0.3883
  569MOL0     C76746   4.013   9.017   0.428 -0.3492  0.8068  0.2722
  569MOL0     C76747   4.020   9.028   0.282 -0.4145  0.2778  0.5233
  569MOL0     H76748   4.214   9.236  -0.098 -0.8918 -1.3432 -0.4684
  569MOL0     H76749   4.270   9.291  -0.328  0.2976  0.0199  2.1930
  569MOL0     H76750   3.921   9.461  -0.606 -0.0407  0.9548  3.4613
  569MOL0     H76751   4.038   9.592  -0.555  3.3783  1.9481 -2.0547
  569MOL0     H76752   4.193   9.497  -0.740 -0.0798 -2.9386  2.3084
  569MOL0     H76753   4.060   9.391  -0.781 -0.9398  0.7630 -2.0168
  569MOL0     H76754   4.062   9.586  -0.935 -1.4226  1.1210 -0.7436
  569MOL0     H76755   3.907   9.569  -0.835 -0.8293  1.6808 -1.6987
  569MOL0     H76756   3.965   9.797  -0.864 -2.0645  2.3152  3.4621
  569MOL0     H76757   3.975   9.771  -0.694 -0.0836  1.0254 -0.9614
  569MOL0     H76758   4.218   9.706  -0.740  1.0345 -0.0547 -1.8960
  569MOL0     H76759   4.209   9.801  -0.888 -1.8357 -0.3448 -1.1089
  569MOL0     H76760   4.164   9.915  -0.614 -1.9312  1.1017 -0.8678
  569MOL0     H76761   4.303   9.948  -0.721 -0.1956  2.6105  0.2133
  569MOL0     H76762   4.178  10.039  -0.890 -0.4938  0.4095  0.5907
  569MOL0     H76763   4.025  10.025  -0.809 -0.3960 -1.3387 -1.7255
  569MOL0     H76764   4.111  10.252  -0.790  0.2216 -0.7893 -1.3420
  569MOL0     H76765   4.265  10.197  -0.725  0.4274 -1.0739 -2.2435
  569MOL0     H76766   3.893  10.228  -0.605 -1.8172 -0.5681  0.8922
  569MOL0     H76767   3.879  10.343  -0.331  2.2004 -0.7535 -0.7469
  569MOL0     H76768   3.782  10.212  -0.389 -0.9492 -0.3491  1.3564
  569MOL0     H76769   3.767  10.213  -0.164  1.9848  2.9254  3.0585
  569MOL0     H76770   3.944  10.220  -0.122 -1.4035 -0.1617  0.7131
  569MOL0     H76771   3.860  10.007  -0.076 -1.3160 -1.7262 -1.0296
  569MOL0     H76772   3.988  10.015  -0.214 -0.1939 -0.9897 -1.1699
  569MOL0     H76773   3.832   9.957  -0.374 -0.3625 -4.0248 -0.7649
  569MOL0     H76774   3.692   9.981  -0.265  0.7133  1.6660 -1.0584
  569MOL0     H76775   3.787   9.768  -0.481  2.0751 -1.0697 -0.0102
  569MOL0     H76776   3.513   9.620  -0.660 -0.3643 -1.0104  2.1746
  569MOL0     H76777   3.640   9.742  -0.659 -1.0281 -0.3221 -1.1951
  569MOL0     H76778   3.684   9.567  -0.673  0.4223  1.6513 -2.2952
  569MOL0     H76779   3.414   9.140  -0.478 -0.0868 -3.8099  1.8915
  569MOL0     H76780   3.266   8.969  -0.524 -0.1538 -0.5119  0.0107
  569MOL0     H76781   2.906   8.977  -0.231 -0.4349  0.1857  0.0183
  569MOL0     H76782   2.835   9.030  -0.383 -0.1419 -0.3293 -0.5306
  569MOL0     H76783   2.826   8.786  -0.467 -1.2669 -0.8544 -0.0519
  569MOL0     H76784   2.856   8.726  -0.309 -1.9410 -2.7208 -2.3763
  569MOL0     H76785   2.621   8.735  -0.377 -2.4770  1.3011  0.1465
  569MOL0     H76786   2.625   8.909  -0.393 -0.8528  1.3892  1.4269
  569MOL0     H76787   2.664   8.921  -0.135 -0.4671  1.1142 -1.1176
  569MOL0     H76788   2.520   8.815  -0.184 -0.1313 -3.2385  1.6733
  569MOL0     H76789   2.792   8.747  -0.082 -1.4148  0.3734  1.4596
  569MOL0     H76790   2.694   8.625  -0.182 -2.6696  1.4341 -2.2543
  569MOL0     H76791   2.583   8.765   0.072  2.8587  1.5272  0.3675
  569MOL0     H76792   2.529   8.616  -0.013  1.7886 -2.2021 -0.6428
  569MOL0     H76793   2.769   8.638   0.178  0.7184 -2.1230  0.8395
  569MOL0     H76794   2.764   8.508   0.065  1.3043  1.0424  0.3386
  569MOL0     H76795   2.529   8.439   0.152 -3.0224  1.4337  0.5586
  569MOL0     H76796   2.530   8.567   0.268  0.6655  1.0594 -0.8626
  569MOL0     H76797   2.970   9.180  -0.278 -0.7279  0.0609  0.4389
  569MOL0     H76798   3.141   9.367  -0.247  0.1847  0.1338  0.6783
  569MOL0     H76799   3.544   9.468  -0.184  2.8087 -0.7769  1.0092
  569MOL0     H76800   3.658   9.657  -0.096  1.2590  0.1529  0.2402
  569MOL0     H76801   3.877   9.469  -0.383  0.6896  0.7911 -0.4443
  569MOL0     H76802   3.824   9.431  -0.161  0.8051  2.7085 -1.6419
  569MOL0     H76803   4.064   9.361   0.262  0.5006 -0.2445 -1.1454
  569MOL0     H76804   4.069   9.334   0.512 -5.2653  1.7309 -1.0838
  569MOL0     H76805   4.212   9.163   0.691  0.6408 -1.5483 -0.3224
  569MOL0     H76806   4.093   9.295   0.701 -0.6933 -0.7531  2.4155
  569MOL0     H76807   4.165   9.093   0.913 -0.0999  1.2869  3.1126
  569MOL0     H76808   4.012   9.167   0.922  0.3383 -3.2432 -1.4716
  569MOL0     H76809   4.093   9.383   0.932  0.8277  0.9315  1.0152
  569MOL0     H76810   4.256   9.333   0.882  1.5758 -2.7100  0.5266
  569MOL0     H76811   4.268   9.206   1.102  0.1878 -1.2107 -3.5399
  569MOL0     H76812   4.113   9.275   1.136 -1.4555  2.8260 -0.3635
  569MOL0     H76813   4.331   9.606   1.267  1.3855 -0.3176  0.5814
  569MOL0     H76814   4.002   8.921   0.476  1.5092  0.7982  0.7703
  569MOL0     H76815   4.012   8.934   0.229  2.4898 -0.6123  1.4555
  570MOL0     O76816   2.854   0.078  10.723 -0.3555 -0.4797  0.1728
  570MOL0     C76817   2.761   0.065  10.647  0.7558  0.2294  0.5803
  570MOL0     O76818   2.633   0.055  10.691 -0.4700  0.3366  0.7409
  570MOL0     C76819   2.609   0.028  10.827  0.2408  0.1834 -0.0883
  570MOL0     C76820   2.610   0.120  10.937 -0.5155  0.7544 -0.6682
  570MOL0     C76821   2.580   0.075  11.067  0.1788  1.1966 -0.0838
  570MOL0     C76822   2.568  -0.064  11.089 -0.4262 -0.4519 -0.6669
  570MOL0     O76823   2.558  -0.093  11.222 -0.3771 -0.2604  0.5192
  570MOL0     C76824   2.519  -0.228  11.241  0.5229  0.0883  0.5209
  570MOL0     C76825   2.528  -0.265  11.399  0.0921  0.5153  0.4150
  570MOL0     C76826   2.396  -0.287  11.466  0.5767 -0.0634 -0.3600
  570MOL0     C76827   2.405  -0.364  11.599  0.0701  0.3463  0.6478
  570MOL0     C76828   2.272  -0.394  11.665 -0.4722 -0.2827  0.1716
  570MOL0     C76829   2.291  -0.454  11.804  0.1106 -0.8151  0.0451
  570MOL0     C76830   2.156  -0.466  11.873  0.3682  0.2861 -0.3796
  570MOL0     C76831   2.106  -0.602  11.819  0.2454  0.8070  0.9073
  570MOL0     N76832   1.985  -0.644  11.891 -0.1228 -0.1965  0.4639
  570MOL0     C76833   1.857  -0.634  11.837 -0.1802  0.1542  0.8182
  570MOL0     C76834   1.781  -0.692  11.934 -0.0666  0.2959  0.4585
  570MOL0     C76835   1.629  -0.679  11.921 -0.7347 -0.2494 -0.4922
  570MOL0     C76836   1.575  -0.565  11.997 -0.4844  0.9910 -0.8853
  570MOL0     C76837   1.439  -0.519  11.944  0.5252  0.3328 -0.3072
  570MOL0     C76838   1.373  -0.412  12.031 -0.3383  0.3130 -0.2447
  570MOL0     O76839   1.456  -0.294  12.038 -0.1513  0.0490 -0.1877
  570MOL0     C76840   1.431  -0.186  11.950 -0.0662  0.1234  0.0833
  570MOL0     C76841   1.474  -0.068  12.001  0.2434 -0.2212 -0.2918
  570MOL0     C76842   1.477   0.055  11.931  0.0858 -1.0520 -0.3306
  570MOL0     C76843   1.555   0.167  12.001 -0.1726 -1.1669  0.4595
  570MOL0     C76844   1.438   0.051  11.792 -0.3026 -0.2877 -1.0752
  570MOL0     C76845   1.432   0.163  11.697  0.3787 -0.0206  0.6666
  570MOL0     O76846   1.410   0.284  11.752  0.6666 -1.1979  1.1312
  570MOL0     C76847   1.452   0.399  11.700 -0.6549  0.4015  0.4703
  570MOL0     C76848   1.354   0.484  11.651  0.9920  0.4634  0.3800
  570MOL0     C76849   1.392   0.601  11.585  0.0251  0.4677  0.6367
  570MOL0     C76850   1.522   0.653  11.587 -0.6247 -1.5881 -0.4099
  570MOL0     O76851   1.540   0.769  11.517  0.3175 -0.0077 -0.1045
  570MOL0     C76852   1.677   0.807  11.485 -0.0219  0.2909  0.3109
  570MOL0     C76853   1.685   0.946  11.427 -0.1778  0.3400  0.6192
  570MOL0     C76854   1.572   0.970  11.315 -0.0948 -0.8654 -0.0225
  570MOL0     C76855   1.550   1.119  11.289 -0.0940  0.2858  0.3657
  570MOL0     C76856   1.472   1.132  11.157  1.2185 -1.0856  0.5047
  570MOL0     C76857   1.459   1.274  11.134  0.1107  0.6596  0.9225
  570MOL0     C76858   1.412   1.306  10.992 -0.1196 -0.2490  0.0100
  570MOL0     C76859   1.279   1.242  10.943  0.0859 -0.3001  0.2396
  570MOL0    Cl76860   1.139   1.302  11.047 -0.4738  0.0118 -0.3672
  570MOL0     C76861   1.623   0.567  11.639 -0.0622  0.0714 -0.4174
  570MOL0     C76862   1.588   0.439  11.688  0.3406 -0.5106 -0.2357
  570MOL0     O76863   1.457   0.150  11.576  0.3610  0.8922 -0.4406
  570MOL0     C76864   1.385  -0.073  11.743 -0.4161 -0.3480 -0.8281
  570MOL0     C76865   1.381  -0.190  11.817  0.0912  0.0628  0.2957
  570MOL0     N76866   1.864  -0.739  12.040  1.2591 -0.1804  0.0675
  570MOL0     N76867   1.987  -0.703  12.010  0.6258 -0.0623  0.3249
  570MOL0     C76868   2.556  -0.146  10.974  0.0548  0.0721 -0.0007
  570MOL0     C76869   2.568  -0.103  10.844  0.2017  0.3976  0.0738
  570MOL0     C76870   2.774   0.075  10.506 -0.2648  0.5791 -0.5056
  570MOL0     C76871   2.901   0.063  10.450  0.0374 -0.1184  0.7418
  570MOL0     C76872   2.922   0.054  10.314  0.5151 -0.5191  1.3857
  570MOL0     C76873   2.811   0.057  10.232 -0.2033  0.0817  0.1087
  570MOL0     O76874   2.810   0.026  10.103  0.5669 -0.0081  0.3140
  570MOL0     C76875   2.923   0.049  10.022  0.6647  0.4709 -0.3623
  570MOL0     C76876   3.013  -0.082  10.013  0.8361 -0.6391  0.3085
  570MOL0     C76877   2.927  -0.207   9.962 -0.2872 -0.9547 -0.8461
  570MOL0     C76878   2.988  -0.262   9.829  0.7837 -0.9559  0.0912
  570MOL0     C76879   2.883  -0.324   9.751  1.0391 -0.4474 -0.3282
  570MOL0     C76880   2.791  -0.364   9.689  0.4371 -0.2261  0.0363
  570MOL0     C76881   2.679   0.070  10.284  0.4306 -0.7921 -0.3950
  570MOL0     C76882   2.660   0.080  10.417 -1.2926 -0.2623  0.0642
  570MOL0     H76883   2.622   0.226  10.921  0.3075  0.6432 -0.8384
  570MOL0     H76884   2.585   0.143  11.152 -4.0612  1.4567  0.1685
  570MOL0     H76885   2.420  -0.260  11.208 -1.2091  2.8406  2.5600
  570MOL0     H76886   2.586  -0.294  11.186  0.5753  1.1044 -0.6962
  570MOL0     H76887   2.593  -0.353  11.406  0.0696  0.5172  0.6418
  570MOL0     H76888   2.586  -0.184  11.443  0.8013 -0.2399  0.8880
  570MOL0     H76889   2.354  -0.191  11.496  1.9155  0.4804 -0.2013
  570MOL0     H76890   2.318  -0.339  11.409 -1.5802  1.5398  0.9658
  570MOL0     H76891   2.476  -0.446  11.587 -0.0284 -0.1346  2.9076
  570MOL0     H76892   2.455  -0.296  11.669 -1.5244 -1.4685  3.7602
  570MOL0     H76893   2.214  -0.303  11.678  0.4896  0.2323  1.0177
  570MOL0     H76894   2.221  -0.465  11.599  2.6348 -1.4078 -1.2603
  570MOL0     H76895   2.354  -0.544  11.801  1.8499  0.0782  3.5083
  570MOL0     H76896   2.350  -0.377  11.854  1.9651 -0.5767 -2.3655
  570MOL0     H76897   2.171  -0.477  11.981  0.0236 -3.5219 -0.5638
  570MOL0     H76898   2.082  -0.386  11.865 -1.9415 -1.5549  1.1751
  570MOL0     H76899   2.188  -0.675  11.826  0.4141  0.6546 -1.7128
  570MOL0     H76900   2.081  -0.596  11.713  0.4510 -2.9675  0.4847
  570MOL0     H76901   1.827  -0.586  11.744 -2.2345 -2.1526  0.1936
  570MOL0     H76902   1.600  -0.673  11.815  0.8898 -1.1053 -1.0209
  570MOL0     H76903   1.589  -0.774  11.958  1.6582 -0.7551  0.9627
  570MOL0     H76904   1.648  -0.485  11.982  0.1212  0.2770 -1.9165
  570MOL0     H76905   1.573  -0.597  12.102  0.7089 -0.3459 -1.2253
  570MOL0     H76906   1.374  -0.606  11.935 -2.3010  2.0007  2.0830
  570MOL0     H76907   1.450  -0.478  11.843 -0.7641  4.2599  0.9422
  570MOL0     H76908   1.373  -0.451  12.133  0.1727  1.2272  0.1101
  570MOL0     H76909   1.273  -0.394  11.991 -0.1566  0.2919 -0.7104
  570MOL0     H76910   1.496  -0.066  12.107 -2.3664 -2.8827  0.4169
  570MOL0     H76911   1.500   0.261  11.990  1.0924 -0.7171 -3.8887
  570MOL0     H76912   1.571   0.153  12.109  1.3762 -2.8163  0.0580
  570MOL0     H76913   1.652   0.181  11.952 -1.6057 -0.9986 -2.5451
  570MOL0     H76914   1.251   0.458  11.631  0.7171  0.2855  1.8810
  570MOL0     H76915   1.316   0.668  11.546  1.0067  1.9734  1.2023
  570MOL0     H76916   1.733   0.814  11.579  0.3653  1.9701 -0.0170
  570MOL0     H76917   1.733   0.737  11.423 -2.7118 -0.9435 -0.8591
  570MOL0     H76918   1.662   1.013  11.510  3.2814  1.2419  0.9975
  570MOL0     H76919   1.783   0.965  11.383 -1.4790 -0.0574 -2.7783
  570MOL0     H76920   1.476   0.928  11.348  0.8016 -1.4129  2.0786
  570MOL0     H76921   1.607   0.936  11.217 -0.4826  2.2441 -1.3449
  570MOL0     H76922   1.485   1.157  11.369  0.9355  3.7240 -0.2460
  570MOL0     H76923   1.644   1.175  11.290  0.4715 -0.5246 -1.8380
  570MOL0     H76924   1.373   1.084  11.160 -0.0786  1.3653 -0.5938
  570MOL0     H76925   1.516   1.075  11.075  1.6103  0.5914 -0.4821
  570MOL0     H76926   1.386   1.318  11.203 -0.4234  0.1667  0.6837
  570MOL0     H76927   1.561   1.313  11.139  1.6080 -2.6485 -0.9103
  570MOL0     H76928   1.491   1.271  10.925 -0.3952 -2.3520  0.6975
  570MOL0     H76929   1.408   1.412  10.967  2.2595  0.0670  0.7252
  570MOL0     H76930   1.277   1.135  10.968 -4.8381 -0.3617  0.5154
  570MOL0     H76931   1.263   1.262  10.837  0.8211  1.0304  0.3694
  570MOL0     H76932   1.731   0.573  11.644  0.1948 -3.0391  0.0741
  570MOL0     H76933   1.667   0.377  11.729 -0.6085 -1.4166  0.2664
  570MOL0     H76934   1.349  -0.095  11.643  1.1101 -1.5520 -1.1617
  570MOL0     H76935   1.333  -0.274  11.767 -1.6631  0.5206  1.1227
  570MOL0     H76936   2.529  -0.250  10.989 -0.7350  0.0895 -1.2069
  570MOL0     H76937   2.565  -0.173  10.761 -1.5775 -0.5325  0.8718
  570MOL0     H76938   2.998   0.058  10.499  1.3568 -1.3652 -1.8256
  570MOL0     H76939   3.021   0.042  10.271  0.1041 -2.3915  0.9174
  570MOL0     H76940   2.887   0.077   9.923  0.6519 -0.6871 -0.6986
  570MOL0     H76941   2.988   0.126  10.064  1.2113  2.7924 -4.8576
  570MOL0     H76942   3.046  -0.105  10.115  0.0786  2.6950  1.4024
  570MOL0     H76943   3.107  -0.067   9.959  1.1697 -4.5849 -0.5600
  570MOL0     H76944   2.820  -0.182   9.958  0.2552  2.6559  1.9078
  570MOL0     H76945   2.930  -0.285  10.039 -0.2664 -0.7355 -0.6215
  570MOL0     H76946   3.072  -0.329   9.853  4.0099  3.0562  1.2450
  570MOL0     H76947   3.047  -0.186   9.777  0.5711  0.4740  1.8458
  570MOL0     H76948   2.697  -0.395   9.647 -1.1533  0.9309  2.5017
  570MOL0     H76949   2.597   0.053  10.215 -1.4138  4.6020  0.0069
  570MOL0     H76950   2.554   0.069  10.439 -1.0405 -2.6073  0.4350
  571MOL0     O76951   4.490  11.013   0.698 -0.5754  0.6410 -0.0841
  571MOL0     C76952   4.503  11.097   0.602  0.0251  0.0973  0.3832
  571MOL0     O76953   4.599  11.195   0.585 -0.3814  0.2916 -0.4452
  571MOL0     C76954   4.708  11.186   0.668  0.0523 -0.5593  0.2038
  571MOL0     C76955   4.706  11.232   0.802  0.2888  0.6806 -0.0575
  571MOL0     C76956   4.823  11.214   0.877  0.2349  0.0422 -1.2235
  571MOL0     C76957   4.947  11.165   0.822  0.0190 -0.2302 -0.3021
  571MOL0     O76958   5.066  11.156   0.892  0.1831 -0.1603  0.3722
  571MOL0     C76959   5.056  11.132   1.034  0.3272 -0.2549  0.0294
  571MOL0     C76960   5.190  11.094   1.095 -0.0080 -0.0734  0.1591
  571MOL0     C76961   5.232  10.952   1.073 -0.9261 -0.2377 -0.1719
  571MOL0     C76962   5.155  10.865   1.182 -0.2115  0.1501  0.5319
  571MOL0     C76963   5.242  10.847   1.310  0.4651 -0.8364 -0.7581
  571MOL0     C76964   5.373  10.779   1.299 -0.7946 -0.1299  0.4676
  571MOL0     C76965   5.425  10.768   1.439 -0.3708 -0.7731 -0.1349
  571MOL0     C76966   5.565  10.720   1.446  1.1425 -0.0848 -0.0943
  571MOL0     N76967   5.658  10.819   1.499 -0.3925 -0.3826 -0.0619
  571MOL0     C76968   5.707  10.919   1.426  0.1096 -1.1899 -0.7147
  571MOL0     C76969   5.812  10.966   1.489 -0.0490 -0.1088 -1.1320
  571MOL0     C76970   5.911  11.065   1.436 -0.0986  0.7447  0.0600
  571MOL0     C76971   6.044  11.056   1.518 -0.7313  0.0017 -0.7412
  571MOL0     C76972   6.163  11.121   1.443 -0.1941 -0.9300 -0.5890
  571MOL0     C76973   6.296  11.157   1.515 -0.1881  0.0672 -0.3281
  571MOL0     O76974   6.350  11.046   1.589  0.4145 -0.1789 -0.3215
  571MOL0     C76975   6.448  11.070   1.677  0.0476 -0.3879  0.1243
  571MOL0     C76976   6.522  11.192   1.680 -0.5162 -0.5163 -0.5690
  571MOL0     C76977   6.632  11.196   1.764  0.7078  0.3315  0.4490
  571MOL0     C76978   6.719  11.312   1.767  0.5971  0.3681 -0.4012
  571MOL0     C76979   6.666  11.085   1.845 -0.3398  0.8700 -0.6295
  571MOL0     C76980   6.763  11.086   1.947 -0.7205 -0.2411 -0.0381
  571MOL0     O76981   6.755  11.189   2.031 -0.2601  0.2886 -1.0087
  571MOL0     C76982   6.867  11.212   2.109  0.0206  0.1098  1.0239
  571MOL0     C76983   6.874  11.183   2.247  0.5315 -0.0627 -0.3461
  571MOL0     C76984   6.987  11.202   2.320 -0.8137  0.5439  0.2491
  571MOL0     C76985   7.094  11.282   2.275  0.5908  0.0600  0.5710
  571MOL0     O76986   7.213  11.299   2.329 -0.6964 -0.4425  0.5324
  571MOL0     C76987   7.229  11.271   2.469  0.2646 -0.7019 -0.9845
  571MOL0     C76988   7.368  11.305   2.518 -1.2328 -0.9564 -1.0416
  571MOL0     C76989   7.404  11.445   2.481  0.1665 -0.7326  0.0985
  571MOL0     C76990   7.544  11.489   2.538 -0.0429 -0.0390 -0.8824
  571MOL0     C76991   7.539  11.508   2.692 -0.5657 -0.0804  0.0068
  571MOL0     C76992   7.676  11.572   2.745  0.0353  0.2424  0.9886
  571MOL0     C76993   7.796  11.485   2.733 -0.8159 -0.3994  0.0338
  571MOL0     C76994   7.913  11.543   2.811 -0.4272  0.3275  0.3246
  571MOL0    Cl76995   8.046  11.413   2.809  0.0150 -0.0649 -0.1179
  571MOL0     C76996   7.092  11.299   2.135  0.5721  0.1635  0.4755
  571MOL0     C76997   6.982  11.272   2.059 -0.8173  0.0415  0.3728
  571MOL0     O76998   6.846  10.995   1.957  0.4220  0.0776 -0.0390
  571MOL0     C76999   6.585  10.965   1.844 -1.0412 -0.7394  0.6494
  571MOL0     C77000   6.471  10.970   1.762  1.2031  0.9901  0.3898
  571MOL0     N77001   5.815  10.909   1.620 -0.5484  0.1974  0.6479
  571MOL0     N77002   5.726  10.817   1.619 -0.4231  0.3382 -0.5745
  571MOL0     C77003   4.944  11.117   0.699 -0.5823 -0.6617 -0.3180
  571MOL0     C77004   4.833  11.131   0.617  0.4017  0.2220 -0.4636
  571MOL0     C77005   4.397  11.093   0.501  0.2027  0.5811 -0.3180
  571MOL0     C77006   4.390  11.186   0.396 -1.0743 -0.0863  0.5379
  571MOL0     C77007   4.275  11.201   0.317 -0.3814  0.8370 -0.0503
  571MOL0     C77008   4.161  11.114   0.325  0.2023 -0.5032  0.7191
  571MOL0     O77009   4.048  11.131   0.246 -0.2462  0.0946  0.1826
  571MOL0     C77010   4.028  11.032   0.135 -0.6341 -0.3088 -0.4240
  571MOL0     C77011   4.124  11.065   0.013  0.1545 -0.6116 -0.1529
  571MOL0     C77012   4.094  11.209  -0.041 -0.1732  0.0050  0.1408
  571MOL0     C77013   4.129  11.213  -0.193 -0.3232  0.1605 -0.4285
  571MOL0     C77014   4.193  11.334  -0.236 -0.2785 -0.5451  0.7740
  571MOL0     C77015   4.235  11.439  -0.266 -0.9961 -0.5579  0.5069
  571MOL0     C77016   4.169  11.004   0.405  0.5866 -0.7567  0.3914
  571MOL0     C77017   4.282  10.996   0.499  0.4428 -1.1295  0.2666
  571MOL0     H77018   4.616  11.280   0.839 -1.8157 -2.4518 -0.7366
  571MOL0     H77019   4.807  11.218   0.984 -3.3370  0.3827 -1.6452
  571MOL0     H77020   5.025  11.230   1.071 -3.2089 -0.3309 -2.2368
  571MOL0     H77021   4.982  11.053   1.053  2.6559 -2.7806 -0.6875
  571MOL0     H77022   5.259  11.166   1.051  0.0435 -0.1286  0.1495
  571MOL0     H77023   5.179  11.119   1.201  0.1486  2.3954 -0.3400
  571MOL0     H77024   5.215  10.916   0.971  1.9414 -0.0244 -0.8096
  571MOL0     H77025   5.339  10.943   1.094 -0.7677  1.6160 -0.0495
  571MOL0     H77026   5.052  10.897   1.202  0.3545  1.0241  2.2840
  571MOL0     H77027   5.145  10.768   1.133  0.4837  0.2700  0.1437
  571MOL0     H77028   5.265  10.941   1.360  1.7525 -0.4912 -1.9272
  571MOL0     H77029   5.185  10.779   1.374 -1.4312  0.1339 -1.3206
  571MOL0     H77030   5.360  10.675   1.267 -0.9931  0.6954 -2.3994
  571MOL0     H77031   5.444  10.834   1.238 -1.0714 -1.5113 -1.1753
  571MOL0     H77032   5.411  10.868   1.481 -6.8200  0.4813 -3.8863
  571MOL0     H77033   5.359  10.701   1.495  1.2800 -1.7432  0.7161
  571MOL0     H77034   5.602  10.692   1.347  1.8820  0.3654  0.0451
  571MOL0     H77035   5.562  10.630   1.508 -1.9528  0.0430  0.0905
  571MOL0     H77036   5.673  10.941   1.325  2.1719 -2.9511 -1.8681
  571MOL0     H77037   5.923  11.037   1.331 -1.9326 -1.2619  0.3209
  571MOL0     H77038   5.861  11.162   1.444 -5.3286 -1.4976 -1.2990
  571MOL0     H77039   6.058  10.948   1.533 -1.5765  0.0829  0.8526
  571MOL0     H77040   6.033  11.093   1.620 -1.6335 -3.0395  0.3769
  571MOL0     H77041   6.123  11.218   1.411 -0.3792 -1.9543 -3.9387
  571MOL0     H77042   6.172  11.055   1.356 -2.3373 -0.6857 -1.0472
  571MOL0     H77043   6.289  11.239   1.586  1.5009 -0.5038  0.5581
  571MOL0     H77044   6.371  11.195   1.445  0.5230  5.2713  2.7358
  571MOL0     H77045   6.503  11.282   1.622 -3.6142  0.2422  1.3963
  571MOL0     H77046   6.683  11.371   1.852 -1.4987  0.5946 -1.3782
  571MOL0     H77047   6.821  11.276   1.780  0.2415  0.0552  2.0397
  571MOL0     H77048   6.714  11.365   1.671  0.5005 -1.9229 -1.7317
  571MOL0     H77049   6.788  11.139   2.296 -0.0985 -2.0310 -3.0188
  571MOL0     H77050   6.981  11.174   2.424 -0.0484  0.4276  0.2650
  571MOL0     H77051   7.154  11.325   2.528  0.4956 -0.3402 -1.0229
  571MOL0     H77052   7.227  11.162   2.478  1.3269 -0.6438  0.1840
  571MOL0     H77053   7.361  11.299   2.627 -2.1280 -1.4537 -1.1211
  571MOL0     H77054   7.446  11.233   2.491 -0.4574  0.1740 -1.9110
  571MOL0     H77055   7.319  11.512   2.498 -1.1355 -2.2903 -0.0273
  571MOL0     H77056   7.415  11.454   2.372  0.0559  4.5822  0.2686
  571MOL0     H77057   7.622  11.414   2.521 -0.0027 -1.5634  4.2624
  571MOL0     H77058   7.579  11.584   2.497 -1.1992  0.6691 -0.2758
  571MOL0     H77059   7.502  11.422   2.749 -1.2637  0.5706  0.5745
  571MOL0     H77060   7.462  11.580   2.723  1.2747  1.9745  0.0296
  571MOL0     H77061   7.697  11.667   2.695 -0.7058  0.3673  0.9131
  571MOL0     H77062   7.662  11.591   2.851 -1.4044  0.8580  0.7060
  571MOL0     H77063   7.832  11.460   2.633 -3.1431  2.0377 -1.5443
  571MOL0     H77064   7.775  11.392   2.788 -0.8970  0.3790  1.3524
  571MOL0     H77065   7.884  11.569   2.914 -3.9149 -1.2538 -0.1413
  571MOL0     H77066   7.954  11.632   2.763  0.6963 -1.4074 -2.1885
  571MOL0     H77067   7.176  11.343   2.081  2.0067 -0.3356  2.2095
  571MOL0     H77068   7.001  11.267   1.952  1.6455  2.5130  0.5681
  571MOL0     H77069   6.596  10.898   1.929  0.4076  1.2836  2.1272
  571MOL0     H77070   6.392  10.895   1.769 -0.0405  1.9157 -2.2343
  571MOL0     H77071   5.032  11.074   0.652  0.8196  2.5928 -1.0258
  571MOL0     H77072   4.844  11.075   0.525  2.8833 -0.7938  0.3559
  571MOL0     H77073   4.477  11.245   0.367 -1.3264  0.0683  0.0902
  571MOL0     H77074   4.279  11.276   0.238  2.9590 -0.8686 -1.7165
  571MOL0     H77075   4.054  10.932   0.172 -3.1961 -0.1292  2.3294
  571MOL0     H77076   3.925  11.026   0.099  0.4992 -3.5215 -3.7373
  571MOL0     H77077   4.093  11.000  -0.069 -1.2493  0.1657 -0.2758
  571MOL0     H77078   4.233  11.057   0.019  0.3419  1.5058  0.3577
  571MOL0     H77079   4.160  11.284   0.003 -1.8662  0.3544  2.2895
  571MOL0     H77080   3.988  11.236  -0.030 -0.3677 -0.5620 -0.3107
  571MOL0     H77081   4.039  11.216  -0.257  0.2866  0.2518 -1.3030
  571MOL0     H77082   4.197  11.136  -0.232  1.9475  0.9667  1.7302
  571MOL0     H77083   4.276  11.528  -0.309  0.2266 -0.8357  1.0418
  571MOL0     H77084   4.084  10.937   0.400  0.0120 -0.1230  1.3777
  571MOL0     H77085   4.275  10.929   0.584  0.7697 -0.0581  1.1736
  572MOL0     O77086   5.104   9.204   5.601  0.3034  0.1202  0.3248
  572MOL0     C77087   5.029   9.112   5.575  0.4746  0.7377  0.4479
  572MOL0     O77088   4.961   9.095   5.458 -0.2024 -0.1293  0.4020
  572MOL0     C77089   5.031   9.157   5.347 -0.7191  0.0945  0.2759
  572MOL0     C77090   5.120   9.084   5.268 -0.6722 -0.4697  0.0485
  572MOL0     C77091   5.165   9.156   5.150 -0.4434  0.4336 -0.5793
  572MOL0     C77092   5.131   9.285   5.116 -0.8185  1.0590  0.6652
  572MOL0     O77093   5.191   9.358   5.018  0.9566 -0.4843 -0.0425
  572MOL0     C77094   5.208   9.298   4.889  0.4403  0.3900 -0.7144
  572MOL0     C77095   5.284   9.399   4.799  1.0669  0.2994  0.0797
  572MOL0     C77096   5.298   9.339   4.660  0.4959  0.5857 -0.5783
  572MOL0     C77097   5.366   9.201   4.634 -0.4523  0.2044 -0.4637
  572MOL0     C77098   5.402   9.185   4.484  0.1750 -0.1622 -0.4600
  572MOL0     C77099   5.462   9.043   4.457  0.4552  0.1392  0.4161
  572MOL0     C77100   5.486   9.022   4.305 -0.1814  0.0664  0.4707
  572MOL0     C77101   5.534   8.878   4.282 -0.1171  0.6672 -0.6807
  572MOL0     N77102   5.554   8.857   4.138 -0.2346  0.0312 -0.3158
  572MOL0     C77103   5.543   8.737   4.070 -0.5776 -0.1221 -0.1244
  572MOL0     C77104   5.543   8.776   3.942  1.3243  0.3036 -0.0022
  572MOL0     C77105   5.551   8.692   3.813 -0.2187  0.5790  0.2534
  572MOL0     C77106   5.437   8.711   3.715 -0.9219 -1.0541 -0.2013
  572MOL0     C77107   5.451   8.595   3.617  0.1652 -0.0782 -0.5420
  572MOL0     C77108   5.325   8.581   3.530 -0.9005  0.1669 -0.1422
  572MOL0     O77109   5.319   8.454   3.471  0.1331  0.1999  1.0657
  572MOL0     C77110   5.239   8.430   3.359 -0.4222 -0.4315 -0.4923
  572MOL0     C77111   5.246   8.305   3.299  0.0541  0.0541  1.2002
  572MOL0     C77112   5.171   8.269   3.180  0.6773 -0.4716  0.8161
  572MOL0     C77113   5.196   8.127   3.134 -0.1350 -0.1657  0.2990
  572MOL0     C77114   5.083   8.371   3.128 -0.9252  0.4384  0.3760
  572MOL0     C77115   5.016   8.348   2.996  0.7697  0.0388 -0.7355
  572MOL0     O77116   5.010   8.453   2.917  0.1096  0.3990  0.3122
  572MOL0     C77117   4.954   8.447   2.796  0.1414 -0.9842  0.3057
  572MOL0     C77118   4.949   8.340   2.703 -0.6689 -0.3191 -0.2393
  572MOL0     C77119   4.901   8.347   2.573  1.2674 -0.3051 -1.3440
  572MOL0     C77120   4.851   8.475   2.521  0.2230  0.1269 -0.3494
  572MOL0     O77121   4.775   8.498   2.403  0.2954  0.7061  0.0465
  572MOL0     C77122   4.747   8.391   2.322 -0.4845 -0.2356  0.2906
  572MOL0     C77123   4.672   8.420   2.186 -0.0674 -0.9936 -1.3027
  572MOL0     C77124   4.602   8.300   2.131 -0.0512  0.2406  0.5568
  572MOL0     C77125   4.518   8.347   2.011 -0.2844 -0.8351  0.9041
  572MOL0     C77126   4.453   8.218   1.948 -0.5055 -0.0037  0.1509
  572MOL0     C77127   4.349   8.252   1.833  0.0071  0.3694 -0.5878
  572MOL0     C77128   4.410   8.342   1.719  0.4417 -0.9831  0.4894
  572MOL0     C77129   4.550   8.292   1.669  0.1615  0.8026 -0.0422
  572MOL0    Cl77130   4.535   8.117   1.640 -0.1980  0.0731 -0.7776
  572MOL0     C77131   4.859   8.586   2.609  0.8072 -0.3645  0.0909
  572MOL0     C77132   4.910   8.572   2.747  0.2280  0.5629  0.8129
  572MOL0     O77133   4.957   8.245   2.975 -0.1614  0.3315 -0.1875
  572MOL0     C77134   5.097   8.503   3.178 -0.5543  0.3933  0.1511
  572MOL0     C77135   5.174   8.531   3.291  0.2703  0.4907  0.4144
  572MOL0     N77136   5.556   8.914   3.926  0.1153  0.5167 -0.4071
  572MOL0     N77137   5.545   8.963   4.042  0.1950 -0.2260 -0.5301
  572MOL0     C77138   5.038   9.349   5.200  0.6756 -0.2622  0.5483
  572MOL0     C77139   4.992   9.284   5.312  0.3532  0.3759 -0.1608
  572MOL0     C77140   4.997   9.029   5.690 -0.6117  0.6348  0.7446
  572MOL0     C77141   4.930   8.909   5.668 -0.1143  0.2433 -0.4487
  572MOL0     C77142   4.884   8.830   5.773 -0.2972  0.6441  0.4483
  572MOL0     C77143   4.906   8.878   5.902  0.2180  1.0944 -0.1370
  572MOL0     O77144   4.851   8.797   5.999  0.1822  0.0327  0.0038
  572MOL0     C77145   4.870   8.812   6.142 -0.5628  0.7840 -0.3364
  572MOL0     C77146   4.815   8.683   6.213 -0.3326 -0.3062 -0.2149
  572MOL0     C77147   4.825   8.675   6.365  0.1126  0.1790  0.8964
  572MOL0     C77148   4.755   8.788   6.447 -0.4179 -0.0746  0.6205
  572MOL0     C77149   4.791   8.754   6.582  0.0222 -0.2928  0.1649
  572MOL0     C77150   4.812   8.742   6.703  0.1825  0.2118  0.0345
  572MOL0     C77151   4.980   8.998   5.927 -0.3546  0.4770 -0.2972
  572MOL0     C77152   5.028   9.071   5.819 -0.0980 -0.6713  0.0720
  572MOL0     H77153   5.151   8.984   5.293  2.9267  0.3782 -0.4272
  572MOL0     H77154   5.233   9.111   5.078 -0.3041  1.6701 -1.2492
  572MOL0     H77155   5.267   9.206   4.890  1.4452  0.9192 -3.1148
  572MOL0     H77156   5.109   9.272   4.852  0.6090  0.0268 -0.9187
  572MOL0     H77157   5.231   9.495   4.794  1.4745  0.4787 -1.2373
  572MOL0     H77158   5.385   9.423   4.835  2.4788 -0.4946 -3.0002
  572MOL0     H77159   5.202   9.354   4.610  1.9535  4.6104 -2.6402
  572MOL0     H77160   5.348   9.419   4.605  0.0905  1.8070  0.7774
  572MOL0     H77161   5.459   9.188   4.689  0.3768  1.3065 -1.5686
  572MOL0     H77162   5.293   9.126   4.668  2.6716 -5.0503 -3.7778
  572MOL0     H77163   5.315   9.194   4.420  0.2292 -1.3248 -0.7247
  572MOL0     H77164   5.476   9.260   4.457  0.3203 -0.6592 -1.4859
  572MOL0     H77165   5.555   9.025   4.512  1.3991  1.8390 -0.5516
  572MOL0     H77166   5.396   8.962   4.488  1.1448 -1.4878 -2.0930
  572MOL0     H77167   5.391   9.038   4.254  0.8434 -2.9315 -2.7130
  572MOL0     H77168   5.566   9.088   4.268  1.3176 -1.2794  1.1601
  572MOL0     H77169   5.446   8.818   4.306  0.4441  0.5723  1.3041
  572MOL0     H77170   5.624   8.849   4.338 -0.1228  1.7973 -0.0711
  572MOL0     H77171   5.521   8.635   4.102 -0.3748 -0.2921 -0.5145
  572MOL0     H77172   5.641   8.730   3.763  0.2405  3.5387  3.0029
  572MOL0     H77173   5.568   8.586   3.833 -3.6472 -0.3415 -1.0500
  572MOL0     H77174   5.445   8.809   3.665 -0.9776 -1.3147 -0.7288
  572MOL0     H77175   5.338   8.707   3.760 -0.5724  0.4464  0.7760
  572MOL0     H77176   5.459   8.505   3.678  1.9161  0.7813  0.5555
  572MOL0     H77177   5.532   8.604   3.545  0.5001 -0.5559 -0.2275
  572MOL0     H77178   5.318   8.662   3.457  1.4314 -0.5316 -1.2382
  572MOL0     H77179   5.238   8.581   3.597  0.1058 -2.2407  1.3067
  572MOL0     H77180   5.323   8.241   3.343 -0.5527 -2.8141 -1.5222
  572MOL0     H77181   5.191   8.124   3.024  0.7251 -0.3648  0.2619
  572MOL0     H77182   5.291   8.079   3.158  0.2866 -1.1115 -2.8199
  572MOL0     H77183   5.102   8.081   3.165 -0.4295  0.7346  0.7773
  572MOL0     H77184   4.985   8.244   2.737 -3.2954 -0.9006  1.1873
  572MOL0     H77185   4.910   8.258   2.511  0.5870 -0.2836 -1.4841
  572MOL0     H77186   4.847   8.357   2.293  0.4748  1.9019  0.9165
  572MOL0     H77187   4.700   8.310   2.379  1.3122 -2.8528 -1.6830
  572MOL0     H77188   4.607   8.503   2.215  4.5681  1.8506  2.4815
  572MOL0     H77189   4.744   8.457   2.112 -0.5104  0.9359 -0.8367
  572MOL0     H77190   4.534   8.264   2.210  1.2170 -2.2046  0.6291
  572MOL0     H77191   4.663   8.212   2.112  0.4674  0.7501 -0.1858
  572MOL0     H77192   4.441   8.423   2.027  2.0379  2.1797 -1.0554
  572MOL0     H77193   4.598   8.385   1.947  1.9043 -4.4337  1.1949
  572MOL0     H77194   4.412   8.161   2.031  1.5109 -1.5933  0.1202
  572MOL0     H77195   4.528   8.145   1.918 -0.1129 -0.4345  2.0475
  572MOL0     H77196   4.308   8.159   1.794  1.1942 -1.0733  1.4290
  572MOL0     H77197   4.270   8.315   1.876  2.0844  1.9692  1.0825
  572MOL0     H77198   4.408   8.449   1.741 -0.7780 -1.3169  2.1635
  572MOL0     H77199   4.342   8.336   1.633 -2.6417  0.0739  2.6905
  572MOL0     H77200   4.620   8.316   1.750 -2.1842 -0.4537  2.5435
  572MOL0     H77201   4.580   8.330   1.571  1.9151 -1.0082 -0.2676
  572MOL0     H77202   4.823   8.683   2.576 -0.0126 -1.2567 -1.7988
  572MOL0     H77203   4.901   8.652   2.819 -0.5417  4.1888 -2.9451
  572MOL0     H77204   5.045   8.583   3.128 -1.7509 -0.3656  0.1385
  572MOL0     H77205   5.169   8.635   3.324 -1.0781  0.8084 -0.7001
  572MOL0     H77206   5.013   9.454   5.188 -0.1933 -0.5977 -0.7803
  572MOL0     H77207   4.928   9.330   5.387  0.2590  0.2223 -0.1464
  572MOL0     H77208   4.909   8.879   5.566  0.3043 -1.9177  0.0559
  572MOL0     H77209   4.838   8.734   5.755  2.7905 -1.4514  2.7672
  572MOL0     H77210   4.977   8.804   6.163 -0.6994 -1.6538 -0.3045
  572MOL0     H77211   4.814   8.897   6.182 -2.1534  1.9936 -4.6180
  572MOL0     H77212   4.865   8.593   6.177 -0.7267 -1.4889  1.9921
  572MOL0     H77213   4.712   8.682   6.176  0.1232 -0.6228 -1.5099
  572MOL0     H77214   4.933   8.683   6.383  0.4786 -1.5482 -0.2871
  572MOL0     H77215   4.794   8.581   6.411  3.2382 -0.8267  1.1962
  572MOL0     H77216   4.646   8.787   6.441 -0.5172  0.9318  1.7870
  572MOL0     H77217   4.780   8.892   6.421  3.7174 -0.5105  2.1174
  572MOL0     H77218   4.837   8.737   6.807 -0.9407 -1.4233  0.2625
  572MOL0     H77219   4.999   9.039   6.026  1.2078  0.7704 -0.6928
  572MOL0     H77220   5.080   9.165   5.829 -1.5173  0.2982 -1.2959
  573MOL0     O77221   7.707   4.406   6.944 -0.2359 -0.2768  0.5303
  573MOL0     C77222   7.717   4.524   6.986  0.3165 -0.6059 -0.7461
  573MOL0     O77223   7.606   4.605   6.995 -0.1420  0.1187 -0.0752
  573MOL0     C77224   7.487   4.549   6.958 -0.0174  0.2606 -0.4434
  573MOL0     C77225   7.453   4.485   6.835 -1.4925 -0.0148  0.0250
  573MOL0     C77226   7.318   4.440   6.816 -0.3333 -0.1858 -0.3796
  573MOL0     C77227   7.224   4.451   6.914  0.0090 -0.5433 -1.4028
  573MOL0     O77228   7.108   4.381   6.915  0.2997  0.8632 -0.6229
  573MOL0     C77229   7.013   4.431   6.818  0.5619  0.7844 -0.2469
  573MOL0     C77230   6.894   4.482   6.888 -1.0170  0.3563 -0.0297
  573MOL0     C77231   6.795   4.531   6.782  0.2712 -0.2418  0.2756
  573MOL0     C77232   6.691   4.610   6.857  0.3273  0.0026 -0.1978
  573MOL0     C77233   6.589   4.690   6.762  0.7314 -0.3883  0.0375
  573MOL0     C77234   6.460   4.754   6.824 -1.2385  0.1509 -0.3367
  573MOL0     C77235   6.485   4.820   6.956  0.8428  0.2408 -0.5687
  573MOL0     C77236   6.581   4.940   6.943 -1.1952 -0.4410  0.0678
  573MOL0     N77237   6.641   4.980   7.071 -0.4062  0.6745 -0.3994
  573MOL0     C77238   6.590   5.012   7.194  0.2009 -0.7165 -0.6764
  573MOL0     C77239   6.687   5.030   7.276 -0.2562  0.5997 -0.2244
  573MOL0     C77240   6.688   5.081   7.414 -0.8060  0.3833 -0.2551
  573MOL0     C77241   6.798   5.012   7.497 -0.7851  0.6427  0.0177
  573MOL0     C77242   6.835   5.055   7.644  0.3225 -0.0706  0.7378
  573MOL0     C77243   6.904   5.190   7.631  0.5402 -0.5825 -0.1547
  573MOL0     O77244   7.018   5.191   7.718  0.1498  0.2478  0.0791
  573MOL0     C77245   7.090   5.309   7.720 -0.1861 -0.2186 -0.9601
  573MOL0     C77246   7.214   5.295   7.787 -0.1956  0.9663 -0.0713
  573MOL0     C77247   7.309   5.397   7.799 -0.2856  0.0997 -0.0599
  573MOL0     C77248   7.428   5.374   7.889  0.2628 -0.6413  0.9801
  573MOL0     C77249   7.290   5.521   7.731  0.6047 -0.0653 -0.4311
  573MOL0     C77250   7.385   5.637   7.722  0.5696  0.1689  0.3263
  573MOL0     O77251   7.318   5.759   7.726 -0.0580 -0.8842 -0.0140
  573MOL0     C77252   7.390   5.880   7.726 -0.3445  0.2058  0.3193
  573MOL0     C77253   7.351   5.995   7.794 -0.2959 -0.0447 -0.1356
  573MOL0     C77254   7.419   6.115   7.776 -1.2904 -0.0395  0.2081
  573MOL0     C77255   7.538   6.117   7.692 -1.1448  0.3246  0.6812
  573MOL0     O77256   7.612   6.234   7.690 -0.1678  0.0086 -0.6340
  573MOL0     C77257   7.694   6.258   7.574 -0.9540 -0.3695  0.0396
  573MOL0     C77258   7.684   6.418   7.560 -0.0298  0.3148 -0.4869
  573MOL0     C77259   7.705   6.476   7.426  0.4456  0.1683 -0.6648
  573MOL0     C77260   7.785   6.404   7.323  0.2698  0.2118  0.1437
  573MOL0     C77261   7.837   6.495   7.206  1.1834  0.0839 -0.0835
  573MOL0     C77262   7.819   6.432   7.066 -0.0652 -0.2219  0.8010
  573MOL0     C77263   7.911   6.489   6.958  0.6468  0.4151  0.6674
  573MOL0     C77264   7.940   6.384   6.861  0.2104  0.7321 -0.7493
  573MOL0    Cl77265   8.060   6.425   6.730 -0.4272  0.2499  0.1655
  573MOL0     C77266   7.570   6.010   7.615  0.6884 -0.6523 -0.1787
  573MOL0     C77267   7.501   5.898   7.635  0.1351  0.3056  0.7481
  573MOL0     O77268   7.502   5.618   7.720  0.0497  0.4243  0.3354
  573MOL0     C77269   7.159   5.536   7.676  0.6710  0.7568 -0.2316
  573MOL0     C77270   7.061   5.434   7.675  0.3426  0.5964 -0.6946
  573MOL0     N77271   6.805   5.003   7.209  0.1639 -0.8224 -0.9145
  573MOL0     N77272   6.778   4.976   7.090  0.3396 -0.1253 -0.2655
  573MOL0     C77273   7.271   4.501   7.038  0.3521 -0.1531  0.3150
  573MOL0     C77274   7.391   4.547   7.056 -0.0528 -0.0307 -0.5954
  573MOL0     C77275   7.858   4.589   6.995  0.0723 -0.5742 -0.2471
  573MOL0     C77276   7.866   4.731   7.005 -0.1294  0.4789 -0.5148
  573MOL0     C77277   7.982   4.793   7.005  0.1366  0.1571  0.4758
  573MOL0     C77278   8.103   4.723   7.007  0.7476  0.0698  0.6624
  573MOL0     O77279   8.224   4.779   6.987 -0.2642 -0.1468  1.0097
  573MOL0     C77280   8.236   4.919   7.011 -0.6065  0.3777 -0.6555
  573MOL0     C77281   8.379   4.957   6.979  0.3648 -0.7205 -0.1083
  573MOL0     C77282   8.397   5.111   6.978 -0.2996 -0.1097 -0.1632
  573MOL0     C77283   8.506   5.147   6.872 -0.5548  0.3033  0.4944
  573MOL0     C77284   8.634   5.092   6.916 -0.4532 -0.2536  0.4403
  573MOL0     C77285   8.745   5.028   6.925  0.9105  0.1298  0.2627
  573MOL0     C77286   8.103   4.585   7.018  0.0273 -0.2626 -0.3636
  573MOL0     C77287   7.976   4.528   7.028 -0.1955  0.3865 -0.3809
  573MOL0     H77288   7.521   4.467   6.752 -1.0704 -0.8899  0.5573
  573MOL0     H77289   7.294   4.403   6.716  0.0575  0.3056 -0.6594
  573MOL0     H77290   7.048   4.514   6.756 -1.2502  3.0953  1.6255
  573MOL0     H77291   6.980   4.351   6.750 -0.1161  1.4864 -0.7737
  573MOL0     H77292   6.840   4.410   6.951 -1.1581  2.2823  2.1762
  573MOL0     H77293   6.920   4.558   6.962  1.5248 -2.1523  1.8649
  573MOL0     H77294   6.838   4.607   6.716 -1.2696  0.1503 -0.3236
  573MOL0     H77295   6.746   4.457   6.718  0.8062  1.1104 -1.7864
  573MOL0     H77296   6.631   4.538   6.914 -0.4127  1.6984  1.2775
  573MOL0     H77297   6.728   4.672   6.940  0.8832  1.0585 -1.2052
  573MOL0     H77298   6.655   4.771   6.729  1.3542 -0.4033  1.1986
  573MOL0     H77299   6.542   4.628   6.685 -2.1308  1.3386  0.2919
  573MOL0     H77300   6.420   4.834   6.761  2.1710  4.0998  2.0110
  573MOL0     H77301   6.377   4.685   6.845  1.5924 -3.6621 -0.6663
  573MOL0     H77302   6.393   4.867   6.990  0.9875  1.6635 -2.0091
  573MOL0     H77303   6.507   4.744   7.031 -0.6924 -2.2363 -2.4780
  573MOL0     H77304   6.519   5.020   6.900 -5.8892 -3.3619  0.6080
  573MOL0     H77305   6.660   4.927   6.869 -2.8566  3.5409 -2.8253
  573MOL0     H77306   6.487   5.029   7.225  0.1814 -3.0921  0.7648
  573MOL0     H77307   6.714   5.187   7.408  1.3929  0.0870  2.1680
  573MOL0     H77308   6.594   5.074   7.469 -0.6060  0.2293  0.0688
  573MOL0     H77309   6.894   5.023   7.447  0.8265 -0.9633  2.5521
  573MOL0     H77310   6.777   4.905   7.499 -1.5200  0.7872  0.5391
  573MOL0     H77311   6.901   4.979   7.687 -0.3111  0.0726  2.0137
  573MOL0     H77312   6.745   5.063   7.706  0.7637  2.0349  1.1842
  573MOL0     H77313   6.830   5.269   7.649 -0.9384 -1.5585 -1.6976
  573MOL0     H77314   6.941   5.205   7.529 -0.1015  2.8379 -0.0329
  573MOL0     H77315   7.230   5.198   7.834  3.2601  0.7925 -1.2853
  573MOL0     H77316   7.504   5.318   7.834  0.8729  2.7213 -1.9314
  573MOL0     H77317   7.468   5.472   7.916 -1.4066 -0.8362  4.8806
  573MOL0     H77318   7.388   5.319   7.975 -0.5766  2.0913  2.4500
  573MOL0     H77319   7.259   6.000   7.851 -1.0054  1.8633 -1.3396
  573MOL0     H77320   7.407   6.210   7.826  0.3364 -0.4235  1.3871
  573MOL0     H77321   7.794   6.224   7.602 -0.5526  2.0405  1.8398
  573MOL0     H77322   7.672   6.210   7.479 -1.3110 -1.2711  0.5709
  573MOL0     H77323   7.592   6.455   7.607  0.6894  0.8115  0.5724
  573MOL0     H77324   7.759   6.462   7.627 -1.2120  0.7566  0.5822
  573MOL0     H77325   7.769   6.561   7.451 -0.1477  1.3697 -2.9073
  573MOL0     H77326   7.610   6.513   7.386  1.3542  2.8683 -0.5278
  573MOL0     H77327   7.870   6.369   7.382  2.5353  3.6420 -0.7766
  573MOL0     H77328   7.730   6.318   7.284  2.0066 -0.7601 -0.2541
  573MOL0     H77329   7.942   6.514   7.228  1.4091 -3.1708  2.2606
  573MOL0     H77330   7.788   6.593   7.211 -0.2687 -0.6049 -0.3424
  573MOL0     H77331   7.826   6.324   7.079 -0.2816 -0.0532  2.5443
  573MOL0     H77332   7.719   6.459   7.030  0.0834 -1.7901 -0.9420
  573MOL0     H77333   8.008   6.529   6.992  0.9692  1.0192 -0.8598
  573MOL0     H77334   7.868   6.579   6.913 -1.8948 -0.0379  2.0382
  573MOL0     H77335   7.849   6.364   6.804 -0.3211 -1.5935  0.7781
  573MOL0     H77336   7.973   6.292   6.911 -1.4395 -0.1974 -1.3128
  573MOL0     H77337   7.659   5.999   7.554  1.3042 -1.2087  0.7930
  573MOL0     H77338   7.526   5.811   7.576 -0.2075  0.0330  0.9964
  573MOL0     H77339   7.122   5.626   7.629 -2.6971  0.9151  2.2777
  573MOL0     H77340   6.958   5.439   7.640 -0.8984 -1.0150  2.3746
  573MOL0     H77341   7.193   4.484   7.112  1.2697 -1.3038  1.0596
  573MOL0     H77342   7.419   4.582   7.155 -2.1464  0.6050 -0.1996
  573MOL0     H77343   7.772   4.787   7.005  0.0496  0.8309  1.0696
  573MOL0     H77344   7.991   4.897   7.034 -0.9694 -0.6721  4.3682
  573MOL0     H77345   8.171   4.979   6.947  0.5994  1.6928 -0.6924
  573MOL0     H77346   8.216   4.936   7.117  2.6276  0.4127  0.0612
  573MOL0     H77347   8.391   4.921   6.876 -1.1607 -2.6462  0.3356
  573MOL0     H77348   8.452   4.908   7.045 -0.8906  2.2581  3.8881
  573MOL0     H77349   8.425   5.150   7.077  1.2081  2.0007 -1.3372
  573MOL0     H77350   8.299   5.151   6.953 -1.7078 -2.6994  0.8822
  573MOL0     H77351   8.520   5.255   6.867 -1.4358  0.4774  1.4545
  573MOL0     H77352   8.487   5.094   6.778 -3.2531  0.0119  1.1289
  573MOL0     H77353   8.836   4.974   6.944 -0.0614 -1.0740  1.7581
  573MOL0     H77354   8.197   4.537   7.041  0.6067  1.9346  2.5065
  573MOL0     H77355   7.955   4.423   7.047  1.0403  0.1284 -0.3712
  574MOL0     O77356   8.968   4.177   8.653  0.9924  0.2823 -0.2213
  574MOL0     C77357   9.055   4.258   8.681  0.3478  0.0476  0.3752
  574MOL0     O77358   9.028   4.392   8.721  1.4294 -0.5206  1.0127
  574MOL0     C77359   8.898   4.456   8.720 -0.4732  0.8791  0.2402
  574MOL0     C77360   8.880   4.587   8.673 -0.4250 -1.0269 -0.2947
  574MOL0     C77361   8.755   4.646   8.662  0.1853 -0.3192 -0.0878
  574MOL0     C77362   8.637   4.582   8.715  0.3468 -0.4255 -0.0542
  574MOL0     O77363   8.511   4.638   8.721  0.1765  0.4093 -0.2227
  574MOL0     C77364   8.483   4.773   8.701  0.5284 -0.8181  0.1674
  574MOL0     C77365   8.331   4.794   8.733 -0.4686  0.7575 -0.4948
  574MOL0     C77366   8.262   4.932   8.688  0.1176  0.5981 -0.4783
  574MOL0     C77367   8.105   4.920   8.686 -1.2211  0.3041  0.1046
  574MOL0     C77368   8.045   5.048   8.620 -0.0522  0.3287  0.3652
  574MOL0     C77369   7.896   5.028   8.628 -0.0356  0.0546 -0.3065
  574MOL0     C77370   7.818   5.129   8.540 -0.4638  0.2533 -0.8118
  574MOL0     C77371   7.670   5.130   8.574 -0.4195  0.3110 -0.1108
  574MOL0     N77372   7.616   4.994   8.608 -0.4669 -0.0265 -0.6780
  574MOL0     C77373   7.574   4.897   8.522  0.8216  0.2033 -0.0803
  574MOL0     C77374   7.536   4.789   8.605 -0.1438 -0.2981  0.6026
  574MOL0     C77375   7.468   4.658   8.560 -0.5760 -0.2648 -0.3018
  574MOL0     C77376   7.560   4.544   8.513 -0.4974  0.2087 -0.0861
  574MOL0     C77377   7.649   4.485   8.631 -0.2531 -0.2353  0.6675
  574MOL0     C77378   7.745   4.373   8.586  0.1145 -0.7817 -0.2994
  574MOL0     O77379   7.792   4.298   8.710  0.0112 -0.4088  0.5076
  574MOL0     C77380   7.711   4.192   8.745  0.4914 -0.4319 -0.0332
  574MOL0     C77381   7.713   4.081   8.671  0.5056  0.6680 -0.1552
  574MOL0     C77382   7.625   3.973   8.696  0.2925  0.1104  1.1750
  574MOL0     C77383   7.623   3.850   8.601  0.4075  0.4757 -0.5866
  574MOL0     C77384   7.526   3.981   8.794  0.5810  0.6035 -0.4432
  574MOL0     C77385   7.435   3.867   8.810 -0.7807 -0.2702 -0.1875
  574MOL0     O77386   7.413   3.832   8.950 -0.9581  0.6743  0.9977
  574MOL0     C77387   7.307   3.753   8.991 -0.3624 -0.0170  0.8752
  574MOL0     C77388   7.317   3.651   9.089 -0.6184  1.2353  0.2147
  574MOL0     C77389   7.218   3.554   9.104  0.6940  0.1441 -0.2372
  574MOL0     C77390   7.090   3.564   9.039 -0.2888 -0.6262 -0.1396
  574MOL0     O77391   6.986   3.480   9.049  0.1465  0.0004  1.4358
  574MOL0     C77392   6.982   3.380   9.150 -0.5635 -0.5203 -0.1356
  574MOL0     C77393   6.850   3.355   9.198  0.3672  0.1614 -0.6425
  574MOL0     C77394   6.837   3.212   9.253 -0.0253  0.5009  0.4522
  574MOL0     C77395   6.689   3.190   9.303 -0.3374  0.2845  0.1255
  574MOL0     C77396   6.648   3.050   9.279 -0.2573  0.6129 -0.7313
  574MOL0     C77397   6.503   3.033   9.307 -0.2636  0.1589  0.2814
  574MOL0     C77398   6.464   3.092   9.444 -0.0272  0.9890  0.2229
  574MOL0     C77399   6.329   3.027   9.494 -0.0354  0.0818 -0.3979
  574MOL0    Cl77400   6.265   3.118   9.630 -0.0367  0.1429 -0.0149
  574MOL0     C77401   7.073   3.674   8.960 -0.8321  0.3838 -0.1217
  574MOL0     C77402   7.178   3.764   8.935 -0.1440  0.6982 -0.2284
  574MOL0     O77403   7.360   3.836   8.717 -0.3302 -0.1254 -0.4057
  574MOL0     C77404   7.531   4.094   8.874  0.1553 -0.5241 -0.0606
  574MOL0     C77405   7.622   4.198   8.849 -0.7525  0.0522 -0.6166
  574MOL0     N77406   7.566   4.830   8.729  0.9924  0.0518 -0.4546
  574MOL0     N77407   7.612   4.947   8.736  0.1021 -0.5984  0.6767
  574MOL0     C77408   8.654   4.456   8.784  0.3672  0.3569  0.7183
  574MOL0     C77409   8.788   4.399   8.778 -0.7592  0.7027 -0.2522
  574MOL0     C77410   9.192   4.209   8.674  0.6194  0.7274  0.0531
  574MOL0     C77411   9.301   4.293   8.651 -0.4409 -0.1676 -0.4829
  574MOL0     C77412   9.434   4.252   8.650  1.2610  0.5902  0.5608
  574MOL0     C77413   9.467   4.118   8.665  0.2265 -0.4560 -1.2341
  574MOL0     O77414   9.599   4.064   8.670 -0.0313  0.3030  0.6403
  574MOL0     C77415   9.618   3.925   8.702  0.1340 -0.2722 -0.4199
  574MOL0     C77416   9.768   3.908   8.742 -0.3661 -0.3111 -0.5911
  574MOL0     C77417   9.816   3.762   8.748 -0.0167  0.0041 -0.2916
  574MOL0     C77418   9.965   3.733   8.774 -1.6071 -1.4184  0.1395
  574MOL0     C77419  10.053   3.774   8.659  1.1262  0.2294 -0.4422
  574MOL0     C77420  10.117   3.790   8.563 -0.0134 -0.0230  0.5862
  574MOL0     C77421   9.352   4.028   8.681  0.0813 -0.7722 -0.1464
  574MOL0     C77422   9.221   4.072   8.686 -0.0139  1.3466  0.3360
  574MOL0     H77423   8.971   4.632   8.635 -1.4913 -0.4341 -2.2676
  574MOL0     H77424   8.734   4.744   8.622 -1.9073 -0.1818  1.1863
  574MOL0     H77425   8.548   4.830   8.768 -0.5182  0.0706  0.4537
  574MOL0     H77426   8.499   4.793   8.595 -2.0398 -0.5172 -0.2252
  574MOL0     H77427   8.287   4.717   8.668 -0.4208  0.0324  0.3214
  574MOL0     H77428   8.313   4.766   8.837 -0.6097  0.9031 -0.4794
  574MOL0     H77429   8.281   5.016   8.754  3.9987  0.6917 -1.4673
  574MOL0     H77430   8.308   4.967   8.595  2.8381  0.0780  0.5956
  574MOL0     H77431   8.078   4.832   8.626  1.0216  1.2753 -2.5287
  574MOL0     H77432   8.078   4.903   8.791 -0.0391  0.0237  0.3753
  574MOL0     H77433   8.085   5.143   8.657  0.9812 -1.7293  5.1670
  574MOL0     H77434   8.086   5.043   8.518  0.4333 -0.2720  0.5863
  574MOL0     H77435   7.867   4.929   8.593 -0.5310  0.7558 -1.9731
  574MOL0     H77436   7.864   5.043   8.732 -0.8526 -0.3558 -0.4861
  574MOL0     H77437   7.851   5.232   8.553 -1.9726  0.6961 -0.2412
  574MOL0     H77438   7.829   5.098   8.436  2.5622 -1.8635  0.0068
  574MOL0     H77439   7.620   5.176   8.488  1.8038 -0.3525 -1.8470
  574MOL0     H77440   7.651   5.193   8.661 -1.0035 -0.6184  0.4531
  574MOL0     H77441   7.570   4.904   8.414 -1.7331 -0.6479 -0.0962
  574MOL0     H77442   7.407   4.623   8.644 -0.0103 -0.3388  0.0815
  574MOL0     H77443   7.404   4.684   8.475  0.8639  0.8436 -1.0819
  574MOL0     H77444   7.629   4.580   8.436  2.5052 -0.1987  2.2001
  574MOL0     H77445   7.490   4.475   8.465  1.1195  0.8045 -3.6668
  574MOL0     H77446   7.567   4.449   8.694  0.3868  1.2188  2.4138
  574MOL0     H77447   7.709   4.562   8.680  1.8562 -1.2642 -0.1306
  574MOL0     H77448   7.832   4.425   8.544 -0.0471  0.6320  1.0194
  574MOL0     H77449   7.697   4.313   8.509 -1.7255 -0.2008  0.3426
  574MOL0     H77450   7.769   4.083   8.578 -0.7122  0.3623 -0.9283
  574MOL0     H77451   7.535   3.851   8.537 -0.4107 -2.0859  0.3977
  574MOL0     H77452   7.723   3.836   8.559  0.6029 -3.7228  0.8409
  574MOL0     H77453   7.616   3.760   8.662 -0.7411 -0.1574 -1.6243
  574MOL0     H77454   7.415   3.623   9.126 -0.4462  1.5571  0.0036
  574MOL0     H77455   7.253   3.473   9.167  1.8892  0.0361 -1.0059
  574MOL0     H77456   7.024   3.288   9.108 -1.1681  0.2759 -2.6561
  574MOL0     H77457   7.040   3.399   9.241  0.8577 -2.9173 -0.4390
  574MOL0     H77458   6.830   3.419   9.285  0.6418 -0.0497 -0.4218
  574MOL0     H77459   6.766   3.383   9.134 -0.1936  0.7225  0.3118
  574MOL0     H77460   6.913   3.195   9.330  1.6754 -0.5766 -1.3511
  574MOL0     H77461   6.857   3.134   9.179  5.8742 -0.4813  2.5633
  574MOL0     H77462   6.681   3.210   9.410  0.1180 -1.4517  0.5167
  574MOL0     H77463   6.616   3.261   9.263 -0.2184  1.1533  1.4072
  574MOL0     H77464   6.706   2.990   9.351  1.4865  3.5883  0.5064
  574MOL0     H77465   6.663   3.009   9.179  1.0756 -1.2343  0.1586
  574MOL0     H77466   6.447   3.093   9.234  1.9197  2.1120  0.1085
  574MOL0     H77467   6.458   2.935   9.288 -2.5904  1.2105 -0.0943
  574MOL0     H77468   6.449   3.200   9.440  0.0088  0.9777 -0.2001
  574MOL0     H77469   6.532   3.055   9.522 -2.2288 -3.6211  0.3486
  574MOL0     H77470   6.340   2.924   9.529  1.0401  0.8704  1.7196
  574MOL0     H77471   6.248   3.020   9.421 -2.3186  0.0944  1.9904
  574MOL0     H77472   6.985   3.677   8.897 -0.2874 -0.5509 -0.9456
  574MOL0     H77473   7.156   3.845   8.867 -0.9292  3.1874  2.7719
  574MOL0     H77474   7.454   4.106   8.950  1.9278 -1.6038  2.0204
  574MOL0     H77475   7.621   4.281   8.919  1.3271 -4.7953  6.2219
  574MOL0     H77476   8.563   4.407   8.819 -1.3280  2.4702 -0.4437
  574MOL0     H77477   8.809   4.300   8.818  0.7886  0.9049 -0.4937
  574MOL0     H77478   9.296   4.401   8.649  0.1406 -0.0294  2.0202
  574MOL0     H77479   9.512   4.327   8.647  3.0647 -1.1655 -3.5130
  574MOL0     H77480   9.557   3.893   8.787 -2.2016  3.2110 -0.5650
  574MOL0     H77481   9.587   3.856   8.623 -1.4968  3.3769 -3.2810
  574MOL0     H77482   9.780   3.960   8.838  0.7548 -0.0260 -0.8714
  574MOL0     H77483   9.840   3.959   8.679  3.8952  0.7311  4.4167
  574MOL0     H77484   9.784   3.717   8.653 -3.5549  1.8407 -0.1314
  574MOL0     H77485   9.757   3.712   8.825 -0.0233  3.8671  2.4850
  574MOL0     H77486   9.995   3.628   8.784 -0.4173 -1.1921 -0.9185
  574MOL0     H77487   9.988   3.790   8.865 -1.6781 -0.7155 -0.2740
  574MOL0     H77488  10.173   3.821   8.477  0.6454 -1.1404  0.5941
  574MOL0     H77489   9.370   3.921   8.694  0.3155 -0.5479  1.5111
  574MOL0     H77490   9.145   3.995   8.692  0.8470  0.2464 -1.8403
  575MOL0     O77491   6.770   4.822   0.464  0.9849  0.7181  0.5546
  575MOL0     C77492   6.888   4.847   0.454 -1.3669  0.5230  0.2643
  575MOL0     O77493   6.989   4.868   0.556  0.6011  0.7544  0.4364
  575MOL0     C77494   6.945   4.865   0.686 -0.3406 -0.3625 -0.4130
  575MOL0     C77495   6.897   4.747   0.744 -1.0947  0.2565  0.0072
  575MOL0     C77496   6.864   4.749   0.884  1.7792  0.4366 -0.1376
  575MOL0     C77497   6.877   4.856   0.966  0.3847  0.2732 -0.1812
  575MOL0     O77498   6.853   4.832   1.095  0.3693  0.1192  0.0347
  575MOL0     C77499   6.847   4.920   1.207  0.6018 -0.9088 -0.3994
  575MOL0     C77500   6.984   4.911   1.276 -0.3544  1.1538 -0.3896
  575MOL0     C77501   7.020   4.769   1.327 -0.2546  0.6319 -1.0701
  575MOL0     C77502   7.148   4.770   1.416 -0.1835 -0.3855 -0.1614
  575MOL0     C77503   7.202   4.628   1.432  0.3965 -0.0894 -1.6751
  575MOL0     C77504   7.326   4.639   1.523  0.0213  0.3364  0.1409
  575MOL0     C77505   7.379   4.506   1.578 -0.1167  1.0220  0.0168
  575MOL0     C77506   7.488   4.435   1.490  0.1637 -0.4244 -0.2024
  575MOL0     N77507   7.551   4.317   1.547  0.1178 -0.6034  0.1760
  575MOL0     C77508   7.526   4.190   1.506 -0.1429 -0.5538 -0.8816
  575MOL0     C77509   7.604   4.104   1.583  0.7014 -0.7641  0.0652
  575MOL0     C77510   7.605   3.959   1.557 -0.2937  0.1639 -0.3488
  575MOL0     C77511   7.729   3.930   1.473 -0.0655  0.0401  0.6382
  575MOL0     C77512   7.710   3.981   1.324  0.2530  0.4475 -0.2207
  575MOL0     C77513   7.838   3.963   1.249 -0.7169 -0.2597 -0.4339
  575MOL0     O77514   7.883   3.821   1.239  0.0604 -0.0383  0.4398
  575MOL0     C77515   7.963   3.797   1.126 -0.7992  0.6688  0.4861
  575MOL0     C77516   8.075   3.716   1.158 -0.1083  0.2739  0.3664
  575MOL0     C77517   8.165   3.671   1.060 -0.0473  0.6365  0.5001
  575MOL0     C77518   8.276   3.573   1.112  0.3157  0.6044 -0.4932
  575MOL0     C77519   8.145   3.713   0.923 -0.5128 -0.7447 -0.0133
  575MOL0     C77520   8.246   3.691   0.827  0.1855  0.0369 -0.5239
  575MOL0     O77521   8.362   3.728   0.857 -0.6670  0.1320  0.2626
  575MOL0     C77522   8.461   3.738   0.756 -0.1447 -0.1502  0.2185
  575MOL0     C77523   8.540   3.630   0.721  0.2494 -0.2196  0.4261
  575MOL0     C77524   8.616   3.628   0.612  0.1498 -0.2041 -1.1252
  575MOL0     C77525   8.609   3.729   0.519  0.3107 -0.3296  0.3223
  575MOL0     O77526   8.694   3.713   0.416  0.4661  0.1353  0.1141
  575MOL0     C77527   8.726   3.825   0.328 -0.6541 -0.1911 -0.5122
  575MOL0     C77528   8.837   3.803   0.228  0.7375 -0.0201 -0.4849
  575MOL0     C77529   8.981   3.836   0.289 -0.7142 -0.4829 -0.2617
  575MOL0     C77530   9.091   3.858   0.176  1.1828  0.6520 -0.6786
  575MOL0     C77531   9.142   3.729   0.107 -0.9079  0.0370 -0.6114
  575MOL0     C77532   9.266   3.742   0.004  0.5553 -0.0929 -0.9865
  575MOL0     C77533   9.313   3.622  -0.071  0.1166 -0.1600  0.2759
  575MOL0     C77534   9.220   3.525  -0.129 -0.2669  0.7136 -0.0172
  575MOL0    Cl77535   9.125   3.591  -0.269 -0.1516  0.5533 -0.3185
  575MOL0     C77536   8.519   3.832   0.547  0.5718 -1.5456 -0.4914
  575MOL0     C77537   8.445   3.848   0.666 -0.3230  0.1880 -0.2050
  575MOL0     O77538   8.217   3.629   0.724  0.2219 -0.3907 -0.5903
  575MOL0     C77539   8.029   3.786   0.899 -1.1693 -0.6600  0.7681
  575MOL0     C77540   7.940   3.821   0.991 -0.4272 -0.6937  0.0208
  575MOL0     N77541   7.669   4.182   1.677  0.0750 -0.2066 -0.4033
  575MOL0     N77542   7.640   4.309   1.657  0.5753 -0.0805  0.0166
  575MOL0     C77543   6.954   4.960   0.911 -0.1857 -0.3867  0.6983
  575MOL0     C77544   6.984   4.969   0.776 -0.5376 -0.0658  0.4707
  575MOL0     C77545   6.947   4.859   0.322  1.2287  0.9181  0.9422
  575MOL0     C77546   6.868   4.834   0.200  0.4749 -0.0180  0.1718
  575MOL0     C77547   6.934   4.865   0.075 -0.3242 -0.4278 -0.0349
  575MOL0     C77548   7.063   4.921   0.072 -0.2445  0.5765  0.6831
  575MOL0     O77549   7.121   4.926  -0.054  0.5013 -0.1132 -0.0827
  575MOL0     C77550   7.126   5.056  -0.116  0.4846 -0.4571  1.1156
  575MOL0     C77551   7.225   5.037  -0.241  0.5395  0.1232 -0.6902
  575MOL0     C77552   7.364   4.983  -0.211  1.0508  0.1843  0.0416
  575MOL0     C77553   7.376   4.830  -0.211 -0.1444 -1.0832  0.3177
  575MOL0     C77554   7.361   4.778  -0.345  0.4692  0.1672 -0.0584
  575MOL0     C77555   7.344   4.732  -0.454  0.2395 -0.6422  0.5724
  575MOL0     C77556   7.135   4.949   0.189  0.3466  0.6168  0.5744
  575MOL0     C77557   7.079   4.917   0.312 -0.2732 -0.2925 -0.5120
  575MOL0     H77558   6.902   4.650   0.695  0.2814 -0.6897  1.9034
  575MOL0     H77559   6.841   4.651   0.924  0.4026  0.3239 -1.1351
  575MOL0     H77560   6.830   5.026   1.186  1.7782 -0.6013  0.1213
  575MOL0     H77561   6.774   4.888   1.282  0.2643 -1.1168 -0.8172
  575MOL0     H77562   7.056   4.945   1.201  0.1779 -2.2531 -1.5885
  575MOL0     H77563   6.975   4.977   1.363 -0.9372  1.9514 -1.0300
  575MOL0     H77564   6.943   4.740   1.399  1.6908  1.8757  1.7084
  575MOL0     H77565   7.032   4.697   1.246  0.7168 -0.1231 -0.2847
  575MOL0     H77566   7.213   4.840   1.363  0.7158 -1.2476 -0.2294
  575MOL0     H77567   7.112   4.812   1.511 -4.0095 -2.2181 -0.5831
  575MOL0     H77568   7.123   4.567   1.477  2.2643 -0.4150  1.4833
  575MOL0     H77569   7.217   4.585   1.332 -0.5836 -3.4480 -0.5115
  575MOL0     H77570   7.403   4.680   1.458  0.3311 -1.0547 -0.4124
  575MOL0     H77571   7.295   4.709   1.601 -0.7201  0.3879 -0.1844
  575MOL0     H77572   7.423   4.519   1.677 -0.8900 -0.7960  0.6362
  575MOL0     H77573   7.294   4.439   1.589 -0.9762  1.1866 -4.1294
  575MOL0     H77574   7.562   4.514   1.477  0.3958 -0.2131  2.0268
  575MOL0     H77575   7.445   4.411   1.392 -4.2849  2.3245  0.7834
  575MOL0     H77576   7.459   4.181   1.421 -0.5893  0.3978 -0.6345
  575MOL0     H77577   7.609   3.911   1.655  1.0092  0.8959 -0.0135
  575MOL0     H77578   7.516   3.940   1.496  0.2110  4.7882 -2.9770
  575MOL0     H77579   7.740   3.821   1.479 -1.4672 -0.1711 -0.1250
  575MOL0     H77580   7.813   3.973   1.528  0.2886  0.8810 -0.5203
  575MOL0     H77581   7.677   4.085   1.320 -0.2792  0.3039  0.3133
  575MOL0     H77582   7.635   3.925   1.268  1.8053 -0.6814 -1.2456
  575MOL0     H77583   7.914   4.015   1.309 -0.8283  1.1902 -1.4898
  575MOL0     H77584   7.837   4.006   1.149  0.4542 -2.9138 -1.6816
  575MOL0     H77585   8.096   3.683   1.260  2.9812 -1.3349 -0.6292
  575MOL0     H77586   8.380   3.586   1.082  0.1340 -1.6888 -2.4514
  575MOL0     H77587   8.272   3.590   1.220 -3.4753  4.8019 -0.9841
  575MOL0     H77588   8.232   3.476   1.086 -0.0568  0.7556 -0.4317
  575MOL0     H77589   8.541   3.545   0.788 -2.1285  0.2817  1.1851
  575MOL0     H77590   8.685   3.549   0.585 -0.9484 -0.7819 -2.3167
  575MOL0     H77591   8.633   3.837   0.272 -0.9902  2.0064  0.3879
  575MOL0     H77592   8.759   3.917   0.379 -0.7421 -0.4901  0.0973
  575MOL0     H77593   8.833   3.697   0.201  1.2511 -1.2838  3.6155
  575MOL0     H77594   8.818   3.879   0.152  0.1976  0.1763 -0.1568
  575MOL0     H77595   9.010   3.758   0.360  1.8440 -0.0901 -0.8086
  575MOL0     H77596   8.985   3.926   0.351  2.5778 -0.6693 -0.0615
  575MOL0     H77597   9.053   3.927   0.100 -0.1700  0.7390  0.0505
  575MOL0     H77598   9.178   3.908   0.218 -1.1393  3.1576  1.4744
  575MOL0     H77599   9.065   3.667   0.061  1.1393 -1.5837 -2.0513
  575MOL0     H77600   9.189   3.671   0.187  1.4861  0.1010 -1.8955
  575MOL0     H77601   9.229   3.812  -0.071  0.8683  1.5468  0.3234
  575MOL0     H77602   9.341   3.809   0.047  0.0272 -0.3716  0.4193
  575MOL0     H77603   9.367   3.565   0.005 -1.4563 -2.9897 -0.5990
  575MOL0     H77604   9.400   3.650  -0.132  0.9182 -1.3690  0.8258
  575MOL0     H77605   9.158   3.487  -0.047 -0.8920  0.8470 -0.4241
  575MOL0     H77606   9.271   3.440  -0.174 -1.5814  1.2307 -2.6836
  575MOL0     H77607   8.518   3.905   0.467 -1.6955 -0.4496  0.4507
  575MOL0     H77608   8.387   3.932   0.703 -2.9993 -0.6339 -2.2138
  575MOL0     H77609   8.014   3.802   0.793  0.6503  0.9792  0.7153
  575MOL0     H77610   7.847   3.868   0.960  1.1769  2.0190 -1.0910
  575MOL0     H77611   6.979   5.048   0.971 -0.8695 -1.3601  2.4976
  575MOL0     H77612   7.062   5.039   0.748  0.2572  0.4688  3.6895
  575MOL0     H77613   6.767   4.795   0.203  0.2077  0.4022 -1.7781
  575MOL0     H77614   6.883   4.846  -0.019  0.6638 -0.7505 -0.5249
  575MOL0     H77615   7.023   5.083  -0.143  1.8633  2.4132 -1.8782
  575MOL0     H77616   7.149   5.130  -0.038  0.5147 -0.4223  1.0738
  575MOL0     H77617   7.225   5.139  -0.280  1.1945  0.9113  1.3010
  575MOL0     H77618   7.167   4.979  -0.314  2.8861  0.6549 -3.1780
  575MOL0     H77619   7.394   5.013  -0.110  0.0981  0.4124  0.2718
  575MOL0     H77620   7.433   5.008  -0.291 -2.8788 -1.1339 -4.1827
  575MOL0     H77621   7.299   4.786  -0.147 -1.7899  0.4714 -0.4679
  575MOL0     H77622   7.476   4.794  -0.189  1.1369  0.0171 -3.0276
  575MOL0     H77623   7.323   4.677  -0.544 -2.5129  1.3614 -0.1668
  575MOL0     H77624   7.228   5.002   0.174 -0.5596  2.4666  1.1267
  575MOL0     H77625   7.144   4.948   0.393  2.2657 -0.1582 -2.4674
  576MOL0     O77626   0.996   0.219   5.019  0.4689  0.1406  0.1387
  576MOL0     C77627   0.876   0.232   5.040  0.3534 -0.3349 -0.6381
  576MOL0     O77628   0.813   0.242   5.163  1.0975 -0.5796 -0.0224
  576MOL0     C77629   0.900   0.254   5.264 -0.3062 -0.5928 -0.1456
  576MOL0     C77630   0.909   0.373   5.338  0.2143 -0.0163 -0.4678
  576MOL0     C77631   1.000   0.382   5.439 -0.4286 -0.2072 -1.0658
  576MOL0     C77632   1.066   0.270   5.494  0.1503  0.2247  0.0929
  576MOL0     O77633   1.153   0.286   5.595 -1.5099 -0.1628  0.0687
  576MOL0     C77634   1.255   0.384   5.572 -0.0820 -0.2861 -0.4488
  576MOL0     C77635   1.324   0.405   5.701 -1.2226  0.7749  0.1125
  576MOL0     C77636   1.409   0.287   5.726 -1.0600 -0.3070 -0.5029
  576MOL0     C77637   1.519   0.342   5.814 -0.7407 -0.0942 -0.8215
  576MOL0     C77638   1.607   0.233   5.867  0.3542 -0.9836  0.3702
  576MOL0     C77639   1.697   0.182   5.753  0.5270  0.8678  0.8268
  576MOL0     C77640   1.795   0.071   5.797 -0.1786 -0.8154  0.4775
  576MOL0     C77641   1.915   0.036   5.708  1.3915 -1.4477  0.4211
  576MOL0     N77642   1.878  -0.063   5.604  0.2373 -0.0416 -0.6703
  576MOL0     C77643   1.899  -0.199   5.609  0.2025  1.0253  0.1951
  576MOL0     C77644   1.867  -0.247   5.481  0.9038 -0.6878 -0.0803
  576MOL0     C77645   1.879  -0.397   5.447 -0.0392  0.0671 -0.2446
  576MOL0     C77646   2.016  -0.455   5.484  0.4565 -0.0870 -0.2506
  576MOL0     C77647   2.137  -0.376   5.416  0.0390  0.6590  1.7100
  576MOL0     C77648   2.252  -0.479   5.391 -0.0939 -0.2537  0.0985
  576MOL0     O77649   2.221  -0.595   5.300 -0.0284  0.1806  0.5803
  576MOL0     C77650   2.320  -0.680   5.259 -0.2823 -0.6277  0.1865
  576MOL0     C77651   2.298  -0.739   5.141 -0.7063 -0.4587 -0.7356
  576MOL0     C77652   2.391  -0.822   5.084 -0.5595  1.2992  0.4086
  576MOL0     C77653   2.335  -0.880   4.955  0.0519 -0.4555  0.3018
  576MOL0     C77654   2.513  -0.862   5.145  0.4193 -1.3421 -0.1774
  576MOL0     C77655   2.605  -0.959   5.080  0.5724  0.3917  1.0577
  576MOL0     O77656   2.590  -0.981   4.945 -0.1942 -0.2850  0.0630
  576MOL0     C77657   2.677  -1.061   4.878 -0.3483  0.4421  0.2917
  576MOL0     C77658   2.794  -1.008   4.817  0.3409  0.1111 -0.2852
  576MOL0     C77659   2.876  -1.092   4.746 -0.1224  0.3373  0.5103
  576MOL0     C77660   2.848  -1.224   4.725 -0.5190  1.3414 -0.0026
  576MOL0     O77661   2.935  -1.300   4.642  0.0729 -0.4716  0.6080
  576MOL0     C77662   2.902  -1.435   4.622  0.4242  0.1601 -0.0036
  576MOL0     C77663   3.020  -1.496   4.543 -0.7667 -0.5325  0.0790
  576MOL0     C77664   2.995  -1.486   4.385 -1.0317 -0.2056 -0.4679
  576MOL0     C77665   3.028  -1.354   4.323  0.1461 -0.5063  0.1903
  576MOL0     C77666   3.185  -1.322   4.324 -0.0902  0.1312 -0.2803
  576MOL0     C77667   3.201  -1.186   4.251 -0.4398 -0.2753 -0.1752
  576MOL0     C77668   3.145  -1.059   4.330 -0.1020 -0.0704 -0.3741
  576MOL0     C77669   3.197  -0.934   4.259  0.8555  0.3712  0.5801
  576MOL0    Cl77670   3.151  -0.796   4.354 -0.1781 -0.0854 -0.4573
  576MOL0     C77671   2.721  -1.274   4.772  0.2708 -0.2539 -0.1092
  576MOL0     C77672   2.640  -1.185   4.844 -0.6352  0.2714  1.0027
  576MOL0     O77673   2.711  -0.990   5.140 -0.4630  0.4127  0.3303
  576MOL0     C77674   2.539  -0.796   5.268  0.0174 -0.2305  0.0112
  576MOL0     C77675   2.440  -0.710   5.326 -0.0766 -0.3804 -0.5122
  576MOL0     N77676   1.835  -0.139   5.402 -0.1149  0.0198  0.3748
  576MOL0     N77677   1.835  -0.028   5.477  0.5864 -0.1541 -0.6743
  576MOL0     C77678   1.056   0.146   5.426 -0.8284  0.2019 -0.4764
  576MOL0     C77679   0.974   0.137   5.309  0.1625  0.4295 -0.0896
  576MOL0     C77680   0.779   0.259   4.925 -0.6676  0.4093 -0.1515
  576MOL0     C77681   0.641   0.287   4.950  0.2591  0.5920  0.3151
  576MOL0     C77682   0.557   0.329   4.850 -0.3908  0.0035  0.9860
  576MOL0     C77683   0.610   0.334   4.717  0.0238  0.3214  0.0697
  576MOL0     O77684   0.544   0.364   4.605 -0.3680  0.0300 -0.0998
  576MOL0     C77685   0.405   0.331   4.599 -0.6492 -0.0236  0.1238
  576MOL0     C77686   0.311   0.463   4.574 -0.2157 -0.0568  0.4244
  576MOL0     C77687   0.160   0.423   4.569 -0.2490 -0.0497  0.6903
  576MOL0     C77688   0.111   0.409   4.417 -0.8731  0.0869 -0.1858
  576MOL0     C77689   0.179   0.320   4.322 -0.2181  0.3776 -0.7221
  576MOL0     C77690   0.225   0.245   4.244  0.0009 -0.7884  0.3600
  576MOL0     C77691   0.744   0.297   4.693  1.1407  0.9265  0.2462
  576MOL0     C77692   0.831   0.261   4.793  0.6594 -1.4067  0.5458
  576MOL0     H77693   0.855   0.462   5.306  0.6675  0.5892  0.3845
  576MOL0     H77694   1.008   0.480   5.485 -1.0905 -0.7503  0.2550
  576MOL0     H77695   1.321   0.345   5.495  1.4058  2.8393 -0.9206
  576MOL0     H77696   1.225   0.482   5.533 -0.9787  0.9248  2.9289
  576MOL0     H77697   1.380   0.499   5.694 -2.1949  1.3759  0.1818
  576MOL0     H77698   1.251   0.423   5.780  1.3388 -0.1385  2.8756
  576MOL0     H77699   1.355   0.199   5.763  0.6500 -1.3231 -0.3160
  576MOL0     H77700   1.458   0.264   5.631 -2.6401  2.2981 -2.0751
  576MOL0     H77701   1.584   0.417   5.767 -0.1928 -0.4071 -0.5788
  576MOL0     H77702   1.488   0.394   5.905  4.4784 -0.9291  1.8361
  576MOL0     H77703   1.658   0.280   5.952 -0.7367  0.0726  0.4785
  576MOL0     H77704   1.542   0.155   5.907  0.0647 -0.3723  1.1380
  576MOL0     H77705   1.638   0.152   5.666  1.0275 -2.5447  1.4964
  576MOL0     H77706   1.760   0.267   5.724  1.2730 -0.8766 -3.3351
  576MOL0     H77707   1.839   0.109   5.890 -0.6610  0.2924  0.2628
  576MOL0     H77708   1.742  -0.020   5.825 -2.3070 -0.5986 -2.4211
  576MOL0     H77709   1.995   0.000   5.773  1.8520  0.3522  0.8956
  576MOL0     H77710   1.929   0.133   5.660 -2.4793 -0.1433  1.5567
  576MOL0     H77711   1.934  -0.256   5.695 -1.3477 -3.8994 -2.0905
  576MOL0     H77712   1.802  -0.443   5.510  0.3321 -1.4236 -0.8407
  576MOL0     H77713   1.860  -0.417   5.341  0.9820 -0.9157 -0.2594
  576MOL0     H77714   2.019  -0.562   5.458  0.5360 -0.6856  2.0279
  576MOL0     H77715   2.025  -0.455   5.593  2.2043 -1.2754 -0.3462
  576MOL0     H77716   2.181  -0.289   5.466 -2.1264  2.9607 -0.1554
  576MOL0     H77717   2.101  -0.331   5.324 -1.1322 -2.0344  0.7412
  576MOL0     H77718   2.296  -0.523   5.481  0.7331  0.1387 -0.1062
  576MOL0     H77719   2.339  -0.427   5.352 -1.7469  2.1072 -0.7085
  576MOL0     H77720   2.212  -0.703   5.085  0.1784  3.0613 -0.0684
  576MOL0     H77721   2.381  -0.825   4.873 -1.0310 -0.1052 -0.0994
  576MOL0     H77722   2.351  -0.987   4.941 -2.2848 -0.5038 -3.3684
  576MOL0     H77723   2.228  -0.862   4.937 -0.7546 -0.3471  4.3216
  576MOL0     H77724   2.823  -0.904   4.826  2.1653 -0.2259 -1.8471
  576MOL0     H77725   2.970  -1.055   4.705  2.1031 -4.0152  1.0503
  576MOL0     H77726   2.905  -1.483   4.720 -2.0371 -0.0716  0.0131
  576MOL0     H77727   2.804  -1.453   4.577  0.5756 -1.4250  0.2585
  576MOL0     H77728   3.110  -1.444   4.580 -0.3235 -2.7244  2.3504
  576MOL0     H77729   3.030  -1.604   4.558 -0.7197 -0.5352  0.0317
  576MOL0     H77730   2.890  -1.502   4.360 -0.4347 -1.5511 -2.3734
  576MOL0     H77731   3.044  -1.564   4.326 -1.7909  1.4611 -3.4897
  576MOL0     H77732   2.979  -1.361   4.226 -1.3354 -2.5160  1.0143
  576MOL0     H77733   2.981  -1.274   4.381  2.0066  0.0108  1.0421
  576MOL0     H77734   3.239  -1.397   4.266 -0.4742 -0.1225 -0.3122
  576MOL0     H77735   3.231  -1.326   4.423  1.4359  0.0571 -0.9681
  576MOL0     H77736   3.310  -1.170   4.250 -0.5082  0.3730  0.7393
  576MOL0     H77737   3.169  -1.194   4.147 -1.5898  2.8168 -0.1730
  576MOL0     H77738   3.185  -1.066   4.432 -0.4424 -0.0095 -0.2360
  576MOL0     H77739   3.039  -1.067   4.353 -0.1256  0.6948 -0.1754
  576MOL0     H77740   3.145  -0.915   4.165 -3.9002  0.2809  2.8917
  576MOL0     H77741   3.306  -0.928   4.253  0.9278  1.0470  2.0970
  576MOL0     H77742   2.678  -1.374   4.767  0.5128 -0.4447  1.2518
  576MOL0     H77743   2.549  -1.228   4.883 -1.9809  1.5408 -0.5913
  576MOL0     H77744   2.629  -0.806   5.328  1.6476  1.9103 -1.8664
  576MOL0     H77745   2.462  -0.666   5.423 -2.7547 -1.4627  0.6699
  576MOL0     H77746   1.127   0.079   5.473  0.1910  0.0481 -2.1867
  576MOL0     H77747   0.955   0.039   5.265  2.2941  0.1171 -0.3870
  576MOL0     H77748   0.611   0.300   5.053 -2.6157 -1.2238 -0.1650
  576MOL0     H77749   0.456   0.364   4.871  0.4967  2.6878  1.1152
  576MOL0     H77750   0.386   0.269   4.511 -0.2569 -1.1373  0.8030
  576MOL0     H77751   0.381   0.273   4.689  1.0718 -4.3304 -1.9078
  576MOL0     H77752   0.332   0.522   4.484 -2.0337  0.1769  0.1112
  576MOL0     H77753   0.326   0.525   4.662 -0.7524  0.7255 -0.0185
  576MOL0     H77754   0.109   0.508   4.615  2.8363 -0.7307  6.3111
  576MOL0     H77755   0.156   0.329   4.626 -1.3994 -0.4378  0.0074
  576MOL0     H77756   0.117   0.510   4.375  0.4301  0.6447  1.2326
  576MOL0     H77757   0.006   0.381   4.417 -1.2870  1.4768  1.0339
  576MOL0     H77758   0.266   0.182   4.168  2.4677  0.6145  0.4394
  576MOL0     H77759   0.778   0.292   4.590 -1.8077 -0.8596 -0.7773
  576MOL0     H77760   0.932   0.254   4.755 -0.1990  1.1693 -2.6935
  577MOL0     O77761   8.159   9.362   6.868  0.9995  0.6132  0.0250
  577MOL0     C77762   8.176   9.432   6.974 -0.0642  0.4072  1.5692
  577MOL0     O77763   8.222   9.566   6.967 -0.4035  0.2850 -0.1395
  577MOL0     C77764   8.177   9.648   6.872  0.4897 -0.2399  0.1646
  577MOL0     C77765   8.039   9.683   6.863 -0.1510 -1.3164 -0.7066
  577MOL0     C77766   8.006   9.768   6.756  0.6797  1.1627  0.9108
  577MOL0     C77767   8.100   9.805   6.655  0.2944  1.1835 -0.5569
  577MOL0     O77768   8.083   9.877   6.541  0.2033  0.2475 -0.3394
  577MOL0     C77769   7.997   9.995   6.558  0.5085 -0.0278  0.2780
  577MOL0     C77770   7.997  10.091   6.445  0.5429  0.7636  0.4222
  577MOL0     C77771   8.126  10.164   6.424  0.6312 -1.3162 -0.1061
  577MOL0     C77772   8.090  10.259   6.313 -0.6156 -0.3226  0.9814
  577MOL0     C77773   8.209  10.349   6.266 -0.8245  0.6525 -0.2786
  577MOL0     C77774   8.293  10.265   6.161 -0.5047 -0.3803  0.5139
  577MOL0     C77775   8.438  10.320   6.141 -0.0947 -0.2793 -0.5769
  577MOL0     C77776   8.529  10.228   6.063 -1.0766  0.0605  0.0040
  577MOL0     N77777   8.546  10.107   6.142  0.9579  0.0563  0.3129
  577MOL0     C77778   8.481   9.987   6.121  0.2026 -0.1658  0.2998
  577MOL0     C77779   8.527   9.899   6.219  0.6396  0.4197 -0.5025
  577MOL0     C77780   8.475   9.755   6.230  0.7138 -0.3510 -0.2203
  577MOL0     C77781   8.576   9.661   6.188 -0.0885 -0.2901 -0.9682
  577MOL0     C77782   8.704   9.642   6.275  0.4492 -0.4179  0.0911
  577MOL0     C77783   8.695   9.517   6.356  0.2529 -0.6059 -0.4664
  577MOL0     O77784   8.682   9.414   6.268 -0.2227 -0.0717  0.3642
  577MOL0     C77785   8.663   9.288   6.322 -0.2011 -0.0359  0.4914
  577MOL0     C77786   8.707   9.250   6.454  1.0259  0.3432  0.5398
  577MOL0     C77787   8.694   9.119   6.503  0.8817  0.4960  0.3353
  577MOL0     C77788   8.748   9.091   6.638 -0.0978  0.0355 -0.9997
  577MOL0     C77789   8.616   9.033   6.423  1.0667 -0.4369  0.2284
  577MOL0     C77790   8.570   8.909   6.484  0.7604  0.6032 -0.0456
  577MOL0     O77791   8.657   8.840   6.568  0.1766  0.1167 -0.0915
  577MOL0     C77792   8.667   8.705   6.568  1.1961 -0.9650 -0.1963
  577MOL0     C77793   8.559   8.643   6.620  0.3504  0.2247  0.3471
  577MOL0     C77794   8.560   8.502   6.624  0.2572 -0.8600 -0.4780
  577MOL0     C77795   8.666   8.430   6.560  0.1281  0.5738 -0.8510
  577MOL0     O77796   8.685   8.300   6.576 -0.2241 -0.7728  0.2281
  577MOL0     C77797   8.577   8.213   6.582  0.1311  0.5308  0.2429
  577MOL0     C77798   8.570   8.138   6.727 -0.0037 -0.4785  0.1593
  577MOL0     C77799   8.475   8.007   6.718  0.2808 -0.9486  0.1302
  577MOL0     C77800   8.510   7.928   6.841  0.7742 -0.7911  0.0541
  577MOL0     C77801   8.418   7.809   6.844  0.1243 -0.0066  0.3293
  577MOL0     C77802   8.478   7.692   6.764  0.2699  1.0113  0.0157
  577MOL0     C77803   8.381   7.574   6.755 -0.1530 -0.3209  0.3878
  577MOL0     C77804   8.463   7.449   6.718  0.2456 -0.5690  0.3308
  577MOL0    Cl77805   8.575   7.477   6.588 -0.5982 -0.6841  0.6055
  577MOL0     C77806   8.780   8.508   6.508  0.4353  0.1974 -0.3794
  577MOL0     C77807   8.777   8.647   6.517 -0.0053  1.0149  0.7257
  577MOL0     O77808   8.473   8.852   6.426 -0.0145  0.7636 -0.8490
  577MOL0     C77809   8.565   9.075   6.296  0.4332  0.3451  0.1499
  577MOL0     C77810   8.591   9.198   6.244 -0.2758  0.6672  0.8348
  577MOL0     N77811   8.621   9.976   6.292 -0.7823  0.3163 -0.4973
  577MOL0     N77812   8.634  10.095   6.238 -0.3571  0.0307  0.2108
  577MOL0     C77813   8.232   9.768   6.667  0.1296 -0.0611  1.0446
  577MOL0     C77814   8.267   9.701   6.780  0.0573  0.8097  0.0941
  577MOL0     C77815   8.145   9.364   7.104 -0.4979 -0.3987  0.8778
  577MOL0     C77816   8.141   9.225   7.112 -0.4197  0.0432 -0.2159
  577MOL0     C77817   8.118   9.156   7.234  0.0631 -0.7509  0.1587
  577MOL0     C77818   8.101   9.226   7.347  0.3674 -1.3331  0.3587
  577MOL0     O77819   8.080   9.166   7.463  0.2044 -0.3067 -0.6055
  577MOL0     C77820   8.142   9.044   7.493  0.5625 -0.6592  0.4619
  577MOL0     C77821   8.292   9.036   7.481  0.5809  0.0458 -0.4059
  577MOL0     C77822   8.353   9.143   7.577 -0.7722 -0.2072  0.7877
  577MOL0     C77823   8.482   9.203   7.527 -0.0661 -0.8025 -0.0135
  577MOL0     C77824   8.469   9.293   7.412 -0.6045 -0.1420  0.3944
  577MOL0     C77825   8.453   9.375   7.323 -0.7266 -0.7727 -0.8048
  577MOL0     C77826   8.097   9.372   7.342 -0.6379  0.5161 -0.2496
  577MOL0     C77827   8.134   9.439   7.224 -0.3515 -0.2634  0.5636
  577MOL0     H77828   7.964   9.645   6.931 -0.8958  1.9166  0.4203
  577MOL0     H77829   7.900   9.789   6.744  0.1963 -0.7384  1.5152
  577MOL0     H77830   7.892   9.966   6.566  0.2468  0.7081 -0.3535
  577MOL0     H77831   8.034  10.047   6.648 -0.8651  1.5519  0.0009
  577MOL0     H77832   7.986  10.034   6.352  2.5723  1.3804 -0.2425
  577MOL0     H77833   7.907  10.149   6.467 -0.8879 -1.2435  0.1724
  577MOL0     H77834   8.158  10.217   6.514 -1.8844  1.7588 -0.8258
  577MOL0     H77835   8.206  10.096   6.393 -0.7473 -1.6449 -3.3170
  577MOL0     H77836   8.050  10.202   6.229 -3.0819  2.7339 -0.0830
  577MOL0     H77837   8.009  10.328   6.336 -0.1046  2.5649 -4.2881
  577MOL0     H77838   8.176  10.443   6.222  0.4346  1.3115  0.1229
  577MOL0     H77839   8.270  10.357   6.357 -2.4320  0.8771  0.8174
  577MOL0     H77840   8.288  10.160   6.192 -1.0003  0.1735  2.4040
  577MOL0     H77841   8.253  10.266   6.059 -1.0298  0.1615  0.7189
  577MOL0     H77842   8.445  10.414   6.085  0.7309  1.0829  1.6552
  577MOL0     H77843   8.483  10.332   6.240  1.3224 -5.1754 -0.4012
  577MOL0     H77844   8.626  10.277   6.056  1.1226 -3.7183  1.0041
  577MOL0     H77845   8.496  10.211   5.960  1.3419 -1.0305 -0.6662
  577MOL0     H77846   8.398   9.962   6.056  0.9146 -2.3388  0.1328
  577MOL0     H77847   8.437   9.740   6.332 -1.4815  3.1578 -0.3690
  577MOL0     H77848   8.383   9.756   6.171  0.9152 -2.1483 -0.6418
  577MOL0     H77849   8.613   9.689   6.089 -1.3749  1.0802 -1.0975
  577MOL0     H77850   8.519   9.568   6.178  1.0739 -1.0185 -1.0160
  577MOL0     H77851   8.741   9.721   6.342 -0.8444 -1.1262  1.7310
  577MOL0     H77852   8.791   9.639   6.209  0.4582 -3.7183  0.0766
  577MOL0     H77853   8.602   9.519   6.415  1.1304  0.9262  0.9376
  577MOL0     H77854   8.785   9.512   6.418  0.0696 -1.8629 -0.2651
  577MOL0     H77855   8.756   9.331   6.507  2.1970 -0.5672  0.8875
  577MOL0     H77856   8.798   9.186   6.663 -3.0133  2.7081 -4.2202
  577MOL0     H77857   8.675   9.085   6.719 -1.6096  0.6665 -2.2712
  577MOL0     H77858   8.817   9.007   6.645 -0.8739 -0.5000  0.5361
  577MOL0     H77859   8.473   8.695   6.662  1.3234  0.4475  2.1623
  577MOL0     H77860   8.476   8.450   6.668  0.6783 -0.4782  0.8222
  577MOL0     H77861   8.479   8.260   6.569 -1.1671 -2.5594 -2.7069
  577MOL0     H77862   8.586   8.142   6.499 -1.7826  0.6227 -0.0883
  577MOL0     H77863   8.672   8.102   6.744 -0.5579 -2.3611 -0.3200
  577MOL0     H77864   8.533   8.208   6.802  2.8048 -2.1016  3.3039
  577MOL0     H77865   8.501   7.956   6.625  0.9997 -0.3367 -0.0098
  577MOL0     H77866   8.374   8.046   6.728  0.2883 -0.8928 -0.0195
  577MOL0     H77867   8.617   7.907   6.842  1.5302  2.5169  2.1502
  577MOL0     H77868   8.485   7.997   6.922  0.9248 -0.5463 -0.1052
  577MOL0     H77869   8.321   7.841   6.804  0.0832 -0.3772  0.1300
  577MOL0     H77870   8.405   7.773   6.946 -0.2323  0.3017  0.3968
  577MOL0     H77871   8.500   7.729   6.663  1.4495  2.1137  0.6475
  577MOL0     H77872   8.570   7.666   6.817  0.8928  1.4479 -0.8257
  577MOL0     H77873   8.316   7.612   6.676  1.1628  0.7038 -0.2529
  577MOL0     H77874   8.328   7.538   6.843 -1.8400 -2.4297 -1.3910
  577MOL0     H77875   8.387   7.377   6.685  0.5846 -0.0385 -1.7489
  577MOL0     H77876   8.513   7.400   6.802  5.6038 -0.7958 -2.5926
  577MOL0     H77877   8.863   8.455   6.463  1.1308 -0.9945  2.1396
  577MOL0     H77878   8.865   8.705   6.493 -0.4158  1.0154 -0.8826
  577MOL0     H77879   8.503   9.008   6.237 -0.7535  0.6166  1.0343
  577MOL0     H77880   8.553   9.231   6.148 -2.4049 -0.5427  1.2011
  577MOL0     H77881   8.306   9.787   6.590 -0.1389 -2.3078  0.1457
  577MOL0     H77882   8.367   9.659   6.776 -0.7106 -1.1643  0.4559
  577MOL0     H77883   8.138   9.173   7.017 -4.9334 -0.6091  0.0636
  577MOL0     H77884   8.115   9.047   7.236  1.4070 -0.7995  0.5222
  577MOL0     H77885   8.122   9.025   7.599  0.4537 -1.5723  0.2883
  577MOL0     H77886   8.104   8.966   7.426 -1.3485  1.1988 -0.7231
  577MOL0     H77887   8.322   9.065   7.380  2.0838  0.3456  0.1021
  577MOL0     H77888   8.332   8.936   7.501  1.1400  0.5672  1.2776
  577MOL0     H77889   8.372   9.082   7.666  4.6334  0.8768  0.7037
  577MOL0     H77890   8.284   9.226   7.589  0.2939  1.7182 -4.0864
  577MOL0     H77891   8.565   9.137   7.501  1.2758  1.3229 -1.4274
  577MOL0     H77892   8.533   9.256   7.608 -1.9122  0.7020  0.2368
  577MOL0     H77893   8.451   9.440   7.237  1.2249 -2.7509 -2.4660
  577MOL0     H77894   8.069   9.415   7.438 -2.8419  0.6832 -0.8981
  577MOL0     H77895   8.129   9.547   7.226  0.3685 -0.1022 -2.5585
  578MOL0     O77896   8.012   0.146   6.395  0.1953 -0.9995 -0.5805
  578MOL0     C77897   8.043   0.218   6.491 -1.1711 -0.8113 -0.7376
  578MOL0     O77898   7.969   0.231   6.609 -0.2632 -0.8317 -0.2922
  578MOL0     C77899   7.857   0.149   6.639 -0.6993 -0.5123 -0.1084
  578MOL0     C77900   7.850   0.016   6.596  0.0014 -0.8791  0.1377
  578MOL0     C77901   7.737  -0.060   6.619 -0.2924  0.3364  0.5839
  578MOL0     C77902   7.629  -0.014   6.698 -1.0615 -0.5931  0.5993
  578MOL0     O77903   7.513  -0.086   6.730  0.1070 -0.6094 -0.0481
  578MOL0     C77904   7.475  -0.200   6.650  0.4825  0.1037  0.2317
  578MOL0     C77905   7.401  -0.150   6.516 -0.4729  0.7297 -0.2105
  578MOL0     C77906   7.342  -0.263   6.428  0.6960  0.0708  0.3955
  578MOL0     C77907   7.261  -0.197   6.316  0.2156  0.4989  0.0480
  578MOL0     C77908   7.190  -0.300   6.233 -1.0604  0.4324 -0.3619
  578MOL0     C77909   7.081  -0.377   6.316 -0.6344 -0.2241 -1.1847
  578MOL0     C77910   6.970  -0.414   6.222 -0.4477  0.6584  0.0645
  578MOL0     C77911   7.003  -0.513   6.112  0.4233  0.0299 -0.3227
  578MOL0     N77912   7.059  -0.636   6.161  0.9704  0.0541  0.0809
  578MOL0     C77913   7.184  -0.660   6.184  0.9466  0.0104 -1.1464
  578MOL0     C77914   7.186  -0.767   6.265 -0.1712 -0.5126  0.1328
  578MOL0     C77915   7.302  -0.824   6.337  0.0200  0.1145  0.0205
  578MOL0     C77916   7.333  -0.739   6.450  0.7515 -0.3449 -0.4627
  578MOL0     C77917   7.429  -0.815   6.538  1.0671  0.5215  0.0862
  578MOL0     C77918   7.496  -0.726   6.638 -0.2335  0.4662 -0.3501
  578MOL0     O77919   7.586  -0.636   6.562 -0.2161 -0.1300  0.1346
  578MOL0     C77920   7.700  -0.583   6.615  2.2547  0.6188  0.6779
  578MOL0     C77921   7.755  -0.604   6.740  0.1297 -1.1153  0.1624
  578MOL0     C77922   7.875  -0.526   6.776  1.5653 -0.0826 -0.1627
  578MOL0     C77923   7.942  -0.564   6.904 -0.0665 -0.7452  0.3472
  578MOL0     C77924   7.934  -0.424   6.692 -0.8708 -0.3112 -0.0237
  578MOL0     C77925   8.056  -0.345   6.713 -0.0857 -0.5595  0.2815
  578MOL0     O77926   8.169  -0.414   6.753  0.3525  0.4664  0.6193
  578MOL0     C77927   8.288  -0.344   6.746  0.7127 -0.0217 -0.0700
  578MOL0     C77928   8.355  -0.309   6.865  0.3977 -0.2498  0.5351
  578MOL0     C77929   8.490  -0.259   6.855 -1.0732  0.8016 -0.3458
  578MOL0     C77930   8.558  -0.254   6.731 -0.3176 -0.8692  0.4297
  578MOL0     O77931   8.698  -0.235   6.728  0.7336  0.1860 -0.5696
  578MOL0     C77932   8.763  -0.202   6.607  0.4204  0.5450 -0.1756
  578MOL0     C77933   8.900  -0.127   6.632 -0.4417  0.9649  0.1596
  578MOL0     C77934   8.958  -0.083   6.500 -1.1430  0.0061  0.5044
  578MOL0     C77935   9.114  -0.080   6.498  0.0057 -0.1620 -0.0989
  578MOL0     C77936   9.167  -0.042   6.357  0.5944 -0.2693  0.2006
  578MOL0     C77937   9.319  -0.032   6.357 -0.3265  0.0664  0.6214
  578MOL0     C77938   9.378  -0.040   6.221 -0.4419  0.2932 -0.1783
  578MOL0     C77939   9.520   0.022   6.207 -0.6743 -0.2765  0.3097
  578MOL0    Cl77940   9.517   0.194   6.241  0.3459  0.5197 -0.1744
  578MOL0     C77941   8.482  -0.279   6.614 -0.2462  0.3633  0.0677
  578MOL0     C77942   8.354  -0.325   6.623 -0.2719 -0.7862  0.4585
  578MOL0     O77943   8.051  -0.222   6.689  0.1825  0.7817  0.3831
  578MOL0     C77944   7.873  -0.409   6.567 -0.6258  0.4291 -0.4014
  578MOL0     C77945   7.762  -0.493   6.530 -0.3774 -0.7360  0.1167
  578MOL0     N77946   7.058  -0.826   6.265 -0.4968  1.0012  0.1161
  578MOL0     N77947   6.983  -0.751   6.189 -0.6772 -0.2610 -0.7201
  578MOL0     C77948   7.632   0.124   6.741 -0.8141  0.0788 -0.8172
  578MOL0     C77949   7.751   0.198   6.717 -0.6708 -0.1946  0.1002
  578MOL0     C77950   8.171   0.294   6.484 -0.3089  0.1548 -0.5644
  578MOL0     C77951   8.249   0.326   6.599  0.1081 -0.3324  0.3166
  578MOL0     C77952   8.382   0.381   6.585  0.4016  0.3470 -0.2721
  578MOL0     C77953   8.425   0.430   6.461  0.5272 -0.3710 -0.3532
  578MOL0     O77954   8.548   0.481   6.447 -0.8766 -0.7533  0.8946
  578MOL0     C77955   8.643   0.516   6.549 -0.5004 -1.4919 -0.0902
  578MOL0     C77956   8.651   0.672   6.553  0.0840 -0.5915  0.2901
  578MOL0     C77957   8.526   0.747   6.598 -0.2304  0.6420 -0.4711
  578MOL0     C77958   8.542   0.906   6.601  0.1099  0.0152  0.1325
  578MOL0     C77959   8.672   0.950   6.667  0.0950  0.2771 -0.2962
  578MOL0     C77960   8.780   0.988   6.701 -0.3312 -0.1624  0.0204
  578MOL0     C77961   8.341   0.413   6.349  0.8169 -0.0900  0.1073
  578MOL0     C77962   8.220   0.342   6.360 -0.4640  0.5700  0.0704
  578MOL0     H77963   7.933  -0.024   6.539  1.2348  1.9113 -0.1745
  578MOL0     H77964   7.739  -0.162   6.583  1.9690 -0.6049  2.9887
  578MOL0     H77965   7.561  -0.267   6.638  0.1620 -0.4080  0.7040
  578MOL0     H77966   7.409  -0.267   6.706  0.2283  0.2497  0.1082
  578MOL0     H77967   7.324  -0.089   6.564 -0.0020 -1.2847  3.4501
  578MOL0     H77968   7.472  -0.095   6.453  0.1399  1.2786  0.9219
  578MOL0     H77969   7.426  -0.322   6.390  3.1015  1.5241  3.0940
  578MOL0     H77970   7.267  -0.316   6.487  1.0911  1.2799  2.0382
  578MOL0     H77971   7.182  -0.136   6.363  1.9055 -0.4819  4.7375
  578MOL0     H77972   7.323  -0.127   6.259 -1.7967  2.1174 -0.2675
  578MOL0     H77973   7.128  -0.251   6.158 -2.9893 -0.4329  0.6079
  578MOL0     H77974   7.258  -0.371   6.183 -1.4403  0.3704 -0.7965
  578MOL0     H77975   7.121  -0.462   6.372  0.6468  0.5056 -0.9530
  578MOL0     H77976   7.039  -0.318   6.398 -0.7624 -1.4434 -0.3429
  578MOL0     H77977   6.878  -0.449   6.270  0.6891 -1.9224  0.5365
  578MOL0     H77978   6.946  -0.333   6.153  0.9261 -1.2296 -2.8635
  578MOL0     H77979   7.082  -0.464   6.054  1.3757  1.3313  1.9157
  578MOL0     H77980   6.915  -0.539   6.052  0.3606  1.1018 -0.7174
  578MOL0     H77981   7.272  -0.599   6.169 -0.1207  1.8827 -0.0782
  578MOL0     H77982   7.265  -0.921   6.371  0.0814  0.6474  1.7223
  578MOL0     H77983   7.392  -0.844   6.278  1.1869  1.8822  1.0996
  578MOL0     H77984   7.235  -0.725   6.497  0.3268 -3.0658 -0.3995
  578MOL0     H77985   7.370  -0.639   6.427  1.8636 -0.5853  0.1891
  578MOL0     H77986   7.502  -0.863   6.472  1.0079  0.3079  0.1734
  578MOL0     H77987   7.373  -0.890   6.595 -1.8463 -0.0424 -3.1155
  578MOL0     H77988   7.538  -0.797   6.710 -1.5467  1.0660  1.0725
  578MOL0     H77989   7.426  -0.661   6.690  0.5315  1.7854 -0.9292
  578MOL0     H77990   7.697  -0.652   6.818 -3.1894 -0.1194 -1.4890
  578MOL0     H77991   7.983  -0.485   6.968  5.6558 -2.2231 -0.8639
  578MOL0     H77992   7.880  -0.632   6.963  0.2958 -1.4480 -0.0749
  578MOL0     H77993   8.033  -0.620   6.879 -1.1366 -1.2400 -2.7807
  578MOL0     H77994   8.298  -0.314   6.957  0.5160  3.5821  0.9721
  578MOL0     H77995   8.554  -0.251   6.942 -0.1810 -2.6139 -0.5423
  578MOL0     H77996   8.775  -0.287   6.539  0.6193  1.5717 -1.4606
  578MOL0     H77997   8.704  -0.133   6.545 -0.8379 -0.5410 -0.2309
  578MOL0     H77998   8.884  -0.041   6.698 -1.6031  0.7728  0.1601
  578MOL0     H77999   8.976  -0.197   6.669  0.6370  1.9427 -0.1481
  578MOL0     H78000   8.928   0.020   6.480 -0.4207  0.4895  1.8120
  578MOL0     H78001   8.923  -0.149   6.419  0.2990  0.7932 -0.8252
  578MOL0     H78002   9.153  -0.021   6.581  1.9508 -0.8366 -0.4865
  578MOL0     H78003   9.145  -0.181   6.523 -0.4306 -0.1360  0.5871
  578MOL0     H78004   9.135   0.052   6.309  1.9023  1.2898  2.2239
  578MOL0     H78005   9.130  -0.118   6.287 -3.1382  3.1721 -2.0683
  578MOL0     H78006   9.357   0.061   6.402 -0.3740  0.8838 -0.9762
  578MOL0     H78007   9.360  -0.112   6.419  0.0159  0.7667  1.3245
  578MOL0     H78008   9.307   0.015   6.159  0.1145  2.5844  1.1256
  578MOL0     H78009   9.377  -0.148   6.202 -1.4725  0.5510 -1.8462
  578MOL0     H78010   9.569   0.005   6.110  1.6114  0.2531  1.3009
  578MOL0     H78011   9.585  -0.035   6.274 -1.0915 -1.2629 -0.1086
  578MOL0     H78012   8.529  -0.285   6.517  1.8473 -2.9555  1.0898
  578MOL0     H78013   8.308  -0.359   6.530  0.5126 -1.5115  0.3279
  578MOL0     H78014   7.919  -0.335   6.503 -1.7111  0.4029 -1.2483
  578MOL0     H78015   7.738  -0.489   6.424 -0.5258 -2.3111  0.0609
  578MOL0     H78016   7.548   0.160   6.799  0.4087 -0.3481  1.3368
  578MOL0     H78017   7.759   0.297   6.761  0.6943 -1.6610  3.5220
  578MOL0     H78018   8.216   0.306   6.700  0.7181  2.2551  1.1083
  578MOL0     H78019   8.443   0.398   6.673  1.4497  2.2864 -1.3195
  578MOL0     H78020   8.630   0.468   6.647  1.1457 -1.1813  0.2983
  578MOL0     H78021   8.734   0.461   6.524 -1.0360 -1.4748 -2.2266
  578MOL0     H78022   8.684   0.704   6.454 -0.2752 -0.1336  0.3166
  578MOL0     H78023   8.729   0.693   6.627  0.2733 -2.4025  0.6366
  578MOL0     H78024   8.491   0.710   6.694  2.1334 -0.8322 -0.1110
  578MOL0     H78025   8.439   0.727   6.534  0.4781  1.5533 -1.7742
  578MOL0     H78026   8.470   0.953   6.669  1.8207  0.2516  1.8821
  578MOL0     H78027   8.532   0.954   6.503  2.5627  1.1638  0.3841
  578MOL0     H78028   8.868   1.043   6.729 -0.8401  0.9137 -0.4406
  578MOL0     H78029   8.373   0.442   6.249 -2.3609  0.6481 -0.8210
  578MOL0     H78030   8.167   0.327   6.266  1.6366 -1.5337 -0.8975
  579MOL0     O78031   3.340   5.408  10.073  0.5386  0.6605 -0.6832
  579MOL0     C78032   3.381   5.331   9.990  0.4969 -0.8910  0.4634
  579MOL0     O78033   3.334   5.332   9.858  0.3090  0.3950 -0.0907
  579MOL0     C78034   3.241   5.422   9.802 -0.7958  0.5039 -0.6617
  579MOL0     C78035   3.246   5.557   9.839 -0.6727 -0.8334  0.0248
  579MOL0     C78036   3.140   5.631   9.806  0.2245  0.8952  0.0104
  579MOL0     C78037   3.037   5.588   9.721  0.1835  0.7040 -0.9391
  579MOL0     O78038   2.937   5.668   9.679  0.8557  0.3785  0.0508
  579MOL0     C78039   2.944   5.810   9.690 -0.5307  0.6640  0.0526
  579MOL0     C78040   2.897   5.869   9.832  1.2016  1.2620 -0.0485
  579MOL0     C78041   2.938   6.014   9.852 -0.4888  0.7672  0.8050
  579MOL0     C78042   2.869   6.077   9.972 -0.3729  0.4415  1.1451
  579MOL0     C78043   2.905   6.226   9.997 -0.3256 -0.1286  0.2709
  579MOL0     C78044   2.894   6.307   9.870  0.0445  0.4493  1.0457
  579MOL0     C78045   2.890   6.454   9.903 -0.3298 -0.2857 -0.3387
  579MOL0     C78046   2.891   6.543   9.772 -0.0520  1.0848 -0.2079
  579MOL0     N78047   2.953   6.677   9.786  0.4540  0.4202  0.0008
  579MOL0     C78048   3.074   6.705   9.857 -0.0256  0.2686  0.3762
  579MOL0     C78049   3.122   6.822   9.808 -0.3299  0.0583  0.0586
  579MOL0     C78050   3.228   6.912   9.859  0.7251 -0.3017  0.1657
  579MOL0     C78051   3.345   6.923   9.766 -0.2734 -1.8135 -0.1908
  579MOL0     C78052   3.431   7.037   9.816  0.3708 -0.1997 -0.1304
  579MOL0     C78053   3.520   7.089   9.698 -0.0449 -1.3600  0.3581
  579MOL0     O78054   3.587   7.204   9.752 -0.4044  0.1566 -0.3697
  579MOL0     C78055   3.515   7.318   9.747 -0.7962  0.7178 -0.7962
  579MOL0     C78056   3.465   7.361   9.865  0.5364 -0.6549  0.4457
  579MOL0     C78057   3.387   7.473   9.863 -0.3677 -0.5584  0.2629
  579MOL0     C78058   3.323   7.506  10.003 -0.6829  1.0050 -0.3479
  579MOL0     C78059   3.362   7.548   9.747  0.4104 -0.4052  0.3074
  579MOL0     C78060   3.264   7.658   9.738  0.5354 -0.2551  0.1021
  579MOL0     O78061   3.183   7.669   9.622  0.5306 -0.5353  0.1080
  579MOL0     C78062   3.087   7.769   9.619 -0.4787  0.2452  0.0711
  579MOL0     C78063   2.964   7.738   9.674 -0.4377  0.4080 -0.1813
  579MOL0     C78064   2.862   7.825   9.663  0.5813  0.1619 -0.3316
  579MOL0     C78065   2.868   7.939   9.591 -1.1048 -0.4297  0.2530
  579MOL0     O78066   2.753   8.013   9.589 -0.3687  0.4075 -0.3308
  579MOL0     C78067   2.723   8.070   9.457  0.2753  0.4425  0.6151
  579MOL0     C78068   2.582   8.128   9.460  0.0916 -0.3378 -0.4247
  579MOL0     C78069   2.548   8.192   9.327  0.6872 -1.1349  0.0852
  579MOL0     C78070   2.393   8.184   9.296 -0.1390  0.2059 -0.2948
  579MOL0     C78071   2.339   8.221   9.149  1.2154 -0.8363  0.0070
  579MOL0     C78072   2.363   8.371   9.118 -0.4061  0.1300 -0.4163
  579MOL0     C78073   2.280   8.429   9.004  0.1414 -0.2166  0.0339
  579MOL0     C78074   2.322   8.564   8.971 -0.5146 -0.0495  0.3226
  579MOL0    Cl78075   2.315   8.674   9.105  0.3272 -0.1885  0.5866
  579MOL0     C78076   2.992   7.978   9.534 -0.2374 -0.6970  0.2869
  579MOL0     C78077   3.092   7.882   9.538  0.1782  0.1284  0.2748
  579MOL0     O78078   3.254   7.741   9.828 -0.0264 -0.0053  0.0673
  579MOL0     C78079   3.426   7.505   9.630 -0.5801 -0.0063 -0.4426
  579MOL0     C78080   3.498   7.389   9.629  0.0603  0.8634  0.7025
  579MOL0     N78081   3.033   6.861   9.705 -0.1323  0.2522 -0.0343
  579MOL0     N78082   2.928   6.780   9.698  0.1552  0.9686 -0.6968
  579MOL0     C78083   3.042   5.458   9.672  0.6395 -0.4303  0.0305
  579MOL0     C78084   3.147   5.372   9.724  0.3967  0.5662  0.3081
  579MOL0     C78085   3.491   5.234  10.026 -0.3645  0.0078  0.0414
  579MOL0     C78086   3.544   5.224  10.163 -0.3499 -0.3709  0.3367
  579MOL0     C78087   3.628   5.125  10.200  0.2173 -0.1787 -0.8582
  579MOL0     C78088   3.665   5.026  10.106  0.1965 -0.4025 -0.0279
  579MOL0     O78089   3.750   4.916  10.130 -0.2987 -0.0063  0.2707
  579MOL0     C78090   3.837   4.930  10.252 -0.8312  0.0611 -0.1356
  579MOL0     C78091   3.960   4.843  10.238 -0.2072 -0.6709 -0.3584
  579MOL0     C78092   4.051   4.844  10.363 -0.4073 -0.7105  0.6299
  579MOL0     C78093   4.198   4.888  10.341 -0.1263  0.2987 -0.5313
  579MOL0     C78094   4.274   4.901  10.467 -0.4833 -0.0338 -0.0049
  579MOL0     C78095   4.327   4.915  10.575  0.0282 -0.9696 -0.2608
  579MOL0     C78096   3.613   5.033   9.977  0.8964 -0.8194  0.3108
  579MOL0     C78097   3.530   5.138   9.935  0.4189  0.4331 -1.4910
  579MOL0     H78098   3.319   5.599   9.906 -0.1036 -2.6904  0.6256
  579MOL0     H78099   3.144   5.720   9.869 -1.3115  1.3596 -0.5037
  579MOL0     H78100   3.049   5.830   9.667  0.0660 -1.6425  0.5587
  579MOL0     H78101   2.895   5.858   9.604  0.5197  2.3868  0.3766
  579MOL0     H78102   2.789   5.853   9.841  1.3013  0.1395 -0.5575
  579MOL0     H78103   2.943   5.817   9.916 -0.7244  0.1532  0.3718
  579MOL0     H78104   3.047   6.011   9.849 -0.4840 -1.1413 -2.1712
  579MOL0     H78105   2.910   6.066   9.760  1.3774  2.3658  1.0837
  579MOL0     H78106   2.765   6.045   9.966  0.2941 -1.9931  1.6341
  579MOL0     H78107   2.903   6.017  10.058 -0.7535 -0.5579  0.6102
  579MOL0     H78108   2.841   6.254  10.081  1.0092 -0.6598  1.5014
  579MOL0     H78109   3.011   6.229  10.025 -0.2779  1.4857 -0.0072
  579MOL0     H78110   2.983   6.288   9.809  0.6057  3.6851  0.6894
  579MOL0     H78111   2.806   6.283   9.811  1.5812  0.1676 -1.2526
  579MOL0     H78112   2.799   6.469   9.962 -0.7202  0.7949 -1.2064
  579MOL0     H78113   2.979   6.465   9.966  0.2544 -0.3333 -1.1432
  579MOL0     H78114   2.787   6.551   9.740 -0.8973  0.3082  2.1699
  579MOL0     H78115   2.950   6.494   9.693 -0.0412  0.8678 -0.0677
  579MOL0     H78116   3.131   6.653   9.933  2.7653  2.0859 -0.2970
  579MOL0     H78117   3.179   7.010   9.856 -2.9002 -1.9661 -1.9280
  579MOL0     H78118   3.260   6.897   9.963  1.1278 -0.0484  0.0788
  579MOL0     H78119   3.305   6.940   9.665  1.6193 -2.6297 -1.1302
  579MOL0     H78120   3.404   6.832   9.775  0.1631 -1.2914  4.0629
  579MOL0     H78121   3.504   6.987   9.881 -0.6294 -1.3189  0.1618
  579MOL0     H78122   3.371   7.115   9.862  0.0501 -1.3580  1.4987
  579MOL0     H78123   3.456   7.114   9.613  1.5150 -0.1745 -0.5385
  579MOL0     H78124   3.593   7.015   9.663  0.0112 -0.7568 -0.8445
  579MOL0     H78125   3.486   7.305   9.955 -2.3139 -0.8894  1.0762
  579MOL0     H78126   3.215   7.514   9.990 -0.4313  0.6052 -3.4559
  579MOL0     H78127   3.341   7.418  10.065 -1.0814 -1.2942 -3.2627
  579MOL0     H78128   3.369   7.597  10.042  1.4302 -1.0864  2.3816
  579MOL0     H78129   2.965   7.645   9.730  2.3788 -0.0872 -0.8880
  579MOL0     H78130   2.774   7.821   9.727 -0.6672  1.8124 -1.8477
  579MOL0     H78131   2.799   8.145   9.430  0.6637  1.5394  4.2377
  579MOL0     H78132   2.719   7.990   9.383  0.5173  0.4633  0.5774
  579MOL0     H78133   2.520   8.041   9.481  1.3390 -1.3600 -0.8015
  579MOL0     H78134   2.579   8.197   9.544 -0.0106  1.7485 -2.0622
  579MOL0     H78135   2.600   8.147   9.242  2.8873 -0.7776  1.1851
  579MOL0     H78136   2.583   8.293   9.351 -1.3191 -0.7007  1.4876
  579MOL0     H78137   2.354   8.084   9.317  1.2873 -0.1427  0.9001
  579MOL0     H78138   2.346   8.253   9.366  0.8483  0.2854  0.3113
  579MOL0     H78139   2.230   8.207   9.140  0.9282  1.6723 -1.5123
  579MOL0     H78140   2.381   8.167   9.064  0.4810  0.9649 -1.5854
  579MOL0     H78141   2.337   8.422   9.212 -0.5375 -0.6798 -0.0016
  579MOL0     H78142   2.469   8.374   9.094 -0.5280 -2.7804 -1.6606
  579MOL0     H78143   2.174   8.415   9.027  0.2735 -1.1048  0.1274
  579MOL0     H78144   2.305   8.374   8.913  2.4504  1.4945 -0.4698
  579MOL0     H78145   2.253   8.611   8.901  1.2442  2.5613  0.2155
  579MOL0     H78146   2.425   8.561   8.934  0.1004 -1.6184  2.0383
  579MOL0     H78147   3.000   8.070   9.478 -1.0985 -0.0717  1.1505
  579MOL0     H78148   3.185   7.893   9.485 -1.6025  2.5541 -2.7292
  579MOL0     H78149   3.423   7.554   9.533 -0.0732 -0.2222 -0.5697
  579MOL0     H78150   3.534   7.362   9.531 -6.2106 -1.1631 -1.5310
  579MOL0     H78151   2.964   5.415   9.610  1.2543 -1.3864 -0.0939
  579MOL0     H78152   3.139   5.267   9.697 -1.7752  0.7442  0.0438
  579MOL0     H78153   3.506   5.294  10.237 -0.1767  0.2183 -0.1230
  579MOL0     H78154   3.651   5.118  10.306 -5.2796 -0.7884  0.5716
  579MOL0     H78155   3.859   5.037  10.255  0.2954 -0.1798  0.5232
  579MOL0     H78156   3.777   4.913  10.342 -1.8672  2.0668 -0.3923
  579MOL0     H78157   4.015   4.882  10.152  2.5858 -1.1479  1.0571
  579MOL0     H78158   3.931   4.738  10.227 -0.2906 -0.6009 -0.8205
  579MOL0     H78159   4.048   4.741  10.399  3.7695 -1.3751 -0.4082
  579MOL0     H78160   4.007   4.922  10.425 -1.1376 -1.1357  0.6612
  579MOL0     H78161   4.189   4.989  10.299 -2.8095  0.9535  1.3141
  579MOL0     H78162   4.251   4.826  10.269  1.4324 -0.1267  0.9190
  579MOL0     H78163   4.361   4.929  10.675 -0.0400 -1.0619 -0.2245
  579MOL0     H78164   3.630   4.953   9.905 -1.6316 -0.1468 -1.1546
  579MOL0     H78165   3.488   5.136   9.835 -0.9351  0.9163 -0.9647
  580MOL0     O78166  10.836   0.744   9.899 -1.2395 -0.0141  0.1921
  580MOL0     C78167  10.789   0.634   9.913 -0.8907  0.3806  0.5024
  580MOL0     O78168  10.852   0.508   9.875  1.0160 -0.5741  0.2223
  580MOL0     C78169  10.968   0.512   9.807 -0.3886  0.6571  0.4514
  580MOL0     C78170  10.974   0.571   9.681 -0.0707  0.5312  0.4933
  580MOL0     C78171  11.093   0.558   9.602  1.1059 -0.4577  0.5916
  580MOL0     C78172  11.208   0.491   9.660  0.8229  0.1250  0.1685
  580MOL0     O78173  11.316   0.461   9.585  0.0416 -0.1402  0.1754
  580MOL0     C78174  11.372   0.590   9.547  0.0047  0.9109 -0.2911
  580MOL0     C78175  11.470   0.572   9.425  0.2282 -0.3773  0.5402
  580MOL0     C78176  11.392   0.514   9.309  0.1307  1.1738  0.2600
  580MOL0     C78177  11.489   0.464   9.196  0.1794 -0.9862 -0.7446
  580MOL0     C78178  11.410   0.435   9.064  0.6350  0.3567 -0.2723
  580MOL0     C78179  11.491   0.393   8.952 -0.3753 -1.5978 -0.9553
  580MOL0     C78180  11.612   0.488   8.925 -0.3284 -0.7950  0.3089
  580MOL0     C78181  11.690   0.434   8.798  0.8699 -0.0768 -0.1206
  580MOL0     N78182  11.816   0.516   8.768  1.2658  0.4200 -0.0256
  580MOL0     C78183  11.913   0.475   8.683 -0.4752  0.6417 -0.1676
  580MOL0     C78184  12.006   0.579   8.688 -1.1134 -0.2983 -0.6952
  580MOL0     C78185  12.115   0.602   8.596 -0.9859 -1.2554 -1.4453
  580MOL0     C78186  12.240   0.527   8.643  0.6332  0.3879  0.1047
  580MOL0     C78187  12.356   0.544   8.542  0.9463 -0.4366  0.5771
  580MOL0     C78188  12.363   0.422   8.451 -0.4230 -0.1888 -0.4239
  580MOL0     O78189  12.504   0.407   8.403 -0.3371 -0.4158 -0.0519
  580MOL0     C78190  12.534   0.364   8.273  0.3421  0.7413 -0.2500
  580MOL0     C78191  12.471   0.261   8.207  0.0905 -0.8880  0.3651
  580MOL0     C78192  12.517   0.227   8.079 -0.3145  0.1335  0.8928
  580MOL0     C78193  12.475   0.099   8.003  0.3900 -0.2128  0.0024
  580MOL0     C78194  12.628   0.299   8.019  0.6105  0.8497 -0.3879
  580MOL0     C78195  12.694   0.255   7.897  0.2660  0.6497 -0.1710
  580MOL0     O78196  12.625   0.259   7.777  0.2239  0.1485  0.2221
  580MOL0     C78197  12.680   0.211   7.670 -0.2265 -0.3416  0.6491
  580MOL0     C78198  12.683   0.072   7.651  0.3699 -0.7731  0.4369
  580MOL0     C78199  12.716   0.032   7.524  0.9134  0.1449 -0.7632
  580MOL0     C78200  12.742   0.111   7.415 -0.3728 -0.6902 -0.3581
  580MOL0     O78201  12.766   0.055   7.299 -0.9073  0.2469  0.5051
  580MOL0     C78202  12.808   0.134   7.181  0.6789  1.1828 -0.2308
  580MOL0     C78203  12.835   0.048   7.060 -0.1450 -0.4860  0.6821
  580MOL0     C78204  12.703  -0.036   7.031 -0.6113 -0.0370 -0.3643
  580MOL0     C78205  12.707  -0.101   6.890 -0.5566  0.1070 -0.0466
  580MOL0     C78206  12.573  -0.157   6.841  0.0779 -0.0743  0.2245
  580MOL0     C78207  12.574  -0.192   6.696  0.3638  0.0283 -0.9887
  580MOL0     C78208  12.663  -0.310   6.650 -0.0037  0.2255 -0.2591
  580MOL0     C78209  12.675  -0.313   6.501  0.0489  0.3428  0.8980
  580MOL0    Cl78210  12.534  -0.255   6.407  0.5012 -0.0947 -0.1729
  580MOL0     C78211  12.724   0.246   7.436  0.2243  0.1565  0.9221
  580MOL0     C78212  12.695   0.296   7.554  0.1603  0.6639 -0.9968
  580MOL0     O78213  12.806   0.198   7.913 -0.0192 -0.6509 -0.0604
  580MOL0     C78214  12.678   0.408   8.080  0.0679 -0.8369  0.2272
  580MOL0     C78215  12.627   0.437   8.210 -0.4973 -0.2794 -0.3239
  580MOL0     N78216  11.968   0.672   8.785 -0.2305 -0.3556 -0.6069
  580MOL0     N78217  11.859   0.628   8.839  1.4144 -0.1054  0.2169
  580MOL0     C78218  11.202   0.439   9.794  0.2575 -0.2858  0.6567
  580MOL0     C78219  11.076   0.453   9.860 -0.2543 -0.8473 -0.1893
  580MOL0     C78220  10.658   0.626   9.988 -0.6810 -1.2712 -0.6648
  580MOL0     C78221  10.625   0.512  10.063  0.0546  0.7977  0.8633
  580MOL0     C78222  10.498   0.488  10.115  0.1363 -0.7095  0.0727
  580MOL0     C78223  10.405   0.597  10.106 -0.5569  0.6289 -0.0401
  580MOL0     O78224  10.280   0.594  10.156 -0.4343 -0.6659 -0.0816
  580MOL0     C78225  10.246   0.494  10.246 -0.7153  0.3271 -0.3551
  580MOL0     C78226  10.092   0.522  10.291  0.2373  0.2800  0.5232
  580MOL0     C78227  10.026   0.390  10.327  0.1240  1.1809 -0.7164
  580MOL0     C78228   9.980   0.307  10.208  0.3224  0.0758  0.2387
  580MOL0     C78229   9.864   0.370  10.146  0.8692 -0.4206  0.1146
  580MOL0     C78230   9.764   0.414  10.094  0.5849 -0.2816 -0.2300
  580MOL0     C78231  10.436   0.707  10.024 -0.1065  0.3219 -0.1706
  580MOL0     C78232  10.560   0.727   9.976  0.4076 -0.1796  0.1758
  580MOL0     H78233  10.880   0.604   9.639 -1.4797  0.4290  3.3375
  580MOL0     H78234  11.086   0.616   9.510 -1.0144  3.0307  2.7565
  580MOL0     H78235  11.303   0.666   9.510  0.7105  0.2335 -3.3177
  580MOL0     H78236  11.428   0.638   9.628 -2.3489  0.8576  1.4514
  580MOL0     H78237  11.505   0.669   9.388 -2.5256  0.0711 -1.1443
  580MOL0     H78238  11.551   0.509   9.461  0.3170 -0.5900 -0.0327
  580MOL0     H78239  11.331   0.427   9.338  0.2883  1.3440  1.1480
  580MOL0     H78240  11.324   0.592   9.274 -2.7976 -0.9230  0.8438
  580MOL0     H78241  11.552   0.551   9.175 -2.3025  1.3024  0.7070
  580MOL0     H78242  11.555   0.387   9.239  1.4894  1.2422  1.4837
  580MOL0     H78243  11.345   0.353   9.094 -1.1811  1.8052 -0.0719
  580MOL0     H78244  11.351   0.526   9.050  0.0213  0.0756  0.4221
  580MOL0     H78245  11.528   0.291   8.953  2.0442 -0.7660 -0.2011
  580MOL0     H78246  11.427   0.391   8.863  0.2271 -3.0345 -1.3779
  580MOL0     H78247  11.575   0.590   8.910  1.7827  0.3064  1.9622
  580MOL0     H78248  11.687   0.484   9.005 -0.2568 -2.0116  0.1967
  580MOL0     H78249  11.625   0.421   8.711  2.5383 -5.5785 -0.8956
  580MOL0     H78250  11.708   0.330   8.824 -2.8024 -1.3204 -1.8950
  580MOL0     H78251  11.916   0.387   8.620 -1.7343  0.0482  0.5739
  580MOL0     H78252  12.092   0.573   8.494 -2.1762 -0.0160 -1.5515
  580MOL0     H78253  12.151   0.705   8.596 -1.8239 -0.9349  0.0114
  580MOL0     H78254  12.213   0.423   8.663  3.1306 -0.3845 -0.2371
  580MOL0     H78255  12.264   0.562   8.744 -1.4088 -1.5951  1.3848
  580MOL0     H78256  12.450   0.567   8.594  1.4261  0.8444 -0.7827
  580MOL0     H78257  12.346   0.632   8.477  1.3864 -1.1475 -0.4867
  580MOL0     H78258  12.289   0.443   8.373  1.6902 -2.4497 -3.2951
  580MOL0     H78259  12.337   0.332   8.508  2.1487  0.1374  1.4406
  580MOL0     H78260  12.414   0.182   8.254  3.1246 -2.3647  1.9005
  580MOL0     H78261  12.373   0.067   8.030 -0.5049  2.2108 -0.2704
  580MOL0     H78262  12.473   0.109   7.895 -3.8740  0.8611 -0.0216
  580MOL0     H78263  12.551   0.024   8.027 -0.7622 -0.5186  3.3002
  580MOL0     H78264  12.657   0.001   7.728 -3.7392  0.5836  0.5115
  580MOL0     H78265  12.737  -0.074   7.516  2.6304  0.5051 -1.5275
  580MOL0     H78266  12.736   0.207   7.143 -3.4245 -2.5488 -0.4715
  580MOL0     H78267  12.898   0.183   7.219  1.8342  0.7837 -2.3208
  580MOL0     H78268  12.853   0.109   6.971 -0.1453  0.7915  1.5290
  580MOL0     H78269  12.908  -0.030   7.079  1.3883 -0.1471 -2.9606
  580MOL0     H78270  12.621   0.037   7.037 -2.1900 -1.8462  2.8780
  580MOL0     H78271  12.682  -0.114   7.104  0.6669  0.3631  0.4500
  580MOL0     H78272  12.739  -0.025   6.818 -1.5922 -0.5280 -1.2299
  580MOL0     H78273  12.775  -0.185   6.904  0.5605  1.3020  2.1842
  580MOL0     H78274  12.498  -0.078   6.853 -0.3782 -0.3690 -0.5953
  580MOL0     H78275  12.543  -0.249   6.892 -0.0348 -0.5632 -0.7053
  580MOL0     H78276  12.476  -0.235   6.675  0.1052  0.1801 -0.1327
  580MOL0     H78277  12.600  -0.105   6.636 -1.8914  1.5459  0.1094
  580MOL0     H78278  12.613  -0.396   6.697 -2.3488  1.7736  0.2589
  580MOL0     H78279  12.760  -0.289   6.696  0.3053  0.8203 -1.1620
  580MOL0     H78280  12.688  -0.417   6.470  1.3034  0.4070  1.1395
  580MOL0     H78281  12.762  -0.257   6.468 -1.1869 -0.2192 -3.9605
  580MOL0     H78282  12.718   0.305   7.346  1.3749  0.7004  1.1893
  580MOL0     H78283  12.677   0.403   7.557  3.1555  1.2482  0.6183
  580MOL0     H78284  12.761   0.468   8.046 -1.3761  2.9873  2.7843
  580MOL0     H78285  12.680   0.516   8.262 -1.2940  0.8779 -1.2163
  580MOL0     H78286  11.281   0.389   9.849  0.1168  2.0332  3.2063
  580MOL0     H78287  11.087   0.412   9.960  0.5969  0.5882  0.3474
  580MOL0     H78288  10.699   0.434  10.075 -0.0182  0.3202 -1.4149
  580MOL0     H78289  10.475   0.391  10.157 -0.6452  0.2811  2.0389
  580MOL0     H78290  10.256   0.389  10.219 -3.3889 -0.2502  0.5964
  580MOL0     H78291  10.312   0.502  10.333  1.1102 -0.3675 -1.6072
  580MOL0     H78292  10.029   0.554  10.207  0.7558  1.3106  0.5145
  580MOL0     H78293  10.088   0.580  10.384  0.8956  0.6893  0.3038
  580MOL0     H78294   9.941   0.418  10.391  1.0597 -1.1198  1.7584
  580MOL0     H78295  10.097   0.328  10.383  0.0393 -1.2766 -3.1336
  580MOL0     H78296   9.972   0.203  10.244  0.6013  0.0634  0.2638
  580MOL0     H78297  10.048   0.300  10.123 -0.5361 -3.9868 -0.3528
  580MOL0     H78298   9.668   0.440  10.055  0.8064 -0.0795 -0.6529
  580MOL0     H78299  10.377   0.798  10.021 -1.9759 -0.8064  0.8257
  580MOL0     H78300  10.587   0.820   9.926  1.0988  1.5075  3.4595
  581MOL0     O78301   4.395   4.092  10.417  0.4872 -0.2513  0.2231
  581MOL0     C78302   4.404   4.123  10.295 -0.7315  0.5050 -0.3988
  581MOL0     O78303   4.361   4.242  10.239  0.2902 -0.1381 -0.9338
  581MOL0     C78304   4.280   4.313  10.317  0.4875  0.0035 -2.2497
  581MOL0     C78305   4.336   4.392  10.422 -0.2724 -0.1650  0.9207
  581MOL0     C78306   4.258   4.465  10.511 -0.3070  0.8184 -0.5264
  581MOL0     C78307   4.119   4.455  10.508 -0.6618 -0.7223  0.2087
  581MOL0     O78308   4.037   4.523  10.588 -0.0492  0.1653 -0.5588
  581MOL0     C78309   4.098   4.599  10.692 -0.0210  0.8700 -0.3636
  581MOL0     C78310   3.995   4.656  10.785 -0.1206 -0.4436  0.2817
  581MOL0     C78311   3.876   4.719  10.711  0.5254 -0.4025  0.4127
  581MOL0     C78312   3.795   4.807  10.813 -0.1398  0.2542 -0.2521
  581MOL0     C78313   3.725   4.916  10.724  0.1219 -0.1318  0.9173
  581MOL0     C78314   3.651   5.030  10.801  0.4486 -0.2125  0.3773
  581MOL0     C78315   3.551   5.102  10.713 -0.7139 -0.6293 -0.4089
  581MOL0     C78316   3.424   5.021  10.681  0.3601 -0.7247 -0.0448
  581MOL0     N78317   3.336   5.110  10.600  0.3208  0.8441 -1.6491
  581MOL0     C78318   3.220   5.161  10.651  0.1337 -1.1534 -0.1766
  581MOL0     C78319   3.173   5.232  10.542 -0.4920  0.3086 -0.1790
  581MOL0     C78320   3.041   5.317  10.539 -0.2700  0.4321  0.9864
  581MOL0     C78321   3.034   5.429  10.648  0.4816  0.9986  0.3375
  581MOL0     C78322   3.129   5.545  10.630 -0.5801  0.5575 -0.2458
  581MOL0     C78323   3.094   5.651  10.735  0.9518  0.4058  0.6024
  581MOL0     O78324   3.203   5.744  10.750 -0.7077  0.4425  0.3982
  581MOL0     C78325   3.208   5.821  10.850  0.2223 -0.8083 -1.1615
  581MOL0     C78326   3.137   5.815  10.975 -0.1692  0.3233  0.3130
  581MOL0     C78327   3.173   5.889  11.088  0.6016  0.5967  0.1059
  581MOL0     C78328   3.108   5.846  11.214  0.2555 -0.7731  0.7093
  581MOL0     C78329   3.268   5.992  11.076 -0.0084  0.1171  0.2388
  581MOL0     C78330   3.306   6.083  11.186 -0.9264 -0.3565  0.2947
  581MOL0     O78331   3.424   6.154  11.176  0.1701  0.6663  0.0467
  581MOL0     C78332   3.489   6.214  11.286  0.3808  1.1667 -0.3123
  581MOL0     C78333   3.559   6.326  11.257 -0.4281 -1.0920  0.2191
  581MOL0     C78334   3.628   6.403  11.362 -0.4588  0.2399 -0.8696
  581MOL0     C78335   3.625   6.356  11.495 -1.1670  0.1544 -0.0288
  581MOL0     O78336   3.695   6.427  11.586  0.2000 -0.6875 -0.4271
  581MOL0     C78337   3.624   6.484  11.705 -0.7076 -0.2037  0.6894
  581MOL0     C78338   3.714   6.497  11.832  0.4003 -0.2126 -1.0689
  581MOL0     C78339   3.821   6.602  11.826 -0.1356 -0.8206  0.1082
  581MOL0     C78340   3.900   6.633  11.954 -0.1908  0.3388 -0.9058
  581MOL0     C78341   4.021   6.731  11.916  0.4629  0.0451 -0.9832
  581MOL0     C78342   4.136   6.668  11.846 -0.1917  0.0415  0.4763
  581MOL0     C78343   4.246   6.775  11.841  0.1060 -0.2952  0.7499
  581MOL0     C78344   4.366   6.705  11.762  0.8634 -0.0755  0.0127
  581MOL0    Cl78345   4.443   6.577  11.847 -0.3184  0.0431 -0.1238
  581MOL0     C78346   3.560   6.232  11.518 -0.1210 -0.5354  0.2398
  581MOL0     C78347   3.495   6.159  11.416  0.9691 -0.0087  0.5532
  581MOL0     O78348   3.232   6.089  11.285  0.0883 -0.1383  0.3370
  581MOL0     C78349   3.319   6.019  10.946  0.3065 -0.2236 -0.6413
  581MOL0     C78350   3.294   5.933  10.841  0.2912  0.7657  0.7346
  581MOL0     N78351   3.263   5.220  10.435  0.0973 -0.7550 -0.8212
  581MOL0     N78352   3.358   5.151  10.477  0.5502 -0.7358  0.0833
  581MOL0     C78353   4.071   4.363  10.421 -0.4962  0.6749  0.2407
  581MOL0     C78354   4.141   4.295  10.319  0.1832  0.0942  0.0413
  581MOL0     C78355   4.485   4.033  10.206 -0.3188  0.1614  0.1530
  581MOL0     C78356   4.514   4.077  10.077  0.4688 -1.0417  0.8417
  581MOL0     C78357   4.593   4.010   9.979 -0.4739 -0.0357  0.3934
  581MOL0     C78358   4.645   3.886  10.014 -0.1559  0.3505  0.3193
  581MOL0     O78359   4.698   3.799   9.922 -0.9995 -0.2716 -0.3056
  581MOL0     C78360   4.743   3.848   9.799  0.0786 -0.1366 -0.4444
  581MOL0     C78361   4.827   3.739   9.740  0.4222  0.8474 -0.1959
  581MOL0     C78362   4.951   3.712   9.825  0.0861  0.0962 -0.0871
  581MOL0     C78363   5.061   3.624   9.753  0.9072 -0.4364  0.2529
  581MOL0     C78364   5.171   3.594   9.846  0.6759 -1.0420 -0.8252
  581MOL0     C78365   5.253   3.589   9.936  0.4612 -0.6965  0.8618
  581MOL0     C78366   4.614   3.838  10.145 -0.3865  0.7189  1.2973
  581MOL0     C78367   4.533   3.906  10.232  1.4530 -0.5485 -0.8317
  581MOL0     H78368   4.444   4.404  10.423  0.0612 -1.8581  4.9701
  581MOL0     H78369   4.303   4.539  10.576 -1.0510 -1.2822  2.6410
  581MOL0     H78370   4.161   4.525  10.741  0.1499 -1.2309 -3.4810
  581MOL0     H78371   4.161   4.678  10.650  4.9352 -2.8794 -0.7803
  581MOL0     H78372   3.965   4.571  10.846 -1.5702 -4.1399 -4.8854
  581MOL0     H78373   4.052   4.723  10.851  0.8426 -1.0958  0.1371
  581MOL0     H78374   3.916   4.781  10.630  1.3363 -0.0524  1.0581
  581MOL0     H78375   3.811   4.648  10.661 -2.1631  2.0461  0.1877
  581MOL0     H78376   3.720   4.745  10.863  0.6317  0.0270  0.6422
  581MOL0     H78377   3.870   4.855  10.876 -0.0116  0.9601 -0.9293
  581MOL0     H78378   3.807   4.952  10.661 -1.7576  0.2638 -1.4270
  581MOL0     H78379   3.665   4.862  10.651  1.3215 -0.8274  0.4099
  581MOL0     H78380   3.598   4.984  10.885  0.0511  0.5977  0.5812
  581MOL0     H78381   3.721   5.099  10.849  2.3886 -2.6046  1.1690
  581MOL0     H78382   3.521   5.188  10.772  0.7494 -0.1233 -0.3544
  581MOL0     H78383   3.607   5.131  10.624 -2.1066 -0.7456 -1.3593
  581MOL0     H78384   3.377   4.993  10.776  0.4440 -0.3187  0.1200
  581MOL0     H78385   3.449   4.925  10.635  4.4331 -1.3484  2.8887
  581MOL0     H78386   3.171   5.154  10.748 -2.2743  1.8254 -0.9963
  581MOL0     H78387   3.026   5.357  10.438  0.4307 -0.4859  0.5012
  581MOL0     H78388   2.960   5.248  10.562 -0.1720 -0.1121 -0.2230
  581MOL0     H78389   3.062   5.387  10.745  2.3285  1.1686 -0.0888
  581MOL0     H78390   2.933   5.471  10.649  1.0564  2.9134 -3.4417
  581MOL0     H78391   3.132   5.582  10.527  0.3991 -2.3677 -1.3731
  581MOL0     H78392   3.229   5.506  10.652 -1.4255 -0.9173  1.2820
  581MOL0     H78393   3.070   5.605  10.831  2.0921  0.8810  1.1298
  581MOL0     H78394   3.002   5.695  10.695  1.6867  0.4868 -1.0860
  581MOL0     H78395   3.056   5.743  10.982 -0.6616  0.8593  0.2577
  581MOL0     H78396   3.176   5.828  11.298  0.5693 -0.8953  0.4336
  581MOL0     H78397   3.045   5.926  11.254  0.7908  0.1276 -0.2102
  581MOL0     H78398   3.041   5.762  11.196 -0.0088 -0.7918  1.6976
  581MOL0     H78399   3.558   6.369  11.158  0.8741  2.3246  1.4957
  581MOL0     H78400   3.687   6.492  11.343  0.1631  0.5279  2.0509
  581MOL0     H78401   3.589   6.585  11.679 -0.4345  0.3950  2.5339
  581MOL0     H78402   3.537   6.424  11.732  0.4927 -2.5182 -0.3135
  581MOL0     H78403   3.647   6.526  11.913 -1.6837 -0.5434 -2.6009
  581MOL0     H78404   3.762   6.399  11.846  0.6919  0.3261  2.3814
  581MOL0     H78405   3.779   6.699  11.796  2.2324  0.0849 -0.4750
  581MOL0     H78406   3.892   6.567  11.750  2.8411  0.5696  2.0456
  581MOL0     H78407   3.828   6.676  12.025  1.9049  1.1504  0.8738
  581MOL0     H78408   3.940   6.545  12.006  1.1779  1.4620  0.0377
  581MOL0     H78409   4.040   6.790  12.006 -4.7810  1.3276 -0.3432
  581MOL0     H78410   3.972   6.806  11.853  3.6544  0.4389 -3.1778
  581MOL0     H78411   4.159   6.578  11.904  2.4028  0.8122  0.7971
  581MOL0     H78412   4.118   6.645  11.741  3.4452 -0.0336 -0.2771
  581MOL0     H78413   4.283   6.803  11.940  0.3104 -0.0921  0.6153
  581MOL0     H78414   4.195   6.862  11.800 -3.4329 -2.1775  0.7572
  581MOL0     H78415   4.439   6.785  11.747 -0.4024  1.1277  0.1392
  581MOL0     H78416   4.342   6.681  11.658  3.0335  0.4698 -0.6682
  581MOL0     H78417   3.575   6.189  11.617  0.8530 -1.5431 -0.3278
  581MOL0     H78418   3.447   6.067  11.446  1.7635 -0.6624 -0.1236
  581MOL0     H78419   3.388   6.101  10.931  0.1291 -0.1486 -1.0574
  581MOL0     H78420   3.351   5.941  10.749 -1.8403 -0.4471 -0.7774
  581MOL0     H78421   3.964   4.352  10.410 -0.9947  2.0939  2.9121
  581MOL0     H78422   4.093   4.235  10.242  1.3712 -0.6332 -0.1526
  581MOL0     H78423   4.480   4.174  10.042  1.9959 -0.4569  0.8754
  581MOL0     H78424   4.609   4.047   9.878 -0.1043 -0.1941  0.3921
  581MOL0     H78425   4.661   3.877   9.732 -0.7678 -1.6446 -0.1156
  581MOL0     H78426   4.814   3.929   9.817  1.0475 -0.6951 -1.6239
  581MOL0     H78427   4.857   3.761   9.637  2.5929  0.9016  0.4031
  581MOL0     H78428   4.769   3.647   9.729  2.0075 -0.0259 -1.5665
  581MOL0     H78429   4.917   3.655   9.912 -0.7297  1.0263  0.2233
  581MOL0     H78430   4.996   3.809   9.849  0.3645  0.7053 -2.7187
  581MOL0     H78431   5.086   3.678   9.661 -1.3447  3.4826  1.6996
  581MOL0     H78432   5.016   3.527   9.731 -3.0774  1.1991  0.4602
  581MOL0     H78433   5.324   3.586  10.016  0.9434  1.1088  0.5487
  581MOL0     H78434   4.645   3.737  10.169  1.7578  0.3706 -2.2954
  581MOL0     H78435   4.507   3.859  10.326 -1.3358 -1.2216 -1.8368
  582MOL0     O78436   9.074   3.485   0.730 -0.3556  0.3293 -0.1643
  582MOL0     C78437   9.110   3.370   0.742 -0.1774 -0.0774  1.0286
  582MOL0     O78438   9.236   3.329   0.722 -0.0489 -0.1415 -0.6341
  582MOL0     C78439   9.334   3.415   0.675  0.1643  0.3808 -0.2306
  582MOL0     C78440   9.317   3.492   0.565 -0.2935  0.1696 -1.3679
  582MOL0     C78441   9.422   3.567   0.522  0.0637 -0.8558 -0.9990
  582MOL0     C78442   9.551   3.556   0.587  0.0158  0.3770  0.4826
  582MOL0     O78443   9.661   3.617   0.556 -0.6998 -0.0354 -0.2571
  582MOL0     C78444   9.671   3.690   0.429 -0.0971 -0.0665  1.0421
  582MOL0     C78445   9.800   3.753   0.416 -0.5676  0.0320  0.5752
  582MOL0     C78446   9.790   3.834   0.286 -0.0631  0.6182 -0.6151
  582MOL0     C78447   9.928   3.868   0.243 -0.7218 -0.2409 -0.3471
  582MOL0     C78448   9.945   3.965   0.127  0.3368  0.7056 -0.8615
  582MOL0     C78449  10.101   4.003   0.107 -0.0624 -0.0687 -1.0337
  582MOL0     C78450  10.128   4.061  -0.031  0.4112  0.3346 -0.0700
  582MOL0     C78451  10.278   4.076  -0.071  0.6018  0.2930 -0.2556
  582MOL0     N78452  10.298   4.169  -0.182 -0.1780  0.9106  0.0985
  582MOL0     C78453  10.263   4.139  -0.309  0.8108  0.0850 -0.3659
  582MOL0     C78454  10.319   4.234  -0.391  0.0005  0.5900 -0.4480
  582MOL0     C78455  10.320   4.258  -0.538  0.0216  0.0037  0.6089
  582MOL0     C78456  10.179   4.274  -0.606 -0.0840  0.7080 -0.3000
  582MOL0     C78457  10.183   4.283  -0.757 -0.0523 -0.2203 -0.1910
  582MOL0     C78458  10.104   4.393  -0.811  0.0248  0.2379  0.0901
  582MOL0     O78459  10.101   4.395  -0.962 -0.2006 -0.4112 -0.2054
  582MOL0     C78460  10.037   4.512  -1.010  0.2277  0.8493  0.0150
  582MOL0     C78461  10.113   4.612  -1.058 -0.0127 -0.1753 -0.3262
  582MOL0     C78462  10.062   4.741  -1.094 -0.0412  0.3197 -0.0451
  582MOL0     C78463  10.164   4.851  -1.118  1.4504 -0.3568 -0.0872
  582MOL0     C78464   9.923   4.751  -1.095  0.9050 -0.6557 -0.8194
  582MOL0     C78465   9.845   4.873  -1.141 -0.3497  0.1971  0.2196
  582MOL0     O78466   9.716   4.855  -1.170  0.5889  0.1454 -0.4541
  582MOL0     C78467   9.630   4.949  -1.218 -0.2021 -0.1907 -0.3425
  582MOL0     C78468   9.647   5.096  -1.214 -0.1561 -0.7990  0.3166
  582MOL0     C78469   9.546   5.181  -1.254 -0.5974  1.0215 -0.6832
  582MOL0     C78470   9.431   5.130  -1.311  0.4548  0.6718 -0.2778
  582MOL0     O78471   9.328   5.210  -1.345  0.0759 -0.0399 -0.0345
  582MOL0     C78472   9.285   5.198  -1.481  0.3940 -0.7570  0.4500
  582MOL0     C78473   9.159   5.294  -1.506  0.1871 -0.1644 -0.0002
  582MOL0     C78474   9.201   5.433  -1.497 -0.8035 -0.7839  1.0046
  582MOL0     C78475   9.094   5.536  -1.535 -0.4659 -0.6449  0.4963
  582MOL0     C78476   9.132   5.682  -1.508 -0.2767  0.2780 -0.2412
  582MOL0     C78477   9.236   5.725  -1.613 -0.0385 -0.0467  0.1199
  582MOL0     C78478   9.291   5.863  -1.569  0.2175 -1.0294 -0.3722
  582MOL0     C78479   9.354   5.927  -1.699  0.5396  0.0696  0.1975
  582MOL0    Cl78480   9.430   6.092  -1.670 -0.2370  0.1809 -0.1496
  582MOL0     C78481   9.430   4.992  -1.342 -0.2818  0.7384  0.0353
  582MOL0     C78482   9.529   4.908  -1.288 -0.5549 -0.4790 -0.3455
  582MOL0     O78483   9.916   4.969  -1.158  0.5289 -1.3159 -0.2476
  582MOL0     C78484   9.838   4.646  -1.041  0.5899  0.0251  0.1326
  582MOL0     C78485   9.898   4.525  -1.004  0.6944 -0.5735  0.1339
  582MOL0     N78486  10.393   4.313  -0.304 -0.2091  0.3620  0.0364
  582MOL0     N78487  10.370   4.281  -0.179 -0.0961 -0.3833  0.2316
  582MOL0     C78488   9.570   3.468   0.686  0.6243 -0.3351  0.2010
  582MOL0     C78489   9.463   3.391   0.735  0.7191  0.1041  0.3837
  582MOL0     C78490   9.023   3.264   0.800  0.2883 -0.6587  0.3492
  582MOL0     C78491   9.064   3.131   0.802  0.0333 -0.4349 -0.0826
  582MOL0     C78492   8.981   3.036   0.870 -0.4771  0.5724 -0.3360
  582MOL0     C78493   8.867   3.076   0.942 -0.6049 -0.3204  0.2669
  582MOL0     O78494   8.789   2.997   1.023  0.6641  0.1025 -0.1642
  582MOL0     C78495   8.780   2.859   1.024 -0.2971 -0.3709 -0.1955
  582MOL0     C78496   8.680   2.822   1.137  0.0111 -0.6160  0.3541
  582MOL0     C78497   8.723   2.870   1.277 -1.9875  0.3519  0.7710
  582MOL0     C78498   8.614   2.898   1.367 -0.7658  0.0754  0.1910
  582MOL0     C78499   8.528   2.774   1.361  0.2043  0.3271 -0.7499
  582MOL0     C78500   8.454   2.683   1.352  0.4089  0.3840 -0.1754
  582MOL0     C78501   8.825   3.213   0.937  0.1671  0.0845 -0.4390
  582MOL0     C78502   8.903   3.298   0.858 -0.7929  0.5286 -0.4083
  582MOL0     H78503   9.215   3.494   0.530 -0.3614 -1.9883 -1.3757
  582MOL0     H78504   9.397   3.637   0.443 -0.9402  0.0899  0.1185
  582MOL0     H78505   9.649   3.630   0.340 -1.8570 -1.4059  2.3051
  582MOL0     H78506   9.596   3.770   0.433 -0.8690 -0.3272 -3.4691
  582MOL0     H78507   9.811   3.823   0.499 -0.1014  2.2706 -1.2411
  582MOL0     H78508   9.886   3.687   0.429  0.1860  0.7353 -0.6286
  582MOL0     H78509   9.745   3.778   0.204 -2.4137  1.0322  0.3121
  582MOL0     H78510   9.722   3.919   0.300 -0.6329 -0.1887  2.2933
  582MOL0     H78511   9.987   3.915   0.323 -1.4916  0.5195 -0.2118
  582MOL0     H78512   9.971   3.767   0.240 -5.2388 -2.5166  1.7725
  582MOL0     H78513   9.911   3.906   0.041  2.5522 -2.4576  0.2375
  582MOL0     H78514   9.880   4.049   0.153  0.5530  0.2305  1.4055
  582MOL0     H78515  10.141   4.068   0.186  0.6048 -0.4754 -1.0277
  582MOL0     H78516  10.158   3.909   0.108  0.0060 -0.1450 -3.9361
  582MOL0     H78517  10.087   4.002  -0.113 -0.0781  2.3980 -1.3815
  582MOL0     H78518  10.072   4.153  -0.049  0.5034 -0.1195 -3.4036
  582MOL0     H78519  10.308   3.974  -0.097  1.1876  0.7115 -1.2736
  582MOL0     H78520  10.350   4.097   0.009  1.5254  1.4735 -1.3581
  582MOL0     H78521  10.201   4.054  -0.338 -1.9610  1.1614  2.0560
  582MOL0     H78522  10.373   4.352  -0.558 -1.0134  0.4580 -0.0907
  582MOL0     H78523  10.384   4.184  -0.587 -1.5950 -1.8748  1.1997
  582MOL0     H78524  10.127   4.364  -0.571 -0.5328  1.0143 -1.6891
  582MOL0     H78525  10.124   4.186  -0.568  0.0757  1.2589  1.3028
  582MOL0     H78526  10.141   4.188  -0.790 -2.7703  1.0230 -0.6048
  582MOL0     H78527  10.287   4.286  -0.791 -0.2899  0.5853 -0.8698
  582MOL0     H78528  10.151   4.486  -0.778 -3.4652  1.2318  2.9620
  582MOL0     H78529  10.005   4.385  -0.765  0.6918  0.4761  1.6037
  582MOL0     H78530  10.219   4.588  -1.055 -0.7364 -3.8016  0.3179
  582MOL0     H78531  10.131   4.928  -1.048 -1.4217 -0.7022 -0.9316
  582MOL0     H78532  10.269   4.822  -1.107  0.7966 -2.6339  0.4261
  582MOL0     H78533  10.152   4.884  -1.222  1.8185  0.9285  0.2524
  582MOL0     H78534   9.741   5.136  -1.176  1.7383 -2.9767 -1.7589
  582MOL0     H78535   9.552   5.289  -1.244  2.3388  0.8848  0.0094
  582MOL0     H78536   9.371   5.240  -1.535 -0.1878  2.4286  1.7868
  582MOL0     H78537   9.252   5.096  -1.501  0.8747 -0.7029 -0.6700
  582MOL0     H78538   9.104   5.287  -1.600  0.0645  2.7796 -0.2570
  582MOL0     H78539   9.081   5.279  -1.431  0.2440  1.4638  0.4259
  582MOL0     H78540   9.281   5.449  -1.570 -1.7981 -0.4791 -0.0480
  582MOL0     H78541   9.244   5.451  -1.398 -0.0938 -2.2814  0.9806
  582MOL0     H78542   9.074   5.527  -1.642 -0.4975 -3.6158  0.6774
  582MOL0     H78543   9.005   5.505  -1.480 -1.3661  0.7210 -0.1407
  582MOL0     H78544   9.162   5.685  -1.403  0.3161  1.8483 -0.4325
  582MOL0     H78545   9.052   5.755  -1.522 -1.0919 -0.4568  0.4809
  582MOL0     H78546   9.319   5.654  -1.622 -1.0876 -1.4172  0.8809
  582MOL0     H78547   9.189   5.722  -1.711 -0.1516 -2.2391  0.1942
  582MOL0     H78548   9.363   5.849  -1.488  0.9421  0.7710 -0.6614
  582MOL0     H78549   9.221   5.937  -1.529  2.6195 -0.2004  2.6766
  582MOL0     H78550   9.273   5.941  -1.771  0.4919 -1.4579 -0.0745
  582MOL0     H78551   9.423   5.852  -1.739 -0.8799 -1.5327  0.6480
  582MOL0     H78552   9.350   4.950  -1.402 -2.5004  1.0008  2.6551
  582MOL0     H78553   9.515   4.801  -1.305  0.0851 -0.5287 -0.5840
  582MOL0     H78554   9.730   4.653  -1.025  0.6817  1.6598  0.2776
  582MOL0     H78555   9.834   4.441  -0.979 -0.5083 -0.1109 -1.2982
  582MOL0     H78556   9.673   3.470   0.720  0.0571 -2.0561  2.2107
  582MOL0     H78557   9.478   3.334   0.826 -1.4403 -0.8785  0.1906
  582MOL0     H78558   9.158   3.101   0.757  2.0994  1.6492  2.5172
  582MOL0     H78559   9.013   2.932   0.880 -0.7959  0.6486  2.0378
  582MOL0     H78560   8.743   2.823   0.928 -1.6305  0.9678 -0.2340
  582MOL0     H78561   8.879   2.814   1.035 -1.5735 -3.5688 -0.8743
  582MOL0     H78562   8.686   2.713   1.141  0.5828 -0.5526  3.0373
  582MOL0     H78563   8.581   2.857   1.108  0.1844 -0.6752 -0.3246
  582MOL0     H78564   8.793   2.953   1.269 -1.5543  0.4653  4.2313
  582MOL0     H78565   8.790   2.793   1.317  2.2880  2.5434 -1.5362
  582MOL0     H78566   8.571   2.992   1.332  1.7838  1.8386  1.4605
  582MOL0     H78567   8.650   2.922   1.467  0.6837  0.5643 -0.4223
  582MOL0     H78568   8.384   2.602   1.345  0.0456  0.5754  0.9761
  582MOL0     H78569   8.750   3.249   1.006 -0.5609 -0.4437 -0.9406
  582MOL0     H78570   8.876   3.403   0.857  0.8433  0.9813  0.3882
  583MOL0     O78571   8.496   5.423   9.085  0.2918 -0.6333  0.3579
  583MOL0     C78572   8.431   5.345   9.161  0.2355 -0.1880 -0.3512
  583MOL0     O78573   8.479   5.233   9.225 -0.5429  1.0144  0.4576
  583MOL0     C78574   8.604   5.185   9.227 -0.2746  0.2635  0.7642
  583MOL0     C78575   8.630   5.080   9.316 -0.5747 -0.6992  0.4632
  583MOL0     C78576   8.761   5.031   9.334  0.0888 -0.5404 -0.0893
  583MOL0     C78577   8.856   5.066   9.243 -0.1090 -0.3544  0.2435
  583MOL0     O78578   8.974   5.002   9.249 -0.2267 -0.3036 -0.3587
  583MOL0     C78579   9.084   5.073   9.202  0.5977  0.3936 -0.1631
  583MOL0     C78580   9.209   4.984   9.207  0.2407  0.0790  0.3557
  583MOL0     C78581   9.342   5.050   9.180 -0.4068  0.3832 -0.9768
  583MOL0     C78582   9.462   4.970   9.211  0.8694  1.1189 -0.4442
  583MOL0     C78583   9.588   5.055   9.232  0.2557  0.0580  0.0036
  583MOL0     C78584   9.707   4.973   9.279  0.1752 -0.1705 -0.4803
  583MOL0     C78585   9.712   4.942   9.426  0.5452 -0.3626 -1.0099
  583MOL0     C78586   9.807   5.026   9.511  0.2225 -0.3214  0.3240
  583MOL0     N78587   9.762   5.164   9.524  0.8224 -0.4447  0.8291
  583MOL0     C78588   9.803   5.277   9.447 -1.1054  0.8493  0.4213
  583MOL0     C78589   9.775   5.379   9.526  1.6197 -0.0084 -0.5453
  583MOL0     C78590   9.814   5.520   9.510  0.8699 -0.3940 -1.5377
  583MOL0     C78591   9.758   5.590   9.389 -0.8820  0.3979  0.3001
  583MOL0     C78592   9.605   5.600   9.385 -0.2301  0.0118  0.0192
  583MOL0     C78593   9.553   5.612   9.240  0.6397 -0.2817  0.6320
  583MOL0     O78594   9.587   5.738   9.189  0.1460 -0.6195 -0.5483
  583MOL0     C78595   9.497   5.798   9.105  1.1011 -0.7659  0.2320
  583MOL0     C78596   9.490   5.936   9.094  0.1632 -0.3296  0.1382
  583MOL0     C78597   9.389   5.999   9.013 -0.1083 -0.7673  0.6145
  583MOL0     C78598   9.390   6.150   9.013 -0.2598  0.3186 -0.5360
  583MOL0     C78599   9.295   5.921   8.939 -0.5833  0.2616 -0.3985
  583MOL0     C78600   9.182   5.991   8.881  0.9676  0.9023  0.0112
  583MOL0     O78601   9.175   5.983   8.744  0.2670  0.4707  0.1682
  583MOL0     C78602   9.060   6.030   8.688 -0.3888 -0.5154  0.0829
  583MOL0     C78603   9.054   6.166   8.649 -0.1160  0.2852 -0.3219
  583MOL0     C78604   8.951   6.214   8.559  0.8778 -0.7289 -0.5198
  583MOL0     C78605   8.842   6.124   8.522 -1.1452  0.1990 -0.4647
  583MOL0     O78606   8.730   6.177   8.462  0.1378  0.4540  0.2533
  583MOL0     C78607   8.743   6.313   8.403 -0.1515  0.5193  0.0650
  583MOL0     C78608   8.718   6.437   8.490  0.5438  0.5235  0.0578
  583MOL0     C78609   8.569   6.438   8.514 -0.3272 -0.1780 -0.1045
  583MOL0     C78610   8.531   6.547   8.617 -0.1881 -0.6774  0.1089
  583MOL0     C78611   8.380   6.567   8.618  0.1811  0.2265  0.1561
  583MOL0     C78612   8.306   6.465   8.716 -0.9229  0.2505 -0.1845
  583MOL0     C78613   8.159   6.488   8.722  0.4479  0.2858 -0.1956
  583MOL0     C78614   8.072   6.391   8.814  0.8270 -0.4927 -0.4351
  583MOL0    Cl78615   8.149   6.380   8.979  0.2597 -0.1538  0.4632
  583MOL0     C78616   8.844   5.992   8.579 -0.4416  0.3324 -0.3089
  583MOL0     C78617   8.953   5.946   8.656  0.8506  0.0840  0.1461
  583MOL0     O78618   9.097   6.039   8.960  0.0851 -0.1269  0.2641
  583MOL0     C78619   9.310   5.777   8.944 -0.7036 -0.6188 -0.0253
  583MOL0     C78620   9.412   5.720   9.019 -0.6265 -0.4864 -0.9278
  583MOL0     N78621   9.706   5.328   9.644  0.1367 -0.7063  0.4041
  583MOL0     N78622   9.700   5.204   9.640 -0.0280 -0.6477  0.5472
  583MOL0     C78623   8.829   5.158   9.139  0.0230 -0.6720 -0.1392
  583MOL0     C78624   8.701   5.217   9.134 -0.3912  0.5442  0.1299
  583MOL0     C78625   8.289   5.392   9.189  0.7550 -0.1740 -0.5509
  583MOL0     C78626   8.232   5.512   9.133 -0.1305  0.2676 -0.3608
  583MOL0     C78627   8.092   5.526   9.149 -0.7706 -0.0581  1.5253
  583MOL0     C78628   8.019   5.443   9.230  0.4339 -0.7145  0.7885
  583MOL0     O78629   7.884   5.460   9.232  0.4972  0.3748 -0.0304
  583MOL0     C78630   7.802   5.345   9.255  0.1232 -0.0299  0.8656
  583MOL0     C78631   7.657   5.399   9.245 -0.0459  0.0486  0.0051
  583MOL0     C78632   7.648   5.513   9.339  0.6623 -0.1264 -1.3081
  583MOL0     C78633   7.499   5.557   9.351  0.1365  0.0516 -0.3866
  583MOL0     C78634   7.474   5.659   9.245 -0.2976  0.8183  0.8899
  583MOL0     C78635   7.473   5.741   9.151  0.7972 -0.0552 -0.0985
  583MOL0     C78636   8.087   5.331   9.295 -0.5460  0.1635 -1.2005
  583MOL0     C78637   8.216   5.310   9.278 -0.3058  0.1416 -0.7293
  583MOL0     H78638   8.555   5.043   9.385 -1.1192  0.5615  0.5713
  583MOL0     H78639   8.797   4.958   9.406 -1.3314 -0.6985  0.4835
  583MOL0     H78640   9.079   5.101   9.096 -0.5078  2.1041  0.2984
  583MOL0     H78641   9.101   5.160   9.266  0.8493 -0.6136  1.1661
  583MOL0     H78642   9.206   4.935   9.305  0.1366 -2.7870 -0.9571
  583MOL0     H78643   9.195   4.917   9.121  1.9659  0.6989 -0.4464
  583MOL0     H78644   9.349   5.082   9.076  2.5329  0.0361 -0.9526
  583MOL0     H78645   9.345   5.134   9.250 -1.4118  1.0908 -1.7442
  583MOL0     H78646   9.433   4.919   9.303  0.6109 -3.1740 -2.6371
  583MOL0     H78647   9.468   4.892   9.135 -3.0625  0.5906 -0.4195
  583MOL0     H78648   9.611   5.105   9.137 -0.1271  0.9682  0.3879
  583MOL0     H78649   9.567   5.134   9.304  0.5213 -1.3417  1.6758
  583MOL0     H78650   9.714   4.876   9.229  2.2657 -1.0337  1.3197
  583MOL0     H78651   9.794   5.033   9.250  0.6896  0.2014  1.6825
  583MOL0     H78652   9.613   4.932   9.469  1.3585  0.5821  1.2150
  583MOL0     H78653   9.759   4.843   9.422  1.2660 -0.0129 -1.7709
  583MOL0     H78654   9.909   5.035   9.473  0.5874  0.7788  1.4819
  583MOL0     H78655   9.814   4.992   9.615  2.5038  0.0426  0.3551
  583MOL0     H78656   9.864   5.269   9.357 -2.6848 -0.1639 -0.6232
  583MOL0     H78657   9.783   5.585   9.593  0.9028  0.3824 -2.1278
  583MOL0     H78658   9.922   5.531   9.509  0.7779  0.6829 -0.7995
  583MOL0     H78659   9.793   5.543   9.297  2.5228  0.5195  1.3776
  583MOL0     H78660   9.810   5.685   9.378  1.0545 -0.8531 -2.3524
  583MOL0     H78661   9.557   5.681   9.441 -0.9505  0.8855 -1.7485
  583MOL0     H78662   9.572   5.503   9.421  1.9924 -1.4898 -1.7360
  583MOL0     H78663   9.444   5.603   9.236  0.8440 -3.7987 -2.0692
  583MOL0     H78664   9.591   5.532   9.176 -0.8937 -1.6223  1.3380
  583MOL0     H78665   9.555   6.002   9.151  0.7299  0.2711 -1.1593
  583MOL0     H78666   9.481   6.191   8.968  0.1039  1.4580  1.1363
  583MOL0     H78667   9.294   6.187   8.976 -1.7517 -0.8930  1.9224
  583MOL0     H78668   9.399   6.175   9.119  1.4502 -1.1326 -0.2936
  583MOL0     H78669   9.136   6.233   8.675 -0.5507  0.6043  0.2431
  583MOL0     H78670   8.966   6.317   8.526  0.7846 -0.4691  0.2330
  583MOL0     H78671   8.840   6.328   8.353  0.7787 -0.9870  1.3104
  583MOL0     H78672   8.670   6.319   8.322 -0.0156 -2.8654 -0.4698
  583MOL0     H78673   8.767   6.446   8.587  0.5356 -2.1172  0.3912
  583MOL0     H78674   8.754   6.516   8.423  2.7723 -0.0886  0.4496
  583MOL0     H78675   8.532   6.340   8.546 -1.2946 -0.8879 -3.0816
  583MOL0     H78676   8.518   6.468   8.422  1.2257  2.0100 -0.3238
  583MOL0     H78677   8.574   6.518   8.713 -0.2867  0.3110  0.4677
  583MOL0     H78678   8.581   6.640   8.587 -0.4278 -0.3590  0.6876
  583MOL0     H78679   8.342   6.544   8.518  3.7466  0.4563 -1.4042
  583MOL0     H78680   8.353   6.667   8.654 -1.8838 -0.7922  1.7081
  583MOL0     H78681   8.327   6.366   8.674 -3.8854  0.9383 -3.8125
  583MOL0     H78682   8.349   6.468   8.817 -1.3219 -0.8635  0.0340
  583MOL0     H78683   8.111   6.478   8.625 -0.9303  4.1182 -0.1025
  583MOL0     H78684   8.138   6.589   8.761 -2.5790 -0.2249 -0.2687
  583MOL0     H78685   8.058   6.298   8.759 -0.6550 -2.0628  2.3512
  583MOL0     H78686   7.973   6.437   8.826  0.7472 -0.8786  0.5463
  583MOL0     H78687   8.762   5.922   8.569 -0.4617 -0.0352  1.8976
  583MOL0     H78688   8.946   5.844   8.691 -1.8893  0.2320  0.2491
  583MOL0     H78689   9.242   5.726   8.876 -3.9697  3.5650 -0.3226
  583MOL0     H78690   9.425   5.613   9.021  0.6177 -0.3658  1.7782
  583MOL0     H78691   8.898   5.179   9.058  0.9297 -0.5805  0.6417
  583MOL0     H78692   8.689   5.296   9.062 -0.3466  0.0955 -0.3770
  583MOL0     H78693   8.289   5.583   9.074  2.5929  0.9242  2.7477
  583MOL0     H78694   8.044   5.596   9.082  1.2519 -1.0258 -1.1329
  583MOL0     H78695   7.827   5.269   9.180  0.8358  0.0278  1.0313
  583MOL0     H78696   7.817   5.308   9.357 -0.7967 -1.6848  0.4346
  583MOL0     H78697   7.584   5.319   9.261 -1.5094  0.8329 -2.3509
  583MOL0     H78698   7.641   5.452   9.151 -0.8298  0.6315  0.4509
  583MOL0     H78699   7.707   5.600   9.308  2.5497 -0.7654  0.3251
  583MOL0     H78700   7.679   5.475   9.436  0.7819 -1.4877 -1.8467
  583MOL0     H78701   7.487   5.604   9.449  0.3275  0.8130 -0.7199
  583MOL0     H78702   7.425   5.477   9.350  0.8012 -0.5810 -1.4409
  583MOL0     H78703   7.457   5.810   9.071  1.8356  2.6356  1.8823
  583MOL0     H78704   8.025   5.265   9.354 -1.4217  1.1341 -0.9923
  583MOL0     H78705   8.271   5.237   9.337  1.7999  1.6175 -0.7545
  584MOL0     O78706   2.928   8.557   2.078 -0.8459  0.0004  0.5106
  584MOL0     C78707   2.839   8.624   2.030 -0.0854  0.3004  0.5948
  584MOL0     O78708   2.776   8.586   1.911 -0.2652 -0.1477 -0.1256
  584MOL0     C78709   2.826   8.485   1.827 -0.4151 -0.7272 -0.0058
  584MOL0     C78710   2.965   8.453   1.817  0.7450 -0.2001  0.2164
  584MOL0     C78711   3.010   8.337   1.747  0.4699 -0.6931 -0.0302
  584MOL0     C78712   2.922   8.258   1.680 -0.1060  0.7991 -0.2257
  584MOL0     O78713   2.973   8.145   1.623 -0.1457 -0.6427 -0.2211
  584MOL0     C78714   2.898   8.022   1.647  0.2862 -0.9790  1.0247
  584MOL0     C78715   2.981   7.900   1.621 -0.5484  0.1420  0.7647
  584MOL0     C78716   3.081   7.851   1.714  0.3340  0.8471  0.1664
  584MOL0     C78717   3.099   7.697   1.696 -0.6747 -1.2784 -0.0710
  584MOL0     C78718   2.999   7.610   1.771 -0.2959  0.4378  0.0560
  584MOL0     C78719   3.021   7.460   1.742 -0.4469  1.2654 -0.0574
  584MOL0     C78720   2.943   7.376   1.848 -0.1189  0.0103  0.2046
  584MOL0     C78721   3.031   7.277   1.923  0.4001 -0.0704  0.2983
  584MOL0     N78722   3.166   7.329   1.957  2.0770  0.8626  0.2927
  584MOL0     C78723   3.197   7.450   2.019 -0.9219  0.1042  0.3575
  584MOL0     C78724   3.327   7.438   2.048 -0.2619  0.1734 -0.8611
  584MOL0     C78725   3.408   7.552   2.092 -0.1534 -0.3681 -0.4940
  584MOL0     C78726   3.429   7.545   2.238 -0.5565  0.7511 -1.0958
  584MOL0     C78727   3.299   7.525   2.319 -0.5185 -0.2531  0.4165
  584MOL0     C78728   3.309   7.564   2.466 -0.3403  0.6907 -0.3112
  584MOL0     O78729   3.315   7.707   2.476 -0.2612 -0.2152  0.1414
  584MOL0     C78730   3.201   7.782   2.492 -0.6527 -0.6993  0.3303
  584MOL0     C78731   3.078   7.730   2.530  1.2635 -0.2827 -0.0250
  584MOL0     C78732   2.972   7.822   2.570 -1.1503  0.2873 -0.0118
  584MOL0     C78733   2.851   7.748   2.634  0.4618 -0.1247 -0.0375
  584MOL0     C78734   2.985   7.962   2.557  0.1737  0.1176  0.1519
  584MOL0     C78735   2.879   8.061   2.584  1.1293 -0.3547  0.6384
  584MOL0     O78736   2.914   8.191   2.585  0.0983 -0.1986 -0.6357
  584MOL0     C78737   2.806   8.274   2.568 -0.1246  0.5569  0.6725
  584MOL0     C78738   2.713   8.302   2.669 -0.7102 -0.1065  0.0800
  584MOL0     C78739   2.607   8.393   2.667  0.2248  0.2347 -0.3291
  584MOL0     C78740   2.575   8.448   2.550  0.7978  0.4383 -0.1769
  584MOL0     O78741   2.456   8.520   2.542  0.3529  0.0409 -0.0267
  584MOL0     C78742   2.416   8.585   2.423 -0.3726 -0.2668 -0.8520
  584MOL0     C78743   2.359   8.716   2.459  0.8951 -0.3455  0.3082
  584MOL0     C78744   2.326   8.792   2.331  0.4629  0.0881  0.4830
  584MOL0     C78745   2.211   8.891   2.351  0.5532  0.1030  0.3159
  584MOL0     C78746   2.174   8.980   2.234 -0.2327 -0.1298  0.3143
  584MOL0     C78747   2.079   9.096   2.271 -0.2726  0.9580 -0.2670
  584MOL0     C78748   1.945   9.028   2.292 -0.3212  0.5781 -0.4520
  584MOL0     C78749   1.840   9.135   2.300  0.1278 -0.4418 -0.3905
  584MOL0    Cl78750   1.812   9.202   2.124 -0.8095  0.0658 -0.5730
  584MOL0     C78751   2.655   8.418   2.437 -0.6374  0.6883  0.6001
  584MOL0     C78752   2.772   8.337   2.444  0.1192 -0.3900  0.0598
  584MOL0     O78753   2.762   8.029   2.616 -0.2509  0.0570  0.1982
  584MOL0     C78754   3.110   8.010   2.515 -0.7992  1.1226 -0.3366
  584MOL0     C78755   3.217   7.922   2.485 -0.1223  0.4982  0.8951
  584MOL0     N78756   3.372   7.311   2.003  0.0262  0.0523 -0.5720
  584MOL0     N78757   3.270   7.240   1.954 -0.4837 -0.5979  0.1201
  584MOL0     C78758   2.786   8.295   1.681 -0.7582  0.1349  0.3021
  584MOL0     C78759   2.743   8.415   1.746  0.5791 -0.5415  0.1416
  584MOL0     C78760   2.776   8.728   2.120  0.7460 -0.4989 -0.5492
  584MOL0     C78761   2.825   8.738   2.250  0.5139  0.0162  0.5582
  584MOL0     C78762   2.787   8.854   2.321 -0.0562 -0.5096 -0.0253
  584MOL0     C78763   2.701   8.951   2.269  0.0315 -0.9159  0.1159
  584MOL0     O78764   2.662   9.053   2.355  0.1725  0.7078 -0.3138
  584MOL0     C78765   2.529   9.115   2.324  0.0798  0.8641  0.9405
  584MOL0     C78766   2.466   9.168   2.449  1.9420  0.1011  0.0391
  584MOL0     C78767   2.487   9.086   2.583  0.2623  0.0010  0.3685
  584MOL0     C78768   2.386   9.144   2.683  0.0436 -0.4437  0.0315
  584MOL0     C78769   2.435   9.114   2.813 -0.2529  0.3867  0.4975
  584MOL0     C78770   2.482   9.070   2.920  0.0344 -0.2133 -0.2514
  584MOL0     C78771   2.662   8.941   2.143 -0.0535  0.3077  0.8140
  584MOL0     C78772   2.702   8.834   2.068 -0.2816  0.1682  0.4543
  584MOL0     H78773   3.033   8.520   1.870 -3.2086  2.8272  2.0340
  584MOL0     H78774   3.115   8.313   1.752  0.5312 -0.8205 -1.5624
  584MOL0     H78775   2.853   8.014   1.747  0.1360 -1.3896  0.9256
  584MOL0     H78776   2.814   8.015   1.578  0.5432 -1.7332  0.7820
  584MOL0     H78777   2.907   7.820   1.616 -1.8720  1.2032  2.3747
  584MOL0     H78778   3.022   7.911   1.520 -3.5046  1.3142 -0.4276
  584MOL0     H78779   3.178   7.898   1.698  0.7814 -0.0575  0.1298
  584MOL0     H78780   3.047   7.864   1.817 -0.8376 -0.5152 -0.0231
  584MOL0     H78781   3.091   7.673   1.590  1.0541 -4.0260  0.3369
  584MOL0     H78782   3.202   7.661   1.708  0.7025  1.8669 -1.1079
  584MOL0     H78783   2.997   7.629   1.879  0.0534  0.6396  0.0285
  584MOL0     H78784   2.900   7.635   1.734 -1.3015 -0.4687  1.9835
  584MOL0     H78785   2.993   7.429   1.641  2.3391 -1.3390 -0.1624
  584MOL0     H78786   3.127   7.437   1.752 -0.7621 -2.5251 -3.1785
  584MOL0     H78787   2.885   7.436   1.919  0.6843  0.5015  0.4545
  584MOL0     H78788   2.876   7.315   1.786 -0.1192 -2.4861  2.5284
  584MOL0     H78789   3.044   7.196   1.850  0.0208  0.5449 -0.4638
  584MOL0     H78790   2.995   7.231   2.015 -0.6807  1.1203  0.4918
  584MOL0     H78791   3.135   7.538   2.034  0.5609  0.9312  1.8687
  584MOL0     H78792   3.502   7.561   2.037  1.1865 -0.5780  1.6659
  584MOL0     H78793   3.350   7.639   2.060  0.4740 -0.4287 -1.8514
  584MOL0     H78794   3.475   7.638   2.274  1.6075  0.5959 -3.1787
  584MOL0     H78795   3.496   7.461   2.258  0.4743  0.8804 -3.7021
  584MOL0     H78796   3.274   7.419   2.324 -1.6921  0.0326  1.2925
  584MOL0     H78797   3.219   7.594   2.289 -0.2292  0.3415  0.9993
  584MOL0     H78798   3.405   7.520   2.494 -1.0484 -1.5950 -1.2812
  584MOL0     H78799   3.230   7.518   2.526 -0.4296  1.2761  0.0367
  584MOL0     H78800   3.049   7.625   2.536 -2.2089  0.2470 -3.4498
  584MOL0     H78801   2.836   7.802   2.729 -0.5516 -1.5062  0.6137
  584MOL0     H78802   2.760   7.766   2.576  0.2316  4.2606  1.3173
  584MOL0     H78803   2.870   7.643   2.655  1.5958  0.0393 -0.1642
  584MOL0     H78804   2.724   8.244   2.760 -0.5710 -0.2083 -0.0008
  584MOL0     H78805   2.550   8.413   2.757  0.5788  2.2057 -0.5052
  584MOL0     H78806   2.496   8.618   2.357  0.7094 -0.2891  0.4075
  584MOL0     H78807   2.343   8.531   2.362 -0.8320 -1.3482  0.5950
  584MOL0     H78808   2.267   8.698   2.514  1.7800  0.5146  2.1387
  584MOL0     H78809   2.438   8.770   2.513  2.0055  0.4962 -2.0070
  584MOL0     H78810   2.309   8.723   2.248  4.4865 -1.0452  0.3745
  584MOL0     H78811   2.420   8.837   2.298  1.4410 -0.3251  2.5490
  584MOL0     H78812   2.128   8.833   2.392 -0.1306  1.1436  0.4509
  584MOL0     H78813   2.249   8.955   2.431 -2.5500  3.3176 -0.4814
  584MOL0     H78814   2.125   8.918   2.159  0.4648 -0.4394  0.1101
  584MOL0     H78815   2.259   9.025   2.182 -0.3113  2.0849  1.9396
  584MOL0     H78816   2.116   9.142   2.363 -2.7956  0.7974  0.9357
  584MOL0     H78817   2.073   9.156   2.180 -0.5304  0.6771 -0.4398
  584MOL0     H78818   1.952   8.974   2.387  1.6504 -2.4860 -2.1940
  584MOL0     H78819   1.912   8.959   2.215  1.2998 -2.2202  1.1903
  584MOL0     H78820   1.891   9.214   2.357  0.7186 -0.2225 -1.2016
  584MOL0     H78821   1.760   9.104   2.369  0.4591  0.2329  0.3225
  584MOL0     H78822   2.643   8.461   2.339 -2.6200  0.8217  0.8582
  584MOL0     H78823   2.851   8.323   2.371  0.5078 -4.1704  1.0234
  584MOL0     H78824   3.127   8.117   2.511 -0.8812  1.3076  2.2372
  584MOL0     H78825   3.316   7.964   2.468 -0.2459  0.5433  0.2582
  584MOL0     H78826   2.713   8.238   1.624  3.2429 -5.5328  0.0256
  584MOL0     H78827   2.642   8.454   1.735 -0.0027 -0.8621  3.4684
  584MOL0     H78828   2.884   8.655   2.287  0.5894 -1.4133 -2.4937
  584MOL0     H78829   2.826   8.874   2.421 -0.4101 -1.5145  0.3236
  584MOL0     H78830   2.551   9.200   2.259  0.0638  0.5318  0.4952
  584MOL0     H78831   2.467   9.046   2.267  0.7911  1.9072 -1.1839
  584MOL0     H78832   2.359   9.188   2.432  1.7974  1.6476  2.2939
  584MOL0     H78833   2.518   9.264   2.461  2.0018 -0.0571  1.2242
  584MOL0     H78834   2.592   9.101   2.606  0.4852 -1.4810  0.4136
  584MOL0     H78835   2.473   8.978   2.571 -0.2668  0.0254  0.7209
  584MOL0     H78836   2.292   9.090   2.696 -0.5918  0.9260  1.2710
  584MOL0     H78837   2.371   9.251   2.671 -0.6226 -0.7490 -2.3771
  584MOL0     H78838   2.531   9.052   3.013  1.2769  1.6023 -0.5003
  584MOL0     H78839   2.609   9.021   2.092  1.4580 -0.1767 -1.6823
  584MOL0     H78840   2.688   8.860   1.964  2.7691  3.3483  0.6539
  585MOL0     O78841   8.162   8.408   7.289  0.3689  0.1363 -0.7713
  585MOL0     C78842   8.085   8.333   7.233 -0.2759  0.1431  0.5414
  585MOL0     O78843   7.960   8.375   7.183  0.0617 -0.5370 -0.1087
  585MOL0     C78844   7.911   8.496   7.209  0.5988 -0.4011 -0.1115
  585MOL0     C78845   7.969   8.615   7.167  0.1133 -0.0203  0.4416
  585MOL0     C78846   7.911   8.738   7.190 -0.6149 -0.8136 -0.3323
  585MOL0     C78847   7.800   8.751   7.269  0.5620  0.1071 -0.0245
  585MOL0     O78848   7.753   8.873   7.301  0.5174  0.3586 -0.2936
  585MOL0     C78849   7.724   8.899   7.440 -0.4444 -0.5821 -0.7106
  585MOL0     C78850   7.722   9.054   7.460 -0.0025  0.0475  0.1268
  585MOL0     C78851   7.700   9.089   7.603  0.7410  0.1718  0.1942
  585MOL0     C78852   7.820   9.057   7.693  0.0814  0.9930  0.4183
  585MOL0     C78853   7.778   9.069   7.837 -0.4082  0.7039  0.2072
  585MOL0     C78854   7.898   9.038   7.926  0.0500  0.7718 -0.8435
  585MOL0     C78855   7.970   9.162   7.977 -0.6214 -0.7912  0.7416
  585MOL0     C78856   8.072   9.129   8.088  0.7117 -0.7295 -0.5012
  585MOL0     N78857   8.151   9.017   8.055  0.4043  0.1773  0.1813
  585MOL0     C78858   8.240   8.991   7.945 -0.4640 -0.4541  0.7371
  585MOL0     C78859   8.309   8.882   7.986  0.8688  0.3938  0.4170
  585MOL0     C78860   8.418   8.819   7.903  0.0194  0.3359  0.1453
  585MOL0     C78861   8.525   8.919   7.887  0.0611 -0.4227 -0.5464
  585MOL0     C78862   8.628   8.858   7.785  0.2625 -0.9383  0.5484
  585MOL0     C78863   8.746   8.953   7.756 -0.1363 -0.2255 -0.3197
  585MOL0     O78864   8.834   8.891   7.658 -0.3963  0.1037  0.3993
  585MOL0     C78865   8.887   8.977   7.566  0.5323  0.6891  0.4224
  585MOL0     C78866   9.016   9.025   7.578 -0.0756  0.0398 -0.0235
  585MOL0     C78867   9.075   9.084   7.461 -0.5273 -0.4191 -0.7696
  585MOL0     C78868   9.223   9.105   7.457 -0.4148 -0.1860 -0.5764
  585MOL0     C78869   8.992   9.135   7.358  0.9454  0.0630  0.4843
  585MOL0     C78870   9.033   9.219   7.248 -0.4649 -0.4265  0.4721
  585MOL0     O78871   8.967   9.203   7.129  0.0723  0.1914  0.4856
  585MOL0     C78872   9.009   9.289   7.022  0.7318 -0.2535  0.8111
  585MOL0     C78873   9.053   9.230   6.899  0.4467  0.5401 -0.5767
  585MOL0     C78874   9.069   9.301   6.781  0.0204  0.6372 -0.7240
  585MOL0     C78875   9.053   9.440   6.780  0.1737  1.0801 -0.9904
  585MOL0     O78876   9.079   9.486   6.658 -0.1876 -1.3886  0.7822
  585MOL0     C78877   9.093   9.629   6.632 -0.1181  0.9251  0.5617
  585MOL0     C78878   9.243   9.672   6.629 -1.1877  0.8076  0.1880
  585MOL0     C78879   9.326   9.616   6.746  0.3989 -0.7323 -0.8874
  585MOL0     C78880   9.476   9.627   6.731 -0.1354 -0.2402  0.6665
  585MOL0     C78881   9.515   9.773   6.744  0.5514 -0.2536  0.3994
  585MOL0     C78882   9.666   9.796   6.752  0.4234 -0.1540  0.2015
  585MOL0     C78883   9.708   9.940   6.754  0.1580  0.2543  0.3632
  585MOL0     C78884   9.852   9.944   6.731  1.0874 -0.3786  1.0551
  585MOL0    Cl78885   9.927   9.909   6.569  0.0399 -0.3614 -0.6329
  585MOL0     C78886   9.024   9.507   6.906 -0.6630  0.1123  0.2150
  585MOL0     C78887   9.001   9.433   7.022  0.0715 -1.1717 -0.4502
  585MOL0     O78888   9.134   9.288   7.263 -0.1166 -0.0793  0.1555
  585MOL0     C78889   8.862   9.096   7.360 -0.1999 -0.7003  0.1822
  585MOL0     C78890   8.809   9.009   7.454  0.4471 -0.5283 -0.0073
  585MOL0     N78891   8.253   8.843   8.114  0.1944  0.7221 -0.2635
  585MOL0     N78892   8.165   8.927   8.153  0.7365  0.1143  0.8547
  585MOL0     C78893   7.737   8.638   7.309 -0.1441  1.1414 -0.0404
  585MOL0     C78894   7.789   8.509   7.270 -0.3264 -0.1239 -0.5243
  585MOL0     C78895   8.124   8.190   7.217  0.4456  0.1064 -0.8356
  585MOL0     C78896   8.023   8.098   7.176 -0.3783  0.4654 -0.1167
  585MOL0     C78897   8.049   7.962   7.165 -0.2495 -0.5662 -0.1577
  585MOL0     C78898   8.177   7.910   7.206  0.2714 -0.1216 -0.3246
  585MOL0     O78899   8.216   7.773   7.200 -0.0680  0.4301  0.9797
  585MOL0     C78900   8.106   7.681   7.170  0.6867 -0.4207  1.2122
  585MOL0     C78901   8.125   7.560   7.253 -0.3432  0.9510  0.5308
  585MOL0     C78902   8.262   7.501   7.228 -0.2519  1.0547  0.3296
  585MOL0     C78903   8.259   7.356   7.277  0.2900 -0.7946  0.9665
  585MOL0     C78904   8.389   7.292   7.276  0.0291 -0.2641  0.3621
  585MOL0     C78905   8.507   7.260   7.271  0.0781  0.3818 -0.6771
  585MOL0     C78906   8.281   7.993   7.250 -0.5541  0.2103 -0.1991
  585MOL0     C78907   8.248   8.131   7.259 -0.7267  0.3387 -0.1888
  585MOL0     H78908   8.056   8.624   7.103 -2.2465 -1.8089 -3.3853
  585MOL0     H78909   7.948   8.828   7.141 -2.8397  1.3708  1.6910
  585MOL0     H78910   7.627   8.861   7.475  1.2637 -2.8012  1.9949
  585MOL0     H78911   7.797   8.848   7.503 -1.2359  1.3572  1.9477
  585MOL0     H78912   7.814   9.106   7.431 -1.2214  0.6850 -3.0278
  585MOL0     H78913   7.637   9.093   7.403 -2.4529 -3.2054  1.2707
  585MOL0     H78914   7.690   9.194   7.631  2.9092 -0.4408  4.0925
  585MOL0     H78915   7.609   9.046   7.647  0.1745  1.5834  0.4423
  585MOL0     H78916   7.865   8.960   7.671 -4.9413 -1.3451 -0.8352
  585MOL0     H78917   7.894   9.138   7.682  2.7090 -1.0079  2.1481
  585MOL0     H78918   7.732   9.164   7.864 -0.7501  2.0885 -4.3238
  585MOL0     H78919   7.704   8.988   7.840  0.2003  0.1671  1.1132
  585MOL0     H78920   7.870   8.989   8.021  1.5708  1.1619 -0.1719
  585MOL0     H78921   7.971   8.974   7.874 -0.9536 -1.1399 -0.0238
  585MOL0     H78922   8.016   9.219   7.896  1.9884 -2.1511  1.1510
  585MOL0     H78923   7.896   9.232   8.016 -0.4964  0.5874 -1.3113
  585MOL0     H78924   8.023   9.109   8.183  2.5384  0.4439  0.7621
  585MOL0     H78925   8.130   9.216   8.121 -1.7987  0.0995  2.0313
  585MOL0     H78926   8.253   9.051   7.855  0.0842 -0.2516  0.9480
  585MOL0     H78927   8.456   8.727   7.947  2.4003  1.5816  0.8303
  585MOL0     H78928   8.375   8.793   7.805 -1.6259  0.2018  0.8722
  585MOL0     H78929   8.568   8.940   7.986  0.3857 -1.3781 -0.4747
  585MOL0     H78930   8.488   9.007   7.834  4.0151  1.1543 -0.9787
  585MOL0     H78931   8.585   8.844   7.686  1.4854  0.5658 -0.2265
  585MOL0     H78932   8.657   8.763   7.831 -3.6249 -2.4614  0.2086
  585MOL0     H78933   8.798   8.977   7.849  0.9472  1.7644 -1.3765
  585MOL0     H78934   8.708   9.050   7.722 -0.2853  0.4128  1.5990
  585MOL0     H78935   9.069   9.010   7.671  0.2843  0.4754 -0.1511
  585MOL0     H78936   9.266   9.121   7.358  2.8325 -1.9181  0.4308
  585MOL0     H78937   9.265   9.186   7.518 -1.1566  0.4929 -0.9417
  585MOL0     H78938   9.268   9.013   7.496  0.0750  0.1991 -0.2234
  585MOL0     H78939   9.076   9.124   6.895  1.1420  0.6816 -0.4928
  585MOL0     H78940   9.092   9.241   6.694  0.8966 -0.4610  0.2336
  585MOL0     H78941   9.041   9.645   6.537 -1.5404  0.6392  1.2620
  585MOL0     H78942   9.038   9.691   6.704  0.2530  2.0961 -0.1312
  585MOL0     H78943   9.291   9.627   6.541 -1.2307 -1.3708  1.2278
  585MOL0     H78944   9.262   9.780   6.627 -0.2370  0.6515  0.5119
  585MOL0     H78945   9.303   9.512   6.770  0.1577 -0.3311  0.7733
  585MOL0     H78946   9.295   9.675   6.833 -1.8763 -0.6991 -1.6479
  585MOL0     H78947   9.534   9.564   6.800  1.8156  1.3402  0.5566
  585MOL0     H78948   9.514   9.589   6.636  6.2097  1.5154  2.0282
  585MOL0     H78949   9.480   9.803   6.842  1.8680  1.8618  0.2810
  585MOL0     H78950   9.475   9.837   6.665  1.8569  1.1593  0.8317
  585MOL0     H78951   9.717   9.742   6.832  2.1117 -0.8423 -1.2578
  585MOL0     H78952   9.713   9.759   6.660 -0.7249  0.3218 -0.6071
  585MOL0     H78953   9.693   9.988   6.851 -0.7132  0.1592  0.2811
  585MOL0     H78954   9.658  10.005   6.682  2.4029  1.6868 -0.0126
  585MOL0     H78955   9.900   9.876   6.802  0.0765 -2.1010  0.1613
  585MOL0     H78956   9.879  10.049   6.744  3.0856 -0.3915 -1.8692
  585MOL0     H78957   9.028   9.615   6.914 -0.3711  0.1884 -0.8515
  585MOL0     H78958   8.968   9.482   7.113  0.7924 -1.2692 -0.1201
  585MOL0     H78959   8.782   9.120   7.291 -1.7879 -0.2632  2.0804
  585MOL0     H78960   8.705   8.983   7.439  0.8275 -2.0111 -0.2737
  585MOL0     H78961   7.643   8.649   7.361  0.6086 -1.4666  2.0645
  585MOL0     H78962   7.755   8.409   7.298  1.2535 -0.4910  0.2078
  585MOL0     H78963   7.922   8.122   7.144 -0.1844 -1.1983 -2.1827
  585MOL0     H78964   7.974   7.905   7.111  0.0403 -0.2025 -0.9631
  585MOL0     H78965   8.003   7.707   7.195  1.1560  3.5625 -0.2806
  585MOL0     H78966   8.109   7.651   7.065 -0.9888  1.0816  0.7007
  585MOL0     H78967   8.047   7.485   7.232  1.5614 -2.8863  5.1931
  585MOL0     H78968   8.113   7.593   7.357 -1.6005  1.3171  0.2819
  585MOL0     H78969   8.324   7.562   7.295  0.1438  1.0244 -0.0075
  585MOL0     H78970   8.286   7.520   7.123 -1.4875  0.8017 -0.0160
  585MOL0     H78971   8.197   7.309   7.201  1.2367  0.9483 -0.9764
  585MOL0     H78972   8.215   7.343   7.376  2.5032 -2.8240  1.7802
  585MOL0     H78973   8.607   7.221   7.266  0.6223  1.6009  0.1927
  585MOL0     H78974   8.380   7.968   7.287  0.0420 -2.2815 -3.0505
  585MOL0     H78975   8.323   8.198   7.299 -1.1626  2.2511 -2.3920
  586MOL0     O78976   7.079  10.914   3.922 -0.0160  0.5835 -0.6763
  586MOL0     C78977   6.993  10.850   3.986 -0.0902 -0.8064 -1.0350
  586MOL0     O78978   6.872  10.912   4.046 -0.3896 -0.0114 -0.1844
  586MOL0     C78979   6.835  11.034   4.016 -0.5359 -0.1291 -0.2796
  586MOL0     C78980   6.911  11.141   4.073 -0.0479  0.3987 -0.4538
  586MOL0     C78981   6.860  11.269   4.077  0.0251  0.4617  0.1085
  586MOL0     C78982   6.733  11.302   4.022 -1.0405 -0.7779  0.4868
  586MOL0     O78983   6.670  11.420   4.040 -0.2515 -0.8102  0.0167
  586MOL0     C78984   6.741  11.517   4.122  0.0542  0.1384  0.0754
  586MOL0     C78985   6.845  11.606   4.051  0.8284  0.4769 -0.4887
  586MOL0     C78986   6.822  11.662   3.905 -0.3816  0.5734 -0.2594
  586MOL0     C78987   6.940  11.667   3.811 -1.0174 -0.0719 -0.0165
  586MOL0     C78988   6.927  11.759   3.691  0.1506 -0.1640 -1.3350
  586MOL0     C78989   7.056  11.753   3.608 -0.2728 -0.2508 -0.3737
  586MOL0     C78990   7.039  11.838   3.473  0.2495 -0.9366 -0.1225
  586MOL0     C78991   6.929  11.778   3.377  0.0656 -0.0230  0.6336
  586MOL0     N78992   6.948  11.870   3.258 -0.1915  0.1792 -0.3359
  586MOL0     C78993   6.862  11.968   3.201  0.4505 -0.2220 -0.6253
  586MOL0     C78994   6.932  12.007   3.093  0.4406 -0.1639  0.6528
  586MOL0     C78995   6.869  12.094   2.982  0.6091  0.0031 -1.2960
  586MOL0     C78996   6.922  12.239   2.993 -0.5166 -0.0035  0.3322
  586MOL0     C78997   6.857  12.326   2.878 -0.0046  0.1399 -0.0870
  586MOL0     C78998   6.932  12.454   2.859 -0.1789  0.4614 -0.6335
  586MOL0     O78999   7.068  12.424   2.810 -0.5851  0.1586  0.2456
  586MOL0     C79000   7.094  12.399   2.676  0.1918  0.2248 -0.1026
  586MOL0     C79001   7.059  12.497   2.580 -0.1324 -0.3584 -1.2400
  586MOL0     C79002   7.068  12.473   2.441 -0.1980  1.0163  0.4344
  586MOL0     C79003   7.015  12.586   2.357  0.3577  0.2148 -0.6550
  586MOL0     C79004   7.139  12.358   2.396  1.1260 -0.1225 -0.2850
  586MOL0     C79005   7.155  12.319   2.251  1.1051 -1.2929 -0.1878
  586MOL0     O79006   7.182  12.183   2.223  0.8013  0.3241  0.3778
  586MOL0     C79007   7.192  12.143   2.092  0.2312 -0.1284 -0.0359
  586MOL0     C79008   7.087  12.159   2.004  0.4061 -0.1953  0.1303
  586MOL0     C79009   7.087  12.110   1.867 -0.6053 -0.7034 -1.1252
  586MOL0     C79010   7.204  12.059   1.822 -0.6492 -0.5588  0.1631
  586MOL0     O79011   7.235  12.024   1.695 -0.1121  0.1731 -0.5523
  586MOL0     C79012   7.153  12.037   1.577 -0.7185 -0.2470 -0.7120
  586MOL0     C79013   7.241  12.029   1.455 -1.1059  0.1613 -0.5546
  586MOL0     C79014   7.163  12.062   1.327  0.3931  0.5551 -0.1543
  586MOL0     C79015   7.243  12.012   1.216  0.5826  0.0394  0.2575
  586MOL0     C79016   7.182  12.062   1.090 -0.4493  0.7031 -0.1408
  586MOL0     C79017   7.236  11.976   0.981 -0.3119  0.4718  0.4345
  586MOL0     C79018   7.215  12.049   0.851  0.7052 -0.0577 -0.0829
  586MOL0     C79019   7.077  12.043   0.807 -0.1256 -0.7779  0.3321
  586MOL0    Cl79020   7.063  12.135   0.653  0.1412  0.2983 -0.2456
  586MOL0     C79021   7.317  12.049   1.916  0.7785 -0.1380 -0.1362
  586MOL0     C79022   7.303  12.074   2.046 -0.0044  0.2136  0.5127
  586MOL0     O79023   7.167  12.416   2.169  0.2393 -0.1382 -0.8795
  586MOL0     C79024   7.198  12.270   2.498  0.2392 -0.5709 -0.2815
  586MOL0     C79025   7.172  12.293   2.637  0.1842 -0.0220  0.8931
  586MOL0     N79026   7.043  11.930   3.078 -0.3393 -0.4204 -0.5207
  586MOL0     N79027   7.059  11.858   3.181  1.1955  0.0629 -0.3643
  586MOL0     C79028   6.668  11.189   3.962  0.6197  0.3597  0.1861
  586MOL0     C79029   6.719  11.060   3.958  0.3955  0.1811 -0.2543
  586MOL0     C79030   7.019  10.710   4.006 -0.2164  0.6777 -1.1511
  586MOL0     C79031   7.114  10.635   3.934 -0.3783  0.1389 -0.0486
  586MOL0     C79032   7.131  10.497   3.976 -0.2106 -0.0407  0.3850
  586MOL0     C79033   7.044  10.436   4.068  0.6117 -0.2157 -0.0276
  586MOL0     O79034   7.047  10.301   4.109 -0.3939 -0.1029  1.0745
  586MOL0     C79035   7.163  10.227   4.053 -0.1347 -0.3682  0.3920
  586MOL0     C79036   7.137  10.152   3.923 -0.8056  0.1989 -0.4650
  586MOL0     C79037   7.016  10.062   3.927 -0.5574  0.6827  1.1400
  586MOL0     C79038   6.990  10.003   3.786 -0.4120  0.4382 -0.1804
  586MOL0     C79039   6.868   9.918   3.784  1.1709 -1.2697 -0.0105
  586MOL0     C79040   6.763   9.857   3.780 -0.8411  0.1766  0.0037
  586MOL0     C79041   6.956  10.512   4.134  0.4865 -0.9103  0.1669
  586MOL0     C79042   6.941  10.649   4.104  0.2507  0.3758  0.1807
  586MOL0     H79043   7.009  11.127   4.116  1.6685  4.8654 -2.2835
  586MOL0     H79044   6.929  11.341   4.121  3.1575 -1.0146 -2.0096
  586MOL0     H79045   6.664  11.593   4.138  0.4240  1.6137 -3.8523
  586MOL0     H79046   6.773  11.470   4.215 -1.7203 -2.1048 -0.3526
  586MOL0     H79047   6.843  11.700   4.108 -1.9122  1.6021 -2.2199
  586MOL0     H79048   6.942  11.556   4.064  0.4553  0.0627  0.7954
  586MOL0     H79049   6.759  11.593   3.849  1.6446 -1.8081  0.2654
  586MOL0     H79050   6.776  11.762   3.913  0.6590  1.0266  0.2572
  586MOL0     H79051   7.023  11.707   3.871 -0.0732 -1.5888 -0.2750
  586MOL0     H79052   6.974  11.568   3.781  0.7091  1.0691 -2.1671
  586MOL0     H79053   6.838  11.741   3.630 -0.4141  2.6557 -1.4782
  586MOL0     H79054   6.912  11.862   3.724  1.7416 -0.1408 -0.5771
  586MOL0     H79055   7.136  11.792   3.671 -2.9824  2.2468  1.7994
  586MOL0     H79056   7.093  11.651   3.591 -0.1022 -0.7193  2.4124
  586MOL0     H79057   7.023  11.945   3.485 -1.4828 -1.2654  0.8685
  586MOL0     H79058   7.136  11.817   3.428  0.3539 -2.5491  0.7733
  586MOL0     H79059   6.834  11.788   3.430  0.9195  0.2299  2.1883
  586MOL0     H79060   6.933  11.673   3.347 -1.3745  0.3018 -0.8492
  586MOL0     H79061   6.766  11.995   3.244  1.1157  0.2815  0.5620
  586MOL0     H79062   6.904  12.049   2.888 -0.1400 -4.0006  0.1502
  586MOL0     H79063   6.760  12.090   2.989  0.7233 -1.0454  0.5512
  586MOL0     H79064   7.031  12.238   2.982 -0.6128 -0.4865 -0.6315
  586MOL0     H79065   6.894  12.285   3.089  0.9382 -1.8392  1.7180
  586MOL0     H79066   6.754  12.357   2.895  0.0327 -0.5615  1.6166
  586MOL0     H79067   6.857  12.271   2.783  0.4899 -0.9581  0.5313
  586MOL0     H79068   6.936  12.514   2.950  0.2773 -0.5002 -0.0091
  586MOL0     H79069   6.881  12.512   2.781  1.6925  1.6422 -1.0319
  586MOL0     H79070   7.033  12.594   2.620 -2.2013 -0.7368 -1.5769
  586MOL0     H79071   6.992  12.674   2.418 -1.6832 -0.8146  0.1397
  586MOL0     H79072   7.089  12.620   2.284  0.7549 -1.6985 -1.2102
  586MOL0     H79073   6.929  12.553   2.297  0.0646  0.5555 -0.4295
  586MOL0     H79074   7.000  12.209   2.046 -0.9247 -0.8615 -1.7258
  586MOL0     H79075   6.994  12.110   1.811 -2.5822 -0.0919  1.9015
  586MOL0     H79076   7.092  11.946   1.579  3.0533 -2.9998  0.6634
  586MOL0     H79077   7.090  12.125   1.595 -0.6299 -0.3752  0.2956
  586MOL0     H79078   7.325  12.098   1.468 -0.2651 -0.0264 -3.9351
  586MOL0     H79079   7.289  11.931   1.454 -0.7496  0.3016 -2.4773
  586MOL0     H79080   7.142  12.169   1.319  0.1252  0.3772 -3.1674
  586MOL0     H79081   7.067  12.011   1.335  2.1941 -2.8681  2.6133
  586MOL0     H79082   7.344  12.050   1.230  1.3161 -2.4391  2.8094
  586MOL0     H79083   7.253  11.903   1.224 -1.0356 -0.0873  1.0285
  586MOL0     H79084   7.221  12.163   1.071  4.1251 -0.9259 -0.5483
  586MOL0     H79085   7.074  12.064   1.110 -0.1820 -0.8012  1.7094
  586MOL0     H79086   7.343  11.954   0.994 -0.4755 -0.5899  0.1039
  586MOL0     H79087   7.185  11.879   0.976  1.1732 -0.3523  0.5262
  586MOL0     H79088   7.273  12.004   0.769  0.5550  2.7059 -1.8326
  586MOL0     H79089   7.260  12.148   0.851  1.6120 -0.4570  0.1736
  586MOL0     H79090   7.007  12.084   0.880  0.0900 -0.2245  0.2292
  586MOL0     H79091   7.053  11.939   0.781  1.6370 -1.5499  1.5767
  586MOL0     H79092   7.401  12.003   1.865 -1.1213 -0.0446 -3.6447
  586MOL0     H79093   7.385  12.063   2.116  0.9794  1.0385 -0.4658
  586MOL0     H79094   7.268  12.190   2.475  5.3287  3.0452  0.8811
  586MOL0     H79095   7.230  12.239   2.711  0.7272 -0.6917  0.0074
  586MOL0     H79096   6.573  11.219   3.919 -0.4565  0.2916  2.3609
  586MOL0     H79097   6.668  10.978   3.909 -3.0084  3.0127 -1.8710
  586MOL0     H79098   7.181  10.688   3.868 -1.3691  0.8486 -0.4929
  586MOL0     H79099   7.223  10.455   3.935  1.1374  1.3251  1.8674
  586MOL0     H79100   7.247  10.296   4.039  1.2298 -1.4987  2.4147
  586MOL0     H79101   7.205  10.155   4.125  2.8815  2.1959  1.4518
  586MOL0     H79102   7.233  10.102   3.905 -1.2307 -1.6048  1.7834
  586MOL0     H79103   7.123  10.222   3.840  2.2826  0.3132 -1.0040
  586MOL0     H79104   6.929  10.121   3.959 -2.0339 -2.2144  2.8532
  586MOL0     H79105   7.033   9.975   3.991  0.5362  0.2573  0.2948
  586MOL0     H79106   7.075   9.941   3.756  1.0604 -0.3537  4.7116
  586MOL0     H79107   6.985  10.075   3.703 -0.7528  1.7621  0.9615
  586MOL0     H79108   6.665   9.815   3.772 -0.1884 -0.9740 -4.4570
  586MOL0     H79109   6.873  10.473   4.193 -1.4540 -2.8716 -3.4947
  586MOL0     H79110   6.859  10.704   4.150 -0.0067  0.9694 -0.9550
  587MOL0     O79111   9.811  10.159   0.158 -0.2768  0.3477 -0.4684
  587MOL0     C79112   9.882  10.101   0.091 -0.0702 -0.0206  0.2485
  587MOL0     O79113  10.020  10.109   0.096  0.1743  0.3117  0.1458
  587MOL0     C79114  10.088  10.219   0.146 -0.0874  0.4046 -1.3202
  587MOL0     C79115  10.037  10.349   0.142 -0.0851  0.3776 -0.0360
  587MOL0     C79116  10.113  10.456   0.177 -0.1548 -0.3151  0.6331
  587MOL0     C79117  10.242  10.441   0.225  0.2797  0.0039  0.1100
  587MOL0     O79118  10.317  10.550   0.248  0.0787  0.2347  0.2381
  587MOL0     C79119  10.426  10.542   0.148 -0.1608  0.6558 -0.2498
  587MOL0     C79120  10.502  10.667   0.135 -0.2776 -0.0195  0.0423
  587MOL0     C79121  10.625  10.648   0.046 -0.2816  0.0746 -0.4600
  587MOL0     C79122  10.706  10.780   0.032 -0.2597 -0.3898 -0.8302
  587MOL0     C79123  10.814  10.774  -0.075 -0.4763 -0.7242 -0.5721
  587MOL0     C79124  10.898  10.901  -0.090  0.7365  0.7168  0.2799
  587MOL0     C79125  10.996  10.902  -0.209 -0.0797 -0.4019  0.8209
  587MOL0     C79126  11.007  10.771  -0.285  1.1263 -0.0103 -0.0241
  587MOL0     N79127  11.124  10.769  -0.367  0.3678  0.0054 -0.3368
  587MOL0     C79128  11.130  10.808  -0.495 -0.6070  1.4776 -0.0752
  587MOL0     C79129  11.260  10.792  -0.539 -0.3572 -0.3753  0.3997
  587MOL0     C79130  11.295  10.805  -0.685  0.1484 -0.0263 -0.4457
  587MOL0     C79131  11.444  10.830  -0.711  0.2880 -0.8749  1.0535
  587MOL0     C79132  11.492  10.961  -0.629  1.2804  0.3970  0.4049
  587MOL0     C79133  11.614  11.025  -0.675  0.7964  0.4833  0.2139
  587MOL0     O79134  11.588  11.160  -0.722  0.2045  0.4883  0.4314
  587MOL0     C79135  11.685  11.227  -0.778  0.6099 -0.2995  0.1337
  587MOL0     C79136  11.645  11.358  -0.797 -0.4026  0.2661  0.2501
  587MOL0     C79137  11.726  11.448  -0.870 -0.0621 -1.4236  0.0688
  587MOL0     C79138  11.672  11.592  -0.893 -0.6445 -0.0674  0.2720
  587MOL0     C79139  11.851  11.404  -0.921 -0.2568  0.2144  0.5223
  587MOL0     C79140  11.938  11.488  -0.992  0.4157  0.9856  0.6682
  587MOL0     O79141  12.008  11.432  -1.094  0.6744  0.1757 -1.1689
  587MOL0     C79142  12.104  11.505  -1.157 -0.8493  0.4884 -0.2137
  587MOL0     C79143  12.234  11.484  -1.123 -0.1837  0.3659 -0.0084
  587MOL0     C79144  12.349  11.540  -1.192 -0.5168  0.0474 -1.4553
  587MOL0     C79145  12.314  11.633  -1.289 -0.9883  0.0661  0.5090
  587MOL0     O79146  12.416  11.701  -1.355  0.1683  0.4660 -0.9167
  587MOL0     C79147  12.526  11.619  -1.404  1.1526 -0.6156 -0.8846
  587MOL0     C79148  12.597  11.695  -1.519  1.0526  0.2356  0.6857
  587MOL0     C79149  12.503  11.718  -1.639  0.0952 -0.8470  0.0901
  587MOL0     C79150  12.509  11.595  -1.734  0.0273 -1.2288  1.0917
  587MOL0     C79151  12.433  11.622  -1.864  0.7535  0.5176  0.2204
  587MOL0     C79152  12.442  11.512  -1.964  0.1320  0.5915 -0.8709
  587MOL0     C79153  12.406  11.368  -1.897 -0.6642 -0.7499  0.3228
  587MOL0     C79154  12.263  11.370  -1.838 -1.0131 -0.3926  0.3459
  587MOL0    Cl79155  12.206  11.192  -1.817  0.0264 -0.0255  0.4033
  587MOL0     C79156  12.185  11.650  -1.327 -0.0798 -0.2006 -0.0472
  587MOL0     C79157  12.079  11.600  -1.257  0.3260  0.6013  0.0131
  587MOL0     O79158  11.952  11.603  -0.962  0.6918 -1.0526  0.2852
  587MOL0     C79159  11.899  11.274  -0.887 -0.1802  0.0077  0.6821
  587MOL0     C79160  11.810  11.191  -0.815  0.2854  0.6394 -0.3549
  587MOL0     N79161  11.335  10.731  -0.435 -0.1218 -0.1590  0.4701
  587MOL0     N79162  11.248  10.719  -0.336  0.2403  0.7692  0.1661
  587MOL0     C79163  10.287  10.313   0.238 -0.2697 -0.0876 -1.0037
  587MOL0     C79164  10.217  10.199   0.196  0.5238 -0.4573 -0.0369
  587MOL0     C79165   9.816  10.005  -0.001 -0.8923 -0.0402 -0.0399
  587MOL0     C79166   9.684  10.035  -0.038 -0.9252  0.0114  0.0787
  587MOL0     C79167   9.626   9.969  -0.143 -0.4492  0.2471 -0.3141
  587MOL0     C79168   9.694   9.860  -0.208  0.8083  0.5206  0.0756
  587MOL0     O79169   9.648   9.774  -0.310 -0.3401  0.6838  0.2503
  587MOL0     C79170   9.515   9.794  -0.346  0.1211  0.5785  0.6117
  587MOL0     C79171   9.479   9.660  -0.426 -0.1790 -0.1097 -0.3594
  587MOL0     C79172   9.365   9.686  -0.529  0.3775  0.2806 -0.2135
  587MOL0     C79173   9.234   9.732  -0.470  0.6889  0.3614  0.1894
  587MOL0     C79174   9.151   9.649  -0.375  0.4504 -0.3279  1.2048
  587MOL0     C79175   9.072   9.599  -0.295 -0.0326  0.2246 -0.0917
  587MOL0     C79176   9.818   9.826  -0.156 -0.8454  0.4906 -0.1356
  587MOL0     C79177   9.887   9.896  -0.053 -1.5013 -0.0504  0.3224
  587MOL0     H79178   9.934  10.354   0.110  0.0505  0.2025 -0.5002
  587MOL0     H79179  10.065  10.553   0.172  1.4182  0.6105  2.4157
  587MOL0     H79180  10.501  10.464   0.162 -1.6354 -0.8038 -0.1547
  587MOL0     H79181  10.390  10.518   0.048  2.9458  1.2629 -1.6507
  587MOL0     H79182  10.443  10.751   0.097 -1.3185 -0.7670 -0.0391
  587MOL0     H79183  10.536  10.696   0.235 -0.2627  1.1455 -0.2895
  587MOL0     H79184  10.683  10.569   0.095 -1.0765 -0.6269 -0.6150
  587MOL0     H79185  10.578  10.613  -0.046 -1.0148  2.7553 -1.1887
  587MOL0     H79186  10.634  10.862   0.022  0.9883  1.2118  2.0343
  587MOL0     H79187  10.760  10.806   0.123  2.5355 -1.8531 -1.9616
  587MOL0     H79188  10.874  10.689  -0.043 -0.2476 -0.1933  0.4181
  587MOL0     H79189  10.766  10.742  -0.169 -3.6525  2.3098 -0.2137
  587MOL0     H79190  10.829  10.985  -0.103 -0.4957 -0.5418 -2.2040
  587MOL0     H79191  10.953  10.915   0.003  1.4441  0.1808 -0.0538
  587MOL0     H79192  10.978  10.986  -0.278  4.9868  0.2837 -0.0124
  587MOL0     H79193  11.096  10.916  -0.167  0.9544 -0.0082 -1.6024
  587MOL0     H79194  10.922  10.751  -0.351  2.4417 -2.4190 -1.1378
  587MOL0     H79195  11.011  10.688  -0.214 -1.0477 -0.6941 -0.6162
  587MOL0     H79196  11.050  10.836  -0.562  0.9198 -0.8174 -3.0742
  587MOL0     H79197  11.270  10.711  -0.735 -0.2690 -1.3692  2.0950
  587MOL0     H79198  11.239  10.889  -0.725  1.0308  2.4438  2.9673
  587MOL0     H79199  11.474  10.833  -0.816  0.3253  1.3324  1.0908
  587MOL0     H79200  11.496  10.747  -0.663  3.4631  1.1839  1.4385
  587MOL0     H79201  11.490  10.924  -0.526 -2.6233 -2.0587 -0.3424
  587MOL0     H79202  11.410  11.032  -0.644 -0.5068 -1.4763  0.8501
  587MOL0     H79203  11.643  10.961  -0.759 -1.8453 -0.1160 -0.3507
  587MOL0     H79204  11.682  11.028  -0.590 -0.8232  0.2648  1.5770
  587MOL0     H79205  11.550  11.393  -0.760 -0.2667  1.2828 -0.3281
  587MOL0     H79206  11.569  11.595  -0.856 -2.0493 -2.3814 -2.9746
  587MOL0     H79207  11.750  11.655  -0.850  3.0275 -0.9173 -4.3307
  587MOL0     H79208  11.670  11.614  -1.000  0.4528  1.6108  0.5596
  587MOL0     H79209  12.248  11.413  -1.042  1.2194  1.3924  0.7022
  587MOL0     H79210  12.449  11.513  -1.159  0.7497  4.7650 -0.6495
  587MOL0     H79211  12.589  11.606  -1.315 -1.5876  0.2576  1.3072
  587MOL0     H79212  12.493  11.518  -1.429 -0.6783 -0.3101  0.1228
  587MOL0     H79213  12.621  11.798  -1.490  3.1277 -0.1334  0.4232
  587MOL0     H79214  12.698  11.662  -1.545  1.5315  2.9050 -1.3215
  587MOL0     H79215  12.530  11.810  -1.692 -5.3184  0.2079 -1.3673
  587MOL0     H79216  12.401  11.732  -1.602  1.0601  5.7780  1.4370
  587MOL0     H79217  12.613  11.575  -1.764  1.5505 -1.7449  5.8266
  587MOL0     H79218  12.476  11.501  -1.690  1.5931 -0.5318  4.0655
  587MOL0     H79219  12.487  11.705  -1.911  0.5862  0.8412  0.5943
  587MOL0     H79220  12.330  11.657  -1.853 -0.0235 -1.6937  0.4453
  587MOL0     H79221  12.355  11.509  -2.030 -1.5931 -0.9128  1.2961
  587MOL0     H79222  12.534  11.508  -2.023  0.1471  0.7388 -0.8580
  587MOL0     H79223  12.485  11.339  -1.827  1.0872  1.6531 -0.4871
  587MOL0     H79224  12.398  11.295  -1.978  2.3530 -1.9455  0.9750
  587MOL0     H79225  12.203  11.421  -1.913 -1.6363 -2.9179 -0.9855
  587MOL0     H79226  12.263  11.415  -1.738  1.3248 -2.1304  1.2210
  587MOL0     H79227  12.163  11.717  -1.410  0.1805  0.0065  0.0497
  587MOL0     H79228  11.980  11.629  -1.290  0.1932  0.4002  0.2246
  587MOL0     H79229  12.003  11.245  -0.902  0.1323  1.1304  0.6005
  587MOL0     H79230  11.826  11.085  -0.799 -2.3543  0.2598  0.2167
  587MOL0     H79231  10.383  10.305   0.288 -0.8294  0.0398  0.1214
  587MOL0     H79232  10.263  10.102   0.211  0.7786 -1.0824 -3.7891
  587MOL0     H79233   9.633  10.115   0.016 -0.2786 -0.5407  1.5606
  587MOL0     H79234   9.523   9.988  -0.173  0.4917  3.3795 -1.9563
  587MOL0     H79235   9.436   9.807  -0.272 -1.0562  1.0704 -0.6816
  587MOL0     H79236   9.499   9.884  -0.406  0.7256  0.5307  0.3696
  587MOL0     H79237   9.446   9.582  -0.357  2.6867 -1.1565 -0.0401
  587MOL0     H79238   9.558   9.618  -0.489  2.0874  1.9640  0.9339
  587MOL0     H79239   9.358   9.595  -0.590 -0.2809  0.0206  0.2304
  587MOL0     H79240   9.405   9.758  -0.600 -0.2692 -0.9064 -1.8519
  587MOL0     H79241   9.163   9.754  -0.549  0.8653 -1.1308 -0.4085
  587MOL0     H79242   9.247   9.823  -0.410 -1.8945  1.1245 -0.3106
  587MOL0     H79243   9.005   9.545  -0.231 -2.7648  1.5134 -1.6760
  587MOL0     H79244   9.859   9.737  -0.202 -1.8365  0.6316 -1.3123
  587MOL0     H79245   9.987   9.878  -0.016 -1.3002  0.0210 -0.1806
  588MOL0     O79246  10.636   2.245   4.664  0.1371  0.5146  0.2893
  588MOL0     C79247  10.735   2.245   4.741  0.3889 -0.8187 -0.6473
  588MOL0     O79248  10.871   2.264   4.705 -0.0148 -0.7077 -0.1024
  588MOL0     C79249  10.910   2.305   4.575  0.6209 -0.8560 -0.5995
  588MOL0     C79250  11.038   2.270   4.539  0.0287 -0.5193  0.3607
  588MOL0     C79251  11.083   2.317   4.415  0.2528  0.1368  0.5512
  588MOL0     C79252  11.010   2.400   4.332 -0.1096 -0.6332  0.3758
  588MOL0     O79253  11.056   2.440   4.205 -0.3228  0.2878 -0.5457
  588MOL0     C79254  10.972   2.485   4.101  0.4329 -0.5138  0.3734
  588MOL0     C79255  11.053   2.558   3.997 -0.7114 -0.0679  0.1842
  588MOL0     C79256  11.127   2.467   3.888  0.0964 -0.3037 -0.4919
  588MOL0     C79257  11.032   2.403   3.784  0.6812  1.1609 -0.7064
  588MOL0     C79258  11.107   2.347   3.669 -0.7489 -0.4698 -0.9546
  588MOL0     C79259  11.009   2.294   3.563  0.2448  0.3904  0.0369
  588MOL0     C79260  10.973   2.146   3.590  0.9172  0.0479  0.4404
  588MOL0     C79261  10.922   2.069   3.472  0.0099  0.7310  0.1837
  588MOL0     N79262  10.842   1.956   3.512 -0.3333  0.2113 -1.1042
  588MOL0     C79263  10.882   1.839   3.573 -0.2964 -0.5777 -0.1592
  588MOL0     C79264  10.770   1.768   3.595  0.4575  0.3213  0.2361
  588MOL0     C79265  10.787   1.637   3.654 -0.7408 -0.3306 -0.0633
  588MOL0     C79266  10.676   1.545   3.606 -0.5624 -0.7895 -0.7265
  588MOL0     C79267  10.567   1.547   3.717 -1.1596 -0.4204  0.3789
  588MOL0     C79268  10.444   1.470   3.668 -0.6274 -0.5383 -0.0318
  588MOL0     O79269  10.333   1.501   3.747  0.6076  0.5007  0.5660
  588MOL0     C79270  10.225   1.410   3.755  0.6972  0.5271  0.1349
  588MOL0     C79271  10.203   1.313   3.651  0.2505  0.0991  0.0264
  588MOL0     C79272  10.106   1.222   3.648  0.3775  0.7781  0.1188
  588MOL0     C79273  10.096   1.122   3.532 -0.9946 -0.1070  0.2635
  588MOL0     C79274  10.027   1.206   3.764  0.1936 -0.0662  0.2662
  588MOL0     C79275   9.909   1.113   3.774 -0.0366 -0.9208 -0.3109
  588MOL0     O79276   9.865   1.073   3.895  0.8644 -0.2284  0.5793
  588MOL0     C79277   9.749   0.992   3.895 -0.7606 -0.5662  0.2080
  588MOL0     C79278   9.618   1.052   3.896 -0.4814  0.4903 -0.4017
  588MOL0     C79279   9.509   0.968   3.936 -0.0453  0.2594  0.6912
  588MOL0     C79280   9.524   0.834   3.968 -0.4358 -0.1677 -0.1544
  588MOL0     O79281   9.422   0.765   4.017 -0.0683 -0.1305  0.5189
  588MOL0     C79282   9.426   0.748   4.161  0.3438  0.3421 -0.2642
  588MOL0     C79283   9.276   0.736   4.220 -0.0366  0.1386 -0.1219
  588MOL0     C79284   9.194   0.852   4.185  0.1062 -0.8137  0.2866
  588MOL0     C79285   9.039   0.824   4.191  0.6437  0.0653 -0.2038
  588MOL0     C79286   8.952   0.952   4.191 -0.8335  0.2915 -0.3500
  588MOL0     C79287   8.801   0.920   4.139  0.3487  1.0382 -0.0671
  588MOL0     C79288   8.700   1.034   4.167 -0.8573  0.0481 -0.0227
  588MOL0     C79289   8.592   1.031   4.061 -0.4315 -0.3629 -1.1083
  588MOL0    Cl79290   8.471   1.158   4.095  0.0017  0.3671 -0.0447
  588MOL0     C79291   9.654   0.785   3.974  0.4124 -0.6368  0.6816
  588MOL0     C79292   9.767   0.864   3.950 -1.0578 -0.7918 -0.1863
  588MOL0     O79293   9.851   1.090   3.669  0.5979 -0.1394  0.0290
  588MOL0     C79294  10.048   1.291   3.877  1.3905  0.6710 -0.1879
  588MOL0     C79295  10.143   1.394   3.870 -0.3228 -0.3783  0.1404
  588MOL0     N79296  10.665   1.847   3.569  0.0979  0.1121 -0.5993
  588MOL0     N79297  10.703   1.962   3.525 -0.0816 -0.3303  0.3295
  588MOL0     C79298  10.883   2.435   4.369 -0.4204  0.9948  0.1395
  588MOL0     C79299  10.837   2.392   4.490 -0.9608 -0.8457  0.0423
  588MOL0     C79300  10.701   2.245   4.892 -0.0340  0.4056 -0.3667
  588MOL0     C79301  10.578   2.181   4.931  0.3078 -0.5845 -0.4795
  588MOL0     C79302  10.540   2.186   5.070  0.0029 -0.5898 -0.4577
  588MOL0     C79303  10.606   2.263   5.168 -0.7291 -0.1873 -0.2742
  588MOL0     O79304  10.572   2.262   5.300 -0.4014 -0.2525 -0.0667
  588MOL0     C79305  10.483   2.162   5.360 -0.8646 -0.7246 -0.0152
  588MOL0     C79306  10.343   2.223   5.370  0.3934 -0.0946 -0.0315
  588MOL0     C79307  10.309   2.280   5.506 -0.5009 -0.7813  0.3546
  588MOL0     C79308  10.277   2.183   5.618  0.4758 -1.1466 -0.0764
  588MOL0     C79309  10.383   2.107   5.677  0.2130 -0.0249 -0.6844
  588MOL0     C79310  10.476   2.045   5.730 -1.0634  0.2492  0.5507
  588MOL0     C79311  10.740   2.311   5.126 -0.3256 -0.3164  0.3710
  588MOL0     C79312  10.777   2.312   4.990  0.0405  0.3250  0.4096
  588MOL0     H79313  11.104   2.208   4.599 -0.1079 -0.7523  0.2681
  588MOL0     H79314  11.175   2.269   4.382  0.0792 -2.0932  3.0507
  588MOL0     H79315  10.912   2.410   4.049  0.7228 -0.1906 -0.4450
  588MOL0     H79316  10.896   2.553   4.141 -1.2451 -2.0073 -0.1790
  588MOL0     H79317  10.990   2.631   3.945 -1.8006 -1.4213 -0.4737
  588MOL0     H79318  11.134   2.614   4.044  0.4834  1.2347 -3.1487
  588MOL0     H79319  11.194   2.535   3.836 -0.9733  0.8321 -0.4282
  588MOL0     H79320  11.188   2.384   3.925 -0.2844 -0.4674 -0.2272
  588MOL0     H79321  10.962   2.331   3.828  0.4980 -0.0534 -2.8516
  588MOL0     H79322  10.977   2.490   3.747  0.3078  0.8663 -0.8524
  588MOL0     H79323  11.176   2.423   3.629  0.7467  1.0556  3.8632
  588MOL0     H79324  11.176   2.270   3.706 -3.3186 -2.8693 -0.8596
  588MOL0     H79325  10.916   2.351   3.570 -2.0638 -3.2002  1.9299
  588MOL0     H79326  11.060   2.289   3.466 -1.5570  0.1330 -0.9445
  588MOL0     H79327  11.053   2.086   3.633  0.8980 -0.2629  0.0492
  588MOL0     H79328  10.886   2.153   3.655 -1.4959  0.9355 -2.6347
  588MOL0     H79329  11.014   2.040   3.421 -0.8273 -0.5932 -0.6168
  588MOL0     H79330  10.852   2.128   3.413  0.6333  0.5794 -0.7164
  588MOL0     H79331  10.983   1.802   3.589  0.5346  0.4677 -2.5179
  588MOL0     H79332  10.884   1.597   3.622 -1.3089  0.2581 -2.7324
  588MOL0     H79333  10.799   1.634   3.763  5.4331 -2.1371 -0.3554
  588MOL0     H79334  10.712   1.443   3.590  0.9672 -0.4883  0.4877
  588MOL0     H79335  10.624   1.581   3.516  0.4654  2.3445 -0.1904
  588MOL0     H79336  10.535   1.650   3.732  0.0617 -0.3132  2.8272
  588MOL0     H79337  10.611   1.502   3.807  3.1358 -3.5734 -2.8376
  588MOL0     H79338  10.462   1.363   3.681  2.8154  0.2041  3.0934
  588MOL0     H79339  10.425   1.491   3.562 -2.5806 -3.3461 -0.3361
  588MOL0     H79340  10.263   1.331   3.563 -1.1561 -0.5564 -1.1219
  588MOL0     H79341  10.113   1.019   3.564 -0.5000 -0.1011  0.0437
  588MOL0     H79342   9.996   1.123   3.488 -0.8428  2.4926 -0.1807
  588MOL0     H79343  10.164   1.151   3.451 -2.2406  2.0608 -0.0854
  588MOL0     H79344   9.602   1.157   3.874 -2.1648  0.3465  0.0290
  588MOL0     H79345   9.410   1.012   3.950 -0.6105 -1.6054  3.4374
  588MOL0     H79346   9.472   0.650   4.179 -0.3964 -0.1753 -1.0968
  588MOL0     H79347   9.480   0.836   4.196  0.1396 -0.1764  1.4645
  588MOL0     H79348   9.237   0.646   4.171 -0.8467  0.4992 -0.1525
  588MOL0     H79349   9.276   0.725   4.329 -0.9674 -0.0793 -0.1377
  588MOL0     H79350   9.194   0.880   4.080 -2.9307  0.4232  0.4884
  588MOL0     H79351   9.224   0.943   4.239  2.4652  0.5106 -2.9817
  588MOL0     H79352   9.000   0.751   4.118 -2.2386 -0.2687  1.5007
  588MOL0     H79353   9.014   0.768   4.281 -2.7189 -1.3711 -1.8136
  588MOL0     H79354   8.982   1.031   4.121 -0.4383  1.5410  1.1715
  588MOL0     H79355   8.945   0.989   4.294 -1.8169 -0.4580 -0.1380
  588MOL0     H79356   8.810   0.884   4.036 -0.3914  1.3011 -0.2269
  588MOL0     H79357   8.771   0.829   4.191  2.5355  0.4452  0.2722
  588MOL0     H79358   8.747   1.133   4.172  1.7738 -1.0053 -1.8419
  588MOL0     H79359   8.650   1.031   4.265 -1.6516  1.8163 -0.3175
  588MOL0     H79360   8.554   0.931   4.040  2.3804 -1.0929 -3.2002
  588MOL0     H79361   8.651   1.065   3.975  0.8719  1.6002  0.4516
  588MOL0     H79362   9.663   0.687   4.018  0.8877 -0.0249  2.0134
  588MOL0     H79363   9.867   0.826   3.967  0.4786  2.3254 -1.4107
  588MOL0     H79364   9.980   1.265   3.958 -1.1791 -1.4562 -2.8432
  588MOL0     H79365  10.156   1.472   3.944  1.6392 -1.0739  0.5814
  588MOL0     H79366  10.812   2.483   4.302 -1.7920  2.2744  2.3554
  588MOL0     H79367  10.732   2.411   4.507 -1.6424 -1.8981 -2.5729
  588MOL0     H79368  10.522   2.128   4.855 -0.9098  1.2982 -0.9758
  588MOL0     H79369  10.461   2.114   5.090  0.9652 -1.7581 -0.7842
  588MOL0     H79370  10.475   2.076   5.293  0.5508 -0.2188 -0.8715
  588MOL0     H79371  10.525   2.139   5.459 -1.9940 -0.0573  0.6325
  588MOL0     H79372  10.266   2.153   5.337 -2.2091  1.9267  1.3877
  588MOL0     H79373  10.326   2.301   5.295  0.9741  0.1622  0.0971
  588MOL0     H79374  10.218   2.338   5.490  0.0405 -0.2382 -0.9244
  588MOL0     H79375  10.388   2.350   5.536 -1.2787 -0.6441  2.1916
  588MOL0     H79376  10.213   2.117   5.559  1.2166 -0.3427 -1.8302
  588MOL0     H79377  10.209   2.221   5.695 -0.7194 -0.5201 -1.4051
  588MOL0     H79378  10.557   2.008   5.790  1.4827  2.9883 -0.9539
  588MOL0     H79379  10.798   2.373   5.193 -3.3212  2.1261  0.9145
  588MOL0     H79380  10.868   2.364   4.961  2.5251 -3.3217  0.9918
  589MOL0     O79381   3.155   4.009   5.612  0.1440  0.4229 -0.8275
  589MOL0     C79382   3.227   4.079   5.683  1.1063  0.0676  0.5507
  589MOL0     O79383   3.325   4.163   5.628  0.0591  0.3875 -0.0352
  589MOL0     C79384   3.374   4.153   5.501 -0.0545 -0.0575  0.6001
  589MOL0     C79385   3.510   4.185   5.488 -0.6503 -0.0763  0.0261
  589MOL0     C79386   3.575   4.192   5.364  0.1554  0.7037  0.9232
  589MOL0     C79387   3.497   4.170   5.247 -0.4075 -0.0925 -0.5821
  589MOL0     O79388   3.555   4.187   5.124  0.2736 -0.2380 -0.3880
  589MOL0     C79389   3.531   4.311   5.065  0.4782 -0.7925 -0.5614
  589MOL0     C79390   3.411   4.317   4.968  0.5142  0.2891 -0.3399
  589MOL0     C79391   3.392   4.205   4.881 -0.5166  0.3487 -0.0397
  589MOL0     C79392   3.271   4.210   4.785  0.3025  0.3236  0.0729
  589MOL0     C79393   3.266   4.098   4.690 -0.5635  0.6085  0.7714
  589MOL0     C79394   3.399   4.060   4.631 -0.5809  1.2273 -0.2039
  589MOL0     C79395   3.386   3.964   4.506  0.3616 -0.1056 -0.6516
  589MOL0     C79396   3.518   3.921   4.443 -0.4875 -0.7138  0.3612
  589MOL0     N79397   3.556   4.017   4.335 -0.3303 -0.6348  0.4539
  589MOL0     C79398   3.589   3.986   4.210  0.0269  0.3472 -0.1199
  589MOL0     C79399   3.592   4.098   4.131  0.7760 -0.3007 -0.3108
  589MOL0     C79400   3.616   4.118   3.977 -0.9320 -0.7949 -0.0517
  589MOL0     C79401   3.765   4.126   3.958  0.8992  0.2826 -0.7003
  589MOL0     C79402   3.796   4.103   3.807  0.2753 -0.1243 -0.7268
  589MOL0     C79403   3.723   3.981   3.759 -0.3673  0.1914  0.4439
  589MOL0     O79404   3.722   3.864   3.831 -0.7046  0.2798 -0.0861
  589MOL0     C79405   3.671   3.749   3.770  0.1213 -0.0336  0.8704
  589MOL0     C79406   3.576   3.738   3.666 -0.8114 -0.2933 -0.7304
  589MOL0     C79407   3.540   3.616   3.630 -0.5319  0.8446  0.9403
  589MOL0     C79408   3.447   3.613   3.515  0.0408 -0.7139  0.7285
  589MOL0     C79409   3.592   3.493   3.693  0.3516  0.7290 -0.5328
  589MOL0     C79410   3.550   3.354   3.650 -0.5388  0.7121  0.4883
  589MOL0     O79411   3.554   3.255   3.737  1.1687  0.0436 -0.8182
  589MOL0     C79412   3.498   3.128   3.713  0.6084 -0.8118  0.2414
  589MOL0     C79413   3.572   3.036   3.623 -0.0600  0.5039 -1.0697
  589MOL0     C79414   3.524   2.902   3.612 -0.7713  0.2704 -0.5584
  589MOL0     C79415   3.417   2.861   3.687  1.2675  0.6257  0.5047
  589MOL0     O79416   3.369   2.729   3.686  1.0583  0.5038  0.0447
  589MOL0     C79417   3.432   2.626   3.611  1.2214 -0.7508 -0.1040
  589MOL0     C79418   3.370   2.591   3.475 -1.1474 -0.7997 -0.1774
  589MOL0     C79419   3.216   2.547   3.498 -0.5956  0.2589 -0.0934
  589MOL0     C79420   3.195   2.406   3.538  0.7353 -0.7937  0.8549
  589MOL0     C79421   3.047   2.363   3.530 -0.5477  0.8452 -0.2570
  589MOL0     C79422   3.023   2.224   3.522  0.1031  0.4553  0.8810
  589MOL0     C79423   2.881   2.179   3.565  0.4552  0.9382 -0.1311
  589MOL0     C79424   2.851   2.040   3.515  0.1278 -0.4963 -0.7027
  589MOL0    Cl79425   2.680   2.015   3.548 -0.3514  0.3144 -0.1113
  589MOL0     C79426   3.351   2.953   3.771 -0.6120  0.7115 -0.5918
  589MOL0     C79427   3.395   3.080   3.784  1.0651  0.3716 -0.3044
  589MOL0     O79428   3.510   3.336   3.534 -0.4742 -0.1679  0.7140
  589MOL0     C79429   3.686   3.503   3.789 -0.7733  0.6592  0.5861
  589MOL0     C79430   3.728   3.631   3.829  1.2525  0.1945 -0.7742
  589MOL0     N79431   3.559   4.206   4.218 -0.0540 -0.4591 -0.5470
  589MOL0     N79432   3.542   4.157   4.335  0.1359  0.0043 -0.1814
  589MOL0     C79433   3.362   4.148   5.257  0.3754  0.5527  0.3932
  589MOL0     C79434   3.304   4.131   5.380  0.9163 -0.9883 -0.1148
  589MOL0     C79435   3.200   4.076   5.829 -0.5582 -0.6169  0.3913
  589MOL0     C79436   3.068   4.064   5.874  0.1842  0.2851  0.5474
  589MOL0     C79437   3.034   4.054   6.010  0.4574  0.0582  0.4599
  589MOL0     C79438   3.139   4.068   6.100 -0.0083  0.0945 -0.1304
  589MOL0     O79439   3.115   4.043   6.232 -0.2799  0.4222  0.2060
  589MOL0     C79440   3.005   4.091   6.300  0.2263  0.2145 -0.1661
  589MOL0     C79441   3.047   4.155   6.434 -0.0898 -0.2591  0.0396
  589MOL0     C79442   3.135   4.273   6.414 -0.3656 -0.0613  0.9931
  589MOL0     C79443   3.071   4.396   6.345  0.0603  0.2381  0.5355
  589MOL0     C79444   3.099   4.394   6.203 -0.3320  0.4335  0.0434
  589MOL0     C79445   3.112   4.404   6.087 -0.5095  0.1312  0.9657
  589MOL0     C79446   3.272   4.083   6.061 -0.2133  0.0536  0.0791
  589MOL0     C79447   3.297   4.087   5.923 -0.6926  0.0175  0.1843
  589MOL0     H79448   3.570   4.201   5.577  1.7617 -0.8928 -1.3703
  589MOL0     H79449   3.683   4.199   5.358  0.0850  3.7587  1.5572
  589MOL0     H79450   3.531   4.394   5.136  0.3320 -2.4013  1.4089
  589MOL0     H79451   3.624   4.324   5.009  1.6154 -0.8626  1.2237
  589MOL0     H79452   3.318   4.340   5.022  0.5517  0.1863 -0.2339
  589MOL0     H79453   3.423   4.405   4.903  1.3955 -0.1699 -0.8049
  589MOL0     H79454   3.481   4.201   4.818  0.6536 -0.6651  1.6122
  589MOL0     H79455   3.374   4.111   4.935 -1.2864  0.7496  0.4267
  589MOL0     H79456   3.184   4.201   4.851 -0.0670 -1.0974 -0.5695
  589MOL0     H79457   3.269   4.304   4.730 -2.1297  0.4756  0.3295
  589MOL0     H79458   3.213   4.018   4.743 -2.0424  2.1360  1.7139
  589MOL0     H79459   3.206   4.130   4.605 -1.3938 -1.0894  0.6627
  589MOL0     H79460   3.449   4.152   4.598  3.4152 -0.6204  0.0617
  589MOL0     H79461   3.470   4.006   4.695  0.8447  2.8170 -0.3840
  589MOL0     H79462   3.340   3.872   4.544  0.0871 -0.2019 -1.2123
  589MOL0     H79463   3.314   4.008   4.437  1.5711 -1.2462 -2.7096
  589MOL0     H79464   3.524   3.819   4.404  1.2351 -1.8496  3.2864
  589MOL0     H79465   3.586   3.917   4.529 -0.5964 -0.8983  0.4377
  589MOL0     H79466   3.607   3.887   4.170  0.0139  0.5785 -0.7029
  589MOL0     H79467   3.551   4.048   3.924 -3.7208  1.0761  0.6553
  589MOL0     H79468   3.573   4.211   3.938  0.9768  0.0332 -0.2680
  589MOL0     H79469   3.816   4.047   4.014  1.3124 -1.4425 -3.3316
  589MOL0     H79470   3.797   4.225   3.992 -0.4932  1.1472 -1.7919
  589MOL0     H79471   3.900   4.099   3.775  0.4622  2.1650 -0.5819
  589MOL0     H79472   3.767   4.195   3.755 -0.1168  4.5228  6.2782
  589MOL0     H79473   3.778   3.959   3.668 -2.0100  4.2325 -1.8059
  589MOL0     H79474   3.619   4.010   3.741 -1.2613 -1.6266  2.2260
  589MOL0     H79475   3.547   3.831   3.619  0.0333  1.0411  1.2437
  589MOL0     H79476   3.500   3.620   3.420  1.7252  1.4890  1.7346
  589MOL0     H79477   3.368   3.537   3.519 -0.6456 -0.0003  0.7617
  589MOL0     H79478   3.387   3.704   3.513 -0.6657 -1.1854  0.0953
  589MOL0     H79479   3.664   3.061   3.572 -0.3996  3.7272 -0.2801
  589MOL0     H79480   3.575   2.828   3.552 -0.0382 -1.1733  1.7211
  589MOL0     H79481   3.541   2.632   3.603  1.3664 -3.4776 -1.4472
  589MOL0     H79482   3.412   2.543   3.680 -0.6051  0.8436  1.4043
  589MOL0     H79483   3.371   2.678   3.409 -2.8878 -0.5392  0.1098
  589MOL0     H79484   3.425   2.509   3.427  2.4149  0.7253  0.9331
  589MOL0     H79485   3.166   2.548   3.400  0.2706  1.2934 -0.5429
  589MOL0     H79486   3.165   2.627   3.552  0.5155  2.4911 -2.1452
  589MOL0     H79487   3.250   2.340   3.470  0.8435  1.1485 -1.0675
  589MOL0     H79488   3.232   2.395   3.640  2.2597  4.7997  1.2689
  589MOL0     H79489   3.002   2.409   3.442 -0.0735 -0.9126 -1.4941
  589MOL0     H79490   2.996   2.395   3.621 -1.1727 -1.5482  0.3114
  589MOL0     H79491   3.054   2.186   3.425 -0.0933 -1.1163  1.4107
  589MOL0     H79492   3.099   2.174   3.583  0.6945  2.4493  1.8800
  589MOL0     H79493   2.792   2.236   3.539 -2.2560 -1.8089  2.2337
  589MOL0     H79494   2.880   2.170   3.674  0.1860 -1.1109 -0.2503
  589MOL0     H79495   2.912   1.966   3.569 -4.9534 -4.2167  0.7536
  589MOL0     H79496   2.880   2.022   3.411 -1.6167  1.3057 -1.5630
  589MOL0     H79497   3.275   2.905   3.832 -0.0856 -0.1759 -0.6180
  589MOL0     H79498   3.332   3.145   3.844  1.7426  0.6948  0.0736
  589MOL0     H79499   3.726   3.420   3.845 -3.5619 -0.4428  1.1384
  589MOL0     H79500   3.807   3.639   3.903 -0.0170 -1.2442  0.8359
  589MOL0     H79501   3.297   4.140   5.170 -1.1382  0.5903  1.4866
  589MOL0     H79502   3.198   4.104   5.383  0.6585  0.0332  0.2400
  589MOL0     H79503   2.982   4.057   5.808 -0.6254  1.2250  1.4459
  589MOL0     H79504   2.936   4.037   6.054  1.4019 -0.1882  2.5682
  589MOL0     H79505   2.960   4.166   6.234  2.0641  0.2884 -1.4302
  589MOL0     H79506   2.932   4.013   6.324 -1.3507  0.4396 -3.6933
  589MOL0     H79507   3.102   4.078   6.489 -2.1358 -1.2404  0.8482
  589MOL0     H79508   2.957   4.194   6.482  0.6006  0.1551  1.0081
  589MOL0     H79509   3.225   4.237   6.363 -0.1205  0.4774  1.0396
  589MOL0     H79510   3.162   4.309   6.514  1.5359  4.5270 -0.8597
  589MOL0     H79511   3.128   4.484   6.379  0.1437  0.1394  0.6519
  589MOL0     H79512   2.968   4.410   6.377 -0.0402  0.2431  0.2126
  589MOL0     H79513   3.121   4.414   5.980  2.0226  1.7299  1.2424
  589MOL0     H79514   3.348   4.103   6.135  0.0980  1.5854 -0.6174
  589MOL0     H79515   3.397   4.115   5.889 -0.5528  2.3490  2.2087
  590MOL0     O79516   7.503   9.357   1.291 -0.4533 -0.3431 -0.6928
  590MOL0     C79517   7.579   9.425   1.234  1.0318  0.0250  0.3312
  590MOL0     O79518   7.703   9.465   1.279  0.1140  0.1039  1.0874
  590MOL0     C79519   7.761   9.440   1.402 -0.0541  0.3855  0.1547
  590MOL0     C79520   7.905   9.427   1.397  0.6127 -0.3793 -0.4349
  590MOL0     C79521   7.977   9.400   1.512  0.1766 -0.8804 -0.8069
  590MOL0     C79522   7.912   9.395   1.638  0.3646  0.8603 -0.0013
  590MOL0     O79523   7.996   9.376   1.748 -0.2005 -0.3387  0.0090
  590MOL0     C79524   8.023   9.492   1.824  0.3127  0.6437  0.2132
  590MOL0     C79525   8.119   9.485   1.949  1.0758 -0.3231  0.3481
  590MOL0     C79526   8.025   9.436   2.060  0.9896  0.5224  0.0257
  590MOL0     C79527   7.972   9.285   2.039  0.2387 -0.1278  0.0330
  590MOL0     C79528   7.925   9.220   2.167  1.1179 -0.8744 -0.4528
  590MOL0     C79529   7.898   9.073   2.141 -0.9967 -0.4138  0.2968
  590MOL0     C79530   7.844   9.002   2.267  0.1304  1.5991  0.2482
  590MOL0     C79531   7.917   8.871   2.298 -0.6800 -0.0747  0.0324
  590MOL0     N79532   7.841   8.779   2.386 -0.5670 -0.7239  0.2602
  590MOL0     C79533   7.746   8.684   2.353 -0.2984 -0.6357  0.2483
  590MOL0     C79534   7.695   8.642   2.474 -0.0365 -1.2356 -0.3716
  590MOL0     C79535   7.586   8.548   2.505  0.3620 -0.1224 -0.0782
  590MOL0     C79536   7.626   8.401   2.485  0.2596  0.1413 -0.2610
  590MOL0     C79537   7.527   8.306   2.559  0.7943 -0.5973 -0.2877
  590MOL0     C79538   7.417   8.255   2.458 -0.0861 -0.4634 -0.1647
  590MOL0     O79539   7.469   8.134   2.398  0.4123 -0.2448 -0.4617
  590MOL0     C79540   7.417   8.081   2.291  0.1674  0.7864  0.3214
  590MOL0     C79541   7.335   8.136   2.202  1.1078 -1.0378 -1.1198
  590MOL0     C79542   7.260   8.072   2.106 -0.5718 -0.5192  0.1295
  590MOL0     C79543   7.148   8.142   2.032  0.0994 -0.3131 -0.1733
  590MOL0     C79544   7.298   7.936   2.086  1.8483  0.2148 -0.3566
  590MOL0     C79545   7.238   7.849   1.977  0.4744 -0.5945  0.7610
  590MOL0     O79546   7.244   7.715   1.989 -0.2505 -0.7918  0.2177
  590MOL0     C79547   7.203   7.629   1.888 -0.0165 -0.7312 -0.1289
  590MOL0     C79548   7.228   7.647   1.752 -0.2597  0.2460 -0.1231
  590MOL0     C79549   7.180   7.549   1.661  0.4573  0.4259 -0.3509
  590MOL0     C79550   7.094   7.442   1.696 -0.1440 -0.1641 -1.0687
  590MOL0     O79551   7.053   7.344   1.606  0.6891  0.2503 -0.4873
  590MOL0     C79552   6.914   7.346   1.562 -0.0726 -0.1416  0.7829
  590MOL0     C79553   6.822   7.273   1.651 -0.1477  0.4523  0.0994
  590MOL0     C79554   6.747   7.359   1.756  0.2142  0.5742  0.5006
  590MOL0     C79555   6.721   7.281   1.881  0.1182 -0.1825 -0.0045
  590MOL0     C79556   6.666   7.376   1.989 -0.3375 -0.1538  0.7207
  590MOL0     C79557   6.644   7.301   2.123 -0.1841 -0.2343  0.0272
  590MOL0     C79558   6.510   7.220   2.139  0.0772 -0.1913  1.1110
  590MOL0     C79559   6.426   7.280   2.250 -0.1337 -0.2002  0.6241
  590MOL0    Cl79560   6.309   7.156   2.324  0.0080 -0.1503 -0.4929
  590MOL0     C79561   7.075   7.423   1.834  0.3986 -0.4024  0.1350
  590MOL0     C79562   7.132   7.514   1.925 -0.6164  1.8214 -1.2160
  590MOL0     O79563   7.194   7.903   1.876  0.0435 -0.5836 -0.4481
  590MOL0     C79564   7.386   7.875   2.174 -0.2358 -0.0573  0.2460
  590MOL0     C79565   7.452   7.950   2.269 -0.1037  0.5533  0.1890
  590MOL0     N79566   7.774   8.702   2.566 -0.3594 -0.9034 -0.7807
  590MOL0     N79567   7.854   8.788   2.521 -0.1222 -0.3084 -0.4282
  590MOL0     C79568   7.776   9.415   1.646  0.0539  0.4541  0.2540
  590MOL0     C79569   7.694   9.438   1.530 -0.2610  0.1561 -0.4437
  590MOL0     C79570   7.538   9.458   1.087 -0.5994 -0.8709  0.0821
  590MOL0     C79571   7.406   9.459   1.042 -0.3846 -0.4799 -1.4334
  590MOL0     C79572   7.367   9.479   0.913 -0.0901 -0.8079  0.5687
  590MOL0     C79573   7.469   9.498   0.819 -0.1572  1.6327  0.4777
  590MOL0     O79574   7.428   9.527   0.698 -0.6914  0.2555  0.2259
  590MOL0     C79575   7.396   9.668   0.663 -0.5014 -0.1137  0.1021
  590MOL0     C79576   7.256   9.682   0.684  0.9577 -0.5207 -0.0884
  590MOL0     C79577   7.164   9.572   0.619 -0.1230 -0.1940 -0.2006
  590MOL0     C79578   7.019   9.614   0.623  0.0682  0.5535  0.0685
  590MOL0     C79579   6.982   9.676   0.749  0.6205  0.6286  0.1946
  590MOL0     C79580   6.943   9.736   0.843 -0.2093 -0.4971  0.9616
  590MOL0     C79581   7.603   9.514   0.863 -0.3196 -0.5521  0.5393
  590MOL0     C79582   7.643   9.490   0.993 -0.3294  0.2058  0.0305
  590MOL0     H79583   7.957   9.437   1.302  2.3499 -0.2848  0.4825
  590MOL0     H79584   8.084   9.385   1.523  1.0159  3.4827 -1.3519
  590MOL0     H79585   8.067   9.552   1.743 -2.5019 -1.2911 -3.0557
  590MOL0     H79586   7.935   9.548   1.853 -2.1703 -1.2429 -2.9331
  590MOL0     H79587   8.213   9.432   1.928  1.8066  1.8574 -2.5628
  590MOL0     H79588   8.146   9.587   1.975  2.4817  0.7577 -4.2950
  590MOL0     H79589   8.092   9.430   2.147  0.7420  2.7872  0.4349
  590MOL0     H79590   7.950   9.511   2.086  0.7251  0.2217  0.1394
  590MOL0     H79591   7.890   9.278   1.968  0.3786 -1.5132 -0.0183
  590MOL0     H79592   8.050   9.220   1.998  2.0488  0.1174  2.7817
  590MOL0     H79593   7.999   9.234   2.246 -0.1611 -2.5269  1.1322
  590MOL0     H79594   7.832   9.265   2.202  1.5584 -1.3038  1.4443
  590MOL0     H79595   7.827   9.062   2.058  0.1185  0.8613 -0.8832
  590MOL0     H79596   7.993   9.023   2.120  0.2567  1.7469  0.5573
  590MOL0     H79597   7.844   9.061   2.360  0.6892 -0.6759  1.7893
  590MOL0     H79598   7.741   8.977   2.244  1.3475 -1.4697 -2.7426
  590MOL0     H79599   8.001   8.912   2.355  0.8532 -1.7630 -0.9040
  590MOL0     H79600   7.945   8.821   2.204  0.1303  1.4721 -0.6053
  590MOL0     H79601   7.707   8.658   2.255 -1.7202 -1.2197  0.9320
  590MOL0     H79602   7.559   8.563   2.610 -0.3051  0.3255 -0.3071
  590MOL0     H79603   7.503   8.576   2.439  1.3257 -1.1815 -1.8090
  590MOL0     H79604   7.723   8.390   2.535 -0.1460 -0.5293  0.3823
  590MOL0     H79605   7.633   8.378   2.378  1.8019 -0.4586 -0.0512
  590MOL0     H79606   7.474   8.361   2.638 -1.7829 -1.0994 -1.5613
  590MOL0     H79607   7.585   8.225   2.603  1.1514 -0.3272 -0.2517
  590MOL0     H79608   7.394   8.332   2.384  1.7749  2.3761  1.9660
  590MOL0     H79609   7.331   8.228   2.519 -1.5600  2.5354 -0.7533
  590MOL0     H79610   7.300   8.237   2.222  0.3947 -1.4908  0.0331
  590MOL0     H79611   7.137   8.247   2.060  1.2373 -0.0671 -0.6247
  590MOL0     H79612   7.163   8.130   1.924 -1.1657  0.1332 -0.4173
  590MOL0     H79613   7.046   8.109   2.058 -0.1371  0.0598 -0.6044
  590MOL0     H79614   7.291   7.726   1.712  1.3224 -1.1797 -0.5452
  590MOL0     H79615   7.219   7.536   1.561  0.3726 -2.1511 -0.1157
  590MOL0     H79616   6.870   7.442   1.534 -2.9233 -1.2909  0.9265
  590MOL0     H79617   6.918   7.284   1.472  1.5898  0.0040  0.7380
  590MOL0     H79618   6.735   7.241   1.594 -2.1128 -0.9117  3.5178
  590MOL0     H79619   6.867   7.179   1.684  1.3130  1.1108  0.0752
  590MOL0     H79620   6.648   7.385   1.716  0.1536 -0.1177  0.1850
  590MOL0     H79621   6.800   7.454   1.767  1.7000 -0.0675 -0.7651
  590MOL0     H79622   6.645   7.205   1.864  1.3373 -1.3474 -0.4626
  590MOL0     H79623   6.808   7.220   1.910  0.1858  0.9387  2.3604
  590MOL0     H79624   6.579   7.424   1.944 -3.3199 -2.7439  3.2632
  590MOL0     H79625   6.740   7.456   1.997 -1.1476  0.7408 -0.4134
  590MOL0     H79626   6.737   7.245   2.136  1.3291  1.9492 -0.7359
  590MOL0     H79627   6.645   7.376   2.203  1.1956 -2.0362  1.7903
  590MOL0     H79628   6.537   7.119   2.169 -0.1397 -0.5282  0.2062
  590MOL0     H79629   6.458   7.216   2.043  2.2438  0.0804 -0.1642
  590MOL0     H79630   6.381   7.370   2.207  0.8256 -0.5083 -1.1331
  590MOL0     H79631   6.492   7.327   2.324  3.6569  0.9003 -3.0673
  590MOL0     H79632   7.003   7.348   1.865 -1.2526  0.0664 -2.2306
  590MOL0     H79633   7.123   7.494   2.031  0.2110 -0.0947 -1.4693
  590MOL0     H79634   7.399   7.767   2.177 -0.9397 -0.1449  3.2197
  590MOL0     H79635   7.531   7.893   2.317 -0.8420 -1.8090 -1.2502
  590MOL0     H79636   7.728   9.421   1.744  1.3498 -1.4817  1.0860
  590MOL0     H79637   7.588   9.460   1.527  0.2964  3.3391 -0.4121
  590MOL0     H79638   7.321   9.453   1.109  0.4574 -1.6201 -0.4211
  590MOL0     H79639   7.260   9.485   0.895  0.0389  2.0078  0.4320
  590MOL0     H79640   7.456   9.737   0.723  1.5017 -2.0678  0.4901
  590MOL0     H79641   7.427   9.678   0.559 -0.9018 -1.1364 -0.1208
  590MOL0     H79642   7.217   9.772   0.635 -0.4592 -0.8422  0.3960
  590MOL0     H79643   7.242   9.697   0.791 -0.0190  3.5971 -0.6064
  590MOL0     H79644   7.175   9.485   0.684 -2.8548  0.2232  0.9509
  590MOL0     H79645   7.204   9.536   0.523 -5.2872 -0.0610 -2.7340
  590MOL0     H79646   6.956   9.532   0.589  0.7052 -0.6392  1.6148
  590MOL0     H79647   7.002   9.692   0.549  2.4468 -0.2117 -1.4263
  590MOL0     H79648   6.902   9.781   0.932 -0.7959  0.0771  0.4050
  590MOL0     H79649   7.676   9.529   0.784  0.1505  1.0849  1.2480
  590MOL0     H79650   7.746   9.487   1.029  0.6138  2.8477 -2.1154
  591MOL0     O79651   9.551   3.651   7.158  0.6396  0.1265  0.6441
  591MOL0     C79652   9.658   3.646   7.215  0.5558  0.1218 -1.0169
  591MOL0     O79653   9.678   3.677   7.347 -0.8003  0.5932  0.3604
  591MOL0     C79654   9.578   3.662   7.437 -0.2377  0.0627  0.7206
  591MOL0     C79655   9.560   3.766   7.528 -0.4343  0.1812 -0.0939
  591MOL0     C79656   9.445   3.776   7.612 -0.1394  0.2625  0.1202
  591MOL0     C79657   9.346   3.681   7.604  0.3401  0.1598  0.6474
  591MOL0     O79658   9.233   3.697   7.680 -0.4130  0.4500 -0.1185
  591MOL0     C79659   9.131   3.779   7.620  0.3084  0.0416 -0.2002
  591MOL0     C79660   9.052   3.731   7.498  0.0948 -0.3215 -0.4670
  591MOL0     C79661   8.946   3.827   7.455  0.4252 -1.7645 -0.2743
  591MOL0     C79662   9.004   3.969   7.442  0.4338 -0.1818  0.0781
  591MOL0     C79663   8.903   4.063   7.362 -0.2257 -0.3229 -0.4882
  591MOL0     C79664   8.954   4.207   7.345  0.0047  0.2917  0.5424
  591MOL0     C79665   8.936   4.286   7.477  0.7856 -0.0571  0.6764
  591MOL0     C79666   8.995   4.430   7.471 -0.7954 -0.1340  0.1058
  591MOL0     N79667   9.145   4.428   7.454  0.2185 -0.0841 -0.1983
  591MOL0     C79668   9.239   4.335   7.490 -0.6107  0.0787 -0.4447
  591MOL0     C79669   9.358   4.371   7.434  1.4300 -0.0886  0.2055
  591MOL0     C79670   9.480   4.291   7.422 -0.0111  0.3066  0.4497
  591MOL0     C79671   9.454   4.136   7.392  0.3789 -0.7874 -0.6655
  591MOL0     C79672   9.380   4.111   7.262  0.2046 -0.1084  0.0183
  591MOL0     C79673   9.385   3.962   7.241  0.2251  0.9010 -0.7882
  591MOL0     O79674   9.380   3.939   7.100  0.4720 -0.3468  0.4924
  591MOL0     C79675   9.261   3.879   7.056  0.1261  0.9013  0.5515
  591MOL0     C79676   9.218   3.751   7.092 -1.6103 -0.0717 -0.2114
  591MOL0     C79677   9.102   3.693   7.058  0.3819  0.0403 -0.1706
  591MOL0     C79678   9.069   3.551   7.103  0.7963  0.2260 -0.8028
  591MOL0     C79679   9.028   3.753   6.949  0.3088  0.1996 -0.2582
  591MOL0     C79680   8.908   3.698   6.882 -0.2299  0.5052  0.0633
  591MOL0     O79681   8.926   3.717   6.741 -0.2355  0.0247  0.8117
  591MOL0     C79682   8.839   3.640   6.665 -0.9207 -0.5359 -0.2198
  591MOL0     C79683   8.839   3.497   6.662 -0.6198 -0.6483  0.3924
  591MOL0     C79684   8.752   3.427   6.575 -1.1724 -0.2533  0.9194
  591MOL0     C79685   8.661   3.503   6.494 -0.4182  1.8789 -0.8333
  591MOL0     O79686   8.569   3.432   6.421  1.7785 -0.6754  0.6152
  591MOL0     C79687   8.433   3.458   6.473  0.2125  0.2228  0.1384
  591MOL0     C79688   8.339   3.377   6.382 -0.0399  0.3477 -0.8536
  591MOL0     C79689   8.362   3.224   6.382  1.1436  0.3039  0.0351
  591MOL0     C79690   8.319   3.160   6.257 -0.0333 -0.3772  1.0088
  591MOL0     C79691   8.347   3.003   6.266 -0.5354 -1.1381  0.4798
  591MOL0     C79692   8.291   2.927   6.145  0.2761  1.0398 -0.0734
  591MOL0     C79693   8.339   2.971   6.007  0.3332  0.6246  0.9072
  591MOL0     C79694   8.353   2.857   5.915  0.5701  0.7331  0.3590
  591MOL0    Cl79695   8.441   2.702   5.958 -0.0437 -0.4411 -0.2178
  591MOL0     C79696   8.656   3.640   6.506 -0.0840  0.7631  0.8591
  591MOL0     C79697   8.745   3.713   6.585  0.3458  0.6518 -0.4806
  591MOL0     O79698   8.803   3.651   6.935  0.2699  0.0088  0.6555
  591MOL0     C79699   9.071   3.884   6.908  0.0684  0.1694  0.0962
  591MOL0     C79700   9.189   3.951   6.961 -0.2065 -0.5597  1.2416
  591MOL0     N79701   9.338   4.481   7.355 -0.3307  0.6793  0.3605
  591MOL0     N79702   9.211   4.518   7.366  0.4924  0.3926 -0.0694
  591MOL0     C79703   9.357   3.583   7.514  0.5475  0.6362 -0.6893
  591MOL0     C79704   9.474   3.560   7.433  0.1621 -0.4261  0.0999
  591MOL0     C79705   9.779   3.637   7.143 -0.1269  0.5757  0.8323
  591MOL0     C79706   9.781   3.588   7.006 -0.3805 -0.0044 -0.6283
  591MOL0     C79707   9.904   3.562   6.938  0.4309 -0.6553  0.1025
  591MOL0     C79708  10.026   3.598   7.004  0.1474 -0.7408 -0.7773
  591MOL0     O79709  10.139   3.574   6.930 -0.0595 -0.6095 -0.3755
  591MOL0     C79710  10.259   3.581   7.010 -0.5184  0.1519  0.7395
  591MOL0     C79711  10.388   3.528   6.943 -0.4566 -0.4293 -0.8407
  591MOL0     C79712  10.370   3.381   6.892 -0.6214 -0.2492 -0.2356
  591MOL0     C79713  10.438   3.266   6.971 -0.0302 -0.2733 -0.4762
  591MOL0     C79714  10.454   3.294   7.114 -0.1891  0.3114 -0.8691
  591MOL0     C79715  10.475   3.318   7.232  0.0364  0.2828  0.7262
  591MOL0     C79716  10.021   3.644   7.136 -0.0941 -0.8415  0.4689
  591MOL0     C79717   9.903   3.657   7.206 -0.3507 -0.7517  0.0319
  591MOL0     H79718   9.631   3.848   7.524  2.1480 -1.9319 -0.5575
  591MOL0     H79719   9.439   3.858   7.683 -0.2050 -0.9160  1.5270
  591MOL0     H79720   9.056   3.817   7.690  0.7381  1.7743 -0.6331
  591MOL0     H79721   9.189   3.864   7.583 -1.4253  1.2949 -0.1682
  591MOL0     H79722   9.114   3.728   7.408  0.4604 -0.4591 -0.2148
  591MOL0     H79723   9.012   3.631   7.518  2.2863 -1.2841 -0.5550
  591MOL0     H79724   8.919   3.789   7.356  0.1754  2.2067 -1.9420
  591MOL0     H79725   8.857   3.824   7.518  0.9738 -0.7110  0.5957
  591MOL0     H79726   9.022   4.004   7.544 -1.5175 -0.2794  0.5070
  591MOL0     H79727   9.101   3.972   7.392  0.6913  1.5199  0.6138
  591MOL0     H79728   8.900   4.017   7.263 -0.2560  1.1869 -1.2250
  591MOL0     H79729   8.804   4.053   7.407 -0.1093 -0.6649 -0.3024
  591MOL0     H79730   9.061   4.195   7.327 -0.3149 -0.8912 -0.7670
  591MOL0     H79731   8.919   4.256   7.254  1.9344  0.4777 -0.1262
  591MOL0     H79732   8.827   4.292   7.482  0.7936  1.2121 -0.2386
  591MOL0     H79733   8.976   4.222   7.556  1.5319 -0.6801 -0.1760
  591MOL0     H79734   8.964   4.487   7.559  0.9255 -1.7824  1.8901
  591MOL0     H79735   8.960   4.482   7.382  3.8337 -0.6710 -2.3633
  591MOL0     H79736   9.228   4.241   7.544  0.6291 -1.1064 -2.1422
  591MOL0     H79737   9.546   4.333   7.345 -1.0363 -0.2066 -0.7588
  591MOL0     H79738   9.541   4.299   7.512 -0.2491  0.4303  0.6006
  591MOL0     H79739   9.389   4.095   7.470 -0.0480  0.3375 -0.4034
  591MOL0     H79740   9.548   4.082   7.390  0.6775 -0.3981 -4.5635
  591MOL0     H79741   9.425   4.161   7.176 -1.2959 -0.8223 -1.2469
  591MOL0     H79742   9.275   4.142   7.257  0.3595  0.4332  0.0473
  591MOL0     H79743   9.314   3.898   7.295  2.4044 -1.7991 -0.9344
  591MOL0     H79744   9.483   3.920   7.265  0.2275  1.5759  0.4996
  591MOL0     H79745   9.296   3.692   7.140 -1.8085 -1.6822 -1.7622
  591MOL0     H79746   9.029   3.494   7.018 -1.1589 -3.0624  2.0702
  591MOL0     H79747   9.160   3.505   7.144  1.8503  2.0262 -1.0305
  591MOL0     H79748   8.979   3.548   7.165  0.3917  0.6172 -1.3548
  591MOL0     H79749   8.925   3.456   6.714  1.0443 -0.9764 -2.3705
  591MOL0     H79750   8.758   3.319   6.564 -0.1425 -0.1004 -0.3039
  591MOL0     H79751   8.434   3.432   6.579 -0.1572 -1.4590 -0.2352
  591MOL0     H79752   8.398   3.560   6.456  2.3473  0.9610 -0.1889
  591MOL0     H79753   8.234   3.399   6.407 -0.5762 -1.5989 -1.1867
  591MOL0     H79754   8.358   3.417   6.282 -2.0200  3.3138 -0.1781
  591MOL0     H79755   8.313   3.179   6.469 -0.0761  1.8385  0.1698
  591MOL0     H79756   8.467   3.196   6.396  1.3907  0.4522 -1.3920
  591MOL0     H79757   8.213   3.176   6.239 -0.4495 -0.5095  3.1594
  591MOL0     H79758   8.380   3.188   6.170  0.0305 -1.4977  0.6809
  591MOL0     H79759   8.315   2.967   6.364  1.3421  0.1387  1.6145
  591MOL0     H79760   8.449   2.966   6.268  0.3125  0.7599 -1.9074
  591MOL0     H79761   8.306   2.820   6.165 -2.6583  0.3699 -1.0630
  591MOL0     H79762   8.183   2.929   6.160  0.4163 -1.5210  2.0734
  591MOL0     H79763   8.445   2.999   6.008  0.5886 -0.1124 -1.0272
  591MOL0     H79764   8.272   3.048   5.968  0.0259  1.4144  2.8835
  591MOL0     H79765   8.402   2.900   5.828  1.1664  1.4264  1.0153
  591MOL0     H79766   8.253   2.819   5.894  1.5329 -1.7599 -0.0364
  591MOL0     H79767   8.575   3.691   6.454 -1.3427 -3.1169 -1.4088
  591MOL0     H79768   8.744   3.821   6.595 -1.4899  0.4574  2.7926
  591MOL0     H79769   9.027   3.929   6.819 -0.6607  0.6018  0.6625
  591MOL0     H79770   9.211   4.045   6.911 -1.6254 -0.9361 -0.1874
  591MOL0     H79771   9.285   3.502   7.506  0.5784  0.6371 -0.9903
  591MOL0     H79772   9.486   3.475   7.367 -1.7702  0.3149 -1.2979
  591MOL0     H79773   9.690   3.551   6.962  1.1024  0.1229 -4.1057
  591MOL0     H79774   9.896   3.521   6.837  0.2709 -3.9255  1.3168
  591MOL0     H79775  10.285   3.680   7.048  2.8429 -1.0885  2.0970
  591MOL0     H79776  10.256   3.510   7.093  1.7803  1.9146  2.4551
  591MOL0     H79777  10.475   3.524   7.009 -1.4846 -2.2694  0.4856
  591MOL0     H79778  10.403   3.604   6.865 -3.9892  3.3654  1.7891
  591MOL0     H79779  10.425   3.371   6.797 -0.7379 -6.3705 -0.0376
  591MOL0     H79780  10.265   3.359   6.874 -0.0541 -3.4686 -0.2535
  591MOL0     H79781  10.543   3.260   6.940  2.4402  0.7134  6.0819
  591MOL0     H79782  10.372   3.180   6.954  0.3986 -0.4678 -1.1849
  591MOL0     H79783  10.496   3.331   7.336 -1.9873 -0.1464  1.2401
  591MOL0     H79784  10.110   3.658   7.197  1.2301 -1.9949 -1.0908
  591MOL0     H79785   9.911   3.669   7.313  1.6482  2.5454 -0.3396
  592MOL0     O79786   1.949   1.451   1.274 -0.3328  0.4055 -0.7801
  592MOL0     C79787   1.954   1.569   1.285  0.7389 -0.3392  0.3248
  592MOL0     O79788   1.977   1.658   1.181 -0.2307  0.2039 -0.4621
  592MOL0     C79789   2.002   1.605   1.057  0.1856 -0.0025 -0.0278
  592MOL0     C79790   2.131   1.595   1.001  0.3804  0.0751  0.6991
  592MOL0     C79791   2.152   1.545   0.876 -0.4085  0.0700  1.0531
  592MOL0     C79792   2.045   1.506   0.787  0.1304 -0.1903 -0.4285
  592MOL0     O79793   2.083   1.469   0.661 -0.4107  0.1545 -0.4650
  592MOL0     C79794   1.975   1.454   0.563  0.0217 -0.6267  0.3538
  592MOL0     C79795   2.039   1.403   0.430 -0.3766 -0.4704 -0.7014
  592MOL0     C79796   1.950   1.311   0.351  0.5492 -0.4362 -0.1762
  592MOL0     C79797   1.973   1.338   0.203  0.0745 -0.1706 -0.1844
  592MOL0     C79798   2.108   1.284   0.149 -0.9300  0.0057 -0.0914
  592MOL0     C79799   2.119   1.302  -0.007 -0.6122  0.3196 -0.0425
  592MOL0     C79800   2.132   1.445  -0.050 -0.6459 -0.4394  0.2057
  592MOL0     C79801   2.161   1.466  -0.197  0.1101  0.0376 -0.0922
  592MOL0     N79802   2.084   1.386  -0.299  0.0072 -0.0091 -0.3209
  592MOL0     C79803   2.114   1.273  -0.368 -0.7153 -0.0588  0.6027
  592MOL0     C79804   2.022   1.263  -0.467  0.4675 -0.3263  0.9807
  592MOL0     C79805   2.017   1.164  -0.578  0.0857 -0.6733  0.3653
  592MOL0     C79806   1.981   1.023  -0.545 -0.2803  0.9981 -0.1890
  592MOL0     C79807   1.837   1.025  -0.486 -1.1646  0.0363 -0.6033
  592MOL0     C79808   1.774   0.886  -0.484  0.1350  0.4537 -0.3924
  592MOL0     O79809   1.834   0.816  -0.376  0.2932  0.4839  0.7662
  592MOL0     C79810   1.807   0.676  -0.388  0.3680 -0.8564  0.2597
  592MOL0     C79811   1.685   0.629  -0.335 -0.6717 -0.2500 -0.2522
  592MOL0     C79812   1.654   0.489  -0.331 -1.2087 -0.8838  0.5495
  592MOL0     C79813   1.524   0.442  -0.268 -0.5916 -1.3355  0.4330
  592MOL0     C79814   1.745   0.402  -0.397  0.3664 -0.3563  0.0429
  592MOL0     C79815   1.735   0.256  -0.399 -0.4295  0.1098  0.8511
  592MOL0     O79816   1.617   0.198  -0.365 -0.1114 -0.4295  0.8003
  592MOL0     C79817   1.602   0.061  -0.364 -0.9243  0.3244  0.0707
  592MOL0     C79818   1.664  -0.028  -0.455  0.4502  0.1078  1.1751
  592MOL0     C79819   1.656  -0.165  -0.444 -0.6731  0.2129 -0.3270
  592MOL0     C79820   1.585  -0.214  -0.334 -0.0446 -0.1712 -0.8338
  592MOL0     O79821   1.567  -0.352  -0.315  0.2877 -0.1793 -0.1786
  592MOL0     C79822   1.600  -0.453  -0.417 -0.5500  0.1051 -0.2063
  592MOL0     C79823   1.583  -0.579  -0.325  0.1444 -0.5785  0.1004
  592MOL0     C79824   1.438  -0.621  -0.289  0.7789  0.3157  0.1566
  592MOL0     C79825   1.348  -0.635  -0.411 -0.4320 -0.0694  0.2269
  592MOL0     C79826   1.244  -0.747  -0.381  0.4935 -0.1001  0.1870
  592MOL0     C79827   1.290  -0.885  -0.429  0.7756  0.0833  1.0412
  592MOL0     C79828   1.185  -0.990  -0.380  0.3497  0.2286  0.2644
  592MOL0     C79829   1.036  -0.960  -0.404 -1.0810 -0.2533 -0.2368
  592MOL0    Cl79830   0.976  -0.856  -0.281  0.0357 -0.4884 -0.3501
  592MOL0     C79831   1.525  -0.121  -0.234 -1.1188 -0.2246  1.1150
  592MOL0     C79832   1.536   0.014  -0.249 -0.0929 -0.4935  0.5451
  592MOL0     O79833   1.841   0.200  -0.421  0.9912 -0.0923 -0.2778
  592MOL0     C79834   1.859   0.456  -0.463  0.7790  0.4724 -0.4608
  592MOL0     C79835   1.896   0.583  -0.449  0.8839 -0.0133  0.0381
  592MOL0     N79836   1.926   1.363  -0.444 -0.4063  0.0502 -0.7142
  592MOL0     N79837   1.970   1.446  -0.355 -1.2782 -0.8385  0.6740
  592MOL0     C79838   1.910   1.516   0.838 -1.4295  0.3577 -0.5764
  592MOL0     C79839   1.890   1.563   0.968 -0.5187 -0.2679  0.8786
  592MOL0     C79840   1.951   1.626   1.423  0.0111 -1.3712  0.7556
  592MOL0     C79841   1.906   1.759   1.445 -0.2248  0.3390  0.4534
  592MOL0     C79842   1.874   1.797   1.580  0.4280  0.0949  1.3820
  592MOL0     C79843   1.910   1.711   1.691  0.7526 -0.1170 -0.3598
  592MOL0     O79844   1.898   1.764   1.822  0.4698 -0.4417 -0.3615
  592MOL0     C79845   1.836   1.895   1.844  0.7296  1.2322 -0.4616
  592MOL0     C79846   1.797   1.909   1.991 -0.7068 -0.4508  0.3163
  592MOL0     C79847   1.737   2.047   2.007 -0.0239  1.2715 -0.3869
  592MOL0     C79848   1.685   2.093   2.144 -0.0817 -0.1689  0.1296
  592MOL0     C79849   1.580   2.009   2.189  0.9625 -0.0010  0.7956
  592MOL0     C79850   1.485   1.940   2.217  0.0537 -0.0867  0.0040
  592MOL0     C79851   1.956   1.578   1.664 -0.2833  0.2282  0.1870
  592MOL0     C79852   1.974   1.540   1.529 -0.6026 -0.0639  0.1513
  592MOL0     H79853   2.216   1.621   1.064  0.4404  0.1040  0.6071
  592MOL0     H79854   2.254   1.524   0.843 -1.5976  0.0649 -3.1351
  592MOL0     H79855   1.902   1.381   0.601  1.6307 -1.7802  1.3250
  592MOL0     H79856   1.912   1.544   0.556 -1.2067 -1.2491  2.3690
  592MOL0     H79857   2.076   1.483   0.366 -0.0966 -0.2021 -0.2170
  592MOL0     H79858   2.125   1.338   0.452  0.4139  0.1212 -1.9209
  592MOL0     H79859   1.974   1.209   0.382  1.9480  0.3917  1.5938
  592MOL0     H79860   1.848   1.338   0.381  0.0920 -3.0170  0.8728
  592MOL0     H79861   1.901   1.306   0.126 -1.9787  0.8556  1.2236
  592MOL0     H79862   1.973   1.447   0.194  0.5695 -0.1578 -0.0173
  592MOL0     H79863   2.187   1.345   0.194 -1.9321  0.8608  0.5579
  592MOL0     H79864   2.120   1.184   0.192 -0.4327  0.1279  0.0734
  592MOL0     H79865   2.204   1.244  -0.045 -2.4977 -1.4824 -1.7412
  592MOL0     H79866   2.026   1.256  -0.042  0.1114 -1.8663  0.7101
  592MOL0     H79867   2.038   1.499  -0.036  0.1391  1.2459 -0.7700
  592MOL0     H79868   2.216   1.488   0.004 -1.5230  0.4903  0.8724
  592MOL0     H79869   2.268   1.450  -0.211  0.4770 -0.7986  2.9486
  592MOL0     H79870   2.145   1.573  -0.213 -1.6989 -0.0900  0.6436
  592MOL0     H79871   2.196   1.202  -0.360 -2.2425 -1.9454  0.2163
  592MOL0     H79872   1.943   1.196  -0.651  1.9523 -1.2301 -1.9147
  592MOL0     H79873   2.112   1.163  -0.633  0.6028  1.4487  1.1245
  592MOL0     H79874   2.057   0.974  -0.482  1.2404 -1.3008 -3.5270
  592MOL0     H79875   1.979   0.963  -0.636  0.5263 -0.7002  0.8464
  592MOL0     H79876   1.764   1.087  -0.538 -1.2032 -0.0104 -0.6046
  592MOL0     H79877   1.837   1.066  -0.384 -0.2511  0.7347 -0.8656
  592MOL0     H79878   1.802   0.837  -0.578  0.0525 -0.5392  0.0941
  592MOL0     H79879   1.665   0.900  -0.480 -0.4446 -1.2166 -4.6570
  592MOL0     H79880   1.604   0.697  -0.311 -1.0045 -0.2014 -1.4414
  592MOL0     H79881   1.484   0.380  -0.349  1.8420 -0.3936 -1.5973
  592MOL0     H79882   1.534   0.393  -0.170  2.0416  0.2684  1.0372
  592MOL0     H79883   1.458   0.528  -0.255  2.5164  0.9661  2.4069
  592MOL0     H79884   1.725   0.013  -0.535  4.0253  1.7108  4.4075
  592MOL0     H79885   1.692  -0.225  -0.527  2.8074  1.2584  0.2463
  592MOL0     H79886   1.517  -0.451  -0.488 -0.4865  0.7340 -0.2685
  592MOL0     H79887   1.705  -0.454  -0.447  0.3788  0.2138  2.7060
  592MOL0     H79888   1.636  -0.659  -0.378 -2.7251 -2.8777  0.4475
  592MOL0     H79889   1.634  -0.567  -0.229 -1.0008  0.0609  0.6364
  592MOL0     H79890   1.405  -0.543  -0.220  1.6079 -2.6817  4.3247
  592MOL0     H79891   1.452  -0.713  -0.230  0.9576 -0.2420 -0.7356
  592MOL0     H79892   1.297  -0.541  -0.435 -1.3515 -0.7815 -0.7181
  592MOL0     H79893   1.415  -0.669  -0.490 -0.3958 -1.1147  0.6922
  592MOL0     H79894   1.153  -0.720  -0.436  0.6783 -1.2875 -0.7530
  592MOL0     H79895   1.217  -0.752  -0.275  1.3367  2.3093  0.5580
  592MOL0     H79896   1.293  -0.903  -0.537  2.0084  1.2900  0.8492
  592MOL0     H79897   1.390  -0.911  -0.394  0.5466 -4.3750 -0.8512
  592MOL0     H79898   1.200  -1.020  -0.275  0.5342  1.6128  0.6520
  592MOL0     H79899   1.198  -1.084  -0.434  3.4310 -0.3377  1.7324
  592MOL0     H79900   0.977  -1.053  -0.409 -1.2201 -0.1101 -1.8622
  592MOL0     H79901   1.018  -0.919  -0.504 -0.2432 -1.5907 -0.9771
  592MOL0     H79902   1.485  -0.159  -0.141  1.9725 -1.5080  2.0345
  592MOL0     H79903   1.500   0.087  -0.178  1.4095 -0.7306  1.5910
  592MOL0     H79904   1.933   0.396  -0.515  1.5992 -0.2937  1.4682
  592MOL0     H79905   1.981   0.622  -0.505  0.7267 -2.1305 -1.8173
  592MOL0     H79906   1.828   1.491   0.771 -1.0514  0.1236 -0.9495
  592MOL0     H79907   1.784   1.565   0.995 -1.7435 -1.9995 -3.0837
  592MOL0     H79908   1.868   1.815   1.360 -0.6053  3.1217  2.2968
  592MOL0     H79909   1.841   1.899   1.594  2.3721  0.8446  0.8609
  592MOL0     H79910   1.897   1.976   1.804  0.2442  0.5787 -2.6482
  592MOL0     H79911   1.743   1.897   1.788  0.3852 -0.6300 -0.0303
  592MOL0     H79912   1.883   1.890   2.055  2.8233  2.0558 -3.2241
  592MOL0     H79913   1.718   1.834   2.007 -2.5053  1.2624 -0.1193
  592MOL0     H79914   1.656   2.039   1.935  1.0052 -1.2793 -1.3865
  592MOL0     H79915   1.793   2.133   1.969  0.9863  0.2892 -1.1568
  592MOL0     H79916   1.645   2.195   2.142  2.3552  0.8474 -0.3271
  592MOL0     H79917   1.768   2.085   2.215 -0.4178 -2.4442  0.3434
  592MOL0     H79918   1.401   1.881   2.247  0.3347 -0.6851 -0.3747
  592MOL0     H79919   1.965   1.515   1.752  5.1269  1.4464  0.8400
  592MOL0     H79920   1.996   1.435   1.514 -1.0741  0.0109 -1.1408
  593MOL0     O79921   9.172  10.767   6.993  0.4595  0.2541  0.2750
  593MOL0     C79922   9.056  10.749   6.946 -0.6968  1.2382 -0.4172
  593MOL0     O79923   9.030  10.763   6.810  0.0261  0.1636 -0.2847
  593MOL0     C79924   9.136  10.815   6.733 -0.0080  0.1158 -0.3803
  593MOL0     C79925   9.150  10.952   6.712 -0.3076 -0.0247 -0.1310
  593MOL0     C79926   9.258  11.005   6.649  0.1494 -0.5444  0.7785
  593MOL0     C79927   9.353  10.921   6.589  0.0500  1.1311  0.1612
  593MOL0     O79928   9.466  10.951   6.524  0.4941  0.2355  0.2959
  593MOL0     C79929   9.484  11.084   6.479 -0.4413  1.0456  0.0232
  593MOL0     C79930   9.613  11.112   6.413 -0.5157  0.2889  0.0619
  593MOL0     C79931   9.617  11.062   6.269 -0.1075  0.3581  1.0765
  593MOL0     C79932   9.763  11.070   6.226  1.2695  0.0557 -0.3906
  593MOL0     C79933   9.775  11.069   6.074 -0.2805 -0.1569  0.2947
  593MOL0     C79934   9.684  10.958   6.015  0.2056 -0.2001 -0.8207
  593MOL0     C79935   9.713  10.907   5.879  0.1049 -0.1690 -0.4596
  593MOL0     C79936   9.705  11.029   5.788  0.3530 -0.4309 -0.2783
  593MOL0     N79937   9.784  10.998   5.671  0.1165 -1.0316  0.0423
  593MOL0     C79938   9.761  10.906   5.579 -0.0518  0.5036  1.1297
  593MOL0     C79939   9.858  10.919   5.484 -0.1015 -0.2296  0.0978
  593MOL0     C79940   9.878  10.833   5.360 -0.5701 -0.4596  0.5666
  593MOL0     C79941   9.798  10.904   5.238  0.6677  0.0772  0.0264
  593MOL0     C79942   9.853  10.887   5.098  0.8971 -0.6784  1.0301
  593MOL0     C79943   9.833  10.739   5.056 -0.2916 -1.1225  0.1560
  593MOL0     O79944   9.825  10.715   4.914  0.3797  0.0858  0.2741
  593MOL0     C79945   9.781  10.590   4.885 -0.6371  0.1938  0.2163
  593MOL0     C79946   9.759  10.573   4.754 -0.1634  0.2241 -0.0433
  593MOL0     C79947   9.729  10.453   4.691 -0.1870 -0.2641  0.3357
  593MOL0     C79948   9.709  10.446   4.546 -0.5248 -0.3727  0.0917
  593MOL0     C79949   9.728  10.346   4.768  0.4013  0.3329  0.0156
  593MOL0     C79950   9.706  10.208   4.707 -0.1778 -0.1000  0.7202
  593MOL0     O79951   9.576  10.175   4.677 -0.2782 -0.5101 -0.0204
  593MOL0     C79952   9.541  10.052   4.628  0.5517  0.3462 -0.8656
  593MOL0     C79953   9.402  10.018   4.644 -0.4059  1.2699  0.1644
  593MOL0     C79954   9.352   9.898   4.586 -0.3945  0.0208  0.1578
  593MOL0     C79955   9.436   9.801   4.522 -0.0370 -0.5002 -0.5093
  593MOL0     O79956   9.390   9.684   4.458  0.5455 -0.2044  0.2966
  593MOL0     C79957   9.251   9.662   4.461 -0.5477  1.0551  0.7647
  593MOL0     C79958   9.215   9.515   4.440  0.3284  0.4355  0.7052
  593MOL0     C79959   9.230   9.482   4.294  1.1990 -0.8388 -1.0404
  593MOL0     C79960   9.164   9.355   4.258 -0.2526  0.1734  0.3489
  593MOL0     C79961   9.174   9.329   4.112  1.0152  0.9570 -0.7647
  593MOL0     C79962   9.118   9.194   4.070  0.2046  1.5061  0.1928
  593MOL0     C79963   9.138   9.160   3.927  0.0905  1.1361  0.0280
  593MOL0     C79964   9.062   9.025   3.884 -0.0418 -1.1062  0.2292
  593MOL0    Cl79965   9.124   8.959   3.724  0.6002 -0.2660  0.2026
  593MOL0     C79966   9.570   9.843   4.499  0.3704  0.2266  0.2623
  593MOL0     C79967   9.624   9.964   4.560 -0.0974  0.5474 -0.0510
  593MOL0     O79968   9.805  10.137   4.719 -0.3403  0.5915 -0.4491
  593MOL0     C79969   9.750  10.351   4.913 -0.9485 -0.8119 -1.0811
  593MOL0     C79970   9.781  10.475   4.968  0.6845  0.0060 -0.2228
  593MOL0     N79971   9.959  11.003   5.537  0.2148 -0.1671  0.3069
  593MOL0     N79972   9.910  11.047   5.649 -0.0935 -0.0069  0.6827
  593MOL0     C79973   9.337  10.781   6.597 -0.2117 -0.6121  0.5613
  593MOL0     C79974   9.231  10.726   6.673  1.1131  0.5890  0.2003
  593MOL0     C79975   8.948  10.718   7.049 -0.6743 -0.1620  0.3344
  593MOL0     C79976   8.970  10.751   7.187 -1.1976 -0.6094  0.4536
  593MOL0     C79977   8.865  10.726   7.283 -0.1288 -0.1602  0.1107
  593MOL0     C79978   8.740  10.682   7.237 -0.0601 -0.1841  0.0188
  593MOL0     O79979   8.632  10.675   7.326  0.0743 -0.2239  1.3408
  593MOL0     C79980   8.507  10.599   7.310 -0.1164 -0.5950 -0.0201
  593MOL0     C79981   8.530  10.445   7.315  0.5103  0.1872 -0.7441
  593MOL0     C79982   8.404  10.368   7.271  1.4020  1.1255 -0.9154
  593MOL0     C79983   8.435  10.214   7.262  0.0373  0.1116  0.1700
  593MOL0     C79984   8.467  10.147   7.388 -1.0698  0.2753  0.9173
  593MOL0     C79985   8.502  10.091   7.484 -0.0096  0.3434 -0.4035
  593MOL0     C79986   8.715  10.654   7.104  1.0116 -0.0737  0.4833
  593MOL0     C79987   8.812  10.669   7.011 -0.4249 -1.0542  0.2014
  593MOL0     H79988   9.075  11.015   6.759 -1.6522 -3.1443  2.3526
  593MOL0     H79989   9.264  11.112   6.633  2.3522 -0.7975 -0.5576
  593MOL0     H79990   9.403  11.099   6.407 -1.1115 -1.2872  0.2192
  593MOL0     H79991   9.475  11.152   6.564  0.5695 -0.1935  1.1546
  593MOL0     H79992   9.614  11.221   6.415 -2.3553  0.3860 -1.3334
  593MOL0     H79993   9.689  11.075   6.483 -2.2731  1.6688  2.8902
  593MOL0     H79994   9.578  10.960   6.259  1.6594 -0.2043 -0.6179
  593MOL0     H79995   9.565  11.131   6.202  0.0800 -1.5985 -1.2257
  593MOL0     H79996   9.813  11.157   6.268 -2.9235  1.9098  1.2916
  593MOL0     H79997   9.817  10.982   6.265  1.3221 -0.4698 -1.6181
  593MOL0     H79998   9.729  11.161   6.036  0.0752  0.5182  1.4355
  593MOL0     H79999   9.873  11.060   6.026 -0.1517 -3.4306  0.9549
  593MOL0     H80000   9.699  10.872   6.081 -0.1842 -1.4924 -2.3599
  593MOL0     H80001   9.576  10.977   6.015  0.4906  1.6857  0.2081
  593MOL0     H80002   9.812  10.859   5.874 -0.8747 -2.3342 -0.2386
  593MOL0     H80003   9.638  10.832   5.851  1.5869 -2.2596  0.8271
  593MOL0     H80004   9.742  11.117   5.841 -1.6752 -0.6707  1.6839
  593MOL0     H80005   9.599  11.043   5.763 -0.1356  0.8787  2.2147
  593MOL0     H80006   9.681  10.833   5.588  1.6735 -2.3812 -3.3284
  593MOL0     H80007   9.987  10.829   5.356 -0.5605 -2.5187  1.5964
  593MOL0     H80008   9.845  10.730   5.375  2.6354 -1.8263 -0.8874
  593MOL0     H80009   9.801  11.010   5.264  0.3923  0.5655 -1.8040
  593MOL0     H80010   9.693  10.871   5.237 -0.3098  2.9314 -0.1520
  593MOL0     H80011   9.953  10.928   5.081  0.4538 -0.5319 -1.7800
  593MOL0     H80012   9.791  10.946   5.030  0.2416 -0.3425  1.9041
  593MOL0     H80013   9.742  10.710   5.109  0.0284  0.7948  1.9120
  593MOL0     H80014   9.916  10.681   5.098 -0.5236 -1.4838  0.1176
  593MOL0     H80015   9.757  10.667   4.699  1.3179  0.6089  0.5011
  593MOL0     H80016   9.783  10.381   4.498  2.7877  3.1391 -0.0341
  593MOL0     H80017   9.610  10.400   4.534  0.4107 -1.7966 -3.4729
  593MOL0     H80018   9.702  10.545   4.503 -2.2981 -0.3107  0.4597
  593MOL0     H80019   9.340  10.094   4.691  0.7005  0.9259  2.2698
  593MOL0     H80020   9.245   9.890   4.606 -0.4643  0.9165  0.1580
  593MOL0     H80021   9.209   9.685   4.560  0.9614 -0.0017  1.6929
  593MOL0     H80022   9.203   9.721   4.382 -3.5230 -1.3725  0.5612
  593MOL0     H80023   9.263   9.453   4.516 -2.4433  2.6072  4.6350
  593MOL0     H80024   9.107   9.502   4.453  0.0890  2.2524  0.9234
  593MOL0     H80025   9.335   9.489   4.263  2.1701 -1.9584  1.7300
  593MOL0     H80026   9.172   9.559   4.242 -1.4626 -2.5130 -0.7392
  593MOL0     H80027   9.227   9.288   4.318  2.6288  2.4605  0.0925
  593MOL0     H80028   9.060   9.340   4.288  0.4597  0.5335  3.3931
  593MOL0     H80029   9.282   9.333   4.094  1.9929  1.4778  3.9034
  593MOL0     H80030   9.126   9.408   4.054 -1.5842  0.5123  0.6414
  593MOL0     H80031   9.164   9.111   4.125  1.3711 -1.7636 -4.9501
  593MOL0     H80032   9.011   9.188   4.089  0.4844 -4.4185  2.0949
  593MOL0     H80033   9.245   9.143   3.909 -0.2196  1.8003 -2.8907
  593MOL0     H80034   9.109   9.244   3.863  0.0304  0.5626 -0.7138
  593MOL0     H80035   8.954   9.035   3.873  0.1577 -0.2617 -1.2488
  593MOL0     H80036   9.095   8.946   3.953  0.8973 -1.8446 -1.0211
  593MOL0     H80037   9.633   9.781   4.435 -0.2179 -2.1551  1.8626
  593MOL0     H80038   9.730   9.986   4.553  1.2683 -4.7919 -0.1170
  593MOL0     H80039   9.753  10.263   4.977  3.1339 -1.5663 -2.0080
  593MOL0     H80040   9.798  10.481   5.075 -0.3910 -2.2392  0.1355
  593MOL0     H80041   9.402  10.710   6.548 -1.6170 -1.8241  0.3876
  593MOL0     H80042   9.231  10.620   6.693  3.3931  0.3598 -0.7532
  593MOL0     H80043   9.065  10.795   7.213 -1.0248  0.3501 -1.5836
  593MOL0     H80044   8.881  10.749   7.388 -0.7750  1.6806 -0.1629
  593MOL0     H80045   8.425  10.623   7.379 -2.0235  0.6805 -2.5704
  593MOL0     H80046   8.456  10.626   7.217  0.4034 -0.5414 -0.2913
  593MOL0     H80047   8.563  10.423   7.417  0.8637 -2.5737 -1.3670
  593MOL0     H80048   8.612  10.420   7.247 -0.5772 -1.1167 -1.6440
  593MOL0     H80049   8.367  10.405   7.175 -3.5925  0.1918  0.3621
  593MOL0     H80050   8.324  10.377   7.344  4.4202  0.0632  2.8979
  593MOL0     H80051   8.510  10.209   7.183  0.7221  1.3611  0.7107
  593MOL0     H80052   8.347  10.155   7.237  1.3304 -1.8204 -0.0395
  593MOL0     H80053   8.524  10.037   7.574  0.6696  1.0282 -0.1434
  593MOL0     H80054   8.615  10.626   7.073  0.9178  0.9592 -0.1764
  593MOL0     H80055   8.796  10.640   6.907  2.9831  0.2887 -0.8666
  594MOL0     O80056   9.330   4.083   1.436 -0.1157 -0.3226  0.3995
  594MOL0     C80057   9.261   4.187   1.454 -0.1408  0.0244  0.8778
  594MOL0     O80058   9.304   4.294   1.531 -0.5941  0.1987 -0.2162
  594MOL0     C80059   9.422   4.290   1.605 -0.2499  0.5627  0.1668
  594MOL0     C80060   9.430   4.336   1.736  0.2959  0.0747  0.2626
  594MOL0     C80061   9.553   4.340   1.809  0.4775 -0.7680 -0.0041
  594MOL0     C80062   9.671   4.298   1.747 -0.4342 -0.4602  0.2261
  594MOL0     O80063   9.786   4.282   1.821 -0.0728  0.8693  0.2121
  594MOL0     C80064   9.902   4.224   1.751 -0.0188  0.1751  0.0502
  594MOL0     C80065  10.005   4.212   1.865  0.3399  0.3682 -0.0562
  594MOL0     C80066   9.947   4.140   1.988  0.5376 -0.3289 -0.7241
  594MOL0     C80067  10.068   4.116   2.085  0.2952 -0.2825  0.0280
  594MOL0     C80068  10.015   4.022   2.198 -0.3140  0.0608 -0.6387
  594MOL0     C80069  10.109   3.992   2.318  0.6441 -0.2874 -0.4083
  594MOL0     C80070  10.131   4.113   2.409 -0.2681 -0.0844  0.1641
  594MOL0     C80071  10.212   4.056   2.539  0.2959  0.5407 -0.1078
  594MOL0     N80072  10.249   4.157   2.647  0.2254  0.1610  0.6332
  594MOL0     C80073  10.334   4.258   2.617  0.9241 -0.7817  0.1527
  594MOL0     C80074  10.327   4.339   2.727 -0.4585 -0.5604  0.0356
  594MOL0     C80075  10.394   4.470   2.739  0.7020  0.2744  0.5142
  594MOL0     C80076  10.306   4.595   2.778 -0.1303  0.0629 -0.0298
  594MOL0     C80077  10.390   4.716   2.819 -1.5062  0.2351 -0.6360
  594MOL0     C80078  10.438   4.815   2.703  0.0648 -0.3147 -0.0715
  594MOL0     O80079  10.326   4.857   2.621 -0.4302  0.2500  0.5269
  594MOL0     C80080  10.344   4.957   2.532 -0.3471 -0.6447 -0.9467
  594MOL0     C80081  10.260   4.941   2.421  0.4812  0.2450 -0.0722
  594MOL0     C80082  10.262   5.024   2.317 -0.1012 -0.4571  1.0781
  594MOL0     C80083  10.182   4.980   2.193 -0.2850  0.4250  0.3539
  594MOL0     C80084  10.335   5.149   2.332 -0.5708  0.1020  0.2181
  594MOL0     C80085  10.311   5.268   2.254 -0.5978  0.3021 -0.2921
  594MOL0     O80086  10.412   5.353   2.226  0.7330  0.3580 -0.3147
  594MOL0     C80087  10.387   5.460   2.141  0.1127 -0.1059  0.1605
  594MOL0     C80088  10.325   5.580   2.182  0.0425  0.7536 -0.1790
  594MOL0     C80089  10.296   5.686   2.101  0.1503 -0.1273 -0.0860
  594MOL0     C80090  10.324   5.679   1.960 -0.6340  0.1681 -0.1282
  594MOL0     O80091  10.280   5.783   1.890 -0.9600 -0.9252 -0.5192
  594MOL0     C80092  10.285   5.770   1.750 -0.6489  0.0051 -0.0611
  594MOL0     C80093  10.204   5.875   1.679 -0.6575  0.7525 -0.5131
  594MOL0     C80094  10.174   5.997   1.761  0.0975  0.0970  0.1669
  594MOL0     C80095  10.139   6.132   1.691  0.3245  0.7742  0.6021
  594MOL0     C80096  10.069   6.242   1.773  0.5132  0.1155 -0.1572
  594MOL0     C80097  10.042   6.366   1.693  0.7022  0.5906 -0.3290
  594MOL0     C80098   9.986   6.475   1.787  0.9251 -0.9495 -0.5422
  594MOL0     C80099   9.941   6.591   1.701  0.2573 -0.1428  0.4308
  594MOL0    Cl80100   9.846   6.720   1.801  0.0292 -0.0389 -0.3386
  594MOL0     C80101  10.396   5.565   1.911  0.2417  0.3373 -1.2579
  594MOL0     C80102  10.418   5.454   2.000  0.2693 -0.6511 -0.0661
  594MOL0     O80103  10.192   5.287   2.224 -0.0383  0.5033 -0.1483
  594MOL0     C80104  10.409   5.170   2.450  0.4922 -0.3371  1.2794
  594MOL0     C80105  10.405   5.081   2.558 -0.4667 -0.0518  0.3927
  594MOL0     N80106  10.264   4.271   2.833  0.0867 -0.3412  0.4489
  594MOL0     N80107  10.208   4.165   2.779  0.0624 -0.0599  0.1497
  594MOL0     C80108   9.663   4.268   1.604  0.1988  1.3566  0.6961
  594MOL0     C80109   9.546   4.266   1.532 -0.8013  0.6807 -0.0656
  594MOL0     C80110   9.135   4.201   1.386  1.1799  0.3791  1.0291
  594MOL0     C80111   9.059   4.088   1.333 -0.2671 -0.2791  0.2788
  594MOL0     C80112   8.943   4.095   1.260  0.5299 -0.4796  0.7071
  594MOL0     C80113   8.887   4.214   1.222 -0.7192  0.3393 -0.0806
  594MOL0     O80114   8.782   4.217   1.138  0.2732  0.0507  0.5413
  594MOL0     C80115   8.756   4.340   1.071  1.2918  0.6090  1.2200
  594MOL0     C80116   8.635   4.336   0.979 -0.6749  0.7439  0.5733
  594MOL0     C80117   8.660   4.251   0.850 -0.3192  0.9536 -1.2752
  594MOL0     C80118   8.718   4.346   0.746 -0.9553  0.9214 -0.5414
  594MOL0     C80119   8.750   4.276   0.629  0.4939  0.9288  0.1306
  594MOL0     C80120   8.760   4.202   0.539  0.9130 -0.7817  0.1232
  594MOL0     C80121   8.956   4.336   1.273  0.3877  0.5452  0.9510
  594MOL0     C80122   9.075   4.327   1.361  0.2928 -1.0138  0.1666
  594MOL0     H80123   9.334   4.346   1.784  1.0930 -0.3773  2.0137
  594MOL0     H80124   9.556   4.373   1.912 -0.6481  0.8206 -0.4435
  594MOL0     H80125   9.872   4.136   1.694  1.2625  1.0224 -2.0472
  594MOL0     H80126   9.941   4.293   1.675  0.1287  0.4360  0.3603
  594MOL0     H80127  10.095   4.161   1.830 -1.2479 -1.4544 -1.6704
  594MOL0     H80128  10.033   4.309   1.907 -1.2175  1.1326 -0.6744
  594MOL0     H80129   9.874   4.202   2.039  1.7591  1.2151 -0.7570
  594MOL0     H80130   9.900   4.048   1.951  0.5286  0.2275 -2.1582
  594MOL0     H80131  10.139   4.072   2.015 -0.0618  0.3688 -0.7499
  594MOL0     H80132  10.113   4.205   2.130  0.3755 -0.6529  0.7093
  594MOL0     H80133   9.932   4.076   2.246  0.9071 -0.7000  2.6253
  594MOL0     H80134   9.984   3.922   2.166  1.5959 -0.4996 -0.8438
  594MOL0     H80135  10.081   3.902   2.375  2.2509 -0.4406  0.1884
  594MOL0     H80136  10.206   3.975   2.272  1.2389  0.8541  0.3776
  594MOL0     H80137  10.195   4.188   2.360 -1.0436  0.5695  0.1275
  594MOL0     H80138  10.038   4.159   2.445 -0.2369 -1.5796  2.2769
  594MOL0     H80139  10.302   4.000   2.512 -0.3121 -1.5264  1.8838
  594MOL0     H80140  10.146   3.982   2.584 -0.0521 -0.7141 -2.5229
  594MOL0     H80141  10.387   4.266   2.522  1.4840 -0.0689  0.5107
  594MOL0     H80142  10.468   4.454   2.817  1.1189 -0.4177 -0.0139
  594MOL0     H80143  10.425   4.496   2.637 -0.2746 -0.1544  0.0895
  594MOL0     H80144  10.246   4.564   2.864  2.9010 -2.4738  1.3756
  594MOL0     H80145  10.243   4.607   2.689  0.2628 -3.3946 -0.9534
  594MOL0     H80146  10.485   4.685   2.863 -1.7897 -1.3380 -1.0527
  594MOL0     H80147  10.339   4.773   2.897 -0.8625  1.5570 -1.1704
  594MOL0     H80148  10.527   4.786   2.646  0.0736 -3.1206  1.1982
  594MOL0     H80149  10.466   4.903   2.762  3.8424  0.1876 -2.3023
  594MOL0     H80150  10.200   4.850   2.420  0.9265 -0.0459 -0.4872
  594MOL0     H80151  10.145   4.877   2.204 -0.7735  0.1566 -2.9369
  594MOL0     H80152  10.087   5.028   2.168 -0.0219 -0.8511 -3.8958
  594MOL0     H80153  10.248   4.979   2.105  0.2572 -1.3773  0.7212
  594MOL0     H80154  10.286   5.575   2.283 -3.0614  1.5057 -1.2080
  594MOL0     H80155  10.244   5.771   2.144 -0.6831 -0.4872 -0.3513
  594MOL0     H80156  10.390   5.782   1.721 -0.7307  2.8093  0.4923
  594MOL0     H80157  10.239   5.675   1.721  0.6497 -1.1146  1.4463
  594MOL0     H80158  10.249   5.918   1.589 -0.8897  0.6669 -0.6720
  594MOL0     H80159  10.106   5.827   1.667  0.7225 -2.3047 -0.4501
  594MOL0     H80160  10.263   6.013   1.822 -0.7934  1.7152  1.1337
  594MOL0     H80161  10.084   5.967   1.816 -1.4981  0.1549 -2.2275
  594MOL0     H80162  10.236   6.163   1.652  1.6296 -1.8430  1.5213
  594MOL0     H80163  10.072   6.085   1.618 -1.7490  0.4024  2.6296
  594MOL0     H80164  10.126   6.271   1.861 -0.3588  1.3866  0.0133
  594MOL0     H80165   9.970   6.204   1.800  0.4060 -2.5800 -3.5670
  594MOL0     H80166  10.133   6.413   1.655  0.2963  2.6312  1.0411
  594MOL0     H80167   9.967   6.350   1.615  2.6728  2.2087 -2.6976
  594MOL0     H80168  10.058   6.516   1.858  0.9353  0.5963 -1.3959
  594MOL0     H80169   9.888   6.448   1.828  0.2807  3.4278  1.4142
  594MOL0     H80170   9.873   6.568   1.618  0.3003  3.8434 -0.9522
  594MOL0     H80171  10.030   6.631   1.651  2.1796 -2.5558  1.7244
  594MOL0     H80172  10.429   5.565   1.807  2.2719 -0.8976 -0.6918
  594MOL0     H80173  10.457   5.360   1.961 -0.2553 -1.1489  0.5603
  594MOL0     H80174  10.470   5.260   2.457  1.0982 -0.8649  4.4413
  594MOL0     H80175  10.453   5.102   2.653 -2.7219  0.2738  1.5252
  594MOL0     H80176   9.755   4.234   1.556  0.6874 -1.7403  3.4253
  594MOL0     H80177   9.531   4.228   1.432  2.3909 -2.5193  0.4623
  594MOL0     H80178   9.105   3.992   1.353 -0.3627 -0.8339 -1.9169
  594MOL0     H80179   8.908   4.002   1.218  0.0208  1.0720 -2.5943
  594MOL0     H80180   8.733   4.412   1.150  0.0014  0.8185  0.6799
  594MOL0     H80181   8.844   4.372   1.015  0.6887  1.9673  1.0116
  594MOL0     H80182   8.608   4.437   0.947  0.2676  1.1156  0.9228
  594MOL0     H80183   8.541   4.297   1.019 -0.6979  0.4132  0.2028
  594MOL0     H80184   8.570   4.199   0.816  0.4257  0.4574 -2.5636
  594MOL0     H80185   8.734   4.176   0.877 -0.8363  0.9086  0.1088
  594MOL0     H80186   8.818   4.386   0.766 -0.5659  0.2465 -1.0925
  594MOL0     H80187   8.642   4.422   0.727 -2.4594 -0.6620 -1.0947
  594MOL0     H80188   8.743   4.133   0.459 -0.2606  2.4712 -2.6483
  594MOL0     H80189   8.924   4.436   1.246  2.6707  1.0360 -0.2348
  594MOL0     H80190   9.126   4.413   1.402 -0.8673 -0.9877  1.6577
  595MOL0     O80191  10.964   1.564   3.380  0.3760  0.5747 -1.1993
  595MOL0     C80192  10.994   1.543   3.262 -0.6033  0.2921 -0.6118
  595MOL0     O80193  11.012   1.419   3.202 -0.9099  1.2485  0.2413
  595MOL0     C80194  11.024   1.314   3.287 -0.2492  0.0920 -0.6162
  595MOL0     C80195  10.920   1.231   3.333 -0.1103  0.0180  0.5236
  595MOL0     C80196  10.950   1.115   3.403  0.2910 -0.0030  0.1304
  595MOL0     C80197  11.073   1.088   3.446 -0.3528 -0.1549 -0.8376
  595MOL0     O80198  11.108   0.976   3.515  0.3440  0.1378 -0.2876
  595MOL0     C80199  11.008   0.893   3.585 -0.5689 -0.0299 -0.2041
  595MOL0     C80200  11.082   0.791   3.680  0.2160  0.0003  0.4441
  595MOL0     C80201  10.988   0.697   3.765 -0.5542  0.8215 -0.6366
  595MOL0     C80202  10.876   0.624   3.696  1.1286 -1.1285 -0.9421
  595MOL0     C80203  10.814   0.520   3.787  0.0719 -0.0892 -0.1583
  595MOL0     C80204  10.759   0.579   3.921  0.7666 -0.8761 -0.0611
  595MOL0     C80205  10.730   0.463   4.016  0.3786  0.0458  0.2883
  595MOL0     C80206  10.663   0.517   4.139  0.4690  0.3793  0.3692
  595MOL0     N80207  10.598   0.405   4.206 -0.8174  0.3125 -1.0296
  595MOL0     C80208  10.464   0.395   4.215 -0.2087 -0.1941 -0.0373
  595MOL0     C80209  10.432   0.302   4.314 -0.2903  1.2112 -0.3468
  595MOL0     C80210  10.296   0.260   4.357 -0.5804  0.6612 -0.0137
  595MOL0     C80211  10.178   0.277   4.260  0.0328 -1.8899 -0.3534
  595MOL0     C80212  10.049   0.212   4.313  0.7084  0.7732  0.3484
  595MOL0     C80213   9.992   0.127   4.204  0.9436  0.5469  0.4549
  595MOL0     O80214  10.080   0.018   4.162  0.3230  0.2485  0.0616
  595MOL0     C80215  10.046  -0.055   4.050 -0.9908  0.4384  1.0757
  595MOL0     C80216   9.929  -0.039   3.980  0.8386  0.1889 -0.6299
  595MOL0     C80217   9.888  -0.117   3.879  0.0473  0.5114  0.8610
  595MOL0     C80218   9.754  -0.092   3.818  0.2362  0.7783  0.4556
  595MOL0     C80219   9.973  -0.220   3.844  0.3341  0.3743  0.4193
  595MOL0     C80220   9.938  -0.302   3.729 -0.0242 -0.8188  0.3027
  595MOL0     O80221   9.852  -0.404   3.742 -0.2874  0.5084 -0.2245
  595MOL0     C80222   9.811  -0.480   3.634  0.1688  0.2474 -0.4925
  595MOL0     C80223   9.893  -0.554   3.559 -0.5335  0.1901 -0.2624
  595MOL0     C80224   9.852  -0.620   3.440 -0.0630  0.2811  0.5042
  595MOL0     C80225   9.714  -0.612   3.406 -0.3718 -0.1986  0.3587
  595MOL0     O80226   9.648  -0.665   3.296  0.0672  0.3068  0.2765
  595MOL0     C80227   9.732  -0.688   3.183  0.2491  0.0190 -0.3244
  595MOL0     C80228   9.645  -0.699   3.064 -0.2196  0.8947  0.6771
  595MOL0     C80229   9.608  -0.562   3.008 -0.0518  0.3315 -0.1566
  595MOL0     C80230   9.568  -0.586   2.859 -0.0106  1.1801 -0.6211
  595MOL0     C80231   9.607  -0.466   2.769  0.7357 -0.7215 -0.4532
  595MOL0     C80232   9.748  -0.464   2.710  0.2969  0.6533 -0.3639
  595MOL0     C80233   9.789  -0.318   2.674  0.2206  0.3889  0.1010
  595MOL0     C80234   9.914  -0.306   2.592 -0.0242 -0.5686 -0.0039
  595MOL0    Cl80235  10.061  -0.382   2.689 -0.0503  0.0198  0.1378
  595MOL0     C80236   9.635  -0.542   3.490  0.3032  0.2545  0.8936
  595MOL0     C80237   9.681  -0.463   3.593 -0.4591 -0.3870  0.8604
  595MOL0     O80238   9.993  -0.273   3.621  0.4538  0.1371 -0.5762
  595MOL0     C80239  10.105  -0.235   3.893  1.1119 -0.4027 -0.6942
  595MOL0     C80240  10.134  -0.160   4.008  0.5735 -0.2610  0.4949
  595MOL0     N80241  10.558   0.245   4.342 -0.0277  0.3650 -0.9271
  595MOL0     N80242  10.656   0.311   4.288  0.5184  0.3315  0.0332
  595MOL0     C80243  11.176   1.177   3.404  0.4678  0.2365  0.5542
  595MOL0     C80244  11.152   1.296   3.338  0.4807 -0.1174  0.0775
  595MOL0     C80245  11.009   1.658   3.176  0.3266  0.4625  0.3268
  595MOL0     C80246  11.061   1.646   3.042 -0.2071 -0.1201  0.2817
  595MOL0     C80247  11.058   1.762   2.965  0.0560  0.7857 -0.6856
  595MOL0     C80248  11.009   1.888   3.009 -0.6098 -0.2400 -1.5339
  595MOL0     O80249  11.018   2.007   2.940 -0.2309 -0.2635  0.0976
  595MOL0     C80250  10.996   2.021   2.794  0.1738 -0.7188  0.7950
  595MOL0     C80251  10.867   1.967   2.726  0.3001 -0.8285  0.0310
  595MOL0     C80252  10.731   2.037   2.783 -0.3175  0.1198  0.3061
  595MOL0     C80253  10.613   1.985   2.703 -0.1558  0.4968 -0.4031
  595MOL0     C80254  10.616   2.046   2.568 -0.1488  0.3289 -0.3082
  595MOL0     C80255  10.607   2.100   2.463  0.5304 -0.6605  0.7086
  595MOL0     C80256  10.969   1.899   3.143  0.2820  0.3444 -0.2503
  595MOL0     C80257  10.973   1.790   3.223 -0.7592  0.5386 -0.1681
  595MOL0     H80258  10.823   1.262   3.297  0.7529  2.6815  0.2368
  595MOL0     H80259  10.880   1.033   3.422  2.0071 -1.7897 -0.8645
  595MOL0     H80260  10.935   0.960   3.633 -0.7092 -0.7731  0.6500
  595MOL0     H80261  10.952   0.829   3.516  1.3111 -3.2801  1.0700
  595MOL0     H80262  11.135   0.727   3.608  1.6561  1.4912  0.1089
  595MOL0     H80263  11.158   0.841   3.742  0.3969  0.6681 -0.2855
  595MOL0     H80264  11.056   0.633   3.823 -0.8998  0.0847 -1.0287
  595MOL0     H80265  10.946   0.775   3.828 -0.8685  0.2351 -0.1016
  595MOL0     H80266  10.804   0.693   3.653 -0.5366 -2.4364 -0.3827
  595MOL0     H80267  10.910   0.569   3.608  0.8985  0.9437 -2.3942
  595MOL0     H80268  10.729   0.472   3.738 -1.1215  1.0854  0.6787
  595MOL0     H80269  10.897   0.450   3.803  1.5763  1.4305 -1.0427
  595MOL0     H80270  10.824   0.654   3.967 -1.1867  1.2552 -0.5977
  595MOL0     H80271  10.662   0.625   3.902 -0.8924 -2.5578  3.4247
  595MOL0     H80272  10.663   0.391   3.968 -3.1509  0.3356  4.1891
  595MOL0     H80273  10.821   0.418   4.057 -0.0646 -0.7152  0.4625
  595MOL0     H80274  10.595   0.599   4.115  1.3819  1.4590  1.3324
  595MOL0     H80275  10.748   0.565   4.188  0.6664  3.0778 -2.3077
  595MOL0     H80276  10.395   0.453   4.155 -0.2978  1.1233  1.2756
  595MOL0     H80277  10.306   0.155   4.388  1.6569  0.8683  0.1090
  595MOL0     H80278  10.272   0.320   4.445  2.9589 -0.6587  2.0273
  595MOL0     H80279  10.217   0.248   4.162  1.4987  4.4000 -2.0290
  595MOL0     H80280  10.157   0.382   4.238 -4.3751 -2.0887  1.7883
  595MOL0     H80281   9.975   0.288   4.342  1.6344  1.7920  0.1234
  595MOL0     H80282  10.066   0.172   4.412 -1.4578 -1.2927 -0.0339
  595MOL0     H80283   9.959   0.191   4.122 -0.5213 -1.2970 -0.4921
  595MOL0     H80284   9.901   0.093   4.255 -0.1988  2.5350 -0.1266
  595MOL0     H80285   9.862   0.043   4.003 -3.5219 -3.0842 -0.5568
  595MOL0     H80286   9.707  -0.191   3.816  2.4913 -0.3972 -2.5065
  595MOL0     H80287   9.698  -0.030   3.888 -2.3644 -1.9083  0.9278
  595MOL0     H80288   9.752  -0.057   3.714 -4.9843  0.1240  0.0628
  595MOL0     H80289   9.997  -0.544   3.589 -0.3080 -4.4811  1.4429
  595MOL0     H80290   9.915  -0.691   3.387 -1.7027 -0.7556 -0.1662
  595MOL0     H80291   9.811  -0.615   3.160 -0.3851  0.0592 -2.6195
  595MOL0     H80292   9.775  -0.787   3.200 -2.1931 -0.8626  1.3164
  595MOL0     H80293   9.710  -0.759   3.000 -0.1785  0.5438  1.0471
  595MOL0     H80294   9.553  -0.758   3.075 -1.0525  1.7135 -1.2539
  595MOL0     H80295   9.703  -0.507   3.013  0.8866 -1.1386 -0.8878
  595MOL0     H80296   9.530  -0.512   3.066 -2.4173 -0.2628 -2.6460
  595MOL0     H80297   9.618  -0.671   2.814 -0.8014  1.2571 -1.6892
  595MOL0     H80298   9.460  -0.607   2.858  0.0767  0.3747  1.6412
  595MOL0     H80299   9.586  -0.372   2.821  5.1409  0.6866 -0.8009
  595MOL0     H80300   9.541  -0.471   2.682 -1.6456 -1.4109  1.3070
  595MOL0     H80301   9.812  -0.517   2.781 -2.4095 -4.3379 -1.1850
  595MOL0     H80302   9.750  -0.534   2.625 -0.7511 -0.1288  0.2330
  595MOL0     H80303   9.798  -0.276   2.774 -1.7589 -0.8448  0.8685
  595MOL0     H80304   9.710  -0.271   2.615  0.1090  0.7524  0.5393
  595MOL0     H80305   9.927  -0.198   2.580  1.1338 -0.2014  3.3018
  595MOL0     H80306   9.901  -0.359   2.497 -3.5508  2.2070 -1.2560
  595MOL0     H80307   9.535  -0.539   3.448 -0.0006 -2.5894  1.2516
  595MOL0     H80308   9.613  -0.398   3.647 -0.0928 -0.5745  1.5570
  595MOL0     H80309  10.156  -0.326   3.862 -1.4875 -1.7537 -1.3732
  595MOL0     H80310  10.219  -0.179   4.072  1.2324 -1.3655 -0.6799
  595MOL0     H80311  11.277   1.153   3.434  0.4024 -2.2973 -0.9355
  595MOL0     H80312  11.232   1.359   3.300  0.0465 -0.3238 -1.2198
  595MOL0     H80313  11.085   1.546   3.008  1.0126  0.8234 -1.8772
  595MOL0     H80314  11.108   1.763   2.869  0.4799 -0.7642 -0.5051
  595MOL0     H80315  10.980   2.121   2.753 -2.7077 -2.3954 -2.8694
  595MOL0     H80316  11.079   1.976   2.739 -1.1433 -1.7142 -0.4611
  595MOL0     H80317  10.879   1.859   2.742  3.4106 -0.7118 -0.6960
  595MOL0     H80318  10.873   1.981   2.617  0.0514 -3.5874 -0.4102
  595MOL0     H80319  10.740   2.146   2.785  1.9769 -0.0326  1.0184
  595MOL0     H80320  10.720   2.016   2.889  2.8899  0.1087  0.7525
  595MOL0     H80321  10.534   2.034   2.761  0.3451 -1.8737  2.4545
  595MOL0     H80322  10.592   1.879   2.714  0.8650  0.3106 -0.1912
  595MOL0     H80323  10.616   2.152   2.369  1.4566  0.5005  1.4088
  595MOL0     H80324  10.940   1.996   3.182  1.2208 -0.0777  1.5821
  595MOL0     H80325  10.930   1.787   3.322  0.9358  0.1234  0.5746
  596MOL0     O80326   6.426  10.035   0.544 -0.7936  0.2730  0.4689
  596MOL0     C80327   6.378  10.026   0.656 -0.3815 -0.5988 -0.4310
  596MOL0     O80328   6.280  10.103   0.695 -0.6427  0.3149  0.5139
  596MOL0     C80329   6.236  10.206   0.615  1.2720  0.1555 -0.2038
  596MOL0     C80330   6.296  10.333   0.620 -0.3480 -0.7407  0.3393
  596MOL0     C80331   6.263  10.437   0.531 -0.3239 -1.1513  1.0646
  596MOL0     C80332   6.174  10.409   0.430  1.4086  0.8088  0.9483
  596MOL0     O80333   6.143  10.509   0.335 -0.2180 -0.2108 -0.6116
  596MOL0     C80334   6.225  10.626   0.323  0.3224 -0.0346 -0.4419
  596MOL0     C80335   6.137  10.728   0.260  0.2194 -0.5115  0.2740
  596MOL0     C80336   6.026  10.753   0.362 -0.3200 -0.7943  0.3959
  596MOL0     C80337   5.917  10.855   0.310 -0.0183  0.6781  0.1337
  596MOL0     C80338   5.795  10.864   0.412 -0.7169  0.6312 -0.9435
  596MOL0     C80339   5.666  10.916   0.355  0.3302  0.0918 -0.0309
  596MOL0     C80340   5.594  10.808   0.272  0.1724  0.5810 -0.4245
  596MOL0     C80341   5.474  10.871   0.205  0.2136  0.5524  0.0359
  596MOL0     N80342   5.503  10.978   0.119  0.2164 -0.8178  0.0616
  596MOL0     C80343   5.446  11.105   0.139  1.1510  0.3955  0.5730
  596MOL0     C80344   5.462  11.168   0.017  0.7709 -0.8102 -0.0545
  596MOL0     C80345   5.409  11.299  -0.025 -0.5141 -0.3444  0.3288
  596MOL0     C80346   5.260  11.306  -0.031  0.5814 -0.0607  0.8407
  596MOL0     C80347   5.194  11.206  -0.122 -0.4787  0.0341  0.0027
  596MOL0     C80348   5.101  11.261  -0.226  0.8698 -0.5841  0.4295
  596MOL0     O80349   5.180  11.324  -0.334  0.1245 -0.7104  0.2295
  596MOL0     C80350   5.129  11.437  -0.393  0.4225 -0.3638  0.9555
  596MOL0     C80351   5.202  11.483  -0.502  0.8617  0.5154 -0.1260
  596MOL0     C80352   5.169  11.597  -0.567  0.6082 -1.0171  1.0755
  596MOL0     C80353   5.271  11.650  -0.669 -0.6181 -0.1270  0.3966
  596MOL0     C80354   5.056  11.671  -0.529  0.9176  0.6464  0.4866
  596MOL0     C80355   5.007  11.799  -0.597  0.4429 -0.1390  0.3469
  596MOL0     O80356   4.968  11.901  -0.517 -0.4132  0.2142 -0.2114
  596MOL0     C80357   4.940  12.019  -0.584  1.5879 -0.5041  0.3409
  596MOL0     C80358   5.037  12.097  -0.642 -0.0610  0.1487 -0.1047
  596MOL0     C80359   5.006  12.223  -0.703 -0.1978 -0.5913  0.1319
  596MOL0     C80360   4.870  12.268  -0.712  0.9955 -0.7542  0.4794
  596MOL0     O80361   4.854  12.390  -0.779  0.2445 -0.6653 -0.0912
  596MOL0     C80362   4.721  12.437  -0.792 -0.0200  0.4759  0.0501
  596MOL0     C80363   4.730  12.584  -0.842  0.0772  0.6182  0.2676
  596MOL0     C80364   4.609  12.668  -0.796  0.0671 -0.4383  0.4280
  596MOL0     C80365   4.582  12.775  -0.898  0.0602 -0.2714 -0.2096
  596MOL0     C80366   4.456  12.851  -0.850 -0.6282 -0.8729 -0.1031
  596MOL0     C80367   4.475  12.948  -0.724  0.5025 -0.2847  0.0396
  596MOL0     C80368   4.354  13.043  -0.704 -0.2499  0.3908  0.0618
  596MOL0     C80369   4.402  13.169  -0.638  0.2686  1.1473 -0.0732
  596MOL0    Cl80370   4.283  13.306  -0.631 -0.3485  0.0259  0.1564
  596MOL0     C80371   4.774  12.188  -0.653 -0.1998  0.8064 -0.2237
  596MOL0     C80372   4.806  12.063  -0.597 -0.8479 -0.0611  0.4330
  596MOL0     O80373   4.997  11.787  -0.721  0.3301 -0.5038  0.3571
  596MOL0     C80374   4.969  11.625  -0.433  1.2910 -0.6668 -0.0785
  596MOL0     C80375   5.012  11.512  -0.360  0.1951  0.0629 -0.4382
  596MOL0     N80376   5.528  11.088  -0.076 -0.2776 -0.0869  0.1298
  596MOL0     N80377   5.546  10.969  -0.010  0.8549  0.9468  0.6641
  596MOL0     C80378   6.104  10.285   0.433  0.1431 -0.6072 -0.2871
  596MOL0     C80379   6.138  10.187   0.526  0.6676  0.3534 -0.4942
  596MOL0     C80380   6.451   9.939   0.746  1.0283 -0.0472  0.3102
  596MOL0     C80381   6.520   9.829   0.702 -0.0574 -0.4160 -0.4683
  596MOL0     C80382   6.564   9.736   0.804 -0.0076 -1.3315  0.6367
  596MOL0     C80383   6.551   9.759   0.943  0.4450  0.2021  0.1438
  596MOL0     O80384   6.582   9.654   1.024 -1.3799 -0.7345 -0.2054
  596MOL0     C80385   6.591   9.665   1.163  0.3828  0.3607 -0.8917
  596MOL0     C80386   6.477   9.619   1.243  0.4887 -0.1102  0.0115
  596MOL0     C80387   6.517   9.609   1.393 -0.5543 -0.0066 -0.7040
  596MOL0     C80388   6.393   9.560   1.480  0.0958  1.1691 -0.2405
  596MOL0     C80389   6.438   9.467   1.591  2.0271 -0.2738 -0.4068
  596MOL0     C80390   6.485   9.391   1.669  0.2989 -0.0045  0.7583
  596MOL0     C80391   6.478   9.869   0.980 -0.1508 -0.1234 -1.1637
  596MOL0     C80392   6.443   9.968   0.880  0.2115  0.0918  0.4867
  596MOL0     H80393   6.367  10.361   0.697 -0.1616 -1.5090  0.4559
  596MOL0     H80394   6.311  10.533   0.550  0.2979 -1.6813  2.2670
  596MOL0     H80395   6.252  10.675   0.417 -0.2042  1.2576 -0.9259
  596MOL0     H80396   6.314  10.611   0.262 -2.1393 -2.0542 -3.9234
  596MOL0     H80397   6.197  10.812   0.223  3.7509 -2.8808  0.0798
  596MOL0     H80398   6.090  10.693   0.168 -2.1744  4.9894 -0.9792
  596MOL0     H80399   5.972  10.663   0.392  1.7042 -2.5240 -0.8201
  596MOL0     H80400   6.076  10.795   0.450  5.4793 -1.5744 -2.0736
  596MOL0     H80401   5.953  10.956   0.288 -0.3521  0.3360 -2.3503
  596MOL0     H80402   5.877  10.815   0.216 -1.5592 -0.6483  1.3109
  596MOL0     H80403   5.773  10.763   0.449  2.6220 -0.4565 -1.5997
  596MOL0     H80404   5.829  10.922   0.499  1.0652 -1.1493 -0.3801
  596MOL0     H80405   5.610  10.944   0.445  1.8446  1.1627  0.6225
  596MOL0     H80406   5.684  11.001   0.289 -0.0549 -1.0351 -1.6216
  596MOL0     H80407   5.656  10.747   0.205  0.6145 -1.2603  1.5391
  596MOL0     H80408   5.549  10.735   0.340  0.0446  0.3945 -0.7075
  596MOL0     H80409   5.400  10.901   0.280 -1.6109 -1.3982 -0.8833
  596MOL0     H80410   5.419  10.797   0.146  0.4791  0.6076 -0.2797
  596MOL0     H80411   5.395  11.131   0.231  1.9508  2.0307  0.5845
  596MOL0     H80412   5.433  11.382   0.042 -0.5605 -0.9443  1.0981
  596MOL0     H80413   5.449  11.316  -0.125 -1.7302  0.0036 -0.1187
  596MOL0     H80414   5.225  11.401  -0.071 -2.7341 -2.0852 -1.6871
  596MOL0     H80415   5.230  11.303   0.074  1.6506 -2.3198  1.1539
  596MOL0     H80416   5.153  11.135  -0.049  4.1776 -0.3882  2.6540
  596MOL0     H80417   5.272  11.155  -0.179 -0.9978  0.5260 -1.1850
  596MOL0     H80418   5.031  11.333  -0.183 -1.0964 -1.7518 -0.7257
  596MOL0     H80419   5.041  11.181  -0.269  2.5024 -2.0399  0.7546
  596MOL0     H80420   5.294  11.430  -0.527 -0.3831 -1.5622 -0.4781
  596MOL0     H80421   5.223  11.685  -0.761 -2.2267 -2.3545  0.2906
  596MOL0     H80422   5.340  11.724  -0.628  1.1390 -1.2551 -0.4204
  596MOL0     H80423   5.331  11.564  -0.702  0.1001 -0.0958  1.5677
  596MOL0     H80424   5.143  12.071  -0.645  2.0516  6.5052  2.5165
  596MOL0     H80425   5.075  12.284  -0.760  0.1309  0.1458  1.2879
  596MOL0     H80426   4.669  12.371  -0.862 -0.1073 -1.0506  1.4873
  596MOL0     H80427   4.674  12.428  -0.693 -0.3468 -1.5694 -0.2435
  596MOL0     H80428   4.811  12.642  -0.796 -0.8878  1.9027  0.4263
  596MOL0     H80429   4.739  12.593  -0.950  0.0540 -1.4263  0.0543
  596MOL0     H80430   4.626  12.720  -0.701 -2.4350  1.2885  0.0006
  596MOL0     H80431   4.528  12.595  -0.785 -1.4525  0.7381 -2.1089
  596MOL0     H80432   4.666  12.836  -0.932 -0.4632 -0.6123 -2.1924
  596MOL0     H80433   4.550  12.718  -0.985  1.4289 -0.4187 -0.6432
  596MOL0     H80434   4.383  12.769  -0.844  2.2510 -3.7226 -1.4711
  596MOL0     H80435   4.418  12.918  -0.928  0.2920  0.3712  0.4863
  596MOL0     H80436   4.480  12.887  -0.633  0.5065 -2.1373 -1.1433
  596MOL0     H80437   4.561  13.015  -0.725 -0.5074  1.2681  3.0782
  596MOL0     H80438   4.271  12.995  -0.651  1.3253 -2.6072  0.0694
  596MOL0     H80439   4.310  13.066  -0.802  3.4123 -1.5794 -2.2715
  596MOL0     H80440   4.491  13.218  -0.679  1.2461 -2.0743 -2.2765
  596MOL0     H80441   4.439  13.124  -0.545 -0.4196 -2.0388 -1.1924
  596MOL0     H80442   4.668  12.210  -0.648 -0.5783 -1.1348  1.7967
  596MOL0     H80443   4.737  11.994  -0.549 -0.4004 -0.8366 -0.0086
  596MOL0     H80444   4.876  11.677  -0.414 -0.9066 -1.6849 -5.9198
  596MOL0     H80445   4.942  11.479  -0.284 -1.2655  1.2709 -1.2068
  596MOL0     H80446   6.019  10.273   0.367  0.5928 -0.4713 -0.8931
  596MOL0     H80447   6.080  10.095   0.516  0.5934 -0.1872  3.5381
  596MOL0     H80448   6.537   9.798   0.600 -0.1077 -0.2680 -0.5231
  596MOL0     H80449   6.616   9.648   0.768  0.4760 -0.9208  0.3080
  596MOL0     H80450   6.675   9.604   1.196 -0.1765  0.6600  1.2247
  596MOL0     H80451   6.622   9.767   1.186 -1.4194  1.3510 -2.5400
  596MOL0     H80452   6.447   9.525   1.198  0.8129 -0.6281  0.8481
  596MOL0     H80453   6.386   9.678   1.229  1.2532  2.0722  3.1029
  596MOL0     H80454   6.542   9.704   1.440  0.4540 -0.9200  0.6599
  596MOL0     H80455   6.601   9.540   1.392 -2.5206 -2.5378 -0.6071
  596MOL0     H80456   6.321   9.512   1.414  2.2832 -0.4627 -1.5976
  596MOL0     H80457   6.347   9.649   1.525  0.3938  0.5846  1.2811
  596MOL0     H80458   6.527   9.322   1.740 -1.4513 -1.3666  0.5285
  596MOL0     H80459   6.439   9.891   1.078  1.4705 -0.8098 -0.3266
  596MOL0     H80460   6.373  10.046   0.908  2.2401  1.4985  1.9636
  597MOL0     O80461   1.492   0.673   9.363  0.3900 -0.1781 -0.0287
  597MOL0     C80462   1.451   0.562   9.325 -0.0167 -0.1861 -0.2695
  597MOL0     O80463   1.536   0.465   9.282 -0.1889  0.2203  0.1746
  597MOL0     C80464   1.669   0.478   9.297  0.1897  0.2482 -0.4421
  597MOL0     C80465   1.747   0.502   9.178  0.1353  0.2376 -0.1807
  597MOL0     C80466   1.889   0.497   9.181 -0.2592 -0.1911 -0.4127
  597MOL0     C80467   1.957   0.491   9.299  0.9495 -0.8032 -0.2826
  597MOL0     O80468   2.096   0.500   9.318 -1.0003  0.0289 -0.3396
  597MOL0     C80469   2.162   0.615   9.258 -0.3414  0.3672 -0.2184
  597MOL0     C80470   2.154   0.733   9.354 -0.6347  1.2436  0.0497
  597MOL0     C80471   2.016   0.771   9.405  0.9359  0.2427 -0.3765
  597MOL0     C80472   2.016   0.912   9.478 -0.2431  0.2920 -0.4715
  597MOL0     C80473   1.898   0.919   9.574  1.0271 -0.3822 -0.3374
  597MOL0     C80474   1.758   0.903   9.516 -0.0754  0.1730 -0.3998
  597MOL0     C80475   1.649   0.944   9.621 -0.0257  0.3696  0.0621
  597MOL0     C80476   1.661   0.845   9.744 -0.2933 -0.2235  0.1599
  597MOL0     N80477   1.529   0.822   9.808  0.3609  0.1196  0.2620
  597MOL0     C80478   1.411   0.889   9.776  0.0460 -0.0608 -0.2536
  597MOL0     C80479   1.322   0.799   9.822  0.3429 -0.4489 -0.6567
  597MOL0     C80480   1.171   0.831   9.801 -0.9141  0.5340  0.0146
  597MOL0     C80481   1.102   0.920   9.905 -0.9176 -1.1257 -0.5575
  597MOL0     C80482   1.099   0.857  10.033  0.4395  0.9554 -0.8504
  597MOL0     C80483   1.079   0.706  10.038  0.1860 -0.9988 -1.2679
  597MOL0     O80484   0.965   0.648   9.971  0.2910 -0.6182  0.0742
  597MOL0     C80485   0.849   0.662  10.046  0.0555 -0.2816  0.6024
  597MOL0     C80486   0.793   0.798  10.045  0.4894 -0.5900 -0.5275
  597MOL0     C80487   0.670   0.821  10.119  1.0360  0.2168  0.2387
  597MOL0     C80488   0.621   0.958  10.148  0.2133  0.4395 -0.4362
  597MOL0     C80489   0.594   0.705  10.155  0.5621 -0.3343 -0.7898
  597MOL0     C80490   0.466   0.702  10.221 -0.2795 -0.0459 -0.0824
  597MOL0     O80491   0.431   0.580  10.282 -0.3661  0.1476 -0.2133
  597MOL0     C80492   0.327   0.575  10.372 -0.5880  0.8369 -0.0392
  597MOL0     C80493   0.203   0.650  10.359  0.1711 -0.0465 -0.0224
  597MOL0     C80494   0.106   0.626  10.454 -0.2626 -0.3724 -0.9226
  597MOL0     C80495   0.120   0.539  10.571 -0.9176 -0.2901  0.5351
  597MOL0     O80496   0.017   0.533  10.660  0.6959 -0.0331 -0.2352
  597MOL0     C80497   0.030   0.437  10.769  0.8272 -0.1145  1.0323
  597MOL0     C80498  -0.098   0.465  10.860  0.2905 -1.1005  0.5334
  597MOL0     C80499  -0.087   0.354  10.973  0.4673 -0.5128 -1.0826
  597MOL0     C80500  -0.213   0.351  11.052  0.9476 -0.0621 -0.6201
  597MOL0     C80501  -0.190   0.253  11.174 -0.6409 -0.4096 -0.6187
  597MOL0     C80502  -0.323   0.203  11.219 -0.4300  0.8315 -0.6970
  597MOL0     C80503  -0.301   0.106  11.340 -0.2004  0.3265  0.6633
  597MOL0     C80504  -0.425   0.022  11.367 -0.3148  0.2147 -0.5288
  597MOL0    Cl80505  -0.471  -0.081  11.216  0.0550  0.0625 -0.1468
  597MOL0     C80506   0.246   0.469  10.575  0.3085  0.1063  0.2277
  597MOL0     C80507   0.343   0.486  10.475 -0.2472  0.2372  0.0487
  597MOL0     O80508   0.395   0.799  10.218  0.5881 -0.1446 -0.0626
  597MOL0     C80509   0.646   0.576  10.134  0.9138  0.3325 -0.1543
  597MOL0     C80510   0.777   0.553  10.082  1.4603  1.3756 -0.2906
  597MOL0     N80511   1.381   0.703   9.912  0.3617  0.8631 -0.8721
  597MOL0     N80512   1.508   0.718   9.896  0.1946  0.1815  0.4074
  597MOL0     C80513   1.876   0.464   9.417  0.0328 -0.2221 -0.4255
  597MOL0     C80514   1.734   0.459   9.419 -0.3330  0.0978  0.8124
  597MOL0     C80515   1.307   0.517   9.353 -0.0889 -0.1048 -0.3591
  597MOL0     C80516   1.214   0.604   9.426  0.7144  0.4413 -0.5197
  597MOL0     C80517   1.078   0.566   9.434 -0.3348  0.1141 -0.0146
  597MOL0     C80518   1.029   0.445   9.378 -0.9700  0.6391  0.2938
  597MOL0     O80519   0.895   0.425   9.398  0.2560 -0.4725  0.2406
  597MOL0     C80520   0.822   0.311   9.333 -0.3493  0.3330  0.2878
  597MOL0     C80521   0.766   0.375   9.203 -0.2486  0.4033  0.0225
  597MOL0     C80522   0.665   0.274   9.155  0.2559 -0.6002 -0.4079
  597MOL0     C80523   0.598   0.304   9.014 -0.8358  0.8986  1.4644
  597MOL0     C80524   0.500   0.202   8.981  0.2065 -0.0569 -0.0795
  597MOL0     C80525   0.410   0.125   8.946  0.3810  0.2136  0.5503
  597MOL0     C80526   1.122   0.361   9.312  0.0383 -0.1935  0.1371
  597MOL0     C80527   1.254   0.390   9.307  0.4277  0.6301 -0.1937
  597MOL0     H80528   1.691   0.498   9.084  0.8025 -1.0613 -0.5557
  597MOL0     H80529   1.941   0.514   9.087  0.8055 -0.0799  0.1899
  597MOL0     H80530   2.265   0.584   9.239 -0.1492  1.5713 -1.2937
  597MOL0     H80531   2.120   0.633   9.158 -2.1069  1.4616  0.6548
  597MOL0     H80532   2.224   0.706   9.434 -1.7397 -0.5240  0.4778
  597MOL0     H80533   2.207   0.814   9.303  2.1249 -0.2646  0.3032
  597MOL0     H80534   1.949   0.771   9.318  2.0943 -0.1498 -1.2956
  597MOL0     H80535   1.983   0.700   9.481 -2.3662  3.0304  1.0857
  597MOL0     H80536   2.114   0.904   9.526 -1.5998 -2.5405  2.2012
  597MOL0     H80537   2.016   0.995   9.407 -1.8781  0.4656 -0.2987
  597MOL0     H80538   1.911   0.833   9.640 -0.0214  0.5541  1.1326
  597MOL0     H80539   1.907   1.004   9.642 -0.0193 -2.1382  2.1104
  597MOL0     H80540   1.754   0.973   9.433  1.9199  1.7383  0.7240
  597MOL0     H80541   1.753   0.802   9.475 -0.1724  0.1558 -0.3452
  597MOL0     H80542   1.659   1.052   9.638  0.3823  0.3304  0.0848
  597MOL0     H80543   1.550   0.927   9.579  1.3308 -0.2043 -3.2196
  597MOL0     H80544   1.735   0.895   9.807  1.8132  1.5918 -3.4462
  597MOL0     H80545   1.710   0.753   9.712  3.6741  1.6638  0.2108
  597MOL0     H80546   1.393   0.982   9.723 -1.0482  0.1870  0.5136
  597MOL0     H80547   1.148   0.884   9.708  1.9572  0.5152 -0.7734
  597MOL0     H80548   1.119   0.735   9.790 -0.0181  0.0999 -0.5229
  597MOL0     H80549   1.007   0.961   9.869 -0.5022 -0.1504 -0.5631
  597MOL0     H80550   1.166   1.007   9.920 -1.7025 -0.3170 -1.6898
  597MOL0     H80551   1.025   0.899  10.101 -0.5768 -2.4187  0.3320
  597MOL0     H80552   1.197   0.866  10.079  1.8341 -1.7724 -2.9601
  597MOL0     H80553   1.067   0.693  10.146 -2.7760 -1.4849 -1.5802
  597MOL0     H80554   1.175   0.658  10.013  0.4225 -0.4428 -1.4551
  597MOL0     H80555   0.838   0.891  10.014 -0.2572 -0.6384 -1.8264
  597MOL0     H80556   0.563   0.970  10.240  0.7289  1.2988 -0.2076
  597MOL0     H80557   0.718   1.007  10.159  2.1957 -2.9251 -1.7366
  597MOL0     H80558   0.568   0.989  10.057  1.3835  3.5037 -0.2087
  597MOL0     H80559   0.182   0.697  10.263  0.7845  0.8001  0.2419
  597MOL0     H80560   0.015   0.682  10.434 -1.3970 -2.5374 -2.1744
  597MOL0     H80561   0.024   0.335  10.731  2.0333 -0.6209  2.1171
  597MOL0     H80562   0.128   0.441  10.820  1.1120 -5.6207  1.4518
  597MOL0     H80563  -0.087   0.563  10.907  1.6806 -0.6688 -0.6239
  597MOL0     H80564  -0.189   0.458  10.799  2.0764 -1.5266 -2.2675
  597MOL0     H80565  -0.002   0.376  11.038 -1.4085  0.6794  1.1293
  597MOL0     H80566  -0.080   0.256  10.924  1.6810 -1.2587  0.5197
  597MOL0     H80567  -0.241   0.447  11.097  0.1725 -0.7351  0.3971
  597MOL0     H80568  -0.299   0.316  10.994  0.1643 -0.8683  0.9703
  597MOL0     H80569  -0.128   0.300  11.251  1.4806 -1.7569 -1.4066
  597MOL0     H80570  -0.140   0.161  11.140 -0.7250  0.1431 -2.3766
  597MOL0     H80571  -0.377   0.290  11.256  0.7596  1.3313 -0.0517
  597MOL0     H80572  -0.372   0.159  11.132  0.4033  0.5779 -1.0577
  597MOL0     H80573  -0.275   0.164  11.429 -2.8690  3.5307 -0.4062
  597MOL0     H80574  -0.227   0.039  11.296 -0.4547  0.3213  0.2364
  597MOL0     H80575  -0.508   0.090  11.390  0.5133  0.8599  0.6586
  597MOL0     H80576  -0.407  -0.030  11.462  1.4936  2.5279  0.4994
  597MOL0     H80577   0.265   0.388  10.645  2.4709 -0.3697 -0.8333
  597MOL0     H80578   0.437   0.432  10.468 -1.0395 -1.0093 -1.8862
  597MOL0     H80579   0.589   0.485  10.152 -0.1590  0.7730 -1.1463
  597MOL0     H80580   0.810   0.450  10.067  2.1766  1.4736  0.5112
  597MOL0     H80581   1.940   0.466   9.505  2.0663  0.0633 -1.8462
  597MOL0     H80582   1.672   0.422   9.500 -0.5173  0.1403  0.6897
  597MOL0     H80583   1.244   0.696   9.475  0.5058  1.3629 -2.0821
  597MOL0     H80584   1.009   0.637   9.478  1.3242  0.6689  1.8125
  597MOL0     H80585   0.883   0.221   9.325  1.2053  1.0535  3.1082
  597MOL0     H80586   0.728   0.288   9.384 -0.9191 -1.0668 -1.2697
  597MOL0     H80587   0.845   0.414   9.138  1.2571  0.1436  1.6353
  597MOL0     H80588   0.709   0.460   9.241  1.9975  3.0643 -2.1847
  597MOL0     H80589   0.590   0.254   9.232 -1.2202 -0.1378 -1.6745
  597MOL0     H80590   0.726   0.184   9.147  0.2320 -0.5272 -1.5548
  597MOL0     H80591   0.668   0.325   8.932 -3.1064 -2.0881 -1.5191
  597MOL0     H80592   0.532   0.388   9.038 -0.9181  0.8771  1.3105
  597MOL0     H80593   0.342   0.045   8.924  1.5865 -0.4008 -1.1330
  597MOL0     H80594   1.088   0.266   9.272 -2.1060  0.5504  0.0673
  597MOL0     H80595   1.326   0.312   9.284 -0.5176 -0.4546  0.4111
  598MOL0     O80596   5.018   4.109   5.932  0.8337  0.2777  0.6412
  598MOL0     C80597   4.972   4.139   5.823 -0.2089 -0.0752  0.7546
  598MOL0     O80598   4.913   4.254   5.790 -0.2178 -0.6678  0.3732
  598MOL0     C80599   4.901   4.352   5.887 -0.0494 -0.6998 -0.4024
  598MOL0     C80600   4.775   4.416   5.897  0.2908 -0.5951 -0.2139
  598MOL0     C80601   4.746   4.523   5.980  0.1364  0.3171  0.6168
  598MOL0     C80602   4.847   4.579   6.062  0.2438 -0.6015  0.1730
  598MOL0     O80603   4.822   4.688   6.143 -0.2162  0.5557  0.2378
  598MOL0     C80604   4.699   4.766   6.127  0.3429  0.1652 -0.3847
  598MOL0     C80605   4.673   4.844   6.260 -0.8080 -0.7494  0.0896
  598MOL0     C80606   4.535   4.913   6.265  0.1968 -0.3035 -0.2239
  598MOL0     C80607   4.508   5.012   6.380 -0.4309 -0.3924  0.2342
  598MOL0     C80608   4.617   5.121   6.390 -0.1894  0.3962  1.1775
  598MOL0     C80609   4.560   5.235   6.469  0.1152  0.4189 -0.6800
  598MOL0     C80610   4.560   5.218   6.620  0.1647 -0.2798  0.8745
  598MOL0     C80611   4.496   5.338   6.693  0.1761 -0.3324  0.2894
  598MOL0     N80612   4.598   5.444   6.706  0.9358 -0.7402  0.0603
  598MOL0     C80613   4.722   5.445   6.758 -0.8485  1.0066  0.2246
  598MOL0     C80614   4.782   5.541   6.686 -0.9699  0.2440 -0.9362
  598MOL0     C80615   4.934   5.560   6.692  0.2271 -0.7335  0.2222
  598MOL0     C80616   4.999   5.564   6.827  0.9897  0.0157 -0.9370
  598MOL0     C80617   5.159   5.543   6.831 -0.3096 -0.2662  0.2484
  598MOL0     C80618   5.207   5.403   6.786 -0.2690 -1.0906 -0.0177
  598MOL0     O80619   5.166   5.294   6.875  0.1737 -0.5183 -0.8920
  598MOL0     C80620   5.258   5.232   6.954  1.3346  0.4229 -0.5307
  598MOL0     C80621   5.229   5.222   7.095 -0.2619  0.5302 -0.2310
  598MOL0     C80622   5.326   5.177   7.194  0.3991  0.5663 -0.9838
  598MOL0     C80623   5.279   5.169   7.333  0.1368  0.7965 -0.8707
  598MOL0     C80624   5.453   5.152   7.147 -0.1599  0.4800 -0.0144
  598MOL0     C80625   5.553   5.118   7.248 -0.8490 -0.5308 -0.2922
  598MOL0     O80626   5.550   5.180   7.370 -0.2661 -0.3777 -0.4339
  598MOL0     C80627   5.648   5.160   7.468 -0.1659 -0.2035 -0.6821
  598MOL0     C80628   5.659   5.046   7.529 -0.0983  0.2629 -0.1249
  598MOL0     C80629   5.733   5.031   7.647  0.5295 -0.0043  0.8633
  598MOL0     C80630   5.809   5.126   7.688  0.1231 -0.7689  0.0482
  598MOL0     O80631   5.891   5.095   7.789 -0.3959 -0.1498 -0.0726
  598MOL0     C80632   5.838   5.117   7.925  0.4896 -0.9038 -0.8178
  598MOL0     C80633   5.891   5.253   7.969  0.0067  0.2659  0.3313
  598MOL0     C80634   6.042   5.280   7.956 -0.6752  0.2449  0.5082
  598MOL0     C80635   6.144   5.168   7.998 -0.0447  0.2375  0.4772
  598MOL0     C80636   6.287   5.221   7.985 -0.4084  0.3112 -0.6495
  598MOL0     C80637   6.388   5.113   8.049  0.6250  0.7039  0.2915
  598MOL0     C80638   6.400   4.977   7.978 -0.7548 -0.6681  0.0969
  598MOL0     C80639   6.350   4.872   8.058 -0.2115  0.3887 -0.2597
  598MOL0    Cl80640   6.470   4.821   8.188 -0.4153 -0.5636 -0.4644
  598MOL0     C80641   5.821   5.251   7.620 -0.4621  0.5505  0.3717
  598MOL0     C80642   5.725   5.276   7.511 -0.0508  0.8188 -0.2678
  598MOL0     O80643   5.625   5.016   7.225 -0.5532 -0.6537 -0.2178
  598MOL0     C80644   5.483   5.154   7.011  0.3045 -0.5528 -0.4141
  598MOL0     C80645   5.390   5.195   6.917 -0.8061  1.2961  0.3089
  598MOL0     N80646   4.690   5.619   6.623  0.0914 -0.4692  0.0198
  598MOL0     N80647   4.578   5.557   6.633 -0.0719 -0.0089  0.3562
  598MOL0     C80648   4.975   4.513   6.065 -0.2655  1.1507  0.1613
  598MOL0     C80649   5.000   4.398   5.976  1.1794 -0.1633 -0.3072
  598MOL0     C80650   4.963   4.034   5.715 -0.0290 -0.3042 -0.4136
  598MOL0     C80651   4.884   4.054   5.603 -0.5404  0.5413 -0.7927
  598MOL0     C80652   4.838   3.940   5.525  0.0523  0.3370 -0.7356
  598MOL0     C80653   4.864   3.805   5.554  0.1409  0.0488 -0.3390
  598MOL0     O80654   4.817   3.696   5.477 -0.2809  0.4313 -0.1531
  598MOL0     C80655   4.766   3.717   5.340 -0.2476 -0.6530  0.5475
  598MOL0     C80656   4.792   3.586   5.262 -0.3750 -0.0161 -0.6859
  598MOL0     C80657   4.938   3.559   5.228 -0.0131 -0.2586  0.6243
  598MOL0     C80658   4.958   3.453   5.124 -0.7030 -0.4247  0.3475
  598MOL0     C80659   4.917   3.324   5.170  0.2652  1.2175  0.0002
  598MOL0     C80660   4.876   3.207   5.186 -0.0110 -0.4312 -0.3441
  598MOL0     C80661   4.952   3.798   5.661  0.0639  0.5757 -0.3731
  598MOL0     C80662   4.995   3.908   5.741  0.0948 -0.1726 -0.4635
  598MOL0     H80663   4.696   4.379   5.832 -2.3922  2.9123  0.7267
  598MOL0     H80664   4.646   4.563   5.972 -0.6522 -1.3223  1.6920
  598MOL0     H80665   4.705   4.844   6.050 -2.1728 -0.3294 -1.1448
  598MOL0     H80666   4.615   4.701   6.102 -0.2578  1.0252 -0.6311
  598MOL0     H80667   4.656   4.770   6.338  0.2561 -1.9130 -0.7500
  598MOL0     H80668   4.755   4.910   6.289 -0.7061 -0.6445 -0.4193
  598MOL0     H80669   4.514   4.971   6.174 -0.3307  0.0573  0.1273
  598MOL0     H80670   4.463   4.831   6.271  0.5714 -0.5917  0.4545
  598MOL0     H80671   4.412   5.058   6.357  0.2129  0.5257 -0.6774
  598MOL0     H80672   4.494   4.956   6.474 -3.3268  1.1477  0.8566
  598MOL0     H80673   4.704   5.077   6.439  0.5900 -2.6976 -2.4888
  598MOL0     H80674   4.639   5.152   6.287 -1.4026  2.9694  1.6191
  598MOL0     H80675   4.623   5.322   6.449  1.0034  0.4032  1.7018
  598MOL0     H80676   4.461   5.263   6.433  0.3586  1.6925 -0.4206
  598MOL0     H80677   4.508   5.125   6.644 -1.9470  0.4121 -0.6581
  598MOL0     H80678   4.660   5.204   6.660  0.9317  0.9766 -0.5143
  598MOL0     H80679   4.453   5.302   6.787 -1.7037 -0.8794 -0.7271
  598MOL0     H80680   4.413   5.378   6.634 -1.0578 -1.9559  0.8564
  598MOL0     H80681   4.770   5.369   6.819  0.3314 -0.7620 -2.7034
  598MOL0     H80682   4.984   5.484   6.632  2.6401  0.8174  0.1159
  598MOL0     H80683   4.954   5.652   6.636 -0.6415 -0.3082  0.6025
  598MOL0     H80684   4.950   5.489   6.890 -0.4270  1.7925  0.1923
  598MOL0     H80685   4.973   5.658   6.877 -0.9185 -0.4032 -1.0823
  598MOL0     H80686   5.196   5.560   6.932 -1.5969 -0.0135  0.7017
  598MOL0     H80687   5.208   5.610   6.760  0.8993 -0.4694  0.8730
  598MOL0     H80688   5.315   5.394   6.777 -0.3118 -2.1511  0.4440
  598MOL0     H80689   5.164   5.375   6.689 -1.2215 -1.4135  0.4838
  598MOL0     H80690   5.133   5.262   7.127  0.2478  1.1385  0.5767
  598MOL0     H80691   5.313   5.256   7.389  1.8024 -0.4052  0.0869
  598MOL0     H80692   5.170   5.175   7.331  0.0747 -0.0599 -0.5217
  598MOL0     H80693   5.303   5.082   7.395 -1.4951  1.0321  0.1546
  598MOL0     H80694   5.589   4.966   7.507 -0.0036  0.3341 -0.6970
  598MOL0     H80695   5.737   4.937   7.701  1.4193 -1.7512 -2.0263
  598MOL0     H80696   5.732   5.096   7.943  0.7348 -2.1047 -0.7265
  598MOL0     H80697   5.893   5.045   7.986  0.8518 -0.3044 -0.4201
  598MOL0     H80698   5.839   5.332   7.915  2.1924  0.3939 -1.7848
  598MOL0     H80699   5.885   5.250   8.078  2.0831  1.2495  0.5346
  598MOL0     H80700   6.075   5.361   8.022  1.0219 -1.9023  2.4747
  598MOL0     H80701   6.070   5.311   7.855  0.7301 -1.5871  0.3046
  598MOL0     H80702   6.131   5.145   8.104  0.0380 -0.7151  0.2889
  598MOL0     H80703   6.122   5.076   7.942 -0.4662  0.1411  0.7919
  598MOL0     H80704   6.303   5.303   8.056 -2.7023  1.3527 -1.2647
  598MOL0     H80705   6.314   5.246   7.882 -2.2025  4.2066 -0.3393
  598MOL0     H80706   6.482   5.167   8.061  0.6615  0.6038  0.4509
  598MOL0     H80707   6.345   5.104   8.149 -0.7482 -0.3668 -0.3639
  598MOL0     H80708   6.503   4.950   7.955 -0.7083 -2.1490  1.8143
  598MOL0     H80709   6.349   4.990   7.882 -2.4439  2.5279  1.2924
  598MOL0     H80710   6.323   4.786   7.996 -4.3173 -0.5937  2.4464
  598MOL0     H80711   6.254   4.897   8.103 -0.5974 -0.5108 -0.5610
  598MOL0     H80712   5.891   5.331   7.644  0.7375  0.4996 -2.5252
  598MOL0     H80713   5.714   5.372   7.462 -1.4168  1.5175  1.2927
  598MOL0     H80714   5.580   5.135   6.966  1.1999 -0.1849  1.2875
  598MOL0     H80715   5.415   5.192   6.811  2.2885 -1.9310  0.9316
  598MOL0     H80716   5.052   4.541   6.136  2.0883  2.6381 -2.7423
  598MOL0     H80717   5.093   4.342   5.986  1.8421  1.1683  1.5415
  598MOL0     H80718   4.855   4.153   5.570 -0.9458  0.4931 -0.5852
  598MOL0     H80719   4.787   3.960   5.431  3.1768 -1.8531 -3.1032
  598MOL0     H80720   4.660   3.744   5.342 -0.3214 -0.5639 -1.9107
  598MOL0     H80721   4.823   3.793   5.285  1.6002 -2.4609 -0.1645
  598MOL0     H80722   4.732   3.597   5.171 -2.6007  1.4505  0.8486
  598MOL0     H80723   4.751   3.506   5.324 -0.4653  1.4947  1.2987
  598MOL0     H80724   4.996   3.518   5.311  2.5034 -0.4656 -1.1252
  598MOL0     H80725   4.990   3.648   5.192  0.9634 -0.4256  1.5831
  598MOL0     H80726   5.063   3.435   5.100 -1.1307 -4.4110  0.7961
  598MOL0     H80727   4.910   3.489   5.033 -1.5880  1.1106  1.3717
  598MOL0     H80728   4.849   3.105   5.204 -0.5174 -0.6199 -1.9836
  598MOL0     H80729   4.985   3.694   5.665  1.3885  0.9373 -1.3839
  598MOL0     H80730   5.058   3.883   5.826  0.3971 -1.7091 -1.1230
  599MOL0     O80731   5.613  11.259   5.725 -0.2755 -0.3572  0.3054
  599MOL0     C80732   5.556  11.296   5.625 -0.1738 -0.5673 -0.4182
  599MOL0     O80733   5.543  11.215   5.515  0.2806 -0.1914 -0.1056
  599MOL0     C80734   5.589  11.091   5.520 -0.4059  0.3773 -0.4571
  599MOL0     C80735   5.540  11.000   5.609 -0.2519  0.3334  0.5779
  599MOL0     C80736   5.571  10.870   5.612  0.0097  1.7760 -0.3172
  599MOL0     C80737   5.650  10.821   5.512 -0.4183  1.2421  0.3787
  599MOL0     O80738   5.674  10.689   5.494 -0.4159  0.3397 -0.0940
  599MOL0     C80739   5.796  10.650   5.423  0.2383 -0.4555 -0.3051
  599MOL0     C80740   5.826  10.495   5.416  0.0789 -1.4744 -0.0934
  599MOL0     C80741   5.943  10.451   5.325 -0.2017 -0.2851 -0.7297
  599MOL0     C80742   5.988  10.308   5.338  0.1846  0.4768 -0.2227
  599MOL0     C80743   5.959  10.228   5.463 -0.5199  0.2560 -0.2740
  599MOL0     C80744   6.029  10.088   5.471 -0.4578  0.2886  0.0677
  599MOL0     C80745   6.182  10.096   5.479 -0.9627  0.3109  0.2760
  599MOL0     C80746   6.243   9.952   5.488 -0.7347 -0.5721  0.3222
  599MOL0     N80747   6.390   9.951   5.495  0.7803 -0.0395 -0.0429
  599MOL0     C80748   6.465  10.048   5.554 -0.7341  1.2857  0.1763
  599MOL0     C80749   6.590  10.011   5.524 -0.1666  0.3034  0.7028
  599MOL0     C80750   6.724  10.077   5.554 -0.6794  0.2361  0.1734
  599MOL0     C80751   6.809   9.995   5.645  0.0162  0.5041 -0.8719
  599MOL0     C80752   6.957  10.006   5.612 -0.4925 -0.3149  0.4380
  599MOL0     C80753   7.007   9.966   5.470  0.2857 -0.3200  0.0753
  599MOL0     O80754   6.983   9.829   5.440  0.3943 -0.3928 -0.2875
  599MOL0     C80755   7.033   9.778   5.321 -0.1600  1.0660  0.5757
  599MOL0     C80756   7.076   9.857   5.210  0.0400 -0.5740 -0.2746
  599MOL0     C80757   7.129   9.786   5.107 -1.1377  0.5494 -0.6730
  599MOL0     C80758   7.184   9.866   4.992 -0.7937  0.0447 -0.4084
  599MOL0     C80759   7.132   9.651   5.104 -0.2686  0.6937  0.3758
  599MOL0     C80760   7.195   9.572   4.992 -0.6496  0.0200  0.2064
  599MOL0     O80761   7.177   9.613   4.858 -0.4260 -0.9005  0.0249
  599MOL0     C80762   7.224   9.540   4.757 -0.1523 -0.4733 -0.1338
  599MOL0     C80763   7.170   9.414   4.725  0.8711 -0.3247  0.3097
  599MOL0     C80764   7.216   9.360   4.609  0.0831  0.2553 -0.6536
  599MOL0     C80765   7.307   9.412   4.526 -0.7088 -0.0285  0.5840
  599MOL0     O80766   7.343   9.362   4.401  0.0197  0.7807  1.3841
  599MOL0     C80767   7.284   9.237   4.346 -0.4210 -0.0593  0.0828
  599MOL0     C80768   7.359   9.204   4.220  0.0901 -0.1528 -0.1635
  599MOL0     C80769   7.504   9.179   4.230  0.4020  0.2419 -0.2354
  599MOL0     C80770   7.573   9.177   4.093  0.5266 -0.0110  0.0006
  599MOL0     C80771   7.510   9.089   3.992  0.6835 -0.7999 -0.2751
  599MOL0     C80772   7.607   9.051   3.884  0.6480  0.2939 -0.5545
  599MOL0     C80773   7.545   8.957   3.786 -0.0458  0.5296 -0.6233
  599MOL0     C80774   7.645   8.947   3.678 -1.0386  0.0671 -0.6694
  599MOL0    Cl80775   7.608   8.820   3.562 -0.4056  0.3159  0.2770
  599MOL0     C80776   7.359   9.536   4.558 -0.0906  0.2761  0.4083
  599MOL0     C80777   7.323   9.608   4.678  0.3384 -0.3895  0.0630
  599MOL0     O80778   7.258   9.469   5.017  0.1073  0.1439 -0.9031
  599MOL0     C80779   7.083   9.576   5.206  1.3729 -0.3817  0.5178
  599MOL0     C80780   7.030   9.642   5.317  0.0508  0.0911 -0.1039
  599MOL0     N80781   6.583   9.894   5.442 -0.0418 -0.5263 -0.7810
  599MOL0     N80782   6.461   9.864   5.425  0.1913  0.2077 -0.3143
  599MOL0     C80783   5.691  10.909   5.410 -0.6647 -0.2726  0.6679
  599MOL0     C80784   5.662  11.041   5.416 -0.3565 -0.2279 -0.6739
  599MOL0     C80785   5.507  11.435   5.624 -0.0389  0.4998 -0.0852
  599MOL0     C80786   5.552  11.527   5.721 -0.5988  0.2397  0.1934
  599MOL0     C80787   5.493  11.653   5.705 -0.0985  0.1250 -0.7294
  599MOL0     C80788   5.402  11.687   5.601  0.5509  0.3854  0.4769
  599MOL0     O80789   5.339  11.809   5.604  0.1365 -0.2592 -0.2919
  599MOL0     C80790   5.195  11.806   5.587 -0.1071 -0.2462  0.6010
  599MOL0     C80791   5.127  11.923   5.654  0.1820 -0.9234  0.2329
  599MOL0     C80792   5.190  12.053   5.614  0.1541  0.3052  0.3032
  599MOL0     C80793   5.267  12.125   5.728 -0.2777 -0.2423 -0.1764
  599MOL0     C80794   5.172  12.175   5.831 -0.1106 -0.1770 -0.0715
  599MOL0     C80795   5.111  12.230   5.927  0.6703 -0.2706  0.8964
  599MOL0     C80796   5.377  11.599   5.505  0.4336  0.0721 -0.0379
  599MOL0     C80797   5.422  11.471   5.516  0.2628  0.0829 -1.1593
  599MOL0     H80798   5.465  11.037   5.678  0.8425  0.0856  1.9637
  599MOL0     H80799   5.528  10.804   5.687  2.7575  0.4555  0.2121
  599MOL0     H80800   5.786  10.686   5.320 -0.9793  4.4114  1.2173
  599MOL0     H80801   5.881  10.696   5.475 -0.2242  1.1360 -0.9025
  599MOL0     H80802   5.856  10.460   5.515  2.3077 -2.2474 -0.9786
  599MOL0     H80803   5.737  10.444   5.378 -1.1180 -0.6798  1.5486
  599MOL0     H80804   5.920  10.475   5.221 -2.3379 -0.3781 -0.3221
  599MOL0     H80805   6.022  10.512   5.370 -0.3556  0.9387 -2.0569
  599MOL0     H80806   5.946  10.249   5.256  1.4830  0.5741 -0.9771
  599MOL0     H80807   6.094  10.310   5.315  0.1473  1.9392 -0.3319
  599MOL0     H80808   5.994  10.295   5.541  0.8984 -0.3803 -0.3241
  599MOL0     H80809   5.855  10.199   5.478 -0.2441 -1.6076 -1.4950
  599MOL0     H80810   6.005  10.049   5.571  1.8573 -0.7533  0.2833
  599MOL0     H80811   6.000  10.011   5.399 -2.9595  1.5730 -0.3914
  599MOL0     H80812   6.225  10.145   5.391 -1.8030 -1.0438 -0.9475
  599MOL0     H80813   6.211  10.147   5.571 -2.4342  0.6298  0.5847
  599MOL0     H80814   6.218   9.888   5.403  2.2278 -2.3368  0.6334
  599MOL0     H80815   6.206   9.903   5.578 -0.2201 -1.2624  0.1624
  599MOL0     H80816   6.438  10.135   5.615  0.0722  1.1541  0.7404
  599MOL0     H80817   6.776  10.095   5.459 -0.3561  2.2977  0.6786
  599MOL0     H80818   6.714  10.178   5.596 -1.9640  2.1444 -4.1304
  599MOL0     H80819   6.781   9.890   5.634 -0.7668  0.3462  1.8453
  599MOL0     H80820   6.802  10.026   5.750  1.2282  0.7217 -0.8446
  599MOL0     H80821   6.999   9.933   5.682 -0.6052  1.2877  2.2358
  599MOL0     H80822   6.985  10.103   5.655 -1.7257  0.3661 -0.2387
  599MOL0     H80823   7.116   9.962   5.476  0.1960 -1.2868  1.8925
  599MOL0     H80824   6.977  10.031   5.387  1.9761 -2.2267 -2.1658
  599MOL0     H80825   7.060   9.964   5.199  0.7558 -0.2753  1.3219
  599MOL0     H80826   7.190   9.973   5.016 -2.1608  0.3343 -1.2997
  599MOL0     H80827   7.283   9.828   4.966 -1.9025 -4.2506  0.9026
  599MOL0     H80828   7.120   9.863   4.904 -0.5294 -1.2320 -0.5661
  599MOL0     H80829   7.087   9.374   4.782 -0.3992 -0.4794 -1.5559
  599MOL0     H80830   7.186   9.260   4.577  0.9306  0.7984 -3.4462
  599MOL0     H80831   7.288   9.154   4.417 -2.0908 -1.9475 -1.8735
  599MOL0     H80832   7.182   9.256   4.312  0.6953  1.5855 -2.7248
  599MOL0     H80833   7.314   9.112   4.182  0.4670 -0.7032  0.7071
  599MOL0     H80834   7.344   9.288   4.151 -0.2696  1.5634  1.9038
  599MOL0     H80835   7.501   9.082   4.281  0.0778  1.8063  2.9199
  599MOL0     H80836   7.548   9.259   4.289 -0.9369  1.9633 -1.4743
  599MOL0     H80837   7.556   9.281   4.065 -2.4537 -0.3426  0.2582
  599MOL0     H80838   7.678   9.151   4.109  0.1671 -0.3205  2.1741
  599MOL0     H80839   7.425   9.146   3.955 -0.0873 -1.8812 -0.2023
  599MOL0     H80840   7.476   9.000   4.045 -0.3309  0.3688  1.1274
  599MOL0     H80841   7.640   9.146   3.839  1.5756  0.4323  0.3697
  599MOL0     H80842   7.696   9.002   3.925  1.4237  0.4805 -1.9405
  599MOL0     H80843   7.444   8.985   3.754 -0.1906  1.2435  0.3923
  599MOL0     H80844   7.531   8.860   3.835  0.1728  0.2877 -1.0395
  599MOL0     H80845   7.748   8.930   3.711 -0.8966  2.7073  0.5503
  599MOL0     H80846   7.637   9.041   3.623  2.6889  1.1448  0.3212
  599MOL0     H80847   7.431   9.574   4.486 -0.5567 -0.1218 -0.2804
  599MOL0     H80848   7.340   9.710   4.708  1.3131 -0.9874  1.6900
  599MOL0     H80849   7.078   9.468   5.210 -2.9753 -0.3233  1.6499
  599MOL0     H80850   6.976   9.594   5.397  0.5141  0.4587  0.4383
  599MOL0     H80851   5.748  10.875   5.324 -1.7164 -3.6907  1.1489
  599MOL0     H80852   5.684  11.120   5.345 -3.1078 -0.7083 -2.2154
  599MOL0     H80853   5.625  11.499   5.797 -0.3949  0.1976 -0.0157
  599MOL0     H80854   5.505  11.733   5.778 -1.0422 -2.0710  2.0256
  599MOL0     H80855   5.173  11.811   5.480  1.0206  2.6087  0.4127
  599MOL0     H80856   5.151  11.711   5.620 -3.5865 -0.5207 -3.8262
  599MOL0     H80857   5.108  11.918   5.761  0.5494  1.3454  0.4525
  599MOL0     H80858   5.020  11.925   5.630 -0.3405  1.7096  2.3828
  599MOL0     H80859   5.109  12.116   5.575 -0.5852 -1.1250 -0.5713
  599MOL0     H80860   5.255  12.043   5.526 -1.0488  0.8508 -0.6849
  599MOL0     H80861   5.328  12.205   5.684  1.8735 -1.6794  0.0392
  599MOL0     H80862   5.332  12.057   5.783  0.6590  3.1753  3.3881
  599MOL0     H80863   5.042  12.283   5.991 -1.7871  0.6654 -2.2455
  599MOL0     H80864   5.301  11.627   5.434  0.4299  0.3216  0.0622
  599MOL0     H80865   5.383  11.398   5.446 -2.4363  0.2273  0.0335
  600MOL0     O80866   4.530   5.771   1.599 -0.9612  1.2925 -0.0861
  600MOL0     C80867   4.613   5.706   1.666  0.1948  0.1997  0.0511
  600MOL0     O80868   4.648   5.574   1.641  0.1687  0.3853  0.6882
  600MOL0     C80869   4.593   5.495   1.547 -0.1101  0.7163  2.3667
  600MOL0     C80870   4.475   5.514   1.486 -0.3585  0.0794  1.1819
  600MOL0     C80871   4.429   5.426   1.383  0.3837 -0.8930 -0.1079
  600MOL0     C80872   4.493   5.306   1.363 -0.5120  0.0265 -0.1570
  600MOL0     O80873   4.431   5.226   1.270 -0.5859 -0.2251  0.1749
  600MOL0     C80874   4.519   5.189   1.165  0.4044  0.6788  1.7267
  600MOL0     C80875   4.447   5.080   1.079 -0.5451 -0.2928  0.2940
  600MOL0     C80876   4.539   5.026   0.973 -0.0159  0.2834 -0.0786
  600MOL0     C80877   4.457   4.932   0.873 -0.4961  0.0568 -0.0136
  600MOL0     C80878   4.370   4.813   0.929  0.1601  0.0529  0.3847
  600MOL0     C80879   4.278   4.760   0.813  0.5413 -0.2635  0.3413
  600MOL0     C80880   4.176   4.655   0.844  0.2882  0.3181 -0.2167
  600MOL0     C80881   4.089   4.621   0.726  0.1221 -0.6665 -0.2460
  600MOL0     N80882   4.173   4.554   0.620 -0.2007  0.3079 -0.3033
  600MOL0     C80883   4.201   4.420   0.621  0.1824  0.3057  0.0989
  600MOL0     C80884   4.267   4.400   0.500  0.4216  0.0563  0.6938
  600MOL0     C80885   4.313   4.263   0.453 -0.0484 -0.0310 -0.6220
  600MOL0     C80886   4.235   4.204   0.334 -0.7123 -0.4678  0.1045
  600MOL0     C80887   4.085   4.214   0.334 -0.5692 -0.3233 -0.3819
  600MOL0     C80888   4.002   4.106   0.276  0.3777 -0.3195 -0.5137
  600MOL0     O80889   4.003   4.108   0.132  0.6896  0.5364 -0.7414
  600MOL0     C80890   3.928   4.007   0.071  0.4190  0.5955 -0.1414
  600MOL0     C80891   3.865   3.898   0.128  0.5998  0.2641 -0.0467
  600MOL0     C80892   3.788   3.807   0.051 -0.1635  0.5165 -0.3884
  600MOL0     C80893   3.715   3.702   0.125 -0.2420  0.0781 -0.5257
  600MOL0     C80894   3.774   3.823  -0.094  0.6184 -0.9433  0.7202
  600MOL0     C80895   3.677   3.750  -0.178 -0.0658 -0.0057  1.0735
  600MOL0     O80896   3.623   3.818  -0.281  0.8202  0.7555 -0.1897
  600MOL0     C80897   3.506   3.757  -0.331 -0.9788  0.5720  0.3147
  600MOL0     C80898   3.524   3.675  -0.453  0.4182 -0.6181 -0.8340
  600MOL0     C80899   3.411   3.621  -0.512 -0.5029 -0.3705  0.2302
  600MOL0     C80900   3.286   3.636  -0.447  0.0425  0.9979  0.8215
  600MOL0     O80901   3.181   3.569  -0.508  0.3319  0.4460 -0.3802
  600MOL0     C80902   3.058   3.639  -0.534  0.4182 -0.5662 -0.5925
  600MOL0     C80903   3.065   3.780  -0.602  0.9181  0.6478 -0.2296
  600MOL0     C80904   2.955   3.814  -0.710  0.3744  0.3348  0.9647
  600MOL0     C80905   3.002   3.914  -0.817 -0.9531 -0.2136  0.7533
  600MOL0     C80906   2.905   3.941  -0.934 -0.2466 -0.1870  0.8639
  600MOL0     C80907   2.977   4.004  -1.066 -0.0020  0.1419  0.3869
  600MOL0     C80908   2.878   4.053  -1.165 -0.1566  0.2353 -0.1411
  600MOL0     C80909   2.931   4.092  -1.304 -0.6921 -0.2134 -0.2283
  600MOL0    Cl80910   2.812   4.113  -1.427 -0.2977 -0.0525 -0.1160
  600MOL0     C80911   3.269   3.731  -0.336  0.5218 -0.1495  0.3406
  600MOL0     C80912   3.386   3.792  -0.283 -0.4622  0.0622  0.4441
  600MOL0     O80913   3.652   3.629  -0.150 -0.3775  0.0551 -0.8208
  600MOL0     C80914   3.831   3.939  -0.146  0.3590 -0.7739  0.7284
  600MOL0     C80915   3.903   4.023  -0.066  0.1442 -0.2183  0.4647
  600MOL0     N80916   4.261   4.517   0.423 -1.3508 -0.5445  0.8813
  600MOL0     N80917   4.214   4.610   0.497 -0.4003 -0.3073 -0.1187
  600MOL0     C80918   4.614   5.282   1.432 -1.1468 -0.2037 -0.1453
  600MOL0     C80919   4.668   5.376   1.517 -0.1390  0.0735  0.8129
  600MOL0     C80920   4.657   5.766   1.786  0.1791  0.1092 -0.5646
  600MOL0     C80921   4.671   5.693   1.910 -0.5477 -0.0705  0.2346
  600MOL0     C80922   4.734   5.756   2.022 -0.1510 -0.1603 -0.5777
  600MOL0     C80923   4.763   5.891   2.025  0.0523 -0.2969 -0.2754
  600MOL0     O80924   4.803   5.956   2.146 -0.2584  0.1738 -0.0710
  600MOL0     C80925   4.805   6.091   2.158 -1.0715  0.4671 -0.9400
  600MOL0     C80926   4.785   6.137   2.299 -0.3094  0.3355 -0.4972
  600MOL0     C80927   4.910   6.140   2.383 -0.1375  0.1521  0.3782
  600MOL0     C80928   4.896   6.139   2.539 -0.6683  0.1298 -0.2302
  600MOL0     C80929   5.029   6.125   2.608 -0.2927 -0.3561  0.9274
  600MOL0     C80930   5.132   6.113   2.678  0.1677 -0.5265 -0.2901
  600MOL0     C80931   4.755   5.958   1.909 -0.7008 -0.1668  0.2378
  600MOL0     C80932   4.700   5.900   1.796  0.8486 -0.3310  0.2067
  600MOL0     H80933   4.405   5.591   1.519 -0.3065 -0.0971  1.7116
  600MOL0     H80934   4.337   5.451   1.332 -0.1517 -1.1535  0.7197
  600MOL0     H80935   4.556   5.271   1.103 -0.2103  0.1997  0.6954
  600MOL0     H80936   4.612   5.145   1.201  2.7127  2.4947 -1.4286
  600MOL0     H80937   4.408   5.001   1.143 -0.6893  2.1313  3.4718
  600MOL0     H80938   4.360   5.124   1.030 -1.0380  0.2582  1.6338
  600MOL0     H80939   4.599   5.104   0.927 -0.2206  2.5231  3.1010
  600MOL0     H80940   4.609   4.962   1.028  0.7065  0.3582 -0.8879
  600MOL0     H80941   4.393   4.998   0.814 -0.2051 -0.4101 -0.8604
  600MOL0     H80942   4.530   4.887   0.807 -0.1452  1.1840 -0.4122
  600MOL0     H80943   4.429   4.737   0.981  0.1741  0.3076  0.7496
  600MOL0     H80944   4.302   4.856   1.003  0.7161  4.3445 -1.3112
  600MOL0     H80945   4.226   4.838   0.756 -1.8980 -1.2830  1.0424
  600MOL0     H80946   4.344   4.721   0.735  3.3293 -1.2463  2.9612
  600MOL0     H80947   4.219   4.563   0.884 -1.9301 -0.4340  0.5886
  600MOL0     H80948   4.112   4.696   0.923  0.8896  1.1731 -0.1583
  600MOL0     H80949   4.038   4.712   0.694 -1.4519 -1.7207 -0.8787
  600MOL0     H80950   4.014   4.559   0.776  0.4190 -0.1823  0.8377
  600MOL0     H80951   4.180   4.346   0.699  1.8385  0.1935  0.4677
  600MOL0     H80952   4.421   4.270   0.435  0.5846 -0.0300  2.5290
  600MOL0     H80953   4.296   4.199   0.541 -3.2028  2.2561  0.5908
  600MOL0     H80954   4.275   4.104   0.316  1.0530 -0.1334  1.8833
  600MOL0     H80955   4.266   4.264   0.249  1.6710  0.1143  1.2969
  600MOL0     H80956   4.050   4.308   0.291  0.8464  0.5066  0.2387
  600MOL0     H80957   4.068   4.227   0.441 -1.4200 -1.6716 -0.3262
  600MOL0     H80958   3.896   4.119   0.301  0.2597  0.4397 -1.3440
  600MOL0     H80959   4.052   4.014   0.307 -0.8482 -0.6743  0.5187
  600MOL0     H80960   3.891   3.882   0.232  0.0800  0.9341  0.1945
  600MOL0     H80961   3.734   3.716   0.232  0.3620  0.3244 -0.6553
  600MOL0     H80962   3.609   3.716   0.105 -0.3336  1.3591  0.7069
  600MOL0     H80963   3.733   3.601   0.085 -1.2101  0.6356 -2.5117
  600MOL0     H80964   3.617   3.659  -0.506  2.9809  0.0402  3.0474
  600MOL0     H80965   3.425   3.561  -0.602  0.9634 -0.2842  0.3695
  600MOL0     H80966   2.997   3.583  -0.606 -0.1166 -1.1992  0.3466
  600MOL0     H80967   3.007   3.651  -0.438 -1.7459  2.7000 -1.9575
  600MOL0     H80968   3.074   3.852  -0.520 -1.6768  1.0233 -0.1844
  600MOL0     H80969   3.159   3.776  -0.657  1.8611  2.2421  1.1474
  600MOL0     H80970   2.854   3.845  -0.678 -0.9120 -0.5004 -1.9397
  600MOL0     H80971   2.928   3.727  -0.770 -1.8239 -0.2437  2.6719
  600MOL0     H80972   3.042   4.005  -0.773 -0.3417 -0.0508 -0.1127
  600MOL0     H80973   3.088   3.864  -0.864  2.2847  3.9121  1.7256
  600MOL0     H80974   2.835   4.016  -0.896 -0.8603 -1.6221  2.7350
  600MOL0     H80975   2.854   3.848  -0.961 -0.4281 -1.0190  3.7551
  600MOL0     H80976   3.043   4.082  -1.028  1.5630 -0.2728 -1.3691
  600MOL0     H80977   3.027   3.919  -1.113  0.3768  0.2173  0.6500
  600MOL0     H80978   2.831   4.140  -1.117 -0.6448 -0.7591  1.2306
  600MOL0     H80979   2.803   3.979  -1.194 -1.0996  1.5642 -1.2410
  600MOL0     H80980   2.985   4.005  -1.341 -3.4733 -1.5763 -1.3624
  600MOL0     H80981   3.003   4.174  -1.295  0.8576 -1.5090 -0.4735
  600MOL0     H80982   3.171   3.749  -0.293 -1.6409 -3.6295 -2.5715
  600MOL0     H80983   3.379   3.860  -0.199 -0.5296  1.9518 -1.0114
  600MOL0     H80984   3.823   3.976  -0.248 -1.3008  0.1891  1.1699
  600MOL0     H80985   3.947   4.112  -0.110 -1.7695  0.0790 -0.9717
  600MOL0     H80986   4.671   5.191   1.417 -2.2317 -1.5208  2.9079
  600MOL0     H80987   4.754   5.341   1.572 -0.0195 -3.7531 -1.4550
  600MOL0     H80988   4.657   5.586   1.923 -0.2394 -0.0294  0.9454
  600MOL0     H80989   4.759   5.696   2.109  1.1825  0.9626 -0.1445
  600MOL0     H80990   4.900   6.126   2.117 -0.1379 -2.5506 -1.6229
  600MOL0     H80991   4.720   6.131   2.102 -1.2776 -0.6087 -1.4133
  600MOL0     H80992   4.722   6.070   2.358  2.5084  0.6707  3.2859
  600MOL0     H80993   4.749   6.239   2.290  3.6629  1.7662 -2.0989
  600MOL0     H80994   4.963   6.229   2.349 -0.1010 -1.2781 -3.8567
  600MOL0     H80995   4.969   6.050   2.360  0.2174  0.9971 -2.3912
  600MOL0     H80996   4.832   6.056   2.573  1.5312 -1.3570  0.4831
  600MOL0     H80997   4.852   6.237   2.555 -0.1488  0.2588  0.4172
  600MOL0     H80998   5.213   6.123   2.748 -0.4807  1.6025  0.2456
  600MOL0     H80999   4.802   6.055   1.896  0.2452 -0.3531  1.9438
  600MOL0     H81000   4.682   5.954   1.703  0.2886 -1.2076 -0.2052
  601MOL0     O81001   1.863   7.684   1.711  0.2032 -0.3751 -0.2518
  601MOL0     C81002   1.972   7.737   1.749  1.2358  0.3580  0.2813
  601MOL0     O81003   2.059   7.812   1.669  0.0160  0.2285  0.0992
  601MOL0     C81004   2.014   7.882   1.557 -0.5391 -0.5211  0.5929
  601MOL0     C81005   1.884   7.912   1.510 -0.1727  1.0876  0.5191
  601MOL0     C81006   1.859   7.984   1.395  0.3644  0.4678  0.1857
  601MOL0     C81007   1.966   8.045   1.336  0.0525  0.4961  0.5885
  601MOL0     O81008   1.932   8.113   1.217 -0.1563  0.0460 -0.6942
  601MOL0     C81009   2.032   8.175   1.136 -0.1701 -0.5263  0.0884
  601MOL0     C81010   1.966   8.243   1.013 -0.0434  0.1876  0.2675
  601MOL0     C81011   1.909   8.140   0.907  0.3380  0.2182 -1.6728
  601MOL0     C81012   1.999   8.116   0.794  0.1175 -0.1662 -0.0962
  601MOL0     C81013   1.952   7.991   0.715  0.2202  0.2460 -1.0323
  601MOL0     C81014   2.009   7.992   0.579  0.1612  0.3355 -0.2695
  601MOL0     C81015   1.915   7.900   0.498  0.2184  0.1574  0.3776
  601MOL0     C81016   1.807   7.972   0.417  0.5034 -0.1257 -0.3935
  601MOL0     N81017   1.724   7.873   0.343 -0.2635  0.0318  0.6944
  601MOL0     C81018   1.622   7.804   0.403  0.6462 -0.3102  0.4835
  601MOL0     C81019   1.565   7.734   0.307 -0.6773 -0.2490  0.2866
  601MOL0     C81020   1.432   7.660   0.310  0.2726 -0.0931 -0.2056
  601MOL0     C81021   1.437   7.511   0.374 -0.1531 -0.6068 -0.2923
  601MOL0     C81022   1.496   7.417   0.262  0.0361 -0.2033 -0.0425
  601MOL0     C81023   1.464   7.271   0.277  0.4241 -0.1925  0.4901
  601MOL0     O81024   1.327   7.240   0.321 -0.0452 -0.8569  0.0874
  601MOL0     C81025   1.300   7.211   0.449 -0.3079 -0.9053  0.3991
  601MOL0     C81026   1.179   7.157   0.471  1.5099 -0.8164 -0.9010
  601MOL0     C81027   1.131   7.127   0.601  0.0245  0.3583  0.0981
  601MOL0     C81028   0.997   7.047   0.603  1.2212 -0.7255 -0.6127
  601MOL0     C81029   1.214   7.164   0.711  0.2937  0.2727 -1.4666
  601MOL0     C81030   1.170   7.156   0.851 -0.4153  0.4377 -0.2748
  601MOL0     O81031   1.270   7.156   0.949  0.1433 -0.2498 -0.6628
  601MOL0     C81032   1.235   7.130   1.077  0.0983  0.3559 -0.1657
  601MOL0     C81033   1.137   7.040   1.119  0.7722  0.5057 -0.0091
  601MOL0     C81034   1.122   7.021   1.260  0.0525  0.5767 -0.0746
  601MOL0     C81035   1.213   7.082   1.358  0.4828  0.8548  0.7107
  601MOL0     O81036   1.204   7.050   1.488  0.1752 -0.0627 -0.0269
  601MOL0     C81037   1.238   7.144   1.585  0.6326  0.2992 -0.5526
  601MOL0     C81038   1.177   7.120   1.727  1.0212  0.4093 -0.3614
  601MOL0     C81039   1.237   7.002   1.812  0.3592  0.6823 -0.1976
  601MOL0     C81040   1.384   6.964   1.791  0.2435  0.2753 -0.2362
  601MOL0     C81041   1.399   6.830   1.869 -0.8308 -0.3074 -0.4859
  601MOL0     C81042   1.552   6.788   1.865  0.3855  0.1907 -1.1443
  601MOL0     C81043   1.634   6.854   1.972  0.4113  0.3631  1.1425
  601MOL0     C81044   1.788   6.833   1.947 -0.3130 -0.5082  0.5144
  601MOL0    Cl81045   1.864   6.916   2.086  0.1058 -0.4779 -0.2784
  601MOL0     C81046   1.312   7.163   1.312  0.8069 -0.1516 -0.5463
  601MOL0     C81047   1.318   7.193   1.179 -0.6013 -0.0049 -0.0025
  601MOL0     O81048   1.053   7.186   0.867  0.2501  0.1797 -0.1305
  601MOL0     C81049   1.342   7.210   0.693 -0.1968  0.4665 -0.2443
  601MOL0     C81050   1.387   7.230   0.560 -0.0383 -0.4101  0.1873
  601MOL0     N81051   1.651   7.738   0.202  0.5262 -1.3216  0.4905
  601MOL0     N81052   1.745   7.832   0.215 -0.6263 -0.4307  0.1818
  601MOL0     C81053   2.097   8.026   1.381 -0.2193 -0.0989 -0.2873
  601MOL0     C81054   2.119   7.935   1.486 -0.2919 -0.3258  0.2298
  601MOL0     C81055   2.013   7.697   1.889  0.2681 -0.7629 -0.7533
  601MOL0     C81056   1.923   7.669   1.991 -0.2285  0.6417  0.5147
  601MOL0     C81057   1.960   7.611   2.110  0.5171 -0.9176 -0.3367
  601MOL0     C81058   2.094   7.602   2.135 -0.1071 -0.0630 -0.9807
  601MOL0     O81059   2.135   7.550   2.255  0.6804 -0.4999  0.0809
  601MOL0     C81060   2.234   7.615   2.340  0.0564 -0.4193  0.6181
  601MOL0     C81061   2.285   7.509   2.435 -0.1844  0.4754 -0.5504
  601MOL0     C81062   2.414   7.565   2.488  0.1782  1.2955 -0.5464
  601MOL0     C81063   2.468   7.501   2.619  0.1577  0.2691  0.2391
  601MOL0     C81064   2.478   7.350   2.616 -0.2929 -0.4019 -0.1663
  601MOL0     C81065   2.481   7.228   2.617 -0.1338 -0.7466  0.1881
  601MOL0     C81066   2.186   7.645   2.044  0.0632  1.2551 -0.2222
  601MOL0     C81067   2.149   7.678   1.918  0.0060 -0.4122  0.2677
  601MOL0     H81068   1.802   7.871   1.567  1.0681 -0.5054  1.2328
  601MOL0     H81069   1.763   7.994   1.347  0.3513 -1.3288 -0.2261
  601MOL0     H81070   2.086   8.247   1.197  0.5977  1.2240 -2.4863
  601MOL0     H81071   2.108   8.102   1.107 -1.7818 -1.6438 -1.6217
  601MOL0     H81072   1.890   8.309   1.056 -1.6923 -2.1526  1.1437
  601MOL0     H81073   2.040   8.300   0.957  0.3209 -1.7276 -1.3301
  601MOL0     H81074   1.891   8.052   0.969 -1.6365  2.6056  1.4200
  601MOL0     H81075   1.815   8.185   0.872 -0.1930 -0.9826 -1.8736
  601MOL0     H81076   1.987   8.206   0.732 -2.7429 -0.2667  0.2194
  601MOL0     H81077   2.106   8.112   0.818  0.6504  3.4203 -1.2447
  601MOL0     H81078   1.985   7.898   0.763  1.0926  0.2606 -1.5847
  601MOL0     H81079   1.843   7.992   0.716  0.1625 -1.3292  0.7959
  601MOL0     H81080   2.009   8.095   0.543  2.4488  0.0660 -1.2082
  601MOL0     H81081   2.109   7.950   0.583 -0.8030 -2.0456  0.7561
  601MOL0     H81082   1.977   7.843   0.428 -0.4136 -1.0841  0.7934
  601MOL0     H81083   1.860   7.831   0.564 -0.8551  1.5437  0.9738
  601MOL0     H81084   1.858   8.028   0.338 -1.1623  0.2048 -1.2878
  601MOL0     H81085   1.753   8.029   0.493  0.6330 -1.0221  0.3888
  601MOL0     H81086   1.587   7.802   0.506  0.1998 -0.4112  0.3316
  601MOL0     H81087   1.348   7.709   0.359 -1.9849 -0.8142 -3.0688
  601MOL0     H81088   1.386   7.655   0.211 -2.6982 -1.7113  1.1246
  601MOL0     H81089   1.337   7.472   0.396 -0.1472 -0.5527 -0.1659
  601MOL0     H81090   1.496   7.498   0.466  0.1701 -1.6937 -0.6447
  601MOL0     H81091   1.605   7.420   0.265  0.0426  2.4042  3.7223
  601MOL0     H81092   1.473   7.457   0.163  1.7530  0.6367 -0.1366
  601MOL0     H81093   1.543   7.230   0.341  1.9373  0.8267 -0.6599
  601MOL0     H81094   1.478   7.241   0.173  1.7725 -0.2177  0.6646
  601MOL0     H81095   1.118   7.141   0.383 -0.3087 -3.5788  0.6933
  601MOL0     H81096   0.989   6.965   0.531 -1.1117  1.1003 -2.6276
  601MOL0     H81097   0.975   7.019   0.706  0.3733  2.9618  0.3596
  601MOL0     H81098   0.919   7.117   0.571  0.1285 -0.1528  2.9508
  601MOL0     H81099   1.069   6.984   1.055  1.2763  0.9218 -0.9261
  601MOL0     H81100   1.040   6.962   1.298 -0.4328  0.4365 -1.2744
  601MOL0     H81101   1.347   7.153   1.599  0.3751  0.1643  2.1849
  601MOL0     H81102   1.211   7.245   1.553  1.8727  0.5763 -0.7729
  601MOL0     H81103   1.194   7.215   1.778  0.8709  0.6713 -0.7908
  601MOL0     H81104   1.070   7.095   1.727  0.5326  2.3509  0.2683
  601MOL0     H81105   1.169   6.917   1.799  1.9363 -0.8861  1.3096
  601MOL0     H81106   1.220   7.020   1.919 -2.0094 -2.3360  0.1055
  601MOL0     H81107   1.405   6.945   1.686  1.8421  1.4346 -0.1599
  601MOL0     H81108   1.443   7.046   1.834 -0.7889  0.4823  0.8601
  601MOL0     H81109   1.344   6.754   1.813  2.0255  0.1520 -4.3053
  601MOL0     H81110   1.360   6.846   1.970  3.5615  4.6362  0.8946
  601MOL0     H81111   1.558   6.683   1.892  1.1915  0.2596 -1.0257
  601MOL0     H81112   1.600   6.813   1.770  1.5838 -2.0660 -1.2018
  601MOL0     H81113   1.606   6.810   2.068  2.1938  1.8476  2.4331
  601MOL0     H81114   1.605   6.959   1.972 -3.2567 -0.5121  0.0630
  601MOL0     H81115   1.819   6.895   1.862 -0.6119  0.6629  1.2241
  601MOL0     H81116   1.819   6.729   1.938 -0.1332 -0.4484  0.4162
  601MOL0     H81117   1.379   7.205   1.387  0.2683 -2.0755  1.0870
  601MOL0     H81118   1.391   7.264   1.140 -2.1569  0.7748 -1.5997
  601MOL0     H81119   1.400   7.246   0.777 -0.8532 -4.5206  2.7809
  601MOL0     H81120   1.490   7.265   0.555 -0.1528  0.3915  2.2507
  601MOL0     H81121   2.182   8.081   1.342 -0.5704  2.7764  2.6019
  601MOL0     H81122   2.216   7.922   1.532 -0.3209  1.7037  0.9988
  601MOL0     H81123   1.817   7.692   1.989 -0.0022  1.9552  1.8328
  601MOL0     H81124   1.889   7.580   2.185 -0.3591 -2.4641 -1.7221
  601MOL0     H81125   2.316   7.658   2.280 -0.8761 -0.6024 -0.8434
  601MOL0     H81126   2.195   7.701   2.396  1.0801 -0.1185  0.8935
  601MOL0     H81127   2.308   7.413   2.388  2.4275 -0.5417  2.4758
  601MOL0     H81128   2.213   7.487   2.513  1.1801 -3.5108 -0.2151
  601MOL0     H81129   2.403   7.671   2.510  2.5210  1.3778  0.5588
  601MOL0     H81130   2.500   7.555   2.421  0.5161  1.8766 -0.2076
  601MOL0     H81131   2.394   7.532   2.693 -0.0199  1.4577 -0.4098
  601MOL0     H81132   2.563   7.552   2.638  2.9530 -2.8384 -3.6628
  601MOL0     H81133   2.495   7.122   2.609 -0.7372 -0.7943 -0.4090
  601MOL0     H81134   2.291   7.628   2.067 -0.1281 -1.6199 -1.1101
  601MOL0     H81135   2.231   7.703   1.850 -0.8384 -0.3896 -0.7607
  602MOL0     O81136   7.705   0.119   4.369 -1.0773 -0.5051  0.5869
  602MOL0     C81137   7.651   0.162   4.271  0.3014  0.2058  0.2385
  602MOL0     O81138   7.583   0.282   4.274 -1.1753  0.5619  0.4397
  602MOL0     C81139   7.546   0.355   4.387  0.1739 -0.4143  0.3521
  602MOL0     C81140   7.563   0.328   4.523  0.2947  0.1893  0.7979
  602MOL0     C81141   7.500   0.390   4.623 -0.6743 -0.3204  0.2407
  602MOL0     C81142   7.438   0.513   4.600  1.1375 -0.3351  0.3452
  602MOL0     O81143   7.397   0.601   4.700 -0.2739 -0.8256  0.0836
  602MOL0     C81144   7.389   0.553   4.836 -0.0459  0.1165 -0.3029
  602MOL0     C81145   7.326   0.670   4.925  0.0922 -0.2226  0.0645
  602MOL0     C81146   7.279   0.596   5.043  1.0240 -1.4864 -0.4449
  602MOL0     C81147   7.206   0.690   5.142  0.5629  1.3860  0.1905
  602MOL0     C81148   7.135   0.592   5.244  0.4264 -0.3305 -0.6921
  602MOL0     C81149   7.044   0.678   5.332  0.3587  0.8886 -1.1381
  602MOL0     C81150   7.008   0.599   5.463 -0.0779 -1.5963 -0.2628
  602MOL0     C81151   6.890   0.659   5.533  0.4427 -1.2588  0.5747
  602MOL0     N81152   6.909   0.801   5.582  0.1064 -0.1533  0.1257
  602MOL0     C81153   6.905   0.910   5.489 -0.2214  1.1283  0.5049
  602MOL0     C81154   6.873   1.013   5.578 -0.3658 -0.4147 -0.2487
  602MOL0     C81155   6.866   1.153   5.530  0.5710  0.8693 -0.2138
  602MOL0     C81156   6.963   1.203   5.425  0.2286 -0.6020  0.1506
  602MOL0     C81157   6.969   1.359   5.427  0.2121  0.7009 -0.4888
  602MOL0     C81158   7.047   1.414   5.547 -0.0300  0.2575 -0.3059
  602MOL0     O81159   7.090   1.541   5.511  0.1782 -0.1436  0.4242
  602MOL0     C81160   7.216   1.570   5.467  0.6592  0.4959 -0.6333
  602MOL0     C81161   7.262   1.701   5.465 -0.2412  0.3491  0.2961
  602MOL0     C81162   7.384   1.735   5.411  0.0370 -0.8651 -0.4326
  602MOL0     C81163   7.421   1.878   5.418 -0.2729  0.1590 -0.5808
  602MOL0     C81164   7.473   1.635   5.358 -0.2445  0.6322  0.3650
  602MOL0     C81165   7.610   1.663   5.314  1.0631 -0.2705 -0.3497
  602MOL0     O81166   7.606   1.717   5.187 -0.5034 -0.1516  0.7009
  602MOL0     C81167   7.715   1.776   5.134 -0.4521 -0.3915 -0.0193
  602MOL0     C81168   7.728   1.915   5.136  0.0120  0.7107 -0.8615
  602MOL0     C81169   7.849   1.976   5.091 -0.4964  0.0023 -0.1208
  602MOL0     C81170   7.959   1.895   5.067  0.3385 -0.2066  1.0777
  602MOL0     O81171   8.074   1.957   5.032  0.4618 -0.2637 -0.0620
  602MOL0     C81172   8.193   1.929   5.101  0.4330 -0.1804  0.1738
  602MOL0     C81173   8.306   1.981   5.018  0.0908  0.0687  0.3407
  602MOL0     C81174   8.391   1.880   4.955  0.9295  0.5919 -0.1305
  602MOL0     C81175   8.484   1.960   4.867  0.1352  0.4463 -0.5798
  602MOL0     C81176   8.569   1.850   4.810  0.4955 -0.0872  0.3433
  602MOL0     C81177   8.684   1.912   4.740 -0.3996  0.0088  0.4194
  602MOL0     C81178   8.792   1.942   4.831  0.1780  1.0898  0.0914
  602MOL0     C81179   8.892   2.021   4.744 -0.9668 -0.4675 -0.4197
  602MOL0    Cl81180   9.037   2.078   4.827 -0.1147  0.1437  0.3401
  602MOL0     C81181   7.939   1.759   5.049  0.2056 -0.3395  0.2868
  602MOL0     C81182   7.826   1.696   5.095  0.4950  0.8903 -0.0550
  602MOL0     O81183   7.707   1.645   5.387 -0.0778  0.4018 -0.1270
  602MOL0     C81184   7.424   1.495   5.356 -0.1436  0.8852 -0.3633
  602MOL0     C81185   7.290   1.472   5.409 -1.1319 -0.6657  1.0227
  602MOL0     N81186   6.870   0.970   5.713 -0.3521 -0.1889 -0.6187
  602MOL0     N81187   6.890   0.846   5.711 -0.6285 -0.1889 -0.3657
  602MOL0     C81188   7.425   0.553   4.464  0.0827 -0.0868  0.3226
  602MOL0     C81189   7.481   0.474   4.361  0.0559  0.5592 -0.3896
  602MOL0     C81190   7.654   0.087   4.143  0.6145 -0.5929  0.5766
  602MOL0     C81191   7.566   0.123   4.039  0.4789 -0.6361  0.5314
  602MOL0     C81192   7.559   0.054   3.914 -0.2388 -0.0127 -0.2894
  602MOL0     C81193   7.635  -0.063   3.900 -0.5976  0.0435 -0.2251
  602MOL0     O81194   7.633  -0.137   3.778 -0.3457 -0.3857 -0.3782
  602MOL0     C81195   7.621  -0.282   3.776 -0.0807 -0.1872  1.1071
  602MOL0     C81196   7.488  -0.333   3.828 -0.3770 -0.2431 -0.9360
  602MOL0     C81197   7.506  -0.383   3.974  0.3415 -0.5025  0.3873
  602MOL0     C81198   7.374  -0.434   4.020  0.3190  0.1947 -0.2410
  602MOL0     C81199   7.396  -0.432   4.165 -0.5839  0.3425 -0.0805
  602MOL0     C81200   7.431  -0.428   4.278 -0.0953 -0.0283 -0.3373
  602MOL0     C81201   7.714  -0.105   4.017 -1.1285  0.5045 -0.3431
  602MOL0     C81202   7.729  -0.030   4.132  0.6768 -0.4384 -0.8463
  602MOL0     H81203   7.623   0.246   4.561  0.8206 -0.2887 -0.9887
  602MOL0     H81204   7.509   0.355   4.726  3.9000  1.9004  0.8178
  602MOL0     H81205   7.339   0.458   4.855  0.3444  0.4013  2.5495
  602MOL0     H81206   7.492   0.538   4.870 -0.3417 -1.5053 -0.0483
  602MOL0     H81207   7.403   0.747   4.938  0.9808 -1.2100  0.8486
  602MOL0     H81208   7.237   0.713   4.879  1.2520  2.3005 -0.0068
  602MOL0     H81209   7.209   0.519   5.009  2.6615 -2.9752 -0.5679
  602MOL0     H81210   7.363   0.549   5.095  4.7636  3.7341 -1.0805
  602MOL0     H81211   7.264   0.762   5.201 -0.8826  2.3500  0.4948
  602MOL0     H81212   7.140   0.755   5.084  0.0795 -0.8086 -1.8620
  602MOL0     H81213   7.066   0.517   5.205  0.5752 -1.2782  0.7843
  602MOL0     H81214   7.213   0.536   5.296 -0.0998  3.0540  4.5900
  602MOL0     H81215   7.083   0.778   5.350  0.3807  0.8801 -1.1368
  602MOL0     H81216   6.954   0.699   5.273 -0.6716  0.6558  0.2920
  602MOL0     H81217   6.981   0.494   5.447  0.1997 -1.2789 -3.4206
  602MOL0     H81218   7.093   0.587   5.530 -0.4626  0.3939  0.6704
  602MOL0     H81219   6.857   0.598   5.618 -5.3161  0.4099 -0.0781
  602MOL0     H81220   6.807   0.663   5.462  0.3246 -1.0794  0.7234
  602MOL0     H81221   6.902   0.914   5.380  1.9901  3.0089  0.4205
  602MOL0     H81222   6.770   1.156   5.479 -0.3114  1.1445  1.3852
  602MOL0     H81223   6.872   1.220   5.616  3.2971  2.9107 -1.8239
  602MOL0     H81224   6.926   1.180   5.324  0.6708  3.4116 -1.0927
  602MOL0     H81225   7.067   1.169   5.427 -0.4262 -2.7717  0.5829
  602MOL0     H81226   6.871   1.403   5.443  0.5250  1.3853 -0.4403
  602MOL0     H81227   7.015   1.386   5.332 -0.4239  2.6912 -0.2656
  602MOL0     H81228   7.134   1.354   5.574  0.2893  0.3947 -1.0126
  602MOL0     H81229   6.991   1.422   5.641  3.3023  0.9516  1.7883
  602MOL0     H81230   7.188   1.777   5.492 -1.2341  0.4450 -2.4211
  602MOL0     H81231   7.330   1.939   5.426  1.9381  4.0725 -2.2997
  602MOL0     H81232   7.480   1.889   5.510  0.9812  0.5020 -1.4054
  602MOL0     H81233   7.477   1.922   5.335  2.5033  2.6856  2.3646
  602MOL0     H81234   7.644   1.971   5.176 -1.0406 -0.1535 -1.8013
  602MOL0     H81235   7.857   2.084   5.079 -2.2968 -0.0015 -2.1118
  602MOL0     H81236   8.182   1.984   5.195  0.3879  0.4381 -0.1865
  602MOL0     H81237   8.217   1.826   5.129  2.1926 -0.3046 -1.6299
  602MOL0     H81238   8.276   2.045   4.934 -1.3108 -3.6930 -2.2986
  602MOL0     H81239   8.363   2.040   5.090 -2.0777  0.0296  2.1890
  602MOL0     H81240   8.323   1.812   4.902 -1.3678  2.9035 -0.3421
  602MOL0     H81241   8.447   1.826   5.032  3.0910  2.8158 -0.0016
  602MOL0     H81242   8.428   2.005   4.785 -2.7136  0.2168  1.0861
  602MOL0     H81243   8.551   2.033   4.913  1.1947  0.2094 -1.6868
  602MOL0     H81244   8.506   1.797   4.738 -2.9547  1.7870  1.7213
  602MOL0     H81245   8.595   1.767   4.877  2.2299 -0.3682 -0.6048
  602MOL0     H81246   8.726   1.843   4.667  1.5155  0.3239  1.1658
  602MOL0     H81247   8.653   2.000   4.682  1.0279 -1.2220 -2.3881
  602MOL0     H81248   8.844   1.852   4.865  0.7983  2.3860  2.8442
  602MOL0     H81249   8.771   2.003   4.920  1.2534  1.7266 -0.0753
  602MOL0     H81250   8.845   2.113   4.709 -0.1839 -0.2535 -0.9454
  602MOL0     H81251   8.912   1.969   4.650  1.1331 -0.6160  0.0503
  602MOL0     H81252   8.022   1.699   5.015 -0.4700 -2.3863  2.0239
  602MOL0     H81253   7.819   1.589   5.107 -4.0268  1.0196  0.4839
  602MOL0     H81254   7.486   1.413   5.324 -1.0324 -0.6338  1.5894
  602MOL0     H81255   7.261   1.368   5.403  2.3397 -1.7680  0.8387
  602MOL0     H81256   7.383   0.647   4.430  0.8328  0.4599  0.8709
  602MOL0     H81257   7.492   0.504   4.257  1.4986 -0.5664 -0.5936
  602MOL0     H81258   7.498   0.207   4.036 -0.2025 -1.1995 -0.5537
  602MOL0     H81259   7.483   0.073   3.839  0.3515 -1.6626 -1.3660
  602MOL0     H81260   7.634  -0.314   3.673  2.6183  0.4804  1.1693
  602MOL0     H81261   7.700  -0.326   3.837  2.6146  1.3063 -1.1000
  602MOL0     H81262   7.449  -0.413   3.765 -0.4535  0.6291 -2.0295
  602MOL0     H81263   7.408  -0.258   3.839  0.5346  0.6552 -0.2724
  602MOL0     H81264   7.540  -0.295   4.029 -0.7070 -0.3111  0.7495
  602MOL0     H81265   7.585  -0.458   3.980  2.2012  1.4295  1.3772
  602MOL0     H81266   7.344  -0.534   3.990  2.1634  0.0358 -1.8017
  602MOL0     H81267   7.291  -0.368   3.994  0.5104  0.0340 -1.3206
  602MOL0     H81268   7.472  -0.437   4.377  2.2419 -2.2864 -1.4167
  602MOL0     H81269   7.783  -0.189   4.009  2.5890  3.3351 -0.4529
  602MOL0     H81270   7.794  -0.071   4.208  2.5358  1.0210 -1.5857
  603MOL0     O81271   7.751   0.289   0.134 -0.2675 -0.9218  0.2360
  603MOL0     C81272   7.724   0.218   0.228 -0.0768 -1.6421 -0.8447
  603MOL0     O81273   7.812   0.200   0.339  0.4424  0.2738 -0.0418
  603MOL0     C81274   7.925   0.268   0.347 -0.8849  0.0877 -0.1885
  603MOL0     C81275   8.033   0.262   0.252  0.4360  0.2323 -0.2667
  603MOL0     C81276   8.149   0.337   0.269 -0.6433  0.3683  0.0893
  603MOL0     C81277   8.168   0.418   0.390  0.4995  1.0921  1.0936
  603MOL0     O81278   8.285   0.478   0.418 -1.2834 -0.0008  0.1578
  603MOL0     C81279   8.367   0.523   0.306 -0.9205 -0.1971  0.1209
  603MOL0     C81280   8.480   0.615   0.358 -0.0238  0.7460  0.5811
  603MOL0     C81281   8.431   0.730   0.435 -0.4591 -0.5462 -0.3901
  603MOL0     C81282   8.545   0.828   0.461  0.2697  0.5763 -0.6157
  603MOL0     C81283   8.503   0.942   0.554 -0.2910 -0.1016 -0.2686
  603MOL0     C81284   8.615   1.046   0.567 -0.6325 -0.9492 -0.2543
  603MOL0     C81285   8.593   1.137   0.689  0.1834  1.0621  0.1608
  603MOL0     C81286   8.693   1.260   0.702  0.1960 -1.4966  0.8052
  603MOL0     N81287   8.660   1.355   0.812  0.2582  0.1457  0.1326
  603MOL0     C81288   8.678   1.323   0.953  0.3894 -0.3440 -0.1872
  603MOL0     C81289   8.664   1.438   1.018 -0.2181 -1.1561 -0.1484
  603MOL0     C81290   8.696   1.472   1.162 -0.5646  0.2268 -0.3220
  603MOL0     C81291   8.849   1.464   1.171 -0.7501  0.3703 -0.5539
  603MOL0     C81292   8.888   1.328   1.226 -0.6087  0.2641  0.2330
  603MOL0     C81293   9.028   1.332   1.276 -1.1465  0.3253 -0.9102
  603MOL0     O81294   9.124   1.361   1.178 -0.1487 -0.7776 -0.3633
  603MOL0     C81295   9.240   1.398   1.229  0.0231 -0.0191  0.3098
  603MOL0     C81296   9.304   1.344   1.336 -0.1997  0.2745 -0.3485
  603MOL0     C81297   9.421   1.405   1.384  0.2295 -0.2897  0.1756
  603MOL0     C81298   9.488   1.346   1.510  0.1468 -0.0700  0.3962
  603MOL0     C81299   9.477   1.523   1.327 -1.1838  0.2871 -0.2509
  603MOL0     C81300   9.599   1.581   1.364 -0.4829 -1.2851 -0.9636
  603MOL0     O81301   9.588   1.716   1.371 -0.3036  0.5747  0.1053
  603MOL0     C81302   9.686   1.778   1.440  0.9806  0.9093  0.4105
  603MOL0     C81303   9.778   1.859   1.374  0.2258 -0.4282  0.3262
  603MOL0     C81304   9.875   1.942   1.448  0.0534  0.1021  0.6686
  603MOL0     C81305   9.872   1.939   1.589  0.1312  1.1446 -0.6807
  603MOL0     O81306   9.955   2.015   1.659 -0.3618 -0.4883 -1.1300
  603MOL0     C81307   9.971   2.009   1.805 -0.1265  0.4074  0.3200
  603MOL0     C81308  10.054   1.884   1.826  0.3141 -0.4234 -0.9369
  603MOL0     C81309  10.130   1.862   1.954 -0.0735  0.1239 -0.9271
  603MOL0     C81310  10.046   1.844   2.075 -0.4065 -0.2575 -0.8037
  603MOL0     C81311  10.137   1.812   2.202 -0.5270 -0.2657  0.1723
  603MOL0     C81312  10.047   1.821   2.326  0.8507  0.5220 -0.6205
  603MOL0     C81313  10.108   1.774   2.459  0.0079 -0.2340  0.7448
  603MOL0     C81314  10.220   1.852   2.514 -0.1459  0.2107 -0.5226
  603MOL0    Cl81315  10.279   1.782   2.671 -0.0780  0.1775  0.2233
  603MOL0     C81316   9.766   1.864   1.651  0.0871  0.1980  0.1982
  603MOL0     C81317   9.677   1.782   1.580  0.4566  0.9609  0.2987
  603MOL0     O81318   9.703   1.512   1.384  1.2211 -0.5741  0.2483
  603MOL0     C81319   9.408   1.575   1.215 -0.9814 -0.4020  0.2902
  603MOL0     C81320   9.293   1.520   1.168 -0.4668  0.0966  0.0814
  603MOL0     N81321   8.617   1.535   0.929 -0.6233  0.1871 -1.2831
  603MOL0     N81322   8.639   1.488   0.811 -0.0166 -0.1905  0.2306
  603MOL0     C81323   8.072   0.413   0.490 -0.0326  0.1666  0.5517
  603MOL0     C81324   7.945   0.344   0.461 -0.4523  0.8725 -0.1983
  603MOL0     C81325   7.591   0.157   0.256  0.2162  0.2698  0.4914
  603MOL0     C81326   7.479   0.201   0.185  0.4752 -0.1776 -0.2913
  603MOL0     C81327   7.367   0.120   0.179  0.2295 -0.9855  0.3244
  603MOL0     C81328   7.358  -0.007   0.247 -0.0922  0.1846 -1.4169
  603MOL0     O81329   7.248  -0.085   0.235 -0.2336  0.1220 -0.6477
  603MOL0     C81330   7.240  -0.214   0.295 -0.1074  1.0328  0.0109
  603MOL0     C81331   7.123  -0.291   0.227 -0.6780 -0.1129 -0.2267
  603MOL0     C81332   6.999  -0.205   0.201 -0.0855  0.1001 -0.0703
  603MOL0     C81333   6.883  -0.286   0.142 -0.4553  0.2005  0.1133
  603MOL0     C81334   6.840  -0.390   0.237 -1.0680  0.0233  0.7969
  603MOL0     C81335   6.804  -0.477   0.318  0.5284 -0.3513  0.6620
  603MOL0     C81336   7.466  -0.039   0.332  1.1973  0.4858  0.3433
  603MOL0     C81337   7.579   0.039   0.328  0.0012 -0.3450  0.8475
  603MOL0     H81338   8.016   0.209   0.159  0.0600  1.2999 -0.8131
  603MOL0     H81339   8.242   0.333   0.212 -0.1635  3.2362  0.4869
  603MOL0     H81340   8.415   0.436   0.260  0.2847  0.3471  0.3181
  603MOL0     H81341   8.313   0.584   0.234 -0.9311 -0.5173 -0.1454
  603MOL0     H81342   8.547   0.551   0.415 -0.1834  0.8974  0.9405
  603MOL0     H81343   8.535   0.644   0.267 -1.3057 -1.4391 -0.9943
  603MOL0     H81344   8.351   0.771   0.374  2.1887  4.5660 -0.9138
  603MOL0     H81345   8.397   0.709   0.537  1.1525  1.8095  0.6986
  603MOL0     H81346   8.632   0.776   0.502  2.2163  2.3815 -2.2158
  603MOL0     H81347   8.562   0.855   0.357  0.6993 -1.6788 -1.1880
  603MOL0     H81348   8.420   0.999   0.511  0.4364 -0.1080 -1.7817
  603MOL0     H81349   8.475   0.893   0.647  0.4267 -0.6540 -0.3360
  603MOL0     H81350   8.714   1.001   0.571  1.4928  3.2949  0.2502
  603MOL0     H81351   8.595   1.112   0.482  0.7102 -0.2939 -0.0931
  603MOL0     H81352   8.489   1.171   0.690 -0.7877 -1.5111 -1.5970
  603MOL0     H81353   8.602   1.078   0.781 -1.3508 -0.4251 -0.5831
  603MOL0     H81354   8.687   1.325   0.615  2.1642  1.6961  2.8391
  603MOL0     H81355   8.799   1.234   0.694  0.4447  0.0722 -1.9008
  603MOL0     H81356   8.704   1.234   1.009 -1.8788 -0.2586  1.1439
  603MOL0     H81357   8.654   1.569   1.190 -0.8909 -0.6916  2.7514
  603MOL0     H81358   8.646   1.399   1.226  0.2547  0.3667  0.5026
  603MOL0     H81359   8.885   1.540   1.241 -0.3605  0.2506 -0.6211
  603MOL0     H81360   8.893   1.488   1.074  0.1398 -2.5538 -0.9537
  603MOL0     H81361   8.886   1.243   1.157  2.2160 -1.0957  1.6265
  603MOL0     H81362   8.817   1.300   1.304 -1.8802  0.4955 -0.8098
  603MOL0     H81363   9.054   1.230   1.304  0.4877  0.3706 -2.0583
  603MOL0     H81364   9.046   1.408   1.352 -1.2229  0.7195 -1.2802
  603MOL0     H81365   9.258   1.256   1.380  2.2542 -0.6170  0.5808
  603MOL0     H81366   9.526   1.413   1.587  1.9812 -2.8193  2.0573
  603MOL0     H81367   9.426   1.264   1.549 -2.4455  0.3057 -2.4616
  603MOL0     H81368   9.576   1.292   1.473 -0.4111 -0.0168 -1.1098
  603MOL0     H81369   9.772   1.863   1.265  0.1850 -1.0086  0.3014
  603MOL0     H81370   9.948   2.001   1.394 -1.6563  3.9027  2.1647
  603MOL0     H81371  10.035   2.091   1.838  1.2110 -1.5164  2.9060
  603MOL0     H81372   9.881   2.026   1.866 -0.0943  2.4779 -0.1653
  603MOL0     H81373   9.985   1.799   1.818 -1.4261  0.8005  0.2173
  603MOL0     H81374  10.127   1.883   1.746  1.7644 -2.3657  0.3039
  603MOL0     H81375  10.200   1.942   1.976 -0.1347  0.0521 -0.4777
  603MOL0     H81376  10.189   1.772   1.935  1.2102  0.4201  1.4004
  603MOL0     H81377   9.995   1.938   2.098  1.2844  0.1441  1.7061
  603MOL0     H81378   9.974   1.764   2.055 -0.8937  0.3277 -1.4018
  603MOL0     H81379  10.223   1.879   2.206 -1.0819  0.4109  1.0983
  603MOL0     H81380  10.159   1.705   2.188  1.7436  0.4333 -2.4670
  603MOL0     H81381  10.020   1.926   2.338 -0.0351  0.0494  2.0200
  603MOL0     H81382   9.961   1.754   2.313  1.8123 -0.5151 -1.9570
  603MOL0     H81383  10.145   1.672   2.447  0.3827 -0.2096  1.5960
  603MOL0     H81384  10.023   1.771   2.528 -2.4711  4.1630 -1.6611
  603MOL0     H81385  10.195   1.953   2.548 -0.3615 -0.9719  3.1900
  603MOL0     H81386  10.311   1.857   2.453  0.4486 -2.4445  0.0469
  603MOL0     H81387   9.760   1.845   1.757  1.2865 -1.7677 -0.0317
  603MOL0     H81388   9.598   1.721   1.623  1.9195 -1.7092 -0.6104
  603MOL0     H81389   9.452   1.661   1.166 -1.7081 -0.6184 -0.7798
  603MOL0     H81390   9.246   1.576   1.088  2.2827  2.3582 -0.0924
  603MOL0     H81391   8.083   0.463   0.586  1.0294  0.7149  0.1550
  603MOL0     H81392   7.871   0.346   0.540  0.4541 -0.0189  0.7036
  603MOL0     H81393   7.476   0.293   0.128  0.5676  0.4346  0.6679
  603MOL0     H81394   7.284   0.153   0.117  1.7387  0.1426 -1.1679
  603MOL0     H81395   7.324  -0.282   0.283  0.8135  1.8290  1.6727
  603MOL0     H81396   7.235  -0.211   0.404  1.0049 -1.7147  0.2273
  603MOL0     H81397   7.094  -0.375   0.290 -2.0385  1.6200  1.5603
  603MOL0     H81398   7.153  -0.337   0.132 -2.4899 -1.4174 -0.2019
  603MOL0     H81399   7.022  -0.128   0.126  0.7222 -1.4459 -1.4840
  603MOL0     H81400   6.962  -0.169   0.296  1.8672 -1.4041  1.3536
  603MOL0     H81401   6.903  -0.319   0.040  2.1771 -0.7138  0.8328
  603MOL0     H81402   6.802  -0.214   0.125  1.1553  2.4398  1.3657
  603MOL0     H81403   6.786  -0.560   0.383  1.5795 -1.3049 -0.2197
  603MOL0     H81404   7.470  -0.123   0.401 -2.5377  0.7907  1.1246
  603MOL0     H81405   7.666   0.001   0.381 -0.6726 -0.3983  1.9425
  604MOL0     O81406   9.872   4.059  11.228 -0.5604  0.0066 -0.0835
  604MOL0     C81407   9.855   4.148  11.143  0.0728  0.2841 -0.6187
  604MOL0     O81408   9.845   4.283  11.163  0.0337 -0.0817 -0.2908
  604MOL0     C81409   9.876   4.334  11.284 -0.9130  0.5380  0.3064
  604MOL0     C81410   9.973   4.440  11.285 -0.2107 -0.4262 -0.5410
  604MOL0     C81411  10.010   4.491  11.409  0.0001  0.5135 -0.0575
  604MOL0     C81412   9.965   4.436  11.526 -0.5072  0.2855 -0.2830
  604MOL0     O81413   9.998   4.480  11.651 -0.1690 -0.0289 -0.5121
  604MOL0     C81414  10.129   4.544  11.667  0.2796 -0.0818  0.3176
  604MOL0     C81415  10.163   4.541  11.824 -0.2733 -0.4104 -0.6471
  604MOL0     C81416  10.169   4.405  11.891 -0.1071 -0.5013 -1.0031
  604MOL0     C81417  10.034   4.359  11.939  1.1220 -0.0537 -0.6073
  604MOL0     C81418  10.021   4.223  12.005 -0.0421  0.1992 -0.2022
  604MOL0     C81419  10.087   4.237  12.142 -0.0731 -0.3177  0.1570
  604MOL0     C81420  10.083   4.107  12.222 -0.3952 -0.6089 -0.8057
  604MOL0     C81421  10.162   3.994  12.156 -0.8673 -0.1794 -0.1107
  604MOL0     N81422  10.161   3.874  12.236 -0.2913  0.5874 -0.0823
  604MOL0     C81423  10.052   3.820  12.298  1.2700 -0.1801  0.2143
  604MOL0     C81424  10.098   3.706  12.357  0.5305  0.1886  0.5965
  604MOL0     C81425  10.034   3.602  12.444 -1.9624 -0.0415 -0.1143
  604MOL0     C81426   9.910   3.547  12.385  0.8737  0.3550  0.3809
  604MOL0     C81427   9.889   3.397  12.414 -0.0515  0.3639  0.2795
  604MOL0     C81428   9.899   3.309  12.290  0.2201  0.6481 -0.9012
  604MOL0     O81429   9.895   3.174  12.338 -0.4218 -0.3579  0.2392
  604MOL0     C81430   9.776   3.104  12.339 -0.6356 -0.8293 -0.1914
  604MOL0     C81431   9.676   3.088  12.235 -0.6904 -0.4018  0.0087
  604MOL0     C81432   9.571   3.000  12.261  0.4277 -0.6865  1.1160
  604MOL0     C81433   9.477   2.983  12.142 -0.0945 -0.1672  0.0571
  604MOL0     C81434   9.546   2.942  12.382 -0.8666  0.1854  0.2232
  604MOL0     C81435   9.436   2.846  12.412  0.3514  0.2727  0.7547
  604MOL0     O81436   9.437   2.780  12.529 -0.0984 -0.3117 -0.3520
  604MOL0     C81437   9.339   2.693  12.563  0.5284  0.4066  0.0382
  604MOL0     C81438   9.236   2.732  12.636 -0.3921 -0.8733 -0.2920
  604MOL0     C81439   9.137   2.644  12.676  1.0758 -0.0444 -1.0809
  604MOL0     C81440   9.144   2.509  12.638 -0.6401 -0.4113 -0.5181
  604MOL0     O81441   9.059   2.410  12.686  0.0258 -0.2371  0.1471
  604MOL0     C81442   8.936   2.415  12.606 -0.0322 -0.8679  1.1967
  604MOL0     C81443   8.822   2.349  12.685  0.3733 -0.3677  0.1514
  604MOL0     C81444   8.834   2.349  12.838 -0.0611 -0.5009 -0.7362
  604MOL0     C81445   8.807   2.484  12.905 -0.3482  0.0768 -0.7696
  604MOL0     C81446   8.855   2.485  13.051 -0.4977 -0.5787 -0.3901
  604MOL0     C81447   9.010   2.501  13.070  0.8904 -0.7560 -0.5243
  604MOL0     C81448   9.044   2.515  13.218  0.1517  0.0634 -0.3150
  604MOL0     C81449   8.974   2.637  13.295 -0.6768 -0.4345  0.3496
  604MOL0    Cl81450   9.074   2.702  13.433  0.3367  0.6593  0.0180
  604MOL0     C81451   9.258   2.464  12.567 -0.8147 -0.2962  0.0206
  604MOL0     C81452   9.348   2.562  12.525 -0.5236 -0.3597  0.4624
  604MOL0     O81453   9.339   2.842  12.331 -0.7939 -0.0390  0.5432
  604MOL0     C81454   9.645   2.961  12.483  0.6630 -0.2318  0.1472
  604MOL0     C81455   9.755   3.041  12.464  0.1471  1.2651 -0.2265
  604MOL0     N81456  10.230   3.699  12.325  0.3157  0.0631 -0.5112
  604MOL0     N81457  10.275   3.791  12.247 -0.7511 -0.2596 -0.1817
  604MOL0     C81458   9.859   4.339  11.522 -0.3218 -0.6249 -0.0470
  604MOL0     C81459   9.811   4.294  11.404 -0.4452  0.2644  0.6355
  604MOL0     C81460   9.851   4.102  10.999 -0.3572 -0.3134 -0.9210
  604MOL0     C81461   9.899   3.975  10.966  0.8311 -0.0286 -0.0789
  604MOL0     C81462   9.910   3.928  10.833  0.7436 -0.0854  0.4224
  604MOL0     C81463   9.871   4.007  10.730  0.6127 -1.3836 -0.0231
  604MOL0     O81464   9.874   3.963  10.600 -0.8135  0.2324 -0.3878
  604MOL0     C81465   9.896   4.058  10.501 -0.0130 -0.7223  0.3987
  604MOL0     C81466   9.985   3.995  10.386 -0.1915  0.9046  0.4747
  604MOL0     C81467  10.116   3.935  10.437  0.1751 -0.9342  0.4149
  604MOL0     C81468  10.099   3.782  10.449 -0.2742  0.4530  0.5892
  604MOL0     C81469  10.233   3.726  10.473 -0.4370 -0.5398  0.1406
  604MOL0     C81470  10.337   3.682  10.514 -1.3955 -0.9644  0.2556
  604MOL0     C81471   9.817   4.139  10.762 -0.2880  0.5014  0.4147
  604MOL0     C81472   9.808   4.183  10.890 -0.0294 -0.4844  0.2834
  604MOL0     H81473  10.026   4.472  11.196 -0.5680 -2.3314 -1.4720
  604MOL0     H81474  10.082   4.572  11.417 -0.6262  1.0261  0.4120
  604MOL0     H81475  10.204   4.490  11.610  0.0405  0.0478 -0.1211
  604MOL0     H81476  10.125   4.651  11.644 -1.5736 -0.2924 -0.5513
  604MOL0     H81477  10.259   4.583  11.853 -0.4564 -0.8875  0.7367
  604MOL0     H81478  10.103   4.607  11.887 -0.9103 -2.3370  0.8577
  604MOL0     H81479  10.208   4.335  11.817  0.9300 -1.7316  0.6333
  604MOL0     H81480  10.232   4.410  11.981 -3.3796  2.2514  1.4022
  604MOL0     H81481   9.994   4.435  12.007  1.8979  0.7772 -1.0577
  604MOL0     H81482   9.973   4.339  11.851  0.9525  1.5495 -0.8793
  604MOL0     H81483   9.914   4.200  12.013  0.0008  0.3279  0.8552
  604MOL0     H81484  10.070   4.147  11.943  2.1802  1.1426  0.2884
  604MOL0     H81485  10.193   4.263  12.135  0.1783 -1.5261 -0.6925
  604MOL0     H81486  10.028   4.322  12.180  2.6769  3.1487 -2.5922
  604MOL0     H81487  10.104   4.122  12.329 -0.7897 -2.9173 -0.3537
  604MOL0     H81488   9.986   4.058  12.235 -0.2453 -0.8232 -0.4718
  604MOL0     H81489  10.262   4.040  12.155 -0.0002 -2.0046 -0.6078
  604MOL0     H81490  10.127   3.961  12.058  1.6134  3.6350 -2.5686
  604MOL0     H81491   9.960   3.869  12.327  1.8370  1.3404 -0.4447
  604MOL0     H81492  10.112   3.526  12.454 -0.3024  1.4420 -1.2492
  604MOL0     H81493  10.012   3.646  12.542 -2.5804 -1.4495  0.4093
  604MOL0     H81494   9.913   3.575  12.280 -1.2540  2.4190  0.7852
  604MOL0     H81495   9.823   3.596  12.429 -0.3606 -2.1768  0.9917
  604MOL0     H81496   9.785   3.393  12.448 -0.4023 -3.4940 -0.7698
  604MOL0     H81497   9.948   3.362  12.499 -1.4360 -1.3886  0.5849
  604MOL0     H81498   9.985   3.333  12.227  0.6504 -1.1303 -1.0278
  604MOL0     H81499   9.816   3.336  12.224 -1.9202 -0.2279  1.2509
  604MOL0     H81500   9.690   3.138  12.140  2.1116  1.2701  1.1781
  604MOL0     H81501   9.375   3.001  12.177 -0.7859 -2.2819 -0.7485
  604MOL0     H81502   9.503   3.048  12.058  0.1416  0.6209  0.7222
  604MOL0     H81503   9.488   2.877  12.120  0.0310 -0.4234  1.2729
  604MOL0     H81504   9.226   2.837  12.663  0.8796 -1.2979  2.0765
  604MOL0     H81505   9.050   2.677  12.732  2.4298  0.6550  0.7298
  604MOL0     H81506   8.909   2.520  12.593  1.9971 -0.6487 -2.8631
  604MOL0     H81507   8.949   2.362  12.511  0.8614  1.0555  0.1990
  604MOL0     H81508   8.730   2.404  12.662  2.1072  2.0683 -1.5330
  604MOL0     H81509   8.813   2.246  12.650  0.5680 -0.8861  1.5564
  604MOL0     H81510   8.938   2.318  12.852 -0.6564 -2.4979 -0.4735
  604MOL0     H81511   8.764   2.274  12.877  0.8080 -1.8614 -1.6810
  604MOL0     H81512   8.847   2.574  12.858 -2.3573  1.0605 -0.7288
  604MOL0     H81513   8.698   2.490  12.913 -0.3789 -1.6116  0.6635
  604MOL0     H81514   8.815   2.400  13.108 -0.0978 -0.6249 -0.1774
  604MOL0     H81515   8.805   2.572  13.095  1.8064 -0.1454  1.6170
  604MOL0     H81516   9.060   2.413  13.031  1.1927  0.3169 -2.6797
  604MOL0     H81517   9.052   2.595  13.032  3.2602 -1.8579 -0.7941
  604MOL0     H81518   9.149   2.545  13.227  0.8715 -2.6621  1.6289
  604MOL0     H81519   9.029   2.424  13.277  1.3160  0.9088  1.3443
  604MOL0     H81520   8.878   2.616  13.343 -3.8312  3.5177 -3.4165
  604MOL0     H81521   8.957   2.724  13.230 -0.7366 -0.3632  0.4604
  604MOL0     H81522   9.270   2.358  12.549 -1.1104 -0.2032 -0.7490
  604MOL0     H81523   9.449   2.541  12.490  0.5397  1.9531  1.9178
  604MOL0     H81524   9.638   2.911  12.579  0.1890 -0.2312  0.1132
  604MOL0     H81525   9.826   3.053  12.545 -0.3216  3.4106 -0.0522
  604MOL0     H81526   9.812   4.313  11.616 -2.1001  2.3830  0.0457
  604MOL0     H81527   9.731   4.221  11.403 -1.3037  1.0972  2.7006
  604MOL0     H81528   9.931   3.902  11.040 -1.3562 -0.2660  0.7093
  604MOL0     H81529   9.944   3.826  10.823 -0.6519 -0.8010  2.2905
  604MOL0     H81530   9.798   4.079  10.457  0.3604  3.6987  1.1745
  604MOL0     H81531   9.935   4.154  10.534  1.6963 -0.7044 -1.4403
  604MOL0     H81532  10.002   4.081  10.321 -1.3466  1.8625  1.4103
  604MOL0     H81533   9.933   3.917  10.329 -3.1595  1.2498  2.5039
  604MOL0     H81534  10.145   3.970  10.536 -1.1739  3.4873 -0.5191
  604MOL0     H81535  10.193   3.967  10.367  0.2303  0.3770  1.0548
  604MOL0     H81536  10.061   3.730  10.360 -1.0280 -1.4643  1.9644
  604MOL0     H81537  10.035   3.759  10.535 -2.2045 -1.1854 -1.1758
  604MOL0     H81538  10.421   3.628  10.555  0.3048  0.2308 -1.4720
  604MOL0     H81539   9.776   4.190  10.676 -1.8521 -2.3641 -0.6667
  604MOL0     H81540   9.759   4.273  10.926 -1.8923 -0.3163 -2.4071
  605MOL0     O81541   1.486  11.189   5.556 -0.2481 -0.4220  0.6361
  605MOL0     C81542   1.424  11.108   5.479  0.0424  0.1712 -0.0188
  605MOL0     O81543   1.363  11.145   5.357 -0.0386  0.2920  0.4866
  605MOL0     C81544   1.382  11.274   5.305 -0.6962 -0.1238  0.0624
  605MOL0     C81545   1.489  11.367   5.326 -0.3958 -0.4423 -1.7769
  605MOL0     C81546   1.495  11.491   5.267 -0.5207  0.0048 -0.2608
  605MOL0     C81547   1.401  11.533   5.173  0.1352 -0.4712  0.0893
  605MOL0     O81548   1.403  11.649   5.099 -0.3041  0.2812  0.6042
  605MOL0     C81549   1.531  11.698   5.050  0.3744 -0.7438  0.0549
  605MOL0     C81550   1.552  11.622   4.930 -0.5405  1.3819 -0.4036
  605MOL0     C81551   1.686  11.671   4.856 -0.3778 -0.7205  0.4195
  605MOL0     C81552   1.668  11.807   4.794  0.0130 -0.2856  0.0893
  605MOL0     C81553   1.761  11.848   4.669 -0.1927  0.0587 -0.7532
  605MOL0     C81554   1.769  11.996   4.663 -0.4131  0.3957  0.6720
  605MOL0     C81555   1.845  12.035   4.545  0.1108  0.8466  0.9571
  605MOL0     C81556   1.925  12.165   4.558  0.2601  0.1201 -0.2476
  605MOL0     N81557   1.973  12.223   4.433  0.0393 -0.6008 -0.0895
  605MOL0     C81558   1.890  12.246   4.326 -0.6813 -0.2112 -0.1368
  605MOL0     C81559   1.964  12.303   4.233 -0.0160 -0.0986 -0.2165
  605MOL0     C81560   1.921  12.342   4.090 -0.4637 -0.7307  1.3613
  605MOL0     C81561   1.947  12.484   4.065 -0.2553  0.2189  0.7325
  605MOL0     C81562   1.950  12.517   3.919 -0.2206 -0.0186  0.0013
  605MOL0     C81563   1.981  12.671   3.881 -0.2981  0.1439 -0.8297
  605MOL0     O81564   2.105  12.700   3.956 -0.4901 -0.1901 -0.1894
  605MOL0     C81565   2.163  12.820   3.939  0.6007 -0.0875 -0.1135
  605MOL0     C81566   2.132  12.921   3.849  0.8888  0.0492 -0.5262
  605MOL0     C81567   2.206  13.040   3.839 -0.5530  0.5220  0.5523
  605MOL0     C81568   2.159  13.132   3.736  0.1228  0.0426  0.7536
  605MOL0     C81569   2.321  13.064   3.924 -0.0263 -0.1640  1.1183
  605MOL0     C81570   2.400  13.190   3.919  0.0628 -0.9548  0.7068
  605MOL0     O81571   2.532  13.175   3.952 -0.5186 -0.5514  0.4691
  605MOL0     C81572   2.612  13.287   3.963 -0.0750  0.0322 -0.5051
  605MOL0     C81573   2.623  13.384   3.864 -0.2697  0.0443 -1.0680
  605MOL0     C81574   2.710  13.496   3.893 -0.2285  0.0132 -0.0653
  605MOL0     C81575   2.779  13.514   4.022 -0.8839 -0.5158  0.4395
  605MOL0     O81576   2.855  13.625   4.060  0.6887 -0.0609 -0.4803
  605MOL0     C81577   2.840  13.746   3.986 -0.0132 -0.5277 -0.0011
  605MOL0     C81578   2.965  13.828   4.015 -1.0213 -0.4326 -0.2813
  605MOL0     C81579   3.009  13.827   4.158 -0.1494  0.2132  0.2210
  605MOL0     C81580   2.927  13.920   4.251 -0.6714 -0.5428  0.1417
  605MOL0     C81581   2.784  13.869   4.290  0.0558  0.5353 -0.0207
  605MOL0     C81582   2.735  13.943   4.417 -0.5580 -0.4357 -0.1356
  605MOL0     C81583   2.698  14.086   4.383  0.2589 -0.3354  0.2935
  605MOL0     C81584   2.592  14.135   4.490 -0.0340  0.4844 -0.7109
  605MOL0    Cl81585   2.643  14.135   4.660 -0.1518 -0.2914  0.2444
  605MOL0     C81586   2.753  13.414   4.114  0.2853  0.3541 -0.0216
  605MOL0     C81587   2.663  13.305   4.083 -0.4634 -0.0074  0.5256
  605MOL0     O81588   2.349  13.293   3.880  0.0142 -0.4915  0.0759
  605MOL0     C81589   2.363  12.960   4.009  0.1062 -0.7158 -0.6609
  605MOL0     C81590   2.280  12.840   4.022 -0.5546  0.5555  0.1088
  605MOL0     N81591   2.093  12.328   4.284 -0.1338  0.1720  0.0873
  605MOL0     N81592   2.099  12.279   4.405 -0.1299 -1.3716 -0.5750
  605MOL0     C81593   1.290  11.444   5.155  0.0048  0.4237  0.9573
  605MOL0     C81594   1.285  11.314   5.218 -0.1615 -0.5549 -0.0201
  605MOL0     C81595   1.441  10.967   5.512 -0.3870  0.7252  0.4255
  605MOL0     C81596   1.403  10.870   5.418 -0.6590 -0.0769 -0.8441
  605MOL0     C81597   1.427  10.738   5.442 -0.4497 -0.1578  0.7182
  605MOL0     C81598   1.490  10.686   5.558  0.4525  0.0301  0.7026
  605MOL0     O81599   1.515  10.551   5.590  0.4904  0.2739 -0.4617
  605MOL0     C81600   1.475  10.452   5.485  0.0626 -0.1470 -0.5958
  605MOL0     C81601   1.532  10.316   5.513  0.3871  0.0194 -0.6392
  605MOL0     C81602   1.471  10.205   5.413  0.2645 -0.3988 -0.9658
  605MOL0     C81603   1.539  10.069   5.422 -1.0247 -0.4450 -0.7775
  605MOL0     C81604   1.683  10.092   5.384  0.0852 -0.4583  0.0943
  605MOL0     C81605   1.799  10.119   5.364 -0.0748  0.1918 -0.2514
  605MOL0     C81606   1.523  10.782   5.654 -0.7287 -0.5022 -0.4578
  605MOL0     C81607   1.503  10.917   5.630  0.8140 -0.2056  0.2899
  605MOL0     H81608   1.573  11.323   5.379 -1.8797 -0.7776  0.3844
  605MOL0     H81609   1.583  11.552   5.289 -0.6806  1.5255 -3.2768
  605MOL0     H81610   1.529  11.804   5.025 -0.3960 -0.3957  1.4740
  605MOL0     H81611   1.605  11.705   5.131 -1.4189  2.2485  1.6045
  605MOL0     H81612   1.567  11.515   4.951  1.0524  1.9487  1.7643
  605MOL0     H81613   1.465  11.623   4.864 -0.7625  0.9718 -0.1205
  605MOL0     H81614   1.772  11.674   4.924 -0.9868  0.4357  1.1619
  605MOL0     H81615   1.713  11.604   4.773 -1.4849  1.1381 -1.5370
  605MOL0     H81616   1.570  11.808   4.745 -1.4549 -4.2295  2.4792
  605MOL0     H81617   1.668  11.877   4.878 -1.0016 -1.0749  0.7837
  605MOL0     H81618   1.859  11.799   4.664 -1.6661 -3.0493 -2.1917
  605MOL0     H81619   1.715  11.814   4.575 -0.8084 -0.1166 -0.3949
  605MOL0     H81620   1.673  12.049   4.663  0.4768  2.0901  0.7218
  605MOL0     H81621   1.826  12.031   4.749 -0.7281 -0.1201  1.0993
  605MOL0     H81622   1.908  11.948   4.521 -2.4495 -0.7872 -0.3586
  605MOL0     H81623   1.773  12.040   4.463  1.4269  1.6970 -0.1949
  605MOL0     H81624   2.002  12.129   4.627 -0.2680 -3.7881 -1.4142
  605MOL0     H81625   1.861  12.237   4.610 -2.7673 -2.1775 -0.4627
  605MOL0     H81626   1.784  12.227   4.312 -0.5619 -1.8385  1.0133
  605MOL0     H81627   1.977  12.281   4.019  0.4305  0.5232  0.9670
  605MOL0     H81628   1.814  12.322   4.081 -0.3888 -0.3114 -1.1654
  605MOL0     H81629   2.047  12.510   4.101  0.1128 -0.3477  0.1399
  605MOL0     H81630   1.874  12.545   4.118 -3.0829 -1.1013 -1.4130
  605MOL0     H81631   1.856  12.486   3.874 -1.0927 -0.5623  2.0727
  605MOL0     H81632   2.035  12.462   3.876 -0.3530  2.0856 -3.2428
  605MOL0     H81633   1.906  12.744   3.913  1.8621  1.4320  1.6583
  605MOL0     H81634   1.993  12.675   3.772  2.1811  2.7228 -0.5551
  605MOL0     H81635   2.059  12.906   3.771 -1.6810 -1.3280  1.9454
  605MOL0     H81636   2.113  13.218   3.786  1.7694  0.5176  1.5596
  605MOL0     H81637   2.244  13.182   3.687 -2.2551  2.4189 -1.2677
  605MOL0     H81638   2.100  13.089   3.655  2.6910 -1.4539 -0.4720
  605MOL0     H81639   2.567  13.381   3.771 -0.4443 -0.6781 -0.9429
  605MOL0     H81640   2.717  13.579   3.824 -0.1727 -1.2755 -1.6896
  605MOL0     H81641   2.836  13.722   3.879  0.4895 -1.5809  0.2027
  605MOL0     H81642   2.749  13.795   4.020  0.8863  0.6699  0.7804
  605MOL0     H81643   3.044  13.770   3.967 -0.3751 -1.3020  1.7147
  605MOL0     H81644   2.964  13.927   3.970  0.8718  0.2700  1.0975
  605MOL0     H81645   3.113  13.857   4.150  0.0931 -0.9259 -1.6210
  605MOL0     H81646   3.011  13.726   4.200  2.2582  0.8823  1.9103
  605MOL0     H81647   2.990  13.938   4.339  0.6785 -1.8220 -0.5302
  605MOL0     H81648   2.910  14.023   4.218 -1.9837 -0.2956  1.4884
  605MOL0     H81649   2.776  13.760   4.299  0.1953  0.2525 -2.4460
  605MOL0     H81650   2.715  13.894   4.209  2.2556  0.2672 -2.0996
  605MOL0     H81651   2.653  13.895   4.471 -0.8495  2.0934  1.8677
  605MOL0     H81652   2.817  13.934   4.488  1.1361 -3.2932 -2.2307
  605MOL0     H81653   2.655  14.100   4.283 -1.8037 -0.4761  1.1230
  605MOL0     H81654   2.782  14.156   4.388 -1.3408  1.6264  1.8319
  605MOL0     H81655   2.499  14.077   4.478  0.9794 -2.1795  2.8964
  605MOL0     H81656   2.570  14.238   4.460  1.2865  0.7861 -0.6871
  605MOL0     H81657   2.804  13.418   4.210  1.1382 -0.3256 -0.4264
  605MOL0     H81658   2.639  13.224   4.151 -0.6903 -0.9075 -0.5977
  605MOL0     H81659   2.450  12.964   4.073  1.4672 -2.4208 -2.2699
  605MOL0     H81660   2.304  12.766   4.098 -3.1243  1.5986  2.0806
  605MOL0     H81661   1.203  11.480   5.102  0.3099  2.2080  1.6148
  605MOL0     H81662   1.210  11.246   5.179  0.2481 -2.6623  2.5736
  605MOL0     H81663   1.351  10.914   5.333 -0.9627  2.9036  0.7258
  605MOL0     H81664   1.395  10.679   5.357 -3.4526  1.6257  0.4668
  605MOL0     H81665   1.367  10.432   5.483  0.2583 -1.4997  0.8880
  605MOL0     H81666   1.504  10.493   5.388 -1.7482  0.2992 -0.9891
  605MOL0     H81667   1.509  10.283   5.615 -2.7181  2.8807 -0.2102
  605MOL0     H81668   1.640  10.320   5.500  0.6287 -1.8260  0.4158
  605MOL0     H81669   1.487  10.229   5.308 -2.3927  0.0738 -1.3076
  605MOL0     H81670   1.365  10.199   5.438  0.6346  1.0787  1.2920
  605MOL0     H81671   1.488  10.004   5.350 -2.4460 -1.7880  1.3256
  605MOL0     H81672   1.536  10.024   5.522 -1.9054 -1.5016 -1.2616
  605MOL0     H81673   1.897  10.152   5.337  0.2825  0.1039  0.8661
  605MOL0     H81674   1.564  10.746   5.748 -2.1850 -0.5032  0.2036
  605MOL0     H81675   1.536  10.982   5.710 -2.2535  1.1403  0.6247
  606MOL0     O81676   8.745   0.024   5.319 -0.0800  0.8752 -1.1470
  606MOL0     C81677   8.681   0.131   5.317  0.6881  1.0450 -0.0336
  606MOL0     O81678   8.672   0.224   5.424 -0.0646  0.2119  1.0990
  606MOL0     C81679   8.763   0.199   5.520  0.2663 -0.0799  0.0918
  606MOL0     C81680   8.733   0.117   5.627 -0.2877  0.7267 -0.3169
  606MOL0     C81681   8.821   0.095   5.728 -0.2753 -0.3237  0.2489
  606MOL0     C81682   8.940   0.162   5.728 -0.1766 -0.0509  1.2141
  606MOL0     O81683   9.030   0.169   5.826 -0.7718 -0.0895 -0.6254
  606MOL0     C81684   8.998   0.149   5.968 -0.1259  0.4980 -0.2743
  606MOL0     C81685   9.117   0.213   6.047 -0.3071  0.0724 -0.4035
  606MOL0     C81686   9.154   0.361   6.008 -0.4638 -0.2461  1.3677
  606MOL0     C81687   9.294   0.405   6.049  0.4486  0.5129  0.6132
  606MOL0     C81688   9.316   0.557   6.047  0.0639  0.0665  0.7734
  606MOL0     C81689   9.459   0.596   6.081 -0.1311  0.4661 -0.2183
  606MOL0     C81690   9.511   0.559   6.225  0.4324  0.1798  0.2955
  606MOL0     C81691   9.664   0.571   6.249 -0.4144 -0.6165  0.1873
  606MOL0     N81692   9.735   0.691   6.193  0.6166  0.4788 -0.1630
  606MOL0     C81693   9.844   0.676   6.104 -0.5190 -0.5867  0.9980
  606MOL0     C81694   9.922   0.789   6.131  0.2291  0.6049 -0.4989
  606MOL0     C81695  10.054   0.815   6.070 -0.7092  0.0172  0.9939
  606MOL0     C81696  10.169   0.729   6.133  0.2268  0.5741  0.2401
  606MOL0     C81697  10.222   0.797   6.259  0.0148  0.0092  0.7288
  606MOL0     C81698  10.329   0.717   6.336  0.1969 -0.2485  0.1441
  606MOL0     O81699  10.455   0.723   6.249  0.3520  0.2750 -0.3675
  606MOL0     C81700  10.569   0.675   6.297 -0.0970 -0.5503  0.2343
  606MOL0     C81701  10.684   0.682   6.223 -0.0750  0.3179  0.6176
  606MOL0     C81702  10.797   0.618   6.272 -0.3827 -0.5801 -0.7383
  606MOL0     C81703  10.896   0.606   6.158  0.6401 -0.6282  0.2180
  606MOL0     C81704  10.814   0.564   6.407 -0.0857  0.1177  0.5776
  606MOL0     C81705  10.930   0.504   6.473  0.1460  0.7008  0.4875
  606MOL0     O81706  10.947   0.540   6.605 -0.8077  0.3003  0.4579
  606MOL0     C81707  11.040   0.476   6.690  0.0290 -1.5206  0.2124
  606MOL0     C81708  11.000   0.451   6.822  0.8182  0.9691  0.5401
  606MOL0     C81709  11.091   0.398   6.926  0.1307  0.4630  0.5746
  606MOL0     C81710  11.227   0.363   6.889  1.0323 -0.4630  0.0363
  606MOL0     O81711  11.314   0.304   6.977  0.2533  0.2750 -0.0361
  606MOL0     C81712  11.271   0.221   7.083 -0.2473 -0.4391  0.0179
  606MOL0     C81713  11.287   0.298   7.220  0.1985 -0.1481  0.1595
  606MOL0     C81714  11.257   0.196   7.338  0.5005  0.0770 -0.3349
  606MOL0     C81715  11.270   0.261   7.479  0.9760 -0.2061 -0.4820
  606MOL0     C81716  11.267   0.158   7.594 -0.4709 -0.0569  0.0254
  606MOL0     C81717  11.411   0.100   7.622 -0.3908  0.4597 -0.0665
  606MOL0     C81718  11.402   0.030   7.761  0.5579 -0.6041  0.2398
  606MOL0     C81719  11.483  -0.099   7.759  0.8530 -0.3716 -0.5410
  606MOL0    Cl81720  11.660  -0.083   7.739 -0.2143  0.1443  0.3710
  606MOL0     C81721  11.257   0.403   6.765 -0.7061  0.0129 -0.6514
  606MOL0     C81722  11.177   0.463   6.669  0.1523 -0.0678 -0.6305
  606MOL0     O81723  10.993   0.419   6.410  0.3813  0.1038  0.1988
  606MOL0     C81724  10.700   0.585   6.488 -0.6283 -0.4470 -0.1080
  606MOL0     C81725  10.581   0.631   6.433 -0.5240 -0.6032 -0.5738
  606MOL0     N81726   9.856   0.858   6.238  0.6903  0.1883 -0.3504
  606MOL0     N81727   9.745   0.799   6.268  0.1656 -0.0856 -1.0854
  606MOL0     C81728   8.973   0.254   5.624 -0.1226  0.3484 -0.8501
  606MOL0     C81729   8.880   0.271   5.518  0.2241  0.3449  0.1187
  606MOL0     C81730   8.599   0.163   5.203  0.0768 -0.9821  1.0037
  606MOL0     C81731   8.585   0.080   5.088  0.3050 -0.6064  0.6079
  606MOL0     C81732   8.501   0.111   4.988  0.0568  0.9050  0.2625
  606MOL0     C81733   8.417   0.226   4.991 -0.0141 -0.5483 -0.0141
  606MOL0     O81734   8.350   0.226   4.871 -0.1764  0.8300  0.1906
  606MOL0     C81735   8.234   0.303   4.855  0.9167  0.2419 -0.6835
  606MOL0     C81736   8.231   0.360   4.715  0.7810 -0.4049  0.3172
  606MOL0     C81737   8.094   0.438   4.694  0.4141  0.2920  0.8218
  606MOL0     C81738   8.039   0.439   4.552 -0.5197  0.9128 -0.0712
  606MOL0     C81739   7.913   0.520   4.548 -0.3273 -0.3451  0.8413
  606MOL0     C81740   7.807   0.584   4.529  0.1092  0.6064 -0.0986
  606MOL0     C81741   8.404   0.286   5.114  0.0223 -0.3644 -0.0194
  606MOL0     C81742   8.494   0.258   5.216 -0.3685  0.1736  0.8697
  606MOL0     H81743   8.635   0.070   5.632 -0.0642  0.3047  0.3050
  606MOL0     H81744   8.803   0.023   5.807  1.3412  0.8766  1.7827
  606MOL0     H81745   8.902   0.192   5.998 -2.2659 -3.4320 -0.8133
  606MOL0     H81746   8.983   0.042   5.989 -1.5522  0.6894 -0.2258
  606MOL0     H81747   9.096   0.211   6.154  4.0962 -1.3186  0.6137
  606MOL0     H81748   9.210   0.160   6.027  0.3108  0.8413  0.3595
  606MOL0     H81749   9.161   0.381   5.900  2.2662  2.3862  1.8767
  606MOL0     H81750   9.079   0.431   6.047 -3.3665 -0.8470 -2.4985
  606MOL0     H81751   9.333   0.373   6.146  4.3371  1.4817 -0.4742
  606MOL0     H81752   9.365   0.368   5.975  0.9136  0.0312  1.2929
  606MOL0     H81753   9.310   0.600   5.947 -0.5197  0.1688  0.8464
  606MOL0     H81754   9.251   0.612   6.116  0.9645  0.8553  1.0193
  606MOL0     H81755   9.513   0.544   6.002 -2.0261  0.2425 -1.4491
  606MOL0     H81756   9.491   0.699   6.060  1.6249 -0.0964 -0.4518
  606MOL0     H81757   9.471   0.622   6.305  1.1096 -0.7074  1.3532
  606MOL0     H81758   9.493   0.459   6.266  2.7708 -0.6778 -0.5841
  606MOL0     H81759   9.719   0.478   6.231  0.3971  0.1702 -1.6018
  606MOL0     H81760   9.679   0.580   6.357  1.9238  0.3971 -0.1560
  606MOL0     H81761   9.874   0.595   6.038 -1.0281  0.4447 -0.5520
  606MOL0     H81762  10.042   0.788   5.965  2.2625 -1.0063  0.8154
  606MOL0     H81763  10.076   0.922   6.079 -0.1601 -0.0164  0.1708
  606MOL0     H81764  10.248   0.715   6.058  0.4724  1.3368  0.3539
  606MOL0     H81765  10.124   0.639   6.178 -0.1687  1.7926  2.4258
  606MOL0     H81766  10.140   0.814   6.329 -0.2492 -1.2685  0.7559
  606MOL0     H81767  10.268   0.886   6.215 -0.6981 -1.3918 -3.2736
  606MOL0     H81768  10.299   0.614   6.355 -2.3072  0.1942 -0.9878
  606MOL0     H81769  10.357   0.766   6.430 -1.0371 -0.2879  0.5413
  606MOL0     H81770  10.679   0.710   6.119  1.2371 -2.3822 -0.2657
  606MOL0     H81771  10.843   0.562   6.073  0.3158  2.1935 -1.1858
  606MOL0     H81772  10.923   0.706   6.121  3.4990 -1.6101 -0.5453
  606MOL0     H81773  10.979   0.543   6.188  1.7014  1.6758  2.5120
  606MOL0     H81774  10.895   0.444   6.846  0.2502 -1.3324 -2.0309
  606MOL0     H81775  11.056   0.378   7.027 -1.4679  1.8361  0.3390
  606MOL0     H81776  11.167   0.188   7.076 -0.3718  0.0255 -6.5075
  606MOL0     H81777  11.336   0.134   7.091  0.5573  0.3221  3.4960
  606MOL0     H81778  11.383   0.350   7.220 -0.9573  2.1499  1.0869
  606MOL0     H81779  11.217   0.382   7.227 -0.3697 -0.5835 -0.1558
  606MOL0     H81780  11.336   0.121   7.324  0.2372 -0.4466  0.8695
  606MOL0     H81781  11.165   0.140   7.324  1.4209 -0.9004 -2.9405
  606MOL0     H81782  11.355   0.325   7.505  1.1150 -2.0863  5.0590
  606MOL0     H81783  11.186   0.331   7.488 -0.7136 -2.1123 -0.7341
  606MOL0     H81784  11.194   0.082   7.565 -0.2927  0.0564 -0.7226
  606MOL0     H81785  11.237   0.205   7.689  2.3812 -0.7175  1.3508
  606MOL0     H81786  11.451   0.028   7.550 -0.6251 -2.7699  2.8105
  606MOL0     H81787  11.486   0.179   7.631  0.0592 -0.1293  1.6661
  606MOL0     H81788  11.298  -0.003   7.775 -0.5003  1.1847 -2.5914
  606MOL0     H81789  11.430   0.094   7.845  0.9688  0.1137 -0.4280
  606MOL0     H81790  11.449  -0.173   7.686  1.9260 -2.0001  0.5416
  606MOL0     H81791  11.472  -0.140   7.860  0.6205 -0.2156 -0.5011
  606MOL0     H81792  11.361   0.379   6.747 -0.0282 -0.6248  3.1867
  606MOL0     H81793  11.216   0.511   6.579 -0.1393  0.8632 -0.2742
  606MOL0     H81794  10.696   0.558   6.593  1.3010 -2.3382 -0.4409
  606MOL0     H81795  10.497   0.636   6.502 -0.8668 -0.2779 -1.0100
  606MOL0     H81796   9.064   0.313   5.630  0.2920 -0.0536 -2.7031
  606MOL0     H81797   8.916   0.330   5.434  0.8973  0.3919  0.4336
  606MOL0     H81798   8.649  -0.005   5.068 -1.2304 -1.2423 -1.9859
  606MOL0     H81799   8.512   0.047   4.902 -1.5396 -1.6860  1.8468
  606MOL0     H81800   8.150   0.235   4.874  1.7089 -0.6295 -0.2343
  606MOL0     H81801   8.227   0.388   4.923  0.8464  0.9318 -1.5393
  606MOL0     H81802   8.241   0.277   4.645 -2.3204  1.2548 -2.3542
  606MOL0     H81803   8.309   0.436   4.708  0.8062 -0.4305  0.3178
  606MOL0     H81804   8.109   0.540   4.731  0.9261  0.5178  0.0158
  606MOL0     H81805   8.019   0.396   4.761 -2.9256 -0.7320 -3.1248
  606MOL0     H81806   8.006   0.338   4.529  2.3588 -0.1328 -0.0186
  606MOL0     H81807   8.111   0.469   4.475  3.3659 -3.0172  1.6020
  606MOL0     H81808   7.708   0.623   4.526 -1.2461 -2.0941  3.2236
  606MOL0     H81809   8.337   0.366   5.143  0.3730 -0.7964  2.1286
  606MOL0     H81810   8.482   0.305   5.313 -0.9683 -2.0501  1.9583
  607MOL0     O81811   0.879   4.050   1.583  0.3557 -0.7923  0.1564
  607MOL0     C81812   0.999   4.030   1.607  0.8168  1.4947  0.2548
  607MOL0     O81813   1.092   3.993   1.515  0.8598 -0.2037 -0.6349
  607MOL0     C81814   1.050   3.946   1.390 -0.9660 -0.2815 -0.8446
  607MOL0     C81815   1.066   4.039   1.286 -0.2897  0.4240  0.1429
  607MOL0     C81816   1.052   4.002   1.151  0.4126  0.5477 -0.2185
  607MOL0     C81817   1.007   3.873   1.124 -0.1599  0.2621 -0.0128
  607MOL0     O81818   0.992   3.845   0.997  0.0540  0.6849 -0.7836
  607MOL0     C81819   1.096   3.764   0.937  0.2477  0.3193 -1.3976
  607MOL0     C81820   1.018   3.639   0.871 -0.5954 -0.9603 -0.6236
  607MOL0     C81821   0.960   3.529   0.960 -0.2560  0.4452  0.6197
  607MOL0     C81822   0.936   3.396   0.880 -0.0560 -0.2425 -0.5262
  607MOL0     C81823   0.860   3.286   0.964  0.8911  0.2831  0.1791
  607MOL0     C81824   0.928   3.228   1.088 -0.4212  0.3940 -0.2011
  607MOL0     C81825   0.828   3.152   1.172 -0.1455 -0.4784 -0.5722
  607MOL0     C81826   0.911   3.054   1.251 -0.8275  1.4090 -0.5879
  607MOL0     N81827   0.832   2.946   1.315 -0.4856  0.1225  0.2136
  607MOL0     C81828   0.744   2.960   1.420  0.3775  0.2917  0.2825
  607MOL0     C81829   0.679   2.844   1.432  0.0772  0.7076 -0.1060
  607MOL0     C81830   0.571   2.814   1.539 -0.3535 -1.1582 -0.4712
  607MOL0     C81831   0.461   2.924   1.531 -0.2503  0.2062  0.1464
  607MOL0     C81832   0.324   2.881   1.593  0.3829 -0.3111 -0.3990
  607MOL0     C81833   0.339   2.861   1.744  0.9698  0.0844  0.2729
  607MOL0     O81834   0.431   2.948   1.812 -0.0365 -0.7044 -1.0986
  607MOL0     C81835   0.432   2.953   1.951 -0.1256  0.1137 -0.5751
  607MOL0     C81836   0.535   3.022   2.016 -1.1947  0.5618  0.1393
  607MOL0     C81837   0.540   3.045   2.157 -0.7566 -0.2022  0.4151
  607MOL0     C81838   0.653   3.132   2.214  0.6414  0.3308 -0.1153
  607MOL0     C81839   0.428   3.003   2.235 -0.6282 -1.4841  0.2995
  607MOL0     C81840   0.401   3.049   2.381  0.1374  0.7141  0.7143
  607MOL0     O81841   0.283   3.016   2.430  0.6801 -0.2399 -0.2005
  607MOL0     C81842   0.246   3.032   2.566 -1.2459 -1.1568  0.5566
  607MOL0     C81843   0.326   3.075   2.677 -0.0034  0.2495  0.2472
  607MOL0     C81844   0.267   3.115   2.804 -0.7540  0.1022 -0.2556
  607MOL0     C81845   0.129   3.086   2.816 -0.3733 -0.3939  0.5845
  607MOL0     O81846   0.067   3.118   2.936 -0.2863  0.1816 -0.3060
  607MOL0     C81847  -0.029   3.030   2.991 -0.1551  0.9119  0.4445
  607MOL0     C81848   0.047   2.905   3.047 -0.0715 -0.2141  0.0756
  607MOL0     C81849  -0.051   2.828   3.146 -0.2449 -0.7047  1.0674
  607MOL0     C81850   0.021   2.711   3.204  0.1735  0.7166 -0.3366
  607MOL0     C81851  -0.062   2.646   3.325  1.5191  0.1441 -0.6448
  607MOL0     C81852  -0.069   2.737   3.455 -0.2273 -0.1015  1.0881
  607MOL0     C81853  -0.104   2.665   3.580 -0.5104  0.0007 -0.8915
  607MOL0     C81854  -0.084   2.752   3.705 -0.5225  0.1835 -0.3448
  607MOL0    Cl81855   0.092   2.769   3.733 -0.1251 -0.6020 -0.0294
  607MOL0     C81856   0.061   3.026   2.715 -0.9264  0.9249 -0.3243
  607MOL0     C81857   0.118   3.009   2.589 -0.0088  1.2040 -0.2370
  607MOL0     O81858   0.493   3.099   2.439  0.3196  0.0414 -0.0476
  607MOL0     C81859   0.332   2.924   2.177 -0.1165 -0.3555 -0.0957
  607MOL0     C81860   0.341   2.889   2.045  0.0105  0.3790 -0.1803
  607MOL0     N81861   0.734   2.756   1.348  0.7761 -0.3766  0.9273
  607MOL0     N81862   0.835   2.812   1.286  0.3268 -0.3074  0.2122
  607MOL0     C81863   0.986   3.786   1.224  0.3956 -0.5265 -0.1995
  607MOL0     C81864   1.007   3.819   1.360 -0.1261  0.5479  0.1743
  607MOL0     C81865   1.037   4.043   1.743 -0.6319  0.1033  0.3000
  607MOL0     C81866   0.944   4.052   1.849 -0.4210 -0.2255 -0.2944
  607MOL0     C81867   0.980   4.073   1.986 -1.0541 -0.2426 -0.3458
  607MOL0     C81868   1.121   4.086   2.023  0.8351  0.3204  0.4631
  607MOL0     O81869   1.166   4.124   2.152 -0.2464 -0.1315 -0.0952
  607MOL0     C81870   1.079   4.198   2.233 -0.1204 -0.0558  0.4329
  607MOL0     C81871   1.072   4.353   2.177 -0.4466  0.0958  0.3237
  607MOL0     C81872   0.981   4.414   2.272  0.5674 -1.0619 -0.5862
  607MOL0     C81873   0.974   4.571   2.264 -0.4500  0.2770 -0.2762
  607MOL0     C81874   1.043   4.627   2.378 -0.0478 -0.1563 -0.3492
  607MOL0     C81875   1.102   4.677   2.476 -0.1767 -0.0008  1.0773
  607MOL0     C81876   1.214   4.064   1.919  0.6868 -0.7902 -0.5924
  607MOL0     C81877   1.174   4.051   1.784  0.2715  0.4373  0.5296
  607MOL0     H81878   1.106   4.138   1.304  1.4195 -0.0057 -1.0431
  607MOL0     H81879   1.051   4.078   1.073 -0.1818 -0.6299 -1.3827
  607MOL0     H81880   1.161   3.819   0.868  0.3526  2.6246  0.4188
  607MOL0     H81881   1.158   3.726   1.018  0.1993 -0.0037 -1.5135
  607MOL0     H81882   0.930   3.673   0.815 -0.0345  0.0025 -0.9602
  607MOL0     H81883   1.085   3.589   0.801  2.5155 -1.2139  2.2996
  607MOL0     H81884   1.032   3.519   1.042 -3.4839  0.5357  3.7194
  607MOL0     H81885   0.862   3.563   0.995 -2.0850 -2.5053 -1.1543
  607MOL0     H81886   0.876   3.418   0.791 -0.0348 -3.1417 -1.3353
  607MOL0     H81887   1.029   3.350   0.848 -0.2118 -1.1928  0.3507
  607MOL0     H81888   0.771   3.332   1.009  0.4010  2.2871 -2.5921
  607MOL0     H81889   0.832   3.199   0.903  1.4198 -3.3356  4.5378
  607MOL0     H81890   1.010   3.163   1.057  1.2271  0.5744  3.2774
  607MOL0     H81891   0.975   3.307   1.148  0.6131 -0.8268  0.6601
  607MOL0     H81892   0.780   3.215   1.249 -1.1328 -1.9516  0.0727
  607MOL0     H81893   0.746   3.111   1.112 -3.0123  0.0723  2.6566
  607MOL0     H81894   0.973   3.098   1.330  0.4959  0.3269 -0.9928
  607MOL0     H81895   0.972   2.997   1.180  2.5228  0.4175  2.7758
  607MOL0     H81896   0.725   3.055   1.470  0.9521  1.4018 -1.4994
  607MOL0     H81897   0.533   2.713   1.518 -0.5414 -1.0103 -0.8651
  607MOL0     H81898   0.616   2.817   1.638  0.9045  0.6325 -1.0478
  607MOL0     H81899   0.447   2.947   1.425  0.6210  1.0621  0.1993
  607MOL0     H81900   0.495   3.021   1.568 -0.7489  1.2103 -1.8468
  607MOL0     H81901   0.290   2.792   1.539  2.0960 -1.8610  0.9625
  607MOL0     H81902   0.253   2.960   1.569  1.1638  0.2491 -0.9027
  607MOL0     H81903   0.364   2.755   1.754  2.5595  0.4514  0.5237
  607MOL0     H81904   0.240   2.871   1.790  1.0877 -4.3056  1.9630
  607MOL0     H81905   0.608   3.063   1.948 -3.4906  2.4058 -1.3668
  607MOL0     H81906   0.696   3.070   2.293 -1.1192 -1.3969 -0.4563
  607MOL0     H81907   0.732   3.150   2.140 -0.7245 -2.9374 -2.6347
  607MOL0     H81908   0.616   3.231   2.244 -0.3713  0.2262 -0.9501
  607MOL0     H81909   0.429   3.106   2.666  0.5535 -1.9428 -1.7496
  607MOL0     H81910   0.322   3.158   2.886  1.0822 -1.1759 -0.7491
  607MOL0     H81911  -0.089   3.073   3.072 -5.0429 -2.0242 -1.1614
  607MOL0     H81912  -0.100   3.012   2.910 -0.5952 -0.2400  1.0642
  607MOL0     H81913   0.067   2.846   2.957 -0.3225  0.5605 -0.4955
  607MOL0     H81914   0.138   2.925   3.106 -0.4277  2.5570 -0.1923
  607MOL0     H81915  -0.143   2.798   3.094  1.2964  0.0110 -2.3530
  607MOL0     H81916  -0.080   2.899   3.224 -1.8061  1.1004 -1.0189
  607MOL0     H81917   0.045   2.642   3.124 -0.7457 -0.1034  0.0722
  607MOL0     H81918   0.112   2.744   3.255  0.7346 -0.7645 -0.3461
  607MOL0     H81919  -0.013   2.553   3.356 -1.1412 -1.3292 -0.6175
  607MOL0     H81920  -0.165   2.629   3.292  1.6010  0.6697 -1.1953
  607MOL0     H81921   0.027   2.789   3.464  0.4508 -0.6657 -1.8430
  607MOL0     H81922  -0.148   2.811   3.437  0.8682  0.6493 -0.9349
  607MOL0     H81923  -0.038   2.579   3.597  1.2739  1.9675  4.3202
  607MOL0     H81924  -0.204   2.622   3.570 -2.0801  2.7018  1.4817
  607MOL0     H81925  -0.147   2.712   3.784  0.0263 -4.0840 -1.8415
  607MOL0     H81926  -0.117   2.852   3.673 -1.4794 -0.2353 -0.6794
  607MOL0     H81927  -0.045   3.007   2.724 -0.7827  0.8753  1.8508
  607MOL0     H81928   0.057   2.980   2.504  0.7854 -2.3450  0.2168
  607MOL0     H81929   0.239   2.895   2.226 -2.1915  3.8989 -1.0754
  607MOL0     H81930   0.256   2.834   2.006 -1.5711 -0.3376  3.8482
  607MOL0     H81931   0.954   3.683   1.215  0.0297 -0.5409  1.1073
  607MOL0     H81932   0.991   3.750   1.442 -2.2569 -0.1882 -0.7979
  607MOL0     H81933   0.838   4.054   1.830 -0.3360  1.9235 -0.7709
  607MOL0     H81934   0.902   4.092   2.059  0.4158 -2.3710  1.9420
  607MOL0     H81935   0.982   4.151   2.255 -1.1015  1.4147 -0.5143
  607MOL0     H81936   1.142   4.213   2.321  0.2138 -0.1485  0.2064
  607MOL0     H81937   1.028   4.349   2.077 -1.1063 -0.9817  0.6324
  607MOL0     H81938   1.169   4.401   2.161 -0.4887  0.2599  0.5670
  607MOL0     H81939   0.995   4.377   2.374  2.3148 -0.7267 -0.6781
  607MOL0     H81940   0.877   4.382   2.257 -1.2109  2.3907  2.5658
  607MOL0     H81941   0.867   4.593   2.266 -1.0912 -2.3519 -1.5669
  607MOL0     H81942   1.027   4.622   2.183  0.9062 -0.6582 -0.0155
  607MOL0     H81943   1.165   4.734   2.541  2.0293  1.3198 -1.9692
  607MOL0     H81944   1.320   4.071   1.942  1.1410  3.5241 -2.8587
  607MOL0     H81945   1.258   4.039   1.716 -0.3303 -0.4179 -0.0887
  608MOL0     O81946   4.329  10.333   8.763 -0.2582  0.0882 -0.4840
  608MOL0     C81947   4.296  10.414   8.675 -0.3477  0.5928  0.4559
  608MOL0     O81948   4.380  10.469   8.589  0.4876 -0.4788  0.5258
  608MOL0     C81949   4.513  10.443   8.584  0.0426 -0.6605  0.8576
  608MOL0     C81950   4.587  10.444   8.703  0.0686  0.7020 -0.3445
  608MOL0     C81951   4.730  10.447   8.692  0.6936 -0.5461  0.8684
  608MOL0     C81952   4.802  10.426   8.570  0.2970  0.1648 -0.3246
  608MOL0     O81953   4.935  10.401   8.561 -0.0432 -0.2496 -0.2893
  608MOL0     C81954   5.008  10.436   8.683  0.5544 -0.9370 -0.3940
  608MOL0     C81955   5.165  10.424   8.656 -0.3214 -0.0352  0.7507
  608MOL0     C81956   5.243  10.387   8.784  0.0521  0.4976  0.5485
  608MOL0     C81957   5.279  10.242   8.797 -0.1248 -0.9869  0.1924
  608MOL0     C81958   5.365  10.224   8.923  0.2507  0.4300  0.7247
  608MOL0     C81959   5.368  10.081   8.965  0.2998 -0.0453  0.0984
  608MOL0     C81960   5.472  10.080   9.078 -0.7044 -0.6648 -0.3625
  608MOL0     C81961   5.510   9.938   9.130  0.1071 -0.0916  1.2533
  608MOL0     N81962   5.401   9.889   9.217 -0.0002 -0.0802 -0.1678
  608MOL0     C81963   5.395   9.904   9.352 -0.6593  0.0293 -0.5811
  608MOL0     C81964   5.283   9.841   9.383  0.3613  0.3363  0.6209
  608MOL0     C81965   5.236   9.820   9.519  0.6290 -0.4220 -0.4169
  608MOL0     C81966   5.221   9.955   9.594  0.7635 -0.2483  1.3799
  608MOL0     C81967   5.147   9.927   9.714  0.4335  0.1616 -0.4548
  608MOL0     C81968   5.139  10.046   9.815 -0.3285 -0.1147 -0.1019
  608MOL0     O81969   5.058   9.996   9.935  0.2441  0.5595  0.1807
  608MOL0     C81970   5.073  10.064  10.057 -0.6403 -0.6451  0.3673
  608MOL0     C81971   4.987  10.017  10.153  0.3928 -0.3350  0.9678
  608MOL0     C81972   4.984  10.070  10.278  0.7968  0.0780  0.4578
  608MOL0     C81973   4.903   9.986  10.378  0.1910 -0.4643  0.3943
  608MOL0     C81974   5.059  10.190  10.311  0.1694  0.7512  1.1754
  608MOL0     C81975   5.061  10.258  10.444 -0.2239  0.6411  0.4006
  608MOL0     O81976   5.153  10.364  10.458 -0.0494  0.2569  0.1768
  608MOL0     C81977   5.152  10.436  10.580 -0.2229 -0.7573 -0.3130
  608MOL0     C81978   5.236  10.399  10.689 -0.4570 -0.3205  1.3883
  608MOL0     C81979   5.246  10.478  10.795  0.5672 -0.3732  1.0058
  608MOL0     C81980   5.164  10.589  10.801  0.8030 -0.0454  0.1210
  608MOL0     O81981   5.177  10.687  10.904  0.0105  0.3627 -0.5136
  608MOL0     C81982   5.298  10.766  10.889  0.4350  1.0287 -0.7047
  608MOL0     C81983   5.313  10.888  10.982 -0.1728 -0.7368 -0.8945
  608MOL0     C81984   5.429  10.990  10.943  0.7379 -0.3791 -0.0829
  608MOL0     C81985   5.435  11.092  11.060  0.3580  0.7317 -1.4476
  608MOL0     C81986   5.542  11.205  11.050 -0.0882  0.5506 -0.5893
  608MOL0     C81987   5.681  11.157  11.082 -0.1217 -0.3584 -0.1182
  608MOL0     C81988   5.778  11.277  11.073 -0.3064 -0.4968  0.5910
  608MOL0     C81989   5.817  11.328  11.213  0.3684  0.6464 -0.1948
  608MOL0    Cl81990   5.981  11.425  11.204 -0.1436 -0.0580  0.0426
  608MOL0     C81991   5.082  10.624  10.697  1.3248 -0.5866  0.0627
  608MOL0     C81992   5.081  10.556  10.578 -1.0151 -0.0466 -0.3489
  608MOL0     O81993   4.967  10.240  10.522 -0.7682  0.6015 -0.0951
  608MOL0     C81994   5.125  10.243  10.202 -0.5531  0.8437 -0.2056
  608MOL0     C81995   5.148  10.172  10.087 -0.3980 -0.2943  0.6538
  608MOL0     N81996   5.224   9.791   9.267 -0.5193 -0.0627 -0.6504
  608MOL0     N81997   5.298   9.819   9.171  0.4238 -0.3087  0.4066
  608MOL0     C81998   4.723  10.430   8.451 -0.2626 -0.4443 -0.8839
  608MOL0     C81999   4.583  10.438   8.460  0.4525 -0.6083  0.2366
  608MOL0     C82000   4.158  10.435   8.653  0.7492 -0.2317 -0.1693
  608MOL0     C82001   4.067  10.387   8.746  0.7916 -0.4508  0.8175
  608MOL0     C82002   3.920  10.402   8.733 -1.6237 -0.7695  0.3680
  608MOL0     C82003   3.875  10.475   8.620  0.4559 -0.2083 -0.1066
  608MOL0     O82004   3.732  10.500   8.609 -0.6961  0.6049 -0.2043
  608MOL0     C82005   3.666  10.484   8.479  0.1504 -0.5437 -0.6418
  608MOL0     C82006   3.600  10.340   8.493  0.4635 -0.4439 -0.1274
  608MOL0     C82007   3.515  10.294   8.374  0.0131  0.7062  0.8079
  608MOL0     C82008   3.385  10.373   8.361 -0.5466  0.1566 -0.6371
  608MOL0     C82009   3.301  10.308   8.259 -0.3494 -0.6224 -0.2863
  608MOL0     C82010   3.225  10.255   8.177 -1.1277  0.9191 -0.6733
  608MOL0     C82011   3.968  10.529   8.524  0.1005 -0.3323 -0.1468
  608MOL0     C82012   4.102  10.505   8.534 -0.4785  0.8279  1.5062
  608MOL0     H82013   4.540  10.448   8.801 -3.2138  1.3046 -1.8161
  608MOL0     H82014   4.788  10.456   8.783  1.7168  0.2386  0.1656
  608MOL0     H82015   4.988  10.534   8.728  0.7987 -0.2000 -1.8458
  608MOL0     H82016   4.974  10.367   8.761 -1.4609 -1.0488 -1.3094
  608MOL0     H82017   5.184  10.350   8.578  1.1512 -0.8558  1.8301
  608MOL0     H82018   5.207  10.521   8.628 -1.2270  0.1158 -0.1220
  608MOL0     H82019   5.338  10.440   8.772  0.7123 -1.1805 -2.9720
  608MOL0     H82020   5.193  10.416   8.877 -0.1713 -2.8883  1.6407
  608MOL0     H82021   5.187  10.186   8.815  0.7640 -2.2219  1.0164
  608MOL0     H82022   5.333  10.207   8.709  0.7733  2.1767 -0.6655
  608MOL0     H82023   5.463  10.267   8.899 -0.2246  1.5508  0.6954
  608MOL0     H82024   5.324  10.279   9.008 -0.0470  0.6254  0.4592
  608MOL0     H82025   5.266  10.048   8.988  0.3207 -1.5365 -1.6938
  608MOL0     H82026   5.401  10.015   8.885  0.0805  1.3842 -1.2163
  608MOL0     H82027   5.569  10.119   9.044  0.0821  0.3246  2.6799
  608MOL0     H82028   5.446  10.145   9.162  1.2878  1.3094 -1.1821
  608MOL0     H82029   5.609   9.939   9.176  0.2309 -0.8676  1.0236
  608MOL0     H82030   5.515   9.864   9.049 -1.6540 -1.2707  2.1482
  608MOL0     H82031   5.461   9.946   9.427 -1.5787 -2.3949  1.7144
  608MOL0     H82032   5.135   9.782   9.501 -0.3396  1.9562 -0.3877
  608MOL0     H82033   5.298   9.746   9.570 -0.4053 -2.3054 -1.8066
  608MOL0     H82034   5.155  10.017   9.532 -0.1292  0.3844  2.9056
  608MOL0     H82035   5.316  10.009   9.605  2.1550 -1.0615 -3.9830
  608MOL0     H82036   5.200   9.849   9.769 -0.3715  0.5821  0.9694
  608MOL0     H82037   5.048   9.892   9.682 -0.6785  2.9902 -0.4155
  608MOL0     H82038   5.081  10.124   9.765 -0.4081  0.6486  1.1261
  608MOL0     H82039   5.234  10.091   9.845 -0.5581 -1.5051  3.1084
  608MOL0     H82040   4.924   9.933  10.124  0.3406  0.5314 -1.7752
  608MOL0     H82041   4.824  10.043  10.428  0.4351  0.0368  0.2285
  608MOL0     H82042   4.853   9.908  10.320  3.4891 -3.0574  0.7113
  608MOL0     H82043   4.963   9.927  10.447  2.1660  2.3085  1.2401
  608MOL0     H82044   5.302  10.315  10.670  1.1134  1.3211 -1.1780
  608MOL0     H82045   5.316  10.462  10.877 -2.3506 -0.4052  3.6718
  608MOL0     H82046   5.390  10.707  10.902 -1.1549 -1.5923 -0.6355
  608MOL0     H82047   5.292  10.792  10.783 -4.3301  1.1582 -0.6172
  608MOL0     H82048   5.223  10.947  11.000  0.8657  0.2257  1.5065
  608MOL0     H82049   5.348  10.855  11.080  7.0893  2.9250 -1.6100
  608MOL0     H82050   5.410  11.036  10.845  0.0617 -0.6248 -0.0807
  608MOL0     H82051   5.527  10.942  10.936  0.6073 -0.7919  0.8397
  608MOL0     H82052   5.335  11.136  11.072  0.9889  2.2886 -1.7501
  608MOL0     H82053   5.461  11.039  11.153  1.1625  0.6282 -1.7323
  608MOL0     H82054   5.514  11.288  11.116  2.3588  0.7129  0.3621
  608MOL0     H82055   5.541  11.240  10.947  0.1112 -0.1271 -0.8289
  608MOL0     H82056   5.692  11.112  11.181  0.7387 -1.5581 -0.7277
  608MOL0     H82057   5.721  11.091  11.004  1.1635 -1.2714  1.2574
  608MOL0     H82058   5.740  11.357  11.008  1.2114 -0.8113 -0.7499
  608MOL0     H82059   5.867  11.248  11.017  0.3818 -0.0355  1.4343
  608MOL0     H82060   5.830  11.248  11.286  0.2340 -1.4667 -2.3783
  608MOL0     H82061   5.739  11.402  11.234  4.2518  4.6418  1.9424
  608MOL0     H82062   5.033  10.721  10.696 -1.7672 -1.9856  1.7994
  608MOL0     H82063   5.019  10.597  10.499  1.0898  3.4204 -0.4078
  608MOL0     H82064   5.172  10.339  10.218  3.8247 -0.8097 -1.5499
  608MOL0     H82065   5.217  10.221  10.020  1.1008  2.9582  4.1969
  608MOL0     H82066   4.761  10.398   8.355 -0.2013  0.7643 -1.2744
  608MOL0     H82067   4.537  10.440   8.362 -0.7547 -0.3207  0.7820
  608MOL0     H82068   4.094  10.346   8.843 -3.8981 -1.9701  1.7475
  608MOL0     H82069   3.852  10.347   8.797 -0.2761 -0.6484  2.0041
  608MOL0     H82070   3.596  10.566   8.467  0.8484 -0.0795 -1.6388
  608MOL0     H82071   3.744  10.505   8.405  0.9832  2.5684  0.9194
  608MOL0     H82072   3.542  10.349   8.586  2.3268  2.8281  0.8678
  608MOL0     H82073   3.685  10.272   8.502 -1.5370 -2.8430  3.0808
  608MOL0     H82074   3.495  10.188   8.389 -1.8889  1.1146  1.4483
  608MOL0     H82075   3.559  10.307   8.274 -1.0676 -0.7173  0.1129
  608MOL0     H82076   3.419  10.473   8.336  2.6919 -0.9203 -1.0821
  608MOL0     H82077   3.328  10.386   8.453 -0.1480 -0.3061 -0.3122
  608MOL0     H82078   3.157  10.203   8.113 -2.5345 -0.3961  1.7399
  608MOL0     H82079   3.930  10.592   8.445 -1.9501  1.9767  2.4963
  608MOL0     H82080   4.174  10.528   8.455  1.9258 -2.9144  2.3384
  609MOL0     O82081   0.835   2.313   3.936  0.3288  0.5380 -0.6276
  609MOL0     C82082   0.840   2.209   3.878 -0.0836 -0.1434 -0.3282
  609MOL0     O82083   0.816   2.192   3.741  0.2984  0.0367 -0.0205
  609MOL0     C82084   0.791   2.305   3.670 -0.4726 -0.3364  1.1323
  609MOL0     C82085   0.890   2.413   3.661  0.0147  0.3864  0.1334
  609MOL0     C82086   0.872   2.515   3.571  0.9438 -0.8778 -0.2001
  609MOL0     C82087   0.759   2.518   3.485 -0.4943  0.2287  0.6462
  609MOL0     O82088   0.731   2.597   3.380 -0.0180 -1.3218  0.6230
  609MOL0     C82089   0.830   2.695   3.339  1.4846  0.0333  0.1793
  609MOL0     C82090   0.771   2.808   3.257  0.6916  0.0313 -0.7777
  609MOL0     C82091   0.661   2.761   3.163 -0.8873 -0.0015  0.0457
  609MOL0     C82092   0.657   2.856   3.041 -0.5838 -0.2017  0.7055
  609MOL0     C82093   0.530   2.821   2.952 -0.1982 -0.2182  0.5427
  609MOL0     C82094   0.548   2.689   2.881  0.2861  0.0908  0.0261
  609MOL0     C82095   0.458   2.670   2.762 -0.7796 -0.7294 -0.6146
  609MOL0     C82096   0.311   2.684   2.799  0.5148 -0.1951 -0.5671
  609MOL0     N82097   0.231   2.662   2.681  1.0184 -0.6599 -0.0348
  609MOL0     C82098   0.263   2.688   2.547 -1.2741 -0.6399  0.4687
  609MOL0     C82099   0.163   2.638   2.468 -0.6040 -0.0069 -0.1757
  609MOL0     C82100   0.142   2.617   2.324 -0.4451  0.3053  0.2220
  609MOL0     C82101   0.280   2.554   2.259  1.2312  0.4109  0.5819
  609MOL0     C82102   0.323   2.431   2.332  0.0759  0.7443  0.2972
  609MOL0     C82103   0.209   2.322   2.359 -0.2742 -0.6653  0.1740
  609MOL0     O82104   0.279   2.194   2.365 -0.1261  0.4007  0.0861
  609MOL0     C82105   0.288   2.116   2.258 -0.1811 -0.2787 -0.5793
  609MOL0     C82106   0.333   1.990   2.286  0.4079 -0.3807  0.1935
  609MOL0     C82107   0.340   1.891   2.189 -0.3480 -0.1156 -1.7233
  609MOL0     C82108   0.383   1.748   2.237  0.0121 -0.2005 -0.5818
  609MOL0     C82109   0.323   1.918   2.048  0.4773  0.2714 -1.1030
  609MOL0     C82110   0.356   1.837   1.927 -0.0019  1.0027 -0.6458
  609MOL0     O82111   0.371   1.893   1.804  0.3669 -0.3827  0.0495
  609MOL0     C82112   0.313   1.825   1.694 -0.2041 -0.4070 -0.4098
  609MOL0     C82113   0.214   1.729   1.685 -0.8863  0.3687 -0.2048
  609MOL0     C82114   0.163   1.690   1.560  0.0636  0.5539  0.6361
  609MOL0     C82115   0.232   1.728   1.444  0.3235 -0.2989 -0.3684
  609MOL0     O82116   0.173   1.705   1.329  0.4540 -0.2403  0.1440
  609MOL0     C82117   0.118   1.824   1.258 -0.5591 -0.4655  0.8680
  609MOL0     C82118   0.058   1.776   1.127  0.8334 -0.4794  0.4713
  609MOL0     C82119   0.023   1.894   1.030 -0.1118  0.1776  0.6523
  609MOL0     C82120  -0.022   1.832   0.898 -0.0672  0.1158 -0.4170
  609MOL0     C82121  -0.096   1.933   0.810  0.2412  0.4430 -0.9604
  609MOL0     C82122  -0.222   1.996   0.873  0.2064 -0.3948  0.1146
  609MOL0     C82123  -0.272   2.109   0.772 -0.0106 -0.8421  0.2663
  609MOL0     C82124  -0.396   2.170   0.836 -1.4220 -0.0877  0.0096
  609MOL0    Cl82125  -0.534   2.060   0.834 -0.2217  0.4205 -0.6238
  609MOL0     C82126   0.342   1.813   1.454  0.5685  0.7865 -0.1417
  609MOL0     C82127   0.370   1.868   1.576 -0.7715 -0.3256 -0.7263
  609MOL0     O82128   0.349   1.720   1.943  0.3208 -0.3473 -0.4167
  609MOL0     C82129   0.282   2.054   2.019 -0.2469 -0.4202 -0.0715
  609MOL0     C82130   0.269   2.152   2.130  0.1507 -0.0548  0.6686
  609MOL0     N82131   0.067   2.601   2.551  0.3115  0.0767 -0.1936
  609MOL0     N82132   0.119   2.590   2.671 -0.7801 -0.0316 -0.3326
  609MOL0     C82133   0.665   2.415   3.497  0.8030 -0.7131  0.7533
  609MOL0     C82134   0.677   2.311   3.586  0.2170  0.4611 -0.1345
  609MOL0     C82135   0.872   2.093   3.970 -0.1097 -0.5323 -0.5711
  609MOL0     C82136   0.874   2.104   4.109  0.0863  0.2086 -1.0871
  609MOL0     C82137   0.916   2.003   4.194 -0.1348  0.3696 -0.3116
  609MOL0     C82138   0.941   1.875   4.139 -0.0202  0.4684 -0.4783
  609MOL0     O82139   0.968   1.767   4.216 -0.3996 -0.3068  0.4460
  609MOL0     C82140   0.904   1.754   4.345  0.0026 -0.1731 -0.1090
  609MOL0     C82141   0.752   1.720   4.317 -0.8361  0.3291  0.0292
  609MOL0     C82142   0.733   1.588   4.239  0.7231 -0.8595  0.4726
  609MOL0     C82143   0.645   1.489   4.313  0.1743 -0.3691 -0.3524
  609MOL0     C82144   0.693   1.450   4.453  0.0023  0.3410 -0.7449
  609MOL0     C82145   0.718   1.431   4.569  0.1433 -0.2389  0.3824
  609MOL0     C82146   0.927   1.862   3.996 -1.1837  0.3511  0.5645
  609MOL0     C82147   0.904   1.969   3.919 -0.0754 -0.2068  0.6125
  609MOL0     H82148   0.968   2.409   3.736 -0.0434  0.9827  0.2324
  609MOL0     H82149   0.937   2.600   3.586  0.4132 -0.5740  0.3940
  609MOL0     H82150   0.874   2.741   3.428 -2.4098  3.5202  0.6177
  609MOL0     H82151   0.890   2.652   3.259 -0.0493  1.7628 -2.0089
  609MOL0     H82152   0.715   2.879   3.319 -2.6779 -0.3573 -3.1059
  609MOL0     H82153   0.841   2.873   3.204  1.0448 -0.0092 -0.3670
  609MOL0     H82154   0.680   2.658   3.133 -1.3636  0.7639 -3.1777
  609MOL0     H82155   0.565   2.771   3.215 -0.8051  1.4871 -0.0520
  609MOL0     H82156   0.652   2.958   3.081  0.4537  0.5250 -0.8717
  609MOL0     H82157   0.747   2.858   2.978 -0.6575  2.2493  0.5621
  609MOL0     H82158   0.437   2.834   3.007  0.2205 -1.4260  1.5695
  609MOL0     H82159   0.531   2.891   2.868 -2.7824  2.5103  2.5789
  609MOL0     H82160   0.647   2.682   2.836 -0.7674  1.7765 -2.8544
  609MOL0     H82161   0.529   2.601   2.943 -2.6354 -0.2216 -1.1139
  609MOL0     H82162   0.494   2.740   2.686  2.4505 -1.6961 -0.1404
  609MOL0     H82163   0.486   2.568   2.734  1.8372 -0.3062  0.2041
  609MOL0     H82164   0.278   2.784   2.830 -0.9436 -0.1389 -2.1953
  609MOL0     H82165   0.281   2.615   2.879  1.2711  0.3687  0.2217
  609MOL0     H82166   0.352   2.734   2.504 -0.0563 -2.8337  0.5185
  609MOL0     H82167   0.062   2.545   2.310 -0.3638 -0.2893  2.4630
  609MOL0     H82168   0.132   2.712   2.270  2.6025  1.7088  1.8829
  609MOL0     H82169   0.365   2.623   2.269  0.5856  1.7189 -2.1663
  609MOL0     H82170   0.268   2.538   2.152  3.6212  2.8902 -0.1616
  609MOL0     H82171   0.375   2.458   2.424 -1.7404  2.5127  0.8943
  609MOL0     H82172   0.391   2.381   2.262 -0.1487  0.6204  0.1652
  609MOL0     H82173   0.129   2.322   2.285  0.0373 -1.6032 -0.1819
  609MOL0     H82174   0.158   2.339   2.454  1.7411 -3.2775  1.8681
  609MOL0     H82175   0.355   1.969   2.390 -1.7951  3.6218  1.6940
  609MOL0     H82176   0.491   1.743   2.224  0.3653  2.5622  0.5588
  609MOL0     H82177   0.376   1.747   2.346 -3.6566  3.1809 -0.5665
  609MOL0     H82178   0.336   1.660   2.192  1.8948 -1.5530 -0.0074
  609MOL0     H82179   0.173   1.686   1.776 -2.7504  0.6469 -0.8630
  609MOL0     H82180   0.078   1.623   1.548  1.4062 -0.8270 -2.3303
  609MOL0     H82181   0.047   1.878   1.320  2.2483 -0.4048  4.3708
  609MOL0     H82182   0.202   1.889   1.231 -1.7892  1.8341  2.3197
  609MOL0     H82183   0.142   1.719   1.085  0.7490 -0.5253  0.3657
  609MOL0     H82184  -0.025   1.706   1.136  0.0256  0.0066 -2.2360
  609MOL0     H82185   0.118   1.944   1.009  0.1249 -0.2850  0.6028
  609MOL0     H82186  -0.054   1.958   1.074 -1.4929 -0.7920 -0.2591
  609MOL0     H82187   0.064   1.787   0.846  2.1925  2.6947  0.8432
  609MOL0     H82188  -0.095   1.752   0.910 -0.9452  0.8282 -0.9114
  609MOL0     H82189  -0.119   1.867   0.726 -1.2623 -5.4010  3.3451
  609MOL0     H82190  -0.017   2.004   0.784  0.3982 -0.2901 -2.5992
  609MOL0     H82191  -0.300   1.922   0.892  2.8429 -3.6019 -0.5389
  609MOL0     H82192  -0.203   2.047   0.967  0.3872  2.9286 -1.5771
  609MOL0     H82193  -0.300   2.084   0.669 -1.2937  0.5161  0.2524
  609MOL0     H82194  -0.198   2.190   0.761 -1.9237  1.1243  1.0468
  609MOL0     H82195  -0.421   2.265   0.786 -2.6935 -0.5863 -0.3414
  609MOL0     H82196  -0.368   2.185   0.941 -0.0124 -1.2491 -0.1770
  609MOL0     H82197   0.396   1.851   1.369 -0.9712 -1.1655 -2.1211
  609MOL0     H82198   0.449   1.943   1.574  0.7733 -1.8895 -2.0581
  609MOL0     H82199   0.271   2.098   1.921  4.4823  2.4712  0.3406
  609MOL0     H82200   0.217   2.239   2.091  0.9099 -0.8109 -2.2444
  609MOL0     H82201   0.589   2.414   3.420  1.7318  3.6422 -0.5340
  609MOL0     H82202   0.604   2.231   3.587 -1.3020  1.7964  0.9759
  609MOL0     H82203   0.865   2.199   4.159  0.6597  0.0031 -0.5753
  609MOL0     H82204   0.916   2.033   4.299 -2.0691 -3.5937  1.0166
  609MOL0     H82205   0.956   1.677   4.403  1.2391 -0.0155 -0.9537
  609MOL0     H82206   0.904   1.846   4.404  0.2343 -0.2429  0.0017
  609MOL0     H82207   0.720   1.801   4.251  0.3066  0.6235 -0.1828
  609MOL0     H82208   0.688   1.734   4.404 -0.3095  2.5760  0.1036
  609MOL0     H82209   0.833   1.546   4.226  0.0105 -2.7851  0.8500
  609MOL0     H82210   0.686   1.609   4.143  1.1518 -0.0674  0.4258
  609MOL0     H82211   0.652   1.398   4.253 -0.2244 -0.3203 -0.4796
  609MOL0     H82212   0.538   1.516   4.316  0.8343  3.3820 -2.9424
  609MOL0     H82213   0.741   1.432   4.674  1.0861  3.2562  0.2834
  609MOL0     H82214   0.944   1.766   3.949 -0.3176 -0.4146  2.3527
  609MOL0     H82215   0.911   1.954   3.812 -0.2689  0.1057  0.5564
  610MOL0     O82216   9.825   7.483   7.421 -1.0061 -0.5746  0.8238
  610MOL0     C82217   9.809   7.479   7.294  0.2241 -0.3619 -1.5512
  610MOL0     O82218   9.855   7.380   7.215 -0.2683  0.2963 -0.3841
  610MOL0     C82219   9.933   7.267   7.262 -0.8256 -0.2794  0.4967
  610MOL0     C82220   9.934   7.210   7.385 -0.2725  0.5963 -1.1504
  610MOL0     C82221  10.021   7.098   7.405  0.2975 -0.0022 -0.0727
  610MOL0     C82222  10.089   7.029   7.296 -0.4844 -0.1659  0.1902
  610MOL0     O82223  10.172   6.923   7.327 -0.1525  0.0877  0.1259
  610MOL0     C82224  10.264   6.890   7.220  0.1670 -0.3844  0.3555
  610MOL0     C82225  10.359   6.775   7.260 -0.3826 -0.1290  0.1329
  610MOL0     C82226  10.437   6.730   7.139 -0.3191 -0.1291 -0.1526
  610MOL0     C82227  10.519   6.597   7.176 -0.4745 -0.2701  0.0074
  610MOL0     C82228  10.632   6.558   7.091  0.3129  1.1166 -0.3207
  610MOL0     C82229  10.590   6.559   6.950  0.3557 -0.2970 -0.4041
  610MOL0     C82230  10.666   6.452   6.876  0.0184  0.3946  0.9963
  610MOL0     C82231  10.677   6.508   6.726  0.1404  0.3767 -0.5322
  610MOL0     N82232  10.757   6.630   6.715 -0.3197 -0.5665  0.0843
  610MOL0     C82233  10.890   6.625   6.701 -0.6410 -0.2461  0.5821
  610MOL0     C82234  10.928   6.761   6.661 -0.0581 -0.0492  0.4492
  610MOL0     C82235  11.082   6.805   6.638  0.7120  0.5298 -0.4031
  610MOL0     C82236  11.113   6.940   6.705 -0.5847  0.1906 -0.1156
  610MOL0     C82237  11.102   6.941   6.857 -0.0477 -0.1295  0.3944
  610MOL0     C82238  11.183   6.828   6.932  0.1072  0.0845  0.0128
  610MOL0     O82239  11.216   6.890   7.057 -0.1419  0.4020  0.0606
  610MOL0     C82240  11.298   6.996   7.071  0.2684 -0.6385 -0.6568
  610MOL0     C82241  11.278   7.080   7.183  0.5633 -0.0649 -0.2816
  610MOL0     C82242  11.356   7.194   7.215 -1.8186  0.3714 -0.4011
  610MOL0     C82243  11.324   7.271   7.345 -0.4062 -0.0086 -0.7218
  610MOL0     C82244  11.458   7.241   7.119 -1.3034 -0.2598  1.0444
  610MOL0     C82245  11.547   7.364   7.121 -0.1429 -1.0681 -0.0634
  610MOL0     O82246  11.517   7.465   7.210 -0.2620 -0.0430  0.1108
  610MOL0     C82247  11.589   7.581   7.228  0.2597  0.4662 -0.7373
  610MOL0     C82248  11.604   7.612   7.366  0.2578 -0.0596 -0.6396
  610MOL0     C82249  11.672   7.732   7.400  0.0122  0.0676  0.1868
  610MOL0     C82250  11.728   7.812   7.302 -0.2915 -0.1626  0.4718
  610MOL0     O82251  11.804   7.926   7.328  0.0258 -0.2808  0.0910
  610MOL0     C82252  11.793   7.999   7.449  0.3122  0.0996  0.0008
  610MOL0     C82253  11.767   8.143   7.423 -0.5149  0.2922  0.3051
  610MOL0     C82254  11.649   8.169   7.323  0.1255  0.3104 -0.3047
  610MOL0     C82255  11.643   8.319   7.287 -0.2095 -0.5604  0.2686
  610MOL0     C82256  11.525   8.352   7.190 -0.5338  0.4702  0.3581
  610MOL0     C82257  11.458   8.484   7.215 -0.3673 -0.2321  0.2447
  610MOL0     C82258  11.353   8.488   7.104  0.8111 -1.1947 -0.3519
  610MOL0     C82259  11.245   8.592   7.121  1.1322 -0.2810  0.9215
  610MOL0    Cl82260  11.113   8.548   7.016  0.0106 -0.5599 -0.6288
  610MOL0     C82261  11.726   7.765   7.160 -0.3131 -0.3353 -0.6004
  610MOL0     C82262  11.657   7.654   7.129  0.4321  0.5941 -0.3617
  610MOL0     O82263  11.641   7.365   7.040  0.6084  0.6512 -0.2029
  610MOL0     C82264  11.485   7.146   7.013 -0.5904 -0.3717 -0.1221
  610MOL0     C82265  11.410   7.033   6.988 -0.0571  0.1286 -0.3207
  610MOL0     N82266  10.808   6.835   6.650 -0.8797  0.3395 -0.0232
  610MOL0     N82267  10.706   6.756   6.691  0.3299 -0.7018 -0.4164
  610MOL0     C82268  10.076   7.088   7.168 -0.8251 -0.1685 -0.6397
  610MOL0     C82269   9.996   7.202   7.153 -0.0369 -0.0466 -0.1512
  610MOL0     C82270   9.730   7.590   7.240  0.7438  0.2522  0.9464
  610MOL0     C82271   9.673   7.561   7.116  0.8228  0.4423 -1.1613
  610MOL0     C82272   9.573   7.648   7.055  0.5684  0.3978 -1.1459
  610MOL0     C82273   9.539   7.760   7.120 -0.1588  0.3124 -0.1874
  610MOL0     O82274   9.447   7.845   7.056 -0.4333  0.3620  0.5476
  610MOL0     C82275   9.319   7.835   7.120 -1.0721  0.6202  1.0308
  610MOL0     C82276   9.247   7.707   7.079 -0.9537  0.4245 -0.5467
  610MOL0     C82277   9.181   7.711   6.937  0.8923 -0.0485 -0.5851
  610MOL0     C82278   9.048   7.794   6.932  0.1474  0.3622  0.6380
  610MOL0     C82279   8.951   7.738   6.835  0.1229 -0.0201 -0.1378
  610MOL0     C82280   8.883   7.684   6.756 -0.5046  0.1230  1.5122
  610MOL0     C82281   9.601   7.795   7.251  0.0088  0.1191  0.7691
  610MOL0     C82282   9.689   7.699   7.307 -0.0554 -0.5163 -0.2029
  610MOL0     H82283   9.857   7.242   7.453 -1.3177 -3.4534 -0.1294
  610MOL0     H82284  10.030   7.042   7.498  0.9106  1.2594  0.6577
  610MOL0     H82285  10.209   6.868   7.127 -1.3046  1.0713  0.8331
  610MOL0     H82286  10.332   6.972   7.196 -3.1949  1.7569 -2.8512
  610MOL0     H82287  10.426   6.797   7.343 -1.0788  1.4249  0.3155
  610MOL0     H82288  10.301   6.695   7.306  1.3003 -0.4175  1.8770
  610MOL0     H82289  10.372   6.707   7.054 -0.0854  1.0727 -0.6730
  610MOL0     H82290  10.497   6.813   7.099  1.2959 -1.2068 -0.0561
  610MOL0     H82291  10.566   6.616   7.274 -2.4662 -2.9017  1.6075
  610MOL0     H82292  10.451   6.515   7.200  0.9296 -2.1346 -1.9801
  610MOL0     H82293  10.718   6.624   7.099  0.8369  0.6850 -1.9935
  610MOL0     H82294  10.674   6.462   7.124  1.1857  1.2718 -0.9394
  610MOL0     H82295  10.482   6.547   6.940 -0.7168  1.9738  4.8965
  610MOL0     H82296  10.616   6.659   6.912  3.0906 -0.4463  0.8150
  610MOL0     H82297  10.769   6.441   6.910  0.9619  1.8060 -1.2164
  610MOL0     H82298  10.616   6.355   6.882 -0.2350  0.5639  1.8541
  610MOL0     H82299  10.581   6.524   6.676  0.3909  3.1819 -0.3053
  610MOL0     H82300  10.727   6.441   6.655  1.8267  2.6823 -1.6412
  610MOL0     H82301  10.962   6.544   6.705 -0.5055 -0.1098  1.0016
  610MOL0     H82302  11.152   6.725   6.663 -0.1188 -1.0249 -2.6513
  610MOL0     H82303  11.108   6.814   6.532  2.6465  0.3853  0.0222
  610MOL0     H82304  11.059   7.025   6.663  2.6238  1.6462 -1.6789
  610MOL0     H82305  11.218   6.966   6.688 -0.0881 -1.7932 -0.3793
  610MOL0     H82306  10.997   6.927   6.884 -0.1499 -2.3205 -0.8565
  610MOL0     H82307  11.128   7.041   6.893  1.2318  0.0986 -1.0716
  610MOL0     H82308  11.282   6.808   6.890  0.5822  0.4824  0.9239
  610MOL0     H82309  11.117   6.742   6.942 -0.8825  0.8905  0.5131
  610MOL0     H82310  11.205   7.050   7.256  0.3480  1.1441  0.0284
  610MOL0     H82311  11.293   7.373   7.318 -2.0044  0.1062  1.3410
  610MOL0     H82312  11.244   7.221   7.400 -0.2314 -2.9431 -2.8919
  610MOL0     H82313  11.415   7.278   7.405 -0.2671 -0.7992 -0.8323
  610MOL0     H82314  11.561   7.542   7.437 -1.6606  1.4747 -0.2019
  610MOL0     H82315  11.678   7.749   7.507  1.3032 -0.5483  0.2414
  610MOL0     H82316  11.711   7.963   7.511  1.4535 -1.0008  0.9238
  610MOL0     H82317  11.888   7.971   7.496 -0.2097  1.5167  2.0539
  610MOL0     H82318  11.764   8.193   7.520  4.1998 -0.4466  1.0943
  610MOL0     H82319  11.857   8.183   7.375  0.7748 -1.1157  1.4393
  610MOL0     H82320  11.551   8.154   7.371 -0.1229  2.8556  0.1367
  610MOL0     H82321  11.658   8.108   7.233  0.0271  1.8879 -1.4402
  610MOL0     H82322  11.631   8.381   7.377  0.0057  0.5431 -0.4354
  610MOL0     H82323  11.735   8.338   7.230 -0.0529 -1.6050  0.1514
  610MOL0     H82324  11.451   8.275   7.214  0.4675 -0.1855  1.4105
  610MOL0     H82325  11.559   8.353   7.086 -1.1278  0.9192  0.1625
  610MOL0     H82326  11.414   8.495   7.314 -0.4203  1.2613  0.0871
  610MOL0     H82327  11.535   8.561   7.201 -1.3898  1.0218  1.2554
  610MOL0     H82328  11.302   8.392   7.095 -0.5311 -0.7966  2.1063
  610MOL0     H82329  11.410   8.513   7.014 -1.3164  2.9503 -0.7778
  610MOL0     H82330  11.279   8.690   7.086 -0.4909 -0.0097 -0.0098
  610MOL0     H82331  11.209   8.588   7.224 -0.4513  0.1160  0.4066
  610MOL0     H82332  11.777   7.815   7.077 -0.2869 -0.9628 -0.9664
  610MOL0     H82333  11.653   7.617   7.027 -1.3519 -0.7422  0.1329
  610MOL0     H82334  11.579   7.162   6.960  1.0535 -1.3266  2.3061
  610MOL0     H82335  11.420   6.973   6.898  0.9615  0.3399 -0.3616
  610MOL0     H82336  10.121   7.036   7.084 -1.2183  0.1891 -1.0726
  610MOL0     H82337  10.000   7.245   7.054 -1.1099  0.7990  0.1540
  610MOL0     H82338   9.700   7.466   7.071 -0.7441 -0.8969  0.5648
  610MOL0     H82339   9.519   7.620   6.965 -2.2110 -0.0975  0.5869
  610MOL0     H82340   9.331   7.835   7.229  2.6780 -2.7459  0.8384
  610MOL0     H82341   9.263   7.916   7.073  0.6016  0.9360 -0.5274
  610MOL0     H82342   9.170   7.677   7.151 -0.1465 -3.4379 -1.0603
  610MOL0     H82343   9.313   7.619   7.074 -3.8930 -1.8652 -2.5928
  610MOL0     H82344   9.158   7.611   6.901 -2.1659  0.2880  0.1158
  610MOL0     H82345   9.255   7.759   6.873  0.1017 -0.4668 -1.8451
  610MOL0     H82346   9.065   7.899   6.908  0.4852  0.0243 -0.7223
  610MOL0     H82347   9.002   7.797   7.031  1.4190  4.0899  1.2678
  610MOL0     H82348   8.822   7.631   6.685  1.1116  0.8509 -0.5275
  610MOL0     H82349   9.571   7.884   7.305 -1.1165  1.5177 -1.9580
  610MOL0     H82350   9.731   7.716   7.405  1.7222 -0.5912 -0.9145
  611MOL0     O82351   7.786   1.833   1.653  0.4829  0.1236 -0.8742
  611MOL0     C82352   7.725   1.909   1.731  0.5435  0.4716 -0.8616
  611MOL0     O82353   7.705   2.033   1.713 -0.0836  0.0042  0.3106
  611MOL0     C82354   7.707   2.095   1.588 -0.6801 -0.4624 -0.3521
  611MOL0     C82355   7.711   2.237   1.599  0.0076  1.1832 -0.1220
  611MOL0     C82356   7.700   2.313   1.484  0.3283  0.0752 -0.1782
  611MOL0     C82357   7.708   2.249   1.358 -0.3383 -0.2872  0.4102
  611MOL0     O82358   7.724   2.321   1.238 -0.0785 -0.2641 -0.5365
  611MOL0     C82359   7.833   2.412   1.236 -0.0936  0.1128  0.0947
  611MOL0     C82360   7.848   2.474   1.096  0.5795 -0.1304  0.0230
  611MOL0     C82361   7.755   2.597   1.091  0.0877  0.8061  0.0487
  611MOL0     C82362   7.742   2.644   0.945 -0.4505 -0.1127  0.1926
  611MOL0     C82363   7.866   2.645   0.864 -0.3574  0.5240  0.4404
  611MOL0     C82364   7.858   2.728   0.734 -0.3842  0.1508  0.1161
  611MOL0     C82365   7.997   2.787   0.695  0.1506 -0.2422 -0.3207
  611MOL0     C82366   8.068   2.693   0.591  0.2172  0.6426  0.2415
  611MOL0     N82367   8.184   2.743   0.530 -0.8381  0.0441 -0.5863
  611MOL0     C82368   8.308   2.680   0.530 -0.3433 -0.0215  0.8353
  611MOL0     C82369   8.384   2.754   0.450 -0.4348  0.1557  0.5158
  611MOL0     C82370   8.524   2.738   0.394  1.0860 -0.8779 -0.5241
  611MOL0     C82371   8.621   2.744   0.508  0.3207 -0.0676 -0.8331
  611MOL0     C82372   8.758   2.770   0.460 -0.0052  0.6140 -0.7078
  611MOL0     C82373   8.801   2.909   0.411 -0.0447 -0.0987 -0.8389
  611MOL0     O82374   8.907   2.955   0.495  0.6390 -0.1483  0.0686
  611MOL0     C82375   8.997   3.030   0.422 -0.5043 -0.4635  0.8718
  611MOL0     C82376   9.112   2.975   0.369 -0.3748  0.0801  0.2398
  611MOL0     C82377   9.208   3.047   0.301  0.5764  0.0422  0.5835
  611MOL0     C82378   9.319   2.958   0.253 -0.7020 -0.2168  0.2391
  611MOL0     C82379   9.191   3.187   0.289  0.7119  0.3728  0.4990
  611MOL0     C82380   9.293   3.280   0.226 -0.0219 -0.3364 -0.2069
  611MOL0     O82381   9.411   3.224   0.189  0.2841  0.2211  0.0456
  611MOL0     C82382   9.500   3.308   0.127  0.3068  0.4056 -0.0732
  611MOL0     C82383   9.605   3.344   0.206  0.2140 -0.3446 -0.7429
  611MOL0     C82384   9.709   3.412   0.143  0.3996  0.5465 -0.7253
  611MOL0     C82385   9.709   3.444   0.010 -0.1064 -0.3670  0.3066
  611MOL0     O82386   9.823   3.506  -0.043  0.7657  0.9874  1.0878
  611MOL0     C82387   9.905   3.416  -0.119  0.1162 -0.6592 -0.2563
  611MOL0     C82388  10.044   3.434  -0.059 -0.9445  0.0119  0.2781
  611MOL0     C82389  10.154   3.454  -0.154  0.2099 -0.6038  0.2032
  611MOL0     C82390  10.152   3.581  -0.237  0.5760  0.0033 -0.6872
  611MOL0     C82391  10.297   3.574  -0.298 -0.2282  0.3412  0.6281
  611MOL0     C82392  10.301   3.698  -0.382  0.4496 -0.4163 -0.4333
  611MOL0     C82393  10.405   3.690  -0.488  0.7904 -0.1237  0.6197
  611MOL0     C82394  10.415   3.823  -0.554  0.1271  0.5919  0.5730
  611MOL0    Cl82395  10.261   3.873  -0.634 -0.6344 -0.4058  0.5437
  611MOL0     C82396   9.603   3.406  -0.065 -0.5780  0.7701  0.6336
  611MOL0     C82397   9.491   3.334  -0.015  0.4221 -0.0221  1.0570
  611MOL0     O82398   9.278   3.399   0.234  0.1143 -0.0967  0.2454
  611MOL0     C82399   9.063   3.239   0.333 -0.0987  0.9452  0.7382
  611MOL0     C82400   8.965   3.161   0.402  0.3285 -0.9976  0.5849
  611MOL0     N82401   8.320   2.864   0.397  0.2202 -0.6629  0.4663
  611MOL0     N82402   8.197   2.848   0.446  0.6281 -1.0269 -0.1424
  611MOL0     C82403   7.700   2.107   1.345 -0.1337 -0.4269  0.4702
  611MOL0     C82404   7.695   2.035   1.462 -0.0481  0.8716 -0.5934
  611MOL0     C82405   7.703   1.856   1.866  0.3381  0.5064 -0.1221
  611MOL0     C82406   7.596   1.928   1.932 -0.0018  0.3336  0.1623
  611MOL0     C82407   7.572   1.883   2.060  0.9858  0.7116  0.4698
  611MOL0     C82408   7.609   1.756   2.108  0.1605  0.1574 -0.2689
  611MOL0     O82409   7.550   1.695   2.216 -0.2711  0.1892 -0.2563
  611MOL0     C82410   7.443   1.750   2.277 -0.1721  1.3936  0.2138
  611MOL0     C82411   7.405   1.671   2.396 -0.3921  0.4747  0.0994
  611MOL0     C82412   7.271   1.724   2.447  0.2064  0.9228 -0.0800
  611MOL0     C82413   7.236   1.674   2.591 -0.1380 -0.0302 -0.3064
  611MOL0     C82414   7.246   1.535   2.598  0.0039  0.1997 -0.0727
  611MOL0     C82415   7.257   1.413   2.589 -0.2832  0.1651 -0.6029
  611MOL0     C82416   7.709   1.693   2.038 -0.6821  0.2970 -0.5701
  611MOL0     C82417   7.762   1.739   1.917  0.5591 -0.5718 -1.2916
  611MOL0     H82418   7.709   2.284   1.697  0.2109  1.1928 -0.1234
  611MOL0     H82419   7.701   2.421   1.483  2.7749  0.1255 -2.1403
  611MOL0     H82420   7.827   2.488   1.315 -0.7775  3.1336 -2.6523
  611MOL0     H82421   7.924   2.352   1.246 -0.5258 -2.0001 -5.2163
  611MOL0     H82422   7.953   2.499   1.077  0.3416  1.6413  0.8505
  611MOL0     H82423   7.821   2.397   1.022 -0.0487  0.0495  0.0578
  611MOL0     H82424   7.652   2.570   1.117  1.1678 -2.1279  1.8353
  611MOL0     H82425   7.799   2.671   1.158  0.0985  0.0072  0.9482
  611MOL0     H82426   7.677   2.578   0.887 -0.4163 -0.9404  1.0703
  611MOL0     H82427   7.697   2.743   0.935  0.0506  0.0145 -1.1110
  611MOL0     H82428   7.957   2.672   0.918 -1.8854  2.2046  2.3724
  611MOL0     H82429   7.885   2.540   0.842 -0.0699  0.3703  1.3637
  611MOL0     H82430   7.821   2.668   0.651  0.7509 -1.2268  0.5693
  611MOL0     H82431   7.795   2.815   0.756  1.5575  1.2663  1.6196
  611MOL0     H82432   7.989   2.883   0.641  1.4857 -0.7468 -1.4828
  611MOL0     H82433   8.052   2.810   0.787 -0.9515  2.3502 -0.2072
  611MOL0     H82434   7.988   2.672   0.519  1.5542  0.5816 -1.2897
  611MOL0     H82435   8.101   2.594   0.624  1.2008  0.8824  0.0086
  611MOL0     H82436   8.328   2.584   0.578 -3.3610 -0.5741  1.1908
  611MOL0     H82437   8.526   2.650   0.328 -0.2663  0.1910 -2.0513
  611MOL0     H82438   8.525   2.828   0.333 -0.3406 -0.8875 -0.5806
  611MOL0     H82439   8.615   2.660   0.577 -0.7112  2.9524  3.1109
  611MOL0     H82440   8.604   2.829   0.574  2.5503  0.6294 -1.0705
  611MOL0     H82441   8.781   2.689   0.390  2.2681  0.3919  0.2198
  611MOL0     H82442   8.824   2.747   0.544  0.6829 -1.2889 -1.7162
  611MOL0     H82443   8.715   2.976   0.409  0.5031  0.6962  0.6062
  611MOL0     H82444   8.834   2.912   0.307 -0.4973 -1.8898 -1.0710
  611MOL0     H82445   9.134   2.870   0.390  1.6497  0.5456  0.7002
  611MOL0     H82446   9.344   2.987   0.150 -0.6772  0.8366  0.5324
  611MOL0     H82447   9.407   2.951   0.317  0.2171 -1.5811 -1.1057
  611MOL0     H82448   9.288   2.854   0.237  0.2064 -0.0721 -3.5093
  611MOL0     H82449   9.603   3.309   0.309 -0.0081 -1.9652 -1.2736
  611MOL0     H82450   9.788   3.443   0.211  0.2967 -1.1218  0.2144
  611MOL0     H82451   9.883   3.312  -0.094 -1.9911  0.4140  2.9555
  611MOL0     H82452   9.884   3.447  -0.222 -1.0054  1.3829  0.5297
  611MOL0     H82453  10.063   3.517   0.010 -0.3572  0.0294  0.0976
  611MOL0     H82454  10.061   3.339  -0.008 -2.9504 -0.5837 -0.0760
  611MOL0     H82455  10.150   3.365  -0.217 -0.6628 -0.3798 -0.0789
  611MOL0     H82456  10.241   3.451  -0.088  0.4371 -5.6408  0.0430
  611MOL0     H82457  10.075   3.583  -0.315 -1.3078  2.3843  1.0460
  611MOL0     H82458  10.143   3.673  -0.177  1.2217  0.5058 -1.3404
  611MOL0     H82459  10.311   3.488  -0.364  1.9821  2.0285 -1.2756
  611MOL0     H82460  10.380   3.576  -0.226  0.5989  1.0587 -0.3186
  611MOL0     H82461  10.204   3.712  -0.432  1.8271 -1.4607 -3.6749
  611MOL0     H82462  10.319   3.772  -0.304 -1.9848 -2.0078  1.8150
  611MOL0     H82463  10.367   3.619  -0.563 -1.2666  1.2190  0.2889
  611MOL0     H82464  10.498   3.656  -0.443 -0.8736  0.6643  5.1529
  611MOL0     H82465  10.492   3.820  -0.631  0.4684  0.1579  0.9238
  611MOL0     H82466  10.425   3.901  -0.478 -2.7060  2.0099 -0.3571
  611MOL0     H82467   9.608   3.421  -0.173 -0.1660 -0.1979  0.5108
  611MOL0     H82468   9.416   3.292  -0.082  1.5145  1.4814 -1.2188
  611MOL0     H82469   9.050   3.344   0.306 -0.9140  0.1712 -2.1618
  611MOL0     H82470   8.869   3.205   0.429 -0.1599 -1.6505 -0.0418
  611MOL0     H82471   7.709   2.060   1.248  3.3007  0.1642  0.3614
  611MOL0     H82472   7.674   1.928   1.458 -0.0405  0.5700  3.2352
  611MOL0     H82473   7.542   2.018   1.904  0.1322 -0.0370 -1.3952
  611MOL0     H82474   7.488   1.919   2.118 -0.2424  1.4046 -1.6299
  611MOL0     H82475   7.472   1.849   2.313  0.1293  1.9168 -1.3717
  611MOL0     H82476   7.361   1.760   2.205 -1.3377 -0.9997  1.0930
  611MOL0     H82477   7.479   1.683   2.476 -0.3553 -0.8333  0.2804
  611MOL0     H82478   7.390   1.568   2.364  2.0174  0.5584 -1.5920
  611MOL0     H82479   7.187   1.695   2.383 -1.5729  0.7083  2.2024
  611MOL0     H82480   7.260   1.832   2.459 -0.9355  0.9710 -1.3232
  611MOL0     H82481   7.135   1.702   2.622  0.9941  2.5175  1.3978
  611MOL0     H82482   7.310   1.723   2.654 -0.4410  1.4134 -1.0329
  611MOL0     H82483   7.269   1.307   2.589 -0.3408  0.1093 -2.5823
  611MOL0     H82484   7.736   1.594   2.072 -4.1651 -0.9719 -1.0053
  611MOL0     H82485   7.828   1.676   1.859  0.7072 -0.9469 -0.7235
  612MOL0     O82486   1.529   5.637  10.637  0.1459 -0.5464 -0.8601
  612MOL0     C82487   1.598   5.683  10.547 -0.7235 -0.1786  0.4855
  612MOL0     O82488   1.729   5.651  10.507  1.2304  0.1547  1.1966
  612MOL0     C82489   1.789   5.554  10.579  1.0306  0.4682  0.2272
  612MOL0     C82490   1.782   5.424  10.533  0.2082 -1.0262  0.2813
  612MOL0     C82491   1.810   5.329  10.618 -0.9813 -0.4674 -0.6633
  612MOL0     C82492   1.874   5.357  10.747 -0.2725  0.4685  0.2460
  612MOL0     O82493   1.896   5.251  10.837  0.0788 -0.5069 -0.9373
  612MOL0     C82494   1.975   5.146  10.787 -0.6322  0.5720 -0.0084
  612MOL0     C82495   2.022   5.046  10.893 -0.3469  0.7109  0.4234
  612MOL0     C82496   2.165   5.086  10.950 -0.5730  0.4229  0.5188
  612MOL0     C82497   2.163   5.209  11.049 -0.8842  0.5570  0.0707
  612MOL0     C82498   2.073   5.190  11.164 -0.0020 -0.0255 -0.3137
  612MOL0     C82499   2.113   5.280  11.280  0.1113  0.1804 -0.3465
  612MOL0     C82500   2.002   5.281  11.390 -0.0173  0.0610 -0.2734
  612MOL0     C82501   2.014   5.390  11.489  0.6545 -0.4633 -0.0578
  612MOL0     N82502   1.970   5.514  11.424 -0.3001 -0.3318 -0.0396
  612MOL0     C82503   1.845   5.560  11.380 -0.2854  0.5720 -0.8212
  612MOL0     C82504   1.862   5.669  11.317  0.2319 -0.4380  0.8653
  612MOL0     C82505   1.754   5.752  11.251 -0.4225 -0.4385  0.5889
  612MOL0     C82506   1.803   5.874  11.163  0.1608  0.8894 -0.6545
  612MOL0     C82507   1.869   5.823  11.037  0.3129  0.3815  0.1575
  612MOL0     C82508   1.891   5.921  10.922 -0.9193 -0.1161  0.5372
  612MOL0     O82509   1.963   6.036  10.976 -0.1924 -1.0902 -0.2835
  612MOL0     C82510   2.023   6.127  10.886 -0.7176  0.9195  0.4097
  612MOL0     C82511   1.981   6.138  10.756 -0.0963 -0.3414 -0.0783
  612MOL0     C82512   2.025   6.229  10.661  0.5529  0.2561  0.0790
  612MOL0     C82513   1.973   6.218  10.526 -0.3282 -0.3373  0.0696
  612MOL0     C82514   2.113   6.338  10.702 -0.3271  0.2173 -0.9635
  612MOL0     C82515   2.164   6.456  10.624 -0.6105  0.2779  0.0894
  612MOL0     O82516   2.250   6.539  10.700 -0.8261 -0.4993  0.0770
  612MOL0     C82517   2.324   6.617  10.618  0.0741 -0.6683  1.0118
  612MOL0     C82518   2.441   6.572  10.549  0.4681 -0.2855 -0.8963
  612MOL0     C82519   2.515   6.658  10.467 -0.6364  0.2288 -0.5080
  612MOL0     C82520   2.486   6.793  10.470 -0.2414  0.2515 -0.3714
  612MOL0     O82521   2.540   6.882  10.385  0.5798  0.0746  0.3373
  612MOL0     C82522   2.657   6.854  10.309  0.5481 -0.5707  0.0197
  612MOL0     C82523   2.701   6.995  10.275 -0.4735 -0.0808  0.3485
  612MOL0     C82524   2.832   6.995  10.202  1.2656  0.0431  0.6383
  612MOL0     C82525   2.946   6.991  10.299 -0.4059 -0.0939 -0.4990
  612MOL0     C82526   3.075   6.977  10.229 -0.5018 -0.1244  1.3566
  612MOL0     C82527   3.137   7.123  10.220  0.5184  0.5656 -0.2969
  612MOL0     C82528   3.219   7.170  10.351  0.4137  0.2683  0.7357
  612MOL0     C82529   3.361   7.119  10.366 -0.0242 -0.7685  0.2767
  612MOL0    Cl82530   3.480   7.184  10.252  0.2476 -0.1780  0.3879
  612MOL0     C82531   2.372   6.836  10.531  0.3153  0.4066 -0.4769
  612MOL0     C82532   2.281   6.752  10.596 -0.1727  0.3325 -0.0868
  612MOL0     O82533   2.149   6.471  10.502  0.2107  0.2571 -0.2101
  612MOL0     C82534   2.162   6.324  10.837  0.0365 -0.2067  0.3932
  612MOL0     C82535   2.121   6.226  10.928  1.3598  0.4292  0.5512
  612MOL0     N82536   1.996   5.703  11.333  0.4396  0.3551  0.1037
  612MOL0     N82537   2.059   5.613  11.396  0.0591  0.5312  0.7890
  612MOL0     C82538   1.902   5.487  10.780 -0.0711 -1.0158 -0.1344
  612MOL0     C82539   1.854   5.592  10.694  0.5222  0.1437  0.0247
  612MOL0     C82540   1.521   5.775  10.460  0.3523 -0.3421  0.4528
  612MOL0     C82541   1.382   5.795  10.498 -0.3299 -0.7758  1.0850
  612MOL0     C82542   1.305   5.874  10.426  0.7065 -0.7331 -0.0083
  612MOL0     C82543   1.348   5.953  10.320 -0.4829  0.0231 -0.0291
  612MOL0     O82544   1.278   6.042  10.256 -0.0823 -0.6855 -0.1762
  612MOL0     C82545   1.146   6.004  10.214 -0.0326 -0.4372 -0.7092
  612MOL0     C82546   1.128   5.879  10.122 -0.1981  1.0494  0.1222
  612MOL0     C82547   1.224   5.889  10.000 -0.1424 -0.0767  0.0467
  612MOL0     C82548   1.220   5.762   9.906  0.9968  0.7967 -0.0543
  612MOL0     C82549   1.090   5.706   9.873 -0.7641 -0.2756 -0.4423
  612MOL0     C82550   0.989   5.651   9.836  0.4346 -0.4869 -0.2343
  612MOL0     C82551   1.485   5.947  10.283  0.2611  0.3081 -0.4880
  612MOL0     C82552   1.572   5.857  10.357 -0.4182 -0.1166 -0.1566
  612MOL0     H82553   1.733   5.408  10.437  2.8573  0.5150 -1.4749
  612MOL0     H82554   1.808   5.226  10.583 -1.2583 -0.5681 -0.3604
  612MOL0     H82555   1.905   5.082  10.733 -1.6675  0.9362  0.8683
  612MOL0     H82556   2.059   5.190  10.732 -1.1413  0.8201 -0.5988
  612MOL0     H82557   1.941   5.037  10.966 -2.4947  1.6435 -1.6938
  612MOL0     H82558   2.033   4.947  10.849  0.9765  0.5988  0.9504
  612MOL0     H82559   2.196   4.992  10.995 -0.5069 -0.8615 -2.0520
  612MOL0     H82560   2.233   5.116  10.870  1.0428 -1.6028  1.0649
  612MOL0     H82561   2.265   5.224  11.086 -1.7538  0.8038  2.5350
  612MOL0     H82562   2.142   5.304  10.998  4.8744  2.5939  0.7997
  612MOL0     H82563   1.973   5.208  11.124  0.2792  2.0584 -0.1781
  612MOL0     H82564   2.068   5.087  11.201  1.8406  0.0022  0.0768
  612MOL0     H82565   2.210   5.247  11.320 -0.0043 -1.8351 -1.5634
  612MOL0     H82566   2.113   5.385  11.248 -1.2237 -0.2372 -1.8101
  612MOL0     H82567   1.908   5.307  11.340 -0.5522 -1.3266 -0.0271
  612MOL0     H82568   1.981   5.190  11.447 -0.1033  0.5142  0.4307
  612MOL0     H82569   2.120   5.397  11.513  0.9361 -1.2857 -0.9873
  612MOL0     H82570   1.953   5.368  11.577 -2.8072  1.8427 -1.6434
  612MOL0     H82571   1.746   5.518  11.394  0.7686 -1.8631 -0.2074
  612MOL0     H82572   1.700   5.684  11.184  1.1010 -3.1203  1.9393
  612MOL0     H82573   1.694   5.801  11.328  1.3285  3.9248 -0.5067
  612MOL0     H82574   1.888   5.930  11.204 -0.2032  1.2909 -0.4435
  612MOL0     H82575   1.721   5.937  11.126  0.0255  0.1922 -1.5705
  612MOL0     H82576   1.818   5.735  10.998  3.0601 -0.6791 -1.3231
  612MOL0     H82577   1.967   5.783  11.066  0.2979  0.4805  0.3479
  612MOL0     H82578   1.793   5.953  10.886 -0.8149 -0.7100 -0.2996
  612MOL0     H82579   1.946   5.875  10.840 -2.3776  1.7219 -1.5721
  612MOL0     H82580   1.903   6.065  10.735  2.1362 -3.4953  1.7135
  612MOL0     H82581   1.926   6.121  10.508  3.1334 -2.3774  1.0667
  612MOL0     H82582   1.897   6.295  10.508 -1.0656 -0.6372  1.7085
  612MOL0     H82583   2.060   6.219  10.461 -0.3826 -0.2291 -0.0013
  612MOL0     H82584   2.472   6.468  10.548  1.4786  0.0070 -1.1035
  612MOL0     H82585   2.592   6.622  10.400 -0.1304  1.6731 -0.7495
  612MOL0     H82586   2.737   6.806  10.367  0.5293  0.6572  1.1268
  612MOL0     H82587   2.627   6.780  10.234 -5.3960  1.7277 -0.4225
  612MOL0     H82588   2.625   7.038  10.209  1.4849  0.9037 -1.3860
  612MOL0     H82589   2.718   7.058  10.364  0.0670 -0.1264  0.2801
  612MOL0     H82590   2.830   7.088  10.146 -0.3084 -1.0503 -1.2258
  612MOL0     H82591   2.829   6.917  10.125  0.3018  0.7943 -0.1151
  612MOL0     H82592   2.961   7.087  10.350  1.0794 -0.6229  0.1217
  612MOL0     H82593   2.933   6.905  10.366  3.5171  0.5838  1.3974
  612MOL0     H82594   3.055   6.942  10.127 -1.7477 -2.4662  2.3289
  612MOL0     H82595   3.140   6.904  10.278 -0.0875  0.9610  2.4690
  612MOL0     H82596   3.210   7.127  10.138  0.8550  1.0055  0.0209
  612MOL0     H82597   3.057   7.192  10.193 -1.5983 -2.4220 -2.3834
  612MOL0     H82598   3.153   7.160  10.438 -1.2119  2.2525 -0.1905
  612MOL0     H82599   3.229   7.279  10.354 -2.4958  0.6084  1.0275
  612MOL0     H82600   3.374   7.011  10.357  0.3393 -0.9855  2.7042
  612MOL0     H82601   3.393   7.143  10.468  0.3695  2.1391 -0.4498
  612MOL0     H82602   2.346   6.939  10.512 -0.8974  0.1933 -0.1221
  612MOL0     H82603   2.186   6.793  10.630 -0.8846  0.1889 -1.8037
  612MOL0     H82604   2.228   6.403  10.871  0.7046 -0.3923 -0.4359
  612MOL0     H82605   2.162   6.224  11.029  3.1887 -2.4134 -0.1345
  612MOL0     H82606   1.958   5.491  10.873 -2.4009 -2.4011  1.4260
  612MOL0     H82607   1.857   5.696  10.723  1.4681  0.3467 -0.7523
  612MOL0     H82608   1.332   5.747  10.582 -2.9725  1.3766  0.8981
  612MOL0     H82609   1.201   5.888  10.454  1.2613  0.2956  1.7011
  612MOL0     H82610   1.083   5.986  10.301 -2.1548 -1.6859 -2.4008
  612MOL0     H82611   1.097   6.092  10.172 -0.2764 -0.4298 -0.4058
  612MOL0     H82612   1.023   5.868  10.095 -0.4017  0.6882  1.0210
  612MOL0     H82613   1.146   5.780  10.165 -0.8398 -0.5384 -2.9779
  612MOL0     H82614   1.322   5.892  10.048 -0.2156 -3.4032  0.6335
  612MOL0     H82615   1.211   5.980   9.940  1.9841 -0.9006 -1.7655
  612MOL0     H82616   1.281   5.688   9.959  0.6331  0.5226 -0.0197
  612MOL0     H82617   1.273   5.780   9.812  4.6594 -0.9286  1.4689
  612MOL0     H82618   0.901   5.602   9.799 -1.2110  1.8633  0.2893
  612MOL0     H82619   1.519   6.008  10.200  4.5911  0.7408  1.3343
  612MOL0     H82620   1.673   5.858  10.317 -1.1347  2.8556 -2.2112
  613MOL0     O82621   0.166  11.306   8.258  0.5240  0.3928  0.3112
  613MOL0     C82622   0.265  11.335   8.314 -0.5070  0.0645  0.4006
  613MOL0     O82623   0.298  11.300   8.444  0.7116  0.7095  0.9060
  613MOL0     C82624   0.221  11.199   8.496  0.3221 -0.3101 -0.4641
  613MOL0     C82625   0.103  11.231   8.564 -0.8935 -0.1926 -1.0224
  613MOL0     C82626   0.022  11.129   8.606 -0.8501 -0.1412 -0.2824
  613MOL0     C82627   0.046  10.997   8.576  0.2244 -0.1538 -0.1103
  613MOL0     O82628  -0.035  10.884   8.604  0.2210 -0.0819  0.7004
  613MOL0     C82629  -0.125  10.886   8.714  0.2287  0.1629  1.1815
  613MOL0     C82630  -0.044  10.905   8.846 -0.5046  0.0403  0.2892
  613MOL0     C82631  -0.118  10.834   8.957  0.3025  0.7831 -0.0147
  613MOL0     C82632  -0.064  10.850   9.098 -0.4322  0.7637  0.1067
  613MOL0     C82633  -0.121  10.967   9.182 -0.5688 -0.0528  0.5980
  613MOL0     C82634  -0.097  10.961   9.333  0.2017 -0.1701  0.2879
  613MOL0     C82635   0.046  11.012   9.369 -0.4992 -0.1638 -0.3743
  613MOL0     C82636   0.057  11.165   9.349 -0.1149 -0.0867 -0.5176
  613MOL0     N82637   0.099  11.203   9.215  0.0520  0.6551  0.0483
  613MOL0     C82638   0.150  11.123   9.117  0.1664  0.2086  0.0157
  613MOL0     C82639   0.193  11.207   9.017  0.8518  1.1404 -0.4242
  613MOL0     C82640   0.257  11.163   8.892 -0.2070 -0.1143  0.6818
  613MOL0     C82641   0.368  11.250   8.846  0.2454 -0.4729 -0.6809
  613MOL0     C82642   0.492  11.178   8.803 -0.0488 -0.8534  0.2705
  613MOL0     C82643   0.600  11.265   8.741 -0.2200  0.1803 -0.1845
  613MOL0     O82644   0.642  11.379   8.809  0.5548 -0.0701 -0.2471
  613MOL0     C82645   0.753  11.376   8.889  0.9050  0.1857  0.1228
  613MOL0     C82646   0.814  11.501   8.913  0.5608 -0.0824 -0.8425
  613MOL0     C82647   0.941  11.506   8.968  0.2187  0.0733  1.6448
  613MOL0     C82648   1.010  11.639   8.973 -0.1495  0.0421  0.2088
  613MOL0     C82649   0.996  11.394   9.024 -0.7304  1.2068 -1.0498
  613MOL0     C82650   1.136  11.395   9.072 -0.2985  1.1730 -0.2446
  613MOL0     O82651   1.225  11.345   8.992  0.5886 -0.2289 -0.0411
  613MOL0     C82652   1.354  11.372   9.025  0.5582  0.0267 -0.2172
  613MOL0     C82653   1.443  11.261   9.037 -0.0006 -0.6072 -0.1186
  613MOL0     C82654   1.580  11.276   9.078 -0.2850 -0.3208  1.0055
  613MOL0     C82655   1.635  11.403   9.086 -0.7165 -0.2947  1.0878
  613MOL0     O82656   1.765  11.418   9.135  0.5265  0.0813  0.3498
  613MOL0     C82657   1.816  11.538   9.168 -0.3526  0.1610  0.0469
  613MOL0     C82658   1.949  11.505   9.247  0.0539  0.7969 -0.7474
  613MOL0     C82659   2.055  11.605   9.203 -0.1061  0.2518  0.9156
  613MOL0     C82660   2.182  11.598   9.289  1.1491  0.6337  0.7038
  613MOL0     C82661   2.240  11.457   9.299  0.1676 -0.7021  0.5416
  613MOL0     C82662   2.394  11.444   9.345  0.1472  0.3730  0.5740
  613MOL0     C82663   2.435  11.302   9.318  0.1820 -0.0008 -1.0934
  613MOL0     C82664   2.513  11.255   9.446  0.5241 -0.6391 -0.4681
  613MOL0    Cl82665   2.376  11.217   9.570 -0.0587  0.4012  0.0339
  613MOL0     C82666   1.543  11.509   9.051 -0.6409 -0.4463  0.2138
  613MOL0     C82667   1.414  11.499   9.019 -0.1196  0.8109  0.7832
  613MOL0     O82668   1.157  11.426   9.189 -0.0517  0.0538  0.3889
  613MOL0     C82669   0.923  11.268   9.024 -0.0585 -0.9582 -0.2626
  613MOL0     C82670   0.804  11.256   8.947 -0.5816  0.1756  0.5160
  613MOL0     N82671   0.153  11.335   9.055  0.2373 -0.2396  0.6022
  613MOL0     N82672   0.101  11.331   9.175 -1.0060  0.3421  0.6738
  613MOL0     C82673   0.171  10.962   8.526  0.4322  0.3734  0.5888
  613MOL0     C82674   0.258  11.060   8.480  0.0996  0.6504  0.1530
  613MOL0     C82675   0.348  11.440   8.247  0.4353 -0.4926 -1.4584
  613MOL0     C82676   0.425  11.526   8.334  0.4035  0.8739  0.8226
  613MOL0     C82677   0.515  11.614   8.276  0.8664 -0.4595  0.4401
  613MOL0     C82678   0.534  11.627   8.133 -0.0569 -0.4057  0.1962
  613MOL0     O82679   0.617  11.729   8.104 -0.2762 -0.4585  0.4575
  613MOL0     C82680   0.640  11.738   7.962  0.5168  0.2624  0.1003
  613MOL0     C82681   0.726  11.853   7.933 -0.2993 -0.1864  0.0603
  613MOL0     C82682   0.660  12.001   7.927  0.2743  0.3770 -0.0168
  613MOL0     C82683   0.750  12.125   7.939  0.4333 -0.6589  0.3137
  613MOL0     C82684   0.813  12.154   8.071 -0.1372 -0.3091  0.7924
  613MOL0     C82685   0.871  12.172   8.172  1.0677 -0.0197  0.6615
  613MOL0     C82686   0.451  11.543   8.047 -0.0630  0.4313 -0.3484
  613MOL0     C82687   0.360  11.453   8.107 -0.3183 -0.6873 -0.0788
  613MOL0     H82688   0.079  11.335   8.585  0.5474  0.0882 -0.7146
  613MOL0     H82689  -0.068  11.158   8.658 -1.9460 -5.0406  1.0823
  613MOL0     H82690  -0.200  10.964   8.703  1.0115  0.9420  1.2279
  613MOL0     H82691  -0.178  10.791   8.709 -3.3176  1.7671  3.9286
  613MOL0     H82692   0.064  10.889   8.849 -0.4583  0.4267  0.9254
  613MOL0     H82693  -0.051  11.012   8.869  0.1280  0.4403 -1.2716
  613MOL0     H82694  -0.218  10.878   8.952 -0.4500 -0.9715 -1.4735
  613MOL0     H82695  -0.111  10.729   8.927  2.9709  1.0483 -0.5969
  613MOL0     H82696  -0.082  10.755   9.149  3.4801 -2.7056 -4.0278
  613MOL0     H82697   0.045  10.858   9.098 -0.3494  0.0478  1.9378
  613MOL0     H82698  -0.104  11.066   9.139 -0.8963  0.8525  2.4784
  613MOL0     H82699  -0.228  10.965   9.159 -0.3206  2.1548 -1.0625
  613MOL0     H82700  -0.178  11.018   9.378 -0.4244 -0.0245 -0.9948
  613MOL0     H82701  -0.100  10.855   9.362 -1.3196 -0.1841  0.1527
  613MOL0     H82702   0.064  10.982   9.473  2.2503  2.2938 -0.0122
  613MOL0     H82703   0.124  10.961   9.312  1.2895 -0.6558  2.3410
  613MOL0     H82704   0.131  11.196   9.423 -1.1351  0.7176  0.1961
  613MOL0     H82705  -0.038  11.211   9.375 -1.2038 -0.7567 -2.9966
  613MOL0     H82706   0.178  11.019   9.104  1.2745  0.4611  0.2868
  613MOL0     H82707   0.287  11.057   8.896 -2.0495 -0.7657 -1.1403
  613MOL0     H82708   0.169  11.156   8.828 -0.7779  3.3611  0.9051
  613MOL0     H82709   0.394  11.307   8.936  0.4712 -1.5630 -0.0421
  613MOL0     H82710   0.343  11.320   8.766 -2.4050 -1.1475 -0.5500
  613MOL0     H82711   0.469  11.097   8.733 -2.5742 -0.3725  0.4477
  613MOL0     H82712   0.537  11.126   8.888  2.1247  1.5661  0.7342
  613MOL0     H82713   0.578  11.296   8.639  0.7752  1.6572  0.0129
  613MOL0     H82714   0.692  11.206   8.730  0.2210  0.3655  2.0147
  613MOL0     H82715   0.760  11.585   8.870 -1.4795 -1.1351 -0.5104
  613MOL0     H82716   1.045  11.654   9.075 -3.8225 -2.3328  2.0777
  613MOL0     H82717   1.091  11.635   8.900  0.3154 -1.4354  0.7576
  613MOL0     H82718   0.946  11.724   8.947  2.0515  1.4764 -0.8128
  613MOL0     H82719   1.401  11.161   9.037  0.4494 -0.8178 -1.2869
  613MOL0     H82720   1.641  11.189   9.098  0.2695  0.2872  2.0422
  613MOL0     H82721   1.839  11.606   9.086 -0.8098  2.9518  2.0533
  613MOL0     H82722   1.744  11.595   9.229 -1.1395  1.0999 -1.6632
  613MOL0     H82723   1.934  11.519   9.354  0.1168  1.7110 -0.8486
  613MOL0     H82724   1.989  11.406   9.225  0.5277  0.6075  0.8249
  613MOL0     H82725   2.017  11.707   9.209 -1.0986 -0.0712  0.3195
  613MOL0     H82726   2.083  11.592   9.098  0.1420 -1.3591  1.1508
  613MOL0     H82727   2.259  11.655   9.238  1.1654  1.8274  1.9807
  613MOL0     H82728   2.166  11.647   9.386  0.3725  0.8052  0.4975
  613MOL0     H82729   2.229  11.410   9.201 -0.0419 -0.3432  0.3914
  613MOL0     H82730   2.195  11.393   9.375 -1.0721 -3.0935 -2.0164
  613MOL0     H82731   2.456  11.506   9.279 -2.1106  3.5022  1.2066
  613MOL0     H82732   2.408  11.465   9.451 -0.7436  1.5774  0.4698
  613MOL0     H82733   2.497  11.286   9.229  1.4181  0.1713 -0.2979
  613MOL0     H82734   2.354  11.233   9.294 -1.0928  2.7185 -5.7670
  613MOL0     H82735   2.587  11.326   9.483 -0.1563 -0.2946  0.2713
  613MOL0     H82736   2.567  11.161   9.434  1.5280 -0.4559  2.0627
  613MOL0     H82737   1.581  11.610   9.058  2.2161 -1.4248 -0.0421
  613MOL0     H82738   1.351  11.586   9.007 -0.5268  0.2743 -1.2826
  613MOL0     H82739   0.981  11.186   9.065 -0.5016 -0.6787  0.9600
  613MOL0     H82740   0.765  11.155   8.938  4.0511 -1.8754  0.7004
  613MOL0     H82741   0.196  10.857   8.509 -4.1434 -1.0191  0.9395
  613MOL0     H82742   0.356  11.030   8.445 -0.1940  0.1593 -0.2505
  613MOL0     H82743   0.413  11.494   8.437  0.6147 -2.2364 -0.0118
  613MOL0     H82744   0.568  11.673   8.350  3.1209 -4.6415  2.5609
  613MOL0     H82745   0.682  11.642   7.929  0.2429 -0.1233  0.8288
  613MOL0     H82746   0.550  11.766   7.907  0.5229 -1.4158 -0.8114
  613MOL0     H82747   0.765  11.835   7.833 -2.5789  0.6275 -1.0560
  613MOL0     H82748   0.811  11.848   8.002  0.0830 -1.1058 -0.4659
  613MOL0     H82749   0.593  12.000   8.014  0.2569 -2.4882  0.0410
  613MOL0     H82750   0.601  11.998   7.835 -3.5446 -2.4908  2.2194
  613MOL0     H82751   0.683  12.209   7.917  0.3340 -0.6228  0.7534
  613MOL0     H82752   0.826  12.119   7.861  0.8464  0.3994  0.6124
  613MOL0     H82753   0.937  12.188   8.254  1.3321 -0.7433  0.5885
  613MOL0     H82754   0.452  11.538   7.938  0.7983  0.6464 -0.3610
  613MOL0     H82755   0.298  11.398   8.037  1.8429 -2.6274 -0.6015
  614MOL0     O82756   3.457   9.674   7.780  0.2765 -1.1793 -0.6253
  614MOL0     C82757   3.479   9.730   7.668 -0.0855 -0.2598 -0.7917
  614MOL0     O82758   3.536   9.853   7.653  0.9348 -0.5283  0.2529
  614MOL0     C82759   3.547   9.948   7.749 -1.2887  1.1210 -0.1876
  614MOL0     C82760   3.662  10.023   7.737  0.7475  1.0764 -0.5173
  614MOL0     C82761   3.679  10.124   7.833  0.6622  0.4124 -0.6514
  614MOL0     C82762   3.583  10.162   7.926  0.3034  0.8236 -0.4815
  614MOL0     O82763   3.600  10.272   7.998 -0.8206  0.5853 -0.2682
  614MOL0     C82764   3.736  10.322   8.026  0.4083  1.0311 -0.5791
  614MOL0     C82765   3.819  10.230   8.121 -0.2574 -0.4199  0.8132
  614MOL0     C82766   3.942  10.304   8.180  0.6326  0.5160 -0.0718
  614MOL0     C82767   4.058  10.292   8.074 -0.8506  0.6081 -0.0561
  614MOL0     C82768   4.206  10.333   8.115  0.6341  0.2154 -0.2411
  614MOL0     C82769   4.298  10.358   8.003  0.2587 -0.1454  0.2230
  614MOL0     C82770   4.437  10.387   8.071  0.5597  0.3775 -0.5922
  614MOL0     C82771   4.540  10.399   7.960  0.5010  0.2185  0.1493
  614MOL0     N82772   4.664  10.444   8.025  0.4988 -0.5662 -0.3732
  614MOL0     C82773   4.695  10.573   8.026 -1.4420 -0.6258 -0.7057
  614MOL0     C82774   4.827  10.578   8.070 -0.2604 -0.6703  0.8208
  614MOL0     C82775   4.915  10.699   8.070  0.3225 -0.1525  0.1202
  614MOL0     C82776   4.854  10.819   8.004  0.0034 -0.2590 -0.3786
  614MOL0     C82777   4.827  10.807   7.846 -0.1144  0.4813 -0.4542
  614MOL0     C82778   4.733  10.920   7.803  0.3416  0.3125 -0.0405
  614MOL0     O82779   4.615  10.905   7.881 -0.6441 -0.1526  0.3367
  614MOL0     C82780   4.510  10.829   7.845 -0.7251 -1.1309  0.4085
  614MOL0     C82781   4.408  10.817   7.941  0.5107  0.0392 -0.5267
  614MOL0     C82782   4.297  10.733   7.918 -0.0376 -0.1097  0.1746
  614MOL0     C82783   4.210  10.717   8.043  0.2160 -0.0739  0.9831
  614MOL0     C82784   4.278  10.669   7.799 -0.2915  0.1103 -0.3503
  614MOL0     C82785   4.142  10.618   7.753 -0.3031  0.2995 -0.0937
  614MOL0     O82786   4.153  10.535   7.647  0.4196  0.5060  0.4911
  614MOL0     C82787   4.039  10.496   7.586  0.5347 -0.3962  0.4400
  614MOL0     C82788   3.941  10.429   7.662  0.7374  0.8296  0.2409
  614MOL0     C82789   3.821  10.377   7.599  0.0018 -1.2392  0.2388
  614MOL0     C82790   3.798  10.406   7.464  0.1313  0.2321 -0.0650
  614MOL0     O82791   3.686  10.381   7.396 -0.2930  0.6182 -0.2168
  614MOL0     C82792   3.574  10.304   7.456 -0.8462 -0.4316  0.9514
  614MOL0     C82793   3.489  10.270   7.337 -0.1560 -0.4965 -0.8110
  614MOL0     C82794   3.339  10.225   7.371 -0.0911 -1.2819  0.4115
  614MOL0     C82795   3.331  10.137   7.493 -1.0469 -0.0292 -0.6049
  614MOL0     C82796   3.202  10.053   7.502 -0.3547 -0.2349  0.1458
  614MOL0     C82797   3.082  10.130   7.579 -0.5918 -0.6149  0.5671
  614MOL0     C82798   2.956  10.044   7.632 -1.4285  0.5373  0.0060
  614MOL0     C82799   3.001   9.932   7.739 -1.2041  0.3866  0.7917
  614MOL0    Cl82800   3.082  10.004   7.870  0.2483 -0.1505 -0.3852
  614MOL0     C82801   3.896  10.474   7.389 -0.1559 -0.4715  0.6636
  614MOL0     C82802   4.020  10.509   7.450 -0.6395 -0.7722  1.2541
  614MOL0     O82803   4.034  10.645   7.809 -0.4408  0.9195  0.2485
  614MOL0     C82804   4.376  10.687   7.697 -0.8943  0.8115 -0.5553
  614MOL0     C82805   4.498  10.757   7.724 -0.4746  1.0011  1.1045
  614MOL0     N82806   4.857  10.446   8.107  0.7958 -0.4763 -0.1951
  614MOL0     N82807   4.761  10.370   8.075  0.7093 -0.4450 -0.0226
  614MOL0     C82808   3.463  10.083   7.926  0.4925 -0.3347 -0.0792
  614MOL0     C82809   3.446   9.971   7.841 -0.4540 -0.3429  0.4917
  614MOL0     C82810   3.447   9.650   7.558 -0.0728  0.5782 -0.1180
  614MOL0     C82811   3.451   9.710   7.433  0.3224 -0.2849  0.0139
  614MOL0     C82812   3.426   9.638   7.318  0.4427  0.1388  0.3840
  614MOL0     C82813   3.377   9.508   7.322 -0.1422 -0.1356 -0.0319
  614MOL0     O82814   3.342   9.448   7.205  0.5378 -0.3309 -0.0109
  614MOL0     C82815   3.362   9.311   7.202 -0.0391 -0.1975 -0.0572
  614MOL0     C82816   3.391   9.262   7.065  0.0525  0.7531  0.2609
  614MOL0     C82817   3.541   9.287   7.033  0.6345  0.8739 -0.3946
  614MOL0     C82818   3.585   9.227   6.899 -0.3537 -0.9988  0.0481
  614MOL0     C82819   3.587   9.079   6.911 -0.2533 -1.1091  0.6619
  614MOL0     C82820   3.588   8.957   6.897 -0.1178 -0.6327 -0.5143
  614MOL0     C82821   3.375   9.443   7.448  0.0920  0.7325  1.0051
  614MOL0     C82822   3.409   9.513   7.569  0.8714 -0.9973  1.0686
  614MOL0     H82823   3.747   9.998   7.674  0.6562 -1.9828  0.3916
  614MOL0     H82824   3.772  10.178   7.812  1.4040 -1.1583 -1.6292
  614MOL0     H82825   3.794  10.344   7.936  1.1646 -1.0374 -0.6509
  614MOL0     H82826   3.715  10.417   8.077 -3.8047 -0.1718  0.3126
  614MOL0     H82827   3.752  10.211   8.206 -1.9900 -1.6950 -0.7492
  614MOL0     H82828   3.835  10.128   8.086 -3.4180 -1.2010  1.3399
  614MOL0     H82829   3.915  10.406   8.208 -1.7368  0.9865 -3.5151
  614MOL0     H82830   3.963  10.248   8.271  0.1451  0.5207  0.0449
  614MOL0     H82831   4.081  10.188   8.047 -1.1168  1.6584 -5.4097
  614MOL0     H82832   4.025  10.355   7.991 -0.6611 -2.1687 -2.4282
  614MOL0     H82833   4.200  10.429   8.168 -1.5994 -0.0425  0.0931
  614MOL0     H82834   4.236  10.255   8.185  0.1618 -0.7497 -1.0884
  614MOL0     H82835   4.301  10.270   7.937  1.6433  0.2181 -0.2263
  614MOL0     H82836   4.266  10.444   7.943  0.8338 -0.6720 -0.8761
  614MOL0     H82837   4.431  10.474   8.138 -0.7248 -1.7621  2.2847
  614MOL0     H82838   4.467  10.302   8.133 -0.0659  1.0403  0.6690
  614MOL0     H82839   4.491  10.463   7.885 -1.5980 -0.2026  1.0918
  614MOL0     H82840   4.548  10.299   7.916 -1.1204  0.2628 -0.3212
  614MOL0     H82841   4.637  10.657   7.989 -1.0488  0.5719  1.2325
  614MOL0     H82842   4.938  10.722   8.174 -1.3458 -0.6129  0.6259
  614MOL0     H82843   5.014  10.675   8.030  0.3998 -1.1714  0.9004
  614MOL0     H82844   4.921  10.904   8.022 -0.6251 -0.0355  1.0666
  614MOL0     H82845   4.757  10.827   8.054  1.6363 -1.7294  3.3753
  614MOL0     H82846   4.796  10.707   7.814  2.3836  0.0755 -1.8081
  614MOL0     H82847   4.923  10.827   7.797  0.8248 -1.8004  0.3176
  614MOL0     H82848   4.698  10.920   7.699  0.5611  1.0370 -0.1192
  614MOL0     H82849   4.774  11.021   7.816  1.1770  0.2096 -1.6313
  614MOL0     H82850   4.419  10.874   8.032 -3.0036 -1.9595  1.3590
  614MOL0     H82851   4.269  10.747   8.130  0.0090 -0.8086  1.3844
  614MOL0     H82852   4.130  10.791   8.049 -1.4095 -1.7942  1.2174
  614MOL0     H82853   4.172  10.615   8.055  2.4334 -0.7090  3.9438
  614MOL0     H82854   3.967  10.403   7.764  1.3960  4.1127  1.0523
  614MOL0     H82855   3.749  10.316   7.652 -2.2122 -2.7728 -4.0482
  614MOL0     H82856   3.601  10.215   7.513  2.7766 -1.2334 -1.7153
  614MOL0     H82857   3.518  10.372   7.522  1.2192  1.4966  0.8505
  614MOL0     H82858   3.492  10.363   7.281  0.8005  0.3070  0.5231
  614MOL0     H82859   3.536  10.199   7.268  0.8039  0.6259 -1.3373
  614MOL0     H82860   3.305  10.175   7.280  2.1289 -1.7442 -0.2197
  614MOL0     H82861   3.264  10.302   7.388 -1.4614 -2.8710  1.9768
  614MOL0     H82862   3.414  10.066   7.489 -0.8482  0.2676 -2.4770
  614MOL0     H82863   3.339  10.190   7.589  1.3750 -2.4575  0.7045
  614MOL0     H82864   3.215   9.966   7.566 -3.0569  0.5170  1.9054
  614MOL0     H82865   3.173  10.013   7.404 -1.2779  0.5345  0.0880
  614MOL0     H82866   3.114  10.201   7.655 -1.3652  1.3388 -0.8467
  614MOL0     H82867   3.050  10.202   7.503  0.9364  1.9187  2.1681
  614MOL0     H82868   2.891  10.014   7.551 -1.8341 -0.4478  0.6808
  614MOL0     H82869   2.886  10.111   7.683 -1.7141 -0.3155  0.7666
  614MOL0     H82870   3.068   9.862   7.687 -1.9312 -0.5705  1.1038
  614MOL0     H82871   2.913   9.879   7.776 -1.2344  2.0315  3.2648
  614MOL0     H82872   3.866  10.472   7.284 -1.9039  0.4660  1.1062
  614MOL0     H82873   4.103  10.546   7.390 -0.7648 -0.0013  1.5352
  614MOL0     H82874   4.350  10.642   7.601  1.9642 -2.2534 -0.0859
  614MOL0     H82875   4.579  10.756   7.651 -1.0304 -0.7661  0.4448
  614MOL0     H82876   3.380  10.119   7.986 -1.8612  2.2396 -4.3752
  614MOL0     H82877   3.355   9.913   7.853 -0.9658 -0.5231 -3.1207
  614MOL0     H82878   3.491   9.810   7.421  0.6518 -0.3117  0.8434
  614MOL0     H82879   3.429   9.692   7.224  0.8415 -2.0295 -0.9144
  614MOL0     H82880   3.442   9.281   7.270  0.5825 -1.2265 -1.1983
  614MOL0     H82881   3.273   9.266   7.245  1.5257 -1.6460  1.8698
  614MOL0     H82882   3.327   9.311   6.991  1.6558  0.4316 -1.4074
  614MOL0     H82883   3.375   9.154   7.072  1.3865  0.1673 -3.5255
  614MOL0     H82884   3.598   9.232   7.108 -2.2767 -1.3663  0.3757
  614MOL0     H82885   3.555   9.395   7.036  2.6792  0.6298  1.5260
  614MOL0     H82886   3.677   9.270   6.859 -0.2866 -2.0218 -0.9628
  614MOL0     H82887   3.511   9.247   6.820 -0.8908  1.2266  1.0259
  614MOL0     H82888   3.588   8.850   6.890 -0.8352 -0.7036  0.3211
  614MOL0     H82889   3.345   9.339   7.458  0.4013  0.5822  0.4315
  614MOL0     H82890   3.384   9.470   7.665  0.3696 -0.6019  1.1205
  615MOL0     O82891   3.299   6.327   7.487  0.3376  0.2527  0.4684
  615MOL0     C82892   3.365   6.226   7.463  0.3595 -0.5323  0.0990
  615MOL0     O82893   3.318   6.095   7.461 -0.3409 -0.1196 -0.5066
  615MOL0     C82894   3.200   6.070   7.533 -0.4389 -1.2866  0.4419
  615MOL0     C82895   3.188   6.057   7.671 -0.4275 -0.1248 -0.3540
  615MOL0     C82896   3.058   6.025   7.727 -0.6054 -0.2580  0.1014
  615MOL0     C82897   2.947   6.028   7.650  0.6877  0.1197 -0.1526
  615MOL0     O82898   2.830   6.010   7.718  0.3708 -1.3206  0.0619
  615MOL0     C82899   2.700   6.060   7.662  0.3874  0.0924 -0.8031
  615MOL0     C82900   2.586   6.067   7.775 -0.2853 -0.4795  0.6300
  615MOL0     C82901   2.530   5.938   7.811 -0.1592 -0.2572 -0.8309
  615MOL0     C82902   2.439   5.970   7.929 -0.5292  0.1305 -0.2356
  615MOL0     C82903   2.285   5.975   7.916 -0.8651 -0.3777  0.2207
  615MOL0     C82904   2.243   6.082   7.815  0.2732 -0.1466 -0.7884
  615MOL0     C82905   2.097   6.103   7.791  0.4497  0.0146 -0.2057
  615MOL0     C82906   2.034   5.973   7.741  0.1169 -0.3721 -0.6912
  615MOL0     N82907   1.889   5.994   7.720  0.0850  0.0600  0.1115
  615MOL0     C82908   1.826   5.962   7.601  0.9170 -0.2586  0.0579
  615MOL0     C82909   1.693   6.000   7.602 -0.0813  0.1576  0.4479
  615MOL0     C82910   1.587   5.945   7.504 -0.0600 -0.7525 -0.1098
  615MOL0     C82911   1.474   6.056   7.486 -0.1339  0.3791 -0.2924
  615MOL0     C82912   1.528   6.181   7.414  0.3374 -0.0823  0.1070
  615MOL0     C82913   1.412   6.274   7.395 -0.4245  0.3160 -0.3016
  615MOL0     O82914   1.351   6.310   7.520 -0.6030 -0.6717  0.0152
  615MOL0     C82915   1.208   6.324   7.515  0.1704  0.6187  0.3753
  615MOL0     C82916   1.132   6.335   7.403 -0.2558 -0.3564  0.1623
  615MOL0     C82917   0.990   6.340   7.408 -1.0622  1.2854  0.0816
  615MOL0     C82918   0.918   6.369   7.279 -0.2152 -0.5352 -0.0435
  615MOL0     C82919   0.930   6.322   7.534  0.7603 -0.5225 -1.0021
  615MOL0     C82920   0.779   6.318   7.543  0.1406  0.8909  0.2221
  615MOL0     O82921   0.720   6.224   7.466 -0.1575  0.3346  0.2207
  615MOL0     C82922   0.584   6.226   7.467 -0.1181 -0.1612 -0.2842
  615MOL0     C82923   0.510   6.315   7.398  0.7688 -0.6609 -0.8625
  615MOL0     C82924   0.369   6.314   7.412 -0.3680  0.2913  0.9548
  615MOL0     C82925   0.299   6.223   7.494 -0.1873 -0.5248  0.2478
  615MOL0     O82926   0.162   6.216   7.517  0.1927 -0.4705  0.3775
  615MOL0     C82927   0.072   6.326   7.492 -0.0249  0.3779  0.4468
  615MOL0     C82928  -0.081   6.294   7.530 -0.1762 -0.0367 -0.3160
  615MOL0     C82929  -0.132   6.149   7.487 -0.6091  0.4714  0.4567
  615MOL0     C82930  -0.262   6.102   7.554 -0.0843 -0.4316 -1.1272
  615MOL0     C82931  -0.216   6.072   7.699 -0.3877 -0.2667 -0.5589
  615MOL0     C82932  -0.305   5.957   7.749 -0.1667 -0.0249  0.2879
  615MOL0     C82933  -0.226   5.887   7.874 -0.8900 -0.2179  0.0680
  615MOL0     C82934  -0.327   5.804   7.951  0.2454  0.8799  1.3139
  615MOL0    Cl82935  -0.331   5.635   7.887  0.3479 -0.5158 -0.3828
  615MOL0     C82936   0.381   6.129   7.565  0.0912  0.0467  0.5502
  615MOL0     C82937   0.518   6.129   7.550 -0.9309  0.3320 -0.6319
  615MOL0     O82938   0.731   6.387   7.625 -0.1614 -0.6330  0.4508
  615MOL0     C82939   1.004   6.329   7.650  0.0148  0.3776  0.2147
  615MOL0     C82940   1.147   6.314   7.643  0.2615 -0.0103  0.2979
  615MOL0     N82941   1.674   6.053   7.735 -0.2048  0.5015 -0.3786
  615MOL0     N82942   1.795   6.059   7.797 -0.6505 -0.0248  0.1413
  615MOL0     C82943   2.959   6.042   7.511 -0.8839  0.0235 -0.5902
  615MOL0     C82944   3.088   6.067   7.458  0.6647  0.1034 -0.4286
  615MOL0     C82945   3.501   6.246   7.415 -0.3123  0.3960  0.0534
  615MOL0     C82946   3.539   6.373   7.364 -0.9402 -0.3504  0.4874
  615MOL0     C82947   3.665   6.397   7.324  0.6284 -0.1010 -0.0153
  615MOL0     C82948   3.768   6.306   7.343  0.3574 -0.0291 -0.3159
  615MOL0     O82949   3.894   6.339   7.307  0.0733  0.6014  0.0581
  615MOL0     C82950   3.996   6.242   7.280  1.1996  0.2273 -0.6238
  615MOL0     C82951   4.105   6.315   7.191 -0.6230 -1.7656  0.8547
  615MOL0     C82952   4.049   6.355   7.051 -0.0865 -0.0090  0.6494
  615MOL0     C82953   4.147   6.414   6.946  0.7877  0.4856 -0.5920
  615MOL0     C82954   4.241   6.496   7.012  0.1249  0.2046  0.6614
  615MOL0     C82955   4.306   6.573   7.078 -0.1039  0.3289  0.0793
  615MOL0     C82956   3.730   6.175   7.382  0.8026 -0.0668  0.9351
  615MOL0     C82957   3.597   6.145   7.409 -0.6305  0.5524  0.8573
  615MOL0     H82958   3.285   6.048   7.721  1.2074  1.8575 -2.9156
  615MOL0     H82959   3.041   6.008   7.832 -1.5507  1.4868  0.2661
  615MOL0     H82960   2.713   6.162   7.626 -2.3038  0.6661 -0.3673
  615MOL0     H82961   2.664   5.987   7.588  1.2725 -1.1810 -0.0214
  615MOL0     H82962   2.624   6.115   7.866  2.0291 -0.4267 -0.2899
  615MOL0     H82963   2.510   6.136   7.738  1.2097  1.2194  0.5748
  615MOL0     H82964   2.474   5.888   7.732  0.6427 -0.1597 -1.4730
  615MOL0     H82965   2.608   5.865   7.836  0.2867  0.6466  0.5488
  615MOL0     H82966   2.448   5.884   7.996 -2.2686  1.2770  1.6113
  615MOL0     H82967   2.462   6.065   7.979 -3.6638 -0.6319  3.1599
  615MOL0     H82968   2.239   5.877   7.898 -0.2291 -0.9443  1.5056
  615MOL0     H82969   2.248   5.988   8.018 -2.4497  0.2801 -0.4063
  615MOL0     H82970   2.276   6.176   7.860 -1.4088  0.2881 -0.3708
  615MOL0     H82971   2.302   6.069   7.724  2.3130 -3.3853  0.8209
  615MOL0     H82972   2.041   6.150   7.872 -1.1374 -0.3808 -1.0244
  615MOL0     H82973   2.090   6.177   7.711  0.5433 -1.2761 -1.4552
  615MOL0     H82974   2.058   5.891   7.809 -0.1639 -0.0870 -0.2406
  615MOL0     H82975   2.075   5.944   7.644 -0.4773  1.3583 -1.4960
  615MOL0     H82976   1.861   5.906   7.514 -2.6464  0.9686 -2.4161
  615MOL0     H82977   1.634   5.905   7.413  1.2418 -3.3547  1.5797
  615MOL0     H82978   1.546   5.857   7.556 -0.8288  0.5746  1.6428
  615MOL0     H82979   1.437   6.084   7.585 -1.7678  0.9584 -1.0410
  615MOL0     H82980   1.398   6.011   7.420 -1.1248 -1.6120  2.0450
  615MOL0     H82981   1.557   6.158   7.311  0.5823  1.1434 -0.1137
  615MOL0     H82982   1.612   6.224   7.469 -0.1667 -2.4470  2.9613
  615MOL0     H82983   1.350   6.215   7.326 -2.5235  3.5264 -1.3825
  615MOL0     H82984   1.440   6.363   7.338 -0.9245  0.8107  0.2150
  615MOL0     H82985   1.187   6.336   7.310  0.9703  1.4886  0.8567
  615MOL0     H82986   0.991   6.379   7.198  0.5232 -1.1768  0.5252
  615MOL0     H82987   0.856   6.282   7.258  5.2594 -5.2697  0.9385
  615MOL0     H82988   0.860   6.461   7.297  0.5212 -0.1829  0.6016
  615MOL0     H82989   0.550   6.394   7.335 -0.2448 -0.2574 -1.0293
  615MOL0     H82990   0.306   6.389   7.367  0.2169  1.0049  1.3107
  615MOL0     H82991   0.100   6.416   7.547 -1.3833  0.3152  1.2873
  615MOL0     H82992   0.070   6.350   7.385  0.6676 -2.9179 -0.4303
  615MOL0     H82993  -0.095   6.312   7.637  0.4207 -0.7671 -0.1085
  615MOL0     H82994  -0.145   6.363   7.474 -1.4246 -3.1528 -3.0674
  615MOL0     H82995  -0.047   6.082   7.501 -0.8810  0.4150  1.9665
  615MOL0     H82996  -0.153   6.160   7.380 -2.8544  0.4100  0.8433
  615MOL0     H82997  -0.338   6.178   7.572  0.1233  0.4549 -3.5776
  615MOL0     H82998  -0.303   6.012   7.506 -0.7840 -0.5979 -0.2357
  615MOL0     H82999  -0.207   6.164   7.759 -0.0379  0.6262 -1.9219
  615MOL0     H83000  -0.115   6.030   7.695 -0.6169 -0.7324 -1.7635
  615MOL0     H83001  -0.406   5.993   7.774 -0.5550  0.5269 -1.8617
  615MOL0     H83002  -0.318   5.875   7.678  3.2297  0.2425 -0.8022
  615MOL0     H83003  -0.201   5.972   7.938 -0.5151  0.6699 -1.2125
  615MOL0     H83004  -0.135   5.837   7.842  0.4515  2.4476 -0.5456
  615MOL0     H83005  -0.425   5.849   7.935 -0.2579 -0.5630  0.1640
  615MOL0     H83006  -0.301   5.813   8.057 -0.9303  2.8703  1.4942
  615MOL0     H83007   0.326   6.055   7.622 -0.9346  2.3765  2.8387
  615MOL0     H83008   0.584   6.055   7.595 -5.2376 -2.8014  1.1739
  615MOL0     H83009   0.963   6.344   7.749 -0.2267  1.2301 -0.0084
  615MOL0     H83010   1.205   6.300   7.734 -1.9710 -1.5010  1.5604
  615MOL0     H83011   2.877   6.033   7.440 -0.6562  0.6336 -0.9453
  615MOL0     H83012   3.090   6.085   7.351  0.6424  2.2016 -0.1195
  615MOL0     H83013   3.469   6.455   7.375  0.0496  0.1871  4.1214
  615MOL0     H83014   3.676   6.490   7.269 -3.5829  0.6479  0.0102
  615MOL0     H83015   4.038   6.217   7.377  1.1694  0.5371 -0.5312
  615MOL0     H83016   3.958   6.150   7.234  2.6935  0.3981 -2.3355
  615MOL0     H83017   4.189   6.248   7.169  1.4629  1.0101 -0.2021
  615MOL0     H83018   4.136   6.403   7.248  0.9950 -1.6936 -0.1009
  615MOL0     H83019   3.958   6.414   7.060  0.1961  0.3134  1.4358
  615MOL0     H83020   4.014   6.266   6.998 -1.4884  2.0556 -2.1570
  615MOL0     H83021   4.079   6.462   6.876 -1.3900  0.9308  1.6875
  615MOL0     H83022   4.198   6.338   6.885  0.0558 -1.0632  0.6633
  615MOL0     H83023   4.361   6.640   7.141  1.6668  0.7185 -1.7800
  615MOL0     H83024   3.795   6.092   7.408  0.4767 -0.5438  0.2547
  615MOL0     H83025   3.578   6.040   7.429  0.5969  0.3151  0.8801
  616MOL0     O83026   0.549   6.631   8.350  0.1598  0.2378  0.1285
  616MOL0     C83027   0.654   6.645   8.401  0.1315 -0.5028  0.1525
  616MOL0     O83028   0.744   6.748   8.378  0.4121 -0.3135 -0.2971
  616MOL0     C83029   0.703   6.834   8.282  0.5911 -1.0251  0.6793
  616MOL0     C83030   0.603   6.931   8.305  0.4086 -0.5656 -0.2258
  616MOL0     C83031   0.567   7.016   8.199 -0.3172  0.0390  0.0596
  616MOL0     C83032   0.625   6.994   8.069  0.0635 -0.2051  0.0680
  616MOL0     O83033   0.587   7.070   7.963 -0.4472 -0.0710 -0.1944
  616MOL0     C83034   0.573   6.994   7.834 -0.5850 -0.4361 -0.3622
  616MOL0     C83035   0.493   7.070   7.736  0.5402 -0.2438  0.3585
  616MOL0     C83036   0.345   7.089   7.780 -0.0423 -0.0755 -0.1866
  616MOL0     C83037   0.288   7.201   7.681  0.1829  0.1813  1.6135
  616MOL0     C83038   0.159   7.256   7.749 -0.2945  0.1803 -0.9085
  616MOL0     C83039   0.089   7.351   7.667  0.2361 -0.3612  0.7847
  616MOL0     C83040  -0.032   7.424   7.726  0.5475  0.4842 -0.1082
  616MOL0     C83041   0.005   7.518   7.846 -0.5953 -0.4705  1.0183
  616MOL0     N83042  -0.102   7.614   7.877 -0.6188 -0.3720  0.3624
  616MOL0     C83043  -0.106   7.732   7.810  0.3962 -0.5471 -0.5708
  616MOL0     C83044  -0.199   7.807   7.871 -0.5820 -0.2423  0.2446
  616MOL0     C83045  -0.240   7.951   7.836  0.2700  0.3617  0.3214
  616MOL0     C83046  -0.258   7.970   7.685  0.1250  0.9368  0.0665
  616MOL0     C83047  -0.323   8.101   7.650 -0.5642  0.1631 -0.3604
  616MOL0     C83048  -0.354   8.095   7.495  0.1260  0.4189 -0.4510
  616MOL0     O83049  -0.458   7.999   7.460  0.1807  0.4543  0.0105
  616MOL0     C83050  -0.546   8.045   7.364 -0.4534  0.1090 -0.7276
  616MOL0     C83051  -0.671   8.081   7.401  0.7659  0.2949 -0.5568
  616MOL0     C83052  -0.754   8.147   7.311  1.2391  0.4809 -0.1461
  616MOL0     C83053  -0.893   8.185   7.358 -0.0309 -0.3092  0.0914
  616MOL0     C83054  -0.713   8.166   7.172  0.0356 -0.8116 -0.8772
  616MOL0     C83055  -0.796   8.228   7.074 -0.3652  0.1852  0.4126
  616MOL0     O83056  -0.901   8.309   7.117  0.2125 -0.3279  0.2183
  616MOL0     C83057  -0.991   8.349   7.020  0.5927 -0.3870 -0.2546
  616MOL0     C83058  -1.127   8.344   7.053  0.2085  0.2412  0.1042
  616MOL0     C83059  -1.236   8.393   6.976  0.2914 -0.1767  0.3815
  616MOL0     C83060  -1.209   8.458   6.852 -0.2499 -1.3083  0.2659
  616MOL0     O83061  -1.300   8.522   6.769  0.1119 -0.2363 -0.5533
  616MOL0     C83062  -1.438   8.529   6.805  0.0204 -0.5214 -0.0707
  616MOL0     C83063  -1.463   8.628   6.931  0.0260  0.5874 -0.0312
  616MOL0     C83064  -1.356   8.737   6.939 -0.6852 -0.5502  0.8800
  616MOL0     C83065  -1.408   8.848   7.029 -0.2117 -0.0579  0.8145
  616MOL0     C83066  -1.306   8.973   7.041  0.6077  0.2612  0.3530
  616MOL0     C83067  -1.311   9.051   6.908 -0.4207  0.0478 -0.4454
  616MOL0     C83068  -1.193   9.148   6.887 -1.1899 -0.6560  0.3607
  616MOL0     C83069  -1.181   9.220   6.754  1.1820 -0.7212  0.1064
  616MOL0    Cl83070  -1.326   9.324   6.742 -0.2564  0.2439  0.3769
  616MOL0     C83071  -1.069   8.459   6.812  0.6599  0.0839 -0.1356
  616MOL0     C83072  -0.976   8.402   6.890  0.1059 -0.9381 -0.8003
  616MOL0     O83073  -0.768   8.206   6.958  0.0266 -0.2088 -0.7737
  616MOL0     C83074  -0.584   8.111   7.135 -0.0066 -0.0391 -0.8452
  616MOL0     C83075  -0.505   8.060   7.233  0.6051  0.0510 -0.2338
  616MOL0     N83076  -0.251   7.730   7.976 -0.3676 -0.3268 -0.0966
  616MOL0     N83077  -0.193   7.611   7.976  0.3771 -0.2369 -0.1794
  616MOL0     C83078   0.740   6.907   8.057  0.5695  0.0735  0.1031
  616MOL0     C83079   0.781   6.829   8.164  1.3276  0.5255  0.1339
  616MOL0     C83080   0.686   6.548   8.509 -0.7298 -0.2396  0.0773
  616MOL0     C83081   0.596   6.460   8.563  0.2289 -0.1659 -0.3182
  616MOL0     C83082   0.622   6.376   8.677  0.0124 -0.2510 -0.8994
  616MOL0     C83083   0.752   6.376   8.730 -0.2549  0.4865  0.2053
  616MOL0     O83084   0.789   6.298   8.822 -0.0340  0.8618  0.6567
  616MOL0     C83085   0.715   6.285   8.941 -0.1016 -0.0272  0.5302
  616MOL0     C83086   0.804   6.205   9.042 -0.8019 -0.1696  0.8355
  616MOL0     C83087   0.936   6.271   9.089  0.0227 -0.1267 -0.3778
  616MOL0     C83088   1.004   6.192   9.201  0.4501  0.3298  0.7421
  616MOL0     C83089   0.930   6.194   9.322  0.3321  0.7523 -1.0618
  616MOL0     C83090   0.860   6.213   9.419 -0.6124  0.0908 -0.4258
  616MOL0     C83091   0.845   6.453   8.665 -0.0963  0.2824  0.4248
  616MOL0     C83092   0.817   6.535   8.558  0.5745 -0.6795  0.2312
  616MOL0     H83093   0.574   6.941   8.409  4.6249  0.4071  1.0624
  616MOL0     H83094   0.477   7.072   8.221 -2.2156 -2.8360  0.1935
  616MOL0     H83095   0.669   6.979   7.785 -2.2394 -1.6124 -3.5664
  616MOL0     H83096   0.521   6.899   7.852  0.6606 -1.4073 -1.6924
  616MOL0     H83097   0.543   7.167   7.723  1.6539 -0.7405  0.7432
  616MOL0     H83098   0.495   7.011   7.644 -1.3037 -1.3643  0.9849
  616MOL0     H83099   0.276   7.004   7.784 -0.6541  0.4541  1.7876
  616MOL0     H83100   0.345   7.137   7.879 -1.0635 -2.1446  0.8831
  616MOL0     H83101   0.356   7.285   7.667 -0.2362  0.1348 -1.0666
  616MOL0     H83102   0.272   7.171   7.578 -1.9218  1.8409  1.3996
  616MOL0     H83103   0.093   7.174   7.778 -0.0511  0.6712  1.1741
  616MOL0     H83104   0.183   7.311   7.841  1.6120 -0.9724 -0.6638
  616MOL0     H83105   0.158   7.429   7.633  0.9643 -1.1011  0.5319
  616MOL0     H83106   0.048   7.295   7.582 -0.7636 -2.5252  2.5976
  616MOL0     H83107  -0.079   7.486   7.649  0.3943  0.1248 -0.3111
  616MOL0     H83108  -0.099   7.345   7.762  2.3913 -1.5971 -0.9785
  616MOL0     H83109   0.093   7.578   7.823 -0.0503 -1.7574 -0.3773
  616MOL0     H83110   0.030   7.464   7.938 -0.3390  0.5282  1.5476
  616MOL0     H83111  -0.047   7.770   7.727 -1.4450  1.2945 -1.1192
  616MOL0     H83112  -0.338   7.974   7.880  0.6850  3.7315 -0.2753
  616MOL0     H83113  -0.168   8.020   7.880  0.4529 -1.0424  2.3764
  616MOL0     H83114  -0.325   7.888   7.656  2.2165  0.0938 -2.7859
  616MOL0     H83115  -0.163   7.964   7.631 -0.2335  4.2866 -1.1437
  616MOL0     H83116  -0.253   8.182   7.670 -0.7464  0.1153  0.4912
  616MOL0     H83117  -0.411   8.117   7.713  0.7972  0.6311  1.4968
  616MOL0     H83118  -0.259   8.064   7.450  0.6227  0.3196  0.6274
  616MOL0     H83119  -0.387   8.196   7.470 -2.9847 -0.5012 -0.4579
  616MOL0     H83120  -0.702   8.057   7.502 -0.6762 -2.1744 -1.5091
  616MOL0     H83121  -0.968   8.143   7.291 -1.3057 -1.3185  2.0584
  616MOL0     H83122  -0.915   8.159   7.462 -4.9286 -0.5828 -0.7494
  616MOL0     H83123  -0.909   8.293   7.355  1.6228 -0.0247  0.7186
  616MOL0     H83124  -1.152   8.303   7.150  1.1885  0.6519  0.5399
  616MOL0     H83125  -1.333   8.384   7.024  1.2812  1.6380  2.9536
  616MOL0     H83126  -1.481   8.576   6.717  2.3560  0.6866 -0.6633
  616MOL0     H83127  -1.482   8.431   6.825  1.3148 -0.8575  1.3721
  616MOL0     H83128  -1.557   8.681   6.918  0.5095  0.8389 -3.0456
  616MOL0     H83129  -1.442   8.565   7.019  1.3632 -0.4345 -1.0278
  616MOL0     H83130  -1.340   8.770   6.835  0.3232  2.2893  1.8309
  616MOL0     H83131  -1.261   8.701   6.977  2.5235  2.0044 -3.6496
  616MOL0     H83132  -1.511   8.871   7.003 -0.3481 -2.7230 -1.6202
  616MOL0     H83133  -1.410   8.798   7.126 -1.5162 -3.7496 -0.9294
  616MOL0     H83134  -1.207   8.931   7.061  0.6582  0.4905  0.5832
  616MOL0     H83135  -1.348   9.034   7.122 -2.3782 -2.3410  0.9982
  616MOL0     H83136  -1.315   8.984   6.821  1.8579 -1.4933  0.5429
  616MOL0     H83137  -1.408   9.101   6.913 -3.3104 -5.0305  0.0891
  616MOL0     H83138  -1.106   9.083   6.895 -0.4862 -0.9745 -5.5458
  616MOL0     H83139  -1.190   9.215   6.974  1.2620  0.9715 -0.8297
  616MOL0     H83140  -1.163   9.160   6.664  2.8144  2.1038 -1.6073
  616MOL0     H83141  -1.090   9.279   6.753  0.2535  0.7834  0.6605
  616MOL0     H83142  -1.048   8.504   6.715  1.9795  2.1738  1.0537
  616MOL0     H83143  -0.877   8.419   6.851  0.5105  1.3135  1.0224
  616MOL0     H83144  -0.554   8.113   7.031  1.7811 -1.3705 -0.4090
  616MOL0     H83145  -0.401   8.038   7.210  1.1619  4.3077 -2.9414
  616MOL0     H83146   0.793   6.889   7.964 -1.6108 -0.5478 -1.0983
  616MOL0     H83147   0.858   6.752   8.166 -0.8543 -1.8095 -0.3085
  616MOL0     H83148   0.492   6.461   8.533  0.5599  1.4398 -1.6070
  616MOL0     H83149   0.542   6.325   8.730 -0.2468  0.8382 -0.2165
  616MOL0     H83150   0.681   6.381   8.982 -0.8415 -0.0849  0.0564
  616MOL0     H83151   0.615   6.241   8.936 -1.6048  3.2104 -2.3666
  616MOL0     H83152   0.833   6.109   8.998 -2.6583 -1.1541  1.6743
  616MOL0     H83153   0.747   6.175   9.130 -1.9187 -2.0402 -0.4738
  616MOL0     H83154   0.918   6.373   9.122 -1.9694  0.2355 -2.3154
  616MOL0     H83155   0.999   6.282   9.000  1.5048  5.1608  0.9785
  616MOL0     H83156   1.105   6.226   9.225  2.4883 -3.0140 -2.1406
  616MOL0     H83157   1.023   6.092   9.160  4.1386  0.6690  1.3079
  616MOL0     H83158   0.801   6.249   9.501  0.4642 -4.6724  2.9036
  616MOL0     H83159   0.950   6.441   8.691 -0.6308 -1.2158  2.0174
  616MOL0     H83160   0.893   6.597   8.512  2.2371 -2.6745  0.1417
  617MOL0     O83161   8.683   8.843   0.667 -0.5413  0.2122 -0.3321
  617MOL0     C83162   8.781   8.831   0.586  0.5101 -0.1068  1.1848
  617MOL0     O83163   8.803   8.917   0.477  0.2650  0.6717 -0.1857
  617MOL0     C83164   8.690   8.987   0.435 -0.5789  0.3824  0.3349
  617MOL0     C83165   8.656   9.106   0.507  0.0955  0.3116  0.0961
  617MOL0     C83166   8.543   9.183   0.478 -0.8693  0.4211 -0.1648
  617MOL0     C83167   8.461   9.149   0.370  0.6494  0.7552  0.0369
  617MOL0     O83168   8.354   9.237   0.352  0.3261 -0.5130 -0.0906
  617MOL0     C83169   8.244   9.184   0.276  0.0464 -0.0293  0.0907
  617MOL0     C83170   8.110   9.250   0.332  0.1422 -0.0010 -1.1125
  617MOL0     C83171   7.987   9.191   0.259 -0.3147 -0.9464 -0.0790
  617MOL0     C83172   7.962   9.042   0.256 -0.0208  0.0063  0.0862
  617MOL0     C83173   7.835   8.991   0.189 -0.4327 -0.0196 -0.3511
  617MOL0     C83174   7.838   8.839   0.138  0.2909 -0.3646 -0.2408
  617MOL0     C83175   7.701   8.806   0.083  0.2521  0.7455  0.1922
  617MOL0     C83176   7.674   8.654   0.050  0.2942 -0.7810  0.6473
  617MOL0     N83177   7.740   8.603  -0.066 -0.5551 -0.8228  0.2621
  617MOL0     C83178   7.864   8.540  -0.067 -0.3765  0.3729  0.5791
  617MOL0     C83179   7.888   8.506  -0.197  0.0328 -0.4214  0.9028
  617MOL0     C83180   8.018   8.435  -0.254  0.1661  0.4065  0.0693
  617MOL0     C83181   8.037   8.289  -0.198 -0.1289 -0.0048  0.5214
  617MOL0     C83182   7.914   8.197  -0.222  0.2740  0.0823 -0.1067
  617MOL0     C83183   7.939   8.047  -0.187 -0.6619  0.1707  0.0696
  617MOL0     O83184   7.953   8.019  -0.046 -0.0415 -0.4544  0.1520
  617MOL0     C83185   7.836   7.987   0.024  0.0688 -0.2866  0.5237
  617MOL0     C83186   7.705   7.995  -0.034  0.3987  0.5661  0.1580
  617MOL0     C83187   7.595   7.957   0.038 -0.3252  0.4872  0.7419
  617MOL0     C83188   7.459   7.951  -0.032  0.2459 -0.1194  1.1017
  617MOL0     C83189   7.604   7.911   0.175  0.0989  0.6410  0.3482
  617MOL0     C83190   7.494   7.870   0.268 -0.2732 -0.5562 -0.6648
  617MOL0     O83191   7.379   7.946   0.269 -0.2267  0.3177 -0.3551
  617MOL0     C83192   7.320   7.941   0.396  0.3299 -0.1368 -0.2398
  617MOL0     C83193   7.379   7.997   0.518 -0.3459  0.1084  1.2537
  617MOL0     C83194   7.318   7.987   0.643  0.6090 -0.2910 -0.8611
  617MOL0     C83195   7.193   7.922   0.660 -0.7177  0.9185  0.3262
  617MOL0     O83196   7.134   7.931   0.783  0.0902  0.3815  0.1929
  617MOL0     C83197   7.001   7.892   0.788  0.3378  0.7647  1.0111
  617MOL0     C83198   6.953   7.919   0.931 -0.0822  0.7668  0.2037
  617MOL0     C83199   6.812   7.859   0.945  0.9559 -0.1765  0.3313
  617MOL0     C83200   6.759   7.887   1.095  0.3324 -0.0617 -0.1931
  617MOL0     C83201   6.641   7.789   1.122 -0.0423 -0.1047  0.1748
  617MOL0     C83202   6.602   7.798   1.269 -0.0642  0.1343  0.1044
  617MOL0     C83203   6.522   7.680   1.307  1.6406 -0.1067 -0.0309
  617MOL0     C83204   6.477   7.710   1.448  0.0528  0.3843 -0.1705
  617MOL0    Cl83205   6.594   7.669   1.585  0.6328  0.2064 -0.3806
  617MOL0     C83206   7.128   7.870   0.548  0.1864  0.2676  1.7448
  617MOL0     C83207   7.195   7.873   0.421  0.2435 -0.2118 -0.1093
  617MOL0     O83208   7.514   7.767   0.334  0.1769  0.4384 -0.3393
  617MOL0     C83209   7.733   7.898   0.228  0.8396 -0.0249  0.7217
  617MOL0     C83210   7.853   7.941   0.158  0.3299  0.5260 -0.0901
  617MOL0     N83211   7.772   8.535  -0.270 -0.7416 -0.5747  0.3211
  617MOL0     N83212   7.690   8.594  -0.194 -0.2332  0.4039 -0.5914
  617MOL0     C83213   8.499   9.037   0.292  0.3949 -0.3461 -0.5290
  617MOL0     C83214   8.612   8.958   0.326 -0.3173 -0.2356  0.5556
  617MOL0     C83215   8.884   8.730   0.624  0.1427 -0.5745  0.0912
  617MOL0     C83216   8.995   8.690   0.543 -0.3436  0.3168  0.7019
  617MOL0     C83217   9.094   8.595   0.587  0.7679  0.1948 -0.3375
  617MOL0     C83218   9.069   8.533   0.715 -0.3038  0.9029 -0.0319
  617MOL0     O83219   9.153   8.440   0.767  0.3538  0.1785 -0.5844
  617MOL0     C83220   9.287   8.444   0.722 -0.1372  0.7355  0.2883
  617MOL0     C83221   9.370   8.362   0.816 -0.3567  0.2126  0.5690
  617MOL0     C83222   9.353   8.392   0.963  0.0504 -0.2907 -0.8361
  617MOL0     C83223   9.458   8.318   1.047 -0.0974 -0.5915  0.2853
  617MOL0     C83224   9.422   8.291   1.187  1.2331 -0.8401 -0.2277
  617MOL0     C83225   9.374   8.283   1.301 -0.5057 -0.4814 -1.3728
  617MOL0     C83226   8.961   8.558   0.784  0.3085 -0.3846 -0.1010
  617MOL0     C83227   8.869   8.653   0.741 -0.1644  0.8112 -0.2886
  617MOL0     H83228   8.718   9.137   0.591 -0.6805 -0.5759  1.0154
  617MOL0     H83229   8.527   9.275   0.532 -0.2338 -1.0273  2.7021
  617MOL0     H83230   8.256   9.208   0.170 -3.7397  3.4991  0.2201
  617MOL0     H83231   8.237   9.076   0.284  0.9333 -0.2032 -1.1331
  617MOL0     H83232   8.095   9.234   0.439 -1.7945  3.1926 -0.7623
  617MOL0     H83233   8.119   9.359   0.324 -2.1116  0.2215 -1.2712
  617MOL0     H83234   7.895   9.240   0.292 -0.9538 -1.4769 -1.0235
  617MOL0     H83235   7.991   9.229   0.157 -2.4466  3.2574  1.1641
  617MOL0     H83236   8.052   9.001   0.211  0.4956 -2.4670  3.0425
  617MOL0     H83237   7.952   9.004   0.358  0.9034 -0.4484  0.0129
  617MOL0     H83238   7.746   9.011   0.248 -0.8182 -0.0804 -0.9003
  617MOL0     H83239   7.821   9.052   0.099  0.4537  0.4867 -0.1629
  617MOL0     H83240   7.924   8.826   0.072  1.0411 -0.6676  0.7886
  617MOL0     H83241   7.855   8.774   0.223  1.4155 -1.3086 -1.1587
  617MOL0     H83242   7.628   8.844   0.155 -1.5727  2.0875 -2.2284
  617MOL0     H83243   7.688   8.869  -0.005 -5.1995  2.1180  1.5622
  617MOL0     H83244   7.568   8.638   0.030 -0.1314  1.5809  0.7185
  617MOL0     H83245   7.693   8.588   0.135  0.2637  0.8577  1.9737
  617MOL0     H83246   7.932   8.530   0.016  2.2363  0.2232 -1.4451
  617MOL0     H83247   8.023   8.438  -0.363 -2.0497  1.4223 -0.0508
  617MOL0     H83248   8.108   8.491  -0.229 -1.3296  3.0661 -0.2113
  617MOL0     H83249   8.062   8.279  -0.092 -0.2272 -4.3984  0.2905
  617MOL0     H83250   8.121   8.249  -0.255 -1.2962 -0.8204 -0.6776
  617MOL0     H83251   7.885   8.210  -0.327  1.5582  0.3619 -0.4371
  617MOL0     H83252   7.826   8.230  -0.165 -0.1008  1.8735 -1.5919
  617MOL0     H83253   8.040   8.030  -0.225  0.1264  3.7931  0.1824
  617MOL0     H83254   7.866   7.985  -0.240  0.4902 -0.9971 -0.2133
  617MOL0     H83255   7.696   8.027  -0.138  0.2663  0.3467  0.1011
  617MOL0     H83256   7.455   7.868  -0.104 -0.0069 -0.3726  1.4047
  617MOL0     H83257   7.372   7.934   0.032  0.0483  0.2260  0.9256
  617MOL0     H83258   7.439   8.041  -0.091 -1.5114 -1.1878 -0.0346
  617MOL0     H83259   7.471   8.054   0.507 -2.3476  3.1390 -1.6498
  617MOL0     H83260   7.358   8.041   0.729 -1.3025  1.4087 -0.9623
  617MOL0     H83261   6.940   7.947   0.716 -0.4006 -0.3924  0.7282
  617MOL0     H83262   6.997   7.786   0.761 -0.4712  1.1513 -0.4490
  617MOL0     H83263   7.025   7.876   1.002  0.4148  1.9852  0.4547
  617MOL0     H83264   6.939   8.026   0.949 -3.5215  0.3733  0.5398
  617MOL0     H83265   6.823   7.751   0.937  2.3875  0.0004 -0.3555
  617MOL0     H83266   6.740   7.910   0.880 -1.7869 -0.9854  2.5738
  617MOL0     H83267   6.838   7.856   1.164 -0.5525 -1.5641  0.1909
  617MOL0     H83268   6.727   7.989   1.117  2.0140  0.4732 -0.0220
  617MOL0     H83269   6.684   7.691   1.100  1.2848  0.7940 -1.6102
  617MOL0     H83270   6.554   7.813   1.060 -0.7624  2.2190  1.9625
  617MOL0     H83271   6.683   7.814   1.341 -0.6933 -1.6963  1.2898
  617MOL0     H83272   6.536   7.885   1.278 -1.2448 -0.7806  0.6560
  617MOL0     H83273   6.578   7.586   1.306 -0.5666 -1.4982 -0.0576
  617MOL0     H83274   6.435   7.667   1.242 -1.3262  0.6584  3.4497
  617MOL0     H83275   6.392   7.646   1.471  0.8073 -0.8811 -0.7722
  617MOL0     H83276   6.452   7.816   1.453  1.8987  0.8325  0.4893
  617MOL0     H83277   7.023   7.842   0.549 -0.1825  1.6158  2.0926
  617MOL0     H83278   7.156   7.831   0.328 -1.1863 -0.0685  0.4011
  617MOL0     H83279   7.752   7.864   0.329  2.5285  1.3580  0.9305
  617MOL0     H83280   7.953   7.940   0.200  0.1644 -0.7440  0.3161
  617MOL0     H83281   8.444   9.026   0.199 -2.4515 -0.7537  1.0940
  617MOL0     H83282   8.647   8.867   0.279  0.8599 -0.2309  1.3576
  617MOL0     H83283   8.995   8.735   0.444  1.4684  2.5753  1.6256
  617MOL0     H83284   9.183   8.581   0.527  0.7248  0.1664 -0.3953
  617MOL0     H83285   9.292   8.395   0.624  1.5573 -1.0214  1.1763
  617MOL0     H83286   9.320   8.548   0.726  1.0662  0.3420  1.4278
  617MOL0     H83287   9.474   8.368   0.782 -1.6726  2.3796 -3.8888
  617MOL0     H83288   9.330   8.262   0.793 -4.2644  1.4608  1.2853
  617MOL0     H83289   9.256   8.371   1.009  2.0836 -2.5698  2.9425
  617MOL0     H83290   9.380   8.497   0.978 -0.0677 -0.2019 -1.2386
  617MOL0     H83291   9.551   8.375   1.036 -1.4063  1.9863  1.4644
  617MOL0     H83292   9.462   8.219   1.003 -1.7931  0.0787 -1.5400
  617MOL0     H83293   9.340   8.281   1.403  0.6064 -0.4707 -0.9781
  617MOL0     H83294   8.946   8.512   0.882  0.5984 -1.5586 -0.5958
  617MOL0     H83295   8.782   8.667   0.805 -1.0549 -4.5271  0.1245
  618MOL0     O83296  10.756  11.018   2.753 -0.6622  0.1133 -0.4595
  618MOL0     C83297  10.699  11.065   2.661  0.6147  0.4734  0.9831
  618MOL0     O83298  10.579  11.123   2.663  0.5032 -1.2670 -0.0374
  618MOL0     C83299  10.493  11.142   2.772 -0.0805  0.1062  0.3477
  618MOL0     C83300  10.371  11.215   2.756 -0.1823 -0.0362 -0.3142
  618MOL0     C83301  10.292  11.257   2.864 -0.6712  0.0521  0.4187
  618MOL0     C83302  10.312  11.195   2.990 -0.2011 -0.6985  0.4408
  618MOL0     O83303  10.233  11.223   3.105 -0.9949  0.6104  0.5186
  618MOL0     C83304  10.119  11.311   3.095  0.1185 -1.0884 -0.2110
  618MOL0     C83305   9.982  11.239   3.062  0.3018 -0.1338  0.1739
  618MOL0     C83306   9.875  11.335   3.113  0.7221 -0.7379  0.1317
  618MOL0     C83307   9.728  11.290   3.120  0.0203  0.4613 -0.1662
  618MOL0     C83308   9.631  11.406   3.144  0.4199  0.0176  0.0455
  618MOL0     C83309   9.489  11.346   3.162 -0.0412 -0.0992 -0.2341
  618MOL0     C83310   9.393  11.459   3.135 -0.0717 -0.6713  0.1981
  618MOL0     C83311   9.356  11.456   2.984  0.0195  0.8165  0.6071
  618MOL0     N83312   9.247  11.546   2.938 -0.0841  0.3329  0.2277
  618MOL0     C83313   9.233  11.585   2.810  1.2145 -0.8284  0.1813
  618MOL0     C83314   9.121  11.662   2.805 -0.7712  0.0777  0.4837
  618MOL0     C83315   9.053  11.719   2.687  0.0346 -0.1872 -0.1964
  618MOL0     C83316   8.948  11.618   2.633 -0.3094  0.1963 -0.1551
  618MOL0     C83317   8.919  11.649   2.488 -0.8047 -0.1213 -0.7496
  618MOL0     C83318   8.803  11.569   2.454 -0.1116  0.2362 -0.3735
  618MOL0     O83319   8.793  11.549   2.314  0.1991  0.6842  0.4864
  618MOL0     C83320   8.716  11.635   2.242 -0.5403  0.4792 -0.9204
  618MOL0     C83321   8.629  11.732   2.303  0.0200  0.6287  0.1971
  618MOL0     C83322   8.562  11.828   2.224  0.7648  0.1534 -0.3906
  618MOL0     C83323   8.467  11.927   2.296  0.2321  0.0996  0.3546
  618MOL0     C83324   8.577  11.820   2.081 -0.0935 -0.1766  0.7743
  618MOL0     C83325   8.503  11.908   1.983 -0.5102  1.0144  0.5003
  618MOL0     O83326   8.550  11.893   1.854  0.3466 -0.6310 -0.2313
  618MOL0     C83327   8.491  11.976   1.764 -0.2977 -0.6345 -0.0453
  618MOL0     C83328   8.576  12.074   1.702  0.2117  0.0317  0.6178
  618MOL0     C83329   8.517  12.142   1.600 -0.2376  0.4874 -0.6437
  618MOL0     C83330   8.386  12.122   1.555  0.0798 -0.2324  0.1666
  618MOL0     O83331   8.351  12.209   1.451  1.1280  0.0576 -0.1312
  618MOL0     C83332   8.236  12.173   1.376 -0.3445  0.7334  0.5027
  618MOL0     C83333   8.240  12.256   1.253 -0.0378  0.1690  0.3480
  618MOL0     C83334   8.123  12.213   1.162  0.7328 -0.0430  1.0016
  618MOL0     C83335   8.133  12.296   1.031 -0.1649  1.0287 -0.5186
  618MOL0     C83336   8.025  12.240   0.931  0.1300 -0.6648 -0.3311
  618MOL0     C83337   8.009  12.316   0.802 -0.5311 -0.3122  1.0404
  618MOL0     C83338   8.124  12.320   0.696  0.2906 -0.2541  0.4876
  618MOL0     C83339   8.098  12.428   0.583  0.6373 -0.3531  0.7728
  618MOL0    Cl83340   8.097  12.595   0.634  0.0632 -0.3491 -0.4050
  618MOL0     C83341   8.307  12.029   1.615 -0.4396  0.7187  0.6641
  618MOL0     C83342   8.361  11.954   1.721  0.3424  0.4815 -0.2824
  618MOL0     O83343   8.429  11.992   2.017 -0.1699  0.6924 -0.3665
  618MOL0     C83344   8.664  11.721   2.030 -0.0809 -0.7557  0.3029
  618MOL0     C83345   8.732  11.634   2.108 -0.1871  0.1421  0.2712
  618MOL0     N83346   9.063  11.658   2.926  0.6627  0.7196 -0.3121
  618MOL0     N83347   9.142  11.588   3.005 -0.6352 -0.7567  0.9206
  618MOL0     C83348  10.427  11.112   3.011  0.4196  0.3289 -0.7263
  618MOL0     C83349  10.512  11.096   2.904 -0.3074 -0.1129  0.1445
  618MOL0     C83350  10.776  11.050   2.529 -0.1367  1.0297  0.6390
  618MOL0     C83351  10.886  10.960   2.511 -0.6576  0.0149  0.2522
  618MOL0     C83352  10.949  10.949   2.389  1.1869  0.6260 -0.1374
  618MOL0     C83353  10.899  11.020   2.276 -0.8715 -0.0416 -0.1930
  618MOL0     O83354  10.964  11.014   2.159  0.4944 -0.4016  0.4946
  618MOL0     C83355  10.912  11.063   2.040  0.1793 -0.4263  0.6920
  618MOL0     C83356  10.995  11.016   1.912  1.2747  0.7157  0.0391
  618MOL0     C83357  10.984  10.861   1.874 -0.0307 -0.4352  0.1293
  618MOL0     C83358  11.090  10.769   1.938 -0.4782 -0.0096 -0.5411
  618MOL0     C83359  11.080  10.633   1.890 -0.1016  0.0600 -0.0928
  618MOL0     C83360  11.072  10.525   1.829  0.1008  0.1459  0.4426
  618MOL0     C83361  10.791  11.105   2.292  0.6322  0.3405 -0.6131
  618MOL0     C83362  10.724  11.114   2.416 -0.3587  0.1794  0.6518
  618MOL0     H83363  10.341  11.249   2.657 -2.9438 -2.2138 -0.3452
  618MOL0     H83364  10.203  11.318   2.849 -0.8345 -0.5324 -1.1349
  618MOL0     H83365  10.107  11.359   3.192 -1.4007  1.3154 -1.4979
  618MOL0     H83366  10.136  11.385   3.016 -0.1398 -0.0449  0.6922
  618MOL0     H83367   9.978  11.220   2.955  0.6159  0.9377 -0.0430
  618MOL0     H83368   9.978  11.143   3.113 -0.0684 -1.0713 -1.5474
  618MOL0     H83369   9.896  11.356   3.218  1.7204  0.4629 -0.2988
  618MOL0     H83370   9.872  11.422   3.048  2.5910  0.1397  1.1463
  618MOL0     H83371   9.697  11.245   3.025  0.9880 -2.7995  0.9071
  618MOL0     H83372   9.714  11.211   3.195 -3.3260 -0.6809 -1.7860
  618MOL0     H83373   9.679  11.451   3.231  2.4148 -1.9396  0.0618
  618MOL0     H83374   9.645  11.474   3.060 -0.9238  1.8156  1.2159
  618MOL0     H83375   9.469  11.259   3.099  2.5554 -2.1102  1.4819
  618MOL0     H83376   9.475  11.306   3.263  0.5842 -0.5788 -0.3339
  618MOL0     H83377   9.302  11.430   3.187  0.5390 -0.4771  1.4156
  618MOL0     H83378   9.425  11.554   3.178  0.2100 -0.0812 -1.2421
  618MOL0     H83379   9.315  11.357   2.959  2.0939 -0.6980  2.7249
  618MOL0     H83380   9.445  11.465   2.921  0.6092 -1.2635  1.0712
  618MOL0     H83381   9.274  11.568   2.711 -0.3262 -0.7419 -0.4967
  618MOL0     H83382   8.997  11.809   2.715 -0.8060 -0.3854 -1.1811
  618MOL0     H83383   9.121  11.747   2.606 -2.8595  1.9109 -2.1009
  618MOL0     H83384   8.856  11.617   2.693 -2.5774 -2.1642 -3.3193
  618MOL0     H83385   8.987  11.516   2.640 -0.4552  0.1688  0.3128
  618MOL0     H83386   8.999  11.599   2.434 -0.8605 -1.1317  0.0816
  618MOL0     H83387   8.911  11.756   2.465  0.6413  0.3673  0.7831
  618MOL0     H83388   8.713  11.591   2.512 -0.7722 -1.7251 -0.5741
  618MOL0     H83389   8.821  11.463   2.476 -2.5825 -0.7143 -2.3506
  618MOL0     H83390   8.620  11.737   2.411  0.5708  2.5463  0.1763
  618MOL0     H83391   8.519  12.021   2.277 -0.0538  0.3970  1.0388
  618MOL0     H83392   8.374  11.927   2.237  0.8763  0.0516 -0.6794
  618MOL0     H83393   8.451  11.893   2.398  2.5539  0.8056  0.9970
  618MOL0     H83394   8.679  12.077   1.736  0.0353 -0.2320  1.1823
  618MOL0     H83395   8.577  12.212   1.543  2.6916 -1.2885  0.0335
  618MOL0     H83396   8.230  12.067   1.347  0.5832 -0.1387  3.1639
  618MOL0     H83397   8.147  12.178   1.440 -1.0308 -2.1075 -0.0746
  618MOL0     H83398   8.240  12.364   1.272  3.5967  0.4118 -0.3748
  618MOL0     H83399   8.330  12.234   1.195 -1.3558  0.1921 -1.7893
  618MOL0     H83400   8.026  12.229   1.211 -1.6720 -2.3260 -2.5005
  618MOL0     H83401   8.115  12.105   1.142  0.9184  0.4692 -2.5297
  618MOL0     H83402   8.130  12.404   1.044 -1.6516  1.4840 -3.6154
  618MOL0     H83403   8.230  12.280   0.984  0.0781  0.4885  0.1434
  618MOL0     H83404   7.931  12.246   0.986 -0.9655 -0.9867 -2.0635
  618MOL0     H83405   8.038  12.134   0.905  2.3043 -0.1457 -1.6081
  618MOL0     H83406   7.927  12.265   0.751 -0.1800 -0.5673  0.7222
  618MOL0     H83407   7.978  12.417   0.830  2.1900  0.2274  2.3963
  618MOL0     H83408   8.139  12.218   0.660  0.5228  0.8283 -2.7661
  618MOL0     H83409   8.222  12.333   0.743  0.6413 -0.9162 -0.0436
  618MOL0     H83410   8.032  12.396   0.502  4.7129 -5.4834 -1.1318
  618MOL0     H83411   8.186  12.417   0.519 -1.3292 -1.5548 -1.9191
  618MOL0     H83412   8.207  12.007   1.579 -0.5471  2.0338  0.0870
  618MOL0     H83413   8.307  11.872   1.766  0.7988  0.2690 -0.1220
  618MOL0     H83414   8.671  11.696   1.924  1.5227 -0.3651  0.2795
  618MOL0     H83415   8.794  11.560   2.058  1.3307  1.0944  0.6633
  618MOL0     H83416  10.453  11.073   3.109 -1.8259 -0.0037 -0.2133
  618MOL0     H83417  10.596  11.032   2.931  2.1317  3.2325  1.2427
  618MOL0     H83418  10.925  10.901   2.593  2.0884  0.9256 -0.2793
  618MOL0     H83419  11.025  10.871   2.386  1.5085  0.7751  2.0540
  618MOL0     H83420  10.812  11.024   2.020  0.8382 -0.6611 -2.6291
  618MOL0     H83421  10.923  11.171   2.052  1.1481 -0.6675  2.4374
  618MOL0     H83422  11.101  11.038   1.925  1.4682 -0.9788  1.7919
  618MOL0     H83423  10.958  11.065   1.822  2.1847 -1.9093 -1.8920
  618MOL0     H83424  10.993  10.855   1.765 -4.1412  0.8834 -0.4715
  618MOL0     H83425  10.880  10.833   1.891  0.0813 -0.7071  0.3798
  618MOL0     H83426  11.086  10.764   2.048  2.9729 -1.7251 -0.3536
  618MOL0     H83427  11.186  10.810   1.906 -0.3802 -0.4266 -0.7877
  618MOL0     H83428  11.078  10.431   1.778 -1.3053  0.2530  0.0528
  618MOL0     H83429  10.759  11.180   2.220  0.1902 -0.7783 -1.6082
  618MOL0     H83430  10.644  11.187   2.420  0.6480  1.4103 -0.6509
  619MOL0     O83431   7.913   0.964   4.358  0.1994  0.1656  0.1804
  619MOL0     C83432   8.025   0.971   4.310 -0.1142  0.0674 -0.2349
  619MOL0     O83433   8.091   1.089   4.279  0.9759  0.1173 -0.1539
  619MOL0     C83434   8.038   1.206   4.266 -0.3998  0.1197 -0.0843
  619MOL0     C83435   8.132   1.300   4.220 -0.9888 -0.2365 -0.3144
  619MOL0     C83436   8.096   1.424   4.181 -0.1771 -0.2097 -0.0091
  619MOL0     C83437   7.965   1.472   4.191 -0.7216 -0.0237  0.4350
  619MOL0     O83438   7.928   1.594   4.151  0.1089 -0.0491 -0.4002
  619MOL0     C83439   8.024   1.702   4.112  0.5933  0.5352  1.1564
  619MOL0     C83440   7.955   1.827   4.059 -1.0711 -0.4861 -0.2388
  619MOL0     C83441   8.066   1.937   4.053 -0.2971  0.7612 -0.3209
  619MOL0     C83442   8.004   2.082   4.035  1.0294  1.3194  0.1344
  619MOL0     C83443   8.096   2.209   4.045 -0.0213  0.1609 -1.7156
  619MOL0     C83444   8.227   2.196   3.964 -0.3952 -0.7356  0.4418
  619MOL0     C83445   8.212   2.187   3.815  0.3007 -0.3807  0.6075
  619MOL0     C83446   8.342   2.218   3.749  1.1150 -0.0980 -0.3142
  619MOL0     N83447   8.455   2.132   3.794 -0.2996 -0.0740 -0.1252
  619MOL0     C83448   8.574   2.177   3.850 -0.2350 -0.3740  1.2919
  619MOL0     C83449   8.659   2.074   3.835  0.0360  0.8700  0.9083
  619MOL0     C83450   8.800   2.086   3.886  0.7890  0.6616 -0.4587
  619MOL0     C83451   8.898   1.989   3.815  0.3064 -0.1733  0.3465
  619MOL0     C83452   8.882   1.845   3.865  0.4283  0.6397  1.2680
  619MOL0     C83453   8.901   1.822   4.014 -0.2282  0.3987 -0.1313
  619MOL0     O83454   9.040   1.838   4.041  0.3976  0.6231  1.0121
  619MOL0     C83455   9.076   1.798   4.169  0.6851 -0.0312 -0.2890
  619MOL0     C83456   9.173   1.700   4.189 -1.0708  0.0930  0.0302
  619MOL0     C83457   9.188   1.648   4.323 -0.0914  1.0218 -0.0561
  619MOL0     C83458   9.296   1.543   4.334  0.2713  0.0777 -0.3155
  619MOL0     C83459   9.100   1.673   4.423 -0.0693  0.7320 -0.2011
  619MOL0     C83460   9.087   1.605   4.556  0.5112  0.4701  0.6355
  619MOL0     O83461   8.961   1.620   4.616 -0.0296  0.0899 -0.3262
  619MOL0     C83462   8.945   1.573   4.743  0.2666 -0.3038  0.6078
  619MOL0     C83463   9.038   1.569   4.848 -1.2207  1.0104  0.6855
  619MOL0     C83464   9.027   1.492   4.963  0.7643 -0.1455 -0.6854
  619MOL0     C83465   8.904   1.428   4.991 -0.6043 -0.5456  0.5529
  619MOL0     O83466   8.887   1.322   5.085  0.1410  0.6551  0.5571
  619MOL0     C83467   9.004   1.259   5.138 -0.0146  0.4671  0.3899
  619MOL0     C83468   8.951   1.149   5.234  0.7295  0.5118  0.2798
  619MOL0     C83469   8.906   1.211   5.368 -0.2802  0.1806  0.2146
  619MOL0     C83470   8.817   1.120   5.455  0.1969 -0.4687 -0.3063
  619MOL0     C83471   8.698   1.081   5.380 -0.1208 -0.0377 -0.8901
  619MOL0     C83472   8.668   0.930   5.401 -0.5927 -0.0685  0.3690
  619MOL0     C83473   8.540   0.892   5.326 -0.0267 -0.0399  0.6041
  619MOL0     C83474   8.500   0.745   5.342 -0.3445 -0.2591 -0.5898
  619MOL0    Cl83475   8.325   0.723   5.289  0.0210  0.1547 -0.5881
  619MOL0     C83476   8.812   1.435   4.885 -0.2004  0.2008 -1.2497
  619MOL0     C83477   8.828   1.502   4.761  0.1211 -0.0939 -0.8393
  619MOL0     O83478   9.168   1.524   4.592 -0.1232  0.0312 -0.0042
  619MOL0     C83479   9.006   1.773   4.397 -0.2197  0.4061 -0.2710
  619MOL0     C83480   9.005   1.851   4.283 -0.2040  0.2469  0.2009
  619MOL0     N83481   8.586   1.967   3.778  0.1196  0.0157  0.0831
  619MOL0     N83482   8.471   2.006   3.744  1.1771 -0.2036  0.1079
  619MOL0     C83483   7.872   1.390   4.247 -0.4406  0.3953 -0.2359
  619MOL0     C83484   7.908   1.255   4.286 -0.1715  0.4262  0.6509
  619MOL0     C83485   8.086   0.845   4.256  0.0560 -0.3421 -0.2421
  619MOL0     C83486   8.018   0.723   4.270 -1.0320  0.2613 -1.0446
  619MOL0     C83487   8.068   0.606   4.218 -0.5457  0.5557 -0.3171
  619MOL0     C83488   8.184   0.611   4.134  1.6190  0.4397  0.1886
  619MOL0     O83489   8.233   0.501   4.075  0.1239  0.1809 -0.6301
  619MOL0     C83490   8.285   0.403   4.169  0.1811 -0.4152  0.4723
  619MOL0     C83491   8.267   0.254   4.145  0.9965  0.2463 -0.1809
  619MOL0     C83492   8.342   0.167   4.249  0.2963 -0.5002 -0.3625
  619MOL0     C83493   8.301   0.016   4.239 -0.3111  0.1715  0.1976
  619MOL0     C83494   8.330  -0.039   4.104  0.1431 -0.9167 -0.6191
  619MOL0     C83495   8.353  -0.067   3.990 -0.8246  0.1257 -0.2455
  619MOL0     C83496   8.258   0.731   4.126 -0.2286 -0.0333  0.2634
  619MOL0     C83497   8.206   0.850   4.183  0.4613  0.0847  0.4034
  619MOL0     H83498   8.239   1.288   4.220 -0.4678  2.8806  2.2315
  619MOL0     H83499   8.175   1.489   4.145  0.6394 -2.0424 -1.7430
  619MOL0     H83500   8.089   1.730   4.195  3.0372  0.7796 -0.7176
  619MOL0     H83501   8.092   1.662   4.035 -3.4377  1.3071 -3.3250
  619MOL0     H83502   7.911   1.813   3.960  0.8940 -2.8783 -0.8555
  619MOL0     H83503   7.892   1.868   4.139  4.9797  2.4519  3.7907
  619MOL0     H83504   8.127   1.928   4.144 -0.2716 -1.5906 -0.5102
  619MOL0     H83505   8.134   1.918   3.970  1.5921 -1.9780  1.6755
  619MOL0     H83506   7.952   2.098   3.940 -0.8032 -3.3221  0.0989
  619MOL0     H83507   7.920   2.085   4.105 -1.3374 -0.4375 -2.3873
  619MOL0     H83508   8.046   2.305   4.033  0.0137  0.7552  1.8155
  619MOL0     H83509   8.133   2.204   4.148 -0.4529  1.4170 -1.4941
  619MOL0     H83510   8.278   2.290   3.984 -0.2001  0.2291 -3.7966
  619MOL0     H83511   8.276   2.103   3.994  1.2633 -0.2902 -0.7742
  619MOL0     H83512   8.164   2.091   3.792 -1.8197  0.4028  1.5255
  619MOL0     H83513   8.139   2.257   3.774  1.0493 -0.7337 -1.4423
  619MOL0     H83514   8.367   2.323   3.768  0.7854 -0.1482  0.4493
  619MOL0     H83515   8.324   2.215   3.642  0.2367  0.1718 -0.1813
  619MOL0     H83516   8.598   2.271   3.900  2.6664  0.6879 -1.7607
  619MOL0     H83517   8.844   2.185   3.871 -0.1406  1.4524  1.6374
  619MOL0     H83518   8.812   2.082   3.994  0.2879  0.4433 -0.4066
  619MOL0     H83519   8.998   2.031   3.823  0.5787 -0.0080 -2.5966
  619MOL0     H83520   8.869   1.998   3.709  0.5016  0.4660  0.3412
  619MOL0     H83521   8.954   1.781   3.813 -1.3060 -0.2349 -0.1770
  619MOL0     H83522   8.793   1.800   3.822  1.2095 -0.4322  0.7267
  619MOL0     H83523   8.858   1.725   4.041 -0.0921  0.7525  1.4975
  619MOL0     H83524   8.840   1.888   4.076 -0.2716 -0.0810  0.3478
  619MOL0     H83525   9.228   1.683   4.097 -3.6403  1.0113 -1.8119
  619MOL0     H83526   9.250   1.444   4.348  3.3293 -2.1256 -3.8590
  619MOL0     H83527   9.345   1.530   4.237  1.8837  2.0709  0.1593
  619MOL0     H83528   9.370   1.553   4.414 -1.4063 -1.0552  1.4763
  619MOL0     H83529   9.135   1.619   4.846 -1.4607  1.7208  3.1026
  619MOL0     H83530   9.114   1.478   5.026  0.5638 -0.5587 -0.4981
  619MOL0     H83531   9.061   1.229   5.050  0.0886  3.3924 -0.6526
  619MOL0     H83532   9.070   1.325   5.195  0.3728 -1.3394  2.1491
  619MOL0     H83533   8.868   1.104   5.179  0.0891  0.6183  1.1197
  619MOL0     H83534   9.028   1.072   5.243  0.6243  0.3866  0.0933
  619MOL0     H83535   8.842   1.297   5.345 -2.9814 -1.6094  0.4911
  619MOL0     H83536   8.999   1.238   5.419  0.8443 -1.6887 -0.7355
  619MOL0     H83537   8.877   1.033   5.483  2.8128  0.7507 -1.7484
  619MOL0     H83538   8.789   1.179   5.544  0.7513  0.4775 -0.7456
  619MOL0     H83539   8.691   1.105   5.273 -0.9216 -0.5948 -0.9783
  619MOL0     H83540   8.631   1.149   5.433  1.0860 -0.0348  0.6811
  619MOL0     H83541   8.751   0.867   5.369  0.7393  3.0225 -2.9582
  619MOL0     H83542   8.653   0.896   5.504 -0.7744 -0.7145  0.1370
  619MOL0     H83543   8.559   0.892   5.218  0.8029 -4.4552  0.5817
  619MOL0     H83544   8.458   0.959   5.353  0.2230  1.6278 -2.3444
  619MOL0     H83545   8.510   0.716   5.447 -3.0767 -0.8276 -0.4250
  619MOL0     H83546   8.569   0.672   5.297 -0.0549 -0.5086  0.2432
  619MOL0     H83547   8.720   1.378   4.902  0.0960 -0.4251 -1.7112
  619MOL0     H83548   8.753   1.503   4.683 -0.5289 -0.4989 -0.2326
  619MOL0     H83549   8.929   1.794   4.471 -0.6662  3.3841 -1.4201
  619MOL0     H83550   8.928   1.927   4.274 -1.7494 -1.1541  1.0442
  619MOL0     H83551   7.776   1.412   4.291 -0.0107 -4.2667  3.8680
  619MOL0     H83552   7.829   1.197   4.333 -0.4907 -0.2636 -0.6660
  619MOL0     H83553   7.930   0.719   4.334 -0.7848 -2.7702 -0.7232
  619MOL0     H83554   8.020   0.512   4.242  0.3969  0.2699  0.4992
  619MOL0     H83555   8.393   0.408   4.157  0.0492 -2.0040 -2.2408
  619MOL0     H83556   8.246   0.424   4.269 -0.4012 -0.3331  0.2312
  619MOL0     H83557   8.317   0.233   4.050 -1.4580  0.5043 -1.6182
  619MOL0     H83558   8.164   0.217   4.136  1.5344 -0.8324 -3.0929
  619MOL0     H83559   8.317   0.208   4.347 -0.5706 -2.6431  0.3810
  619MOL0     H83560   8.451   0.169   4.244  0.3350  3.1018 -0.3023
  619MOL0     H83561   8.198  -0.011   4.261  0.2179 -3.0770 -0.8484
  619MOL0     H83562   8.357  -0.041   4.314 -1.0794 -0.7020  0.1186
  619MOL0     H83563   8.361  -0.114   3.894 -1.2235  0.7410 -0.5837
  619MOL0     H83564   8.347   0.729   4.065 -0.8448 -2.7175 -0.7135
  619MOL0     H83565   8.248   0.948   4.166 -2.5013  1.6482  1.2447
  620MOL0     O83566   0.045   0.568   1.258  0.7149  0.0766  0.5544
  620MOL0     C83567   0.095   0.501   1.341 -0.1476  0.4381  0.8248
  620MOL0     O83568   0.104   0.367   1.338 -0.1674 -0.0997  1.0005
  620MOL0     C83569   0.050   0.309   1.232 -0.7016  0.1344  0.5856
  620MOL0     C83570  -0.084   0.271   1.229  0.4768  0.2600 -0.1388
  620MOL0     C83571  -0.147   0.197   1.126 -0.0262 -0.6169 -1.2953
  620MOL0     C83572  -0.078   0.172   1.009  0.2936  0.2810  0.0693
  620MOL0     O83573  -0.129   0.085   0.916  1.3386 -0.4960  0.0559
  620MOL0     C83574  -0.047   0.051   0.799  0.0256  0.0195  0.0732
  620MOL0     C83575  -0.141  -0.000   0.698 -0.0845 -0.3978 -0.6150
  620MOL0     C83576  -0.057  -0.024   0.570 -0.0890 -0.4593 -0.2594
  620MOL0     C83577  -0.152  -0.048   0.447 -0.4024  0.0660 -0.3010
  620MOL0     C83578  -0.063  -0.072   0.325  0.3096 -0.2776  0.6324
  620MOL0     C83579  -0.132  -0.022   0.195  0.3072 -0.3614 -0.0551
  620MOL0     C83580  -0.044  -0.050   0.070  1.3940 -0.6917  0.0601
  620MOL0     C83581   0.079   0.031   0.047 -0.7106 -0.6068 -0.5919
  620MOL0     N83582   0.148  -0.027  -0.067 -0.6383 -0.4363 -0.1753
  620MOL0     C83583   0.136   0.024  -0.198  0.2223 -0.7308  0.0606
  620MOL0     C83584   0.209  -0.050  -0.271  0.2958 -0.5723 -0.7472
  620MOL0     C83585   0.226  -0.060  -0.416  0.2357  0.4912  0.3067
  620MOL0     C83586   0.377  -0.061  -0.462  0.4339  1.6519 -0.2262
  620MOL0     C83587   0.451  -0.199  -0.435  0.1694 -0.2813 -0.7990
  620MOL0     C83588   0.598  -0.176  -0.470  0.2666 -0.4068  0.6031
  620MOL0     O83589   0.618  -0.123  -0.599  0.1622 -0.6973 -0.7161
  620MOL0     C83590   0.725  -0.043  -0.621  0.1564  0.0419  0.5751
  620MOL0     C83591   0.858  -0.070  -0.559  1.4072 -0.0312 -1.0838
  620MOL0     C83592   0.973  -0.008  -0.594  0.6072  0.1941  0.4281
  620MOL0     C83593   1.101  -0.040  -0.516 -0.1851  0.0133 -0.1414
  620MOL0     C83594   0.968   0.091  -0.701  0.4883  0.6203  0.8225
  620MOL0     C83595   1.079   0.151  -0.770  0.0587  0.7444  0.2127
  620MOL0     O83596   1.061   0.281  -0.804 -0.7741  0.1231  0.1634
  620MOL0     C83597   1.118   0.340  -0.913 -0.2849 -0.6541  0.3012
  620MOL0     C83598   1.052   0.379  -1.035  0.4296  0.4739 -0.2139
  620MOL0     C83599   1.120   0.442  -1.134 -0.0367 -0.6025  0.5736
  620MOL0     C83600   1.250   0.491  -1.126 -0.7076  0.1144 -0.9366
  620MOL0     O83601   1.301   0.562  -1.229  0.5306 -0.1899 -0.2805
  620MOL0     C83602   1.437   0.529  -1.261 -0.0266 -0.4032  0.5074
  620MOL0     C83603   1.458   0.415  -1.351  0.0339  0.1450  0.8126
  620MOL0     C83604   1.426   0.283  -1.284  0.0100  0.1445 -0.7869
  620MOL0     C83605   1.503   0.177  -1.375 -0.1206  0.1756 -0.1963
  620MOL0     C83606   1.447   0.034  -1.345  0.6864  0.4923  0.4246
  620MOL0     C83607   1.464  -0.026  -1.204  0.8356 -0.4215 -0.4329
  620MOL0     C83608   1.404  -0.166  -1.186 -0.1980  0.6751  0.6736
  620MOL0     C83609   1.314  -0.165  -1.062 -0.2206 -0.4927 -0.5276
  620MOL0    Cl83610   1.156  -0.127  -1.128  0.1668  0.4099 -0.3036
  620MOL0     C83611   1.312   0.460  -0.998 -0.5763 -0.1322 -0.2749
  620MOL0     C83612   1.251   0.385  -0.897 -0.1701 -0.0938 -0.3528
  620MOL0     O83613   1.179   0.082  -0.801 -0.0978  0.2974  0.3495
  620MOL0     C83614   0.837   0.130  -0.747  0.3277  0.6174 -0.4428
  620MOL0     C83615   0.720   0.059  -0.706  0.2848 -0.2864 -0.2660
  620MOL0     N83616   0.257  -0.147  -0.185  0.1987 -0.1628 -0.5178
  620MOL0     N83617   0.206  -0.156  -0.064  0.0419  0.6522  0.8206
  620MOL0     C83618   0.062   0.202   1.015  0.2369 -0.7319 -0.4592
  620MOL0     C83619   0.121   0.273   1.120  0.2364 -0.3874  0.2881
  620MOL0     C83620   0.126   0.573   1.462 -0.5290  0.7309  0.5407
  620MOL0     C83621   0.185   0.508   1.577  0.3533 -0.5025 -0.3462
  620MOL0     C83622   0.244   0.582   1.683  0.5999  0.4353  0.1048
  620MOL0     C83623   0.239   0.722   1.675  0.2165  0.6486 -0.8109
  620MOL0     O83624   0.298   0.800   1.771 -0.1259 -0.0114 -0.3240
  620MOL0     C83625   0.438   0.772   1.800  0.2588  0.3377  0.4905
  620MOL0     C83626   0.518   0.892   1.865 -0.4487  0.2079 -0.2917
  620MOL0     C83627   0.671   0.886   1.857  0.3006 -0.2242  0.2105
  620MOL0     C83628   0.722   1.012   1.806 -0.1022 -0.6921  0.1987
  620MOL0     C83629   0.868   1.022   1.810  0.1310 -0.0379  0.5261
  620MOL0     C83630   0.993   1.023   1.800 -0.1291  0.1579 -0.3144
  620MOL0     C83631   0.164   0.782   1.570  0.7361  0.1505 -1.2494
  620MOL0     C83632   0.110   0.707   1.467 -0.0458  0.2853  0.0706
  620MOL0     H83633  -0.129   0.276   1.328  2.7258 -2.1800  1.1023
  620MOL0     H83634  -0.253   0.174   1.126 -0.1684  0.0031 -1.0567
  620MOL0     H83635   0.015   0.134   0.765 -1.0439  0.5730 -0.6138
  620MOL0     H83636   0.016  -0.036   0.820 -0.2646 -0.0882  0.5017
  620MOL0     H83637  -0.195  -0.091   0.726 -0.0268 -0.9063 -2.0770
  620MOL0     H83638  -0.216   0.078   0.683  1.3028  0.9533 -0.8026
  620MOL0     H83639   0.002   0.066   0.550 -0.9834  0.2027  0.0134
  620MOL0     H83640   0.017  -0.105   0.567  3.0122  2.1626 -2.7363
  620MOL0     H83641  -0.220  -0.129   0.476  1.0205  0.1142  3.9473
  620MOL0     H83642  -0.223   0.032   0.423 -1.2923 -0.8111 -0.6097
  620MOL0     H83643   0.034  -0.021   0.328  0.0881  0.1133  1.4774
  620MOL0     H83644  -0.042  -0.179   0.336  2.5322 -0.2376 -2.1360
  620MOL0     H83645  -0.230  -0.069   0.183 -0.2929  0.3883  1.6050
  620MOL0     H83646  -0.146   0.086   0.192 -1.4017 -0.5607 -0.0036
  620MOL0     H83647  -0.013  -0.154   0.068  2.3196 -0.4450  1.0371
  620MOL0     H83648  -0.113  -0.040  -0.014  0.6379 -0.6547  0.6752
  620MOL0     H83649   0.156   0.024   0.124  3.2186 -0.9179 -4.1589
  620MOL0     H83650   0.068   0.138   0.029  0.9822  0.1975  2.4996
  620MOL0     H83651   0.078   0.113  -0.225  0.9255  0.4595  2.2230
  620MOL0     H83652   0.171  -0.148  -0.448 -1.1154  1.7796 -1.0729
  620MOL0     H83653   0.172   0.024  -0.461 -0.6604  0.1464  0.7027
  620MOL0     H83654   0.432   0.020  -0.414  2.0104  0.1238  0.6441
  620MOL0     H83655   0.385  -0.046  -0.570 -1.6304 -2.3818 -1.1538
  620MOL0     H83656   0.394  -0.285  -0.473  2.0668 -1.0988 -1.9591
  620MOL0     H83657   0.442  -0.233  -0.332 -2.2229  2.2845 -0.0324
  620MOL0     H83658   0.641  -0.275  -0.456 -1.4055 -1.1756  0.5790
  620MOL0     H83659   0.629  -0.103  -0.395 -0.7615 -0.8243  1.4601
  620MOL0     H83660   0.854  -0.152  -0.488 -5.4292 -0.8180 -1.7250
  620MOL0     H83661   1.060  -0.029  -0.415  1.6548  1.0555  0.5377
  620MOL0     H83662   1.145  -0.139  -0.530  0.0914  0.3036 -1.4377
  620MOL0     H83663   1.184   0.027  -0.541 -0.1979  0.3075  0.5704
  620MOL0     H83664   0.949   0.359  -1.062 -0.7490  3.9623  1.1466
  620MOL0     H83665   1.063   0.452  -1.226  2.5010 -1.5463 -1.2221
  620MOL0     H83666   1.472   0.619  -1.313 -1.3500 -0.3276 -0.2968
  620MOL0     H83667   1.496   0.526  -1.169 -0.3640  0.3827  0.7626
  620MOL0     H83668   1.394   0.419  -1.440  3.1122 -0.0599 -1.5992
  620MOL0     H83669   1.563   0.413  -1.381 -0.2656 -3.5686 -0.5118
  620MOL0     H83670   1.319   0.259  -1.274  0.0223  0.7968  1.1909
  620MOL0     H83671   1.464   0.287  -1.182  0.2127  2.7168 -0.9202
  620MOL0     H83672   1.496   0.212  -1.478 -1.9059  0.0862 -0.1340
  620MOL0     H83673   1.611   0.182  -1.355 -0.5759  0.4432  2.6933
  620MOL0     H83674   1.503  -0.030  -1.414  4.6526  1.4130  2.4901
  620MOL0     H83675   1.344   0.018  -1.378  2.5951 -3.4012 -5.0314
  620MOL0     H83676   1.570  -0.035  -1.178  1.3780 -3.8107 -3.1165
  620MOL0     H83677   1.427   0.042  -1.127  1.3449  2.0292 -2.2330
  620MOL0     H83678   1.483  -0.242  -1.179 -2.8216 -2.4656 -0.8719
  620MOL0     H83679   1.345  -0.190  -1.276  0.2945  4.2737 -0.8051
  620MOL0     H83680   1.345  -0.100  -0.980 -1.0487 -0.3059 -0.3485
  620MOL0     H83681   1.306  -0.265  -1.018 -2.1357 -0.6338 -1.0980
  620MOL0     H83682   1.406   0.514  -0.989 -1.1733  1.1068 -1.1108
  620MOL0     H83683   1.305   0.376  -0.804  1.9706  2.8778 -1.1463
  620MOL0     H83684   0.822   0.212  -0.816  0.0284 -1.0725 -2.4844
  620MOL0     H83685   0.617   0.079  -0.734 -1.3314 -3.0474  2.9547
  620MOL0     H83686   0.136   0.183   0.937 -0.0959 -3.8205 -0.1487
  620MOL0     H83687   0.228   0.283   1.134  0.2023 -0.6909  0.7967
  620MOL0     H83688   0.201   0.401   1.584  2.3555 -0.1567  1.4192
  620MOL0     H83689   0.307   0.534   1.757 -0.3663 -0.4885  0.3417
  620MOL0     H83690   0.445   0.681   1.861 -0.0837  0.3190  0.5057
  620MOL0     H83691   0.475   0.745   1.701 -4.0518 -1.2635 -0.8974
  620MOL0     H83692   0.484   0.911   1.966 -0.1209  0.5990 -0.2539
  620MOL0     H83693   0.488   0.982   1.811  0.8403  1.1692  0.5498
  620MOL0     H83694   0.687   0.799   1.793 -1.8000 -0.3490 -0.2267
  620MOL0     H83695   0.707   0.861   1.958  1.3258 -0.2543 -0.1500
  620MOL0     H83696   0.679   1.097   1.860  2.2875  1.5788 -1.2130
  620MOL0     H83697   0.673   1.028   1.709 -0.1770  0.0736  0.3556
  620MOL0     H83698   1.100   1.020   1.803 -0.0687 -0.7623  3.9382
  620MOL0     H83699   0.145   0.888   1.582 -1.3354 -0.3353  0.3254
  620MOL0     H83700   0.062   0.761   1.386 -3.3014 -1.4062  0.7168
  621MOL0     O83701   1.103  11.246   7.956 -0.6116  0.3718  0.6889
  621MOL0     C83702   1.178  11.205   7.861 -0.5979  0.3569  0.5991
  621MOL0     O83703   1.314  11.210   7.858  0.8381 -0.1066 -0.6307
  621MOL0     C83704   1.369  11.232   7.987  0.1419  0.6884  0.8044
  621MOL0     C83705   1.435  11.130   8.053 -0.5743  0.5014 -1.1788
  621MOL0     C83706   1.492  11.146   8.183 -0.1146 -0.8714 -0.2248
  621MOL0     C83707   1.481  11.275   8.242  0.3082  0.6353  0.1240
  621MOL0     O83708   1.535  11.308   8.361  0.5230 -0.2181 -0.7216
  621MOL0     C83709   1.532  11.215   8.468 -0.2525  0.5037  0.4866
  621MOL0     C83710   1.611  11.290   8.575 -0.2739  0.3844 -0.8014
  621MOL0     C83711   1.576  11.210   8.710  0.0276 -0.9111 -0.0518
  621MOL0     C83712   1.641  11.074   8.724 -0.0567  0.2268 -0.4365
  621MOL0     C83713   1.584  10.985   8.842  0.0053  0.6960 -0.2361
  621MOL0     C83714   1.683  10.867   8.878 -0.8540  0.5030 -0.1600
  621MOL0     C83715   1.617  10.753   8.951 -0.1064  0.0350  0.0926
  621MOL0     C83716   1.529  10.651   8.879 -0.9289  0.2676 -0.0326
  621MOL0     N83717   1.585  10.573   8.768  0.6090  0.1505  0.4514
  621MOL0     C83718   1.719  10.574   8.743  0.4846  0.4757 -0.1530
  621MOL0     C83719   1.729  10.475   8.653  0.0493 -0.3693  0.6837
  621MOL0     C83720   1.862  10.439   8.592 -0.8174 -0.4575  0.4040
  621MOL0     C83721   1.924  10.545   8.501  0.6861 -0.4335  0.3533
  621MOL0     C83722   2.072  10.529   8.470 -0.0315 -0.1123  0.9364
  621MOL0     C83723   2.106  10.628   8.364 -0.7925 -0.3845  0.1987
  621MOL0     O83724   2.233  10.599   8.297 -0.5444 -0.7773 -1.3600
  621MOL0     C83725   2.239  10.509   8.192 -0.0009 -0.1011 -0.3530
  621MOL0     C83726   2.360  10.487   8.132 -0.1790 -0.6863 -0.5361
  621MOL0     C83727   2.384  10.397   8.035 -0.5537 -0.2404  1.3438
  621MOL0     C83728   2.523  10.408   7.976  1.1627 -0.0831 -0.1897
  621MOL0     C83729   2.273  10.318   7.985  0.5033  0.9841 -0.1101
  621MOL0     C83730   2.281  10.214   7.869  0.3532 -0.2262 -0.8935
  621MOL0     O83731   2.409  10.193   7.822  0.5325  0.3973 -0.0697
  621MOL0     C83732   2.445  10.092   7.736  0.7602  0.2461 -0.6131
  621MOL0     C83733   2.410   9.948   7.747 -0.4164 -0.7685 -0.9204
  621MOL0     C83734   2.456   9.858   7.663  0.6654 -0.2568 -1.3283
  621MOL0     C83735   2.550   9.887   7.562 -0.2392 -0.2071 -0.1809
  621MOL0     O83736   2.597   9.790   7.480 -0.0688 -0.2925  0.3011
  621MOL0     C83737   2.514   9.666   7.463  0.3384 -0.2915  0.0521
  621MOL0     C83738   2.578   9.590   7.352  0.7114  0.8643 -0.1888
  621MOL0     C83739   2.557   9.651   7.219  0.0485  0.2522 -0.4334
  621MOL0     C83740   2.613   9.565   7.103  0.5682  0.2509  0.4684
  621MOL0     C83741   2.554   9.597   6.960 -0.5736 -1.7324  0.1901
  621MOL0     C83742   2.399   9.565   6.945  0.1315  0.3537  0.0057
  621MOL0     C83743   2.340   9.599   6.803  0.3057  0.2868 -0.0784
  621MOL0     C83744   2.190   9.573   6.786  0.6283  0.0122  1.7314
  621MOL0    Cl83745   2.117   9.685   6.673  0.4813 -0.3199 -0.3964
  621MOL0     C83746   2.583  10.024   7.545  0.3491 -0.1093  0.1678
  621MOL0     C83747   2.531  10.123   7.629 -0.3602  0.2371  0.5161
  621MOL0     O83748   2.177  10.176   7.812 -0.7399  0.5500 -1.0910
  621MOL0     C83749   2.148  10.337   8.049  0.2021 -1.1568 -0.7192
  621MOL0     C83750   2.134  10.431   8.151 -1.3280  0.1200 -0.0100
  621MOL0     N83751   1.603  10.421   8.623 -0.2032 -1.0031 -0.4631
  621MOL0     N83752   1.519  10.471   8.704 -0.0422  0.4206  0.0571
  621MOL0     C83753   1.419  11.376   8.170  0.9071 -0.5163  1.6795
  621MOL0     C83754   1.366  11.356   8.045  0.1727 -0.0598  0.6882
  621MOL0     C83755   1.116  11.157   7.741 -0.4123  0.3774  0.3189
  621MOL0     C83756   1.200  11.134   7.626 -0.3644 -0.3093  0.7608
  621MOL0     C83757   1.144  11.090   7.503  0.0857 -1.1436  0.4893
  621MOL0     C83758   1.005  11.082   7.496  0.0502  0.0886 -0.1607
  621MOL0     O83759   0.973  11.052   7.367  0.5278 -0.1859 -0.0243
  621MOL0     C83760   0.844  11.091   7.320  1.4956 -0.3033 -0.3839
  621MOL0     C83761   0.817  11.044   7.171 -0.1047  0.7925 -0.2354
  621MOL0     C83762   0.664  11.045   7.140  0.8727 -0.1927  1.0742
  621MOL0     C83763   0.631  10.988   7.003  0.2125 -0.1579  0.5132
  621MOL0     C83764   0.487  11.009   6.984  0.9365  0.1931 -0.4843
  621MOL0     C83765   0.365  11.022   6.971 -0.4551  0.3332 -1.4923
  621MOL0     C83766   0.914  11.112   7.610  0.0499  0.3257  0.0225
  621MOL0     C83767   0.980  11.142   7.735  0.5190 -0.5131  0.5316
  621MOL0     H83768   1.454  11.033   8.008 -0.7773 -1.9278  3.4262
  621MOL0     H83769   1.537  11.053   8.217 -0.7257 -1.6733 -1.5544
  621MOL0     H83770   1.426  11.205   8.495  0.3045 -0.4465  2.4501
  621MOL0     H83771   1.579  11.119   8.447 -0.9924 -0.9997  4.7294
  621MOL0     H83772   1.720  11.276   8.573 -0.2923 -0.2217  0.7845
  621MOL0     H83773   1.593  11.398   8.578 -0.0152  0.4163  1.4216
  621MOL0     H83774   1.595  11.266   8.802  1.3804  1.6249 -1.7586
  621MOL0     H83775   1.466  11.206   8.708 -0.0261  0.2662 -0.2514
  621MOL0     H83776   1.635  11.014   8.633 -0.0976 -1.4189  0.5978
  621MOL0     H83777   1.749  11.081   8.743  0.0020 -2.3258  0.6236
  621MOL0     H83778   1.561  11.050   8.927 -0.2562  0.3313 -0.0220
  621MOL0     H83779   1.491  10.937   8.809 -0.7007  1.9341 -0.1189
  621MOL0     H83780   1.730  10.827   8.788 -0.5172 -0.0819  0.2715
  621MOL0     H83781   1.760  10.918   8.937 -0.1716  1.5020 -1.8315
  621MOL0     H83782   1.688  10.688   9.002 -1.7496 -2.2697 -0.3880
  621MOL0     H83783   1.566  10.802   9.034 -2.5521 -1.3990 -0.4632
  621MOL0     H83784   1.445  10.704   8.832  2.0535  0.8979 -5.5981
  621MOL0     H83785   1.494  10.585   8.958 -2.6088 -0.4247 -1.2859
  621MOL0     H83786   1.800  10.629   8.788  0.9813  0.2722 -0.7847
  621MOL0     H83787   1.927  10.402   8.672  1.9492  2.9971  0.0298
  621MOL0     H83788   1.839  10.358   8.522 -2.2595 -1.1042  1.5863
  621MOL0     H83789   1.909  10.646   8.539  0.4957 -0.8651  1.4466
  621MOL0     H83790   1.857  10.538   8.415 -2.6748  3.9416  2.2211
  621MOL0     H83791   2.082  10.428   8.431 -0.3027 -0.0465  0.6955
  621MOL0     H83792   2.135  10.541   8.559 -0.2220 -1.6637  1.3004
  621MOL0     H83793   2.104  10.733   8.393  2.7647 -0.3919  0.9218
  621MOL0     H83794   2.030  10.626   8.286 -0.0600  2.7547 -0.7192
  621MOL0     H83795   2.442  10.551   8.163 -0.7730 -0.1553 -0.0239
  621MOL0     H83796   2.589  10.449   8.054 -2.1407  2.4224  1.5857
  621MOL0     H83797   2.562  10.313   7.939 -0.0244 -0.5512 -0.2918
  621MOL0     H83798   2.517  10.480   7.895  2.3490  0.5945  0.2928
  621MOL0     H83799   2.348   9.911   7.829 -0.1944 -0.3352 -0.5540
  621MOL0     H83800   2.427   9.756   7.685  0.9774  0.1525  1.1913
  621MOL0     H83801   2.495   9.604   7.551 -3.0088 -0.1297 -0.4183
  621MOL0     H83802   2.416   9.710   7.441 -0.2674 -1.1598  0.9230
  621MOL0     H83803   2.684   9.579   7.372  0.5749  0.1285  0.1583
  621MOL0     H83804   2.529   9.493   7.341 -0.6269  1.6584 -1.7115
  621MOL0     H83805   2.601   9.750   7.212 -0.3920  0.4558 -0.4036
  621MOL0     H83806   2.451   9.678   7.218  0.7756  3.5314  0.5402
  621MOL0     H83807   2.721   9.584   7.102  0.8664 -1.2787 -0.0048
  621MOL0     H83808   2.594   9.459   7.126  0.4023  0.5286  1.6683
  621MOL0     H83809   2.621   9.550   6.888  0.6563 -0.0614  0.2117
  621MOL0     H83810   2.552   9.704   6.939  0.1196 -1.6906  0.3446
  621MOL0     H83811   2.400   9.457   6.959  0.6929  0.4685  0.9323
  621MOL0     H83812   2.341   9.610   7.026 -1.7848 -1.1734 -0.4616
  621MOL0     H83813   2.407   9.553   6.729  0.3053  3.1736 -2.0052
  621MOL0     H83814   2.358   9.705   6.783  0.1916  0.2349 -0.4699
  621MOL0     H83815   2.132   9.567   6.878  1.6352 -1.4778  2.3257
  621MOL0     H83816   2.194   9.473   6.742  1.3379  0.2413  1.2514
  621MOL0     H83817   2.656  10.040   7.467  0.3902 -2.1793 -0.2627
  621MOL0     H83818   2.570  10.225   7.626 -0.7442  0.4413  1.8150
  621MOL0     H83819   2.058  10.286   8.015 -2.8323  3.0242  0.2514
  621MOL0     H83820   2.035  10.443   8.194 -0.6380 -0.0859  1.7263
  621MOL0     H83821   1.398  11.475   8.209  1.8147  1.0490 -1.5015
  621MOL0     H83822   1.324  11.446   8.002  1.4179 -0.3066 -1.1637
  621MOL0     H83823   1.308  11.143   7.627 -0.4750  1.2924  0.2962
  621MOL0     H83824   1.209  11.060   7.421  1.4140  0.0056  1.0632
  621MOL0     H83825   0.770  11.056   7.393  0.6103  0.0842 -1.0731
  621MOL0     H83826   0.844  11.200   7.311  1.3984 -0.2026  0.6720
  621MOL0     H83827   0.850  10.941   7.159  0.2622  0.7162  1.2552
  621MOL0     H83828   0.879  11.097   7.098  1.7943 -1.2320 -0.1885
  621MOL0     H83829   0.623  11.146   7.145  2.4912  0.4761  1.6388
  621MOL0     H83830   0.610  10.986   7.214 -5.2286 -1.3898 -3.5811
  621MOL0     H83831   0.655  10.882   6.992 -1.8978 -0.9808  2.8644
  621MOL0     H83832   0.702  11.033   6.933 -0.3113 -0.8759 -0.5065
  621MOL0     H83833   0.260  11.040   6.955 -1.2467 -2.6553 -0.3384
  621MOL0     H83834   0.806  11.101   7.606  0.2154 -1.2150 -0.9812
  621MOL0     H83835   0.908  11.161   7.814 -0.1206  3.4546 -0.7649
  622MOL0     O83836   8.796   7.030   6.061  0.5399 -0.0867  0.6121
  622MOL0     C83837   8.831   7.005   5.946 -0.4521  0.4986  0.3631
  622MOL0     O83838   8.951   7.039   5.888 -0.0958 -0.6645  0.0920
  622MOL0     C83839   9.057   7.088   5.970  0.5658  0.9761  0.5307
  622MOL0     C83840   9.128   7.192   5.915 -0.0096 -0.3166  0.2462
  622MOL0     C83841   9.229   7.258   5.977 -0.0535 -0.2995 -0.0212
  622MOL0     C83842   9.269   7.212   6.091 -0.1668  0.2035 -0.0212
  622MOL0     O83843   9.366   7.272   6.165  0.2356 -0.7209 -0.0758
  622MOL0     C83844   9.343   7.413   6.211 -0.5050 -0.3125 -0.0516
  622MOL0     C83845   9.456   7.473   6.299  0.3305  0.3069  0.0305
  622MOL0     C83846   9.434   7.626   6.336 -0.8738 -0.2004  0.0030
  622MOL0     C83847   9.566   7.682   6.389  0.0887 -0.0128  0.2902
  622MOL0     C83848   9.667   7.694   6.278 -0.1181  0.3452  0.3593
  622MOL0     C83849   9.791   7.784   6.324  0.2932  0.7297  0.2668
  622MOL0     C83850   9.894   7.801   6.213  0.9541 -1.4822 -0.1862
  622MOL0     C83851   9.940   7.679   6.149 -0.1955 -0.1242 -0.7088
  622MOL0     N83852  10.066   7.704   6.073  0.1765 -1.1558 -0.8626
  622MOL0     C83853  10.092   7.824   6.003 -0.0117  0.2563  1.2140
  622MOL0     C83854  10.223   7.810   5.967  0.4752 -1.3515 -0.2440
  622MOL0     C83855  10.311   7.902   5.887  0.0530 -0.0157  0.9957
  622MOL0     C83856  10.353   7.824   5.759 -0.5125  0.6804 -0.7136
  622MOL0     C83857  10.509   7.846   5.728 -0.0068 -0.5095  0.2109
  622MOL0     C83858  10.567   7.732   5.638 -0.0505  0.6976 -0.2836
  622MOL0     O83859  10.709   7.754   5.621  0.2805 -0.6218 -0.2213
  622MOL0     C83860  10.786   7.657   5.565 -0.2546 -0.5197  0.1830
  622MOL0     C83861  10.760   7.522   5.579  0.0529 -0.4664 -0.0733
  622MOL0     C83862  10.840   7.416   5.528  0.3228  0.1610  0.9485
  622MOL0     C83863  10.792   7.272   5.552 -0.6608 -0.6339  0.7460
  622MOL0     C83864  10.955   7.443   5.446 -0.1456  0.4802 -1.0777
  622MOL0     C83865  11.039   7.346   5.375  0.1155  0.5302 -1.2521
  622MOL0     O83866  11.038   7.333   5.238  0.3338 -0.2438  0.2287
  622MOL0     C83867  11.138   7.282   5.158 -0.8219  0.6671  0.0601
  622MOL0     C83868  11.278   7.272   5.195 -0.3171 -0.1058 -0.2254
  622MOL0     C83869  11.374   7.213   5.106 -0.3085 -0.6344 -0.7483
  622MOL0     C83870  11.334   7.151   4.992 -0.0297  0.6200  0.2713
  622MOL0     O83871  11.431   7.093   4.907  0.6003 -0.5630  0.0096
  622MOL0     C83872  11.387   7.003   4.802  0.0140  0.4422 -0.2065
  622MOL0     C83873  11.497   6.917   4.768 -1.2988 -0.3143  0.1335
  622MOL0     C83874  11.577   6.983   4.651 -0.2359 -0.0480 -0.3985
  622MOL0     C83875  11.636   7.118   4.683  0.2264  0.1891  0.2622
  622MOL0     C83876  11.712   7.172   4.563  0.3073 -0.7577 -0.0188
  622MOL0     C83877  11.778   7.302   4.616 -0.6505 -0.3308  1.1947
  622MOL0     C83878  11.813   7.403   4.501  0.6343  0.4637 -0.2728
  622MOL0     C83879  11.915   7.515   4.533  0.0529 -0.3096 -0.1976
  622MOL0    Cl83880  11.943   7.604   4.373  0.0575  0.0366 -0.2735
  622MOL0     C83881  11.198   7.155   4.959  0.0066 -0.6731 -0.3651
  622MOL0     C83882  11.111   7.215   5.041  0.3064  0.1745  0.2683
  622MOL0     O83883  11.110   7.281   5.454  0.2940  0.3233 -0.1406
  622MOL0     C83884  10.985   7.584   5.437  0.6545 -0.0100  0.0536
  622MOL0     C83885  10.900   7.682   5.492 -0.4411  1.0004 -0.2263
  622MOL0     N83886  10.267   7.683   5.995 -0.1061  0.6862 -0.0673
  622MOL0     N83887  10.172   7.618   6.056  1.3725 -0.7248  0.0560
  622MOL0     C83888   9.199   7.112   6.158 -0.3743  0.0679  1.1216
  622MOL0     C83889   9.089   7.054   6.103  0.7355 -0.7388 -0.1636
  622MOL0     C83890   8.725   6.942   5.853  0.2894 -0.6622 -0.4142
  622MOL0     C83891   8.754   6.897   5.723 -0.0307  0.0295 -0.6812
  622MOL0     C83892   8.653   6.858   5.638 -0.7783  0.6204  0.4469
  622MOL0     C83893   8.525   6.855   5.680 -0.1982  0.5223  0.6081
  622MOL0     O83894   8.440   6.801   5.592 -0.8973 -0.4676 -0.0778
  622MOL0     C83895   8.299   6.788   5.620  0.1567 -1.4271 -0.2585
  622MOL0     C83896   8.214   6.752   5.496  0.2583  0.1023 -0.1453
  622MOL0     C83897   8.072   6.711   5.541  0.5028  1.2835 -0.1781
  622MOL0     C83898   7.969   6.818   5.512 -0.0948  0.5476  0.6856
  622MOL0     C83899   7.999   6.931   5.603 -0.2358 -0.2516 -1.1234
  622MOL0     C83900   8.017   7.004   5.697  0.8668 -0.5658 -1.5332
  622MOL0     C83901   8.492   6.896   5.807 -0.0594  0.2066  0.0104
  622MOL0     C83902   8.594   6.935   5.890 -0.1838 -0.8795  0.5076
  622MOL0     H83903   9.094   7.232   5.820  1.4747  1.0449  0.2420
  622MOL0     H83904   9.286   7.335   5.927 -1.7084  1.9065  1.3399
  622MOL0     H83905   9.338   7.479   6.124  1.3273 -0.6399 -0.4559
  622MOL0     H83906   9.248   7.432   6.260 -0.7879 -0.1899 -0.6386
  622MOL0     H83907   9.453   7.422   6.396 -3.4197 -3.8942 -1.9380
  622MOL0     H83908   9.554   7.444   6.258  0.9444  1.5061  0.5919
  622MOL0     H83909   9.403   7.687   6.251 -2.3118  1.7832  1.8559
  622MOL0     H83910   9.355   7.638   6.410 -0.5120  1.3983  0.1479
  622MOL0     H83911   9.548   7.775   6.443  0.5329  1.7398 -2.3826
  622MOL0     H83912   9.610   7.614   6.463  0.9086 -0.5733 -0.6850
  622MOL0     H83913   9.707   7.596   6.250  1.9373  1.0620  0.6224
  622MOL0     H83914   9.622   7.750   6.196  0.0533 -0.7581 -0.5002
  622MOL0     H83915   9.756   7.881   6.361  0.3924  1.0628 -0.4880
  622MOL0     H83916   9.837   7.747   6.416 -1.0789  2.3672  1.6844
  622MOL0     H83917   9.855   7.864   6.132  2.2356 -0.8058 -0.3111
  622MOL0     H83918   9.984   7.850   6.253 -2.2491  4.0652  1.2787
  622MOL0     H83919   9.871   7.638   6.075  1.3893 -2.3906 -1.0375
  622MOL0     H83920   9.961   7.595   6.216 -0.3243 -0.5803 -1.2358
  622MOL0     H83921  10.024   7.904   5.979  1.2307  0.9220 -0.2424
  622MOL0     H83922  10.255   7.992   5.864  0.4502  0.3772  1.5620
  622MOL0     H83923  10.391   7.921   5.959 -0.1382  1.4563  0.8407
  622MOL0     H83924  10.294   7.859   5.674  0.4765  3.0578 -0.4764
  622MOL0     H83925  10.334   7.716   5.765 -1.3637  0.7345 -2.1008
  622MOL0     H83926  10.564   7.852   5.823  0.5151  0.4011 -0.1375
  622MOL0     H83927  10.507   7.946   5.684  2.6816 -0.8104 -0.7586
  622MOL0     H83928  10.519   7.722   5.540 -1.4730  2.1656  0.2336
  622MOL0     H83929  10.557   7.643   5.700  0.3589  0.8795  0.0451
  622MOL0     H83930  10.678   7.484   5.639 -0.0590 -1.8189 -1.0412
  622MOL0     H83931  10.761   7.281   5.657 -1.3366  0.3130  0.4767
  622MOL0     H83932  10.703   7.258   5.491  0.3205 -3.9119 -0.1120
  622MOL0     H83933  10.873   7.199   5.550  0.6587  0.7782  0.1786
  622MOL0     H83934  11.304   7.331   5.283 -1.2700  1.0553 -0.6844
  622MOL0     H83935  11.482   7.211   5.112 -0.1917  1.0327 -1.5000
  622MOL0     H83936  11.317   6.938   4.854  1.5586  0.6515  2.2718
  622MOL0     H83937  11.352   7.054   4.712 -0.5371 -0.7704 -0.6958
  622MOL0     H83938  11.561   6.915   4.856 -1.5835  3.1366  0.5613
  622MOL0     H83939  11.457   6.823   4.727 -0.8524 -0.3889 -0.1368
  622MOL0     H83940  11.505   6.995   4.569 -1.9629  3.0195  1.3644
  622MOL0     H83941  11.654   6.917   4.610 -2.0139 -1.1716 -2.1241
  622MOL0     H83942  11.555   7.181   4.721 -1.5089 -0.2346 -2.4705
  622MOL0     H83943  11.713   7.109   4.760 -1.1871 -1.1826  1.5900
  622MOL0     H83944  11.635   7.185   4.487  0.3652 -0.7983 -0.0854
  622MOL0     H83945  11.791   7.102   4.532  1.9118  1.0623 -0.2708
  622MOL0     H83946  11.712   7.348   4.690 -0.5620  1.4450  0.2160
  622MOL0     H83947  11.877   7.278   4.657  0.6806  2.3201 -0.2173
  622MOL0     H83948  11.719   7.456   4.483  2.0038  3.1349 -0.1437
  622MOL0     H83949  11.843   7.352   4.409  1.1549 -0.9202  0.6362
  622MOL0     H83950  12.010   7.473   4.566 -0.4020 -0.1972  1.3657
  622MOL0     H83951  11.870   7.584   4.606 -1.0838 -3.3635  2.2057
  622MOL0     H83952  11.155   7.106   4.872 -0.1275  0.3048 -0.8592
  622MOL0     H83953  11.008   7.223   5.008  0.8145 -3.1395 -2.6890
  622MOL0     H83954  11.071   7.617   5.380  0.7849  0.2279  0.3837
  622MOL0     H83955  10.928   7.787   5.489  0.0410  0.9379  1.1228
  622MOL0     H83956   9.225   7.093   6.262 -0.5730  2.9998  1.8019
  622MOL0     H83957   9.016   6.991   6.153 -0.3237 -0.7283 -1.6340
  622MOL0     H83958   8.857   6.892   5.688 -0.6007 -1.8209 -2.3220
  622MOL0     H83959   8.689   6.811   5.547 -2.7709 -1.4763  0.6183
  622MOL0     H83960   8.310   6.705   5.691  2.1587 -0.2023  0.9639
  622MOL0     H83961   8.260   6.881   5.662  2.7349 -0.7971  0.9364
  622MOL0     H83962   8.258   6.664   5.448  0.9192  0.4482 -0.2002
  622MOL0     H83963   8.226   6.830   5.420  3.8256  2.0556  2.1180
  622MOL0     H83964   8.064   6.676   5.644 -0.8171 -2.0395 -1.2596
  622MOL0     H83965   8.043   6.620   5.487 -2.6463  1.7024  0.6274
  622MOL0     H83966   7.870   6.775   5.531 -0.1972  0.8541  0.8503
  622MOL0     H83967   7.985   6.838   5.406 -1.3862 -2.1530 -0.0968
  622MOL0     H83968   8.019   7.066   5.784 -4.3691  0.0256 -1.4909
  622MOL0     H83969   8.396   6.877   5.855  0.4335  2.3661  2.0032
  622MOL0     H83970   8.559   6.972   5.986 -0.2732  3.3328 -0.9358
  623MOL0     O83971   1.192   5.685   4.802  0.2867  0.0213  0.7805
  623MOL0     C83972   1.186   5.807   4.806  0.4563 -0.8561  0.1778
  623MOL0     O83973   1.290   5.892   4.820 -0.5924 -0.0597 -0.4633
  623MOL0     C83974   1.419   5.844   4.828  0.2937 -0.6004 -0.4166
  623MOL0     C83975   1.513   5.859   4.725  0.3630  0.4048 -0.2067
  623MOL0     C83976   1.628   5.786   4.727 -1.1200  0.0274  0.6140
  623MOL0     C83977   1.675   5.721   4.850  0.0093  0.6958 -0.0969
  623MOL0     O83978   1.801   5.660   4.859  0.5475  0.2298  0.2934
  623MOL0     C83979   1.911   5.698   4.773  0.5055 -0.2443  0.7777
  623MOL0     C83980   2.037   5.647   4.839 -0.1432 -0.4737 -0.7030
  623MOL0     C83981   2.063   5.721   4.968  0.2433  0.1662  0.1801
  623MOL0     C83982   2.198   5.677   5.027  0.0250 -0.0921 -0.7538
  623MOL0     C83983   2.195   5.716   5.182 -0.9573 -0.5700 -0.7270
  623MOL0     C83984   2.305   5.628   5.256 -0.2338  0.3660 -0.8840
  623MOL0     C83985   2.301   5.673   5.405 -0.0674 -0.1240  1.2262
  623MOL0     C83986   2.409   5.769   5.447 -0.5050  0.3615  0.0303
  623MOL0     N83987   2.383   5.830   5.580 -0.0931 -0.2218 -0.9481
  623MOL0     C83988   2.344   5.957   5.596 -0.9085 -0.3079 -0.3002
  623MOL0     C83989   2.363   5.990   5.732  0.1589  0.6407  0.6848
  623MOL0     C83990   2.345   6.116   5.806 -0.1200 -0.2349 -0.0344
  623MOL0     C83991   2.431   6.136   5.926 -0.6134  0.7959 -0.6310
  623MOL0     C83992   2.578   6.171   5.900 -0.3668 -0.6793 -0.4877
  623MOL0     C83993   2.676   6.152   6.018 -0.1562 -0.0343 -0.8291
  623MOL0     O83994   2.791   6.243   6.001 -0.2194  1.1973 -0.5470
  623MOL0     C83995   2.860   6.282   6.116 -0.3089  0.3682  0.0210
  623MOL0     C83996   2.966   6.370   6.092  1.0358 -0.2421 -0.6148
  623MOL0     C83997   3.061   6.385   6.190 -0.5984  0.3972 -0.4815
  623MOL0     C83998   3.181   6.456   6.140  0.1705  0.0767  0.4676
  623MOL0     C83999   3.053   6.353   6.328 -0.2228  0.0519  0.1823
  623MOL0     C84000   3.155   6.389   6.428  0.5256 -0.3135  0.6577
  623MOL0     O84001   3.229   6.504   6.421 -0.1782 -0.0831 -0.3441
  623MOL0     C84002   3.289   6.556   6.535  0.5691 -0.3361  0.2203
  623MOL0     C84003   3.385   6.662   6.514 -0.1671  0.5294 -0.1285
  623MOL0     C84004   3.456   6.727   6.615 -0.3899 -0.2193  0.5235
  623MOL0     C84005   3.431   6.691   6.749 -0.0139  0.0563  0.4220
  623MOL0     O84006   3.480   6.761   6.855  0.5483  0.2877  0.6113
  623MOL0     C84007   3.623   6.795   6.836  0.7408 -0.4378 -0.1635
  623MOL0     C84008   3.692   6.836   6.968  0.4029  0.0311  0.2786
  623MOL0     C84009   3.820   6.761   6.991  0.1042 -0.2586 -0.9939
  623MOL0     C84010   3.904   6.831   7.100  0.4941  0.0581  0.6671
  623MOL0     C84011   4.034   6.754   7.122  0.6787  0.6385  0.4292
  623MOL0     C84012   4.110   6.829   7.238 -0.0425  0.0868  0.3508
  623MOL0     C84013   4.044   6.793   7.374 -0.7035 -0.7688  0.5142
  623MOL0     C84014   4.124   6.868   7.478  0.7903 -1.0602 -0.1817
  623MOL0    Cl84015   4.299   6.824   7.479 -0.7711  0.1411 -0.1405
  623MOL0     C84016   3.322   6.600   6.773 -0.4696  0.5067  0.6715
  623MOL0     C84017   3.260   6.534   6.673  0.3667  0.3713 -0.4612
  623MOL0     O84018   3.156   6.308   6.519  0.0083 -0.3084 -0.1081
  623MOL0     C84019   2.933   6.278   6.354  0.4612 -0.6127  0.1300
  623MOL0     C84020   2.841   6.239   6.253 -0.6690  0.0545 -0.0179
  623MOL0     N84021   2.403   5.865   5.788  0.7202  0.7393  0.0154
  623MOL0     N84022   2.406   5.771   5.699 -0.1697  0.1355  0.3725
  623MOL0     C84023   1.582   5.713   4.955 -0.3337 -0.5008 -0.1686
  623MOL0     C84024   1.453   5.782   4.947 -0.2846  0.5032  0.7030
  623MOL0     C84025   1.051   5.880   4.789 -0.3030  1.4188 -0.4435
  623MOL0     C84026   0.936   5.800   4.785 -0.1483 -0.1169  0.0143
  623MOL0     C84027   0.812   5.866   4.774 -0.2464 -1.0073  0.7300
  623MOL0     C84028   0.809   6.013   4.780 -0.3151  1.1329  0.8338
  623MOL0     O84029   0.682   6.067   4.775 -0.3748  0.4039  0.4197
  623MOL0     C84030   0.645   6.147   4.893 -0.0718  0.7686  0.3271
  623MOL0     C84031   0.495   6.173   4.884  0.8285  0.0899 -0.4503
  623MOL0     C84032   0.469   6.273   4.766 -0.3380  0.2088  0.3948
  623MOL0     C84033   0.327   6.312   4.744 -0.4509 -0.1350 -0.0580
  623MOL0     C84034   0.295   6.422   4.655  0.6780 -0.5756 -1.0328
  623MOL0     C84035   0.249   6.510   4.589 -0.5624  0.4298 -0.2852
  623MOL0     C84036   0.923   6.084   4.800  0.0848  0.6847  0.8381
  623MOL0     C84037   1.039   6.009   4.818 -0.5076 -1.1787 -0.8659
  623MOL0     H84038   1.486   5.932   4.650  1.5046 -0.2615 -1.2939
  623MOL0     H84039   1.693   5.780   4.641  0.7302 -1.8619  2.0303
  623MOL0     H84040   1.899   5.645   4.678  4.3052 -3.3098  1.7281
  623MOL0     H84041   1.923   5.806   4.765  2.3339 -0.4830 -0.4987
  623MOL0     H84042   2.012   5.544   4.862  0.5640 -0.8914 -1.7156
  623MOL0     H84043   2.126   5.636   4.776  1.6651 -1.7328  1.8541
  623MOL0     H84044   2.067   5.830   4.968  4.1797  0.2450  3.1031
  623MOL0     H84045   1.984   5.693   5.039  0.6134 -0.0698  0.5037
  623MOL0     H84046   2.199   5.568   5.031 -1.4243 -0.0915  1.1398
  623MOL0     H84047   2.281   5.721   4.970 -0.2782  0.2353 -0.9471
  623MOL0     H84048   2.215   5.822   5.201  0.1396 -1.1675  1.7722
  623MOL0     H84049   2.095   5.689   5.217 -1.5367  0.3100 -1.6309
  623MOL0     H84050   2.276   5.523   5.262 -0.4465  0.5010  2.2725
  623MOL0     H84051   2.409   5.636   5.224  0.5585 -1.3022  1.0365
  623MOL0     H84052   2.206   5.723   5.427  0.0999  1.0978 -0.6004
  623MOL0     H84053   2.307   5.589   5.474 -2.7376 -0.0712  1.6565
  623MOL0     H84054   2.429   5.830   5.358  2.1620 -1.4404 -0.7340
  623MOL0     H84055   2.508   5.723   5.458  1.0985  3.7571  1.3744
  623MOL0     H84056   2.317   6.035   5.526 -1.2493  3.0293  3.1992
  623MOL0     H84057   2.352   6.203   5.740 -1.3625  0.0167  0.1374
  623MOL0     H84058   2.241   6.099   5.836 -0.1623 -1.5532 -0.8481
  623MOL0     H84059   2.423   6.046   5.988 -1.2177  1.0363 -0.3526
  623MOL0     H84060   2.395   6.223   5.981  1.0409  1.2310 -0.1990
  623MOL0     H84061   2.581   6.275   5.865  0.5339 -1.5630 -3.3669
  623MOL0     H84062   2.614   6.111   5.815  2.1620 -0.3797  0.2745
  623MOL0     H84063   2.707   6.047   6.025 -1.2579 -0.3012  0.4721
  623MOL0     H84064   2.620   6.162   6.112 -0.5078  2.5891 -1.2323
  623MOL0     H84065   2.975   6.394   5.986  0.2077 -0.3916 -0.7252
  623MOL0     H84066   3.273   6.401   6.163 -0.1783  0.2763  2.5141
  623MOL0     H84067   3.173   6.472   6.032 -2.3695  1.7837  0.8152
  623MOL0     H84068   3.191   6.560   6.174 -0.0147  0.0284  0.6761
  623MOL0     H84069   3.405   6.692   6.412 -0.6442 -2.3233 -1.1594
  623MOL0     H84070   3.537   6.791   6.579  2.4145 -1.9031  3.3217
  623MOL0     H84071   3.682   6.717   6.788 -0.4643 -1.4022 -0.1404
  623MOL0     H84072   3.624   6.876   6.762 -0.6301 -0.2986 -0.0655
  623MOL0     H84073   3.701   6.945   6.967  0.3770  0.0614 -1.6514
  623MOL0     H84074   3.625   6.817   7.052 -0.7247 -1.2231 -0.8379
  623MOL0     H84075   3.877   6.757   6.898  0.1284 -0.4385 -0.9720
  623MOL0     H84076   3.794   6.660   7.023 -0.6104 -0.0310 -0.8259
  623MOL0     H84077   3.930   6.930   7.063 -2.0758 -0.3290 -2.5662
  623MOL0     H84078   3.845   6.831   7.192 -0.4100 -0.1730  0.0988
  623MOL0     H84079   4.086   6.761   7.026 -1.0576  0.5934 -0.5544
  623MOL0     H84080   4.015   6.647   7.140  0.8373  0.3674 -0.9290
  623MOL0     H84081   4.213   6.792   7.247 -0.6810 -2.0353 -0.5841
  623MOL0     H84082   4.116   6.937   7.222  0.8383  0.2258  1.4631
  623MOL0     H84083   4.060   6.688   7.400  1.9917 -0.1554  1.7090
  623MOL0     H84084   3.939   6.825   7.374 -0.2669  0.7651  0.9462
  623MOL0     H84085   4.084   6.838   7.576  0.9648 -0.4799  0.0679
  623MOL0     H84086   4.112   6.974   7.455  1.9205 -0.9090 -0.1333
  623MOL0     H84087   3.283   6.587   6.874 -0.5195  1.2853  0.7560
  623MOL0     H84088   3.178   6.470   6.704  0.1949  0.0358 -1.5520
  623MOL0     H84089   2.912   6.248   6.456 -0.1831 -0.1903  0.1255
  623MOL0     H84090   2.770   6.159   6.270 -2.9611  2.0296  0.2819
  623MOL0     H84091   1.603   5.651   5.042  2.3396 -2.0348 -1.7518
  623MOL0     H84092   1.380   5.781   5.027  0.0906  1.7111  1.0857
  623MOL0     H84093   0.940   5.692   4.776 -2.3651 -0.1286 -1.5139
  623MOL0     H84094   0.717   5.813   4.765 -2.8589  3.4928 -2.3376
  623MOL0     H84095   0.670   6.089   4.982  0.7447 -0.1108 -0.4492
  623MOL0     H84096   0.714   6.231   4.901  2.3983 -0.9079 -1.5956
  623MOL0     H84097   0.462   6.214   4.979  0.6925 -2.8762  0.8994
  623MOL0     H84098   0.438   6.080   4.875 -1.3148  0.7089  3.9707
  623MOL0     H84099   0.501   6.233   4.669 -0.2244 -1.1507  0.9770
  623MOL0     H84100   0.513   6.372   4.778 -2.1496  0.9671  1.0998
  623MOL0     H84101   0.289   6.322   4.846  1.6261  1.2513  0.6399
  623MOL0     H84102   0.277   6.231   4.689  2.5497 -1.9447 -0.3419
  623MOL0     H84103   0.217   6.599   4.538 -2.7220  0.8093  1.5672
  623MOL0     H84104   0.924   6.191   4.811  2.4719  0.8134  0.1153
  623MOL0     H84105   1.122   6.066   4.858 -3.0223  2.9062 -0.8796
  624MOL0     O84106   4.240   9.175   9.447 -0.8087  0.2926  0.3971
  624MOL0     C84107   4.197   9.276   9.386  0.7613  0.3783 -0.3577
  624MOL0     O84108   4.184   9.277   9.248 -0.4411  0.2154 -0.0018
  624MOL0     C84109   4.221   9.168   9.165  0.2179  0.3010 -0.0756
  624MOL0     C84110   4.149   9.137   9.042  0.8267  0.1172  0.1952
  624MOL0     C84111   4.187   9.040   8.950 -0.7439 -1.3215 -0.1643
  624MOL0     C84112   4.310   8.973   8.975 -0.2038  0.0191  0.6852
  624MOL0     O84113   4.356   8.868   8.900 -0.2212  0.8188  1.0626
  624MOL0     C84114   4.291   8.742   8.930 -0.5632 -0.3777 -0.1193
  624MOL0     C84115   4.355   8.620   8.869 -0.1542  0.8697  0.0672
  624MOL0     C84116   4.316   8.486   8.937 -0.1196 -0.3531 -0.2526
  624MOL0     C84117   4.441   8.390   8.956  0.1930  0.9529  0.0082
  624MOL0     C84118   4.407   8.277   9.043 -0.0391 -0.3557  0.9426
  624MOL0     C84119   4.534   8.239   9.123 -0.7623 -0.0085 -0.3353
  624MOL0     C84120   4.501   8.139   9.230  1.1751 -0.1093 -0.1540
  624MOL0     C84121   4.617   8.058   9.300 -0.5923 -0.1320  1.0510
  624MOL0     N84122   4.729   8.147   9.337  1.1888 -0.4694 -0.2452
  624MOL0     C84123   4.705   8.244   9.423  0.0313 -0.8977  0.4959
  624MOL0     C84124   4.811   8.330   9.419 -1.3716  0.0732 -0.5305
  624MOL0     C84125   4.839   8.447   9.505 -0.2622  1.2481  0.4078
  624MOL0     C84126   4.923   8.417   9.631 -0.4803  0.4085  0.1738
  624MOL0     C84127   4.847   8.337   9.736  0.3392  0.5325 -0.4509
  624MOL0     C84128   4.920   8.345   9.873  1.1234  0.2632  0.1209
  624MOL0     O84129   4.883   8.232   9.947  0.4415 -0.2222 -0.3531
  624MOL0     C84130   4.893   8.249  10.083 -0.9562  0.0300 -0.9451
  624MOL0     C84131   4.859   8.139  10.170  0.7694 -0.3183  1.0450
  624MOL0     C84132   4.880   8.145  10.311  0.5363  0.2847  0.2730
  624MOL0     C84133   4.844   8.014  10.386 -0.1875  1.1054 -0.2520
  624MOL0     C84134   4.903   8.263  10.376 -0.8472 -0.1153 -1.2154
  624MOL0     C84135   4.906   8.287  10.524  0.0274  0.3916 -0.4753
  624MOL0     O84136   4.851   8.188  10.608 -0.7293 -0.8368 -0.4832
  624MOL0     C84137   4.903   8.204  10.732  0.7074 -0.3313  0.4338
  624MOL0     C84138   5.033   8.233  10.764 -0.2992 -0.1287 -0.2538
  624MOL0     C84139   5.081   8.255  10.901 -0.8507  0.7142  0.3216
  624MOL0     C84140   4.981   8.248  11.006 -0.3188  0.5192  0.9463
  624MOL0     O84141   5.022   8.255  11.133 -0.7580 -0.2176 -0.2004
  624MOL0     C84142   5.147   8.306  11.170  0.7608  0.4078 -0.7729
  624MOL0     C84143   5.136   8.283  11.320  0.0196 -0.3909 -0.6213
  624MOL0     C84144   5.260   8.320  11.393  0.3095  0.9954 -0.2268
  624MOL0     C84145   5.297   8.466  11.363 -0.1818  0.2439  0.5192
  624MOL0     C84146   5.419   8.501  11.448 -0.3874  0.0293 -0.4820
  624MOL0     C84147   5.541   8.417  11.419 -0.6217 -0.3894 -0.1881
  624MOL0     C84148   5.672   8.483  11.492  0.0028  0.2465 -0.0775
  624MOL0     C84149   5.803   8.444  11.431  0.2692 -0.0285 -0.7149
  624MOL0    Cl84150   5.808   8.266  11.379  0.6403 -0.1267  0.0673
  624MOL0     C84151   4.845   8.209  10.980 -0.4333  0.3505 -0.1427
  624MOL0     C84152   4.811   8.196  10.843  0.1199 -0.5939 -0.0369
  624MOL0     O84153   4.966   8.394  10.562 -0.3157 -0.1902  0.2220
  624MOL0     C84154   4.932   8.378  10.286 -0.8820 -0.5775 -0.1613
  624MOL0     C84155   4.937   8.364  10.147  0.9087  0.6764 -0.0497
  624MOL0     N84156   4.901   8.278   9.336  0.3670  0.8052  0.5276
  624MOL0     N84157   4.848   8.162   9.283 -0.4315 -0.7384  0.6578
  624MOL0     C84158   4.377   8.992   9.090 -0.5324  0.1325 -0.0797
  624MOL0     C84159   4.334   9.088   9.184 -0.3942  0.3312  0.9506
  624MOL0     C84160   4.168   9.391   9.474 -0.3320 -0.3531 -0.0216
  624MOL0     C84161   4.082   9.484   9.418  0.8138 -0.0301 -0.8503
  624MOL0     C84162   4.025   9.588   9.498 -0.0882 -0.3192 -0.5535
  624MOL0     C84163   4.074   9.602   9.635  0.8586 -0.3364  0.9074
  624MOL0     O84164   4.019   9.691   9.726 -0.9756  0.5768 -0.3738
  624MOL0     C84165   3.948   9.803   9.672 -0.5842  0.9534  0.3495
  624MOL0     C84166   3.882   9.870   9.781 -0.7364  0.0012  0.1339
  624MOL0     C84167   3.818  10.007   9.758  0.4013  0.2883 -0.7122
  624MOL0     C84168   3.774  10.083   9.890 -0.1617 -0.3941  0.1197
  624MOL0     C84169   3.832  10.220   9.911 -0.1722  0.5994 -0.4165
  624MOL0     C84170   3.862  10.336   9.934  0.6719  0.3035  0.9627
  624MOL0     C84171   4.163   9.515   9.685  0.2950 -0.2150  0.0600
  624MOL0     C84172   4.211   9.407   9.607  0.5878  0.6128 -0.0567
  624MOL0     H84173   4.055   9.185   9.018  0.9900 -0.1149 -0.9390
  624MOL0     H84174   4.116   9.026   8.869 -3.5284 -0.4795  1.9955
  624MOL0     H84175   4.297   8.733   9.039 -0.7694  4.0872  0.4161
  624MOL0     H84176   4.185   8.745   8.904 -0.4438 -3.3734 -1.4129
  624MOL0     H84177   4.333   8.616   8.761  2.4147  1.7112 -0.5546
  624MOL0     H84178   4.462   8.638   8.880 -0.1993  2.5103 -1.5997
  624MOL0     H84179   4.266   8.508   9.031  0.7439  2.7279 -0.3969
  624MOL0     H84180   4.236   8.444   8.875  0.9055 -2.1370 -0.4270
  624MOL0     H84181   4.466   8.359   8.854  1.3216  3.1645 -0.4444
  624MOL0     H84182   4.522   8.454   8.993  0.2969 -0.9950  3.6024
  624MOL0     H84183   4.333   8.318   9.112  0.4278 -1.0731  1.9088
  624MOL0     H84184   4.360   8.189   8.998 -2.5494  0.0963  2.4761
  624MOL0     H84185   4.611   8.210   9.051  1.3311  2.6013  0.6622
  624MOL0     H84186   4.562   8.332   9.174 -2.8998  1.2275 -1.3145
  624MOL0     H84187   4.444   8.185   9.311  0.5877  0.9603 -1.1470
  624MOL0     H84188   4.431   8.071   9.181  1.3369  0.4362 -1.1776
  624MOL0     H84189   4.646   7.989   9.221 -2.6571 -0.4801  0.5585
  624MOL0     H84190   4.576   7.989   9.374  0.5461 -1.2870  0.6386
  624MOL0     H84191   4.615   8.265   9.481  0.7490 -1.9027  2.0332
  624MOL0     H84192   4.897   8.517   9.445  0.3752 -2.6645 -4.1374
  624MOL0     H84193   4.740   8.489   9.528 -1.6954  0.2116 -3.2334
  624MOL0     H84194   4.948   8.516   9.672 -2.3184  0.0392  2.3971
  624MOL0     H84195   5.017   8.364   9.611 -1.9212 -2.7016  1.1387
  624MOL0     H84196   4.831   8.237   9.696  2.4338  0.3977 -1.0733
  624MOL0     H84197   4.753   8.389   9.760 -0.7047 -2.0170  1.3646
  624MOL0     H84198   4.878   8.438   9.913  1.1911  1.7730 -3.0108
  624MOL0     H84199   5.028   8.340   9.862  0.9662 -1.1306 -1.2324
  624MOL0     H84200   4.835   8.045  10.121  5.1675 -0.3997 -1.4585
  624MOL0     H84201   4.753   8.046  10.438 -1.6176 -1.5735 -0.8782
  624MOL0     H84202   4.807   7.940  10.314 -1.9075  3.0250 -1.4481
  624MOL0     H84203   4.916   7.980  10.461 -1.9153  1.2910  1.5752
  624MOL0     H84204   5.107   8.235  10.685 -1.2303 -2.5664 -1.2760
  624MOL0     H84205   5.186   8.284  10.909  0.3241 -3.0170  0.3515
  624MOL0     H84206   5.227   8.246  11.127 -0.5617 -2.4390  0.5055
  624MOL0     H84207   5.158   8.411  11.140 -2.5362  0.5735 -1.8123
  624MOL0     H84208   5.052   8.341  11.360  1.3919  1.0841  0.2598
  624MOL0     H84209   5.109   8.179  11.342 -0.5532  0.7184  6.5446
  624MOL0     H84210   5.340   8.248  11.371 -0.8647 -0.1385 -0.9385
  624MOL0     H84211   5.241   8.309  11.500 -3.6332 -0.9605 -0.9338
  624MOL0     H84212   5.317   8.474  11.256 -0.6969 -1.5107  0.2756
  624MOL0     H84213   5.207   8.524  11.383  0.0051  1.1522 -1.1365
  624MOL0     H84214   5.400   8.504  11.555  2.5424  0.9369  0.1010
  624MOL0     H84215   5.438   8.605  11.419 -0.1470  0.0847 -0.1295
  624MOL0     H84216   5.537   8.318  11.465  0.8144  0.9135  2.9748
  624MOL0     H84217   5.567   8.408  11.313 -0.6877 -0.0766 -0.2318
  624MOL0     H84218   5.674   8.452  11.597 -0.9921 -1.8628 -0.6105
  624MOL0     H84219   5.663   8.591  11.499  1.2194  0.2988  1.0444
  624MOL0     H84220   5.888   8.457  11.499  0.4638 -3.9351  0.0593
  624MOL0     H84221   5.812   8.516  11.350  1.0048  1.4988  0.6617
  624MOL0     H84222   4.764   8.206  11.052  1.2577  2.7912  2.0658
  624MOL0     H84223   4.710   8.166  10.816 -0.4957  2.0820 -1.0354
  624MOL0     H84224   4.952   8.475  10.331 -2.3332 -0.1333 -0.4334
  624MOL0     H84225   4.956   8.453  10.088  1.4270 -0.2112 -1.2393
  624MOL0     H84226   4.470   8.939   9.107 -0.6942  0.3463  1.6102
  624MOL0     H84227   4.399   9.101   9.269  2.7081  4.4505 -1.6560
  624MOL0     H84228   4.034   9.481   9.320  1.5032 -0.6950 -1.1818
  624MOL0     H84229   3.937   9.641   9.463 -0.2736 -0.5755 -0.4805
  624MOL0     H84230   4.023   9.873   9.635 -0.2176  0.6130  0.4488
  624MOL0     H84231   3.871   9.775   9.599 -0.2177 -1.5596  0.8223
  624MOL0     H84232   3.966   9.880   9.850 -0.3992 -0.4335 -0.2093
  624MOL0     H84233   3.813   9.804   9.836 -0.7595 -0.2113 -0.1518
  624MOL0     H84234   3.727   9.997   9.699 -0.6779 -1.3346  1.0822
  624MOL0     H84235   3.881  10.070   9.695  0.8574  1.0333  0.4561
  624MOL0     H84236   3.794  10.022   9.978  1.2444 -2.1174 -1.3226
  624MOL0     H84237   3.665  10.091   9.888 -0.0856  1.3827  0.6663
  624MOL0     H84238   3.896  10.438   9.937 -0.3976  0.6816  0.7563
  624MOL0     H84239   4.195   9.532   9.787 -1.4562 -2.1066  1.0224
  624MOL0     H84240   4.284   9.346   9.659  0.5396 -1.0133 -1.8218
  625MOL0     O84241   5.016   5.286  10.903 -0.6951  0.8723  0.0607
  625MOL0     C84242   5.095   5.300  10.997 -0.0307  0.1836  0.1904
  625MOL0     O84243   5.145   5.206  11.082 -0.4441  0.7911  0.2246
  625MOL0     C84244   5.168   5.074  11.049 -0.1047 -0.1925 -0.0739
  625MOL0     C84245   5.225   4.998  11.148  1.0833 -0.2641 -0.2990
  625MOL0     C84246   5.244   4.859  11.130  0.6479  0.1227  0.1458
  625MOL0     C84247   5.201   4.791  11.020  0.3510 -1.0886 -0.3427
  625MOL0     O84248   5.211   4.656  11.011  0.1017  0.0653 -0.7249
  625MOL0     C84249   5.194   4.589  10.882 -0.2200 -0.1580 -0.0326
  625MOL0     C84250   5.243   4.443  10.902 -0.3429 -0.3896 -0.1217
  625MOL0     C84251   5.217   4.355  10.779  0.9514  0.0181  0.7226
  625MOL0     C84252   5.284   4.427  10.659 -0.0580  0.7562 -0.2404
  625MOL0     C84253   5.268   4.352  10.528 -0.0081 -0.4090 -1.1345
  625MOL0     C84254   5.117   4.304  10.492 -0.2474  0.1330 -0.0971
  625MOL0     C84255   5.017   4.421  10.478 -0.6878  0.2507  0.3019
  625MOL0     C84256   4.880   4.369  10.422 -0.5490 -0.2873 -0.1951
  625MOL0     N84257   4.805   4.471  10.366  0.0358 -0.7484 -0.7236
  625MOL0     C84258   4.794   4.598  10.414 -0.2406  0.3196  0.2576
  625MOL0     C84259   4.731   4.673  10.316  0.8279  0.5695  0.8133
  625MOL0     C84260   4.684   4.818  10.337  0.9184  0.7557  0.8023
  625MOL0     C84261   4.640   4.886  10.200 -0.0418 -0.0540  0.6303
  625MOL0     C84262   4.603   5.033  10.199  0.5544 -1.2863 -0.1625
  625MOL0     C84263   4.549   5.071  10.061 -0.7191  0.5486 -0.3371
  625MOL0     O84264   4.510   5.207  10.053  0.0746  0.6515 -0.7597
  625MOL0     C84265   4.419   5.252   9.958  0.1292 -0.4380  1.5876
  625MOL0     C84266   4.371   5.179   9.849  0.4183  0.0489  0.8706
  625MOL0     C84267   4.290   5.234   9.750  0.6151 -0.1677 -0.0022
  625MOL0     C84268   4.252   5.145   9.624  0.0890 -0.0339 -0.1010
  625MOL0     C84269   4.255   5.373   9.756 -0.3760  0.0599  0.3956
  625MOL0     C84270   4.178   5.453   9.649  0.2040  0.3045 -0.3153
  625MOL0     O84271   4.128   5.575   9.692 -0.3689  0.1110 -0.2795
  625MOL0     C84272   4.061   5.671   9.615 -0.5238 -0.4489  0.2299
  625MOL0     C84273   3.954   5.639   9.523  0.9810  0.2478 -0.4004
  625MOL0     C84274   3.877   5.741   9.456  0.2004  0.7370 -0.0801
  625MOL0     C84275   3.903   5.874   9.488  0.6475 -0.4252 -0.7276
  625MOL0     O84276   3.835   5.980   9.433 -0.5396  0.3245  0.4512
  625MOL0     C84277   3.695   5.975   9.407  0.1037 -0.8503 -0.6174
  625MOL0     C84278   3.622   6.098   9.457 -0.4451 -0.3481 -0.8009
  625MOL0     C84279   3.692   6.220   9.410 -0.9362 -0.2148 -0.0073
  625MOL0     C84280   3.623   6.348   9.450  0.2519  0.1856 -0.0303
  625MOL0     C84281   3.653   6.386   9.595 -0.3471  0.4854  0.2797
  625MOL0     C84282   3.550   6.500   9.634 -0.2628  0.0932  0.4872
  625MOL0     C84283   3.567   6.553   9.774  0.1107 -0.4037 -0.8451
  625MOL0     C84284   3.695   6.639   9.793 -0.4973  0.1198  0.5202
  625MOL0    Cl84285   3.701   6.783   9.700 -0.2130  0.4254  0.1848
  625MOL0     C84286   3.998   5.909   9.582  0.4601 -0.2933 -0.5917
  625MOL0     C84287   4.067   5.806   9.648  0.3587 -0.2374 -0.7435
  625MOL0     O84288   4.197   5.426   9.529  0.6731  0.1526  0.4251
  625MOL0     C84289   4.299   5.438   9.871  0.8318 -0.9441 -1.0424
  625MOL0     C84290   4.380   5.388   9.970  0.3337 -0.8978  1.5431
  625MOL0     N84291   4.691   4.590  10.217  0.1034  0.0196  0.1179
  625MOL0     N84292   4.726   4.467  10.255 -0.3159 -0.6036 -0.2044
  625MOL0     C84293   5.138   4.868  10.917  1.1036 -0.1190 -0.5142
  625MOL0     C84294   5.126   5.008  10.930  0.0179 -0.1931 -0.1998
  625MOL0     C84295   5.104   5.447  11.018 -0.4840 -0.4470 -0.0029
  625MOL0     C84296   5.149   5.496  11.148  0.4975  1.0708  0.7765
  625MOL0     C84297   5.158   5.634  11.162  0.5427 -2.5042 -0.3975
  625MOL0     C84298   5.141   5.725  11.057  1.2715 -0.5733 -0.7060
  625MOL0     O84299   5.157   5.861  11.079 -0.5576 -0.4809 -0.3006
  625MOL0     C84300   5.104   5.945  10.968 -0.3992  0.1738 -0.5826
  625MOL0     C84301   5.129   6.099  10.993 -0.3505  0.5241  0.1827
  625MOL0     C84302   5.277   6.139  10.965  0.5927  0.1628 -0.0843
  625MOL0     C84303   5.321   6.269  11.042 -0.0972 -0.1689  1.0805
  625MOL0     C84304   5.252   6.390  10.990  0.1144 -0.3333  0.0264
  625MOL0     C84305   5.191   6.490  10.957 -0.5152  0.0878  0.3288
  625MOL0     C84306   5.100   5.672  10.930 -0.4826 -0.2701  0.6823
  625MOL0     C84307   5.089   5.538  10.915  0.3995 -0.4231 -0.1528
  625MOL0     H84308   5.245   5.040  11.246 -1.2383 -1.8193  0.9382
  625MOL0     H84309   5.281   4.798  11.211 -0.0765 -2.6566 -1.4670
  625MOL0     H84310   5.090   4.574  10.853 -0.9835 -2.9204  3.4160
  625MOL0     H84311   5.249   4.641  10.803 -3.4114  1.9005 -1.0781
  625MOL0     H84312   5.342   4.429  10.946 -0.6862 -2.0133  0.1913
  625MOL0     H84313   5.178   4.402  10.980 -1.6826  1.8264  0.0318
  625MOL0     H84314   5.251   4.252  10.795  0.5332 -0.5031 -1.4173
  625MOL0     H84315   5.111   4.356  10.754  1.6252  0.9206 -2.5478
  625MOL0     H84316   5.233   4.520  10.632 -4.3000 -1.4896 -0.8798
  625MOL0     H84317   5.389   4.440  10.684 -0.2084  1.9709 -0.2030
  625MOL0     H84318   5.310   4.422  10.454 -0.1593  1.7199  0.6834
  625MOL0     H84319   5.333   4.266  10.541  2.3483  1.4452  0.1946
  625MOL0     H84320   5.125   4.268  10.389 -1.0034  3.2289 -1.3548
  625MOL0     H84321   5.067   4.227  10.551 -0.5463 -0.2261 -0.8107
  625MOL0     H84322   5.012   4.474  10.573  0.6307  2.0312 -0.5558
  625MOL0     H84323   5.062   4.488  10.403  0.7178 -0.4939  0.4621
  625MOL0     H84324   4.823   4.318  10.500  1.9170 -1.6166  0.8562
  625MOL0     H84325   4.895   4.293  10.345  2.3774 -0.7045  0.6404
  625MOL0     H84326   4.842   4.639  10.503 -1.5445  0.4694  0.9192
  625MOL0     H84327   4.607   4.820  10.415  0.8964 -2.7567  1.0238
  625MOL0     H84328   4.776   4.871  10.363  2.6159 -0.3808 -2.3980
  625MOL0     H84329   4.566   4.828  10.145  0.5124 -0.5880  0.4380
  625MOL0     H84330   4.730   4.886  10.138 -0.7784 -1.3455 -0.4952
  625MOL0     H84331   4.687   5.097  10.227 -0.9130  1.1298 -0.9868
  625MOL0     H84332   4.522   5.044  10.272  0.1759 -0.8267 -0.6420
  625MOL0     H84333   4.468   5.003  10.032  0.6585 -1.3914  0.1359
  625MOL0     H84334   4.639   5.060   9.999  0.6513 -0.5982  1.7488
  625MOL0     H84335   4.408   5.077   9.844  3.8302  1.1205  1.7189
  625MOL0     H84336   4.252   5.038   9.646 -0.4844  0.1236  0.6933
  625MOL0     H84337   4.146   5.169   9.619 -0.5031 -1.8783  2.3327
  625MOL0     H84338   4.303   5.169   9.530  2.4732  1.7882  1.5234
  625MOL0     H84339   3.934   5.535   9.499 -2.5276  0.8586 -0.5659
  625MOL0     H84340   3.799   5.714   9.385 -0.1243 -0.5995  0.7371
  625MOL0     H84341   3.676   5.956   9.301 -1.2880  1.7016 -0.9079
  625MOL0     H84342   3.648   5.892   9.461 -1.3819  0.3840  0.0508
  625MOL0     H84343   3.519   6.087   9.423 -0.7618 -1.3597  0.4542
  625MOL0     H84344   3.622   6.105   9.566  1.6312  0.6082 -0.8150
  625MOL0     H84345   3.690   6.220   9.301 -0.9454 -2.0011 -0.0262
  625MOL0     H84346   3.798   6.206   9.433  0.2623 -3.6086 -5.7457
  625MOL0     H84347   3.657   6.432   9.388  0.2317  1.6894  1.8901
  625MOL0     H84348   3.517   6.336   9.424  0.8139  0.0094 -2.5158
  625MOL0     H84349   3.755   6.421   9.613 -0.1444 -1.0799  2.6910
  625MOL0     H84350   3.634   6.293   9.649 -1.4459  1.6787  2.0574
  625MOL0     H84351   3.553   6.582   9.562 -0.9951 -1.4912 -1.4759
  625MOL0     H84352   3.451   6.456   9.620  0.2581 -0.8144 -0.5789
  625MOL0     H84353   3.574   6.473   9.849  5.4261 -0.5529 -1.1389
  625MOL0     H84354   3.478   6.609   9.804  0.6222  0.7194 -1.3801
  625MOL0     H84355   3.790   6.590   9.773  0.3891  1.9742 -0.0884
  625MOL0     H84356   3.677   6.674   9.895 -1.2785 -2.3377  1.2880
  625MOL0     H84357   4.003   6.015   9.608 -2.7422  1.0703 -4.4174
  625MOL0     H84358   4.136   5.838   9.726 -1.1616 -0.8120  0.9231
  625MOL0     H84359   4.268   5.535   9.907 -1.3760 -2.8428  2.8447
  625MOL0     H84360   4.393   5.450  10.057  0.0682  0.2856  0.7661
  625MOL0     H84361   5.092   4.811  10.837 -1.4596 -0.0619  0.8224
  625MOL0     H84362   5.076   5.052  10.846 -1.1089 -2.5566 -0.8654
  625MOL0     H84363   5.182   5.426  11.225  0.4407 -0.0875 -0.2189
  625MOL0     H84364   5.179   5.675  11.260 -0.3507  1.7317 -1.7994
  625MOL0     H84365   5.171   5.932  10.883  0.5010 -0.5574  0.2148
  625MOL0     H84366   5.001   5.920  10.944  0.5455 -0.6640 -4.4481
  625MOL0     H84367   5.101   6.133  11.094  1.6510 -1.6987  1.5798
  625MOL0     H84368   5.081   6.152  10.910  1.1543  0.1508 -0.9425
  625MOL0     H84369   5.293   6.152  10.857  0.0512 -3.8407 -0.7902
  625MOL0     H84370   5.333   6.056  11.009  1.0660  0.3024 -0.4125
  625MOL0     H84371   5.429   6.282  11.029  0.0557 -1.0868  1.3357
  625MOL0     H84372   5.309   6.254  11.150  0.7438 -0.5202  1.1328
  625MOL0     H84373   5.137   6.583  10.950 -2.6465 -1.0322  0.9114
  625MOL0     H84374   5.094   5.730  10.839  0.1929  2.2120  2.1380
  625MOL0     H84375   5.072   5.502  10.814  1.0301 -1.5979  0.1421
  626MOL0     O84376   1.747  10.330   6.380  0.3188  0.2579  0.1284
  626MOL0     C84377   1.625  10.332   6.408 -0.9310  0.3983  0.4925
  626MOL0     O84378   1.531  10.267   6.335  0.8591  0.9191  0.4858
  626MOL0     C84379   1.544  10.183   6.228  0.3469  0.1695  0.0531
  626MOL0     C84380   1.663  10.169   6.158 -0.3930  0.6000  0.4352
  626MOL0     C84381   1.676  10.099   6.036  0.8896  0.5796  0.3328
  626MOL0     C84382   1.566  10.035   5.991  0.6826  0.2558  0.9553
  626MOL0     O84383   1.567   9.966   5.868 -0.0549  0.2799  0.6637
  626MOL0     C84384   1.648   9.850   5.884  0.8402 -0.3997  0.2806
  626MOL0     C84385   1.577   9.726   5.830  0.1032  0.6402  0.6458
  626MOL0     C84386   1.439   9.709   5.894  0.3426  0.3701 -0.3963
  626MOL0     C84387   1.382   9.564   5.875 -0.1829  0.2801  0.0317
  626MOL0     C84388   1.263   9.553   5.778  0.0835  0.1028  0.5817
  626MOL0     C84389   1.317   9.502   5.640  0.1072  0.0048 -0.2631
  626MOL0     C84390   1.381   9.366   5.620  0.2577  1.1097 -0.1636
  626MOL0     C84391   1.295   9.249   5.679  0.3475  0.3603  0.1752
  626MOL0     N84392   1.155   9.238   5.632 -0.3304  0.3458 -0.0228
  626MOL0     C84393   1.056   9.210   5.727 -0.7115 -0.4375  0.3183
  626MOL0     C84394   0.960   9.160   5.651 -0.1123 -1.2837  0.6559
  626MOL0     C84395   0.821   9.133   5.695  0.1030  0.3917 -0.3960
  626MOL0     C84396   0.827   8.994   5.772  1.2076 -0.8749  0.5445
  626MOL0     C84397   0.720   8.970   5.869  0.1625  0.1666 -0.2886
  626MOL0     C84398   0.748   9.019   6.007  0.3795 -0.7162 -0.6145
  626MOL0     O84399   0.799   9.153   5.992  0.4496  0.4903  0.0167
  626MOL0     C84400   0.844   9.222   6.105 -0.9222  0.1271  0.0101
  626MOL0     C84401   0.864   9.159   6.234  0.9969  0.2006 -0.3745
  626MOL0     C84402   0.930   9.224   6.335 -0.3069 -0.4746 -1.1395
  626MOL0     C84403   0.931   9.152   6.471  0.3514  0.2172  0.7607
  626MOL0     C84404   1.009   9.343   6.313 -0.4436  0.5808 -0.3729
  626MOL0     C84405   1.106   9.397   6.410 -1.0132 -0.3488 -0.4190
  626MOL0     O84406   1.148   9.523   6.384  0.5213  0.2599  0.1415
  626MOL0     C84407   1.245   9.591   6.436  0.0128  0.3474 -0.9054
  626MOL0     C84408   1.282   9.595   6.571  0.6558 -0.2408 -1.5086
  626MOL0     C84409   1.377   9.681   6.615  0.5450 -0.4227  0.3166
  626MOL0     C84410   1.432   9.785   6.534  0.3108 -0.2341  1.1206
  626MOL0     O84411   1.531   9.867   6.581 -0.1801 -0.2478  0.4357
  626MOL0     C84412   1.575   9.974   6.498 -0.2291 -1.1263  0.4686
  626MOL0     C84413   1.703  10.018   6.560  0.3474 -0.1579  0.1631
  626MOL0     C84414   1.666  10.080   6.699 -0.0757 -1.1043  0.6119
  626MOL0     C84415   1.766  10.178   6.761 -0.0221 -0.1320  0.1561
  626MOL0     C84416   1.700  10.250   6.891  0.0778 -0.4379  0.3393
  626MOL0     C84417   1.790  10.351   6.959 -0.9556  0.1571 -0.0271
  626MOL0     C84418   1.730  10.436   7.065 -1.1954  0.3032  0.1274
  626MOL0     C84419   1.669  10.563   7.009 -0.9406  0.3142 -0.0462
  626MOL0    Cl84420   1.626  10.677   7.141  0.3140  0.3348 -0.5812
  626MOL0     C84421   1.402   9.776   6.396 -0.5327  0.8414 -0.0493
  626MOL0     C84422   1.314   9.681   6.355  0.1912 -0.4454 -0.4182
  626MOL0     O84423   1.146   9.331   6.505  0.5941 -0.0974  0.6633
  626MOL0     C84424   0.998   9.398   6.183  0.2864 -0.2438  0.8980
  626MOL0     C84425   0.910   9.342   6.090  0.4001 -0.9834  0.6094
  626MOL0     N84426   0.997   9.161   5.513 -0.3781  0.1663  0.3228
  626MOL0     N84427   1.117   9.204   5.508 -0.5193 -0.2865  0.5412
  626MOL0     C84428   1.439  10.040   6.055 -0.2806  0.5066 -0.1998
  626MOL0     C84429   1.430  10.122   6.173 -0.6189 -0.0359  0.9402
  626MOL0     C84430   1.581  10.413   6.509 -1.0435 -0.0459 -1.0152
  626MOL0     C84431   1.453  10.388   6.569  0.1721  0.1019  0.3138
  626MOL0     C84432   1.398  10.486   6.653  0.1346  1.1915  0.0463
  626MOL0     C84433   1.460  10.602   6.687 -0.5202  0.4616 -0.1510
  626MOL0     O84434   1.403  10.680   6.777 -0.0116  0.5080 -0.2448
  626MOL0     C84435   1.445  10.815   6.784  0.0633  0.3271  0.3044
  626MOL0     C84436   1.350  10.904   6.876  0.2025 -0.6944  0.7191
  626MOL0     C84437   1.370  10.892   7.026  1.0115 -1.0222  0.4383
  626MOL0     C84438   1.496  10.970   7.072  0.0532  0.0778  1.2819
  626MOL0     C84439   1.501  10.959   7.212 -0.0006  0.4946  0.3058
  626MOL0     C84440   1.511  10.959   7.325  0.1094  0.1184 -0.2681
  626MOL0     C84441   1.587  10.623   6.632  0.6712 -0.1921  0.9873
  626MOL0     C84442   1.647  10.532   6.542 -0.6112  0.6904 -0.1570
  626MOL0     H84443   1.753  10.225   6.181 -1.6770  2.6921  0.6152
  626MOL0     H84444   1.777  10.087   6.000  1.7353  2.0373  2.0872
  626MOL0     H84445   1.738   9.867   5.824  1.3054 -2.6311  0.2235
  626MOL0     H84446   1.688   9.832   5.984 -0.8667  1.6788  1.4086
  626MOL0     H84447   1.570   9.737   5.722  1.4853 -0.7405  0.3882
  626MOL0     H84448   1.634   9.635   5.851 -1.0527 -0.1766  0.3609
  626MOL0     H84449   1.436   9.736   6.000 -0.8211 -0.1849 -0.2730
  626MOL0     H84450   1.371   9.774   5.838  0.4679 -0.5384 -1.6600
  626MOL0     H84451   1.469   9.503   5.849  1.2350  1.0363  2.5961
  626MOL0     H84452   1.347   9.526   5.972  0.6494  1.6333  0.8909
  626MOL0     H84453   1.199   9.468   5.806 -0.7912  0.2796 -0.8354
  626MOL0     H84454   1.201   9.641   5.766  1.2571  1.0109  0.9091
  626MOL0     H84455   1.240   9.506   5.561  0.3112  2.7119 -0.4168
  626MOL0     H84456   1.391   9.575   5.607  1.2567 -0.1848  1.7569
  626MOL0     H84457   1.401   9.351   5.513 -4.9626 -0.4508 -1.2223
  626MOL0     H84458   1.480   9.372   5.666  0.1139  0.3364  0.2645
  626MOL0     H84459   1.303   9.256   5.788 -0.2801 -1.1885  0.3476
  626MOL0     H84460   1.344   9.152   5.668 -3.1392 -1.8761  2.2295
  626MOL0     H84461   1.054   9.214   5.835 -0.4577  1.1390  0.2967
  626MOL0     H84462   0.789   9.218   5.756  0.4765  0.7663 -0.7054
  626MOL0     H84463   0.752   9.140   5.610  1.0275 -0.7993 -1.2922
  626MOL0     H84464   0.925   8.990   5.822  1.6475  0.5338 -0.1232
  626MOL0     H84465   0.822   8.910   5.703 -2.6737 -3.4821  3.6006
  626MOL0     H84466   0.686   8.866   5.870 -0.5008  0.2493 -3.5934
  626MOL0     H84467   0.638   9.037   5.841 -0.0674  1.4501  2.9310
  626MOL0     H84468   0.828   8.966   6.059  0.0181  0.5078  1.2827
  626MOL0     H84469   0.656   9.017   6.066  1.0932 -2.7619  0.5137
  626MOL0     H84470   0.838   9.054   6.245  1.2482  0.1329 -0.4230
  626MOL0     H84471   0.861   9.069   6.477 -1.5393  1.7192  0.4504
  626MOL0     H84472   1.035   9.123   6.486  0.2763  0.2553  1.3713
  626MOL0     H84473   0.894   9.220   6.548 -2.3610 -0.1873 -0.0787
  626MOL0     H84474   1.229   9.534   6.644  4.0123 -2.6426 -0.8732
  626MOL0     H84475   1.410   9.668   6.718 -2.3362  1.1894  1.5683
  626MOL0     H84476   1.604   9.940   6.398 -3.7464 -3.8865  0.1932
  626MOL0     H84477   1.497  10.048   6.485  0.6631 -0.3083 -0.3873
  626MOL0     H84478   1.773   9.934   6.571 -1.3556 -1.3729  2.8033
  626MOL0     H84479   1.750  10.094   6.497 -0.6555 -0.8893 -1.5626
  626MOL0     H84480   1.625  10.002   6.763 -3.3096 -2.3861 -2.6647
  626MOL0     H84481   1.588  10.154   6.676  1.1754  0.2832  0.6956
  626MOL0     H84482   1.845  10.111   6.794  0.7705  0.5909 -0.2386
  626MOL0     H84483   1.812  10.248   6.691 -1.0906  2.1549  1.6067
  626MOL0     H84484   1.679  10.167   6.959  0.9122 -1.5509 -0.7232
  626MOL0     H84485   1.612  10.302   6.854  0.6021 -0.5624 -1.1187
  626MOL0     H84486   1.884  10.304   6.992  0.7884  2.4490 -1.4498
  626MOL0     H84487   1.830  10.410   6.876 -0.6483 -1.7437 -1.3106
  626MOL0     H84488   1.820  10.462   7.122  0.2892  1.4959 -2.5620
  626MOL0     H84489   1.653  10.381   7.119 -4.0513  6.1078  2.8408
  626MOL0     H84490   1.581  10.543   6.947 -1.1842  3.6872 -0.9967
  626MOL0     H84491   1.741  10.603   6.936  0.8334 -0.3159  1.2857
  626MOL0     H84492   1.457   9.826   6.317 -0.5861 -0.6684 -1.0938
  626MOL0     H84493   1.303   9.661   6.249 -0.5726 -0.8697 -0.2675
  626MOL0     H84494   1.048   9.491   6.161  0.6360 -0.3615  1.1732
  626MOL0     H84495   0.909   9.394   5.994 -4.2112 -2.1313 -0.1989
  626MOL0     H84496   1.352   9.994   6.009 -0.0300  0.7414 -0.9224
  626MOL0     H84497   1.340  10.118   6.234 -2.0135 -0.9770 -1.0729
  626MOL0     H84498   1.400  10.295   6.551  0.8683 -0.2003 -0.1965
  626MOL0     H84499   1.301  10.453   6.688  1.5478 -3.8350 -0.1219
  626MOL0     H84500   1.550  10.821   6.815 -0.4013  3.0203  1.7266
  626MOL0     H84501   1.441  10.865   6.687 -0.5530  2.4142  1.3485
  626MOL0     H84502   1.251  10.861   6.859  0.6825 -3.2172  3.4811
  626MOL0     H84503   1.355  11.004   6.832 -1.7882 -1.8744 -2.4916
  626MOL0     H84504   1.367  10.791   7.068  4.2289  0.3766  4.7661
  626MOL0     H84505   1.277  10.939   7.060  1.7983 -0.6697  2.2360
  626MOL0     H84506   1.488  11.074   7.038 -2.9697 -1.2749 -2.9790
  626MOL0     H84507   1.588  10.930   7.028 -2.2490 -0.6010 -3.6440
  626MOL0     H84508   1.529  10.951   7.431  3.3237  0.6170 -0.6768
  626MOL0     H84509   1.639  10.716   6.655 -1.2669  1.5108 -1.0786
  626MOL0     H84510   1.746  10.549   6.500 -0.8229 -2.2489 -2.1376
  627MOL0     O84511   6.895   1.546   4.513  0.6384  0.7187 -0.1165
  627MOL0     C84512   7.003   1.496   4.518  0.1243 -0.1537  1.0403
  627MOL0     O84513   7.099   1.552   4.594  0.2737  0.2271 -0.3820
  627MOL0     C84514   7.070   1.680   4.644  0.6890 -0.3368 -0.0930
  627MOL0     C84515   7.116   1.805   4.596  0.0686  0.4576  0.7170
  627MOL0     C84516   7.086   1.918   4.671 -0.5612  0.8528  0.0545
  627MOL0     C84517   7.031   1.911   4.797  0.1382 -0.0954 -0.5306
  627MOL0     O84518   6.999   2.026   4.868 -0.4485  0.5177 -0.7380
  627MOL0     C84519   7.001   2.154   4.802  0.3310  0.7262  0.2267
  627MOL0     C84520   6.939   2.259   4.898  0.0510  0.0750 -0.5619
  627MOL0     C84521   6.884   2.387   4.837 -0.2495 -0.0053  1.0461
  627MOL0     C84522   6.997   2.489   4.782  0.5949  0.4156 -0.4027
  627MOL0     C84523   6.935   2.627   4.742 -0.9417 -0.2371  0.2387
  627MOL0     C84524   6.832   2.613   4.628  0.7755  0.4514 -0.7587
  627MOL0     C84525   6.813   2.742   4.548 -0.1322  1.2053  0.7733
  627MOL0     C84526   6.779   2.866   4.634 -0.2116  0.5004 -0.2963
  627MOL0     N84527   6.782   2.974   4.532 -0.1722  0.7029 -0.9713
  627MOL0     C84528   6.676   3.010   4.457 -0.8043 -0.3730  0.9574
  627MOL0     C84529   6.721   3.115   4.394 -0.4638 -0.1179  0.1228
  627MOL0     C84530   6.639   3.207   4.309 -0.6821 -0.2798  0.0101
  627MOL0     C84531   6.631   3.350   4.364 -0.5602 -0.4765 -0.4008
  627MOL0     C84532   6.741   3.440   4.307  0.2150 -0.5146  0.0885
  627MOL0     C84533   6.741   3.578   4.384  0.2178  0.2553  0.2345
  627MOL0     O84534   6.826   3.684   4.337 -0.4580 -0.8684 -0.8190
  627MOL0     C84535   6.954   3.660   4.319 -0.0746 -0.0461  0.5855
  627MOL0     C84536   7.032   3.730   4.228  0.8335  0.2435  0.3012
  627MOL0     C84537   7.163   3.684   4.212  0.4916  0.7821  0.0216
  627MOL0     C84538   7.235   3.760   4.101 -0.5000  0.3243 -0.2388
  627MOL0     C84539   7.215   3.577   4.274 -0.4789 -0.1504 -0.0617
  627MOL0     C84540   7.350   3.534   4.232  0.5133 -0.0795 -0.0965
  627MOL0     O84541   7.447   3.552   4.330 -0.3904  0.2777  0.3517
  627MOL0     C84542   7.578   3.535   4.284 -0.4421 -0.6568  0.2110
  627MOL0     C84543   7.653   3.417   4.305  0.2714 -0.3695 -1.0877
  627MOL0     C84544   7.776   3.398   4.243  0.3785  0.2315 -0.4040
  627MOL0     C84545   7.841   3.507   4.165 -0.1227  0.8150  0.2132
  627MOL0     O84546   7.959   3.489   4.099  0.8041  0.1671 -0.8412
  627MOL0     C84547   8.056   3.411   4.159 -0.2195 -0.1157 -0.0955
  627MOL0     C84548   8.116   3.489   4.290  0.0001  0.7569  0.0961
  627MOL0     C84549   8.154   3.641   4.275 -0.5253 -0.4681 -0.2400
  627MOL0     C84550   8.289   3.657   4.201  0.4112  1.0932  0.5952
  627MOL0     C84551   8.339   3.801   4.141  0.4480  0.7640 -0.1918
  627MOL0     C84552   8.225   3.907   4.129 -0.2626  1.1773 -0.1341
  627MOL0     C84553   8.280   4.034   4.051  0.3761  1.3243 -0.9219
  627MOL0     C84554   8.193   4.059   3.930 -1.0932  0.4907  0.0046
  627MOL0    Cl84555   8.012   4.092   3.958  0.3532 -0.1197  0.4197
  627MOL0     C84556   7.760   3.617   4.143 -0.5534 -0.1955 -1.3171
  627MOL0     C84557   7.633   3.624   4.196  0.1363  0.0560 -0.1548
  627MOL0     O84558   7.364   3.484   4.121  0.5348  0.3619 -0.0173
  627MOL0     C84559   7.137   3.507   4.371 -1.2017 -0.6301 -0.3240
  627MOL0     C84560   7.009   3.560   4.400 -0.8014  0.0269 -0.0035
  627MOL0     N84561   6.853   3.140   4.426  0.9140 -0.2617 -0.3008
  627MOL0     N84562   6.893   3.051   4.511  0.1390  0.5378 -1.1876
  627MOL0     C84563   6.981   1.789   4.845  0.3238  0.3939 -0.5470
  627MOL0     C84564   6.997   1.680   4.764 -0.3374  0.5736  0.3412
  627MOL0     C84565   7.023   1.361   4.460  0.1306 -0.6102 -0.5922
  627MOL0     C84566   6.905   1.281   4.420 -0.4829 -0.4559 -1.6385
  627MOL0     C84567   6.922   1.147   4.401  0.7395 -0.6425 -0.0538
  627MOL0     C84568   7.043   1.095   4.375 -0.3239 -0.5845 -0.0266
  627MOL0     O84569   7.074   0.971   4.323 -0.3459 -0.5190 -0.2062
  627MOL0     C84570   6.990   0.856   4.350  0.4574 -0.6145 -1.2003
  627MOL0     C84571   7.044   0.728   4.287 -0.2705 -0.5897  0.2201
  627MOL0     C84572   6.980   0.701   4.146  0.1201 -0.4460 -0.1403
  627MOL0     C84573   6.997   0.555   4.107 -0.0170 -0.3354 -0.1902
  627MOL0     C84574   7.136   0.505   4.088  0.0260  0.2024 -1.0586
  627MOL0     C84575   7.252   0.485   4.081  0.7754 -0.4692 -1.2864
  627MOL0     C84576   7.149   1.166   4.415 -0.6816  0.5832  0.1727
  627MOL0     C84577   7.142   1.290   4.467  0.5273  0.6407 -0.2823
  627MOL0     H84578   7.169   1.808   4.501 -3.5651 -0.0596 -1.5122
  627MOL0     H84579   7.114   2.017   4.636  3.0801 -0.9265 -2.8863
  627MOL0     H84580   7.104   2.176   4.774  0.5381  0.1116  0.4997
  627MOL0     H84581   6.931   2.156   4.717  1.0325 -2.5867 -0.5551
  627MOL0     H84582   6.858   2.218   4.960  1.8271 -1.3023  0.9984
  627MOL0     H84583   7.020   2.282   4.967 -0.6125 -0.4817  0.4341
  627MOL0     H84584   6.826   2.363   4.748  0.9456 -0.2974  0.3306
  627MOL0     H84585   6.829   2.439   4.917 -2.1590 -0.2464 -0.0647
  627MOL0     H84586   7.074   2.511   4.857  1.1510  1.2515 -1.2055
  627MOL0     H84587   7.053   2.445   4.700  1.6891  1.2124 -0.1118
  627MOL0     H84588   6.886   2.669   4.831 -3.2716 -1.5353 -0.3433
  627MOL0     H84589   7.008   2.701   4.709 -0.5149 -0.7445  0.0432
  627MOL0     H84590   6.887   2.536   4.572 -0.4695 -0.3890 -0.8594
  627MOL0     H84591   6.740   2.567   4.664  0.2314  1.5329 -0.7343
  627MOL0     H84592   6.911   2.755   4.501  0.0824 -1.4386  0.2977
  627MOL0     H84593   6.732   2.730   4.474 -0.5868 -0.2149  1.4652
  627MOL0     H84594   6.858   2.884   4.707 -0.7893  4.0052 -0.3247
  627MOL0     H84595   6.689   2.858   4.695  1.8060 -0.5947  2.7248
  627MOL0     H84596   6.578   2.965   4.449  0.0271 -1.9260 -2.7528
  627MOL0     H84597   6.667   3.208   4.203 -0.0192  2.3652  0.1363
  627MOL0     H84598   6.536   3.169   4.308 -1.8557  2.5170 -2.8008
  627MOL0     H84599   6.661   3.349   4.469  2.6442 -0.0031 -1.1925
  627MOL0     H84600   6.533   3.399   4.358 -1.4103 -1.7538  1.8285
  627MOL0     H84601   6.729   3.462   4.201  1.3038 -1.1901 -0.1891
  627MOL0     H84602   6.833   3.381   4.318  1.4697  1.8137  3.8916
  627MOL0     H84603   6.753   3.559   4.491  3.0161  0.7633  0.0798
  627MOL0     H84604   6.639   3.617   4.378 -1.8296 -4.3081  0.7840
  627MOL0     H84605   6.990   3.814   4.174  1.7509  0.0183 -0.7800
  627MOL0     H84606   7.256   3.694   4.016 -1.5996 -1.4718  0.8173
  627MOL0     H84607   7.187   3.850   4.060 -0.3477  0.3168 -0.4349
  627MOL0     H84608   7.326   3.797   4.149 -0.2382  0.1446 -0.5938
  627MOL0     H84609   7.605   3.342   4.367  1.2740  1.1026  1.6690
  627MOL0     H84610   7.836   3.308   4.251  1.6281  1.1266  0.7939
  627MOL0     H84611   8.011   3.312   4.175  1.4317 -0.9085 -0.1130
  627MOL0     H84612   8.131   3.395   4.081  0.5451  1.4300  0.2815
  627MOL0     H84613   8.046   3.464   4.371 -0.0173  0.4025 -0.0266
  627MOL0     H84614   8.203   3.436   4.329  1.4520  0.7218 -2.9451
  627MOL0     H84615   8.156   3.689   4.373 -2.3483  1.3337 -0.9940
  627MOL0     H84616   8.078   3.696   4.219  1.1751  0.8662 -1.3498
  627MOL0     H84617   8.365   3.623   4.273  0.4536  2.4820  1.2360
  627MOL0     H84618   8.294   3.570   4.135  0.5172 -0.5395  2.6636
  627MOL0     H84619   8.404   3.773   4.058  2.7925  0.5484  1.6157
  627MOL0     H84620   8.408   3.856   4.205  2.5376  2.3708 -3.5277
  627MOL0     H84621   8.148   3.860   4.067  2.0170 -0.1794 -2.1270
  627MOL0     H84622   8.182   3.940   4.224  1.3769  0.5931  0.8583
  627MOL0     H84623   8.385   4.014   4.027  1.5379  2.9903  2.2357
  627MOL0     H84624   8.297   4.124   4.111  2.7590  1.0641 -1.1236
  627MOL0     H84625   8.209   3.977   3.859 -0.3953 -0.8587  1.6474
  627MOL0     H84626   8.243   4.137   3.872 -2.5432  0.5887 -1.1663
  627MOL0     H84627   7.800   3.693   4.077  1.4179 -0.9180 -1.0022
  627MOL0     H84628   7.564   3.700   4.160 -0.4776  0.8338  2.4432
  627MOL0     H84629   7.189   3.430   4.428 -1.9077 -0.6920  0.2581
  627MOL0     H84630   6.947   3.516   4.478 -1.4923  1.2444  0.1610
  627MOL0     H84631   6.934   1.806   4.941  0.2482  1.1955 -0.7147
  627MOL0     H84632   6.944   1.591   4.796 -2.8360  1.3728 -1.3117
  627MOL0     H84633   6.808   1.330   4.417 -1.1809 -1.5019  1.0266
  627MOL0     H84634   6.829   1.101   4.369  0.7345 -0.4588 -0.3073
  627MOL0     H84635   6.977   0.852   4.459 -0.3022  0.5366 -1.2352
  627MOL0     H84636   6.896   0.878   4.301 -1.3693 -2.2861  1.3051
  627MOL0     H84637   7.022   0.640   4.346  0.9244  0.1121  1.7704
  627MOL0     H84638   7.151   0.745   4.271  0.4470 -2.0964  2.9574
  627MOL0     H84639   7.039   0.760   4.075 -1.5444  0.6565 -0.6682
  627MOL0     H84640   6.876   0.733   4.144  1.1934  3.6456  0.8595
  627MOL0     H84641   6.959   0.543   4.005 -1.6982  0.2022  0.3335
  627MOL0     H84642   6.930   0.500   4.173  0.4672  1.5358  1.9948
  627MOL0     H84643   7.359   0.487   4.079  0.7610  1.0607 -2.1055
  627MOL0     H84644   7.246   1.117   4.418 -1.9952 -2.1412  0.9153
  627MOL0     H84645   7.229   1.348   4.497 -0.2888  2.6370 -1.5313
  628MOL0     O84646   3.479   1.714   7.268 -0.0356  0.0234  0.0761
  628MOL0     C84647   3.545   1.781   7.350  1.0478 -0.5616 -0.0101
  628MOL0     O84648   3.660   1.856   7.316  0.7728 -0.0605  0.6256
  628MOL0     C84649   3.704   1.865   7.189  0.2932 -0.7273  0.5193
  628MOL0     C84650   3.817   1.790   7.173 -0.1605  0.2693  0.7177
  628MOL0     C84651   3.868   1.793   7.039 -1.4445 -0.2435 -0.1284
  628MOL0     C84652   3.800   1.859   6.930  0.0153  0.9333 -0.1426
  628MOL0     O84653   3.851   1.861   6.800  0.6518  0.7518  0.1541
  628MOL0     C84654   3.982   1.834   6.763 -0.8642  0.6329 -0.3575
  628MOL0     C84655   3.987   1.872   6.611 -0.8171  0.8880 -0.5804
  628MOL0     C84656   3.902   1.787   6.513 -0.1874 -0.0660  0.0447
  628MOL0     C84657   4.005   1.716   6.418  0.6045  0.6246 -0.3395
  628MOL0     C84658   3.930   1.631   6.307 -0.5285 -0.3026  0.9189
  628MOL0     C84659   4.021   1.596   6.180 -0.6824 -0.3249 -0.3819
  628MOL0     C84660   4.109   1.709   6.126 -0.5430  0.1627  0.3061
  628MOL0     C84661   4.024   1.809   6.061 -0.2143  0.5490  0.2926
  628MOL0     N84662   4.099   1.932   6.028  0.7212 -0.7679  0.1254
  628MOL0     C84663   4.224   1.942   5.979  0.1855  0.4794  0.8205
  628MOL0     C84664   4.249   2.063   5.931  0.3329 -0.2257 -0.1973
  628MOL0     C84665   4.381   2.110   5.878  0.1310 -0.5670  1.2468
  628MOL0     C84666   4.383   2.097   5.720 -0.8294 -1.0223  0.4272
  628MOL0     C84667   4.523   2.068   5.671  0.3155  0.1611 -0.6092
  628MOL0     C84668   4.535   2.053   5.517  1.2689 -0.1856 -0.2068
  628MOL0     O84669   4.520   2.184   5.450 -0.4396 -0.1833 -0.0562
  628MOL0     C84670   4.540   2.192   5.315 -0.2364 -0.4258 -0.2153
  628MOL0     C84671   4.527   2.317   5.267 -0.0882 -0.4731  0.4147
  628MOL0     C84672   4.545   2.342   5.127 -0.1420 -0.4936  0.0852
  628MOL0     C84673   4.508   2.481   5.085  0.6032 -0.7344 -0.4460
  628MOL0     C84674   4.567   2.238   5.032 -0.3463  0.1672 -0.1961
  628MOL0     C84675   4.555   2.250   4.889 -0.0556  0.3524 -0.1280
  628MOL0     O84676   4.646   2.178   4.828 -0.5987 -0.1110  0.0052
  628MOL0     C84677   4.621   2.164   4.693  0.7539 -0.6991 -0.0068
  628MOL0     C84678   4.644   2.271   4.605  0.4423 -0.7457 -0.5274
  628MOL0     C84679   4.625   2.255   4.472 -0.1488 -0.0300  0.3690
  628MOL0     C84680   4.568   2.138   4.415 -0.5860 -0.8545 -0.0231
  628MOL0     O84681   4.548   2.119   4.279  0.0597 -0.7802 -0.2111
  628MOL0     C84682   4.446   2.204   4.225  0.0250  0.7292 -0.1605
  628MOL0     C84683   4.305   2.171   4.274  0.6463  0.0545 -0.6330
  628MOL0     C84684   4.204   2.243   4.198  0.6483  0.1509  0.9594
  628MOL0     C84685   4.166   2.186   4.061  0.6230 -0.3958 -0.5091
  628MOL0     C84686   4.045   2.255   4.000  0.7574  0.4837  0.3835
  628MOL0     C84687   3.992   2.179   3.878 -0.3403  0.1296 -0.4065
  628MOL0     C84688   4.081   2.194   3.759 -0.4989 -0.5741  0.2681
  628MOL0     C84689   4.084   2.066   3.675  0.4787  0.9955 -0.2007
  628MOL0    Cl84690   3.924   2.002   3.632  0.5508 -0.0708  0.4952
  628MOL0     C84691   4.538   2.035   4.511 -0.1942  0.5961  0.3318
  628MOL0     C84692   4.565   2.047   4.645  0.0253  0.6417  0.4995
  628MOL0     O84693   4.454   2.301   4.838 -0.1377 -0.1098  0.0733
  628MOL0     C84694   4.565   2.106   5.086 -0.8028 -0.8595 -0.6758
  628MOL0     C84695   4.561   2.088   5.225 -0.9267 -0.0503 -0.5849
  628MOL0     N84696   4.138   2.135   5.958  0.2555 -0.5752 -0.5517
  628MOL0     N84697   4.051   2.061   6.021 -0.0494  0.6623  0.0776
  628MOL0     C84698   3.683   1.920   6.954  0.1941 -0.4722 -0.4879
  628MOL0     C84699   3.640   1.922   7.084 -0.0669 -0.5922 -0.2332
  628MOL0     C84700   3.504   1.796   7.493 -0.4672 -0.4458  0.1123
  628MOL0     C84701   3.404   1.722   7.554 -0.7544 -0.7602  0.7985
  628MOL0     C84702   3.391   1.721   7.691  0.4194  0.0675  0.1829
  628MOL0     C84703   3.467   1.802   7.778 -0.1816 -0.5206  0.6892
  628MOL0     O84704   3.473   1.800   7.913  1.0174  0.2753 -0.1928
  628MOL0     C84705   3.355   1.752   7.976 -0.0795  0.5725 -0.7237
  628MOL0     C84706   3.337   1.809   8.122  0.1066  0.3460  0.7947
  628MOL0     C84707   3.222   1.753   8.220  0.3064 -0.5652  0.1362
  628MOL0     C84708   3.178   1.602   8.193 -0.3624 -1.2722  0.1395
  628MOL0     C84709   3.055   1.575   8.269  1.0355 -0.0261 -0.3538
  628MOL0     C84710   2.945   1.571   8.323  0.4306  0.3032  0.0217
  628MOL0     C84711   3.558   1.887   7.713 -0.1699 -0.2983 -0.2525
  628MOL0     C84712   3.568   1.884   7.576  0.7405  0.0861  0.6950
  628MOL0     H84713   3.859   1.726   7.250 -1.8086  0.0076  1.4360
  628MOL0     H84714   3.962   1.744   7.016 -2.0377 -0.7134 -1.6978
  628MOL0     H84715   4.063   1.882   6.818  0.0405 -1.8651  0.6175
  628MOL0     H84716   4.006   1.729   6.783 -1.0308  0.8022  0.7665
  628MOL0     H84717   3.961   1.978   6.602  2.0729  1.6893 -0.4454
  628MOL0     H84718   4.086   1.866   6.566 -1.7924  0.1001 -2.7545
  628MOL0     H84719   3.828   1.720   6.559 -1.1273 -0.0641 -1.3975
  628MOL0     H84720   3.845   1.858   6.451  2.4805  2.2607  0.0389
  628MOL0     H84721   4.061   1.797   6.371 -3.3477  3.1797 -1.1772
  628MOL0     H84722   4.061   1.638   6.470  0.4317 -1.1396 -2.6489
  628MOL0     H84723   3.898   1.537   6.350  1.6307 -0.2977  2.7532
  628MOL0     H84724   3.846   1.689   6.268  1.0704 -0.0420 -2.4759
  628MOL0     H84725   4.091   1.522   6.219  0.7071  2.5089  3.0545
  628MOL0     H84726   3.963   1.551   6.099  1.9795  0.4203 -2.9292
  628MOL0     H84727   4.177   1.754   6.200 -0.9438  1.3103 -0.0049
  628MOL0     H84728   4.175   1.668   6.049  1.2077  4.2128 -0.6376
  628MOL0     H84729   3.934   1.832   6.119 -1.3575 -2.9770  0.1685
  628MOL0     H84730   3.993   1.759   5.969  4.8463 -0.5162 -1.1302
  628MOL0     H84731   4.294   1.860   5.977  2.3425  2.2073  1.6606
  628MOL0     H84732   4.386   2.217   5.899  1.2902 -0.3079 -0.1209
  628MOL0     H84733   4.461   2.062   5.935  0.4535  0.7873  1.9732
  628MOL0     H84734   4.345   2.189   5.675 -0.3597 -2.0515 -2.3252
  628MOL0     H84735   4.313   2.023   5.679 -0.4202  0.4352 -3.3675
  628MOL0     H84736   4.562   1.977   5.717 -1.4596 -0.7012 -0.7159
  628MOL0     H84737   4.585   2.152   5.703  0.6436  0.3353 -1.6568
  628MOL0     H84738   4.453   1.988   5.486  1.0267  0.9084 -2.0475
  628MOL0     H84739   4.628   2.005   5.486  0.7609  0.1515 -2.4028
  628MOL0     H84740   4.500   2.400   5.331  2.7065 -0.0472  1.1913
  628MOL0     H84741   4.507   2.494   4.976 -3.4174 -2.0301 -0.7213
  628MOL0     H84742   4.402   2.497   5.108  0.5282 -0.9484 -0.6356
  628MOL0     H84743   4.569   2.553   5.141  1.0026 -0.2423 -1.4958
  628MOL0     H84744   4.670   2.368   4.647  3.7088 -2.0724  0.8259
  628MOL0     H84745   4.652   2.339   4.408  1.6727 -1.1184 -0.3691
  628MOL0     H84746   4.458   2.308   4.255 -0.9418  0.6304  0.6019
  628MOL0     H84747   4.444   2.187   4.117 -2.4727  0.2403 -0.0854
  628MOL0     H84748   4.274   2.067   4.269 -3.0921  1.0760 -2.5180
  628MOL0     H84749   4.309   2.219   4.372  1.5234  1.1092 -1.1571
  628MOL0     H84750   4.226   2.349   4.183  0.8747 -0.1095 -0.8856
  628MOL0     H84751   4.111   2.245   4.256  1.1597  2.9547  1.8479
  628MOL0     H84752   4.253   2.193   3.995  0.5732  1.6483 -0.4310
  628MOL0     H84753   4.141   2.080   4.070  0.6513 -0.3978 -0.4597
  628MOL0     H84754   4.070   2.358   3.973  2.0383  0.2595  0.6288
  628MOL0     H84755   3.967   2.254   4.077 -0.8151  0.3906 -1.1404
  628MOL0     H84756   3.992   2.073   3.901 -1.5876 -0.0806 -1.2946
  628MOL0     H84757   3.890   2.212   3.859 -0.4295  0.8562  1.1845
  628MOL0     H84758   4.181   2.234   3.776  0.1689 -0.5087 -3.0919
  628MOL0     H84759   4.027   2.273   3.707 -1.7883 -0.9286  1.0225
  628MOL0     H84760   4.135   1.991   3.736 -2.0252 -0.9137 -0.3191
  628MOL0     H84761   4.136   2.082   3.580  2.0930 -3.4783 -0.3107
  628MOL0     H84762   4.498   1.937   4.488  0.6758 -0.4588  2.8810
  628MOL0     H84763   4.530   1.968   4.710 -0.2760 -3.0322 -3.6541
  628MOL0     H84764   4.560   2.023   5.016  1.6192 -1.3513 -0.3622
  628MOL0     H84765   4.561   1.984   5.256  1.9922  0.4268  1.4824
  628MOL0     H84766   3.632   1.984   6.882  4.0761  4.4111  0.5886
  628MOL0     H84767   3.545   1.973   7.098 -1.2381 -1.0239 -4.8823
  628MOL0     H84768   3.339   1.657   7.497 -0.9057 -0.5387  0.7199
  628MOL0     H84769   3.316   1.657   7.736  3.2486 -4.1722 -0.5722
  628MOL0     H84770   3.265   1.765   7.917 -1.3850  3.8875  1.6734
  628MOL0     H84771   3.380   1.646   7.989 -0.1943  0.6289  0.0148
  628MOL0     H84772   3.314   1.916   8.120 -0.3604  0.2560 -2.1773
  628MOL0     H84773   3.433   1.806   8.175  0.2405  0.4810  0.5565
  628MOL0     H84774   3.143   1.829   8.222  1.9560  1.2638  2.7225
  628MOL0     H84775   3.270   1.755   8.319  1.2323  2.1299 -0.2808
  628MOL0     H84776   3.260   1.534   8.219 -0.1386 -1.3271 -0.6880
  628MOL0     H84777   3.157   1.593   8.086 -0.9331 -0.1353  0.1416
  628MOL0     H84778   2.848   1.565   8.368 -0.1689 -2.1869 -1.3869
  628MOL0     H84779   3.605   1.966   7.772 -0.4971 -2.2416  2.8606
  628MOL0     H84780   3.636   1.953   7.526  3.2335 -2.0343  0.9238
  629MOL0     O84781   1.439   7.456   7.755  0.1217  1.0572  0.1285
  629MOL0     C84782   1.383   7.510   7.853 -0.2822 -0.6186 -0.0763
  629MOL0     O84783   1.289   7.616   7.842  0.8570  1.2451 -0.1713
  629MOL0     C84784   1.267   7.669   7.719 -0.2348  0.3339 -0.4092
  629MOL0     C84785   1.137   7.656   7.672  0.7434 -1.1478  0.0186
  629MOL0     C84786   1.100   7.701   7.550 -0.2222  0.0087 -0.4077
  629MOL0     C84787   1.201   7.744   7.464  0.2243  0.2061  0.2632
  629MOL0     O84788   1.170   7.757   7.329  0.2213  0.4736 -0.5640
  629MOL0     C84789   1.273   7.756   7.230 -0.2340  0.4992  0.6964
  629MOL0     C84790   1.306   7.609   7.192 -0.2697  0.0117  0.4147
  629MOL0     C84791   1.389   7.605   7.054 -0.0159  0.3194 -0.1518
  629MOL0     C84792   1.475   7.486   7.051 -1.5302  0.3604 -0.0961
  629MOL0     C84793   1.571   7.473   6.927  0.1241 -0.5210  0.2120
  629MOL0     C84794   1.667   7.356   6.926 -0.7381  0.1659 -0.4301
  629MOL0     C84795   1.725   7.334   6.791 -0.8030 -0.2754  0.6234
  629MOL0     C84796   1.810   7.210   6.789 -0.0470 -0.0505  0.0040
  629MOL0     N84797   1.917   7.214   6.876  0.1116  0.8260  0.4995
  629MOL0     C84798   2.032   7.281   6.845 -0.1088  0.3554 -0.5900
  629MOL0     C84799   2.101   7.285   6.963 -0.3457  0.4960  1.2882
  629MOL0     C84800   2.232   7.357   6.965  1.2127  1.2127 -0.4204
  629MOL0     C84801   2.223   7.500   7.024 -0.3739 -0.3760 -0.3950
  629MOL0     C84802   2.212   7.616   6.916 -0.3446 -0.1473 -1.4219
  629MOL0     C84803   2.198   7.749   6.997 -0.8952 -0.4301  0.7517
  629MOL0     O84804   2.201   7.865   6.907  0.3673  0.6231  0.7823
  629MOL0     C84805   2.109   7.853   6.800 -0.2959 -0.9429 -0.1445
  629MOL0     C84806   1.976   7.819   6.819  0.0026 -0.2018 -0.4236
  629MOL0     C84807   1.878   7.815   6.716 -0.1026  0.6099 -1.0533
  629MOL0     C84808   1.742   7.769   6.747 -0.1040  0.7712  0.1215
  629MOL0     C84809   1.923   7.866   6.589 -0.6028 -0.4661 -0.1008
  629MOL0     C84810   1.838   7.865   6.472 -0.1031 -0.8703 -0.1482
  629MOL0     O84811   1.881   7.888   6.345  0.0050 -0.7756  0.5183
  629MOL0     C84812   1.801   7.868   6.231  0.3385 -0.9464  0.7464
  629MOL0     C84813   1.728   7.974   6.167 -0.2845  0.4526 -0.5056
  629MOL0     C84814   1.650   7.948   6.052 -0.7829  0.1346  0.4797
  629MOL0     C84815   1.625   7.813   6.005 -0.4916 -0.3438  0.1457
  629MOL0     O84816   1.556   7.780   5.892 -0.0156  0.9165  0.3199
  629MOL0     C84817   1.445   7.871   5.862 -0.6204  0.5567 -0.2933
  629MOL0     C84818   1.381   7.813   5.731  0.4135 -0.0262 -0.2532
  629MOL0     C84819   1.261   7.892   5.691 -0.6112 -0.5899  0.8860
  629MOL0     C84820   1.141   7.867   5.787 -1.0706  0.8146 -0.6243
  629MOL0     C84821   1.024   7.960   5.754 -0.2505  0.6365  0.1186
  629MOL0     C84822   0.909   7.937   5.856  0.0548 -0.5814 -0.5077
  629MOL0     C84823   0.785   8.025   5.824  0.0782 -0.3405 -0.2214
  629MOL0     C84824   0.685   8.042   5.944 -0.4887  0.1701 -0.3242
  629MOL0    Cl84825   0.607   7.893   5.997 -0.0585  0.0121  1.1130
  629MOL0     C84826   1.695   7.713   6.076 -0.1757 -0.1891  1.6162
  629MOL0     C84827   1.784   7.741   6.177 -0.0300 -0.3818 -0.7951
  629MOL0     O84828   1.722   7.857   6.493 -1.1898 -0.1371  0.1288
  629MOL0     C84829   2.057   7.908   6.567 -0.2561 -0.1385 -0.1608
  629MOL0     C84830   2.152   7.895   6.676  0.0160  0.1628  0.9779
  629MOL0     N84831   2.044   7.203   7.054 -0.9318 -0.1243  0.0674
  629MOL0     N84832   1.930   7.177   7.004 -0.4644 -0.9511 -0.0326
  629MOL0     C84833   1.340   7.754   7.496 -0.2029  0.2982  0.3975
  629MOL0     C84834   1.370   7.710   7.629 -1.3353 -0.9981 -1.0965
  629MOL0     C84835   1.409   7.448   7.992 -1.0691  0.7463  0.1482
  629MOL0     C84836   1.304   7.459   8.089 -0.5770 -0.3774  0.1302
  629MOL0     C84837   1.327   7.394   8.211 -0.4210 -0.5750  0.1692
  629MOL0     C84838   1.454   7.337   8.235  0.0267 -0.1539 -0.4347
  629MOL0     O84839   1.462   7.277   8.358 -0.0469  0.3565  0.0726
  629MOL0     C84840   1.588   7.240   8.401  0.1344  0.1593  0.1815
  629MOL0     C84841   1.581   7.191   8.543 -0.5393  0.7166 -0.5080
  629MOL0     C84842   1.466   7.088   8.556  0.5960  0.5584 -0.2895
  629MOL0     C84843   1.464   7.014   8.702 -0.2656 -0.6555  0.9312
  629MOL0     C84844   1.385   7.095   8.801 -0.4177 -0.4761  0.4030
  629MOL0     C84845   1.320   7.169   8.868 -0.2319  0.2979  0.1307
  629MOL0     C84846   1.560   7.341   8.144 -0.7804 -0.5622  0.3595
  629MOL0     C84847   1.534   7.395   8.018  0.2659  0.5123  0.6238
  629MOL0     H84848   1.067   7.609   7.741 -0.4140  0.2189 -0.1789
  629MOL0     H84849   0.997   7.686   7.519  0.0031 -0.8648 -0.7522
  629MOL0     H84850   1.240   7.794   7.133 -0.3510  0.2443  0.6351
  629MOL0     H84851   1.358   7.819   7.259  0.3627 -1.3982  3.5269
  629MOL0     H84852   1.371   7.564   7.267 -0.9159  0.8654  1.5091
  629MOL0     H84853   1.208   7.561   7.188 -1.6495  2.6855 -0.2769
  629MOL0     H84854   1.305   7.598   6.984 -1.0346  1.1370  0.9599
  629MOL0     H84855   1.450   7.694   7.033  2.0759 -1.4549 -2.2171
  629MOL0     H84856   1.526   7.469   7.146 -2.1511  0.5684  0.2778
  629MOL0     H84857   1.403   7.404   7.046 -0.8957 -0.3452  1.7374
  629MOL0     H84858   1.499   7.481   6.845 -1.0767  2.7363  1.4111
  629MOL0     H84859   1.625   7.567   6.913  0.4445 -0.9761 -2.0559
  629MOL0     H84860   1.738   7.352   7.009  1.4224  0.9374 -2.1362
  629MOL0     H84861   1.609   7.264   6.937  1.2185 -1.2749 -1.5665
  629MOL0     H84862   1.651   7.322   6.711 -1.3352 -1.5591  1.2712
  629MOL0     H84863   1.783   7.423   6.766  2.0270 -2.3406 -0.7474
  629MOL0     H84864   1.843   7.202   6.684 -0.0898  1.0336 -0.0983
  629MOL0     H84865   1.763   7.113   6.809  1.2225 -0.4502  1.2226
  629MOL0     H84866   2.066   7.323   6.751  2.7675 -1.8320 -0.6778
  629MOL0     H84867   2.286   7.292   7.033  0.3063 -3.3666 -3.5957
  629MOL0     H84868   2.280   7.352   6.867  2.4735 -0.8503  0.2468
  629MOL0     H84869   2.319   7.529   7.068 -1.7816  3.9397  0.2505
  629MOL0     H84870   2.140   7.504   7.095  1.8541 -0.5157  2.3724
  629MOL0     H84871   2.124   7.601   6.854 -0.5679  0.0125 -1.1458
  629MOL0     H84872   2.299   7.633   6.852 -1.3995  2.0884 -2.3707
  629MOL0     H84873   2.277   7.755   7.072  2.6896 -4.2246 -2.2437
  629MOL0     H84874   2.110   7.744   7.061  0.7156 -1.1028  3.0213
  629MOL0     H84875   1.946   7.787   6.918 -1.3283  0.7007 -0.5203
  629MOL0     H84876   1.741   7.728   6.849  2.1187  1.2659  0.3871
  629MOL0     H84877   1.682   7.860   6.745  1.8974  2.1528  0.2405
  629MOL0     H84878   1.711   7.701   6.667  3.6355  1.4426 -2.0909
  629MOL0     H84879   1.735   8.072   6.214  1.3320  0.8919 -1.6012
  629MOL0     H84880   1.622   8.043   6.009 -0.2602 -0.5592 -1.5466
  629MOL0     H84881   1.387   7.885   5.954  3.6842 -0.5807  2.9191
  629MOL0     H84882   1.487   7.966   5.829  2.5572 -0.6501  0.0128
  629MOL0     H84883   1.448   7.826   5.645 -1.6739 -2.8566 -2.5194
  629MOL0     H84884   1.359   7.706   5.736 -1.1832  0.3359  1.7507
  629MOL0     H84885   1.240   7.867   5.586  2.9900  0.8950 -0.3304
  629MOL0     H84886   1.292   7.997   5.698  2.0003 -1.2334  0.0606
  629MOL0     H84887   1.106   7.763   5.783 -4.4218  1.8427 -1.2022
  629MOL0     H84888   1.188   7.887   5.884  2.1193 -1.1590 -1.6157
  629MOL0     H84889   0.983   7.916   5.664 -0.5728 -1.1689  1.1121
  629MOL0     H84890   1.054   8.064   5.735  1.0046  0.2852  0.0978
  629MOL0     H84891   0.868   7.835   5.858 -1.9058  0.1381 -1.4653
  629MOL0     H84892   0.942   7.966   5.956 -3.1421 -1.3707  0.8985
  629MOL0     H84893   0.725   7.971   5.750 -1.3158  1.5117 -0.5279
  629MOL0     H84894   0.822   8.125   5.800  1.5133  0.5316  4.5036
  629MOL0     H84895   0.610   8.104   5.894  1.3380  1.6074 -1.4495
  629MOL0     H84896   0.725   8.081   6.038 -4.7992  1.3699  1.2641
  629MOL0     H84897   1.691   7.608   6.051  0.2470 -0.4418  2.5834
  629MOL0     H84898   1.835   7.656   6.221  2.2349  1.6446  0.7211
  629MOL0     H84899   2.091   7.952   6.474  3.3691  0.7133  1.3740
  629MOL0     H84900   2.256   7.905   6.646 -0.4339  1.6723 -0.1900
  629MOL0     H84901   1.418   7.790   7.430 -0.8847  2.9396  0.8984
  629MOL0     H84902   1.475   7.700   7.653 -2.2668 -0.3674  4.8384
  629MOL0     H84903   1.201   7.492   8.089 -0.3675  0.5981  3.4362
  629MOL0     H84904   1.248   7.387   8.285 -2.5677  3.5358 -1.4148
  629MOL0     H84905   1.627   7.172   8.325  0.3449  3.3672 -2.8501
  629MOL0     H84906   1.658   7.324   8.408  0.0499  0.1877  0.7324
  629MOL0     H84907   1.548   7.268   8.613 -1.1528 -2.7338  3.3385
  629MOL0     H84908   1.681   7.157   8.571 -0.3466  0.6878 -1.2074
  629MOL0     H84909   1.474   7.016   8.474 -0.1932  1.5155 -1.2272
  629MOL0     H84910   1.373   7.142   8.538  0.7612  1.6446  1.8007
  629MOL0     H84911   1.569   6.993   8.727  0.1531  1.9838  1.6930
  629MOL0     H84912   1.417   6.917   8.684  0.0046 -0.2742 -2.6891
  629MOL0     H84913   1.260   7.237   8.924 -0.9223 -0.4571  0.3262
  629MOL0     H84914   1.660   7.308   8.170 -0.1293  3.2363  3.7885
  629MOL0     H84915   1.606   7.406   7.938 -2.2907  1.1762 -1.7580
  630MOL0     O84916  10.333   7.110   8.797  0.0189  0.0687  0.8526
  630MOL0     C84917  10.362   7.226   8.816 -0.2084 -0.7143  0.5434
  630MOL0     O84918  10.295   7.338   8.772 -0.0614 -0.2586 -0.5470
  630MOL0     C84919  10.192   7.330   8.689  0.5749 -0.1024 -0.2961
  630MOL0     C84920  10.185   7.445   8.614 -0.1493  0.1342  0.0384
  630MOL0     C84921  10.073   7.465   8.535 -0.0594  1.2829  0.3030
  630MOL0     C84922   9.965   7.384   8.546  0.2431  1.2885  0.3059
  630MOL0     O84923   9.866   7.424   8.456  0.4493  0.1938 -0.4747
  630MOL0     C84924   9.739   7.349   8.452 -0.8468 -0.6362  0.0191
  630MOL0     C84925   9.729   7.286   8.315 -0.2650  0.8368  1.1150
  630MOL0     C84926   9.660   7.149   8.331  0.0061  0.2260  0.7645
  630MOL0     C84927   9.661   7.086   8.192  0.3500 -0.1642  0.1321
  630MOL0     C84928   9.578   6.966   8.187 -0.0302  1.2446 -0.6574
  630MOL0     C84929   9.553   6.916   8.049 -0.0345 -0.1157  0.2373
  630MOL0     C84930   9.451   7.008   7.980 -0.3364 -0.0722 -0.0587
  630MOL0     C84931   9.306   6.981   8.027 -0.3773 -0.4305 -0.1490
  630MOL0     N84932   9.210   7.070   7.959  0.3785 -0.2915  0.3129
  630MOL0     C84933   9.231   7.206   7.924  0.1457  1.3150  0.0772
  630MOL0     C84934   9.118   7.251   7.883 -0.2837  0.5189  0.0654
  630MOL0     C84935   9.092   7.384   7.842 -0.8257  0.4280  0.4358
  630MOL0     C84936   9.106   7.484   7.958 -0.0302 -0.5598 -0.2657
  630MOL0     C84937   9.170   7.603   7.909 -0.2448 -0.2794  0.7428
  630MOL0     C84938   9.095   7.704   7.809  0.0698  0.8945 -0.5192
  630MOL0     O84939   8.950   7.717   7.851  0.2912  0.2681 -0.7660
  630MOL0     C84940   8.885   7.833   7.811  0.7050  0.1084  0.0112
  630MOL0     C84941   8.746   7.824   7.793 -0.0992 -0.1267 -0.2523
  630MOL0     C84942   8.665   7.922   7.743 -0.7024  0.2915  0.2255
  630MOL0     C84943   8.519   7.901   7.724  0.1555  0.1269 -0.0676
  630MOL0     C84944   8.738   8.035   7.694  0.9387 -0.0950  0.0890
  630MOL0     C84945   8.673   8.145   7.606 -0.2459  0.7904 -0.1068
  630MOL0     O84946   8.727   8.266   7.598 -0.8039  0.2154  0.0969
  630MOL0     C84947   8.688   8.367   7.512  0.5199  1.2978  0.7487
  630MOL0     C84948   8.664   8.348   7.369 -0.3552  0.2751 -0.1922
  630MOL0     C84949   8.627   8.460   7.291 -0.7883  0.9853 -0.2916
  630MOL0     C84950   8.587   8.579   7.348 -0.7045 -0.2746 -0.5212
  630MOL0     O84951   8.534   8.686   7.280 -0.3408 -0.0834 -0.7215
  630MOL0     C84952   8.438   8.667   7.170  0.0924 -0.2276 -0.7428
  630MOL0     C84953   8.385   8.801   7.117 -0.3801 -0.3915 -0.1064
  630MOL0     C84954   8.496   8.892   7.043 -0.5862 -0.1200  0.3723
  630MOL0     C84955   8.480   9.041   7.071  0.2984  0.6897 -0.0323
  630MOL0     C84956   8.559   9.129   6.970 -0.3472  0.9909  0.1474
  630MOL0     C84957   8.552   9.286   6.996  0.2240  0.1555 -0.6091
  630MOL0     C84958   8.623   9.349   6.873 -0.5845 -0.0099 -0.5874
  630MOL0     C84959   8.638   9.495   6.883  1.0342  0.1547  0.1986
  630MOL0    Cl84960   8.670   9.561   6.724 -0.2688 -0.2341  0.2538
  630MOL0     C84961   8.607   8.596   7.488 -0.1061  0.0671  0.9707
  630MOL0     C84962   8.660   8.493   7.563 -1.1867 -0.1584  0.4799
  630MOL0     O84963   8.566   8.108   7.552  0.3482 -0.1413  0.9016
  630MOL0     C84964   8.871   8.061   7.720 -0.3798  0.7180 -1.1589
  630MOL0     C84965   8.952   7.961   7.782  0.3576  0.1415  0.2521
  630MOL0     N84966   9.028   7.146   7.878 -0.0212 -0.0692 -0.3501
  630MOL0     N84967   9.085   7.038   7.912 -0.4180 -0.2540 -0.6315
  630MOL0     C84968   9.978   7.257   8.605 -0.1240 -0.5122  0.0928
  630MOL0     C84969  10.090   7.231   8.684 -0.2064 -0.5255 -0.3592
  630MOL0     C84970  10.467   7.248   8.923  0.2957 -1.2995  0.1316
  630MOL0     C84971  10.473   7.378   8.970 -1.4364 -0.1193  0.3816
  630MOL0     C84972  10.573   7.408   9.058  0.8508 -0.4826 -0.4076
  630MOL0     C84973  10.651   7.307   9.111  0.1743  0.6326  1.3270
  630MOL0     O84974  10.738   7.354   9.202  0.0940 -1.4246  0.2175
  630MOL0     C84975  10.868   7.304   9.210 -0.6434 -0.3723 -0.0752
  630MOL0     C84976  10.967   7.418   9.257 -0.2820  0.8094 -0.4577
  630MOL0     C84977  11.114   7.369   9.250 -0.0814  0.0095 -0.1765
  630MOL0     C84978  11.208   7.469   9.187  0.6909 -0.0386  0.0411
  630MOL0     C84979  11.346   7.416   9.191  0.1160 -0.1074 -0.5383
  630MOL0     C84980  11.463   7.377   9.194  1.0194 -1.0986 -0.1977
  630MOL0     C84981  10.632   7.175   9.081  0.2609  0.5755 -0.2081
  630MOL0     C84982  10.539   7.142   8.984 -0.6613  0.1281  0.3755
  630MOL0     H84983  10.256   7.526   8.629 -0.8741  0.9210 -0.6182
  630MOL0     H84984  10.067   7.558   8.480  2.2087 -0.1789 -2.7741
  630MOL0     H84985   9.729   7.287   8.541 -2.6920 -1.1637 -0.5136
  630MOL0     H84986   9.668   7.432   8.456  0.7398  0.7246  2.7036
  630MOL0     H84987   9.676   7.353   8.246 -2.4290 -0.8240  1.0728
  630MOL0     H84988   9.829   7.270   8.275 -0.9144 -1.2061  0.1825
  630MOL0     H84989   9.711   7.078   8.396 -1.7194 -0.9787  0.8609
  630MOL0     H84990   9.559   7.163   8.370 -1.5680  3.0188 -3.6135
  630MOL0     H84991   9.633   7.160   8.118 -1.4337 -0.0351  0.9004
  630MOL0     H84992   9.766   7.062   8.168  0.7328  0.8223  0.7608
  630MOL0     H84993   9.630   6.886   8.240  1.4868  2.2844 -0.4970
  630MOL0     H84994   9.487   6.994   8.241  0.3797  0.4671  0.4676
  630MOL0     H84995   9.641   6.906   7.985  0.5199 -3.0547  1.2972
  630MOL0     H84996   9.518   6.812   8.048  0.9733 -0.4598 -0.1934
  630MOL0     H84997   9.468   7.115   7.987 -1.9552  0.1676  0.7774
  630MOL0     H84998   9.456   6.989   7.872 -1.1153 -2.1710  0.2169
  630MOL0     H84999   9.300   7.008   8.133  1.3258  1.0090 -0.3802
  630MOL0     H85000   9.268   6.878   8.021 -1.3476 -0.0585 -0.6603
  630MOL0     H85001   9.318   7.270   7.933  1.1894 -0.0227 -0.1780
  630MOL0     H85002   9.153   7.403   7.753 -3.1287 -0.5694 -1.4903
  630MOL0     H85003   8.986   7.390   7.814 -1.1034  0.3052  1.4326
  630MOL0     H85004   9.172   7.454   8.040  0.2704  3.4752  1.1843
  630MOL0     H85005   9.008   7.496   8.005 -0.1178  1.3432 -0.8585
  630MOL0     H85006   9.268   7.579   7.867  0.1889  2.0353  0.3233
  630MOL0     H85007   9.177   7.666   7.997 -1.3446  2.9321 -1.2835
  630MOL0     H85008   9.088   7.670   7.705 -2.4648  0.9124 -0.4097
  630MOL0     H85009   9.151   7.795   7.830 -0.4195  1.2990 -0.9593
  630MOL0     H85010   8.707   7.727   7.823  1.0981 -0.4299  0.3859
  630MOL0     H85011   8.458   7.989   7.747 -1.4358 -1.5125  2.5515
  630MOL0     H85012   8.488   7.878   7.622 -3.1368  2.5123  0.1994
  630MOL0     H85013   8.484   7.827   7.797  1.7732  1.0056  1.6856
  630MOL0     H85014   8.672   8.249   7.325 -1.9618  1.1174 -2.5202
  630MOL0     H85015   8.616   8.453   7.183  2.0871  5.8138 -1.1420
  630MOL0     H85016   8.493   8.618   7.089  4.3871 -0.7392  2.1460
  630MOL0     H85017   8.352   8.606   7.198  1.4169 -1.8292 -0.0225
  630MOL0     H85018   8.298   8.787   7.052 -1.4124 -0.4520  1.2397
  630MOL0     H85019   8.357   8.857   7.207  0.7018  1.7473 -1.0283
  630MOL0     H85020   8.488   8.883   6.934  2.4848  0.4813  0.0083
  630MOL0     H85021   8.599   8.855   7.047  0.1607  1.5390 -1.7637
  630MOL0     H85022   8.378   9.073   7.047  0.5866 -0.1133 -2.6986
  630MOL0     H85023   8.520   9.054   7.172  0.0372 -0.4888  0.2306
  630MOL0     H85024   8.525   9.109   6.868  0.2654 -0.1075  0.1302
  630MOL0     H85025   8.663   9.093   6.977 -0.5379  0.6328  1.4516
  630MOL0     H85026   8.445   9.308   7.005  0.7240  2.7812 -0.2990
  630MOL0     H85027   8.594   9.316   7.091 -2.0900 -3.5103  1.8580
  630MOL0     H85028   8.570   9.333   6.778  0.4252 -2.4410 -0.8205
  630MOL0     H85029   8.725   9.311   6.867 -1.0120 -0.9918 -2.6421
  630MOL0     H85030   8.731   9.508   6.939  1.9907 -1.0101 -1.0577
  630MOL0     H85031   8.552   9.535   6.938 -0.4978 -2.9468  0.2355
  630MOL0     H85032   8.585   8.693   7.532  2.1702  1.0204  0.1906
  630MOL0     H85033   8.692   8.509   7.666  0.7876 -5.3243  0.9460
  630MOL0     H85034   8.918   8.154   7.687  1.5348 -0.1831 -1.1011
  630MOL0     H85035   9.057   7.959   7.808  0.7425  1.0396 -1.0781
  630MOL0     H85036   9.910   7.172   8.602  1.8146 -2.1779  0.6729
  630MOL0     H85037  10.082   7.135   8.734 -2.6573 -0.9310 -1.3303
  630MOL0     H85038  10.421   7.465   8.932  0.6573  1.1607  0.2482
  630MOL0     H85039  10.586   7.512   9.088 -2.3723 -0.8519  3.0157
  630MOL0     H85040  10.873   7.226   9.286 -1.5764  1.2556  1.7386
  630MOL0     H85041  10.893   7.268   9.110  0.4253 -1.9668  0.7361
  630MOL0     H85042  10.930   7.449   9.356 -1.8802  1.6437 -1.2807
  630MOL0     H85043  10.972   7.501   9.186  3.6782  0.1732 -1.1355
  630MOL0     H85044  11.117   7.280   9.186  1.7614  0.6173 -1.0218
  630MOL0     H85045  11.148   7.345   9.351  1.1519 -1.4167 -0.8805
  630MOL0     H85046  11.211   7.564   9.241  0.2432  0.4828 -0.8196
  630MOL0     H85047  11.182   7.491   9.083 -0.7594  2.6775  0.8938
  630MOL0     H85048  11.569   7.366   9.192  1.6670  3.0840  0.6480
  630MOL0     H85049  10.693   7.097   9.125  0.0213  1.5906  2.0618
  630MOL0     H85050  10.531   7.037   8.956 -1.7401  0.6209 -1.2933
  631MOL0     O85051   8.131   5.477  10.030  0.4954  0.1578 -0.6717
  631MOL0     C85052   8.042   5.437  10.097  0.0074  0.6276  0.6130
  631MOL0     O85053   8.049   5.389  10.221  0.3677  0.5265  0.1882
  631MOL0     C85054   8.168   5.364  10.285  0.4838 -1.0235 -0.0028
  631MOL0     C85055   8.161   5.362  10.421  0.6709  0.4546 -0.7707
  631MOL0     C85056   8.267   5.326  10.503 -1.0643 -0.0297  0.8828
  631MOL0     C85057   8.391   5.297  10.442  0.3695 -0.2426 -0.8140
  631MOL0     O85058   8.492   5.233  10.500 -0.0508  0.3915 -0.1334
  631MOL0     C85059   8.516   5.271  10.638 -0.1791 -1.1028 -0.1478
  631MOL0     C85060   8.643   5.201  10.681  0.5244  0.5433 -0.1015
  631MOL0     C85061   8.701   5.260  10.811 -1.0465  0.3188 -0.2077
  631MOL0     C85062   8.824   5.182  10.853 -0.2639 -0.9563 -0.0159
  631MOL0     C85063   8.895   5.266  10.961  0.5187  0.0167 -0.8381
  631MOL0     C85064   8.987   5.191  11.061  1.1431  0.0495 -0.1751
  631MOL0     C85065   9.075   5.091  10.997 -0.3441 -0.0289  0.1606
  631MOL0     C85066   9.177   5.036  11.098 -0.5600  0.3074  0.4331
  631MOL0     N85067   9.141   4.913  11.169  0.0162 -0.5114  0.2142
  631MOL0     C85068   9.166   4.788  11.116  1.1263  0.0018  0.3774
  631MOL0     C85069   9.105   4.697  11.202 -0.6896 -1.5447  0.0509
  631MOL0     C85070   9.112   4.549  11.189 -0.3873  0.0825 -0.2384
  631MOL0     C85071   9.010   4.502  11.074 -0.3635 -0.7412 -0.2888
  631MOL0     C85072   9.098   4.434  10.962 -0.1838 -0.4421 -0.7241
  631MOL0     C85073   9.170   4.534  10.877  0.6517  0.1226  0.6092
  631MOL0     O85074   9.081   4.632  10.843 -0.4303 -0.0124  0.1715
  631MOL0     C85075   9.011   4.647  10.727  0.5279 -0.3150 -0.6443
  631MOL0     C85076   9.015   4.562  10.616  0.1559  0.1618 -0.2682
  631MOL0     C85077   8.928   4.584  10.502 -1.5491  0.8611 -0.6838
  631MOL0     C85078   8.956   4.501  10.385  1.0733 -1.0430  0.3262
  631MOL0     C85079   8.831   4.688  10.518  0.8603  1.5839  1.4331
  631MOL0     C85080   8.727   4.706  10.408  0.4034 -0.0926 -0.1216
  631MOL0     O85081   8.656   4.818  10.416  0.2797 -0.6921 -0.2249
  631MOL0     C85082   8.538   4.828  10.341  0.7584 -1.0567 -0.1991
  631MOL0     C85083   8.456   4.724  10.295  1.1762 -0.6733  0.6056
  631MOL0     C85084   8.349   4.758  10.208  0.0588  0.4935 -0.4969
  631MOL0     C85085   8.315   4.887  10.186 -1.1248  0.6078  0.7902
  631MOL0     O85086   8.222   4.934  10.102 -0.1265  0.1302 -0.5844
  631MOL0     C85087   8.089   4.877  10.109 -0.3482 -0.6052  0.2587
  631MOL0     C85088   7.982   4.986  10.102  0.2457 -0.7260  0.7812
  631MOL0     C85089   7.836   4.934  10.102 -0.0556 -0.5324 -0.1665
  631MOL0     C85090   7.738   5.031  10.178 -0.0189  0.3366 -0.1443
  631MOL0     C85091   7.590   4.996  10.152 -0.1032 -0.2527 -0.3717
  631MOL0     C85092   7.486   5.084  10.229 -0.3208 -0.4216  0.4125
  631MOL0     C85093   7.341   5.060  10.190  0.4523 -0.0851 -0.6526
  631MOL0     C85094   7.271   5.193  10.228  0.6579 -0.2588  0.9996
  631MOL0    Cl85095   7.311   5.350  10.140 -0.3077  0.5501 -0.6301
  631MOL0     C85096   8.393   4.988  10.236  0.0832 -0.1478  0.6488
  631MOL0     C85097   8.506   4.962  10.306  0.8612 -0.0829  1.0277
  631MOL0     O85098   8.711   4.611  10.329 -0.4695 -0.4261  0.8429
  631MOL0     C85099   8.832   4.774  10.625 -0.1970 -0.0656  0.3059
  631MOL0     C85100   8.911   4.745  10.730  0.2592  0.0470  0.0942
  631MOL0     N85101   9.034   4.779  11.293  0.2846 -0.1338  0.2640
  631MOL0     N85102   9.062   4.906  11.279 -0.2303  0.4837  0.6248
  631MOL0     C85103   8.404   5.321  10.315 -0.3938 -0.2206  0.0843
  631MOL0     C85104   8.301   5.347  10.225 -0.4827 -0.7619 -0.3596
  631MOL0     C85105   7.909   5.462  10.042 -0.2002 -0.3589  0.3273
  631MOL0     C85106   7.794   5.422  10.103  0.1393  0.0776  1.1252
  631MOL0     C85107   7.668   5.430  10.047 -0.4284 -0.3119  1.6376
  631MOL0     C85108   7.659   5.499   9.921  1.2809  0.0341  0.2968
  631MOL0     O85109   7.528   5.497   9.875  0.8749 -0.5080  0.3750
  631MOL0     C85110   7.484   5.604   9.794  1.4783 -0.0104  0.5288
  631MOL0     C85111   7.528   5.743   9.846 -0.2778 -0.2421  0.1626
  631MOL0     C85112   7.442   5.855   9.781  0.0686 -0.0353 -0.2274
  631MOL0     C85113   7.488   5.993   9.830 -0.1300 -0.5595 -0.4591
  631MOL0     C85114   7.390   6.102   9.800 -0.2205  0.3834  1.7013
  631MOL0     C85115   7.319   6.188   9.762  0.0429  0.7120  0.1114
  631MOL0     C85116   7.776   5.555   9.859 -0.1671  0.2168  0.5474
  631MOL0     C85117   7.899   5.532   9.919 -0.1431  0.6096  0.0159
  631MOL0     H85118   8.063   5.377  10.465  0.5043  0.1473 -1.0334
  631MOL0     H85119   8.248   5.304  10.608 -0.7315  2.2632  1.4854
  631MOL0     H85120   8.533   5.378  10.652 -2.0879 -1.1468  4.0003
  631MOL0     H85121   8.432   5.255  10.705 -2.6097 -0.1175 -2.7580
  631MOL0     H85122   8.613   5.099  10.707 -1.5820  1.2483  0.3934
  631MOL0     H85123   8.714   5.210  10.598  0.0868  1.1884 -0.4045
  631MOL0     H85124   8.735   5.360  10.781  0.9211  0.4676  2.1583
  631MOL0     H85125   8.630   5.268  10.893 -1.2238 -0.8035 -0.2445
  631MOL0     H85126   8.795   5.095  10.912 -2.4957 -0.6252 -0.5095
  631MOL0     H85127   8.892   5.155  10.772  0.6345  0.7830  0.1045
  631MOL0     H85128   8.961   5.325  10.897 -2.3210  2.9779 -1.2590
  631MOL0     H85129   8.823   5.331  11.011  1.2252 -0.3836  0.7774
  631MOL0     H85130   9.044   5.269  11.111  0.8495 -1.2156  2.2803
  631MOL0     H85131   8.921   5.144  11.135  0.1733  2.9305  0.9268
  631MOL0     H85132   9.005   5.016  10.959 -0.0865  0.9634 -2.5001
  631MOL0     H85133   9.114   5.135  10.904 -2.7791  0.7629 -0.5880
  631MOL0     H85134   9.213   5.109  11.171 -1.9984  0.6554  0.8304
  631MOL0     H85135   9.264   5.012  11.036  1.8393  4.1523  1.9740
  631MOL0     H85136   9.230   4.760  11.033  1.8118  0.5020  0.7228
  631MOL0     H85137   9.218   4.527  11.174  0.0923  0.3756  2.1783
  631MOL0     H85138   9.086   4.488  11.276 -0.4548  1.3802  0.6868
  631MOL0     H85139   8.943   4.580  11.037 -2.1475 -2.5148 -0.9767
  631MOL0     H85140   8.946   4.423  11.114  1.5411 -1.6280  1.1874
  631MOL0     H85141   9.033   4.364  10.909 -2.1265 -0.2378  1.2663
  631MOL0     H85142   9.184   4.386  11.010  1.0931  2.0290 -0.4109
  631MOL0     H85143   9.211   4.472  10.797  0.6071  0.8513  0.0020
  631MOL0     H85144   9.255   4.579  10.929  0.9163  1.0872 -0.5942
  631MOL0     H85145   9.097   4.492  10.604  2.4439  2.6111  0.2967
  631MOL0     H85146   8.873   4.435  10.359 -0.5531  1.5929 -1.5412
  631MOL0     H85147   8.957   4.561  10.294 -1.0294 -1.0677  0.2386
  631MOL0     H85148   9.054   4.452  10.376  0.2197 -2.9125  0.7692
  631MOL0     H85149   8.461   4.619  10.320 -0.3351 -0.9443 -0.1280
  631MOL0     H85150   8.296   4.673  10.168 -2.2304  0.4722  2.2541
  631MOL0     H85151   8.095   4.801  10.030 -0.1760  0.8095 -1.1330
  631MOL0     H85152   8.077   4.823  10.204 -0.6752  0.1714  0.6703
  631MOL0     H85153   7.994   5.060  10.181 -1.0539 -0.6949  0.9777
  631MOL0     H85154   8.003   5.054  10.019  2.0266  1.9325  3.2104
  631MOL0     H85155   7.827   4.838  10.152 -0.3189 -1.1933 -1.4511
  631MOL0     H85156   7.788   4.925  10.004 -3.0657 -1.2479  1.2490
  631MOL0     H85157   7.770   5.026  10.282  4.9760  1.1463 -1.3992
  631MOL0     H85158   7.740   5.134  10.141  0.7285  0.2524 -0.3440
  631MOL0     H85159   7.581   4.889  10.174 -0.0652 -0.3164 -0.6678
  631MOL0     H85160   7.574   5.011  10.045  2.5401 -0.0299 -0.8027
  631MOL0     H85161   7.499   5.072  10.337  0.5354 -1.6957  0.1890
  631MOL0     H85162   7.504   5.191  10.214 -0.8271 -0.2230  1.1955
  631MOL0     H85163   7.292   4.979  10.245 -1.6709  0.9473 -0.9006
  631MOL0     H85164   7.334   5.045  10.082  0.5016 -1.6989 -0.4570
  631MOL0     H85165   7.295   5.208  10.333  3.5991  2.0787  0.1416
  631MOL0     H85166   7.164   5.181  10.207  1.1038 -0.9313 -1.1701
  631MOL0     H85167   8.364   5.091  10.214 -0.1049 -0.3671 -0.1692
  631MOL0     H85168   8.552   5.052  10.347 -1.5583  1.9896 -0.4841
  631MOL0     H85169   8.768   4.861  10.633  2.8105  2.6869 -2.3560
  631MOL0     H85170   8.900   4.819  10.808  1.3170  1.1926 -0.8098
  631MOL0     H85171   8.505   5.302  10.279  0.0622 -1.1390  1.7300
  631MOL0     H85172   8.322   5.370  10.121 -1.1836 -1.2610 -0.6221
  631MOL0     H85173   7.801   5.364  10.195  1.1522  0.8159  1.5389
  631MOL0     H85174   7.582   5.387  10.097  1.2067 -3.9922  1.5949
  631MOL0     H85175   7.498   5.588   9.686  2.0252  1.2599  0.3916
  631MOL0     H85176   7.376   5.592   9.797  1.4541 -1.4084 -2.4096
  631MOL0     H85177   7.633   5.761   9.823  0.6031 -2.3413  2.2334
  631MOL0     H85178   7.511   5.765   9.952  0.0533  0.5374  0.0650
  631MOL0     H85179   7.337   5.833   9.803 -0.2065 -1.9518 -2.9405
  631MOL0     H85180   7.440   5.843   9.673 -1.3373  4.8619 -0.9861
  631MOL0     H85181   7.582   6.022   9.781 -0.1999  0.1001 -0.2064
  631MOL0     H85182   7.515   5.988   9.936  4.1651 -1.1645 -1.3718
  631MOL0     H85183   7.267   6.261   9.704  0.3653  0.5611 -0.3745
  631MOL0     H85184   7.766   5.602   9.761  0.1280 -2.0195 -0.6219
  631MOL0     H85185   7.983   5.578   9.868  1.2941  0.8731  2.4424
  632MOL0     O85186   8.099  10.273   9.461  0.1080  0.2539 -0.3070
  632MOL0     C85187   7.978  10.292   9.442 -0.7329 -0.1619 -0.8730
  632MOL0     O85188   7.902  10.365   9.527 -0.0784  0.3615 -0.1704
  632MOL0     C85189   7.926  10.375   9.659 -0.0299  0.6271  0.3657
  632MOL0     C85190   7.997  10.283   9.746  0.6614 -0.2888  0.2813
  632MOL0     C85191   8.006  10.309   9.888  0.6075  0.0033  0.5482
  632MOL0     C85192   7.933  10.405   9.948 -0.4799  0.5536 -0.0724
  632MOL0     O85193   7.947  10.432  10.084  0.3293 -0.4403 -1.1638
  632MOL0     C85194   8.000  10.342  10.179 -0.1088  0.2818  0.0912
  632MOL0     C85195   7.992  10.388  10.321 -0.4819 -0.3653 -0.1286
  632MOL0     C85196   8.088  10.506  10.338  0.8118 -0.7844 -0.5534
  632MOL0     C85197   8.242  10.471  10.334 -0.4964  0.4760 -0.3632
  632MOL0     C85198   8.334  10.585  10.392 -0.7431  0.3787 -0.4253
  632MOL0     C85199   8.359  10.697  10.286  0.2893 -0.3481 -0.4001
  632MOL0     C85200   8.426  10.820  10.349  0.5005  0.1950 -0.1615
  632MOL0     C85201   8.434  10.930  10.237 -0.7847 -0.0470 -0.0250
  632MOL0     N85202   8.484  11.060  10.278 -0.1975  0.3110  0.6708
  632MOL0     C85203   8.464  11.113  10.406  0.0217  0.0244  0.2857
  632MOL0     C85204   8.515  11.235  10.414 -0.2612 -0.0736 -0.0044
  632MOL0     C85205   8.520  11.342  10.524 -0.4380 -0.6418 -0.0682
  632MOL0     C85206   8.371  11.360  10.550 -0.5378  0.6012  0.8843
  632MOL0     C85207   8.356  11.465  10.655 -0.1986 -0.0935  0.8209
  632MOL0     C85208   8.214  11.499  10.674 -0.8834 -0.2321  0.1666
  632MOL0     O85209   8.122  11.391  10.702  0.4352 -0.3166 -0.1810
  632MOL0     C85210   7.988  11.425  10.723 -0.6510  0.5142 -0.4943
  632MOL0     C85211   7.913  11.320  10.768 -1.3585  0.4087 -0.3393
  632MOL0     C85212   7.775  11.335  10.793 -0.4189 -0.7820  0.1145
  632MOL0     C85213   7.698  11.212  10.842 -0.6759  0.5403  0.5578
  632MOL0     C85214   7.705  11.461  10.767  0.4461  0.1373  0.3368
  632MOL0     C85215   7.563  11.506  10.803  0.7328 -0.2481 -0.2699
  632MOL0     O85216   7.529  11.629  10.745  0.7201  0.7936  0.0799
  632MOL0     C85217   7.393  11.659  10.734 -0.7985 -0.3350  0.0521
  632MOL0     C85218   7.322  11.626  10.622 -0.5426 -0.4562 -0.0846
  632MOL0     C85219   7.192  11.664  10.596 -0.4343  0.4674 -0.4339
  632MOL0     C85220   7.121  11.707  10.703  0.3206 -0.5074 -0.4539
  632MOL0     O85221   6.985  11.726  10.695 -0.5890 -0.7006  0.1162
  632MOL0     C85222   6.908  11.602  10.708 -0.1713  0.2786 -0.1330
  632MOL0     C85223   6.847  11.604  10.850 -0.1288  0.5855  0.2882
  632MOL0     C85224   6.777  11.475  10.884 -0.2171  0.1206  0.4810
  632MOL0     C85225   6.751  11.453  11.038 -0.7758 -0.1812  0.0378
  632MOL0     C85226   6.859  11.351  11.093  0.0295 -0.3352  1.2767
  632MOL0     C85227   7.014  11.377  11.066 -0.1849 -0.7141 -0.5667
  632MOL0     C85228   7.068  11.487  11.145 -0.0053 -0.6398 -0.7920
  632MOL0     C85229   7.186  11.438  11.223  0.5077  0.0600  0.6550
  632MOL0    Cl85230   7.126  11.349  11.367 -0.1038  0.4378 -0.4897
  632MOL0     C85231   7.191  11.754  10.819  0.5827 -0.0287 -0.4157
  632MOL0     C85232   7.331  11.724  10.841 -0.3092 -0.4270  0.2168
  632MOL0     O85233   7.496  11.440  10.878  0.0177  0.3450 -0.4261
  632MOL0     C85234   7.791  11.563  10.706 -0.2803 -0.8826 -0.0842
  632MOL0     C85235   7.929  11.545  10.694 -1.1978  0.0554 -0.5026
  632MOL0     N85236   8.571  11.255  10.294 -0.4940 -0.2840  0.2022
  632MOL0     N85237   8.570  11.146  10.219  0.2155 -0.6066 -0.3560
  632MOL0     C85238   7.855  10.495   9.871  0.2599 -0.4905 -0.7351
  632MOL0     C85239   7.858  10.489   9.724  0.4140  0.4910 -0.8569
  632MOL0     C85240   7.922  10.266   9.301 -0.0974  0.7531  0.5115
  632MOL0     C85241   8.002  10.205   9.196  0.1235  0.3927  0.5681
  632MOL0     C85242   7.950  10.184   9.065 -0.1159 -0.1448 -0.9408
  632MOL0     C85243   7.824  10.231   9.032  0.4937 -0.0750 -0.1085
  632MOL0     O85244   7.794  10.203   8.898  0.2404  0.4294  0.7255
  632MOL0     C85245   7.665  10.243   8.862 -0.0217 -0.2121  0.3089
  632MOL0     C85246   7.638  10.188   8.720 -0.3899 -0.0198 -1.4691
  632MOL0     C85247   7.521  10.090   8.727 -0.3687  0.7874  0.6672
  632MOL0     C85248   7.520   9.993   8.594 -0.3564  0.4459 -0.4494
  632MOL0     C85249   7.503  10.072   8.469  0.2728  0.0385 -0.7965
  632MOL0     C85250   7.483  10.154   8.384 -0.2967 -0.4100 -0.0947
  632MOL0     C85251   7.745  10.283   9.137  0.2860  0.1589  0.6687
  632MOL0     C85252   7.793  10.301   9.270  1.0152 -0.2024  0.2889
  632MOL0     H85253   8.054  10.202   9.700  0.7763  0.7926 -1.5647
  632MOL0     H85254   8.073  10.244   9.944  3.4431 -0.4807 -3.0042
  632MOL0     H85255   7.947  10.247  10.171  1.1927 -0.6139  1.6650
  632MOL0     H85256   8.107  10.330  10.160  0.0750 -1.7337  1.9971
  632MOL0     H85257   7.888  10.417  10.342 -0.4023 -0.2237  0.0743
  632MOL0     H85258   8.008  10.302  10.387 -2.6277 -2.2898 -1.9463
  632MOL0     H85259   8.054  10.588  10.276 -2.4908  0.4125  2.4610
  632MOL0     H85260   8.062  10.542  10.438  0.0842 -2.1769 -0.2088
  632MOL0     H85261   8.263  10.378  10.387 -3.2701  0.0723  0.1762
  632MOL0     H85262   8.260  10.447  10.229 -2.1190 -0.0345 -0.5539
  632MOL0     H85263   8.289  10.626  10.483 -1.8173 -1.8119  0.0967
  632MOL0     H85264   8.428  10.544  10.431 -2.0701 -0.5349  2.0013
  632MOL0     H85265   8.426  10.652  10.213  0.8713 -0.6632  0.3120
  632MOL0     H85266   8.264  10.728  10.242 -0.5047 -1.6756  0.3009
  632MOL0     H85267   8.369  10.857  10.435  0.5116  1.9640 -0.8767
  632MOL0     H85268   8.521  10.782  10.386  1.7433  1.0258 -2.3127
  632MOL0     H85269   8.329  10.945  10.207 -0.2234 -0.1630 -2.2412
  632MOL0     H85270   8.493  10.882  10.158 -1.9137 -1.9927  0.2591
  632MOL0     H85271   8.411  11.065  10.488  0.3873 -1.3778 -0.2658
  632MOL0     H85272   8.588  11.305  10.602 -0.5839 -1.8833 -0.5096
  632MOL0     H85273   8.557  11.435  10.478 -0.7356  2.6269  5.3944
  632MOL0     H85274   8.326  11.268  10.587  1.5712  0.2308  2.8111
  632MOL0     H85275   8.322  11.399  10.460  0.5410  3.1412  1.3160
  632MOL0     H85276   8.411  11.557  10.633  0.2814 -0.6125 -0.2212
  632MOL0     H85277   8.400  11.423  10.746 -1.5117  1.3885  2.1896
  632MOL0     H85278   8.198  11.531  10.571  0.7238 -2.2921 -0.7867
  632MOL0     H85279   8.203  11.587  10.738 -1.4060  1.2596 -1.8648
  632MOL0     H85280   7.971  11.228  10.777  0.1059  1.2817 -0.4656
  632MOL0     H85281   7.683  11.211  10.950  3.8610  1.1415  1.4285
  632MOL0     H85282   7.596  11.220  10.803  0.3655  0.7690 -2.3827
  632MOL0     H85283   7.752  11.124  10.806  1.9962  2.3491 -0.1755
  632MOL0     H85284   7.373  11.578  10.539 -1.0307  1.1833 -1.3939
  632MOL0     H85285   7.146  11.641  10.500 -1.7342  1.8521 -0.1760
  632MOL0     H85286   6.831  11.610  10.631  1.2792 -0.9198 -1.7899
  632MOL0     H85287   6.978  11.521  10.683  0.7150  0.3143  2.0312
  632MOL0     H85288   6.921  11.624  10.928  0.7761 -0.5615 -0.2534
  632MOL0     H85289   6.779  11.690  10.861 -1.6903 -0.9003  3.9788
  632MOL0     H85290   6.827  11.392  10.833 -0.6907  0.4548 -0.5776
  632MOL0     H85291   6.683  11.484  10.828 -1.5845 -3.9866  1.6941
  632MOL0     H85292   6.773  11.545  11.093 -1.5688 -0.1535  0.3230
  632MOL0     H85293   6.647  11.431  11.066 -0.3114 -0.2629  1.8704
  632MOL0     H85294   6.836  11.251  11.056 -1.2757  1.3304 -3.0062
  632MOL0     H85295   6.838  11.345  11.200  0.8047  1.6634  1.5947
  632MOL0     H85296   7.067  11.282  11.070  3.4026  1.1388 -0.6921
  632MOL0     H85297   7.040  11.409  10.965  2.9775  0.5322  0.5437
  632MOL0     H85298   7.000  11.521  11.224  1.3548  0.9894 -0.2509
  632MOL0     H85299   7.095  11.567  11.076 -1.3106 -1.2833 -2.0977
  632MOL0     H85300   7.244  11.527  11.250  4.0618 -1.3628 -1.4870
  632MOL0     H85301   7.263  11.379  11.171 -0.9263 -0.0265 -1.5016
  632MOL0     H85302   7.135  11.808  10.895 -1.7561 -3.7005  0.7374
  632MOL0     H85303   7.387  11.746  10.931 -3.0448  2.3738  1.4168
  632MOL0     H85304   7.746  11.654  10.666  1.1629 -0.3231 -0.5043
  632MOL0     H85305   7.991  11.628  10.663 -1.7516 -0.1368 -2.1980
  632MOL0     H85306   7.804  10.576   9.922  0.3127 -1.5909  1.1182
  632MOL0     H85307   7.812  10.568   9.666 -0.5506  1.7512  1.4765
  632MOL0     H85308   8.101  10.186   9.237 -0.1124  2.7695  2.4793
  632MOL0     H85309   7.998  10.134   8.981 -0.1490 -0.8394 -0.5459
  632MOL0     H85310   7.598  10.191   8.932 -0.6812 -1.9510 -1.5244
  632MOL0     H85311   7.659  10.353   8.861 -0.6948 -0.1576  2.8190
  632MOL0     H85312   7.731  10.149   8.676 -0.0230 -0.8257 -0.0554
  632MOL0     H85313   7.601  10.272   8.660 -2.0579  0.3467 -0.0111
  632MOL0     H85314   7.418  10.125   8.735 -1.1075 -0.4799 -2.0808
  632MOL0     H85315   7.535  10.030   8.817  0.1814  2.9856  2.1155
  632MOL0     H85316   7.441   9.918   8.608 -1.6152  1.9022  0.5459
  632MOL0     H85317   7.614   9.938   8.591  0.5061  1.6974  1.7851
  632MOL0     H85318   7.458  10.212   8.297 -2.3469 -0.4558  0.4220
  632MOL0     H85319   7.648  10.322   9.108  0.6308 -0.7537 -1.9817
  632MOL0     H85320   7.727  10.329   9.352 -3.2172 -4.5326 -1.1838
  633MOL0     O85321  11.219   3.457   1.263  0.2425 -0.3879  0.0072
  633MOL0     C85322  11.101   3.491   1.252  0.1292  0.3352  0.9077
  633MOL0     O85323  11.039   3.550   1.141 -0.6710 -0.0714 -0.0361
  633MOL0     C85324  11.121   3.547   1.022  1.2245  0.4646 -0.4143
  633MOL0     C85325  11.213   3.650   0.991  0.3919  0.5572  1.1201
  633MOL0     C85326  11.322   3.625   0.896  0.1865 -0.4605  0.2046
  633MOL0     C85327  11.324   3.511   0.821 -0.4431  0.8493  0.5872
  633MOL0     O85328  11.429   3.501   0.730  0.4623 -0.0634 -0.5215
  633MOL0     C85329  11.437   3.376   0.650 -0.3727  0.0665 -0.9283
  633MOL0     C85330  11.573   3.379   0.582  0.8675 -0.4400  0.3346
  633MOL0     C85331  11.681   3.371   0.699  0.0080 -0.2096  0.3121
  633MOL0     C85332  11.693   3.222   0.749 -0.0988  0.8573  0.3905
  633MOL0     C85333  11.776   3.202   0.874  0.6361 -0.3054 -0.2223
  633MOL0     C85334  11.792   3.048   0.912  0.7602 -0.6910  0.4950
  633MOL0     C85335  11.806   3.016   1.070  0.5310  0.1417  0.0925
  633MOL0     C85336  11.774   2.875   1.112  0.2846 -0.4572  0.3565
  633MOL0     N85337  11.854   2.769   1.067 -0.3235 -0.7599 -0.0434
  633MOL0     C85338  11.953   2.705   1.139 -0.8963 -0.3227 -0.2939
  633MOL0     C85339  12.002   2.601   1.064 -0.2979 -0.7623 -0.5287
  633MOL0     C85340  12.121   2.516   1.086 -0.6028  0.2198  0.2164
  633MOL0     C85341  12.136   2.449   1.225  0.7758  0.3554 -0.1812
  633MOL0     C85342  12.059   2.321   1.253 -0.0972  0.1956 -0.0418
  633MOL0     C85343  12.066   2.261   1.392 -0.3206  0.5220 -0.2391
  633MOL0     O85344  12.046   2.354   1.498  0.5090 -0.1034 -0.2762
  633MOL0     C85345  12.153   2.404   1.565 -0.6032 -0.0938 -0.4805
  633MOL0     C85346  12.289   2.413   1.524  0.0749  0.2158  0.0785
  633MOL0     C85347  12.388   2.472   1.606  1.2131  0.1249 -0.7877
  633MOL0     C85348  12.533   2.451   1.558 -0.1540 -0.0142 -0.0619
  633MOL0     C85349  12.350   2.524   1.730 -0.6556  0.2779  0.3229
  633MOL0     C85350  12.442   2.587   1.833  0.3959  0.1712  0.0505
  633MOL0     O85351  12.395   2.666   1.934  0.3563 -1.1908  0.1165
  633MOL0     C85352  12.450   2.661   2.063  1.0319  0.4602  0.4208
  633MOL0     C85353  12.483   2.777   2.124  0.7172 -0.1955 -0.3369
  633MOL0     C85354  12.542   2.785   2.246  0.1941  0.5346 -1.1005
  633MOL0     C85355  12.566   2.668   2.321 -0.1461 -0.7596  0.6481
  633MOL0     O85356  12.632   2.665   2.440  1.0730  0.0024  0.1279
  633MOL0     C85357  12.594   2.574   2.547  0.0492 -0.4295  0.2000
  633MOL0     C85358  12.670   2.606   2.672  0.1378 -0.0002  0.2595
  633MOL0     C85359  12.631   2.516   2.795  0.2636 -0.3679 -0.5154
  633MOL0     C85360  12.729   2.543   2.916 -0.2755  0.1411 -0.3582
  633MOL0     C85361  12.685   2.463   3.043 -0.3789  0.1996 -0.3727
  633MOL0     C85362  12.773   2.507   3.163  0.5386  0.0866  0.3339
  633MOL0     C85363  12.743   2.414   3.282  0.0506  0.3258  0.3364
  633MOL0     C85364  12.797   2.451   3.420  1.0021 -1.0826  0.5877
  633MOL0    Cl85365  12.719   2.598   3.489 -0.2074 -0.1630 -0.4863
  633MOL0     C85366  12.521   2.550   2.260 -0.4510  0.1620 -0.3401
  633MOL0     C85367  12.469   2.544   2.132 -0.1875 -0.8543  0.8268
  633MOL0     O85368  12.555   2.543   1.840  0.1162  0.6113  0.4049
  633MOL0     C85369  12.212   2.527   1.763 -0.2099 -0.8389  0.0197
  633MOL0     C85370  12.121   2.458   1.685 -0.2896  0.8175  0.0596
  633MOL0     N85371  11.931   2.601   0.946  0.8978 -0.4684 -0.3103
  633MOL0     N85372  11.840   2.695   0.951  0.1950 -0.2313  0.4786
  633MOL0     C85373  11.229   3.409   0.844 -0.0310 -0.3473 -0.4863
  633MOL0     C85374  11.130   3.427   0.947 -0.2033  0.1001  0.4277
  633MOL0     C85375  11.013   3.489   1.372  0.0410 -0.1074 -0.6366
  633MOL0     C85376  10.890   3.556   1.385  0.3385  0.0082  0.8658
  633MOL0     C85377  10.804   3.546   1.493  0.0071  0.9502 -0.5504
  633MOL0     C85378  10.841   3.461   1.596 -0.7084 -0.5817 -0.3952
  633MOL0     O85379  10.753   3.440   1.704 -0.2345 -0.7288 -0.3081
  633MOL0     C85380  10.796   3.494   1.835 -0.3590 -0.2821  0.0318
  633MOL0     C85381  10.721   3.409   1.938 -0.6705 -1.2099  0.1255
  633MOL0     C85382  10.770   3.443   2.085  0.5516  0.7937  0.0337
  633MOL0     C85383  10.643   3.418   2.181 -0.8708 -0.0741  0.8835
  633MOL0     C85384  10.671   3.360   2.315  0.0322 -1.2914  0.6771
  633MOL0     C85385  10.688   3.307   2.417 -0.3513 -0.0935 -0.6933
  633MOL0     C85386  10.958   3.383   1.589  0.0492  0.2430  0.6026
  633MOL0     C85387  11.053   3.398   1.478 -0.4417  0.1783 -0.0103
  633MOL0     H85388  11.187   3.739   1.047  0.0686 -0.3004  2.3987
  633MOL0     H85389  11.388   3.705   0.864  0.8401 -0.9063  0.4166
  633MOL0     H85390  11.445   3.293   0.720  5.8397  2.2980  1.7404
  633MOL0     H85391  11.351   3.381   0.583  0.0161 -1.3871 -1.5635
  633MOL0     H85392  11.578   3.303   0.504 -3.9001  0.2148 -0.9657
  633MOL0     H85393  11.580   3.471   0.523 -3.9834  0.9128  1.4133
  633MOL0     H85394  11.767   3.422   0.654 -1.6753 -0.1640 -3.1779
  633MOL0     H85395  11.653   3.426   0.790 -0.6862  0.3044 -0.2039
  633MOL0     H85396  11.594   3.179   0.761 -0.4765  1.2122 -1.1752
  633MOL0     H85397  11.731   3.160   0.667 -0.4931  1.7421 -0.4925
  633MOL0     H85398  11.876   3.242   0.856  0.0659  0.2240 -2.5156
  633MOL0     H85399  11.726   3.260   0.952  0.3916  1.6677 -1.7744
  633MOL0     H85400  11.699   3.001   0.879 -1.6330  4.6612 -1.6483
  633MOL0     H85401  11.870   2.999   0.853 -0.9409 -2.2291 -0.6099
  633MOL0     H85402  11.909   3.038   1.098  0.8509  1.1029 -1.6760
  633MOL0     H85403  11.741   3.078   1.131  2.1201  0.1871  1.8169
  633MOL0     H85404  11.677   2.862   1.062 -0.3812 -0.9527  1.7219
  633MOL0     H85405  11.766   2.862   1.221  0.2917 -0.9952  0.2954
  633MOL0     H85406  12.006   2.732   1.229 -0.0771  1.7873 -1.3486
  633MOL0     H85407  12.128   2.431   1.016 -1.1320 -1.4090  2.0537
  633MOL0     H85408  12.207   2.576   1.055  0.3711 -2.9335 -4.3428
  633MOL0     H85409  12.104   2.536   1.283 -0.1711  0.8309 -1.3805
  633MOL0     H85410  12.242   2.423   1.237  0.5746  0.7641  3.4821
  633MOL0     H85411  12.095   2.247   1.181  0.0040 -0.4868  0.6897
  633MOL0     H85412  11.951   2.324   1.238 -0.3407 -0.0526  1.5290
  633MOL0     H85413  12.161   2.210   1.405 -1.0948 -0.5282  1.8729
  633MOL0     H85414  11.999   2.175   1.398  1.0977 -0.7761 -2.1285
  633MOL0     H85415  12.308   2.373   1.425 -2.4034 -3.0507  0.7523
  633MOL0     H85416  12.531   2.380   1.475 -0.2326  0.2429 -0.2817
  633MOL0     H85417  12.586   2.538   1.520 -0.7653  1.4570  2.2652
  633MOL0     H85418  12.601   2.405   1.630  1.8213  0.5923 -1.4466
  633MOL0     H85419  12.472   2.875   2.078 -0.9602  0.5253  1.4397
  633MOL0     H85420  12.573   2.873   2.301  0.1434 -1.4053  2.3205
  633MOL0     H85421  12.488   2.597   2.558 -0.0327  1.3072 -2.9104
  633MOL0     H85422  12.621   2.471   2.519 -0.6193 -0.2663 -1.1531
  633MOL0     H85423  12.774   2.592   2.641  0.4737  1.9104  0.4445
  633MOL0     H85424  12.642   2.705   2.707  1.4967  1.2750 -2.0062
  633MOL0     H85425  12.632   2.408   2.778 -1.4192 -0.4602 -0.1731
  633MOL0     H85426  12.535   2.554   2.832  1.4497  1.3396  1.0236
  633MOL0     H85427  12.822   2.505   2.873 -1.1409 -0.9190 -1.3481
  633MOL0     H85428  12.733   2.651   2.933 -2.5917  0.5851 -2.0313
  633MOL0     H85429  12.683   2.356   3.025  2.1370  0.2417 -1.4031
  633MOL0     H85430  12.586   2.497   3.073 -0.9489 -1.7405  0.0622
  633MOL0     H85431  12.879   2.511   3.135 -0.6244  0.8130 -5.1965
  633MOL0     H85432  12.747   2.606   3.200 -0.2527  0.8763 -2.1351
  633MOL0     H85433  12.768   2.312   3.252 -2.6513  0.1278 -1.6394
  633MOL0     H85434  12.633   2.415   3.289 -0.4238  2.2092 -4.0035
  633MOL0     H85435  12.900   2.475   3.394  1.0738  4.0195  4.0293
  633MOL0     H85436  12.803   2.365   3.488 -2.3937 -3.1101 -1.3751
  633MOL0     H85437  12.538   2.464   2.323  1.2313  1.8114  1.6380
  633MOL0     H85438  12.439   2.454   2.080 -0.8366 -0.3471  0.3035
  633MOL0     H85439  12.179   2.583   1.850 -3.5832  1.5756 -2.5205
  633MOL0     H85440  12.019   2.437   1.717  0.2800  0.1366  1.5216
  633MOL0     H85441  11.234   3.319   0.785 -4.8064 -0.2217 -1.5056
  633MOL0     H85442  11.068   3.345   0.982  0.9918 -0.9090  0.2324
  633MOL0     H85443  10.851   3.613   1.302 -3.6540 -1.8039  1.2702
  633MOL0     H85444  10.709   3.596   1.481  1.6740  4.1202 -1.7608
  633MOL0     H85445  10.904   3.489   1.847 -0.4797 -1.6598  0.6935
  633MOL0     H85446  10.771   3.600   1.845  0.1656 -0.2186  0.7288
  633MOL0     H85447  10.736   3.302   1.923  0.0944 -1.5714  2.8684
  633MOL0     H85448  10.614   3.428   1.932 -1.0846 -3.8497 -2.6704
  633MOL0     H85449  10.807   3.543   2.105 -1.1969  1.4849  0.0067
  633MOL0     H85450  10.839   3.364   2.119  2.0215  1.7110 -0.7307
  633MOL0     H85451  10.585   3.340   2.131  0.4257 -0.8155  0.4815
  633MOL0     H85452  10.577   3.505   2.178 -0.0383  0.5579 -2.7645
  633MOL0     H85453  10.693   3.255   2.511  0.7996 -0.2550 -0.8366
  633MOL0     H85454  10.992   3.315   1.667 -0.4709 -1.0456 -0.2669
  633MOL0     H85455  11.149   3.347   1.472 -1.7601 -2.4944  0.1106
  634MOL0     O85456   9.395   2.548   9.713  0.6270 -0.3946 -0.3712
  634MOL0     C85457   9.474   2.582   9.627  0.6375  0.0668 -0.1720
  634MOL0     O85458   9.436   2.660   9.524 -0.4880  0.1093 -0.4352
  634MOL0     C85459   9.303   2.674   9.504 -0.6554  0.0613  0.1666
  634MOL0     C85460   9.246   2.800   9.495  1.0648  0.6417 -0.0001
  634MOL0     C85461   9.107   2.820   9.479  0.4938  0.0115  0.2514
  634MOL0     C85462   9.031   2.704   9.446  0.0981  0.1525  0.2529
  634MOL0     O85463   8.903   2.737   9.399 -0.0391  0.5578 -0.3451
  634MOL0     C85464   8.827   2.652   9.311 -0.1526  0.7791 -0.5166
  634MOL0     C85465   8.751   2.725   9.207 -0.5810 -0.7567 -0.8369
  634MOL0     C85466   8.660   2.832   9.272 -0.0696 -0.1835 -0.9605
  634MOL0     C85467   8.591   2.923   9.168 -0.8795 -0.1511 -0.3385
  634MOL0     C85468   8.447   2.964   9.202 -0.1769 -0.1472  0.4087
  634MOL0     C85469   8.432   3.053   9.320 -0.4111 -0.4002 -0.0132
  634MOL0     C85470   8.287   3.088   9.366  0.0272 -0.3240  1.1519
  634MOL0     C85471   8.282   3.165   9.501 -0.6861 -1.0966  1.2194
  634MOL0     N85472   8.352   3.297   9.506 -0.9866  0.2912 -0.8857
  634MOL0     C85473   8.291   3.427   9.503 -0.5745 -0.3505  0.4826
  634MOL0     C85474   8.390   3.507   9.538  0.5136 -1.6389 -0.6015
  634MOL0     C85475   8.375   3.659   9.522  0.4044 -0.1135 -0.5794
  634MOL0     C85476   8.393   3.722   9.384  0.2145  0.2389 -0.9549
  634MOL0     C85477   8.266   3.750   9.300 -0.3737 -0.5486  0.2268
  634MOL0     C85478   8.173   3.838   9.372  0.5444  0.7538  0.0022
  634MOL0     O85479   8.069   3.869   9.281  0.2292  0.3485 -0.0066
  634MOL0     C85480   8.004   3.996   9.291 -0.4261  0.6094 -0.1435
  634MOL0     C85481   7.977   4.056   9.413  0.0476  0.4395  0.3888
  634MOL0     C85482   7.914   4.181   9.430  0.2098 -0.3575 -0.6321
  634MOL0     C85483   7.902   4.225   9.574  0.5347  0.0407  0.4606
  634MOL0     C85484   7.876   4.255   9.315 -0.2529 -0.2643 -0.4212
  634MOL0     C85485   7.799   4.382   9.325  0.0146  0.2175 -0.4187
  634MOL0     O85486   7.809   4.466   9.214  0.4426  0.0398  0.3797
  634MOL0     C85487   7.747   4.590   9.214 -0.3120 -0.2545  0.1039
  634MOL0     C85488   7.800   4.704   9.278  0.5837 -0.1462 -1.4856
  634MOL0     C85489   7.735   4.830   9.278 -0.3588  0.4731 -0.6339
  634MOL0     C85490   7.617   4.851   9.200  0.2220 -0.1953  0.1388
  634MOL0     O85491   7.571   4.982   9.173 -0.5517 -0.7252  1.1689
  634MOL0     C85492   7.464   4.992   9.074  0.8804 -0.0241 -0.0527
  634MOL0     C85493   7.447   5.141   9.049  1.3633 -0.1757 -0.1679
  634MOL0     C85494   7.332   5.176   8.950  0.3671 -0.0422 -0.8444
  634MOL0     C85495   7.199   5.177   9.022 -0.5082 -0.3903  0.3723
  634MOL0     C85496   7.116   5.286   8.974 -0.5076  0.7791 -0.2481
  634MOL0     C85497   7.126   5.404   9.073 -0.1179  0.8336  0.8156
  634MOL0     C85498   7.016   5.508   9.031 -0.6578 -0.8488  0.0424
  634MOL0     C85499   7.031   5.643   9.102 -0.2290  0.0341 -0.4818
  634MOL0    Cl85500   7.152   5.748   9.031  0.2964 -0.2801 -0.0162
  634MOL0     C85501   7.563   4.739   9.142 -0.1861 -0.1529 -0.2900
  634MOL0     C85502   7.617   4.605   9.152 -0.9506  0.0286 -0.7525
  634MOL0     O85503   7.717   4.388   9.422 -0.0540  0.1043  0.2228
  634MOL0     C85504   7.902   4.189   9.191 -0.7815 -0.1240 -0.3804
  634MOL0     C85505   7.975   4.068   9.185  0.7078  0.5869  0.9760
  634MOL0     N85506   8.499   3.434   9.552 -0.4490  0.3321 -0.4887
  634MOL0     N85507   8.481   3.309   9.539 -0.1280 -0.6513  0.1857
  634MOL0     C85508   9.080   2.572   9.449  0.3675  0.0385 -0.3409
  634MOL0     C85509   9.218   2.563   9.480 -0.5232  0.1679 -0.1248
  634MOL0     C85510   9.619   2.543   9.649  0.5089  0.1973 -0.4277
  634MOL0     C85511   9.721   2.602   9.569  0.3624  0.0518  0.5533
  634MOL0     C85512   9.855   2.576   9.604 -0.0536  0.4453  0.4134
  634MOL0     C85513   9.888   2.492   9.708 -0.2134  0.9509  0.7546
  634MOL0     O85514  10.018   2.461   9.732  0.1845 -0.4930  0.6385
  634MOL0     C85515  10.070   2.497   9.863 -0.1673 -0.6879 -0.2654
  634MOL0     C85516  10.169   2.607   9.846 -0.3316  0.4213  0.7997
  634MOL0     C85517  10.244   2.661   9.972 -0.3101  1.2711 -0.5519
  634MOL0     C85518  10.344   2.552  10.034  0.0642 -0.0993  0.0341
  634MOL0     C85519  10.448   2.503   9.937 -0.3212 -1.4496  0.9797
  634MOL0     C85520  10.532   2.461   9.855 -0.5340 -0.2360 -0.2791
  634MOL0     C85521   9.787   2.417   9.771  0.2427 -0.5782 -0.4206
  634MOL0     C85522   9.648   2.443   9.748  0.3690 -0.5995 -0.0421
  634MOL0     H85523   9.306   2.890   9.505  2.2073 -0.0619 -0.3783
  634MOL0     H85524   9.060   2.917   9.470  1.0812  0.2277 -0.6890
  634MOL0     H85525   8.891   2.576   9.265 -1.6824 -0.0380 -1.3808
  634MOL0     H85526   8.748   2.604   9.369  0.0369  2.3174  1.0868
  634MOL0     H85527   8.822   2.778   9.142  0.4418  1.4537  1.8744
  634MOL0     H85528   8.698   2.650   9.148 -1.4756  0.0194 -1.0433
  634MOL0     H85529   8.585   2.768   9.319 -0.1403  1.2438  0.9734
  634MOL0     H85530   8.701   2.894   9.352 -0.9600 -0.2068 -0.4788
  634MOL0     H85531   8.653   3.012   9.156  0.2370 -0.2725  3.3396
  634MOL0     H85532   8.595   2.860   9.079 -2.3231  0.0749 -0.5949
  634MOL0     H85533   8.392   3.014   9.121  0.4672  1.1773  0.7647
  634MOL0     H85534   8.406   2.867   9.229  0.5091  0.2804  3.2803
  634MOL0     H85535   8.487   3.006   9.401  2.7559  0.2274 -1.6559
  634MOL0     H85536   8.485   3.146   9.296 -0.0836 -0.7937 -0.8585
  634MOL0     H85537   8.240   3.155   9.293 -0.9917  2.0322  3.7855
  634MOL0     H85538   8.232   2.996   9.388  0.1081 -0.7564 -0.3072
  634MOL0     H85539   8.331   3.111   9.583 -0.8715 -1.1987  1.2642
  634MOL0     H85540   8.181   3.174   9.543  0.2106  0.5046  3.2012
  634MOL0     H85541   8.191   3.453   9.471  0.5999 -0.2785 -3.7344
  634MOL0     H85542   8.283   3.680   9.577  1.2144 -0.8023  1.1161
  634MOL0     H85543   8.460   3.702   9.575 -0.1563  0.0980  0.1631
  634MOL0     H85544   8.455   3.650   9.330  0.9588  1.4394 -1.7758
  634MOL0     H85545   8.452   3.813   9.399 -2.2247  1.5018  1.8546
  634MOL0     H85546   8.213   3.657   9.276 -1.4693  0.1268 -0.0389
  634MOL0     H85547   8.289   3.790   9.201 -2.8743 -0.4314 -0.3835
  634MOL0     H85548   8.218   3.927   9.417  0.3901  1.8409 -1.9215
  634MOL0     H85549   8.135   3.784   9.460  0.4233  0.9109  0.0476
  634MOL0     H85550   8.012   3.997   9.497  2.3663  2.3811  0.9160
  634MOL0     H85551   7.823   4.177   9.631 -2.9209  4.6703  0.1473
  634MOL0     H85552   7.982   4.173   9.627 -0.4691 -0.9811  1.0136
  634MOL0     H85553   7.909   4.334   9.580  0.1478  0.2846 -2.2640
  634MOL0     H85554   7.893   4.701   9.333 -0.9713  0.4007  1.3615
  634MOL0     H85555   7.792   4.917   9.309  2.2035 -0.9574 -1.0085
  634MOL0     H85556   7.497   4.947   8.979  1.7942  0.5935 -0.0327
  634MOL0     H85557   7.370   4.945   9.105  0.3420 -1.9965 -3.9923
  634MOL0     H85558   7.431   5.204   9.137  0.9581  1.6389 -1.4901
  634MOL0     H85559   7.536   5.184   9.004  0.4157  1.1387 -0.8460
  634MOL0     H85560   7.340   5.127   8.852  0.2932 -1.7754 -0.0094
  634MOL0     H85561   7.355   5.281   8.928 -1.4550 -0.2057 -4.3381
  634MOL0     H85562   7.160   5.084   8.980 -0.9399 -0.7852  1.6138
  634MOL0     H85563   7.208   5.172   9.131  2.7385  0.6614  0.2547
  634MOL0     H85564   7.013   5.254   8.963 -2.3185  6.1516 -2.4829
  634MOL0     H85565   7.156   5.318   8.877  3.5601 -1.3988  0.4581
  634MOL0     H85566   7.102   5.377   9.176  0.5736 -1.4873  0.4361
  634MOL0     H85567   7.228   5.442   9.069  0.0089  0.7795  2.7351
  634MOL0     H85568   6.918   5.477   9.067 -0.3900 -1.4090  0.2965
  634MOL0     H85569   7.014   5.525   8.923 -1.5308 -0.6213  0.0891
  634MOL0     H85570   7.047   5.616   9.206  0.7361 -4.3626 -1.5523
  634MOL0     H85571   6.932   5.687   9.086 -0.9459 -1.7199 -1.2216
  634MOL0     H85572   7.473   4.746   9.081  1.6391 -0.2227 -3.2212
  634MOL0     H85573   7.572   4.518   9.105  1.1107 -1.1976 -0.5831
  634MOL0     H85574   7.892   4.238   9.094  0.1374 -2.2152 -1.6100
  634MOL0     H85575   8.006   4.026   9.089  0.4723 -3.1020  2.3310
  634MOL0     H85576   9.012   2.488   9.437 -1.9172  1.7080  0.1025
  634MOL0     H85577   9.270   2.471   9.501  1.4823  1.5442  1.3879
  634MOL0     H85578   9.685   2.677   9.500  2.6485  0.4795 -0.2401
  634MOL0     H85579   9.917   2.645   9.548 -2.9246  1.3950 -1.8716
  634MOL0     H85580   9.991   2.526   9.933  0.5413 -0.1335  0.3300
  634MOL0     H85581  10.119   2.414   9.914  0.5304  1.3451  2.6278
  634MOL0     H85582  10.105   2.684   9.802 -1.3133 -0.4600  0.6313
  634MOL0     H85583  10.245   2.584   9.771 -0.7450  3.8582 -0.8535
  634MOL0     H85584  10.166   2.666  10.049 -0.2374  1.1076 -0.4669
  634MOL0     H85585  10.287   2.761   9.963 -0.9827  2.5116  5.5041
  634MOL0     H85586  10.289   2.472  10.085  0.0720  0.5773  1.1382
  634MOL0     H85587  10.397   2.606  10.114 -1.3938  0.5630  0.5845
  634MOL0     H85588  10.604   2.461   9.775  1.2213  1.2643  1.2012
  634MOL0     H85589   9.813   2.344   9.848 -2.7611  1.4630  2.8354
  634MOL0     H85590   9.576   2.401   9.818  1.3370  0.5240  1.7077
  635MOL0     O85591   3.948   7.636   5.090 -0.2732  0.0100  0.0334
  635MOL0     C85592   3.892   7.576   5.181 -0.8721 -1.2509 -0.7588
  635MOL0     O85593   3.953   7.477   5.270 -0.2552 -0.1821 -0.0844
  635MOL0     C85594   4.084   7.440   5.244 -0.2198 -0.3296 -0.1570
  635MOL0     C85595   4.145   7.425   5.119  0.6615  0.4925  0.8855
  635MOL0     C85596   4.283   7.390   5.113 -0.5880  0.4212  0.0002
  635MOL0     C85597   4.364   7.384   5.226  0.0951  0.9262  0.2876
  635MOL0     O85598   4.497   7.359   5.208  0.2790 -0.8334 -0.9721
  635MOL0     C85599   4.570   7.314   5.321 -0.0393 -0.7258 -0.5286
  635MOL0     C85600   4.717   7.288   5.284  0.2303 -0.1750 -0.0866
  635MOL0     C85601   4.802   7.263   5.410 -1.1009 -0.8615  0.2742
  635MOL0     C85602   4.910   7.147   5.401 -0.0796  0.3762  0.0982
  635MOL0     C85603   4.949   7.099   5.545  0.2332  0.1278 -0.4752
  635MOL0     C85604   5.057   6.994   5.564 -0.0047  0.2676  0.0604
  635MOL0     C85605   5.130   7.025   5.696 -0.2651  0.2731  0.2218
  635MOL0     C85606   5.056   6.961   5.811  0.4030  0.2322 -0.4532
  635MOL0     N85607   5.107   6.830   5.860 -0.3904  0.2639  0.0448
  635MOL0     C85608   5.074   6.715   5.800 -0.1525  0.6220  0.4870
  635MOL0     C85609   5.122   6.615   5.879 -0.1682  0.0915  0.2560
  635MOL0     C85610   5.116   6.463   5.855  0.1619 -0.3693  0.6627
  635MOL0     C85611   5.249   6.414   5.780  0.0069 -0.3809  0.4006
  635MOL0     C85612   5.266   6.474   5.637 -0.0748  0.6648  0.1308
  635MOL0     C85613   5.154   6.421   5.531  0.2810  0.4236 -0.2478
  635MOL0     O85614   5.122   6.535   5.450 -0.1919 -0.5044 -0.3606
  635MOL0     C85615   5.003   6.541   5.391  0.3971 -0.0480 -0.3706
  635MOL0     C85616   4.920   6.439   5.365 -0.1099  0.2263 -0.2073
  635MOL0     C85617   4.797   6.462   5.298  0.4250 -0.2909  0.0316
  635MOL0     C85618   4.712   6.342   5.262  0.3908  0.4037 -0.2078
  635MOL0     C85619   4.758   6.601   5.270 -0.2664  0.4517 -0.0082
  635MOL0     C85620   4.621   6.647   5.219  0.3562  0.3720  0.0825
  635MOL0     O85621   4.607   6.778   5.214 -0.3180 -0.1207  0.3268
  635MOL0     C85622   4.501   6.835   5.158 -0.8257 -0.7233 -0.3435
  635MOL0     C85623   4.408   6.769   5.059 -0.2909  0.2185  0.6041
  635MOL0     C85624   4.308   6.842   4.997  0.7019 -0.6541 -0.6876
  635MOL0     C85625   4.283   6.975   5.030  0.3988  0.1070 -1.0730
  635MOL0     O85626   4.185   7.055   4.991 -0.1495 -0.1814 -0.8751
  635MOL0     C85627   4.138   7.031   4.860  0.5668  0.3191  0.8722
  635MOL0     C85628   4.033   7.127   4.811 -0.2752 -0.6895  0.1108
  635MOL0     C85629   4.070   7.272   4.828  0.0133  0.3835 -0.0942
  635MOL0     C85630   4.056   7.354   4.699 -0.5791 -0.2880  0.1510
  635MOL0     C85631   4.064   7.504   4.718  0.8015  0.4264  0.5971
  635MOL0     C85632   4.111   7.594   4.595 -0.0510 -0.9464  0.0662
  635MOL0     C85633   4.067   7.547   4.454 -0.3445  0.7247 -0.1188
  635MOL0     C85634   4.161   7.586   4.338  0.1938 -0.6114  0.7374
  635MOL0    Cl85635   4.097   7.533   4.182  0.2957 -0.3092  0.3710
  635MOL0     C85636   4.358   7.032   5.127  0.1258 -0.4390 -0.3081
  635MOL0     C85637   4.475   6.967   5.183  0.9809  0.5356  0.0180
  635MOL0     O85638   4.530   6.562   5.219  0.0598 -0.1926 -0.3610
  635MOL0     C85639   4.852   6.701   5.294  0.5478 -0.3750 -1.0489
  635MOL0     C85640   4.980   6.666   5.344 -0.2502  0.3390 -0.0825
  635MOL0     N85641   5.173   6.669   5.997  0.0691  0.4021 -0.5063
  635MOL0     N85642   5.149   6.798   5.988 -0.0023  0.3337  0.5769
  635MOL0     C85643   4.304   7.410   5.346  0.4886  0.4139 -0.5035
  635MOL0     C85644   4.165   7.432   5.357 -0.2485 -0.1867  0.4923
  635MOL0     C85645   3.745   7.617   5.214 -0.8114 -0.0472 -0.0525
  635MOL0     C85646   3.659   7.531   5.284  0.0302  0.7573 -0.4934
  635MOL0     C85647   3.524   7.552   5.284 -0.8784  0.4737  1.3205
  635MOL0     C85648   3.471   7.668   5.221 -0.0726  0.4958  0.2967
  635MOL0     O85649   3.339   7.700   5.206  0.2821  0.4348 -0.2482
  635MOL0     C85650   3.245   7.604   5.262  0.8238 -0.6873  0.0603
  635MOL0     C85651   3.228   7.480   5.178 -0.4530 -0.3868 -1.1094
  635MOL0     C85652   3.157   7.363   5.256 -0.9379 -0.3215  0.2750
  635MOL0     C85653   3.146   7.243   5.155 -0.0505  0.0842 -0.5369
  635MOL0     C85654   3.093   7.124   5.234 -0.2787  0.5079  0.3024
  635MOL0     C85655   3.068   7.024   5.295  0.7388  0.0676 -0.4539
  635MOL0     C85656   3.563   7.752   5.164  0.3102  0.7334 -0.3761
  635MOL0     C85657   3.704   7.730   5.158  0.5680 -0.6101  0.4564
  635MOL0     H85658   4.089   7.451   5.030  0.5109  2.1204  1.4126
  635MOL0     H85659   4.326   7.370   5.016  1.0426  1.6293  0.4482
  635MOL0     H85660   4.561   7.383   5.406 -2.9386 -1.5047 -0.1049
  635MOL0     H85661   4.527   7.218   5.351  2.7650 -1.0416  3.2588
  635MOL0     H85662   4.733   7.206   5.214 -0.1125  0.4505 -0.9063
  635MOL0     H85663   4.756   7.380   5.240 -0.3387  0.5156  0.8182
  635MOL0     H85664   4.839   7.357   5.452 -0.4233 -0.5969 -0.8576
  635MOL0     H85665   4.734   7.224   5.485 -2.7995  2.0965  0.4189
  635MOL0     H85666   4.857   7.065   5.351 -0.7834  0.7556  0.2083
  635MOL0     H85667   4.995   7.178   5.339 -0.2413 -1.2067 -0.9614
  635MOL0     H85668   4.970   7.189   5.604 -0.1691 -1.0901  1.6424
  635MOL0     H85669   4.860   7.046   5.578  1.3864 -0.9530  1.0560
  635MOL0     H85670   5.014   6.893   5.568  1.5661 -0.4365 -0.1154
  635MOL0     H85671   5.121   6.997   5.476  0.6548  0.4518  0.5446
  635MOL0     H85672   5.237   7.000   5.693 -0.6727 -1.5637 -0.3972
  635MOL0     H85673   5.135   7.132   5.719 -0.3459  0.6197 -1.2626
  635MOL0     H85674   4.955   6.954   5.770 -0.1905 -0.3386  1.0494
  635MOL0     H85675   5.070   7.026   5.898  1.1653  1.2539 -1.3106
  635MOL0     H85676   5.009   6.705   5.714  2.1354 -0.6588 -1.2215
  635MOL0     H85677   5.110   6.420   5.955 -2.3044 -0.0685  0.6937
  635MOL0     H85678   5.020   6.441   5.806 -0.1504 -1.4771  1.7304
  635MOL0     H85679   5.266   6.306   5.785 -2.7263 -1.0680 -2.1125
  635MOL0     H85680   5.329   6.460   5.839  0.6339  2.2178 -2.2132
  635MOL0     H85681   5.369   6.450   5.608  0.3568  1.3137  1.0761
  635MOL0     H85682   5.275   6.581   5.655  2.2325  0.6124 -0.4049
  635MOL0     H85683   5.070   6.373   5.583 -0.5689  0.9094 -1.1427
  635MOL0     H85684   5.192   6.342   5.465  1.6931 -0.8855  1.9759
  635MOL0     H85685   4.954   6.336   5.377 -1.2872 -0.6610 -3.4657
  635MOL0     H85686   4.756   6.244   5.283  0.9431  0.3981 -1.3410
  635MOL0     H85687   4.619   6.346   5.319  0.2323 -0.8159 -0.3591
  635MOL0     H85688   4.688   6.325   5.157 -1.1787 -0.3065  0.2488
  635MOL0     H85689   4.430   6.666   5.030  0.6234  0.0506  1.8401
  635MOL0     H85690   4.235   6.800   4.927  0.7823  1.8432 -2.3874
  635MOL0     H85691   4.226   7.033   4.796  0.6536 -1.7475  0.8584
  635MOL0     H85692   4.083   6.936   4.856 -3.6597  2.5435  0.9806
  635MOL0     H85693   4.029   7.115   4.702  0.4100 -0.4274  0.0502
  635MOL0     H85694   3.942   7.091   4.859  0.6947 -4.5810 -0.6564
  635MOL0     H85695   4.177   7.262   4.847 -0.0989  4.3644  4.7659
  635MOL0     H85696   4.008   7.315   4.908  0.6255  0.3590  0.3964
  635MOL0     H85697   4.137   7.320   4.634  1.3179 -0.1144  2.3155
  635MOL0     H85698   3.955   7.337   4.660 -0.0339  0.2252 -1.5372
  635MOL0     H85699   4.132   7.522   4.802  0.0416 -1.7250  1.7334
  635MOL0     H85700   3.968   7.538   4.756  1.1247  0.1471  1.7140
  635MOL0     H85701   4.070   7.694   4.608  0.0256 -0.3427 -3.4307
  635MOL0     H85702   4.220   7.590   4.605  0.1176 -0.1594 -1.2367
  635MOL0     H85703   3.966   7.581   4.428  0.7041  1.8916 -3.0593
  635MOL0     H85704   4.066   7.437   4.452 -2.7017  0.6888 -2.0743
  635MOL0     H85705   4.262   7.544   4.342 -0.5438 -2.6043 -0.2041
  635MOL0     H85706   4.166   7.695   4.329 -1.1989 -0.5439  0.4824
  635MOL0     H85707   4.354   7.137   5.153  0.8141 -0.0787 -1.5721
  635MOL0     H85708   4.525   7.018   5.265  1.4847  3.7729 -2.1189
  635MOL0     H85709   4.843   6.806   5.268  0.6363  0.1303  0.8673
  635MOL0     H85710   5.054   6.743   5.359 -0.2725  0.7387 -1.8082
  635MOL0     H85711   4.368   7.420   5.433  1.0343  2.4596 -1.0916
  635MOL0     H85712   4.130   7.442   5.459 -0.5651 -1.2471  0.5002
  635MOL0     H85713   3.690   7.441   5.335  2.1396  1.3521 -0.6278
  635MOL0     H85714   3.462   7.474   5.327 -1.2471 -1.2078 -1.9410
  635MOL0     H85715   3.269   7.588   5.367  0.7189  3.5410  0.8736
  635MOL0     H85716   3.149   7.654   5.253  2.0733  1.7162 -0.7160
  635MOL0     H85717   3.329   7.443   5.159 -0.7176 -0.6595 -2.0313
  635MOL0     H85718   3.181   7.502   5.082 -0.6418 -0.3368 -1.0054
  635MOL0     H85719   3.056   7.397   5.285 -1.4404  1.4393 -3.0419
  635MOL0     H85720   3.214   7.335   5.345  0.0450  1.6815  0.3300
  635MOL0     H85721   3.249   7.220   5.126  0.6430 -0.4144  2.0262
  635MOL0     H85722   3.084   7.269   5.069  0.6260  2.4170 -0.3933
  635MOL0     H85723   3.049   6.943   5.364  2.0391 -1.6291 -1.9956
  635MOL0     H85724   3.526   7.845   5.122 -1.3830 -1.1401 -3.3983
  635MOL0     H85725   3.777   7.796   5.114  1.1557  0.4891  2.9211
  636MOL0     O85726   9.657   1.489   8.671 -0.3787  0.0939  0.4245
  636MOL0     C85727   9.704   1.473   8.785 -1.0015  0.5560 -0.4891
  636MOL0     O85728   9.639   1.459   8.896  0.2588  0.4648  0.1472
  636MOL0     C85729   9.500   1.470   8.890 -0.3741 -0.4154  0.2790
  636MOL0     C85730   9.441   1.597   8.921  0.2601 -0.0781  0.0442
  636MOL0     C85731   9.298   1.609   8.911  0.2960 -1.0095  0.6409
  636MOL0     C85732   9.215   1.495   8.873 -0.6834 -0.8673 -0.5809
  636MOL0     O85733   9.082   1.526   8.862 -0.2576 -0.4762 -0.5504
  636MOL0     C85734   8.995   1.419   8.858 -0.2498 -0.0082  0.4561
  636MOL0     C85735   8.851   1.451   8.920 -0.2704  0.0381 -0.0775
  636MOL0     C85736   8.857   1.481   9.069  0.3489 -0.1357  0.0057
  636MOL0     C85737   8.716   1.514   9.124  0.5728 -0.1678 -1.2536
  636MOL0     C85738   8.663   1.653   9.073  0.3137 -0.6533 -0.2870
  636MOL0     C85739   8.517   1.675   9.124 -0.5748 -0.1777  0.0019
  636MOL0     C85740   8.481   1.817   9.105  0.4056 -0.1896 -0.4238
  636MOL0     C85741   8.349   1.842   9.170  1.0655  0.6177 -0.6492
  636MOL0     N85742   8.312   1.982   9.175 -0.8174 -0.8243 -0.3273
  636MOL0     C85743   8.216   2.042   9.097  0.6816 -0.1089 -0.0186
  636MOL0     C85744   8.214   2.172   9.138 -0.0971  0.6271  1.0091
  636MOL0     C85745   8.120   2.279   9.084  0.2187  0.8255 -0.4186
  636MOL0     C85746   8.134   2.412   9.148  0.1752 -1.0799  0.4811
  636MOL0     C85747   8.023   2.485   9.070 -0.5205  0.3838 -0.6409
  636MOL0     C85748   7.981   2.624   9.118 -0.9166 -0.2875 -0.6207
  636MOL0     O85749   8.099   2.705   9.150 -1.1689  0.6149  0.4173
  636MOL0     C85750   8.072   2.835   9.141 -0.5597 -0.1320  0.3103
  636MOL0     C85751   7.998   2.897   9.242 -0.1224  0.3032 -0.2286
  636MOL0     C85752   7.968   3.033   9.239 -0.6413 -0.0630 -0.2765
  636MOL0     C85753   7.888   3.079   9.365  0.0801  0.0723  1.0228
  636MOL0     C85754   8.021   3.118   9.138 -0.0884 -0.3417  0.5586
  636MOL0     C85755   8.010   3.273   9.133 -0.5027 -0.3241  0.9614
  636MOL0     O85756   8.053   3.343   9.027 -0.1007 -1.1047  0.4304
  636MOL0     C85757   8.181   3.398   9.030 -0.2524 -0.4836  0.4457
  636MOL0     C85758   8.228   3.473   8.921  0.4138  0.0824  0.9923
  636MOL0     C85759   8.352   3.547   8.928  0.1935  0.6024 -1.2923
  636MOL0     C85760   8.430   3.538   9.047 -0.2183  0.2562 -0.1058
  636MOL0     O85761   8.554   3.597   9.065  0.0364  0.6476  0.4984
  636MOL0     C85762   8.653   3.558   8.970  0.3189 -0.3292  0.1331
  636MOL0     C85763   8.699   3.407   8.980  0.2867 -0.6889  0.7131
  636MOL0     C85764   8.754   3.374   9.128  0.4276 -0.3990  0.1314
  636MOL0     C85765   8.898   3.301   9.132  0.6111 -0.4494 -0.0524
  636MOL0     C85766   8.943   3.301   9.274 -0.9466  0.1577  0.0448
  636MOL0     C85767   9.093   3.269   9.272  0.2011 -0.4044 -0.8412
  636MOL0     C85768   9.135   3.119   9.257  0.4404  1.0924  0.4454
  636MOL0     C85769   9.288   3.118   9.230  0.5284  0.2308  0.6204
  636MOL0    Cl85770   9.327   3.157   9.054  0.3581  0.5601 -0.0910
  636MOL0     C85771   8.388   3.450   9.157  0.4834  0.6420  0.7365
  636MOL0     C85772   8.265   3.391   9.147  0.1230 -0.0833  0.7259
  636MOL0     O85773   7.994   3.328   9.243  0.5990  0.4822  0.0348
  636MOL0     C85774   8.089   3.047   9.033  1.1500  0.3093  0.0331
  636MOL0     C85775   8.104   2.907   9.028 -0.5362 -0.9630 -0.7850
  636MOL0     N85776   8.322   2.197   9.226 -0.5679 -0.6557 -0.8931
  636MOL0     N85777   8.376   2.084   9.247  0.5212  0.4099 -0.7335
  636MOL0     C85778   9.281   1.374   8.853  0.2492 -0.1604  0.1575
  636MOL0     C85779   9.422   1.361   8.859  0.1489  1.6252 -0.6060
  636MOL0     C85780   9.854   1.487   8.807  0.5505  0.8443  0.3967
  636MOL0     C85781   9.939   1.521   8.689  0.5931 -0.5075 -0.5183
  636MOL0     C85782  10.078   1.513   8.705 -0.1202 -0.0391 -0.6125
  636MOL0     C85783  10.138   1.492   8.835 -0.7752  0.5073  0.3281
  636MOL0     O85784  10.275   1.501   8.842 -0.2119 -0.4622  0.1413
  636MOL0     C85785  10.333   1.535   8.966 -0.1812 -1.2706 -0.5493
  636MOL0     C85786  10.483   1.555   8.942 -0.6315 -0.8387 -0.2386
  636MOL0     C85787  10.513   1.693   8.889  0.8872 -0.5558  0.5929
  636MOL0     C85788  10.642   1.692   8.803 -0.4627  0.3104  0.2402
  636MOL0     C85789  10.631   1.630   8.669 -1.1659 -0.7496  1.2355
  636MOL0     C85790  10.619   1.581   8.562 -0.2243  0.7098 -0.1258
  636MOL0     C85791  10.052   1.477   8.951  0.0023  0.7725 -0.2205
  636MOL0     C85792   9.909   1.473   8.934 -0.3379 -0.1124 -0.0585
  636MOL0     H85793   9.493   1.683   8.962  0.2986 -0.6389  1.2360
  636MOL0     H85794   9.254   1.708   8.925  1.5592 -0.3232 -0.0367
  636MOL0     H85795   8.989   1.392   8.752  0.7611 -2.0691  0.8801
  636MOL0     H85796   9.033   1.330   8.908  2.1724  1.2438  0.9968
  636MOL0     H85797   8.821   1.546   8.876 -0.7446 -0.7122 -1.4517
  636MOL0     H85798   8.786   1.368   8.891 -1.3751 -0.4217  3.2451
  636MOL0     H85799   8.917   1.410   9.127  0.8248  0.7386  0.6113
  636MOL0     H85800   8.904   1.579   9.083 -0.4546  0.1960  0.4148
  636MOL0     H85801   8.646   1.438   9.085  0.2575 -0.7603  0.3954
  636MOL0     H85802   8.729   1.503   9.232  0.3311  0.9941 -1.0932
  636MOL0     H85803   8.728   1.736   9.101 -1.2821  1.3570 -2.1644
  636MOL0     H85804   8.656   1.649   8.963  2.4963 -0.2357 -0.4939
  636MOL0     H85805   8.443   1.614   9.072 -1.4830  1.9590 -1.3901
  636MOL0     H85806   8.518   1.662   9.233 -2.8915 -0.8341 -0.0156
  636MOL0     H85807   8.560   1.889   9.130 -0.3557  1.3883 -2.3301
  636MOL0     H85808   8.449   1.840   9.003 -2.4768  1.4918  0.7105
  636MOL0     H85809   8.363   1.806   9.272  3.0158  0.1273 -1.0682
  636MOL0     H85810   8.268   1.782   9.127  0.5610 -1.4078  2.7585
  636MOL0     H85811   8.142   1.997   9.032 -0.4244 -0.4824  1.4714
  636MOL0     H85812   8.130   2.286   8.976 -0.6453  0.3580 -0.5366
  636MOL0     H85813   8.019   2.239   9.098 -0.3642  2.5154  0.4502
  636MOL0     H85814   8.235   2.446   9.124  0.4592 -2.8389 -0.9889
  636MOL0     H85815   8.111   2.403   9.255 -0.8074 -0.5643  0.3283
  636MOL0     H85816   7.937   2.418   9.058  0.0867 -0.7871  1.0605
  636MOL0     H85817   8.068   2.518   8.976 -1.3952  0.2734 -1.1110
  636MOL0     H85818   7.916   2.622   9.206 -1.2850 -2.4302 -0.8861
  636MOL0     H85819   7.920   2.671   9.041 -3.0373 -0.1314  1.0772
  636MOL0     H85820   7.967   2.832   9.323  3.4292  1.7137  2.5429
  636MOL0     H85821   7.825   3.164   9.336  1.1135  1.4654  2.6527
  636MOL0     H85822   7.833   3.003   9.420 -1.8266  0.4378 -0.2870
  636MOL0     H85823   7.953   3.128   9.438  0.1431 -1.0745  1.7554
  636MOL0     H85824   8.163   3.482   8.834 -1.3487 -2.3859  1.9346
  636MOL0     H85825   8.375   3.608   8.842 -1.9610  1.6965 -1.1521
  636MOL0     H85826   8.638   3.610   8.875 -3.9139  1.3157  1.4769
  636MOL0     H85827   8.747   3.610   8.988 -0.3831  0.6548  1.0787
  636MOL0     H85828   8.618   3.336   8.959  0.4701 -0.3841 -1.1311
  636MOL0     H85829   8.773   3.395   8.901 -0.0415 -2.1584  0.5966
  636MOL0     H85830   8.683   3.304   9.172 -1.2250  1.4333  0.5171
  636MOL0     H85831   8.744   3.468   9.183 -3.8925  0.4563 -1.7524
  636MOL0     H85832   8.889   3.201   9.090 -4.1475  0.6026 -2.1202
  636MOL0     H85833   8.967   3.353   9.064 -1.8538  0.5429 -1.9205
  636MOL0     H85834   8.896   3.219   9.328  0.5275 -0.7016  0.0887
  636MOL0     H85835   8.925   3.394   9.327  2.6076  1.3775 -0.6297
  636MOL0     H85836   9.146   3.330   9.199  1.7200  1.6283  1.7563
  636MOL0     H85837   9.134   3.324   9.358 -3.7253  1.1666  0.2701
  636MOL0     H85838   9.073   3.076   9.178  3.9821  1.5905 -2.9434
  636MOL0     H85839   9.117   3.063   9.349 -1.2878 -1.5463 -1.3656
  636MOL0     H85840   9.325   3.018   9.252  1.3920  0.1501 -1.1004
  636MOL0     H85841   9.335   3.192   9.296  1.1473  1.3787 -1.0302
  636MOL0     H85842   8.444   3.449   9.249 -1.2477 -0.6705  1.8307
  636MOL0     H85843   8.221   3.334   9.228 -3.6582  1.6159  0.0856
  636MOL0     H85844   8.139   3.104   8.956  2.1542 -2.3458 -1.3927
  636MOL0     H85845   8.150   2.867   8.938  3.5338  2.0147 -0.2946
  636MOL0     H85846   9.224   1.284   8.834  0.3059 -0.1380 -0.1192
  636MOL0     H85847   9.464   1.262   8.842 -1.0950  1.0340 -0.4092
  636MOL0     H85848   9.892   1.547   8.594  0.7247 -1.9253 -0.9876
  636MOL0     H85849  10.134   1.535   8.615  2.2804 -1.3296  0.4709
  636MOL0     H85850  10.287   1.629   8.999 -0.5637 -1.4392 -0.5930
  636MOL0     H85851  10.329   1.440   9.020  1.4886 -0.0788  1.8419
  636MOL0     H85852  10.521   1.476   8.876  3.4217  2.7655 -2.7327
  636MOL0     H85853  10.532   1.537   9.038 -2.6928 -2.2622  0.6244
  636MOL0     H85854  10.527   1.761   8.974 -0.1024 -1.6637  1.6811
  636MOL0     H85855  10.424   1.726   8.836 -0.2160 -0.4565  2.4322
  636MOL0     H85856  10.724   1.639   8.852  1.5612  0.2797 -2.8867
  636MOL0     H85857  10.674   1.797   8.799 -0.3717  0.4452  3.0681
  636MOL0     H85858  10.619   1.543   8.462 -2.7873 -0.3729  0.2250
  636MOL0     H85859  10.090   1.458   9.052  0.4536  0.9250 -0.3605
  636MOL0     H85860   9.840   1.459   9.017 -1.1778 -0.1925 -0.7660
  637MOL0     O85861  10.985   4.374   1.862 -0.0310 -0.4157 -0.3291
  637MOL0     C85862  10.987   4.417   1.749 -0.7503  0.5186  0.0109
  637MOL0     O85863  10.895   4.495   1.693  0.0329 -0.4082  0.6540
  637MOL0     C85864  10.808   4.572   1.767  0.5675 -1.0259  0.9172
  637MOL0     C85865  10.702   4.652   1.695 -0.9236  0.9657 -0.4518
  637MOL0     C85866  10.609   4.739   1.761 -0.7403  0.5894 -0.8988
  637MOL0     C85867  10.610   4.742   1.905 -0.1417 -0.3794  0.4337
  637MOL0     O85868  10.525   4.826   1.959  0.0206 -1.1514  0.0447
  637MOL0     C85869  10.572   4.921   2.049 -0.4075 -0.5490 -0.7072
  637MOL0     C85870  10.633   5.041   1.973  0.0572 -0.4306 -0.0297
  637MOL0     C85871  10.654   5.153   2.072 -0.2996 -0.0583 -0.2766
  637MOL0     C85872  10.742   5.256   2.037  0.2001 -0.3684  0.6411
  637MOL0     C85873  10.841   5.316   2.135  0.4640 -0.2755 -0.1197
  637MOL0     C85874  10.786   5.399   2.252  0.0641  0.6580  0.2779
  637MOL0     C85875  10.738   5.540   2.214 -0.3111  0.2583  0.2597
  637MOL0     C85876  10.856   5.632   2.189 -0.2657  0.6058  0.1024
  637MOL0     N85877  10.845   5.695   2.061  0.5981 -1.1006  0.3905
  637MOL0     C85878  10.728   5.717   1.991  0.2495 -0.6321  0.1301
  637MOL0     C85879  10.763   5.751   1.865 -0.3889  1.9748 -0.5830
  637MOL0     C85880  10.686   5.771   1.739 -0.1453  0.1986  0.3157
  637MOL0     C85881  10.635   5.913   1.720 -0.8930  0.2695 -0.1067
  637MOL0     C85882  10.590   5.952   1.582  0.2780  0.0521  0.1615
  637MOL0     C85883  10.583   6.102   1.554  0.0656 -1.2987 -0.3117
  637MOL0     O85884  10.486   6.165   1.630 -0.0433 -0.1350  0.8174
  637MOL0     C85885  10.485   6.305   1.631  0.5029 -0.1388  0.0175
  637MOL0     C85886  10.426   6.365   1.743 -0.8708  0.8613 -0.4899
  637MOL0     C85887  10.405   6.505   1.749 -0.1020  0.5303 -0.4570
  637MOL0     C85888  10.354   6.573   1.874  0.2764  0.3014  0.7646
  637MOL0     C85889  10.444   6.580   1.631  0.4691 -0.1600 -0.5321
  637MOL0     C85890  10.405   6.727   1.607 -0.9918 -0.1599 -0.4263
  637MOL0     O85891  10.458   6.770   1.486 -0.0017 -0.0010  0.4338
  637MOL0     C85892  10.421   6.897   1.436  0.0462  0.1398  0.7166
  637MOL0     C85893  10.515   6.988   1.396  0.7394  0.3783  0.2656
  637MOL0     C85894  10.480   7.114   1.345 -0.0985  0.5390 -0.2328
  637MOL0     C85895  10.348   7.149   1.325  0.2476  0.3888 -0.7907
  637MOL0     O85896  10.313   7.263   1.265  0.5467 -0.0896 -0.4393
  637MOL0     C85897  10.203   7.244   1.166 -0.1617 -0.6819  0.5087
  637MOL0     C85898  10.208   7.346   1.059  0.0768 -0.2143 -1.0251
  637MOL0     C85899  10.070   7.357   0.989 -0.4209 -0.0759 -1.2493
  637MOL0     C85900  10.047   7.485   0.925  0.7895  0.3746  0.1640
  637MOL0     C85901   9.926   7.484   0.830  0.4544  0.2045 -0.2076
  637MOL0     C85902   9.965   7.466   0.680  0.9717 -0.2648 -0.2636
  637MOL0     C85903  10.048   7.335   0.643 -0.2515 -0.8454  0.2118
  637MOL0     C85904  10.070   7.330   0.491 -0.3069  0.1651 -0.3875
  637MOL0    Cl85905  10.168   7.476   0.445  0.1293 -0.2005  0.1470
  637MOL0     C85906  10.252   7.059   1.387 -0.1745 -0.5051  0.5692
  637MOL0     C85907  10.286   6.940   1.441 -0.6471 -0.3525 -0.0788
  637MOL0     O85908  10.328   6.790   1.680  0.1195 -1.0419  0.3497
  637MOL0     C85909  10.522   6.516   1.539  1.1979  0.4159  0.9606
  637MOL0     C85910  10.549   6.383   1.537  0.1080 -0.4372  0.2844
  637MOL0     N85911  10.902   5.770   1.881 -0.4863 -0.3424  0.0252
  637MOL0     N85912  10.949   5.727   1.986 -0.6399  0.1323  0.0400
  637MOL0     C85913  10.700   4.654   1.971 -0.6667 -1.3698  0.4262
  637MOL0     C85914  10.797   4.568   1.908 -0.0038  0.1694 -0.6747
  637MOL0     C85915  11.093   4.363   1.665  0.4260  1.5295 -0.6275
  637MOL0     C85916  11.123   4.429   1.541 -0.4879 -0.4170 -0.0773
  637MOL0     C85917  11.234   4.395   1.456 -0.5834 -0.1377 -0.4728
  637MOL0     C85918  11.319   4.293   1.499 -0.4932 -0.6040  0.2808
  637MOL0     O85919  11.413   4.243   1.423  0.3148  0.7035 -0.2537
  637MOL0     C85920  11.543   4.282   1.463 -1.0381 -1.0254  0.3045
  637MOL0     C85921  11.632   4.255   1.334 -0.6947 -0.2784  0.0530
  637MOL0     C85922  11.775   4.229   1.369 -0.8308 -1.0620  0.1623
  637MOL0     C85923  11.851   4.158   1.257  0.5599  0.9225 -0.3389
  637MOL0     C85924  11.975   4.102   1.298 -0.2693 -0.6614  0.0521
  637MOL0     C85925  12.083   4.069   1.345 -0.1163  0.1780  0.6951
  637MOL0     C85926  11.294   4.234   1.627  0.9149 -0.8188  0.2087
  637MOL0     C85927  11.175   4.257   1.707 -0.2318  0.4960  0.4881
  637MOL0     H85928  10.702   4.644   1.587  1.1870  0.3458 -0.4500
  637MOL0     H85929  10.559   4.812   1.699 -1.3378 -0.3908 -1.6000
  637MOL0     H85930  10.479   4.937   2.103  0.0339  1.0181 -0.3575
  637MOL0     H85931  10.647   4.872   2.112  0.1120 -1.8778 -2.2884
  637MOL0     H85932  10.724   5.018   1.915  0.1891 -0.8073  0.3254
  637MOL0     H85933  10.556   5.078   1.904 -0.8003  2.8597  2.4176
  637MOL0     H85934  10.557   5.200   2.089  0.5988  0.9725  2.5463
  637MOL0     H85935  10.678   5.107   2.168  2.1015  0.6758 -0.4600
  637MOL0     H85936  10.808   5.220   1.958  3.0101 -1.0595  3.1168
  637MOL0     H85937  10.690   5.338   1.987  3.0264  1.6369  0.7509
  637MOL0     H85938  10.905   5.238   2.178 -0.9097 -1.8279 -0.7922
  637MOL0     H85939  10.913   5.386   2.091 -0.5940  0.0676 -1.3640
  637MOL0     H85940  10.698   5.351   2.294 -2.4920  3.2204 -1.7152
  637MOL0     H85941  10.864   5.413   2.327 -0.3972  0.8725  0.7224
  637MOL0     H85942  10.678   5.520   2.125 -1.1830 -3.5210  1.5215
  637MOL0     H85943  10.685   5.573   2.303 -0.8363 -2.4996  1.0706
  637MOL0     H85944  10.958   5.591   2.180 -0.3964  0.5788 -1.6850
  637MOL0     H85945  10.848   5.708   2.268 -2.1978  0.6973 -0.1304
  637MOL0     H85946  10.623   5.710   2.018 -0.6060 -0.5729 -2.7954
  637MOL0     H85947  10.744   5.736   1.654 -3.0640 -3.0735 -0.6001
  637MOL0     H85948  10.600   5.704   1.748 -1.4905  1.8260  0.0966
  637MOL0     H85949  10.725   5.970   1.746  1.6986 -1.6084 -3.9307
  637MOL0     H85950  10.550   5.941   1.782 -2.5606 -0.0400 -2.1310
  637MOL0     H85951  10.487   5.915   1.582  0.4937 -1.1493  4.4075
  637MOL0     H85952  10.641   5.909   1.495 -0.9576  2.6230 -1.9758
  637MOL0     H85953  10.575   6.123   1.447  2.0917 -0.0230 -0.2662
  637MOL0     H85954  10.680   6.147   1.577 -1.7304  1.8480  1.8480
  637MOL0     H85955  10.375   6.310   1.822 -0.6226  1.4807  0.1108
  637MOL0     H85956  10.270   6.640   1.854 -0.8518 -1.3809 -0.4617
  637MOL0     H85957  10.332   6.502   1.954  0.7626  1.4235  1.9195
  637MOL0     H85958  10.430   6.640   1.914  1.6775 -0.3100 -0.7704
  637MOL0     H85959  10.618   6.953   1.395  0.7350  0.3132  1.2742
  637MOL0     H85960  10.558   7.183   1.317 -0.7994  1.2289 -0.5289
  637MOL0     H85961  10.201   7.150   1.111  0.3025 -0.0874 -0.5494
  637MOL0     H85962  10.107   7.272   1.210 -0.9249 -3.3972  0.7496
  637MOL0     H85963  10.243   7.441   1.100  1.4831 -1.3082  0.4527
  637MOL0     H85964  10.287   7.319   0.989  2.7669  1.4433  1.1771
  637MOL0     H85965   9.990   7.348   1.064  2.1197  0.0073  1.6628
  637MOL0     H85966  10.059   7.283   0.909  1.1663 -0.7594 -0.8530
  637MOL0     H85967  10.025   7.559   1.002  0.3150 -0.9377  1.3373
  637MOL0     H85968  10.144   7.518   0.886  0.9744 -1.1781 -0.8101
  637MOL0     H85969   9.880   7.583   0.832 -0.1214 -0.0542 -0.4235
  637MOL0     H85970   9.852   7.408   0.856  0.2552  0.2987 -0.4980
  637MOL0     H85971   9.882   7.477   0.609  2.2132  1.3799 -1.5465
  637MOL0     H85972  10.026   7.550   0.646  0.7927 -0.4919 -1.1972
  637MOL0     H85973  10.006   7.240   0.677  2.2110 -1.8205  0.7200
  637MOL0     H85974  10.149   7.333   0.686 -0.2813 -1.6779  0.2481
  637MOL0     H85975   9.972   7.328   0.442 -2.0191  1.7287  2.6836
  637MOL0     H85976  10.128   7.242   0.462 -1.6460 -1.0680  0.5649
  637MOL0     H85977  10.146   7.077   1.372 -0.5129 -2.7133 -0.0692
  637MOL0     H85978  10.204   6.888   1.489 -1.7923  0.8362 -0.6649
  637MOL0     H85979  10.576   6.572   1.463  0.0170 -2.4085 -2.2148
  637MOL0     H85980  10.627   6.348   1.470 -0.1263  1.5560 -1.1128
  637MOL0     H85981  10.688   4.647   2.078  1.0123  0.0468  0.7611
  637MOL0     H85982  10.848   4.509   1.983  0.7032  1.4701 -0.1078
  637MOL0     H85983  11.057   4.507   1.503 -1.0515  0.1051  1.8711
  637MOL0     H85984  11.252   4.445   1.361  1.2775  1.8233  0.8158
  637MOL0     H85985  11.555   4.388   1.484  0.4761 -1.2648  0.7447
  637MOL0     H85986  11.581   4.228   1.550  0.4284  0.2633  0.5019
  637MOL0     H85987  11.617   4.343   1.271  0.9381  0.0797  0.1090
  637MOL0     H85988  11.589   4.169   1.283 -2.7278  1.2078 -0.8384
  637MOL0     H85989  11.790   4.185   1.468  0.5668  0.6703  0.7687
  637MOL0     H85990  11.823   4.327   1.377 -1.6727 -0.5621 -0.7229
  637MOL0     H85991  11.878   4.231   1.181  3.2205  0.7729  0.3795
  637MOL0     H85992  11.778   4.083   1.225  0.8488  1.3859 -2.1697
  637MOL0     H85993  12.177   4.028   1.378  0.4694  0.3877 -0.6644
  637MOL0     H85994  11.364   4.154   1.651  0.2267 -2.7079 -3.3492
  637MOL0     H85995  11.145   4.211   1.801 -0.3567 -1.6906 -0.5590
  638MOL0     O85996   7.480  10.059   2.252  1.0301  0.4919  0.4143
  638MOL0     C85997   7.427  10.166   2.222 -0.0254 -0.2119  0.5767
  638MOL0     O85998   7.300  10.181   2.172  0.2360 -0.0027 -0.8324
  638MOL0     C85999   7.221  10.066   2.174 -0.0492 -0.3412  0.3476
  638MOL0     C86000   7.251   9.955   2.086  0.8247  0.7184  0.0532
  638MOL0     C86001   7.182   9.838   2.095 -0.7070  0.1564  0.5027
  638MOL0     C86002   7.063   9.836   2.175 -0.2291  0.1187  0.2510
  638MOL0     O86003   7.006   9.714   2.186 -0.0893 -0.0325  0.3136
  638MOL0     C86004   6.947   9.667   2.312 -0.3384 -0.4439 -0.5165
  638MOL0     C86005   6.790   9.651   2.307 -0.3120 -0.8410 -0.3628
  638MOL0     C86006   6.749   9.562   2.194  0.0507 -0.1075  0.6312
  638MOL0     C86007   6.594   9.556   2.198 -0.2051  0.5100 -0.1948
  638MOL0     C86008   6.540   9.438   2.098 -0.2727 -0.0672 -1.2525
  638MOL0     C86009   6.383   9.452   2.085 -0.8296  0.9067  0.5471
  638MOL0     C86010   6.352   9.542   1.957  0.3191  0.1169  0.1262
  638MOL0     C86011   6.206   9.568   1.972  0.3388 -0.3448  1.2651
  638MOL0     N86012   6.140   9.622   1.855 -0.7642 -0.3504 -0.7018
  638MOL0     C86013   6.116   9.559   1.740 -0.5323  0.3218  1.1168
  638MOL0     C86014   6.050   9.656   1.669  0.2393 -0.3193 -1.3357
  638MOL0     C86015   6.004   9.646   1.536  0.4792 -0.0403  0.1068
  638MOL0     C86016   5.848   9.663   1.520  0.3370 -1.4666  0.6790
  638MOL0     C86017   5.820   9.670   1.368  0.1879  0.8855  0.3737
  638MOL0     C86018   5.801   9.528   1.302  0.4569 -0.6011  0.4067
  638MOL0     O86019   5.927   9.476   1.265 -0.0779 -0.5718  0.1492
  638MOL0     C86020   5.950   9.337   1.267 -0.2933 -0.1574 -0.3496
  638MOL0     C86021   5.847   9.250   1.255 -0.3717  0.1407 -0.0960
  638MOL0     C86022   5.849   9.106   1.258  0.1504  0.0579  0.7418
  638MOL0     C86023   5.724   9.034   1.213  0.5173 -0.6224  0.5171
  638MOL0     C86024   5.976   9.043   1.276 -0.2356 -0.3947 -0.0246
  638MOL0     C86025   6.006   8.897   1.285 -0.3429  0.2149 -0.4955
  638MOL0     O86026   6.138   8.862   1.255 -0.4009 -1.1425  0.1136
  638MOL0     C86027   6.203   8.743   1.274 -0.0954 -0.6393  0.1777
  638MOL0     C86028   6.308   8.722   1.189 -0.0535 -0.2860  0.2092
  638MOL0     C86029   6.378   8.600   1.214 -0.7123 -0.9918  0.0476
  638MOL0     C86030   6.342   8.503   1.305 -0.1648 -0.1268 -0.2529
  638MOL0     O86031   6.387   8.379   1.288 -0.2961 -0.0507 -0.0656
  638MOL0     C86032   6.356   8.283   1.396  0.7032 -1.2194 -0.1087
  638MOL0     C86033   6.453   8.164   1.388  0.6387  0.0451  0.1552
  638MOL0     C86034   6.598   8.202   1.427  0.2795  0.2753  0.1491
  638MOL0     C86035   6.617   8.259   1.569  0.7966  0.7391 -0.4635
  638MOL0     C86036   6.760   8.250   1.619 -0.3175 -0.2277  0.3592
  638MOL0     C86037   6.802   8.105   1.659  0.3754 -0.0939  0.5544
  638MOL0     C86038   6.919   8.053   1.574  0.9192 -1.3724  0.2626
  638MOL0     C86039   6.975   7.928   1.638  0.2294  0.6241  0.5634
  638MOL0    Cl86040   6.871   7.784   1.617 -0.1376  0.2195  0.3202
  638MOL0     C86041   6.238   8.534   1.386  0.8904  0.4030 -0.0569
  638MOL0     C86042   6.165   8.654   1.374  0.4501  1.0140 -0.1625
  638MOL0     O86043   5.920   8.819   1.323 -0.5968  0.1805  0.6364
  638MOL0     C86044   6.083   9.134   1.285 -0.5504  0.2898  0.2661
  638MOL0     C86045   6.073   9.271   1.275 -0.0581  0.0369  0.2379
  638MOL0     N86046   6.035   9.773   1.743 -0.1396 -0.5375 -0.1292
  638MOL0     N86047   6.084   9.746   1.862  0.0196  0.6856  0.3087
  638MOL0     C86048   7.027   9.944   2.250 -1.0904 -0.4904  0.0907
  638MOL0     C86049   7.104  10.060   2.260  0.6125  0.6027  0.6569
  638MOL0     C86050   7.512  10.293   2.207  0.4491  0.7412 -0.2185
  638MOL0     C86051   7.466  10.407   2.143  0.3422 -0.1702 -1.1724
  638MOL0     C86052   7.545  10.521   2.133  0.1274 -0.5329  0.4052
  638MOL0     C86053   7.679  10.516   2.170 -0.1657  0.2933  0.1582
  638MOL0     O86054   7.745  10.635   2.159 -0.1015 -0.2000  0.3706
  638MOL0     C86055   7.881  10.639   2.199  0.6843 -0.6127  0.2592
  638MOL0     C86056   7.972  10.571   2.103  0.5755 -0.9367  1.1532
  638MOL0     C86057   8.116  10.604   2.131 -0.1246  1.4121 -0.1159
  638MOL0     C86058   8.220  10.529   2.054  0.4910  0.3085  0.0378
  638MOL0     C86059   8.195  10.561   1.918 -0.6538 -0.7348 -0.3938
  638MOL0     C86060   8.166  10.600   1.807 -0.1085  1.2011  0.5935
  638MOL0     C86061   7.725  10.392   2.230  0.4010  0.0335 -0.6546
  638MOL0     C86062   7.642  10.282   2.242 -1.4238 -0.4534 -0.1517
  638MOL0     H86063   7.333   9.960   2.016  2.0014 -1.3488  1.1817
  638MOL0     H86064   7.225   9.759   2.033 -1.2784  0.4013 -0.2163
  638MOL0     H86065   6.990   9.568   2.325 -0.9849 -1.1636 -3.1136
  638MOL0     H86066   6.982   9.734   2.391 -0.1513 -0.5247 -0.5306
  638MOL0     H86067   6.753   9.597   2.395  2.3839 -0.6741  0.9825
  638MOL0     H86068   6.740   9.747   2.293  0.1953 -0.7587 -1.7754
  638MOL0     H86069   6.789   9.578   2.094 -1.2254 -1.7143 -0.1868
  638MOL0     H86070   6.788   9.463   2.222  2.5374  1.3892  3.0022
  638MOL0     H86071   6.563   9.525   2.298  3.0751 -2.8696 -0.0067
  638MOL0     H86072   6.556   9.656   2.174 -1.4435  1.1754  3.8009
  638MOL0     H86073   6.588   9.447   2.000  0.1126 -2.0447 -1.2779
  638MOL0     H86074   6.565   9.344   2.147 -0.2461 -0.1359 -1.3964
  638MOL0     H86075   6.334   9.354   2.081  0.0492  0.5001 -0.3484
  638MOL0     H86076   6.355   9.487   2.185 -1.4483  0.7047  0.4535
  638MOL0     H86077   6.403   9.638   1.960  0.9741  0.1368 -4.3504
  638MOL0     H86078   6.363   9.489   1.861 -0.1042  1.0848 -0.4668
  638MOL0     H86079   6.191   9.634   2.058 -2.1688 -1.1383  1.5105
  638MOL0     H86080   6.159   9.470   1.980  0.3211 -0.2195  3.0962
  638MOL0     H86081   6.157   9.462   1.713  2.6884  1.5615  1.0247
  638MOL0     H86082   6.058   9.721   1.478  2.2379 -1.3442 -0.0504
  638MOL0     H86083   6.036   9.547   1.501  0.6803  0.3974 -0.9739
  638MOL0     H86084   5.819   9.762   1.556  1.0964 -0.2184 -1.9174
  638MOL0     H86085   5.791   9.585   1.571 -0.0940 -0.8764  1.1052
  638MOL0     H86086   5.897   9.735   1.327  1.0669 -0.8870 -0.9088
  638MOL0     H86087   5.726   9.725   1.364  1.1887  2.5834 -0.9930
  638MOL0     H86088   5.749   9.546   1.207  1.0570  1.7841  0.4606
  638MOL0     H86089   5.740   9.459   1.361  0.9511 -0.3302  1.2401
  638MOL0     H86090   5.753   9.287   1.216 -0.2809 -0.0654 -0.5174
  638MOL0     H86091   5.644   9.108   1.198  2.1339  1.2394  0.6559
  638MOL0     H86092   5.733   8.993   1.113  2.1243 -2.0263  1.1952
  638MOL0     H86093   5.702   8.959   1.290 -0.6491 -0.4699  0.3515
  638MOL0     H86094   6.353   8.797   1.124  0.0507  1.4625  2.2039
  638MOL0     H86095   6.466   8.591   1.151  0.1142 -0.5396  1.1235
  638MOL0     H86096   6.358   8.339   1.490 -1.5909 -0.3952 -0.4939
  638MOL0     H86097   6.253   8.254   1.373  0.6682 -0.4806 -0.9307
  638MOL0     H86098   6.415   8.085   1.453  2.8421 -2.1595 -1.0869
  638MOL0     H86099   6.453   8.116   1.289 -2.8041  0.7081 -0.3068
  638MOL0     H86100   6.643   8.269   1.353  0.3667  1.4054  1.1848
  638MOL0     H86101   6.658   8.111   1.417 -2.0008 -1.1917 -1.5548
  638MOL0     H86102   6.588   8.364   1.574  0.2909  0.6207 -0.8330
  638MOL0     H86103   6.549   8.211   1.640 -2.0981  1.9454 -2.2159
  638MOL0     H86104   6.763   8.315   1.707 -0.1694 -0.6156  0.6481
  638MOL0     H86105   6.825   8.294   1.543  2.0960 -0.8429  1.9189
  638MOL0     H86106   6.837   8.096   1.762  0.1103 -2.7479  0.4897
  638MOL0     H86107   6.721   8.031   1.651 -0.9998  1.3921  0.1404
  638MOL0     H86108   6.996   8.130   1.573  0.6534 -1.0818  1.1378
  638MOL0     H86109   6.887   8.020   1.475  0.5496  0.7492 -0.3834
  638MOL0     H86110   6.985   7.939   1.747  3.4270  2.2898  0.2192
  638MOL0     H86111   7.070   7.892   1.597 -0.0329  1.3483 -0.7135
  638MOL0     H86112   6.204   8.449   1.444  1.5810 -0.4160 -0.8119
  638MOL0     H86113   6.078   8.682   1.432  0.9716 -0.3491  1.3138
  638MOL0     H86114   6.187   9.104   1.292 -1.2356 -2.5027 -0.2440
  638MOL0     H86115   6.159   9.337   1.274 -1.4214  1.9333 -2.0326
  638MOL0     H86116   6.935   9.945   2.307 -1.9050 -0.0638 -1.1968
  638MOL0     H86117   7.067  10.139   2.325 -1.6797  1.4799 -1.5265
  638MOL0     H86118   7.361  10.421   2.117 -0.4185 -1.2104  1.0653
  638MOL0     H86119   7.501  10.616   2.108  1.2445  0.4527  1.9763
  638MOL0     H86120   7.899  10.745   2.217 -1.9204  0.1303 -1.0136
  638MOL0     H86121   7.888  10.587   2.295 -0.9131  1.3073  1.4843
  638MOL0     H86122   7.948  10.614   2.005  0.7962  1.4025  2.0679
  638MOL0     H86123   7.956  10.463   2.096 -0.8114 -0.6542 -2.2225
  638MOL0     H86124   8.127  10.565   2.233 -0.8432  0.8766 -0.2354
  638MOL0     H86125   8.133  10.712   2.135  3.5533  1.0439  4.5700
  638MOL0     H86126   8.218  10.424   2.085  2.3692  1.0444  3.1032
  638MOL0     H86127   8.319  10.565   2.085  0.8337 -1.7159  1.5358
  638MOL0     H86128   8.138  10.634   1.709 -1.1720 -0.0671  0.4274
  638MOL0     H86129   7.822  10.377   2.277 -0.5491 -0.4957  1.2467
  638MOL0     H86130   7.676  10.190   2.290 -1.0501  1.6901  4.1483
  639MOL0     O86131   3.177  10.413   3.467 -0.1904 -0.3278  0.0016
  639MOL0     C86132   3.092  10.461   3.539 -0.7946 -0.5529  0.2859
  639MOL0     O86133   3.022  10.387   3.628  0.6421 -0.4868  0.6566
  639MOL0     C86134   3.030  10.249   3.631  0.4539 -0.5336  0.4708
  639MOL0     C86135   3.006  10.170   3.516 -0.5446 -0.7301 -0.1583
  639MOL0     C86136   3.002  10.030   3.522 -0.5407 -0.1839  0.3304
  639MOL0     C86137   3.018   9.967   3.650 -0.6511 -0.6204 -0.1196
  639MOL0     O86138   3.008   9.829   3.667  0.4599 -0.4829  0.1125
  639MOL0     C86139   3.019   9.735   3.554 -0.3535  0.4721 -0.8284
  639MOL0     C86140   3.031   9.587   3.603 -0.2317 -0.2330 -0.8155
  639MOL0     C86141   3.153   9.566   3.690 -0.8656  0.8206 -0.0050
  639MOL0     C86142   3.177   9.423   3.732  0.5752 -0.6014 -0.2480
  639MOL0     C86143   3.184   9.325   3.611 -0.3382  0.1551  0.7331
  639MOL0     C86144   3.247   9.191   3.659  0.6007 -0.0653 -0.9029
  639MOL0     C86145   3.294   9.121   3.529  0.5228 -0.1258  0.6394
  639MOL0     C86146   3.357   8.986   3.559 -0.2532  0.5963  0.4869
  639MOL0     N86147   3.453   8.938   3.462  0.7048  0.3138  0.4105
  639MOL0     C86148   3.577   8.888   3.497  0.7716  0.8989  0.5921
  639MOL0     C86149   3.619   8.841   3.372  0.4894 -1.0792 -0.0346
  639MOL0     C86150   3.753   8.780   3.349  0.7179  0.5357  0.0715
  639MOL0     C86151   3.845   8.856   3.269 -0.6060 -0.7301 -0.3235
  639MOL0     C86152   3.950   8.766   3.201  0.2654 -0.7366 -0.3304
  639MOL0     C86153   4.054   8.847   3.127  0.4939  0.5157 -0.5173
  639MOL0     O86154   4.145   8.770   3.040  0.6618  0.1821  0.1654
  639MOL0     C86155   4.263   8.822   2.994 -0.1734 -1.0565  0.1264
  639MOL0     C86156   4.326   8.752   2.892  0.1784 -0.2415 -0.1331
  639MOL0     C86157   4.454   8.797   2.845 -0.6600  0.9085 -0.4418
  639MOL0     C86158   4.523   8.719   2.726  0.7035  0.2717 -0.5719
  639MOL0     C86159   4.518   8.915   2.898  0.0800  0.0908 -0.5930
  639MOL0     C86160   4.647   8.976   2.858 -0.2077 -0.0729 -0.0418
  639MOL0     O86161   4.643   9.098   2.817 -0.0544  0.1854 -0.0232
  639MOL0     C86162   4.759   9.160   2.775 -0.2790 -0.2028  1.0962
  639MOL0     C86163   4.779   9.283   2.830  0.1623 -0.3704 -0.3359
  639MOL0     C86164   4.875   9.369   2.778  0.0276 -0.3016  0.4844
  639MOL0     C86165   4.960   9.315   2.680 -0.6149  0.2905 -0.3278
  639MOL0     O86166   5.040   9.406   2.617  0.0301 -0.3609  0.0085
  639MOL0     C86167   5.178   9.374   2.620  0.1127  0.8347  0.3894
  639MOL0     C86168   5.244   9.456   2.734 -0.5061  0.6066 -0.6795
  639MOL0     C86169   5.252   9.607   2.699  0.3189 -0.3047  0.0017
  639MOL0     C86170   5.256   9.700   2.827 -0.5900  0.1569  0.5545
  639MOL0     C86171   5.401   9.727   2.878 -0.6133 -0.1720 -0.3404
  639MOL0     C86172   5.481   9.595   2.915 -1.1169  0.6822  0.2666
  639MOL0     C86173   5.609   9.625   2.999 -0.3800  0.0654 -0.4348
  639MOL0     C86174   5.692   9.502   3.013  1.0184 -0.5468  0.2849
  639MOL0    Cl86175   5.841   9.548   3.117 -0.1802 -0.2106  0.4856
  639MOL0     C86176   4.949   9.190   2.627 -0.5815  0.1150  0.1871
  639MOL0     C86177   4.843   9.105   2.675 -0.1436 -0.1528  0.1070
  639MOL0     O86178   4.748   8.909   2.878 -0.4047  0.4167 -0.1733
  639MOL0     C86179   4.447   8.987   2.998  0.0498 -0.1629 -0.1101
  639MOL0     C86180   4.325   8.938   3.046  1.2650  0.5189 -1.1494
  639MOL0     N86181   3.527   8.877   3.277  0.5045  0.6217 -0.5646
  639MOL0     N86182   3.422   8.928   3.329  0.3001  0.1111  0.2526
  639MOL0     C86183   3.039  10.054   3.764  1.2710  1.1164 -0.6930
  639MOL0     C86184   3.037  10.186   3.757  0.0370 -0.0246  0.5774
  639MOL0     C86185   3.066  10.599   3.525 -0.4821 -0.3267  0.3402
  639MOL0     C86186   2.934  10.647   3.533  0.6653  1.1673 -0.3585
  639MOL0     C86187   2.898  10.779   3.529  0.0228 -0.9026 -1.0397
  639MOL0     C86188   2.994  10.877   3.514  0.1687  0.4907  0.3816
  639MOL0     O86189   2.945  11.009   3.508  1.1975 -1.0513  0.2031
  639MOL0     C86190   3.026  11.124   3.538  0.5723 -0.2985 -1.1021
  639MOL0     C86191   2.947  11.242   3.567 -0.0420  0.6066  0.2606
  639MOL0     C86192   2.833  11.225   3.661  0.2847 -0.0079 -0.1913
  639MOL0     C86193   2.866  11.259   3.804 -1.5682 -0.2158 -0.1601
  639MOL0     C86194   2.982  11.184   3.864 -0.6007  0.4500 -0.6757
  639MOL0     C86195   3.070  11.133   3.923  0.3446 -0.3425  0.6121
  639MOL0     C86196   3.131  10.826   3.496 -0.2313  0.5325 -1.0102
  639MOL0     C86197   3.168  10.691   3.504  1.3750 -0.1709  0.0601
  639MOL0     H86198   2.994  10.227   3.425  0.6677  0.8724  0.6438
  639MOL0     H86199   2.997   9.976   3.427 -0.9847 -0.2806  0.4051
  639MOL0     H86200   2.936   9.752   3.485  1.8354  1.6206 -3.3578
  639MOL0     H86201   3.106   9.765   3.495  0.1116 -1.7819 -1.3869
  639MOL0     H86202   2.942   9.563   3.660  0.0488 -0.1102 -0.3148
  639MOL0     H86203   3.045   9.525   3.514  0.1364  0.1233 -1.0144
  639MOL0     H86204   3.240   9.600   3.633  0.0595  2.0115  2.0180
  639MOL0     H86205   3.145   9.625   3.782 -0.8659 -1.9039  1.8590
  639MOL0     H86206   3.259   9.419   3.804 -1.7250  0.4879  2.6555
  639MOL0     H86207   3.094   9.398   3.798  1.3277  0.7696  1.2762
  639MOL0     H86208   3.087   9.307   3.564 -0.6592 -3.0989  2.3912
  639MOL0     H86209   3.249   9.373   3.537 -2.5289  0.8378 -0.8577
  639MOL0     H86210   3.330   9.214   3.726  0.5548  0.2626 -0.9570
  639MOL0     H86211   3.161   9.145   3.710  1.5176  1.2049  2.0354
  639MOL0     H86212   3.212   9.095   3.461  0.7941 -0.9318  0.6087
  639MOL0     H86213   3.361   9.190   3.477  1.5678 -0.2992  1.6933
  639MOL0     H86214   3.267   8.925   3.572 -0.3992  0.5557 -0.6319
  639MOL0     H86215   3.411   8.997   3.654  1.8681  2.8107 -0.8285
  639MOL0     H86216   3.625   8.871   3.593  1.1388  0.1076  0.2833
  639MOL0     H86217   3.795   8.770   3.450 -0.9246  4.3200  1.2834
  639MOL0     H86218   3.736   8.677   3.315  0.8840  0.4332  0.2908
  639MOL0     H86219   3.884   8.943   3.323 -2.4721 -0.1217  0.1229
  639MOL0     H86220   3.795   8.901   3.183 -2.6961  1.3525  1.7977
  639MOL0     H86221   3.898   8.696   3.135 -1.6136  0.8126 -0.5831
  639MOL0     H86222   4.010   8.712   3.275 -1.3214 -0.6165  1.1083
  639MOL0     H86223   4.110   8.882   3.214  0.0235 -0.6578  0.2895
  639MOL0     H86224   4.009   8.935   3.080 -1.1299  0.4397  0.7878
  639MOL0     H86225   4.282   8.659   2.859  2.3621 -2.7009  3.2504
  639MOL0     H86226   4.544   8.613   2.740  2.1397  0.6882  0.8056
  639MOL0     H86227   4.460   8.731   2.638  0.8199  2.1168 -0.4467
  639MOL0     H86228   4.623   8.760   2.706  0.3085  1.7370  0.3190
  639MOL0     H86229   4.708   9.319   2.904  0.7500 -1.4917  0.8002
  639MOL0     H86230   4.881   9.468   2.821 -0.6067 -0.5912  1.2622
  639MOL0     H86231   5.197   9.267   2.628 -2.1837 -0.0986 -3.8831
  639MOL0     H86232   5.225   9.396   2.524 -1.1757  2.4124  0.0689
  639MOL0     H86233   5.206   9.436   2.835  2.8091  2.0921  1.0446
  639MOL0     H86234   5.346   9.418   2.745 -0.1447  0.6225 -3.4656
  639MOL0     H86235   5.153   9.631   2.658 -0.9977 -1.1662  2.4607
  639MOL0     H86236   5.333   9.627   2.628  1.8290 -5.3818 -0.0482
  639MOL0     H86237   5.215   9.796   2.795  0.5310 -0.5319 -3.4983
  639MOL0     H86238   5.190   9.653   2.900  1.2672 -1.7436  1.1262
  639MOL0     H86239   5.395   9.780   2.974 -0.5685 -0.2872 -0.2740
  639MOL0     H86240   5.459   9.787   2.807 -3.0412  2.1335 -0.5344
  639MOL0     H86241   5.407   9.555   2.985 -1.4039 -1.6288 -1.2539
  639MOL0     H86242   5.493   9.529   2.829  0.7615  1.6208 -0.2534
  639MOL0     H86243   5.580   9.656   3.100 -4.2921 -2.5476 -0.5353
  639MOL0     H86244   5.674   9.701   2.955  1.0383  1.7362  3.9839
  639MOL0     H86245   5.718   9.468   2.912  0.0540  2.1185 -0.9401
  639MOL0     H86246   5.633   9.418   3.050 -0.1220 -0.1385 -0.5729
  639MOL0     H86247   5.012   9.160   2.545 -0.2126 -1.3401  0.9803
  639MOL0     H86248   4.820   9.017   2.615  1.8320 -0.5232 -0.1558
  639MOL0     H86249   4.491   9.072   3.049 -0.4059 -1.0177  1.7740
  639MOL0     H86250   4.272   8.998   3.120  0.4689 -0.8366 -0.5659
  639MOL0     H86251   3.034  10.010   3.863  0.7721  0.0978 -1.1607
  639MOL0     H86252   3.043  10.245   3.848  0.7179  3.2120 -1.3804
  639MOL0     H86253   2.855  10.574   3.544  0.2161  1.8435  1.2093
  639MOL0     H86254   2.791  10.798   3.531  0.1520 -0.1885 -0.5671
  639MOL0     H86255   3.072  11.107   3.636  1.9891  1.6637 -1.3596
  639MOL0     H86256   3.106  11.131   3.463  0.4588  0.2351 -1.1754
  639MOL0     H86257   2.908  11.279   3.472  0.9741  1.1287  0.0357
  639MOL0     H86258   3.006  11.324   3.608  1.1764  0.2452 -0.7317
  639MOL0     H86259   2.790  11.127   3.637  3.5155 -1.7806  0.5490
  639MOL0     H86260   2.754  11.297   3.638 -0.9199 -2.1393 -3.4212
  639MOL0     H86261   2.768  11.235   3.847 -2.7757  2.6319 -1.1191
  639MOL0     H86262   2.885  11.365   3.818 -3.4599  0.2400 -0.8288
  639MOL0     H86263   3.158  11.098   3.974  0.8609  0.4769  0.3144
  639MOL0     H86264   3.204  10.904   3.478 -1.0359  1.3453 -0.8420
  639MOL0     H86265   3.267  10.658   3.472 -0.3442 -5.0278 -1.1393
  640MOL0     O86266  10.836   4.231   5.184  0.1868  1.2316  0.6187
  640MOL0     C86267  10.876   4.152   5.105 -1.0462 -0.0004  0.3152
  640MOL0     O86268  10.832   4.150   4.976 -0.3962  0.4098 -0.0396
  640MOL0     C86269  10.760   4.258   4.937  0.0701  0.1009 -0.5184
  640MOL0     C86270  10.818   4.392   4.936 -0.3915 -0.3122 -0.1244
  640MOL0     C86271  10.737   4.503   4.892  0.4284 -0.0040  0.1818
  640MOL0     C86272  10.610   4.479   4.840 -0.3858  0.7787 -0.1654
  640MOL0     O86273  10.546   4.589   4.795  0.7948 -0.1295 -0.4465
  640MOL0     C86274  10.425   4.634   4.861  0.9658 -1.1996  0.0387
  640MOL0     C86275  10.449   4.715   4.990  0.3207 -0.1483  0.8172
  640MOL0     C86276  10.314   4.745   5.056  0.5294  0.4930 -0.3328
  640MOL0     C86277  10.324   4.850   5.171  0.0554 -0.1277 -1.0109
  640MOL0     C86278  10.212   4.860   5.267 -0.0382 -0.7085  0.5326
  640MOL0     C86279  10.188   4.733   5.349  0.2743  0.5993  0.7391
  640MOL0     C86280  10.066   4.772   5.432  0.0019  1.2591  0.2982
  640MOL0     C86281  10.023   4.644   5.513  0.2436  0.6554  1.2331
  640MOL0     N86282  10.107   4.604   5.633 -0.5900 -0.1876  0.2755
  640MOL0     C86283  10.202   4.503   5.627 -0.1028 -0.6674 -0.3208
  640MOL0     C86284  10.273   4.518   5.743  0.2878  0.5554 -0.1618
  640MOL0     C86285  10.416   4.460   5.764 -1.1521 -0.1643  0.8716
  640MOL0     C86286  10.422   4.403   5.908  0.3069 -0.0029  0.4456
  640MOL0     C86287  10.576   4.351   5.927  0.7202  0.2617  1.1869
  640MOL0     C86288  10.595   4.322   6.074  0.1026 -0.5786  0.7750
  640MOL0     O86289  10.736   4.306   6.111  0.7985 -0.1724 -0.3283
  640MOL0     C86290  10.794   4.178   6.094 -0.1628 -0.2242  0.3064
  640MOL0     C86291  10.936   4.172   6.086  0.1727  0.1351  0.2332
  640MOL0     C86292  11.002   4.043   6.103 -0.4314 -0.9314  0.9152
  640MOL0     C86293  11.149   4.050   6.127 -0.7474 -0.0061 -0.1418
  640MOL0     C86294  10.929   3.924   6.100 -0.5510  0.3702  0.0156
  640MOL0     C86295  10.994   3.793   6.120 -0.8989 -0.9217  0.4376
  640MOL0     O86296  10.939   3.714   6.213  1.0089  0.1856 -0.7571
  640MOL0     C86297  11.019   3.629   6.284  0.1879  1.1419  0.6728
  640MOL0     C86298  11.157   3.597   6.272  0.5034 -0.3447 -0.5355
  640MOL0     C86299  11.213   3.513   6.369 -0.1044 -0.6650  0.0528
  640MOL0     C86300  11.135   3.456   6.477  0.6052  0.3196  0.8694
  640MOL0     O86301  11.182   3.365   6.562 -0.9673 -0.1999 -0.2599
  640MOL0     C86302  11.307   3.400   6.636  0.2049  0.2657  0.7558
  640MOL0     C86303  11.323   3.317   6.766 -0.3007 -0.0044  0.3747
  640MOL0     C86304  11.218   3.366   6.875  0.1806  0.7385 -0.3938
  640MOL0     C86305  11.226   3.277   6.997  0.2034  0.8743 -0.3800
  640MOL0     C86306  11.150   3.354   7.110 -0.1034  1.2839  0.9409
  640MOL0     C86307  11.157   3.262   7.236 -0.9766 -0.4170  0.2221
  640MOL0     C86308  11.067   3.319   7.335 -0.2439 -0.1509  1.0769
  640MOL0     C86309  11.100   3.262   7.477 -0.8051 -0.1698 -0.3086
  640MOL0    Cl86310  10.973   3.345   7.582 -0.2446  0.3771 -0.2965
  640MOL0     C86311  11.003   3.496   6.483  0.8949  0.7248  0.6106
  640MOL0     C86312  10.946   3.581   6.388  0.1318  1.0129  0.1302
  640MOL0     O86313  11.081   3.758   6.037  0.2757 -0.2656 -0.5588
  640MOL0     C86314  10.797   3.935   6.071  0.4859  0.3065  0.3406
  640MOL0     C86315  10.730   4.054   6.086 -0.0595 -0.5917  0.2186
  640MOL0     N86316  10.200   4.605   5.826 -0.1334 -0.2004  0.6760
  640MOL0     N86317  10.099   4.665   5.756 -0.9613 -0.6577 -0.3107
  640MOL0     C86318  10.558   4.342   4.840 -0.0213  0.1563 -0.2566
  640MOL0     C86319  10.633   4.236   4.889 -0.1161 -1.1686 -0.2943
  640MOL0     C86320  10.966   4.047   5.148  0.3525  0.0187 -0.4499
  640MOL0     C86321  10.944   3.974   5.269  0.3570  0.1429 -0.4657
  640MOL0     C86322  11.029   3.867   5.300  0.3582 -0.1233  0.9288
  640MOL0     C86323  11.134   3.820   5.206  0.5620  0.0463 -0.8731
  640MOL0     O86324  11.199   3.706   5.244 -0.0441  0.4132  0.1526
  640MOL0     C86325  11.302   3.655   5.159  0.8348 -0.3870 -0.9938
  640MOL0     C86326  11.377   3.563   5.251 -0.9630  0.1022 -0.0462
  640MOL0     C86327  11.469   3.648   5.338 -0.1212 -0.4233 -0.2579
  640MOL0     C86328  11.539   3.569   5.455 -0.0969 -0.5733  0.0309
  640MOL0     C86329  11.625   3.663   5.519  0.4825  0.0750  0.7156
  640MOL0     C86330  11.701   3.739   5.572  0.0026  1.2946 -0.0994
  640MOL0     C86331  11.157   3.897   5.086 -0.2632 -0.3614 -0.8399
  640MOL0     C86332  11.075   4.015   5.070 -0.5207 -0.2675  0.3749
  640MOL0     H86333  10.916   4.414   4.975  0.2665 -0.0625 -1.8225
  640MOL0     H86334  10.786   4.599   4.879 -1.3980  0.6597 -2.6492
  640MOL0     H86335  10.371   4.707   4.801  0.7874 -0.3082  1.2435
  640MOL0     H86336  10.370   4.542   4.885 -0.5266 -0.9224 -2.1032
  640MOL0     H86337  10.507   4.654   5.059  1.1136  1.0497  1.2502
  640MOL0     H86338  10.506   4.805   4.964  1.3994 -0.4513  2.0002
  640MOL0     H86339  10.250   4.779   4.974  1.1592  1.6519 -0.3596
  640MOL0     H86340  10.283   4.649   5.099  2.9865 -0.9807 -1.6276
  640MOL0     H86341  10.417   4.834   5.227 -0.5885  0.2925  0.1992
  640MOL0     H86342  10.353   4.946   5.127  0.8069  0.1992  0.1629
  640MOL0     H86343  10.225   4.943   5.336  2.3300 -1.0650  0.6078
  640MOL0     H86344  10.122   4.880   5.208  0.4890  1.9523  0.5264
  640MOL0     H86345  10.156   4.647   5.290 -1.1885  0.8844  1.0518
  640MOL0     H86346  10.273   4.715   5.415 -1.0963  1.1767  2.7656
  640MOL0     H86347  10.088   4.854   5.501 -0.0090  0.0439  1.8056
  640MOL0     H86348   9.980   4.795   5.368 -1.2274  1.1899  1.8858
  640MOL0     H86349  10.004   4.552   5.457  2.8592 -0.9972  2.8653
  640MOL0     H86350   9.929   4.679   5.558 -0.1413  0.4747  0.5803
  640MOL0     H86351  10.230   4.435   5.548  1.6209 -1.9811  1.3194
  640MOL0     H86352  10.423   4.372   5.700 -2.9427 -0.5488  1.1398
  640MOL0     H86353  10.493   4.532   5.734 -2.2855  1.3627  1.4662
  640MOL0     H86354  10.349   4.321   5.909  0.3585 -0.1578 -2.0736
  640MOL0     H86355  10.394   4.473   5.987  1.0135  1.5385 -0.6109
  640MOL0     H86356  10.651   4.424   5.895  1.4651  0.1005  2.5203
  640MOL0     H86357  10.581   4.259   5.868 -3.1694  1.1355 -0.8590
  640MOL0     H86358  10.536   4.235   6.106 -2.4520  0.4126 -0.9449
  640MOL0     H86359  10.568   4.418   6.118  3.0414  1.6728 -1.8743
  640MOL0     H86360  10.999   4.261   6.087  1.9940 -1.1015  0.9558
  640MOL0     H86361  11.175   4.012   6.226 -1.7382 -3.0156 -0.9413
  640MOL0     H86362  11.214   3.992   6.061 -0.5331 -1.7516  1.5131
  640MOL0     H86363  11.182   4.154   6.125  1.9373 -0.7735  0.1732
  640MOL0     H86364  11.221   3.645   6.199 -1.1555 -2.1440 -3.4067
  640MOL0     H86365  11.319   3.490   6.358  0.0622  0.5241 -1.2666
  640MOL0     H86366  11.404   3.403   6.585 -0.3642 -0.7717 -0.4277
  640MOL0     H86367  11.288   3.505   6.663  1.8278  1.3256 -1.8046
  640MOL0     H86368  11.326   3.208   6.757 -1.5901 -0.2110  2.1393
  640MOL0     H86369  11.426   3.338   6.797 -0.8806 -0.8884  3.1312
  640MOL0     H86370  11.113   3.360   6.848  0.0890  0.2028  0.0509
  640MOL0     H86371  11.240   3.472   6.893  0.4102  0.6699 -0.2560
  640MOL0     H86372  11.191   3.175   6.976  2.7555 -0.2292  0.3585
  640MOL0     H86373  11.330   3.262   7.026  0.3440  2.4461 -0.0302
  640MOL0     H86374  11.046   3.354   7.075  0.9043 -4.6817 -3.8657
  640MOL0     H86375  11.189   3.454   7.131  0.1594  1.3626  0.1216
  640MOL0     H86376  11.132   3.158   7.213  2.7714 -1.5060  0.4392
  640MOL0     H86377  11.261   3.273   7.269 -1.6169  1.7359  1.7457
  640MOL0     H86378  10.967   3.292   7.299  0.4475  0.3368 -1.4074
  640MOL0     H86379  11.075   3.428   7.335  0.5198 -0.1986  0.5658
  640MOL0     H86380  11.199   3.290   7.516 -1.0659  2.0362 -1.0771
  640MOL0     H86381  11.088   3.153   7.485 -1.9441 -0.0411 -0.0435
  640MOL0     H86382  10.945   3.448   6.561 -0.7159  1.4881 -0.0591
  640MOL0     H86383  10.840   3.601   6.382 -0.6355 -2.3789  0.5942
  640MOL0     H86384  10.734   3.846   6.071  0.6188  0.2014  1.2810
  640MOL0     H86385  10.623   4.047   6.101  0.1180 -1.0783  1.3472
  640MOL0     H86386  10.462   4.320   4.796 -1.9424  0.5925  3.3933
  640MOL0     H86387  10.585   4.139   4.876 -1.4813 -0.6178  0.4422
  640MOL0     H86388  10.862   4.004   5.333  0.3869  1.3452 -0.9537
  640MOL0     H86389  11.012   3.803   5.386  3.0367 -2.0403  0.1544
  640MOL0     H86390  11.280   3.591   5.073  3.7175 -1.0061 -1.3580
  640MOL0     H86391  11.361   3.742   5.128  2.0596 -0.2808  1.4176
  640MOL0     H86392  11.447   3.499   5.197 -0.9206 -0.6017  0.8233
  640MOL0     H86393  11.313   3.491   5.303 -0.9014 -0.7785 -1.1503
  640MOL0     H86394  11.414   3.733   5.380  0.3327 -0.1738 -0.1668
  640MOL0     H86395  11.548   3.692   5.278  2.6222  1.1556  4.0981
  640MOL0     H86396  11.610   3.498   5.410  0.7179  0.0176  0.3537
  640MOL0     H86397  11.477   3.521   5.530  0.6626 -0.7114  0.5768
  640MOL0     H86398  11.756   3.799   5.641  1.3060  1.3048 -1.1168
  640MOL0     H86399  11.242   3.866   5.026 -0.9863 -0.1392 -2.0178
  640MOL0     H86400  11.092   4.071   4.979  0.9154 -1.0948  0.0911
  641MOL0     O86401   1.876   6.811   0.050  1.1622 -0.5056  0.0306
  641MOL0     C86402   1.951   6.735   0.107 -1.0081 -0.1963 -0.7279
  641MOL0     O86403   2.085   6.730   0.089  0.1709 -0.3970 -0.2454
  641MOL0     C86404   2.149   6.820   0.004 -0.8854  0.2954 -0.2780
  641MOL0     C86405   2.206   6.760  -0.109 -0.0809 -0.2077  0.3076
  641MOL0     C86406   2.286   6.839  -0.202 -0.2941 -0.1308  0.3505
  641MOL0     C86407   2.300   6.976  -0.183  0.1097  0.1333 -0.9509
  641MOL0     O86408   2.376   7.063  -0.262  0.1704  0.3790 -0.7884
  641MOL0     C86409   2.448   6.992  -0.365  0.0623  0.9430 -0.3303
  641MOL0     C86410   2.532   7.081  -0.446 -0.4169  0.0852  0.5133
  641MOL0     C86411   2.454   7.183  -0.529  0.0760  0.5314 -0.6949
  641MOL0     C86412   2.333   7.131  -0.607 -0.6192  0.2460  0.2316
  641MOL0     C86413   2.285   7.241  -0.714  0.3257  0.0589 -0.1947
  641MOL0     C86414   2.200   7.353  -0.648 -0.8473  0.5778 -0.6522
  641MOL0     C86415   2.068   7.384  -0.717  0.2727 -0.4663 -0.0703
  641MOL0     C86416   1.970   7.271  -0.733 -0.7359 -0.2924  0.4003
  641MOL0     N86417   1.896   7.226  -0.613  0.1636  0.2081 -0.2418
  641MOL0     C86418   1.949   7.140  -0.515 -0.3246  0.3410  0.5844
  641MOL0     C86419   1.842   7.111  -0.436 -0.0018 -1.3277 -1.0339
  641MOL0     C86420   1.841   7.018  -0.314 -0.2419 -0.2178 -0.6163
  641MOL0     C86421   1.888   7.085  -0.186  0.3500 -0.1426 -0.3676
  641MOL0     C86422   1.773   7.166  -0.134  0.2841 -0.1471  0.8812
  641MOL0     C86423   1.813   7.252  -0.010 -0.0207  0.8485 -0.4648
  641MOL0     O86424   1.859   7.161   0.088 -0.0825  0.7512 -0.1057
  641MOL0     C86425   1.863   7.207   0.217  0.1534 -0.2790  0.0614
  641MOL0     C86426   1.859   7.114   0.325  0.7725 -0.0661  0.0115
  641MOL0     C86427   1.862   7.159   0.466  0.4376  0.5449  1.4244
  641MOL0     C86428   1.850   7.049   0.570  0.3533 -0.0886  0.6373
  641MOL0     C86429   1.870   7.302   0.484 -0.2520  0.1064  0.1239
  641MOL0     C86430   1.871   7.368   0.615 -0.9914  0.6544 -0.5415
  641MOL0     O86431   1.809   7.495   0.624  0.7771  0.0073  0.0185
  641MOL0     C86432   1.762   7.511   0.756  0.1175 -0.0209  0.4913
  641MOL0     C86433   1.656   7.423   0.799 -0.7413 -0.8135  0.9854
  641MOL0     C86434   1.607   7.443   0.929  0.3289 -0.0959  0.0414
  641MOL0     C86435   1.663   7.538   1.016 -0.5475 -0.2771 -0.2033
  641MOL0     O86436   1.607   7.548   1.136  0.0401  0.2649  0.3670
  641MOL0     C86437   1.618   7.672   1.208 -1.0239 -0.0030  1.5664
  641MOL0     C86438   1.519   7.667   1.321 -0.6572 -0.2927 -0.9076
  641MOL0     C86439   1.549   7.564   1.426 -0.0341  0.7209 -0.2976
  641MOL0     C86440   1.431   7.545   1.518 -0.2742 -0.2770 -0.2503
  641MOL0     C86441   1.444   7.434   1.619 -0.3804 -0.0027  0.5001
  641MOL0     C86442   1.564   7.461   1.706  0.5218  0.4046 -0.5135
  641MOL0     C86443   1.567   7.369   1.826  0.4498 -0.5041 -0.4389
  641MOL0     C86444   1.701   7.365   1.885  0.8958 -0.1336 -0.2370
  641MOL0    Cl86445   1.679   7.314   2.052  0.1443  0.5197 -0.7069
  641MOL0     C86446   1.774   7.614   0.965  0.3238  0.1646  0.0136
  641MOL0     C86447   1.818   7.595   0.840 -0.2847 -1.3332  0.5340
  641MOL0     O86448   1.933   7.310   0.705 -0.2127  0.0841  0.4080
  641MOL0     C86449   1.867   7.385   0.375  0.3981 -0.0001 -0.2721
  641MOL0     C86450   1.859   7.344   0.250  0.5782  0.3990  0.6042
  641MOL0     N86451   1.732   7.179  -0.485 -0.2887  0.0702 -0.4114
  641MOL0     N86452   1.760   7.232  -0.598 -0.2513 -1.1130  0.5293
  641MOL0     C86453   2.231   7.033  -0.075  1.2162  0.9404  0.5402
  641MOL0     C86454   2.158   6.956   0.020  0.5817  0.4540  0.1303
  641MOL0     C86455   1.905   6.620   0.192 -0.0996  0.5877  1.2810
  641MOL0     C86456   1.986   6.504   0.202 -0.0746 -1.3039 -0.0206
  641MOL0     C86457   1.944   6.398   0.281 -0.8063 -0.0383  0.0997
  641MOL0     C86458   1.819   6.399   0.345  0.5003  0.3200 -0.2930
  641MOL0     O86459   1.768   6.306   0.433  0.5946  0.7852  0.4205
  641MOL0     C86460   1.860   6.193   0.473 -0.5184  1.1731  0.7026
  641MOL0     C86461   1.796   6.095   0.564  0.4210  0.1482 -0.5184
  641MOL0     C86462   1.645   6.066   0.531  0.7767  0.5473  0.6304
  641MOL0     C86463   1.577   5.955   0.608  0.5579  0.3923 -0.0731
  641MOL0     C86464   1.445   5.987   0.665 -0.4168 -0.3590 -0.1275
  641MOL0     C86465   1.336   6.028   0.691  0.1831 -0.3857 -0.1281
  641MOL0     C86466   1.736   6.508   0.329  1.0165 -0.5312  0.2071
  641MOL0     C86467   1.783   6.618   0.251 -0.2159  0.9717 -0.1947
  641MOL0     H86468   2.183   6.655  -0.124  1.8591 -0.3379 -2.5631
  641MOL0     H86469   2.339   6.788  -0.281 -1.2900  3.2519 -2.8215
  641MOL0     H86470   2.511   6.917  -0.317 -2.1028 -0.0936  1.0309
  641MOL0     H86471   2.375   6.936  -0.424  1.8535 -1.3709 -0.4858
  641MOL0     H86472   2.592   7.141  -0.377  0.3192  1.6980 -1.4280
  641MOL0     H86473   2.590   7.018  -0.514 -0.2888 -0.3389  1.0132
  641MOL0     H86474   2.423   7.263  -0.461  1.3681  0.3100  0.1961
  641MOL0     H86475   2.522   7.229  -0.601 -1.3689  1.2276 -1.6379
  641MOL0     H86476   2.354   7.039  -0.663  2.4198 -0.3528  2.1153
  641MOL0     H86477   2.250   7.104  -0.541 -2.5416 -0.0480 -2.1672
  641MOL0     H86478   2.372   7.282  -0.767  1.6046 -0.2461  1.5582
  641MOL0     H86479   2.221   7.186  -0.784 -1.1430  1.5542 -0.0844
  641MOL0     H86480   2.179   7.322  -0.546 -0.5685  3.2067  0.2784
  641MOL0     H86481   2.269   7.437  -0.639  0.6459 -0.7613  1.2928
  641MOL0     H86482   2.036   7.475  -0.665  2.5040 -0.3690  1.2608
  641MOL0     H86483   2.090   7.410  -0.821 -1.6171  0.5194 -0.2618
  641MOL0     H86484   2.014   7.178  -0.771 -1.6988 -0.2611 -0.8680
  641MOL0     H86485   1.905   7.299  -0.817  1.8327  1.5419 -1.1193
  641MOL0     H86486   2.049   7.099  -0.525  0.0769  1.8730 -3.9868
  641MOL0     H86487   1.744   6.967  -0.313  0.9521 -2.6460 -0.6387
  641MOL0     H86488   1.913   6.937  -0.330 -1.9111 -1.7983 -0.4127
  641MOL0     H86489   1.964   7.162  -0.198 -1.0087  2.0305  3.4535
  641MOL0     H86490   1.917   6.999  -0.124 -1.0628 -1.5385 -1.5363
  641MOL0     H86491   1.688   7.099  -0.114  0.6501 -0.4916  1.3089
  641MOL0     H86492   1.748   7.227  -0.220  1.6288  0.7647  1.1092
  641MOL0     H86493   1.719   7.297   0.024 -0.2059  0.6252 -0.6735
  641MOL0     H86494   1.895   7.320  -0.033  0.6193  0.1720 -0.2142
  641MOL0     H86495   1.847   7.011   0.290  0.6609  0.4861 -1.6777
  641MOL0     H86496   1.951   7.019   0.598  0.5480 -1.1166 -1.0247
  641MOL0     H86497   1.783   7.083   0.650  0.6354 -0.3952  1.0042
  641MOL0     H86498   1.797   6.963   0.527  2.7891  0.1540 -3.4064
  641MOL0     H86499   1.616   7.354   0.725 -1.1073  1.5432 -1.1346
  641MOL0     H86500   1.531   7.374   0.965  0.2626 -0.1853 -0.2687
  641MOL0     H86501   1.722   7.694   1.236 -0.6802  2.0957 -0.9557
  641MOL0     H86502   1.605   7.754   1.137  1.7454  1.3069  2.4391
  641MOL0     H86503   1.511   7.762   1.374  0.4709  0.4374 -1.9935
  641MOL0     H86504   1.425   7.646   1.268 -0.2201 -0.5122 -1.6096
  641MOL0     H86505   1.645   7.581   1.474  0.2598  0.8520 -0.9229
  641MOL0     H86506   1.561   7.464   1.382  2.5013  1.6046 -1.8339
  641MOL0     H86507   1.415   7.644   1.562 -0.2993 -0.2710 -0.2743
  641MOL0     H86508   1.338   7.514   1.470 -2.5999  0.4132  3.3796
  641MOL0     H86509   1.452   7.340   1.563 -1.2269 -1.2503  2.3762
  641MOL0     H86510   1.359   7.422   1.688 -1.0909 -0.4447 -0.4267
  641MOL0     H86511   1.662   7.458   1.658  1.0652  2.7760  0.2967
  641MOL0     H86512   1.557   7.562   1.748  0.0415 -0.5098  1.7646
  641MOL0     H86513   1.539   7.266   1.802 -1.1539 -0.9071  2.6734
  641MOL0     H86514   1.494   7.408   1.897  2.0324 -0.2549  1.1037
  641MOL0     H86515   1.745   7.465   1.883  1.9989 -0.5997 -1.8953
  641MOL0     H86516   1.771   7.301   1.830 -1.8336 -2.5345 -1.1804
  641MOL0     H86517   1.800   7.704   1.021 -0.2474 -0.4410  1.3037
  641MOL0     H86518   1.900   7.659   0.809 -0.9817 -0.6458  0.0577
  641MOL0     H86519   1.878   7.492   0.379  0.0507  0.0988 -1.4551
  641MOL0     H86520   1.857   7.405   0.160 -0.7214 -1.1046 -0.4229
  641MOL0     H86521   2.226   7.141  -0.067  2.7586  0.9954  1.1858
  641MOL0     H86522   2.108   7.009   0.101  0.0664  2.2063 -1.2613
  641MOL0     H86523   2.082   6.494   0.152  0.1397 -0.2736  0.1663
  641MOL0     H86524   2.009   6.312   0.271 -0.0810  0.5894 -0.7380
  641MOL0     H86525   1.895   6.150   0.380 -0.7927  0.4027  0.9488
  641MOL0     H86526   1.940   6.243   0.530 -1.8010  4.0528  0.1840
  641MOL0     H86527   1.807   6.135   0.665 -1.4886  0.2945 -0.3266
  641MOL0     H86528   1.843   5.996   0.564 -0.8748 -0.5038 -1.6248
  641MOL0     H86529   1.643   6.037   0.425  1.4265 -0.4651  0.8830
  641MOL0     H86530   1.586   6.158   0.521 -1.0239 -0.6967 -0.8850
  641MOL0     H86531   1.646   5.937   0.690 -2.4197 -3.7189  1.8807
  641MOL0     H86532   1.562   5.859   0.558 -1.3859 -0.1206  1.3961
  641MOL0     H86533   1.237   6.066   0.705  0.7005  0.8056  0.4738
  641MOL0     H86534   1.637   6.512   0.373  0.0646 -0.2277 -1.8736
  641MOL0     H86535   1.732   6.713   0.240 -0.9219  0.7527  0.9564
  642MOL0     O86536   5.027   3.975   9.577  0.1427 -0.1894 -0.6323
  642MOL0     C86537   5.113   4.049   9.520  0.4180  0.9979 -0.3387
  642MOL0     O86538   5.229   4.013   9.482  0.0638 -0.3591  0.5467
  642MOL0     C86539   5.276   3.886   9.492 -0.3393  1.0479 -0.6984
  642MOL0     C86540   5.294   3.817   9.373 -0.1850  0.1824  1.4659
  642MOL0     C86541   5.350   3.690   9.373  1.0245 -0.5651 -0.7065
  642MOL0     C86542   5.392   3.632   9.492 -0.7879  0.0372  0.3309
  642MOL0     O86543   5.431   3.500   9.490 -0.5225  0.2707 -0.2536
  642MOL0     C86544   5.403   3.420   9.612 -0.3447  0.2976 -0.0614
  642MOL0     C86545   5.417   3.267   9.579  0.2368  0.5932 -0.5381
  642MOL0     C86546   5.562   3.224   9.539  0.3484 -0.7024 -0.7764
  642MOL0     C86547   5.600   3.222   9.386  0.4943 -0.5087 -0.3370
  642MOL0     C86548   5.728   3.142   9.359 -0.1341 -0.3745  0.3353
  642MOL0     C86549   5.702   2.986   9.346 -0.3867  0.6703 -0.3180
  642MOL0     C86550   5.819   2.894   9.319 -0.7785  0.0291  0.3322
  642MOL0     C86551   5.941   2.925   9.404 -0.7305 -1.2849  0.5650
  642MOL0     N86552   6.060   2.854   9.353  0.4939 -0.3030 -0.4648
  642MOL0     C86553   6.121   2.884   9.229  0.6015  0.5730 -0.1994
  642MOL0     C86554   6.218   2.796   9.215 -0.3132  0.4290  0.3668
  642MOL0     C86555   6.295   2.755   9.102 -0.1151  0.1268  0.4719
  642MOL0     C86556   6.213   2.705   8.979  0.8793  0.5244 -1.1108
  642MOL0     C86557   6.123   2.588   9.005  0.2664 -0.5911  0.3132
  642MOL0     C86558   6.174   2.463   9.069  0.5237 -0.1768 -0.1246
  642MOL0     O86559   6.274   2.402   8.987  0.4922  0.0966 -0.0463
  642MOL0     C86560   6.236   2.302   8.898  1.3860  0.6631 -0.5428
  642MOL0     C86561   6.101   2.269   8.857  0.4389  0.4442  0.6122
  642MOL0     C86562   6.064   2.167   8.767  0.4178  0.1088  0.2112
  642MOL0     C86563   5.922   2.126   8.747  0.4886  0.4712  0.2009
  642MOL0     C86564   6.176   2.096   8.709  0.4280  0.5055  0.0860
  642MOL0     C86565   6.153   1.992   8.603  0.6360  0.3076  0.4719
  642MOL0     O86566   6.269   1.927   8.570 -0.0619  0.5448 -0.2220
  642MOL0     C86567   6.252   1.813   8.485 -0.5017  0.1833 -0.5350
  642MOL0     C86568   6.224   1.690   8.536 -0.0140  0.6854 -0.4247
  642MOL0     C86569   6.250   1.571   8.471 -0.7812 -0.7556  0.6960
  642MOL0     C86570   6.280   1.582   8.339  0.4688  0.3365  0.4296
  642MOL0     O86571   6.316   1.467   8.268  0.2022  0.1194  0.0859
  642MOL0     C86572   6.238   1.351   8.295 -0.1442 -0.0152  0.1851
  642MOL0     C86573   6.306   1.245   8.206 -0.1047  0.1462 -0.8895
  642MOL0     C86574   6.242   1.112   8.223  0.3533 -0.4511 -0.0420
  642MOL0     C86575   6.282   1.044   8.352 -0.1511  0.6027 -0.2806
  642MOL0     C86576   6.185   0.925   8.370 -0.5414  1.3438  0.1710
  642MOL0     C86577   6.202   0.812   8.273  0.2116  0.8232 -0.1456
  642MOL0     C86578   6.078   0.710   8.284 -0.3467  1.2811  0.3816
  642MOL0     C86579   6.066   0.620   8.162 -0.3550  0.2896 -0.0008
  642MOL0    Cl86580   5.992   0.726   8.040 -0.7936 -0.3802  0.4950
  642MOL0     C86581   6.303   1.706   8.283 -0.3214  0.5451  0.5549
  642MOL0     C86582   6.291   1.824   8.352  0.7146 -0.9426 -0.6443
  642MOL0     O86583   6.050   1.983   8.544 -0.4373  0.3025 -0.2166
  642MOL0     C86584   6.311   2.119   8.752 -0.7664  0.4360 -0.2071
  642MOL0     C86585   6.338   2.221   8.844  0.7265  0.1027 -0.5904
  642MOL0     N86586   6.226   2.725   9.333  1.0828 -0.1918  0.6619
  642MOL0     N86587   6.138   2.767   9.417 -0.3460 -0.3737  0.3755
  642MOL0     C86588   5.384   3.705   9.610  0.0775  0.0738  0.0189
  642MOL0     C86589   5.332   3.834   9.613  0.9571  0.6386 -0.0941
  642MOL0     C86590   5.090   4.191   9.509 -0.0504  0.0515  0.1936
  642MOL0     C86591   4.961   4.244   9.517  0.0791 -0.5355 -0.4754
  642MOL0     C86592   4.946   4.384   9.508  1.1028 -0.0474 -0.3108
  642MOL0     C86593   5.050   4.472   9.493  0.5096 -0.9597 -0.7150
  642MOL0     O86594   5.029   4.607   9.498  0.6426 -0.3442  0.6409
  642MOL0     C86595   5.131   4.702   9.459 -0.2308  0.1060  0.9935
  642MOL0     C86596   5.152   4.719   9.300  0.4732 -0.1891 -0.2494
  642MOL0     C86597   5.032   4.804   9.246  0.5399 -0.1450 -0.7334
  642MOL0     C86598   5.024   4.789   9.097  0.1487 -0.8651 -0.9915
  642MOL0     C86599   4.909   4.870   9.055  0.5019 -0.7162  1.1175
  642MOL0     C86600   4.807   4.915   9.000  0.7081  0.3294 -0.1574
  642MOL0     C86601   5.177   4.414   9.472 -0.9647  0.5513 -0.2832
  642MOL0     C86602   5.199   4.276   9.489  0.4298 -0.5724  0.3705
  642MOL0     H86603   5.262   3.874   9.286  4.2899  0.1902 -0.4691
  642MOL0     H86604   5.350   3.633   9.281 -4.7837  0.3842 -1.6812
  642MOL0     H86605   5.466   3.434   9.700  1.1066 -2.3697 -0.5617
  642MOL0     H86606   5.299   3.439   9.637 -1.0249 -0.4106 -2.1430
  642MOL0     H86607   5.392   3.195   9.658 -1.0143  0.8470 -0.6729
  642MOL0     H86608   5.347   3.252   9.497 -2.6414  6.2369  0.3462
  642MOL0     H86609   5.624   3.291   9.598  0.0675 -0.3274 -0.9025
  642MOL0     H86610   5.583   3.125   9.580  3.2473 -0.5514 -1.6625
  642MOL0     H86611   5.518   3.195   9.319  1.6196 -0.4362 -1.7908
  642MOL0     H86612   5.613   3.329   9.368 -0.7933 -0.9219 -5.0621
  642MOL0     H86613   5.790   3.187   9.282  2.9833 -1.4982  2.0317
  642MOL0     H86614   5.795   3.159   9.443 -0.0520  3.4350 -0.3354
  642MOL0     H86615   5.655   2.943   9.434  2.7878  0.1893  1.2915
  642MOL0     H86616   5.631   2.961   9.267  0.9371 -0.0575 -1.3316
  642MOL0     H86617   5.797   2.789   9.344  1.4125 -0.2376  1.4149
  642MOL0     H86618   5.839   2.916   9.213 -3.3403 -0.4953 -0.3230
  642MOL0     H86619   5.925   2.907   9.511 -0.1936  3.1033  1.5679
  642MOL0     H86620   5.952   3.031   9.383  1.3882 -1.5835  0.0139
  642MOL0     H86621   6.097   2.957   9.152  1.0425  0.1300 -0.7680
  642MOL0     H86622   6.362   2.831   9.059  0.4585 -1.1488 -1.0210
  642MOL0     H86623   6.359   2.673   9.138  0.4002 -0.2875 -1.2572
  642MOL0     H86624   6.276   2.667   8.899 -0.5312 -2.7007 -0.8713
  642MOL0     H86625   6.151   2.785   8.938 -0.4373  0.6364  0.9189
  642MOL0     H86626   6.088   2.549   8.909  1.4403 -1.3130  0.1475
  642MOL0     H86627   6.036   2.622   9.062 -0.4777  1.5715 -1.9914
  642MOL0     H86628   6.096   2.390   9.093  1.4717 -1.5032 -0.9372
  642MOL0     H86629   6.215   2.494   9.165 -2.2463 -2.2843  1.8739
  642MOL0     H86630   6.013   2.323   8.890 -0.4892  0.1983 -1.2843
  642MOL0     H86631   5.907   2.024   8.785  0.4491  0.8097  1.1042
  642MOL0     H86632   5.861   2.188   8.813  1.0726  0.5782  0.6449
  642MOL0     H86633   5.889   2.136   8.643 -0.3870  2.7497  0.6568
  642MOL0     H86634   6.189   1.680   8.638 -1.8205 -0.1170 -1.0929
  642MOL0     H86635   6.228   1.481   8.527 -1.6463  0.7709  2.9524
  642MOL0     H86636   6.231   1.328   8.402 -1.9529  0.0202  0.0959
  642MOL0     H86637   6.133   1.370   8.269 -0.1406  3.0939  1.9571
  642MOL0     H86638   6.296   1.280   8.103 -1.1810  1.1815 -0.4616
  642MOL0     H86639   6.409   1.250   8.241  0.4776  3.7777 -2.6300
  642MOL0     H86640   6.259   1.047   8.137 -3.6283  0.0150 -1.3704
  642MOL0     H86641   6.135   1.132   8.216 -0.0528 -2.0407  1.1792
  642MOL0     H86642   6.385   1.009   8.339 -0.9408 -3.0510  1.7159
  642MOL0     H86643   6.268   1.113   8.436  0.5561  0.8869 -0.3909
  642MOL0     H86644   6.083   0.963   8.370 -1.1067  0.0310 -2.4114
  642MOL0     H86645   6.200   0.893   8.473  0.0161  0.1826 -0.2466
  642MOL0     H86646   6.204   0.866   8.178  0.8626 -0.8814 -1.1477
  642MOL0     H86647   6.300   0.765   8.287 -0.2150  0.3326  1.5132
  642MOL0     H86648   5.986   0.766   8.305  0.7784  2.9443  1.1274
  642MOL0     H86649   6.096   0.644   8.370 -3.0757 -1.5314 -1.0073
  642MOL0     H86650   5.988   0.547   8.182 -1.4947  1.7608  1.1914
  642MOL0     H86651   6.155   0.577   8.115 -2.2607 -2.8869 -1.0470
  642MOL0     H86652   6.317   1.708   8.175  1.2055 -1.6276  0.6595
  642MOL0     H86653   6.328   1.919   8.314  1.5853 -2.0548 -2.6971
  642MOL0     H86654   6.400   2.069   8.715 -0.4629  1.0962 -0.3865
  642MOL0     H86655   6.436   2.240   8.887  1.1616 -1.4240 -0.8323
  642MOL0     H86656   5.418   3.660   9.702  1.5317 -1.2005 -1.0837
  642MOL0     H86657   5.332   3.882   9.710  1.2961 -0.9609  0.7309
  642MOL0     H86658   4.864   4.197   9.530  0.0624 -0.4357 -0.2353
  642MOL0     H86659   4.847   4.413   9.543 -0.8164 -4.0092 -1.8342
  642MOL0     H86660   5.097   4.796   9.505 -0.0153  0.9306 -0.4587
  642MOL0     H86661   5.227   4.677   9.505 -0.9218  0.3105  2.6464
  642MOL0     H86662   5.164   4.617   9.261  2.7764  0.4293 -1.3269
  642MOL0     H86663   5.241   4.775   9.269  0.1698 -0.2813 -1.3027
  642MOL0     H86664   5.030   4.907   9.285  2.1913 -0.5101  0.4240
  642MOL0     H86665   4.951   4.744   9.289  2.3754 -2.1804  0.0625
  642MOL0     H86666   5.012   4.683   9.072 -3.5529 -0.5440 -1.1464
  642MOL0     H86667   5.115   4.834   9.057  0.3604 -1.8546 -1.6753
  642MOL0     H86668   4.718   4.958   8.960  0.8949  2.1645  1.2514
  642MOL0     H86669   5.266   4.468   9.440 -1.8763  2.2577 -0.0888
  642MOL0     H86670   5.296   4.232   9.467 -0.4689 -1.7392 -1.4656
  643MOL0     O86671   2.180   6.065   5.230  0.6672 -0.7749 -0.1173
  643MOL0     C86672   2.126   6.065   5.120  0.0851  0.9387  0.2608
  643MOL0     O86673   2.184   6.060   4.998  0.2152 -0.3753 -0.4287
  643MOL0     C86674   2.318   6.094   5.012 -0.9573  1.0738  0.1737
  643MOL0     C86675   2.346   6.234   5.009 -0.2633 -0.3685 -0.4943
  643MOL0     C86676   2.475   6.282   5.021  0.0715 -0.4046 -0.6554
  643MOL0     C86677   2.584   6.191   5.061  0.9806 -0.8630 -0.3794
  643MOL0     O86678   2.708   6.246   5.069  0.3271  0.3845  0.1863
  643MOL0     C86679   2.804   6.173   4.988 -0.0222  0.2156 -0.2418
  643MOL0     C86680   2.881   6.269   4.906  0.9622  0.1343  0.8042
  643MOL0     C86681   2.812   6.306   4.773  0.6399  0.5414  0.5562
  643MOL0     C86682   2.812   6.176   4.680 -0.3313  0.7404  0.1034
  643MOL0     C86683   2.780   6.229   4.536 -1.1425 -0.8272  0.0900
  643MOL0     C86684   2.792   6.111   4.436 -0.5797  0.5604  0.1963
  643MOL0     C86685   2.924   6.111   4.361  0.2159  0.8370  1.1656
  643MOL0     C86686   3.061   6.090   4.428 -1.2847 -0.6069 -0.0301
  643MOL0     N86687   3.166   6.051   4.330 -0.2330  0.6474 -0.3311
  643MOL0     C86688   3.229   6.146   4.265 -1.1632  0.1096 -0.2813
  643MOL0     C86689   3.307   6.072   4.178 -0.6090  0.2564  0.8092
  643MOL0     C86690   3.406   6.140   4.091 -1.2332 -0.0574  0.1917
  643MOL0     C86691   3.499   6.048   4.001  0.0775 -0.0499 -0.6487
  643MOL0     C86692   3.427   5.985   3.891  1.3450 -0.7741  1.0434
  643MOL0     C86693   3.379   6.065   3.765 -0.1370  0.1542  0.3120
  643MOL0     O86694   3.487   6.126   3.693 -0.1396 -0.4430 -0.0861
  643MOL0     C86695   3.456   6.248   3.641  1.7558  1.0379  0.5251
  643MOL0     C86696   3.348   6.268   3.550  0.7325  0.0845 -0.0674
  643MOL0     C86697   3.325   6.395   3.491  0.4220 -0.1407 -0.7251
  643MOL0     C86698   3.192   6.413   3.418 -0.4719 -0.5436 -0.0573
  643MOL0     C86699   3.415   6.506   3.514  0.7269  0.0517  0.5837
  643MOL0     C86700   3.405   6.638   3.439 -0.2874  0.6204  0.8914
  643MOL0     O86701   3.322   6.662   3.327  0.5940  0.0975 -0.7357
  643MOL0     C86702   3.300   6.792   3.293  0.5929 -0.0490  0.5042
  643MOL0     C86703   3.216   6.882   3.366  0.3674 -0.1473 -0.4826
  643MOL0     C86704   3.193   7.007   3.312 -0.5493 -0.7605 -0.5800
  643MOL0     C86705   3.245   7.049   3.185  0.3112 -0.3818 -1.2715
  643MOL0     O86706   3.227   7.176   3.134  0.9647  0.5106 -0.0551
  643MOL0     C86707   3.238   7.282   3.228 -0.4621  0.6485  1.4261
  643MOL0     C86708   3.171   7.405   3.159 -0.3681  0.1484 -0.2364
  643MOL0     C86709   3.179   7.525   3.258 -0.3936  0.8987  0.2201
  643MOL0     C86710   3.079   7.638   3.231  0.4799  0.8340 -0.3062
  643MOL0     C86711   3.067   7.749   3.335 -0.3823 -0.9453 -0.2670
  643MOL0     C86712   3.196   7.837   3.359  0.3994  0.0573 -0.9083
  643MOL0     C86713   3.253   7.900   3.229  0.3786  0.5257 -0.8653
  643MOL0     C86714   3.340   8.030   3.250 -0.2474  0.1902 -0.9159
  643MOL0    Cl86715   3.243   8.138   3.350  0.0590  0.1401  0.0329
  643MOL0     C86716   3.314   6.959   3.113 -0.3610 -0.3535 -0.1036
  643MOL0     C86717   3.335   6.826   3.162  0.1567 -0.4377  0.6673
  643MOL0     O86718   3.492   6.720   3.474 -0.1580 -0.1448 -0.2975
  643MOL0     C86719   3.518   6.483   3.614 -0.2881 -0.3246  0.9417
  643MOL0     C86720   3.542   6.352   3.671  0.3608 -0.2509 -0.6708
  643MOL0     N86721   3.286   5.935   4.203 -0.3780 -0.1050 -0.0496
  643MOL0     N86722   3.204   5.922   4.303  0.0322 -0.1345  0.0298
  643MOL0     C86723   2.555   6.051   5.075 -0.4634 -0.0344 -0.0479
  643MOL0     C86724   2.428   6.003   5.048 -0.2063 -0.5176  0.3851
  643MOL0     C86725   1.980   6.045   5.117  0.1442  0.1183 -0.2346
  643MOL0     C86726   1.903   5.985   5.225  0.1558  0.5060 -0.7861
  643MOL0     C86727   1.757   5.992   5.223  0.1922 -0.3982 -0.3105
  643MOL0     C86728   1.687   6.046   5.112  0.0521 -0.5626 -0.8394
  643MOL0     O86729   1.550   6.022   5.122 -0.8049 -0.3022 -0.5181
  643MOL0     C86730   1.458   6.088   5.032  0.1669 -0.5456  0.1149
  643MOL0     C86731   1.437   6.231   5.073  0.4961  0.4850 -0.4730
  643MOL0     C86732   1.365   6.333   4.972 -0.6249  0.0581  0.1998
  643MOL0     C86733   1.420   6.336   4.827  0.0993  0.7813 -0.4725
  643MOL0     C86734   1.365   6.440   4.754  0.3255 -0.1027 -0.5719
  643MOL0     C86735   1.327   6.519   4.669 -1.1086  0.2273 -0.3020
  643MOL0     C86736   1.764   6.097   5.013 -0.2478  0.3082  0.6369
  643MOL0     C86737   1.909   6.095   5.015  1.0274 -0.3780 -0.3800
  643MOL0     H86738   2.267   6.308   4.997  0.7877  0.8771 -0.0117
  643MOL0     H86739   2.485   6.390   5.022 -0.2293 -0.2809  2.7644
  643MOL0     H86740   2.883   6.144   5.058 -0.7979  0.2605  0.6567
  643MOL0     H86741   2.763   6.089   4.932 -2.7538  0.2541  1.5097
  643MOL0     H86742   2.897   6.362   4.961 -1.5499  0.4040  1.2296
  643MOL0     H86743   2.974   6.216   4.887  0.6516 -0.2903  0.4517
  643MOL0     H86744   2.706   6.332   4.786 -0.3642 -2.4000 -0.6921
  643MOL0     H86745   2.864   6.391   4.727  1.0030  1.5566  2.7361
  643MOL0     H86746   2.901   6.112   4.683  0.4045  1.4982 -2.6981
  643MOL0     H86747   2.724   6.117   4.706  0.9965 -0.5296  2.0555
  643MOL0     H86748   2.679   6.270   4.537 -0.4390  0.9986  1.2419
  643MOL0     H86749   2.856   6.305   4.515 -1.7646  0.4915  2.2555
  643MOL0     H86750   2.777   6.007   4.467 -2.6043  0.6129 -0.4411
  643MOL0     H86751   2.724   6.126   4.351 -1.7941  1.2868  1.2521
  643MOL0     H86752   2.902   6.035   4.286  0.6250  2.4911 -0.7164
  643MOL0     H86753   2.935   6.205   4.306  2.0934  0.4274  0.7982
  643MOL0     H86754   3.059   6.011   4.503 -0.6374  1.7630  2.6501
  643MOL0     H86755   3.088   6.184   4.478 -0.4637 -0.1389 -1.3030
  643MOL0     H86756   3.230   6.252   4.290 -0.7609  0.2173 -0.7447
  643MOL0     H86757   3.357   6.221   4.035  0.9743  1.7902  0.8276
  643MOL0     H86758   3.471   6.198   4.156 -0.7733  0.2632 -0.5372
  643MOL0     H86759   3.546   5.967   4.057  2.0119 -0.8358 -3.1818
  643MOL0     H86760   3.585   6.095   3.953 -0.2574 -1.3971 -2.7456
  643MOL0     H86761   3.340   5.929   3.927 -0.9049  2.4348  0.9594
  643MOL0     H86762   3.495   5.911   3.848  1.6714 -1.9087  3.3762
  643MOL0     H86763   3.290   6.126   3.786  1.8518  2.7451  1.7940
  643MOL0     H86764   3.349   5.990   3.692  1.3564 -1.6091  1.4089
  643MOL0     H86765   3.301   6.172   3.529  2.3935 -0.4964 -1.3623
  643MOL0     H86766   3.201   6.469   3.325  0.1214 -0.7169 -0.1091
  643MOL0     H86767   3.142   6.317   3.403 -1.4373 -0.3415  1.5981
  643MOL0     H86768   3.132   6.472   3.488 -0.4844 -1.3472  0.6248
  643MOL0     H86769   3.173   6.853   3.462 -0.8202 -0.1080 -0.9932
  643MOL0     H86770   3.139   7.074   3.378  2.9944 -0.4662  2.3689
  643MOL0     H86771   3.180   7.263   3.319  0.3322 -1.3510  1.5679
  643MOL0     H86772   3.343   7.304   3.247 -0.4104  0.5362  1.2684
  643MOL0     H86773   3.232   7.436   3.075 -2.9692  1.2897 -1.8289
  643MOL0     H86774   3.067   7.378   3.137  0.2081 -1.8752 -0.6731
  643MOL0     H86775   3.278   7.566   3.234 -0.0595  0.4460  0.8085
  643MOL0     H86776   3.175   7.488   3.360 -2.5200  0.2460 -0.0475
  643MOL0     H86777   3.121   7.692   3.146  1.1040 -0.9926 -1.2157
  643MOL0     H86778   2.986   7.584   3.211  0.9593 -0.7926  1.5085
  643MOL0     H86779   3.036   7.707   3.432  0.0529 -1.5158 -0.3725
  643MOL0     H86780   2.981   7.811   3.306 -0.2552 -1.3470 -1.5488
  643MOL0     H86781   3.168   7.907   3.437 -2.7352  0.5891 -2.3572
  643MOL0     H86782   3.273   7.765   3.389 -0.5770 -0.5857  0.1174
  643MOL0     H86783   3.164   7.929   3.173  1.2305 -1.2865 -3.2977
  643MOL0     H86784   3.301   7.825   3.166 -1.6738  1.2664 -3.4572
  643MOL0     H86785   3.359   8.079   3.154  0.1938 -0.6356 -1.2627
  643MOL0     H86786   3.431   8.009   3.307 -0.2912 -2.7264 -1.7660
  643MOL0     H86787   3.333   6.973   3.007  0.3626  2.2886  0.2987
  643MOL0     H86788   3.373   6.759   3.085 -0.6050  0.0851 -0.1855
  643MOL0     H86789   3.567   6.568   3.659 -0.2057  1.5603 -2.3813
  643MOL0     H86790   3.619   6.326   3.743  1.3056 -0.2792 -1.6696
  643MOL0     H86791   2.634   5.982   5.105  0.1968  1.3610  1.5669
  643MOL0     H86792   2.413   5.896   5.043 -1.5193 -0.3406  0.0859
  643MOL0     H86793   1.954   5.929   5.302  2.2368  1.1477 -1.6158
  643MOL0     H86794   1.707   5.938   5.303 -0.3786  2.5072  1.4325
  643MOL0     H86795   1.505   6.098   4.934  0.5142 -0.5011  0.2831
  643MOL0     H86796   1.359   6.045   5.015  0.7736 -1.6139 -0.8266
  643MOL0     H86797   1.530   6.278   5.108  0.6786 -1.1098  1.3331
  643MOL0     H86798   1.370   6.229   5.160  2.0371  0.1238  0.7607
  643MOL0     H86799   1.374   6.429   5.025 -0.7720  0.5265 -0.6158
  643MOL0     H86800   1.262   6.299   4.963  0.1739 -2.9655  1.2912
  643MOL0     H86801   1.392   6.242   4.779 -1.5196  0.5005  0.8888
  643MOL0     H86802   1.529   6.338   4.819 -0.0205 -0.1169 -4.2775
  643MOL0     H86803   1.283   6.597   4.610 -1.0772  2.0395  1.9050
  643MOL0     H86804   1.716   6.136   4.923 -0.8184  3.3571  2.1457
  643MOL0     H86805   1.957   6.141   4.929 -2.7890  0.7700 -2.1277
  644MOL0     O86806   7.722   6.697   3.048 -0.2804 -0.4715 -0.2243
  644MOL0     C86807   7.825   6.665   3.099  0.4595 -0.4270 -0.2700
  644MOL0     O86808   7.833   6.603   3.220  0.2073  0.1031  0.4184
  644MOL0     C86809   7.723   6.554   3.289 -0.3548  0.4046 -0.1102
  644MOL0     C86810   7.611   6.627   3.315 -0.6687 -0.2243 -0.8097
  644MOL0     C86811   7.507   6.572   3.401 -0.3867  0.0592 -0.4417
  644MOL0     C86812   7.522   6.432   3.449  0.0432  0.2587  0.1777
  644MOL0     O86813   7.433   6.356   3.528 -0.0036 -0.0818 -0.3491
  644MOL0     C86814   7.320   6.425   3.582 -0.4696  0.0008  0.4842
  644MOL0     C86815   7.231   6.346   3.684  0.6489 -0.4208 -0.2243
  644MOL0     C86816   7.186   6.209   3.635 -0.0229 -0.5635 -0.2484
  644MOL0     C86817   7.230   6.097   3.726 -0.6053 -1.0071  0.1417
  644MOL0     C86818   7.388   6.061   3.741  0.5138 -0.0208 -0.1761
  644MOL0     C86819   7.411   5.999   3.873 -0.1547  0.2515 -0.2910
  644MOL0     C86820   7.425   6.121   3.965  0.4002 -0.1070  0.6539
  644MOL0     C86821   7.419   6.090   4.113  0.4058  0.3002  0.1071
  644MOL0     N86822   7.281   6.042   4.142  0.2054  0.3162 -0.9737
  644MOL0     C86823   7.239   5.913   4.141  0.1252 -0.3674  0.0516
  644MOL0     C86824   7.107   5.931   4.175  0.7599  0.5902  0.6230
  644MOL0     C86825   7.000   5.835   4.159 -0.7449 -0.6768 -0.2097
  644MOL0     C86826   6.988   5.723   4.261  0.3972  0.0976 -0.3437
  644MOL0     C86827   6.845   5.651   4.265 -0.0694 -0.4783 -0.7251
  644MOL0     C86828   6.766   5.680   4.390  0.0937 -0.6366 -0.7071
  644MOL0     O86829   6.717   5.808   4.355 -0.4115  0.1056 -0.6482
  644MOL0     C86830   6.595   5.851   4.397  0.5281 -1.0266 -0.2378
  644MOL0     C86831   6.522   5.946   4.325  1.0270 -0.5914 -0.6871
  644MOL0     C86832   6.402   6.008   4.366  0.5480 -0.1435 -0.5400
  644MOL0     C86833   6.342   6.107   4.271  0.3557  0.2123 -0.5276
  644MOL0     C86834   6.363   5.982   4.497  0.6947  0.9178  0.4943
  644MOL0     C86835   6.265   6.062   4.566  0.1110 -0.3723 -0.5979
  644MOL0     O86836   6.279   6.066   4.702  0.8458  0.2531  0.1052
  644MOL0     C86837   6.190   6.128   4.785  0.1622  0.2644  0.4740
  644MOL0     C86838   6.054   6.087   4.789 -0.2706 -0.7641  0.7857
  644MOL0     C86839   5.967   6.143   4.879  0.1110 -0.7045 -0.0661
  644MOL0     C86840   6.009   6.235   4.977 -0.6234  0.3286  0.5987
  644MOL0     O86841   5.925   6.288   5.071  0.7248 -0.6725 -0.0429
  644MOL0     C86842   5.925   6.429   5.077 -0.0367 -0.1627  0.1121
  644MOL0     C86843   5.805   6.481   4.993  0.0009 -0.8017  0.3443
  644MOL0     C86844   5.778   6.637   4.986  0.8421 -0.4943  0.7512
  644MOL0     C86845   5.900   6.723   4.968 -0.7243  0.3196  0.5317
  644MOL0     C86846   5.877   6.870   4.945 -1.0161 -0.5791  0.0019
  644MOL0     C86847   5.777   6.905   4.840 -0.2530  1.0856 -0.4283
  644MOL0     C86848   5.802   6.830   4.706  0.6582 -0.6749 -0.4255
  644MOL0     C86849   5.685   6.852   4.614  0.7313 -0.3003 -0.2926
  644MOL0    Cl86850   5.534   6.783   4.664  0.3687 -0.3661  0.2335
  644MOL0     C86851   6.147   6.271   4.976  0.3078 -0.1440 -0.7517
  644MOL0     C86852   6.236   6.212   4.892  0.0438  0.5210  0.6050
  644MOL0     O86853   6.166   6.105   4.505 -1.1739 -0.3650 -0.4610
  644MOL0     C86854   6.436   5.888   4.574  0.1651 -0.0376 -0.5027
  644MOL0     C86855   6.538   5.817   4.521 -0.4590  0.3944  0.1412
  644MOL0     N86856   7.082   6.063   4.193  0.5228 -0.1890  1.3148
  644MOL0     N86857   7.188   6.136   4.174  0.4419 -0.0414 -0.2759
  644MOL0     C86858   7.630   6.358   3.406 -0.0725 -0.7826  0.1356
  644MOL0     C86859   7.735   6.418   3.337 -0.4466 -0.2339 -0.1122
  644MOL0     C86860   7.949   6.687   3.024 -0.2396 -0.3027  0.0424
  644MOL0     C86861   7.941   6.740   2.890 -0.2927  0.4190 -0.1806
  644MOL0     C86862   8.057   6.763   2.811 -0.5509 -0.5540  0.0317
  644MOL0     C86863   8.186   6.743   2.863  0.3074  0.2077  0.1360
  644MOL0     O86864   8.293   6.761   2.785  0.0186  0.2735 -0.6792
  644MOL0     C86865   8.288   6.855   2.682 -0.0513 -0.0331  0.5311
  644MOL0     C86866   8.415   6.866   2.610  0.4269 -0.3178  0.8784
  644MOL0     C86867   8.487   6.736   2.585  0.3319  0.1100  0.5615
  644MOL0     C86868   8.603   6.743   2.485 -0.6821 -0.0030  0.6031
  644MOL0     C86869   8.721   6.824   2.528  0.4508  0.8585  0.6372
  644MOL0     C86870   8.814   6.891   2.558 -0.8998 -0.1047  0.0820
  644MOL0     C86871   8.194   6.689   2.991 -0.6755 -0.3952  0.5275
  644MOL0     C86872   8.088   6.666   3.070 -0.1344 -0.0323 -0.2465
  644MOL0     H86873   7.600   6.727   3.275 -1.7533 -0.8656 -2.2231
  644MOL0     H86874   7.414   6.622   3.425 -1.5801  0.9037 -5.6174
  644MOL0     H86875   7.348   6.516   3.637 -1.4929  0.8164 -0.3081
  644MOL0     H86876   7.257   6.457   3.499 -0.1982  1.7581  0.9031
  644MOL0     H86877   7.280   6.344   3.781 -0.5932  0.6072  0.4557
  644MOL0     H86878   7.147   6.416   3.692  2.4832  1.6197  3.3416
  644MOL0     H86879   7.077   6.208   3.624 -0.1954  4.5459 -1.3875
  644MOL0     H86880   7.221   6.182   3.535  1.8605 -3.4111  1.0362
  644MOL0     H86881   7.187   6.112   3.825 -2.4862 -0.1327 -0.7540
  644MOL0     H86882   7.178   6.009   3.689  0.1637 -1.3471 -0.1507
  644MOL0     H86883   7.417   5.988   3.665  3.2185  2.1604 -1.4448
  644MOL0     H86884   7.437   6.159   3.728 -0.7965  0.6331 -0.3376
  644MOL0     H86885   7.325   5.934   3.891 -0.9707  0.8503 -1.8182
  644MOL0     H86886   7.502   5.940   3.886 -0.5743  0.0210  2.0051
  644MOL0     H86887   7.520   6.173   3.949  1.5691 -1.7925  1.6801
  644MOL0     H86888   7.347   6.190   3.934 -0.7578 -1.8320 -0.4853
  644MOL0     H86889   7.437   6.175   4.180 -4.2463  0.0296  2.0632
  644MOL0     H86890   7.502   6.026   4.143  1.8844  2.5066  1.0342
  644MOL0     H86891   7.295   5.827   4.106 -2.5178 -1.3238 -2.1499
  644MOL0     H86892   6.908   5.895   4.161 -0.0766  0.3353  0.5090
  644MOL0     H86893   6.997   5.793   4.058 -0.8689  2.8322 -1.7905
  644MOL0     H86894   6.999   5.756   4.365 -1.6033 -0.5047  0.1247
  644MOL0     H86895   7.063   5.646   4.242 -3.5603 -4.1245 -0.9526
  644MOL0     H86896   6.863   5.544   4.277 -3.3677 -0.8362  3.2418
  644MOL0     H86897   6.801   5.665   4.166 -3.4583 -2.3021  0.3664
  644MOL0     H86898   6.823   5.681   4.483  1.2141 -2.0539 -1.3255
  644MOL0     H86899   6.680   5.613   4.395 -1.7585  1.6826 -0.0476
  644MOL0     H86900   6.567   5.954   4.227  0.8115 -0.2972 -0.7623
  644MOL0     H86901   6.246   6.067   4.236 -0.8207  0.1832  2.3824
  644MOL0     H86902   6.334   6.208   4.314  0.7931  0.9277 -2.0700
  644MOL0     H86903   6.404   6.128   4.184  1.9775 -0.7935  0.3411
  644MOL0     H86904   6.023   6.007   4.723 -2.3422  0.3808  0.2981
  644MOL0     H86905   5.868   6.100   4.892  0.1205 -0.8368 -0.4260
  644MOL0     H86906   5.925   6.469   5.178  1.8537 -0.4526  0.2478
  644MOL0     H86907   6.008   6.476   5.024 -0.5925  1.0524  0.2752
  644MOL0     H86908   5.822   6.442   4.892  1.0259 -2.9896  1.3037
  644MOL0     H86909   5.714   6.435   5.032 -0.6466 -0.9234 -1.2010
  644MOL0     H86910   5.725   6.657   5.079 -3.0335 -3.0696 -0.6158
  644MOL0     H86911   5.705   6.660   4.907  0.0990  4.7067  2.5948
  644MOL0     H86912   5.964   6.710   5.055 -0.0329 -1.7345 -0.2190
  644MOL0     H86913   5.946   6.671   4.883 -3.2813 -0.6657 -0.3353
  644MOL0     H86914   5.973   6.918   4.925  0.2160 -2.5679  0.7767
  644MOL0     H86915   5.840   6.928   5.030 -1.6504  1.9928 -1.9452
  644MOL0     H86916   5.681   6.865   4.874 -0.2547  1.2544 -0.2323
  644MOL0     H86917   5.767   7.014   4.829  1.1733  1.2126 -0.7042
  644MOL0     H86918   5.817   6.723   4.721  0.6725 -0.8286 -1.4865
  644MOL0     H86919   5.888   6.874   4.655  1.0249  0.4307  1.0728
  644MOL0     H86920   5.709   6.810   4.516  5.0019  0.1061  0.3488
  644MOL0     H86921   5.662   6.958   4.606  2.7064  0.0133 -3.2671
  644MOL0     H86922   6.183   6.334   5.057  0.6402 -2.5171  1.0367
  644MOL0     H86923   6.341   6.231   4.911 -0.2986  0.7778  2.5345
  644MOL0     H86924   6.406   5.862   4.675  0.8535  2.7331  0.5103
  644MOL0     H86925   6.576   5.729   4.572  3.4253  0.7251 -1.8483
  644MOL0     H86926   7.632   6.255   3.437 -0.9766 -0.4211  1.4685
  644MOL0     H86927   7.822   6.357   3.312 -1.6523 -0.9205 -3.1124
  644MOL0     H86928   7.845   6.776   2.854  0.0402  1.1198 -0.3864
  644MOL0     H86929   8.048   6.800   2.710  0.4408  0.4234  0.2816
  644MOL0     H86930   8.209   6.820   2.615 -0.8773  1.0618  0.9084
  644MOL0     H86931   8.245   6.951   2.710 -1.2726  0.5463 -2.8276
  644MOL0     H86932   8.479   6.939   2.660 -1.7572  2.0400  0.4606
  644MOL0     H86933   8.389   6.913   2.515  0.2160  0.0456  1.1142
  644MOL0     H86934   8.409   6.677   2.534 -0.6375 -0.3745  2.5135
  644MOL0     H86935   8.519   6.687   2.677  0.5819 -1.5883 -0.3846
  644MOL0     H86936   8.578   6.790   2.390  1.0047  0.1453  0.2127
  644MOL0     H86937   8.642   6.643   2.465  1.0349  0.9674 -1.2134
  644MOL0     H86938   8.882   6.963   2.599  1.4911 -1.3741 -1.3917
  644MOL0     H86939   8.290   6.664   3.035 -0.9415  1.2446  2.1449
  644MOL0     H86940   8.110   6.610   3.160  1.4555  1.2099  0.1850
  645MOL0     O86941   2.364   8.436   6.569 -0.6877 -0.5870  0.3307
  645MOL0     C86942   2.448   8.370   6.628 -0.4860 -1.3107 -0.0474
  645MOL0     O86943   2.515   8.260   6.576  0.4268 -0.6815 -0.1274
  645MOL0     C86944   2.484   8.204   6.455 -0.2319  0.5480 -0.1526
  645MOL0     C86945   2.517   8.067   6.446 -0.7748  0.6855 -0.0971
  645MOL0     C86946   2.491   7.989   6.333 -0.0489 -0.1628  0.6280
  645MOL0     C86947   2.431   8.055   6.234  0.1257 -0.1699  0.6139
  645MOL0     O86948   2.390   7.992   6.118 -0.4428 -0.2661 -0.8243
  645MOL0     C86949   2.281   7.906   6.141  0.2462 -0.5510 -0.4164
  645MOL0     C86950   2.219   7.860   6.014 -0.0196 -0.5603  0.1262
  645MOL0     C86951   2.145   7.728   6.033 -0.5003 -0.1830 -1.0640
  645MOL0     C86952   2.100   7.680   5.900  0.1983  0.0054  0.0152
  645MOL0     C86953   2.029   7.537   5.904 -0.4286 -0.5812  0.3488
  645MOL0     C86954   1.970   7.482   5.775 -0.4104  0.0521  0.1765
  645MOL0     C86955   1.860   7.570   5.710 -0.6695  0.5662 -0.9197
  645MOL0     C86956   1.828   7.505   5.571 -0.1305  0.9689 -0.0425
  645MOL0     N86957   1.733   7.595   5.490 -0.4082  0.0385  0.6690
  645MOL0     C86958   1.730   7.729   5.487  0.2552  0.0693  0.6928
  645MOL0     C86959   1.635   7.759   5.390  0.3948  1.2270 -1.1946
  645MOL0     C86960   1.599   7.906   5.356  0.4041  0.7551  0.2199
  645MOL0     C86961   1.496   7.935   5.252  0.3554 -0.8159  1.0490
  645MOL0     C86962   1.362   7.862   5.268  0.4754 -0.4453 -0.2946
  645MOL0     C86963   1.240   7.947   5.234  0.5676  0.2733 -0.3114
  645MOL0     O86964   1.220   8.058   5.323  0.8740 -0.3616 -0.0120
  645MOL0     C86965   1.112   8.135   5.284 -0.0158  0.4460  0.0913
  645MOL0     C86966   0.991   8.085   5.320  0.6662  0.9964 -0.3216
  645MOL0     C86967   0.870   8.132   5.266  0.4377  0.1647  0.4187
  645MOL0     C86968   0.736   8.063   5.320  0.4324  0.4374 -0.0151
  645MOL0     C86969   0.874   8.251   5.179  0.1967  1.1561  0.4864
  645MOL0     C86970   0.752   8.299   5.112  0.3459 -0.3115 -0.0524
  645MOL0     O86971   0.626   8.262   5.162 -0.9409  0.1683 -0.2722
  645MOL0     C86972   0.505   8.326   5.142 -0.3252  0.0048 -0.0050
  645MOL0     C86973   0.490   8.434   5.051  0.5699 -0.1896 -0.1613
  645MOL0     C86974   0.352   8.481   5.033 -0.3074 -0.2259 -0.0513
  645MOL0     C86975   0.246   8.436   5.118 -0.3739  0.4062 -0.1397
  645MOL0     O86976   0.121   8.494   5.110 -0.4672  0.1431 -0.6429
  645MOL0     C86977   0.010   8.432   5.179 -0.1280 -0.0202  0.5439
  645MOL0     C86978  -0.098   8.533   5.202 -0.6285 -0.2265  0.6012
  645MOL0     C86979  -0.190   8.568   5.081  0.2503 -0.6847  1.5372
  645MOL0     C86980  -0.329   8.627   5.144 -0.3632 -0.1685  0.2671
  645MOL0     C86981  -0.296   8.754   5.212  1.2160 -1.3334 -0.3925
  645MOL0     C86982  -0.420   8.816   5.283 -0.6279  0.2002 -0.5370
  645MOL0     C86983  -0.377   8.966   5.324  1.0951 -0.6829 -0.8049
  645MOL0     C86984  -0.455   9.011   5.459 -0.2550 -1.2236  0.2424
  645MOL0    Cl86985  -0.396   8.927   5.606 -0.3349 -0.0246  0.0102
  645MOL0     C86986   0.276   8.328   5.200  0.0246  1.1145  0.7710
  645MOL0     C86987   0.398   8.274   5.209  1.1335  0.0062  0.5367
  645MOL0     O86988   0.774   8.357   5.008 -0.0784 -0.1153  0.0267
  645MOL0     C86989   0.994   8.318   5.161 -0.1352  0.3747 -0.0434
  645MOL0     C86990   1.113   8.247   5.208 -0.0136 -0.1912  0.6015
  645MOL0     N86991   1.567   7.647   5.358  0.4655  0.7520  0.5523
  645MOL0     N86992   1.631   7.543   5.408  0.0446 -0.0187 -1.1315
  645MOL0     C86993   2.403   8.195   6.237 -0.6833 -0.4777  0.1765
  645MOL0     C86994   2.445   8.270   6.342  0.0059 -0.2569  0.3642
  645MOL0     C86995   2.501   8.419   6.756  0.3350  0.6617  0.8609
  645MOL0     C86996   2.615   8.355   6.822 -0.5678 -0.1950 -0.3207
  645MOL0     C86997   2.660   8.399   6.941  1.4762 -0.4468  0.3069
  645MOL0     C86998   2.609   8.520   6.995 -0.4111 -0.4430 -0.2113
  645MOL0     O86999   2.661   8.570   7.115 -0.2653 -0.1238  0.5097
  645MOL0     C87000   2.695   8.703   7.090  0.8901  0.0505  0.5262
  645MOL0     C87001   2.789   8.773   7.188 -0.0816 -0.2816 -0.2045
  645MOL0     C87002   2.931   8.738   7.152 -0.4719 -0.9375  0.4390
  645MOL0     C87003   2.974   8.809   7.022  0.2506 -0.5445  0.4320
  645MOL0     C87004   3.087   8.740   6.957  0.2772  0.6388 -0.0665
  645MOL0     C87005   3.174   8.671   6.901 -0.7748 -0.3007 -0.2150
  645MOL0     C87006   2.501   8.579   6.927 -0.4936 -0.3337  0.3291
  645MOL0     C87007   2.446   8.530   6.810 -0.6324  0.1914 -0.9233
  645MOL0     H87008   2.554   8.016   6.534 -2.0347  1.7092  1.0798
  645MOL0     H87009   2.517   7.885   6.315 -0.4585 -0.1135 -0.3203
  645MOL0     H87010   2.292   7.827   6.216  1.0160  0.7083  0.8596
  645MOL0     H87011   2.206   7.969   6.189 -0.3419 -1.0102 -0.7190
  645MOL0     H87012   2.141   7.931   5.984 -1.0927 -1.1503  1.4454
  645MOL0     H87013   2.299   7.847   5.941  0.1288 -0.1949  0.2256
  645MOL0     H87014   2.230   7.662   6.053  0.4482  0.7998 -1.6789
  645MOL0     H87015   2.062   7.713   6.102 -2.5468  0.5051 -3.2595
  645MOL0     H87016   2.032   7.761   5.872  0.7144  0.0185 -1.2776
  645MOL0     H87017   2.178   7.675   5.823 -1.3949  1.5755 -1.8069
  645MOL0     H87018   2.113   7.476   5.937 -0.8588 -1.0451  0.6003
  645MOL0     H87019   1.957   7.544   5.986  2.4009  2.2708  2.8802
  645MOL0     H87020   2.048   7.476   5.699 -1.4911  1.0883 -1.0565
  645MOL0     H87021   1.930   7.386   5.809 -1.8592  0.5295 -0.1199
  645MOL0     H87022   1.767   7.563   5.768  1.7148 -0.2217  3.2221
  645MOL0     H87023   1.895   7.673   5.703  1.9114 -0.1719  0.0698
  645MOL0     H87024   1.780   7.407   5.566 -0.9008  1.3656 -0.5929
  645MOL0     H87025   1.926   7.486   5.526  0.2561  0.5331  0.9502
  645MOL0     H87026   1.789   7.810   5.528  1.8887  0.2648 -1.8236
  645MOL0     H87027   1.567   7.953   5.449 -2.1972 -0.2007 -0.0988
  645MOL0     H87028   1.687   7.963   5.324  0.3992 -0.2925 -1.8149
  645MOL0     H87029   1.541   7.901   5.158 -0.2201 -0.5786  0.6810
  645MOL0     H87030   1.478   8.042   5.240 -2.7273 -1.3584 -0.0479
  645MOL0     H87031   1.360   7.827   5.372  1.6687  3.3363  1.1633
  645MOL0     H87032   1.354   7.779   5.197 -3.4568  2.3534 -3.5865
  645MOL0     H87033   1.143   7.899   5.251  0.8917 -0.1160  0.4510
  645MOL0     H87034   1.244   7.995   5.136  0.3723 -1.4406 -1.1790
  645MOL0     H87035   0.980   7.997   5.383  0.1879 -0.2629 -2.0830
  645MOL0     H87036   0.763   7.964   5.356  4.2459  1.0113 -0.7967
  645MOL0     H87037   0.713   8.119   5.411  1.6414  0.9778 -0.0239
  645MOL0     H87038   0.660   8.047   5.243  3.8724 -1.7208 -3.3014
  645MOL0     H87039   0.571   8.477   4.994 -0.3933  0.9567 -0.7085
  645MOL0     H87040   0.327   8.543   4.947 -0.2952 -0.4547 -0.2221
  645MOL0     H87041  -0.028   8.353   5.114 -1.4176  2.2446 -1.6306
  645MOL0     H87042   0.038   8.389   5.276 -0.3868  0.5198  0.8659
  645MOL0     H87043  -0.161   8.494   5.283 -0.5354 -0.4296  0.5775
  645MOL0     H87044  -0.057   8.623   5.249 -3.6697  1.0408  1.1043
  645MOL0     H87045  -0.209   8.475   5.027  0.2759  1.0014 -1.6239
  645MOL0     H87046  -0.151   8.640   5.009 -1.7121  1.0424  2.0864
  645MOL0     H87047  -0.378   8.663   5.054  2.3472  6.2742  0.8105
  645MOL0     H87048  -0.395   8.561   5.202  0.0836 -0.8088  0.0613
  645MOL0     H87049  -0.260   8.826   5.137 -2.8604  0.6852 -0.6867
  645MOL0     H87050  -0.215   8.739   5.284  1.1559  0.2330  0.0413
  645MOL0     H87051  -0.500   8.826   5.210 -0.2197 -0.9519 -1.1708
  645MOL0     H87052  -0.440   8.754   5.371 -2.3039 -0.8843 -1.6258
  645MOL0     H87053  -0.412   9.024   5.238 -2.4690 -0.1694  0.7963
  645MOL0     H87054  -0.273   8.997   5.337  1.0859 -1.0786  0.3368
  645MOL0     H87055  -0.557   8.976   5.439 -0.8604  0.7572 -0.3311
  645MOL0     H87056  -0.457   9.120   5.462 -2.1549 -1.1485 -1.4469
  645MOL0     H87057   0.209   8.284   5.273  2.5190  0.2062  2.6309
  645MOL0     H87058   0.399   8.189   5.277 -0.8689  1.3008  2.3236
  645MOL0     H87059   0.986   8.417   5.117  0.7811  0.8225  0.7710
  645MOL0     H87060   1.204   8.301   5.183 -0.5398 -0.1529 -1.4924
  645MOL0     H87061   2.357   8.235   6.147 -1.9168 -1.9510  0.1157
  645MOL0     H87062   2.417   8.375   6.340  1.7479  0.4419  4.0688
  645MOL0     H87063   2.665   8.267   6.783  1.8262  1.0057 -0.1265
  645MOL0     H87064   2.734   8.339   6.994  0.8257 -0.9607  0.6460
  645MOL0     H87065   2.743   8.709   6.992  0.9518  1.6800  0.6321
  645MOL0     H87066   2.602   8.760   7.097  0.5175 -0.6191  1.1575
  645MOL0     H87067   2.779   8.747   7.293  0.3535 -0.5805 -0.2351
  645MOL0     H87068   2.774   8.881   7.179  3.9429  0.2996 -1.6335
  645MOL0     H87069   2.933   8.629   7.142 -1.1668 -0.9704  0.6447
  645MOL0     H87070   3.003   8.761   7.231  0.1018  2.0460 -0.8231
  645MOL0     H87071   3.001   8.910   7.057 -2.7344  0.7608 -0.7657
  645MOL0     H87072   2.892   8.831   6.954  2.7291  1.9139 -2.0250
  645MOL0     H87073   3.260   8.619   6.865 -2.9372 -3.1915 -1.6426
  645MOL0     H87074   2.436   8.653   6.974 -2.5200 -1.7925 -0.0217
  645MOL0     H87075   2.356   8.579   6.776 -0.2660 -0.0295 -2.2779
  646MOL0     O87076   5.954   2.434   9.544 -0.1241  0.1741  0.9538
  646MOL0     C87077   6.027   2.478   9.631 -0.1910  0.5846 -0.5593
  646MOL0     O87078   6.150   2.428   9.671 -0.4115  0.1105  0.2446
  646MOL0     C87079   6.200   2.314   9.610 -0.9123  0.0688 -0.6075
  646MOL0     C87080   6.237   2.203   9.684 -0.1811 -1.0428  0.9040
  646MOL0     C87081   6.295   2.088   9.626 -0.1250  0.0174  0.0280
  646MOL0     C87082   6.296   2.079   9.480 -0.7031  0.2202  0.2034
  646MOL0     O87083   6.348   1.972   9.421  0.0604 -0.2157  0.7980
  646MOL0     C87084   6.456   1.899   9.479  0.0419  0.4148 -0.7940
  646MOL0     C87085   6.422   1.754   9.507 -0.1888 -0.3471 -0.2398
  646MOL0     C87086   6.439   1.656   9.386  0.2875  0.0358 -0.4104
  646MOL0     C87087   6.378   1.517   9.419 -0.3348 -0.2182  0.4089
  646MOL0     C87088   6.390   1.423   9.297 -0.2787 -0.5089  0.0532
  646MOL0     C87089   6.310   1.298   9.304  0.1155  0.0300  0.2813
  646MOL0     C87090   6.335   1.203   9.193 -0.2173 -0.5970 -0.4326
  646MOL0     C87091   6.284   1.057   9.217 -0.2723 -0.9167 -0.3574
  646MOL0     N87092   6.355   0.963   9.129  0.5007 -0.3592 -0.9532
  646MOL0     C87093   6.490   0.928   9.134 -0.2206  0.9008 -0.4929
  646MOL0     C87094   6.501   0.807   9.075 -1.2081  0.7576  0.0492
  646MOL0     C87095   6.637   0.737   9.037  0.2712 -1.4807 -0.0584
  646MOL0     C87096   6.634   0.586   9.064 -0.6107 -0.5629 -0.3847
  646MOL0     C87097   6.600   0.557   9.214  0.5936 -0.5390  0.6064
  646MOL0     C87098   6.592   0.411   9.248  0.0818 -0.1353 -0.1345
  646MOL0     O87099   6.540   0.391   9.379  0.0194  0.0139 -0.1280
  646MOL0     C87100   6.610   0.310   9.467  0.3337  0.3010  0.0579
  646MOL0     C87101   6.743   0.294   9.493  1.4113 -1.0383 -0.6950
  646MOL0     C87102   6.787   0.215   9.601 -0.1460  0.0423 -0.6016
  646MOL0     C87103   6.940   0.193   9.618  0.1483 -0.0994 -0.5119
  646MOL0     C87104   6.687   0.161   9.694  0.6849 -0.0212 -0.6203
  646MOL0     C87105   6.714   0.069   9.805  0.8403 -0.2753  0.2369
  646MOL0     O87106   6.602   0.013   9.861  0.3176 -0.3352  0.9959
  646MOL0     C87107   6.607  -0.026   9.995 -0.0856  0.7322 -0.6885
  646MOL0     C87108   6.680   0.045  10.095  1.7544 -0.6169  0.2806
  646MOL0     C87109   6.661   0.009  10.228 -0.4294 -0.2320 -0.4568
  646MOL0     C87110   6.575  -0.091  10.272 -0.8825  0.1107  0.3989
  646MOL0     O87111   6.582  -0.124  10.404 -0.3265 -0.3958 -0.0576
  646MOL0     C87112   6.473  -0.189  10.478 -0.3356 -0.0634  0.5201
  646MOL0     C87113   6.509  -0.340  10.467 -0.3284 -0.0673 -0.0439
  646MOL0     C87114   6.557  -0.384  10.600  0.2389  0.1326  0.3315
  646MOL0     C87115   6.615  -0.521  10.613 -0.1511 -0.3149  0.7280
  646MOL0     C87116   6.508  -0.634  10.617  0.7256  0.1417  0.2686
  646MOL0     C87117   6.539  -0.778  10.563  0.0798 -0.0873 -0.8313
  646MOL0     C87118   6.636  -0.852  10.640 -0.5307 -0.2854 -0.3814
  646MOL0     C87119   6.575  -0.980  10.689  0.2059  0.7804 -0.0402
  646MOL0    Cl87120   6.670  -1.077  10.786 -0.5045  0.4207 -0.2638
  646MOL0     C87121   6.500  -0.156  10.179 -0.1785 -0.3102 -1.0874
  646MOL0     C87122   6.515  -0.123  10.046 -0.6972 -0.3622 -0.6682
  646MOL0     O87123   6.829   0.048   9.847 -0.2999 -0.2516 -0.2037
  646MOL0     C87124   6.553   0.171   9.659 -0.0785  0.3452 -0.1306
  646MOL0     C87125   6.520   0.246   9.543 -0.8836  0.1068 -0.2521
  646MOL0     N87126   6.378   0.769   9.028 -0.1114  0.8237 -0.5905
  646MOL0     N87127   6.294   0.859   9.063 -0.5052 -0.3866  0.0883
  646MOL0     C87128   6.256   2.190   9.405  0.6675 -1.4452 -0.6655
  646MOL0     C87129   6.215   2.311   9.473 -0.3486 -0.7019 -0.2112
  646MOL0     C87130   5.999   2.601   9.701  0.7608  0.0942  0.1944
  646MOL0     C87131   6.099   2.670   9.783  0.1235  0.0412  0.4472
  646MOL0     C87132   6.077   2.793   9.845 -0.4127 -0.0049  0.3674
  646MOL0     C87133   5.952   2.854   9.820  0.4815  0.4014  0.0660
  646MOL0     O87134   5.928   2.980   9.876 -0.3944 -0.3265 -0.5752
  646MOL0     C87135   5.993   3.019   9.996  0.1148  1.0295  0.2044
  646MOL0     C87136   5.886   3.098  10.068 -0.1811  0.5026  0.5933
  646MOL0     C87137   5.824   3.002  10.172 -0.7726 -0.3856  0.9134
  646MOL0     C87138   5.699   3.064  10.234 -0.8737  0.3754  0.1236
  646MOL0     C87139   5.715   3.190  10.305  0.9765  0.1945 -0.2333
  646MOL0     C87140   5.729   3.292  10.372 -0.4479 -0.0639 -0.4719
  646MOL0     C87141   5.858   2.787   9.742  0.5347  0.0735 -0.5243
  646MOL0     C87142   5.878   2.666   9.679  0.3248 -0.3078 -0.5902
  646MOL0     H87143   6.242   2.213   9.792 -3.7904  1.6614  1.0000
  646MOL0     H87144   6.335   2.008   9.686 -0.4018 -1.1124 -1.2475
  646MOL0     H87145   6.549   1.896   9.422  0.4308  0.5655 -0.1706
  646MOL0     H87146   6.494   1.956   9.564  1.5877 -1.9870  0.2366
  646MOL0     H87147   6.492   1.724   9.585  2.4974  2.2496 -1.4659
  646MOL0     H87148   6.316   1.748   9.536  0.0542 -3.2049  0.3140
  646MOL0     H87149   6.371   1.702   9.313 -1.0875 -1.6040 -0.2123
  646MOL0     H87150   6.539   1.648   9.343 -0.6819  1.2873 -3.1766
  646MOL0     H87151   6.443   1.478   9.499 -1.7587 -0.4557  1.4938
  646MOL0     H87152   6.276   1.521   9.459  0.0988  0.8789  1.4671
  646MOL0     H87153   6.358   1.480   9.209 -1.5072 -1.5029 -0.1596
  646MOL0     H87154   6.496   1.398   9.290 -0.3502 -0.5303 -1.0709
  646MOL0     H87155   6.331   1.248   9.399 -0.8441 -3.6206 -1.2730
  646MOL0     H87156   6.204   1.323   9.299  0.5434  1.9351 -0.2921
  646MOL0     H87157   6.271   1.245   9.115  1.8003  0.8379 -1.4187
  646MOL0     H87158   6.439   1.202   9.159  0.0619 -3.5710  0.2439
  646MOL0     H87159   6.178   1.051   9.193 -0.7502 -0.1678  1.4044
  646MOL0     H87160   6.292   1.020   9.320  0.2418 -3.6908 -1.3107
  646MOL0     H87161   6.576   0.981   9.171 -0.6913 -0.0104  2.0803
  646MOL0     H87162   6.653   0.756   8.930 -1.3357 -0.9522 -0.2379
  646MOL0     H87163   6.718   0.780   9.097 -0.1174 -0.8849  0.0516
  646MOL0     H87164   6.734   0.544   9.049 -0.0756  0.9330 -1.3102
  646MOL0     H87165   6.566   0.531   8.998 -0.6669 -1.2688  0.2524
  646MOL0     H87166   6.503   0.603   9.229  0.6166  0.5744 -2.0730
  646MOL0     H87167   6.667   0.599   9.290 -2.6453  0.4131  3.1572
  646MOL0     H87168   6.698   0.381   9.247  1.4297  3.7138  2.7434
  646MOL0     H87169   6.523   0.355   9.185 -0.8059  0.0351  0.6709
  646MOL0     H87170   6.819   0.346   9.436 -1.1194 -0.2070 -3.5635
  646MOL0     H87171   6.982   0.246   9.703 -0.8976 -0.7153  0.4068
  646MOL0     H87172   6.945   0.084   9.633  1.6999 -0.0437 -0.5044
  646MOL0     H87173   6.993   0.211   9.524 -0.7414 -1.6939 -1.3698
  646MOL0     H87174   6.733   0.136  10.070 -0.3735 -0.0178 -2.6464
  646MOL0     H87175   6.717   0.061  10.305  1.1231 -2.0087 -0.3246
  646MOL0     H87176   6.476  -0.148  10.579  0.6859  0.4334  0.3053
  646MOL0     H87177   6.374  -0.174  10.433  0.6623  0.4398 -1.6435
  646MOL0     H87178   6.418  -0.388  10.429  1.3373 -0.1396 -4.6171
  646MOL0     H87179   6.585  -0.355  10.390 -1.0032 -1.0635 -0.5318
  646MOL0     H87180   6.477  -0.375  10.674 -1.3172 -1.8549 -1.0023
  646MOL0     H87181   6.639  -0.322  10.637  2.4937 -3.0713  1.0850
  646MOL0     H87182   6.683  -0.550  10.532  0.7601 -0.9437  1.6791
  646MOL0     H87183   6.672  -0.529  10.706 -0.7397 -2.8559  0.9437
  646MOL0     H87184   6.423  -0.602  10.556  0.1403 -1.9605 -0.1036
  646MOL0     H87185   6.467  -0.641  10.718 -0.9280  1.1667 -0.2808
  646MOL0     H87186   6.445  -0.833  10.554 -0.3117  0.6539 -1.2894
  646MOL0     H87187   6.582  -0.760  10.464  0.2401  0.5892 -0.6444
  646MOL0     H87188   6.673  -0.798  10.728 -0.9368 -4.2543  2.4949
  646MOL0     H87189   6.718  -0.877  10.572 -0.8891  0.8982 -1.2735
  646MOL0     H87190   6.527  -1.039  10.610  2.6759 -2.7145  0.8245
  646MOL0     H87191   6.491  -0.951  10.753 -0.2326 -0.5916  0.0325
  646MOL0     H87192   6.431  -0.231  10.216  1.8421 -0.2225  3.6144
  646MOL0     H87193   6.469  -0.190   9.974 -0.4782  0.4093 -1.5462
  646MOL0     H87194   6.474   0.129   9.720  1.3406  1.6101  2.7908
  646MOL0     H87195   6.417   0.246   9.508 -0.6227  3.5794 -1.4425
  646MOL0     H87196   6.244   2.194   9.297 -4.2532  0.6308 -0.2956
  646MOL0     H87197   6.178   2.394   9.414 -0.3140 -0.6615 -0.1767
  646MOL0     H87198   6.195   2.620   9.792 -0.7761 -1.7631  0.3064
  646MOL0     H87199   6.164   2.838   9.892  2.0054 -3.5620 -0.2890
  646MOL0     H87200   6.024   2.934  10.058 -0.0785  1.4326  0.8674
  646MOL0     H87201   6.088   3.071   9.977  2.0238 -2.2452  0.0359
  646MOL0     H87202   5.806   3.135  10.003 -1.4018 -1.8384  0.6520
  646MOL0     H87203   5.932   3.170  10.135  1.0841  1.3381 -1.1155
  646MOL0     H87204   5.899   2.973  10.247  0.8229  0.7214 -0.1707
  646MOL0     H87205   5.795   2.908  10.124  2.5877 -0.9672 -0.2789
  646MOL0     H87206   5.664   2.988  10.305  1.1684  0.1507  0.9872
  646MOL0     H87207   5.628   3.071  10.152  1.2223 -2.3601 -2.1564
  646MOL0     H87208   5.755   3.379  10.429  0.3445 -1.8130  1.9937
  646MOL0     H87209   5.755   2.821   9.728  0.2953  1.4429  3.2663
  646MOL0     H87210   5.809   2.619   9.610 -0.2697 -1.6676  0.8754
  647MOL0     O87211   7.531   1.413   9.009  0.4761 -0.1095  0.2160
  647MOL0     C87212   7.532   1.503   8.926 -0.6424 -0.1216  1.6345
  647MOL0     O87213   7.504   1.635   8.947 -0.0644 -0.2395  0.0428
  647MOL0     C87214   7.485   1.689   9.072 -0.2666  1.1271 -0.1363
  647MOL0     C87215   7.394   1.799   9.074 -0.5427 -0.2237  0.3582
  647MOL0     C87216   7.356   1.863   9.190 -0.0816  1.2555 -0.0996
  647MOL0     C87217   7.419   1.814   9.310 -0.0777 -0.1502 -0.7252
  647MOL0     O87218   7.397   1.852   9.438 -0.0147  0.6104 -0.5851
  647MOL0     C87219   7.293   1.951   9.449 -0.5770  0.3960  0.2701
  647MOL0     C87220   7.248   1.997   9.594 -0.5373 -0.0257 -0.1362
  647MOL0     C87221   7.344   2.107   9.646 -0.3784  0.0966 -0.2842
  647MOL0     C87222   7.290   2.214   9.736  0.0622 -0.8117 -0.0666
  647MOL0     C87223   7.388   2.323   9.791  0.4737  0.5769 -0.5374
  647MOL0     C87224   7.455   2.390   9.674 -0.8182  0.0455  0.5425
  647MOL0     C87225   7.560   2.477   9.739 -0.1503 -0.2103 -0.0899
  647MOL0     C87226   7.634   2.560   9.648  0.1340 -0.5069 -0.8661
  647MOL0     N87227   7.682   2.497   9.525 -0.2170 -0.5072  0.4376
  647MOL0     C87228   7.612   2.490   9.408 -0.9548  0.3293 -0.1397
  647MOL0     C87229   7.696   2.415   9.332  0.0317  0.3428  0.1412
  647MOL0     C87230   7.658   2.339   9.207  0.1143 -0.5990  0.0619
  647MOL0     C87231   7.583   2.214   9.245  0.0702 -0.9086 -0.6219
  647MOL0     C87232   7.672   2.106   9.306  0.4860 -0.4629 -0.5736
  647MOL0     C87233   7.761   2.043   9.211 -0.0100 -0.6781 -0.2958
  647MOL0     O87234   7.822   1.921   9.261 -1.1139 -0.2162  0.3340
  647MOL0     C87235   7.921   1.913   9.355  0.2135 -0.2154  0.5582
  647MOL0     C87236   7.999   2.021   9.392 -0.5805  0.3083 -0.3138
  647MOL0     C87237   8.129   2.004   9.454  0.2603  0.3701 -0.8768
  647MOL0     C87238   8.197   2.125   9.500  0.1590 -0.2192 -0.2624
  647MOL0     C87239   8.188   1.873   9.474 -0.3843  0.3291 -0.2517
  647MOL0     C87240   8.318   1.839   9.533  0.3318 -0.0993 -0.5608
  647MOL0     O87241   8.363   1.713   9.513  0.7158 -0.0210 -0.6759
  647MOL0     C87242   8.495   1.677   9.518 -0.5696 -0.0146 -0.6897
  647MOL0     C87243   8.597   1.754   9.468  0.0981 -0.8010  0.4798
  647MOL0     C87244   8.722   1.693   9.469 -0.8515 -1.4076 -0.2108
  647MOL0     C87245   8.738   1.557   9.502 -0.0551  0.4243  1.1742
  647MOL0     O87246   8.855   1.485   9.487  0.0838  0.4493 -0.1980
  647MOL0     C87247   8.975   1.562   9.476 -0.0450 -0.6888  0.6646
  647MOL0     C87248   9.095   1.470   9.462 -0.0271  0.4092 -0.3638
  647MOL0     C87249   9.090   1.376   9.340 -0.5469 -0.5423 -0.2236
  647MOL0     C87250   9.193   1.263   9.351  0.7549 -0.1054 -0.0371
  647MOL0     C87251   9.231   1.187   9.227  0.8309 -0.2848  0.6219
  647MOL0     C87252   9.110   1.125   9.157  0.8463  0.0135  0.3653
  647MOL0     C87253   9.155   1.036   9.042 -0.1528  0.5185  0.8775
  647MOL0     C87254   9.039   0.956   8.977  0.1765 -0.1862 -0.2014
  647MOL0    Cl87255   8.912   1.064   8.899  0.0832  0.8817 -0.3514
  647MOL0     C87256   8.632   1.486   9.558 -0.7843 -0.3801  0.2169
  647MOL0     C87257   8.515   1.548   9.566  0.5874  0.2229  0.0068
  647MOL0     O87258   8.374   1.929   9.606 -0.5446 -0.1183 -0.1968
  647MOL0     C87259   8.102   1.770   9.438 -0.9141  1.1052 -0.2171
  647MOL0     C87260   7.970   1.783   9.384 -0.2191  0.1162  0.1513
  647MOL0     N87261   7.815   2.392   9.399 -0.0703  0.3658 -0.0939
  647MOL0     N87262   7.809   2.447   9.512  0.1389 -0.1588  0.0665
  647MOL0     C87263   7.507   1.708   9.305  0.7856  0.1737 -0.7294
  647MOL0     C87264   7.543   1.644   9.190 -0.3686 -0.9826 -0.7251
  647MOL0     C87265   7.586   1.462   8.792  0.5526 -0.4769 -1.1281
  647MOL0     C87266   7.525   1.519   8.674  0.2436  0.5133  0.1779
  647MOL0     C87267   7.551   1.469   8.545 -0.8762  0.4138 -0.2521
  647MOL0     C87268   7.660   1.370   8.524 -1.0280 -0.3063 -0.4146
  647MOL0     O87269   7.697   1.318   8.404  0.2684  0.1923  0.0807
  647MOL0     C87270   7.654   1.389   8.289  0.0297  0.4195 -0.2448
  647MOL0     C87271   7.672   1.308   8.157 -0.1521 -0.1839  0.1614
  647MOL0     C87272   7.823   1.303   8.120  1.1093 -0.4431  0.3615
  647MOL0     C87273   7.838   1.243   7.979  0.1705 -1.0342 -1.1787
  647MOL0     C87274   7.988   1.251   7.969  0.1953  0.2123  0.0398
  647MOL0     C87275   8.109   1.248   7.952  0.3008 -0.3135 -0.3349
  647MOL0     C87276   7.711   1.314   8.644  1.3017 -0.3895  0.8683
  647MOL0     C87277   7.669   1.351   8.772 -0.0180  0.7679 -0.5772
  647MOL0     H87278   7.371   1.840   8.976 -3.6411 -0.9876  0.6357
  647MOL0     H87279   7.288   1.947   9.194  2.6386  3.5937  0.9950
  647MOL0     H87280   7.320   2.049   9.408 -1.2570  0.3767 -0.2341
  647MOL0     H87281   7.207   1.909   9.398  0.2345 -0.2905 -0.5704
  647MOL0     H87282   7.152   2.047   9.581 -0.2366  0.1629 -1.9268
  647MOL0     H87283   7.235   1.908   9.656 -0.3813 -0.1507 -0.2795
  647MOL0     H87284   7.422   2.053   9.701 -2.6532 -2.0446  1.0650
  647MOL0     H87285   7.395   2.153   9.562  2.1732  0.6621  1.4521
  647MOL0     H87286   7.217   2.270   9.677  0.1830 -0.2769  0.2855
  647MOL0     H87287   7.221   2.174   9.812  1.2522 -0.5515  1.1912
  647MOL0     H87288   7.335   2.389   9.860 -0.9424 -1.4730  0.4354
  647MOL0     H87289   7.456   2.257   9.846  0.8679  2.5982  1.5431
  647MOL0     H87290   7.505   2.308   9.620 -1.4243  0.1596 -0.2186
  647MOL0     H87291   7.386   2.438   9.604  0.5873  0.0546 -0.9013
  647MOL0     H87292   7.513   2.542   9.813 -0.2228 -1.3190  0.8688
  647MOL0     H87293   7.628   2.414   9.797 -1.8553 -0.5167  1.6623
  647MOL0     H87294   7.715   2.605   9.706 -2.4565 -0.1496  2.8100
  647MOL0     H87295   7.577   2.645   9.611  0.2225 -0.6013 -1.2286
  647MOL0     H87296   7.505   2.496   9.394 -1.1597 -2.4149 -0.4000
  647MOL0     H87297   7.591   2.395   9.141 -2.6363 -1.2585  2.0748
  647MOL0     H87298   7.750   2.312   9.156 -0.0498  1.3348 -1.3680
  647MOL0     H87299   7.520   2.177   9.164 -2.1890  0.7466  0.2658
  647MOL0     H87300   7.519   2.243   9.329 -0.5445 -0.0812 -1.3557
  647MOL0     H87301   7.600   2.028   9.329 -0.9019  1.2043  1.0628
  647MOL0     H87302   7.717   2.138   9.400 -0.6673 -0.7394  0.0874
  647MOL0     H87303   7.835   2.113   9.172 -2.2268  2.6961  1.1172
  647MOL0     H87304   7.695   2.010   9.130 -1.7675 -0.2391  0.8907
  647MOL0     H87305   7.952   2.119   9.386 -1.5552 -0.1576 -0.5483
  647MOL0     H87306   8.137   2.203   9.452 -1.8596 -3.2364 -3.1180
  647MOL0     H87307   8.187   2.129   9.609  2.4093  3.2068 -0.0222
  647MOL0     H87308   8.303   2.129   9.473  0.1274 -2.0443 -0.7887
  647MOL0     H87309   8.576   1.859   9.452  2.8267 -0.3670 -0.9728
  647MOL0     H87310   8.808   1.749   9.434 -1.3848 -0.7979 -0.5847
  647MOL0     H87311   8.983   1.630   9.391 -3.0661  0.6677  1.3458
  647MOL0     H87312   8.984   1.626   9.564 -3.0687  0.7680  0.0571
  647MOL0     H87313   9.185   1.531   9.460  0.3203 -0.0715  0.1866
  647MOL0     H87314   9.104   1.400   9.546  2.5084 -1.7835 -2.2776
  647MOL0     H87315   9.113   1.432   9.248 -0.2288  5.2209  2.9084
  647MOL0     H87316   8.990   1.332   9.351 -0.7646  0.2456  1.1815
  647MOL0     H87317   9.289   1.297   9.391  0.7470  1.0355 -0.9353
  647MOL0     H87318   9.157   1.201   9.433  1.1613  3.6947  3.3228
  647MOL0     H87319   9.315   1.119   9.238  0.3726 -1.1374 -0.9573
  647MOL0     H87320   9.264   1.264   9.157 -0.6896 -0.9640 -0.9060
  647MOL0     H87321   9.058   1.060   9.228 -0.8105 -0.4177 -1.1565
  647MOL0     H87322   9.032   1.193   9.121 -0.9758 -1.7845  0.7806
  647MOL0     H87323   9.234   0.969   9.078  2.5402  3.0753  0.0616
  647MOL0     H87324   9.208   1.093   8.965  2.0216  0.9309  2.6028
  647MOL0     H87325   8.982   0.899   9.050 -2.3265  1.4747 -0.7588
  647MOL0     H87326   9.085   0.877   8.915  2.3830  1.6773 -1.0864
  647MOL0     H87327   8.645   1.381   9.580  3.9090 -0.2225 -0.7751
  647MOL0     H87328   8.418   1.506   9.589 -0.2302  1.7299 -0.5113
  647MOL0     H87329   8.136   1.670   9.464  2.5008  1.8727 -1.2571
  647MOL0     H87330   7.908   1.699   9.356  0.9723 -0.7610  0.0451
  647MOL0     H87331   7.544   1.683   9.404 -0.0505  1.9390  0.0848
  647MOL0     H87332   7.624   1.572   9.193  1.4286  0.7381 -3.0865
  647MOL0     H87333   7.460   1.606   8.675  0.7779  0.9262  1.5665
  647MOL0     H87334   7.501   1.519   8.463 -1.5849  0.6716  0.3212
  647MOL0     H87335   7.549   1.420   8.295 -0.2530 -0.7259  1.2607
  647MOL0     H87336   7.707   1.485   8.291 -2.6758  2.0264  1.9815
  647MOL0     H87337   7.621   1.363   8.078  1.9874  0.2279 -1.0062
  647MOL0     H87338   7.622   1.211   8.167 -2.1014  0.6762 -0.7691
  647MOL0     H87339   7.876   1.247   8.197 -1.4799 -2.7684  0.5886
  647MOL0     H87340   7.859   1.407   8.117 -0.3040  0.0507 -1.8019
  647MOL0     H87341   7.793   1.307   7.903 -0.0258  0.2589 -0.0241
  647MOL0     H87342   7.801   1.141   7.964 -0.9633 -1.3226  2.5831
  647MOL0     H87343   8.215   1.250   7.933  0.4485 -1.6255  0.2392
  647MOL0     H87344   7.768   1.223   8.627 -2.9498 -2.8714 -1.7714
  647MOL0     H87345   7.721   1.304   8.854 -0.2669 -0.8108 -1.2914
  648MOL0     O87346  10.853  10.155   4.178 -0.4534  0.1176  0.1748
  648MOL0     C87347  10.971  10.188   4.202  0.3423  0.0013  0.7193
  648MOL0     O87348  11.030  10.299   4.159  0.1229 -0.5485 -0.7990
  648MOL0     C87349  11.003  10.343   4.036  0.8410 -0.9801  0.8916
  648MOL0     C87350  10.982  10.260   3.916  0.4567 -0.4632 -0.7141
  648MOL0     C87351  10.969  10.320   3.795  0.3545  0.5797  0.2047
  648MOL0     C87352  10.967  10.458   3.781 -0.6515 -0.0208  0.1141
  648MOL0     O87353  10.944  10.532   3.664  0.4442  0.7970  0.1417
  648MOL0     C87354  11.039  10.480   3.565  0.0599  0.4492  0.4762
  648MOL0     C87355  11.009  10.524   3.423  0.1314  0.7330  0.8719
  648MOL0     C87356  11.089  10.447   3.320 -0.1293  0.5835 -0.5599
  648MOL0     C87357  11.037  10.469   3.176  0.5153 -0.4119 -0.8002
  648MOL0     C87358  11.118  10.388   3.074 -0.3549  0.6688  0.2700
  648MOL0     C87359  11.098  10.431   2.925 -0.6781  0.2471  0.3021
  648MOL0     C87360  11.164  10.563   2.896  0.2311  0.1321  0.4900
  648MOL0     C87361  11.133  10.622   2.755  1.0770 -0.3331  0.0072
  648MOL0     N87362  10.991  10.646   2.729  0.0842  0.0279  0.0870
  648MOL0     C87363  10.887  10.690   2.814 -1.4181 -1.0293 -0.4779
  648MOL0     C87364  10.766  10.669   2.750 -0.4443 -0.2036 -0.2939
  648MOL0     C87365  10.632  10.667   2.820  0.1608 -0.3675 -0.1670
  648MOL0     C87366  10.635  10.616   2.961 -0.7109 -0.5713 -0.1277
  648MOL0     C87367  10.669  10.725   3.061 -0.9278 -0.7999  0.3179
  648MOL0     C87368  10.669  10.658   3.188 -0.1728  0.3747 -0.7685
  648MOL0     O87369  10.687  10.754   3.291  0.6338  0.1485 -0.1585
  648MOL0     C87370  10.651  10.706   3.416 -0.3158 -0.4969 -0.0165
  648MOL0     C87371  10.645  10.571   3.452 -0.3419  0.7912 -0.6469
  648MOL0     C87372  10.611  10.536   3.589 -0.7397  0.5005 -0.2741
  648MOL0     C87373  10.622  10.385   3.616 -0.4419  0.6942 -0.1266
  648MOL0     C87374  10.579  10.632   3.679  1.2604  0.7069 -0.1562
  648MOL0     C87375  10.569  10.606   3.823 -0.0149  0.5027 -0.4326
  648MOL0     O87376  10.517  10.491   3.878  0.1896 -0.4212 -0.1788
  648MOL0     C87377  10.512  10.489   4.017 -0.3203 -0.0390 -0.9875
  648MOL0     C87378  10.396  10.528   4.084 -0.5498  0.1406  0.2330
  648MOL0     C87379  10.394  10.537   4.228 -0.8140  0.6520  0.0496
  648MOL0     C87380  10.513  10.533   4.304 -0.2408  0.0648  0.6171
  648MOL0     O87381  10.514  10.564   4.438  0.2143 -0.2406  0.1145
  648MOL0     C87382  10.605  10.669   4.470 -0.0584  0.3450 -0.4278
  648MOL0     C87383  10.599  10.710   4.609 -0.4108  0.2028 -0.0855
  648MOL0     C87384  10.619  10.610   4.718  0.0459 -0.2289 -0.9659
  648MOL0     C87385  10.575  10.670   4.853  1.2298 -0.1215 -0.6157
  648MOL0     C87386  10.588  10.568   4.963 -0.1006  0.6375 -0.4914
  648MOL0     C87387  10.574  10.644   5.099  0.0669  0.5655  0.0184
  648MOL0     C87388  10.431  10.675   5.139 -0.3430  0.2661 -0.0313
  648MOL0     C87389  10.424  10.720   5.291 -0.1597 -0.8178 -0.4305
  648MOL0    Cl87390  10.441  10.600   5.425 -0.1209  0.5646 -0.1194
  648MOL0     C87391  10.630  10.495   4.238 -0.3236 -0.6368  0.7098
  648MOL0     C87392  10.631  10.473   4.094 -0.2648  0.2761 -0.6864
  648MOL0     O87393  10.621  10.693   3.890 -0.3590 -0.0063  0.8187
  648MOL0     C87394  10.584  10.768   3.634  1.0557  0.5314 -0.3800
  648MOL0     C87395  10.607  10.801   3.501 -0.2830 -0.4408  0.2451
  648MOL0     N87396  10.811  10.624   2.624  0.9834  0.5969  0.3832
  648MOL0     N87397  10.935  10.587   2.620 -0.6952  0.3424  0.8316
  648MOL0     C87398  10.964  10.538   3.890  0.1349 -0.6982 -0.5335
  648MOL0     C87399  10.987  10.485   4.020 -0.7792  0.2082  0.3998
  648MOL0     C87400  11.051  10.102   4.285 -0.0132  0.6760  0.0016
  648MOL0     C87401  10.993  10.023   4.391 -0.3289 -0.4182 -0.4430
  648MOL0     C87402  11.075   9.944   4.477  0.6424 -0.4034  0.8826
  648MOL0     C87403  11.216   9.949   4.464 -0.4112 -0.3752  0.2883
  648MOL0     O87404  11.302   9.874   4.542  0.0304 -0.2580 -0.0780
  648MOL0     C87405  11.247   9.817   4.664 -0.2810  0.5397 -0.1761
  648MOL0     C87406  11.356   9.751   4.754 -0.7461 -0.0720 -0.6223
  648MOL0     C87407  11.424   9.637   4.688  0.1231  0.2501  0.0254
  648MOL0     C87408  11.509   9.547   4.766 -0.2095  0.7454  0.0637
  648MOL0     C87409  11.647   9.549   4.722 -0.3318 -0.2037 -0.5930
  648MOL0     C87410  11.752   9.592   4.682 -0.6092 -0.2222  0.0764
  648MOL0     C87411  11.268  10.019   4.359 -0.2225 -0.4460  0.0594
  648MOL0     C87412  11.184  10.090   4.270 -0.1865  0.1441  0.7779
  648MOL0     H87413  10.983  10.151   3.924 -1.0595 -0.5256 -1.0023
  648MOL0     H87414  10.967  10.253   3.710 -0.7328  0.8882 -0.0243
  648MOL0     H87415  11.137  10.509   3.606 -0.2303  0.4044  1.2166
  648MOL0     H87416  11.045  10.371   3.571  0.6281  0.5457  2.4610
  648MOL0     H87417  10.904  10.508   3.397  0.3806  1.7049 -0.9190
  648MOL0     H87418  11.026  10.631   3.413 -2.2884  0.9748 -2.7664
  648MOL0     H87419  11.195  10.474   3.328  0.3616 -1.6143  1.5841
  648MOL0     H87420  11.084  10.341   3.347 -0.0524  0.5041 -0.8546
  648MOL0     H87421  10.932  10.439   3.163  0.7039 -0.9091 -1.2117
  648MOL0     H87422  11.042  10.576   3.152  0.4325 -0.6166 -1.7774
  648MOL0     H87423  11.223  10.404   3.101 -0.3285  3.2733 -1.0302
  648MOL0     H87424  11.095  10.281   3.074 -0.7088  0.7445  0.5609
  648MOL0     H87425  11.144  10.358   2.858  2.7514  0.3362  2.3182
  648MOL0     H87426  10.991  10.435   2.902 -1.3227  0.9217  3.0795
  648MOL0     H87427  11.116  10.629   2.969 -2.5043  0.5538 -1.5366
  648MOL0     H87428  11.272  10.555   2.910  0.2746 -3.0888 -0.8663
  648MOL0     H87429  11.167  10.539   2.692  0.1740  0.0885 -1.0852
  648MOL0     H87430  11.192  10.713   2.739 -0.0834  0.7853  1.7088
  648MOL0     H87431  10.905  10.724   2.916 -2.5117  0.4830 -0.7563
  648MOL0     H87432  10.608  10.773   2.836 -1.3532 -0.6644 -0.4165
  648MOL0     H87433  10.557  10.612   2.762 -1.7290 -0.0158  1.8372
  648MOL0     H87434  10.715  10.543   2.973  0.8202  0.8383 -1.2408
  648MOL0     H87435  10.534  10.579   2.983 -0.1179 -2.9625 -1.1444
  648MOL0     H87436  10.595  10.806   3.061 -0.4473 -0.3572  0.3108
  648MOL0     H87437  10.772  10.760   3.054 -0.7166 -1.5182 -0.2960
  648MOL0     H87438  10.764  10.604   3.189  2.1666  4.0974 -0.5593
  648MOL0     H87439  10.574  10.606   3.203 -1.1995  2.2826 -0.2749
  648MOL0     H87440  10.664  10.495   3.377 -3.3922  0.6329 -1.4107
  648MOL0     H87441  10.687  10.375   3.703  0.0636 -1.7259 -0.7102
  648MOL0     H87442  10.524  10.339   3.630 -0.2330  0.4167  0.4616
  648MOL0     H87443  10.674  10.332   3.536  1.1171  0.5901  0.9131
  648MOL0     H87444  10.304  10.529   4.028 -0.8513 -1.6492  0.6331
  648MOL0     H87445  10.299  10.568   4.271 -0.5626 -0.5329  1.4984
  648MOL0     H87446  10.708  10.634   4.455  0.4316  1.5700 -0.0660
  648MOL0     H87447  10.592  10.746   4.394  1.7111 -0.8823 -2.0602
  648MOL0     H87448  10.682  10.780   4.622  0.0139 -0.4435  0.7766
  648MOL0     H87449  10.511  10.769   4.635  2.2437  3.6244  2.0617
  648MOL0     H87450  10.726  10.591   4.725 -0.5034 -3.5056  0.5457
  648MOL0     H87451  10.565  10.515   4.706  0.8021 -1.0824  1.7869
  648MOL0     H87452  10.639  10.757   4.874  1.7434 -0.8776  1.0873
  648MOL0     H87453  10.471  10.702   4.860  1.1927 -0.4827  0.6048
  648MOL0     H87454  10.680  10.509   4.970 -0.6964 -0.2214  0.3525
  648MOL0     H87455  10.516  10.486   4.955  2.3661 -1.5898 -1.2127
  648MOL0     H87456  10.625  10.581   5.173 -0.0092  0.5985  0.0985
  648MOL0     H87457  10.624  10.741   5.093 -2.1915  1.8423  0.7092
  648MOL0     H87458  10.375  10.582   5.125  2.5802 -1.8000  1.0050
  648MOL0     H87459  10.391  10.758   5.079  0.5658  2.9077  2.7514
  648MOL0     H87460  10.333  10.777   5.310  0.3099 -0.1132 -0.2575
  648MOL0     H87461  10.505  10.792   5.306  0.6359 -1.6058 -0.8071
  648MOL0     H87462  10.727  10.486   4.286  0.1872  0.6766 -0.0313
  648MOL0     H87463  10.727  10.441   4.056  0.8997  1.9436  0.6787
  648MOL0     H87464  10.557  10.840   3.711  0.7173  0.8922 -0.8344
  648MOL0     H87465  10.616  10.905   3.472  1.6834 -0.4992  0.4994
  648MOL0     H87466  10.968  10.646   3.877  1.6348 -0.8272 -1.3194
  648MOL0     H87467  10.953  10.542   4.106 -3.5920 -2.2080  1.0314
  648MOL0     H87468  10.889  10.019   4.423 -0.3120 -0.6798 -0.4169
  648MOL0     H87469  11.019   9.888   4.551 -1.2929  0.2221 -0.0547
  648MOL0     H87470  11.197   9.901   4.711  2.7773  2.5783 -0.2920
  648MOL0     H87471  11.174   9.738   4.641  0.6854  0.2522 -2.5600
  648MOL0     H87472  11.302   9.706   4.838 -0.6551  2.6480  1.0310
  648MOL0     H87473  11.428   9.820   4.798 -0.1545 -0.4483 -0.9983
  648MOL0     H87474  11.466   9.676   4.595 -1.8661  1.3382 -0.4749
  648MOL0     H87475  11.338   9.582   4.648 -1.2849  1.7488  0.9035
  648MOL0     H87476  11.489   9.439   4.761 -0.8961  0.9161 -1.1362
  648MOL0     H87477  11.502   9.575   4.871  3.2101 -1.0222  0.9012
  648MOL0     H87478  11.844   9.638   4.652 -1.8789  3.5573  1.4652
  648MOL0     H87479  11.376  10.022   4.352 -0.3340  0.6125 -1.9645
  648MOL0     H87480  11.240  10.148   4.197  3.6936 -2.8718  0.9664
  649MOL0     O87481   4.009   9.783   5.959 -0.2264  0.2685 -0.2018
  649MOL0     C87482   4.027   9.722   6.061 -0.8623  0.3462  1.2021
  649MOL0     O87483   3.947   9.628   6.112  0.0688 -0.1447 -0.3072
  649MOL0     C87484   3.833   9.572   6.051  0.4388 -0.1123 -0.4460
  649MOL0     C87485   3.775   9.468   6.120  0.0621 -0.1563 -0.4034
  649MOL0     C87486   3.659   9.396   6.078  0.6417  0.1943  0.4476
  649MOL0     C87487   3.593   9.428   5.968 -0.4492  0.5179 -0.2470
  649MOL0     O87488   3.473   9.377   5.916 -0.5106 -0.2515 -0.3838
  649MOL0     C87489   3.413   9.259   5.961 -0.5148 -0.4550 -0.6305
  649MOL0     C87490   3.327   9.214   5.843 -0.1647  0.0600  1.1956
  649MOL0     C87491   3.212   9.315   5.822  0.2133 -0.4009 -0.4190
  649MOL0     C87492   3.154   9.313   5.682  0.4580 -0.9674  0.3193
  649MOL0     C87493   3.026   9.401   5.681  0.6754  1.6105  0.1056
  649MOL0     C87494   2.978   9.429   5.537  0.0060 -0.3039  1.0011
  649MOL0     C87495   2.896   9.310   5.491  0.0830  1.0064 -0.1752
  649MOL0     C87496   2.829   9.341   5.351 -0.5618  0.0261 -0.4841
  649MOL0     N87497   2.749   9.228   5.307  0.1572 -0.7053 -0.3139
  649MOL0     C87498   2.622   9.229   5.255  0.7322 -1.1526  0.5662
  649MOL0     C87499   2.586   9.100   5.237 -0.1919  0.0545 -1.3764
  649MOL0     C87500   2.449   9.040   5.228  0.3110  0.2487 -0.2293
  649MOL0     C87501   2.371   9.124   5.125  0.1228 -0.4895 -0.7738
  649MOL0     C87502   2.276   9.032   5.048  0.4148  0.0824 -0.0907
  649MOL0     C87503   2.214   9.086   4.916 -0.1779 -0.3719 -0.0715
  649MOL0     O87504   2.186   9.226   4.944 -0.0008  0.6881 -0.3658
  649MOL0     C87505   2.233   9.309   4.855 -0.5174 -0.2028  0.1066
  649MOL0     C87506   2.299   9.422   4.912  0.8097  0.3200  0.9565
  649MOL0     C87507   2.330   9.525   4.828  0.6271  0.4758  0.1212
  649MOL0     C87508   2.411   9.632   4.894 -0.1309 -0.8084 -0.4268
  649MOL0     C87509   2.305   9.513   4.688  0.3105  0.2795  0.7028
  649MOL0     C87510   2.326   9.632   4.608 -0.0885  0.4145  0.0320
  649MOL0     O87511   2.442   9.631   4.541 -0.9230  0.1075  0.0578
  649MOL0     C87512   2.481   9.741   4.467 -0.0346 -0.8086  0.7725
  649MOL0     C87513   2.522   9.740   4.330  0.0978  0.6332 -0.2193
  649MOL0     C87514   2.578   9.863   4.274  0.0933 -0.2793 -0.5754
  649MOL0     C87515   2.585   9.987   4.352  0.4010  1.1711  0.3586
  649MOL0     O87516   2.632  10.093   4.282 -0.8611 -0.4745  0.5287
  649MOL0     C87517   2.662  10.213   4.360  0.6229 -0.2579 -0.7802
  649MOL0     C87518   2.712  10.326   4.281 -0.5957 -0.1106  0.0307
  649MOL0     C87519   2.711  10.447   4.372 -0.0946  1.1019  0.1261
  649MOL0     C87520   2.782  10.561   4.308  0.1032  1.0681  0.3002
  649MOL0     C87521   2.794  10.678   4.407  0.6718  0.3208  0.1175
  649MOL0     C87522   2.823  10.804   4.335  0.2183  0.2432  0.2842
  649MOL0     C87523   2.849  10.922   4.424  0.1735  0.8007  0.4441
  649MOL0     C87524   2.891  11.046   4.337  0.0806  1.0479 -0.0151
  649MOL0    Cl87525   3.047  11.046   4.268 -0.0226  0.2542  0.0296
  649MOL0     C87526   2.538   9.984   4.486  1.0512  0.4860  0.2569
  649MOL0     C87527   2.492   9.862   4.538 -0.1218  0.4852 -0.5414
  649MOL0     O87528   2.249   9.725   4.614  0.6012  0.1250  0.2597
  649MOL0     C87529   2.250   9.396   4.627  0.1220  0.1526  0.4610
  649MOL0     C87530   2.224   9.290   4.714 -0.1967  0.1465  0.8058
  649MOL0     N87531   2.697   9.021   5.273  0.0227  0.2045  1.0715
  649MOL0     N87532   2.789   9.098   5.308 -0.1579 -0.7920 -0.3682
  649MOL0     C87533   3.642   9.541   5.902  0.0418  0.2992  1.7611
  649MOL0     C87534   3.763   9.604   5.931  0.7917 -1.2368 -0.2277
  649MOL0     C87535   4.159   9.729   6.133  0.7444 -0.1340 -0.1726
  649MOL0     C87536   4.192   9.634   6.233  0.3904  0.2804 -0.0325
  649MOL0     C87537   4.308   9.637   6.297  0.4976  0.7470  0.5552
  649MOL0     C87538   4.393   9.739   6.287  0.1054 -0.0449  0.4942
  649MOL0     O87539   4.503   9.725   6.359  0.2552 -0.1644  0.4340
  649MOL0     C87540   4.599   9.828   6.347 -1.4291 -0.4127 -0.1515
  649MOL0     C87541   4.693   9.803   6.223  0.5674 -0.2434 -0.3854
  649MOL0     C87542   4.797   9.914   6.218 -0.4592  0.1037  0.7052
  649MOL0     C87543   4.885   9.912   6.089  0.2220  0.8927  0.5612
  649MOL0     C87544   4.984  10.012   6.106 -0.8762 -0.3313  0.2118
  649MOL0     C87545   5.081  10.087   6.124 -0.7695  0.1646 -0.1430
  649MOL0     C87546   4.364   9.836   6.196 -0.1693  0.8538  0.0644
  649MOL0     C87547   4.253   9.830   6.112  0.8239  0.7307  0.6631
  649MOL0     H87548   3.827   9.427   6.206  0.1752 -1.1404 -0.9322
  649MOL0     H87549   3.610   9.314   6.129 -0.2283 -0.6211 -1.5882
  649MOL0     H87550   3.475   9.172   5.983 -0.6884 -0.8649 -1.6933
  649MOL0     H87551   3.346   9.276   6.046  0.4404 -4.5821  1.2085
  649MOL0     H87552   3.391   9.201   5.755 -1.7535 -0.9714  0.1296
  649MOL0     H87553   3.280   9.117   5.863 -1.5531  0.5642  0.4807
  649MOL0     H87554   3.128   9.279   5.881  0.5072 -1.8772 -0.8676
  649MOL0     H87555   3.246   9.417   5.846 -4.8956  1.5028  0.0298
  649MOL0     H87556   3.237   9.351   5.621  0.3471 -2.7320 -1.0058
  649MOL0     H87557   3.129   9.212   5.649  0.2356 -0.3896 -1.3857
  649MOL0     H87558   2.944   9.341   5.723  2.8552 -1.8689 -0.1996
  649MOL0     H87559   3.033   9.498   5.731 -1.4166  3.1600 -2.3175
  649MOL0     H87560   2.923   9.523   5.538 -0.0098 -0.1770 -2.1115
  649MOL0     H87561   3.062   9.441   5.469 -0.6504 -1.0415  0.0422
  649MOL0     H87562   2.970   9.229   5.492 -0.8059  0.1711 -0.2883
  649MOL0     H87563   2.815   9.268   5.552 -0.4345 -2.5938 -3.0229
  649MOL0     H87564   2.900   9.360   5.269  0.7504 -0.7002  0.4515
  649MOL0     H87565   2.765   9.426   5.377  1.4936  1.6297 -0.4075
  649MOL0     H87566   2.559   9.317   5.268  1.3982 -0.7431  1.0948
  649MOL0     H87567   2.463   8.936   5.197 -2.8375 -0.8328  1.4901
  649MOL0     H87568   2.398   9.033   5.324  2.6469 -0.7032  1.0215
  649MOL0     H87569   2.447   9.159   5.054  5.6976 -4.3685  2.4810
  649MOL0     H87570   2.333   9.216   5.169  0.9457  0.0073 -1.0730
  649MOL0     H87571   2.187   9.020   5.109 -0.4121 -1.6984 -1.5414
  649MOL0     H87572   2.327   8.936   5.035  0.3453  0.0566 -0.1694
  649MOL0     H87573   2.118   9.034   4.907 -0.3117 -0.0168 -0.7009
  649MOL0     H87574   2.280   9.059   4.834  0.7168  3.4190 -0.7755
  649MOL0     H87575   2.312   9.407   5.018  2.5315 -2.0186  0.5107
  649MOL0     H87576   2.354   9.673   4.978  0.4565  1.9444 -1.2464
  649MOL0     H87577   2.498   9.580   4.935  0.2515 -0.4373 -0.7633
  649MOL0     H87578   2.443   9.715   4.830 -0.0200  0.5164  1.2394
  649MOL0     H87579   2.495   9.655   4.269 -1.1060  1.8180 -1.4000
  649MOL0     H87580   2.604   9.874   4.169 -0.9722  2.8483 -0.6172
  649MOL0     H87581   2.562  10.241   4.393  0.2053 -3.2765  0.8230
  649MOL0     H87582   2.721  10.192   4.450 -1.7439  0.8513  1.1365
  649MOL0     H87583   2.812  10.304   4.242 -1.2340 -3.7956  0.1114
  649MOL0     H87584   2.656  10.354   4.192  0.5472  0.2726 -0.5931
  649MOL0     H87585   2.754  10.417   4.468 -1.9895 -4.7426 -0.4429
  649MOL0     H87586   2.606  10.469   4.395 -1.1370 -1.6239 -1.6173
  649MOL0     H87587   2.870  10.535   4.248 -0.1314  3.1429 -1.0751
  649MOL0     H87588   2.713  10.589   4.228  0.6588  1.1897 -0.1453
  649MOL0     H87589   2.873  10.649   4.477 -1.6341  0.1810  2.8526
  649MOL0     H87590   2.697  10.685   4.457 -0.2821  2.9292 -1.8639
  649MOL0     H87591   2.912  10.782   4.275 -1.9626 -1.4632 -2.6413
  649MOL0     H87592   2.740  10.823   4.265  0.1344 -2.3009 -0.4348
  649MOL0     H87593   2.924  10.901   4.500 -2.4262  0.6380  3.1512
  649MOL0     H87594   2.751  10.937   4.469 -0.5614  0.0329 -0.8247
  649MOL0     H87595   2.887  11.132   4.405  0.1370 -0.2081  1.6463
  649MOL0     H87596   2.819  11.056   4.254 -4.7708  0.2479  3.6106
  649MOL0     H87597   2.538  10.069   4.554  2.2671  2.1229 -1.6919
  649MOL0     H87598   2.488   9.852   4.646  0.4768 -0.5552 -0.6021
  649MOL0     H87599   2.228   9.386   4.521  2.8858  0.8995 -0.2655
  649MOL0     H87600   2.179   9.203   4.668  1.1121 -0.6362  0.9522
  649MOL0     H87601   3.594   9.579   5.813 -3.1349 -0.9247  2.8323
  649MOL0     H87602   3.802   9.690   5.878  4.0475 -1.3714  1.6632
  649MOL0     H87603   4.122   9.553   6.250 -1.9894  2.0600 -0.6565
  649MOL0     H87604   4.327   9.556   6.366 -0.5805 -0.6814 -0.7719
  649MOL0     H87605   4.560   9.930   6.338 -1.1100 -0.3857 -1.3545
  649MOL0     H87606   4.669   9.829   6.431  1.3468  0.7954 -2.3091
  649MOL0     H87607   4.635   9.810   6.130 -2.2467  0.4148  1.2994
  649MOL0     H87608   4.739   9.705   6.238  0.9893  0.0460  0.2512
  649MOL0     H87609   4.863   9.912   6.305  2.0188  3.8744 -0.8306
  649MOL0     H87610   4.730  10.000   6.221 -1.2759 -0.4620 -0.3543
  649MOL0     H87611   4.827   9.918   5.996  0.7538 -0.5524  0.1047
  649MOL0     H87612   4.945   9.821   6.077 -0.9519 -0.1003  1.8964
  649MOL0     H87613   5.171  10.142   6.140 -0.3151 -0.2528 -1.1697
  649MOL0     H87614   4.432   9.920   6.183  0.9601 -0.0372  0.0277
  649MOL0     H87615   4.237   9.907   6.038 -1.6338  2.2878  2.6515
  650MOL0     O87616   3.584   1.186  10.476 -0.8644 -0.7489 -0.4126
  650MOL0     C87617   3.692   1.132  10.494  0.0583  0.3671 -0.4497
  650MOL0     O87618   3.740   1.095  10.620  0.0699  0.7462 -0.7339
  650MOL0     C87619   3.668   1.155  10.727 -0.1548  0.4948  0.0840
  650MOL0     C87620   3.557   1.090  10.790  0.5964 -0.2611  0.4393
  650MOL0     C87621   3.490   1.150  10.894  0.3579 -0.4185 -1.1848
  650MOL0     C87622   3.539   1.272  10.948  0.3469 -0.6274 -0.1203
  650MOL0     O87623   3.479   1.330  11.059  0.9028  0.1747  0.2342
  650MOL0     C87624   3.425   1.461  11.042  0.3649 -0.7158  0.7588
  650MOL0     C87625   3.272   1.442  11.041  0.2116  0.5389  0.7542
  650MOL0     C87626   3.219   1.382  10.909  1.1491 -0.6039 -0.1244
  650MOL0     C87627   3.063   1.375  10.919 -0.5258 -0.4882  0.9512
  650MOL0     C87628   2.992   1.490  10.839 -0.5980 -0.8707  0.0608
  650MOL0     C87629   2.995   1.498  10.684 -0.8364 -0.0758 -0.1381
  650MOL0     C87630   2.939   1.379  10.609  0.0409 -0.4443  0.2903
  650MOL0     C87631   2.946   1.403  10.453  0.0837  0.0389 -0.7169
  650MOL0     N87632   2.851   1.314  10.380  0.4323  0.4910 -0.6442
  650MOL0     C87633   2.841   1.177  10.382  0.6141 -0.2265  0.2650
  650MOL0     C87634   2.756   1.148  10.280 -1.0609  0.0265  0.9882
  650MOL0     C87635   2.726   1.006  10.244 -0.3592  0.4061  0.4821
  650MOL0     C87636   2.570   0.995  10.242 -0.4931 -0.4525  0.4290
  650MOL0     C87637   2.522   0.867  10.182  0.4446  0.8677  0.1236
  650MOL0     C87638   2.366   0.863  10.186  0.2203  0.1998  0.0884
  650MOL0     O87639   2.328   0.839  10.325 -0.3425 -0.2387 -0.0539
  650MOL0     C87640   2.200   0.858  10.363 -0.1996 -0.9197 -0.2274
  650MOL0     C87641   2.158   0.770  10.463 -0.8726 -0.4185  0.5048
  650MOL0     C87642   2.035   0.785  10.529  0.2058  0.7971 -0.6343
  650MOL0     C87643   1.994   0.699  10.654  0.0131 -0.3179  0.8221
  650MOL0     C87644   1.948   0.882  10.489 -0.7696 -0.6643 -0.0825
  650MOL0     C87645   1.822   0.910  10.557 -0.4292  0.2540 -0.4054
  650MOL0     O87646   1.727   0.812  10.575 -0.6543  0.6934 -0.0636
  650MOL0     C87647   1.614   0.829  10.645 -0.4533 -0.2985 -0.2503
  650MOL0     C87648   1.565   0.953  10.691  0.5124 -0.1542 -0.0052
  650MOL0     C87649   1.442   0.955  10.761  0.5967 -0.2227 -0.1445
  650MOL0     C87650   1.368   0.838  10.793 -1.0146 -0.4616 -0.5088
  650MOL0     O87651   1.243   0.847  10.850  0.1151 -0.3705 -0.0961
  650MOL0     C87652   1.161   0.732  10.884  0.8362  0.3987  0.6683
  650MOL0     C87653   1.217   0.662  11.002  0.2536 -0.1408  0.1160
  650MOL0     C87654   1.147   0.531  11.011  0.3998  0.3015  0.1568
  650MOL0     C87655   1.148   0.480  11.158 -0.4814 -0.2301 -0.1383
  650MOL0     C87656   1.043   0.362  11.170 -0.5183  0.1062  0.3855
  650MOL0     C87657   0.892   0.383  11.162  0.7117 -0.9279 -0.7861
  650MOL0     C87658   0.823   0.252  11.184  0.5019  0.1086 -0.2068
  650MOL0     C87659   0.670   0.267  11.155 -0.1058 -0.3093 -0.6911
  650MOL0    Cl87660   0.603   0.406  11.240 -0.0627 -0.0319  0.0949
  650MOL0     C87661   1.425   0.715  10.753  0.1310 -0.2198 -0.0508
  650MOL0     C87662   1.543   0.712  10.675 -0.3140  1.5048 -0.5685
  650MOL0     O87663   1.828   1.020  10.609  0.1672 -0.0286 -0.2454
  650MOL0     C87664   1.986   0.962  10.386 -0.1558 -0.0086 -0.1003
  650MOL0     C87665   2.108   0.954  10.322  0.2187 -0.3440  0.1711
  650MOL0     N87666   2.724   1.265  10.220  0.4414  0.4059  0.0825
  650MOL0     N87667   2.768   1.363  10.286  0.1492  0.7059 -0.6736
  650MOL0     C87668   3.647   1.333  10.886 -0.2858  0.3532 -1.0775
  650MOL0     C87669   3.714   1.270  10.787  0.0710  0.4411  0.7355
  650MOL0     C87670   3.764   1.094  10.374  0.4261  0.6842  0.3495
  650MOL0     C87671   3.858   0.995  10.401  0.3042 -1.5397  1.4064
  650MOL0     C87672   3.931   0.952  10.293 -0.3645 -0.3876  0.2947
  650MOL0     C87673   3.903   0.980  10.159  0.0629 -0.2627  0.9937
  650MOL0     O87674   3.982   0.936  10.051  1.6275 -0.1443 -0.4589
  650MOL0     C87675   4.072   0.829  10.079 -0.1784  0.9697  0.2556
  650MOL0     C87676   4.148   0.805   9.947  0.3665  0.4787  0.2297
  650MOL0     C87677   4.278   0.719   9.961  1.0787 -0.4310 -1.4513
  650MOL0     C87678   4.370   0.714   9.840  0.2701 -0.4284 -0.0486
  650MOL0     C87679   4.299   0.615   9.755 -0.0352 -0.9596  0.1133
  650MOL0     C87680   4.229   0.540   9.692  0.7779 -0.4782 -0.5753
  650MOL0     C87681   3.803   1.074  10.132  0.8993  0.6489  0.0813
  650MOL0     C87682   3.734   1.128  10.241  0.4845 -1.1896 -0.1954
  650MOL0     H87683   3.522   0.999  10.741  0.9097 -0.0575 -0.1695
  650MOL0     H87684   3.408   1.103  10.948 -0.9843 -0.3231 -3.0355
  650MOL0     H87685   3.451   1.525  11.126 -1.4988 -1.8642  2.2756
  650MOL0     H87686   3.470   1.508  10.954 -2.4298 -1.1214 -1.0092
  650MOL0     H87687   3.242   1.391  11.133 -0.4031  1.2541  0.9562
  650MOL0     H87688   3.220   1.537  11.055  0.1063  0.6993 -0.5580
  650MOL0     H87689   3.248   1.446  10.824 -0.9220 -0.3991 -0.7414
  650MOL0     H87690   3.260   1.284  10.883 -0.0484 -1.0329 -0.4678
  650MOL0     H87691   3.053   1.276  10.873  1.0947 -1.0484  1.7409
  650MOL0     H87692   3.028   1.370  11.023  1.3738  3.3382  1.9151
  650MOL0     H87693   2.884   1.485  10.858 -1.4359  1.1447 -3.2993
  650MOL0     H87694   3.028   1.585  10.877  0.3670 -1.0783 -0.3107
  650MOL0     H87695   2.942   1.591  10.661  0.6215  0.3872 -1.8523
  650MOL0     H87696   3.101   1.507  10.658 -0.2402 -0.9925  1.7953
  650MOL0     H87697   2.985   1.283  10.635 -2.4495 -2.4673 -2.0971
  650MOL0     H87698   2.838   1.356  10.644  0.0830 -2.1589 -0.5946
  650MOL0     H87699   3.051   1.396  10.424  0.0182 -0.0670 -0.9261
  650MOL0     H87700   2.919   1.508  10.435 -1.5370  0.3429  2.5965
  650MOL0     H87701   2.898   1.109  10.444  2.7104  2.0843  1.0879
  650MOL0     H87702   2.767   1.000  10.143 -0.2591  0.0863  0.5369
  650MOL0     H87703   2.767   0.937  10.319 -1.7973 -1.3931 -0.2942
  650MOL0     H87704   2.524   1.080  10.191 -1.6023 -0.5307  1.2436
  650MOL0     H87705   2.542   0.998  10.348 -0.2653 -0.1894  0.4846
  650MOL0     H87706   2.566   0.783  10.237 -0.2411 -0.2390 -0.9786
  650MOL0     H87707   2.566   0.861  10.082  1.5489 -2.0587  0.7047
  650MOL0     H87708   2.326   0.781  10.125  1.0238 -0.5414  0.5343
  650MOL0     H87709   2.324   0.957  10.149 -0.9082  0.3330  1.6264
  650MOL0     H87710   2.212   0.680  10.489  0.6649  0.4164  0.3615
  650MOL0     H87711   1.943   0.606  10.625  0.3199 -0.4820  0.7984
  650MOL0     H87712   2.085   0.671  10.709 -1.2238  0.3326  3.3356
  650MOL0     H87713   1.934   0.746  10.733 -0.1781 -0.9707  1.0751
  650MOL0     H87714   1.605   1.050  10.664  0.3153 -0.6352 -2.1415
  650MOL0     H87715   1.406   1.053  10.790  0.2745 -0.5604  0.6205
  650MOL0     H87716   1.058   0.766  10.898 -0.1640  0.6251 -4.8232
  650MOL0     H87717   1.155   0.653  10.809  0.1153 -1.3575  2.4898
  650MOL0     H87718   1.325   0.671  10.997  0.1114  1.7242 -0.5726
  650MOL0     H87719   1.189   0.717  11.093  1.5849  2.6199 -1.0175
  650MOL0     H87720   1.191   0.451  10.950 -0.4153  1.3428 -1.9029
  650MOL0     H87721   1.041   0.546  10.989  0.9737  2.4089 -1.4863
  650MOL0     H87722   1.246   0.437  11.179 -0.6784 -0.3974  0.4736
  650MOL0     H87723   1.120   0.565  11.222 -4.4798 -0.7815 -0.8738
  650MOL0     H87724   1.067   0.297  11.254  0.7565  1.1161  0.8389
  650MOL0     H87725   1.068   0.305  11.080 -0.2173  1.0349 -0.1435
  650MOL0     H87726   0.872   0.464  11.233  1.5038 -2.9724  1.9627
  650MOL0     H87727   0.860   0.412  11.062 -0.2513  1.4494  0.1278
  650MOL0     H87728   0.849   0.221  11.285  1.0415  0.4450 -0.2354
  650MOL0     H87729   0.862   0.184  11.107 -1.3225  2.2743 -3.2497
  650MOL0     H87730   0.617   0.178  11.191 -1.3567  0.4963 -0.4583
  650MOL0     H87731   0.665   0.271  11.046 -0.2627 -0.9234 -0.7104
  650MOL0     H87732   1.365   0.629  10.779 -0.1975  0.3325  1.0708
  650MOL0     H87733   1.574   0.611  10.651  0.6262  1.2174  1.6194
  650MOL0     H87734   1.904   1.028  10.359  1.4903  1.9448 -0.5528
  650MOL0     H87735   2.132   1.020  10.239  1.1384 -0.2218  0.5223
  650MOL0     H87736   3.694   1.421  10.929  0.8158  1.0409 -3.5172
  650MOL0     H87737   3.807   1.303  10.742  0.4256 -0.0680  1.0910
  650MOL0     H87738   3.883   0.974  10.504  0.5787  2.8655  2.4309
  650MOL0     H87739   4.009   0.880  10.318  0.5989 -0.5962 -2.8501
  650MOL0     H87740   4.147   0.861  10.152  1.4092 -1.8110 -0.0032
  650MOL0     H87741   4.010   0.744  10.108  0.4138 -0.4035 -2.1663
  650MOL0     H87742   4.187   0.904   9.927 -1.6507  1.4560  0.8251
  650MOL0     H87743   4.087   0.770   9.863  1.7853  2.7276 -1.8717
  650MOL0     H87744   4.240   0.622   9.995 -2.5819  1.2367 -0.2746
  650MOL0     H87745   4.323   0.756  10.054 -3.8010 -0.3832  1.2509
  650MOL0     H87746   4.468   0.674   9.869  0.8419  0.6846 -0.4172
  650MOL0     H87747   4.382   0.808   9.786 -3.2712  0.6540  0.7547
  650MOL0     H87748   4.159   0.477   9.641 -1.8039  0.5030  1.5513
  650MOL0     H87749   3.763   1.104  10.036 -1.9065  1.4467  1.3855
  650MOL0     H87750   3.648   1.194  10.232  1.8397  0.6279 -0.3686
  651MOL0     O87751   2.761   4.687   0.590 -0.1526  0.1229 -1.1209
  651MOL0     C87752   2.682   4.770   0.545  0.7521  0.3405 -0.5716
  651MOL0     O87753   2.683   4.824   0.417  1.1484  0.5940  0.1895
  651MOL0     C87754   2.786   4.794   0.334 -0.9300  0.3824 -0.2319
  651MOL0     C87755   2.874   4.895   0.290 -0.3578 -0.2154 -0.0615
  651MOL0     C87756   2.993   4.855   0.220  0.9206 -0.3604 -0.9786
  651MOL0     C87757   3.008   4.728   0.165  0.3740 -0.5966 -0.4402
  651MOL0     O87758   3.094   4.689   0.068  0.3042 -1.0308  1.2516
  651MOL0     C87759   3.219   4.753   0.057 -1.1301  0.6269 -0.0411
  651MOL0     C87760   3.228   4.853  -0.055 -0.5943 -0.8441 -0.3620
  651MOL0     C87761   3.241   4.801  -0.193  0.5177 -0.0087  0.3375
  651MOL0     C87762   3.102   4.755  -0.251  1.0752 -0.2668 -0.1768
  651MOL0     C87763   3.100   4.715  -0.400 -0.1699 -0.2072  0.0269
  651MOL0     C87764   2.958   4.704  -0.450  0.5712 -0.5190 -0.1425
  651MOL0     C87765   2.896   4.839  -0.516 -0.6736 -0.1364 -0.9652
  651MOL0     C87766   2.764   4.804  -0.590 -0.2310  0.0052 -0.4404
  651MOL0     N87767   2.710   4.920  -0.676 -0.2782  0.5619 -0.3883
  651MOL0     C87768   2.586   4.976  -0.677 -0.4496  0.7352 -0.0693
  651MOL0     C87769   2.595   5.079  -0.760  0.0980  0.8685  0.5326
  651MOL0     C87770   2.472   5.177  -0.787  0.1888  1.0596 -0.2931
  651MOL0     C87771   2.428   5.171  -0.935 -0.0210 -0.2376 -0.4042
  651MOL0     C87772   2.281   5.215  -0.956 -0.4717 -0.7365  0.0170
  651MOL0     C87773   2.243   5.248  -1.102 -0.2253  0.2838 -0.7644
  651MOL0     O87774   2.103   5.257  -1.127 -0.2691  0.8208  0.3263
  651MOL0     C87775   2.075   5.335  -1.239 -0.7088  1.1709  0.3779
  651MOL0     C87776   1.975   5.429  -1.230 -0.5898  0.1249  0.2415
  651MOL0     C87777   1.926   5.489  -1.344 -0.2008  0.6470 -0.1703
  651MOL0     C87778   1.798   5.573  -1.333  1.2278  0.2903 -0.1719
  651MOL0     C87779   1.986   5.475  -1.474 -0.4146 -0.5219 -0.3765
  651MOL0     C87780   1.949   5.548  -1.599  0.4927  0.0350  0.3432
  651MOL0     O87781   1.826   5.610  -1.607  0.1934 -0.2126 -0.4840
  651MOL0     C87782   1.798   5.666  -1.724  0.3240  0.5360  0.4377
  651MOL0     C87783   1.816   5.807  -1.743  0.8309 -0.2384 -0.5006
  651MOL0     C87784   1.782   5.865  -1.872  0.6603 -0.6962  0.4768
  651MOL0     C87785   1.738   5.769  -1.969  0.2264 -0.2391  0.0048
  651MOL0     O87786   1.688   5.810  -2.098  0.4563  0.1214 -0.4028
  651MOL0     C87787   1.780   5.891  -2.175 -0.5227 -0.0638 -0.2545
  651MOL0     C87788   1.745   5.890  -2.326 -0.2467 -0.3790 -0.8687
  651MOL0     C87789   1.864   5.903  -2.424 -0.1106 -0.5207 -0.8147
  651MOL0     C87790   1.977   6.010  -2.393 -0.3112 -0.0336 -0.9078
  651MOL0     C87791   2.069   6.006  -2.519 -0.6046 -0.1849  0.5829
  651MOL0     C87792   2.189   6.094  -2.504  0.1362  1.3261 -0.1256
  651MOL0     C87793   2.260   6.131  -2.627 -0.2180 -0.2000 -0.1481
  651MOL0     C87794   2.395   6.190  -2.599 -1.2441  0.2506  0.1002
  651MOL0    Cl87795   2.508   6.052  -2.556 -0.5327  0.1442 -0.0108
  651MOL0     C87796   1.724   5.632  -1.947  0.2770 -0.6456 -0.2343
  651MOL0     C87797   1.750   5.584  -1.822  0.7021  0.3912  0.0279
  651MOL0     O87798   2.026   5.542  -1.692  0.0218  0.2504  0.2880
  651MOL0     C87799   2.100   5.398  -1.480  0.1670 -0.8197  0.3524
  651MOL0     C87800   2.138   5.326  -1.366 -0.2076 -0.5563 -0.0162
  651MOL0     N87801   2.711   5.079  -0.823 -0.3465  0.1137  0.6252
  651MOL0     N87802   2.785   4.979  -0.775  0.0913  0.0907  1.1520
  651MOL0     C87803   2.913   4.634   0.200 -0.3204 -0.3183 -0.5917
  651MOL0     C87804   2.805   4.670   0.278  0.3847 -1.0676  0.6664
  651MOL0     C87805   2.578   4.821   0.643  0.0745 -0.1067  0.2295
  651MOL0     C87806   2.487   4.921   0.602  1.4144 -0.0422 -0.1531
  651MOL0     C87807   2.373   4.951   0.686 -0.1530  0.6535  0.1629
  651MOL0     C87808   2.362   4.891   0.812 -0.1628 -0.4544 -0.4241
  651MOL0     O87809   2.262   4.926   0.902 -0.1062  0.0621  0.2260
  651MOL0     C87810   2.126   4.912   0.857  0.7707 -0.9933  0.9681
  651MOL0     C87811   2.038   4.968   0.964 -0.2577 -0.8145  0.2955
  651MOL0     C87812   2.043   5.124   0.961  0.5735 -0.2220  0.7320
  651MOL0     C87813   1.968   5.194   1.080 -0.5574 -0.7229  0.2334
  651MOL0     C87814   2.004   5.139   1.212  0.1867  0.1821 -0.2927
  651MOL0     C87815   2.031   5.099   1.322 -0.4510  0.8286  0.2018
  651MOL0     C87816   2.459   4.800   0.857 -0.4466  0.3843 -0.1324
  651MOL0     C87817   2.566   4.765   0.778  0.1138  0.3886 -0.3987
  651MOL0     H87818   2.841   4.998   0.296  0.4781  0.0106  0.9732
  651MOL0     H87819   3.065   4.933   0.193  2.3372 -1.4244 -0.4318
  651MOL0     H87820   3.258   4.793   0.151 -0.3756 -1.4508  0.5803
  651MOL0     H87821   3.298   4.684   0.027 -1.1050 -0.7033  2.7962
  651MOL0     H87822   3.150   4.930  -0.047  0.8148  0.5640  0.3431
  651MOL0     H87823   3.324   4.902  -0.036 -0.4609 -0.9596 -0.7313
  651MOL0     H87824   3.296   4.872  -0.255  1.5738 -1.1694 -0.0858
  651MOL0     H87825   3.316   4.721  -0.189 -0.2164 -0.6674  1.6139
  651MOL0     H87826   3.055   4.673  -0.196 -1.7801  1.0110 -0.5272
  651MOL0     H87827   3.042   4.845  -0.234  1.6250  0.3554 -1.4415
  651MOL0     H87828   3.150   4.793  -0.459 -0.8651  1.0603  1.0628
  651MOL0     H87829   3.162   4.628  -0.424 -2.5388 -1.4336 -2.1294
  651MOL0     H87830   2.954   4.640  -0.539 -4.1661  0.6021 -1.0377
  651MOL0     H87831   2.896   4.654  -0.375  1.5538  0.1627  1.1481
  651MOL0     H87832   2.870   4.914  -0.440 -0.2741 -0.7406 -0.2228
  651MOL0     H87833   2.969   4.885  -0.582 -1.2998  0.4162 -1.2855
  651MOL0     H87834   2.690   4.762  -0.522  0.9323 -1.6795 -0.1534
  651MOL0     H87835   2.791   4.727  -0.663 -1.1233  0.5631 -1.4004
  651MOL0     H87836   2.503   4.944  -0.615  0.1420  1.5311  1.1654
  651MOL0     H87837   2.399   5.138  -0.716  0.1255  2.6565  0.5736
  651MOL0     H87838   2.502   5.277  -0.752  0.2737 -0.1614  3.6045
  651MOL0     H87839   2.433   5.066  -0.966 -1.7760 -0.8368  1.2277
  651MOL0     H87840   2.508   5.232  -0.979  1.5415  0.7090  3.4003
  651MOL0     H87841   2.255   5.298  -0.890 -0.8172 -0.1562 -0.8289
  651MOL0     H87842   2.215   5.135  -0.922  0.3844 -1.2874  0.4064
  651MOL0     H87843   2.282   5.175  -1.174  0.1229 -0.7457  0.4379
  651MOL0     H87844   2.284   5.347  -1.124 -1.7217  1.4283  1.2603
  651MOL0     H87845   1.930   5.464  -1.137  0.0838  2.6438 -0.2905
  651MOL0     H87846   1.787   5.675  -1.370 -0.3036 -0.0326 -0.7053
  651MOL0     H87847   1.719   5.518  -1.385  2.5398 -0.7128 -1.1429
  651MOL0     H87848   1.783   5.580  -1.224  0.8942  0.9723 -0.2540
  651MOL0     H87849   1.847   5.871  -1.661  2.0629 -1.8904  0.3823
  651MOL0     H87850   1.787   5.970  -1.901  0.7735 -0.6346  0.7136
  651MOL0     H87851   1.782   5.995  -2.142  1.3146 -0.0415 -0.3585
  651MOL0     H87852   1.884   5.859  -2.163 -0.2654  0.7827 -0.1542
  651MOL0     H87853   1.695   5.797  -2.353 -0.3926 -0.7335  0.5543
  651MOL0     H87854   1.687   5.982  -2.344  1.4481  0.7161 -0.9830
  651MOL0     H87855   1.815   5.928  -2.518 -3.0469 -0.0545  0.7394
  651MOL0     H87856   1.902   5.801  -2.426 -0.0717 -0.6488  1.8362
  651MOL0     H87857   1.940   6.107  -2.357 -0.4016 -0.7763  1.1527
  651MOL0     H87858   2.034   5.968  -2.309 -0.1722  0.5609 -0.7059
  651MOL0     H87859   2.024   6.023  -2.617  0.3332 -2.2408 -0.2574
  651MOL0     H87860   2.102   5.902  -2.523  0.6454  0.2253 -1.0191
  651MOL0     H87861   2.163   6.188  -2.454 -2.1734 -0.0380  1.3908
  651MOL0     H87862   2.254   6.032  -2.441 -1.8454 -0.3779  0.3304
  651MOL0     H87863   2.197   6.198  -2.687 -1.5107 -0.6885  0.6160
  651MOL0     H87864   2.268   6.033  -2.677 -1.6520 -0.2550 -0.3314
  651MOL0     H87865   2.387   6.259  -2.514 -0.5267 -1.7965  1.8942
  651MOL0     H87866   2.444   6.232  -2.688 -0.5617 -0.9028 -0.0802
  651MOL0     H87867   1.674   5.569  -2.020  0.5331  0.7845 -1.7122
  651MOL0     H87868   1.728   5.480  -1.802 -1.3511  0.6014 -0.8029
  651MOL0     H87869   2.139   5.376  -1.579 -0.2623  3.1861 -0.8797
  651MOL0     H87870   2.217   5.252  -1.369 -0.6469 -1.0247 -0.0879
  651MOL0     H87871   2.933   4.528   0.188  1.1110  0.0139 -1.4135
  651MOL0     H87872   2.734   4.601   0.321 -0.7374 -0.8267 -0.7123
  651MOL0     H87873   2.489   4.967   0.504 -2.2011  2.4812  0.7429
  651MOL0     H87874   2.303   5.024   0.648  0.9995  1.0812 -1.2628
  651MOL0     H87875   2.124   4.964   0.761  0.8767 -2.3878  0.1779
  651MOL0     H87876   2.099   4.807   0.842 -2.3654 -0.5142  2.6657
  651MOL0     H87877   2.074   4.936   1.062 -1.1474 -2.2267  0.1796
  651MOL0     H87878   1.934   4.935   0.961 -0.1197 -1.2185 -0.4675
  651MOL0     H87879   1.994   5.170   0.875  1.0024 -0.5912  0.2887
  651MOL0     H87880   2.146   5.157   0.949  1.6330 -3.6841 -1.1323
  651MOL0     H87881   1.860   5.176   1.076 -0.5866 -0.2925 -1.2351
  651MOL0     H87882   1.991   5.301   1.085 -0.3094 -0.8291  2.2502
  651MOL0     H87883   2.065   5.077   1.421  1.0595  0.2555 -0.4189
  651MOL0     H87884   2.445   4.746   0.950 -0.7358 -2.6323 -1.7880
  651MOL0     H87885   2.645   4.711   0.829  0.6136  3.9723  3.0970
  652MOL0     O87886   9.384   7.755   1.776 -0.1368  0.4265  0.3328
  652MOL0     C87887   9.420   7.659   1.713  0.2908 -0.0025 -0.2431
  652MOL0     O87888   9.419   7.644   1.576  0.6414 -0.1672 -0.4539
  652MOL0     C87889   9.379   7.746   1.495 -0.0220  0.2242  0.3685
  652MOL0     C87890   9.292   7.858   1.512  0.0694 -0.0453  0.2011
  652MOL0     C87891   9.273   7.940   1.402 -0.0285 -0.8813  0.1358
  652MOL0     C87892   9.316   7.916   1.270 -0.0179 -0.5247  0.0480
  652MOL0     O87893   9.264   8.004   1.169  0.1861  0.0424  0.0459
  652MOL0     C87894   9.281   7.969   1.031  0.0516 -0.2933  0.9846
  652MOL0     C87895   9.189   7.864   0.966  0.8943 -0.6820  0.5295
  652MOL0     C87896   9.050   7.912   1.004 -0.0117 -0.5046 -0.8714
  652MOL0     C87897   8.932   7.859   0.926  0.7508  0.0000  0.3168
  652MOL0     C87898   8.793   7.915   0.970  0.0845 -0.3420  0.4024
  652MOL0     C87899   8.773   8.064   0.930  0.0923  0.2057  0.2291
  652MOL0     C87900   8.633   8.122   0.985 -0.1280  0.3534 -0.2624
  652MOL0     C87901   8.503   8.079   0.910  0.7715  0.1137 -0.6685
  652MOL0     N87902   8.442   7.944   0.939 -0.8401  0.2370 -0.2325
  652MOL0     C87903   8.434   7.896   1.068  0.2467 -0.3699 -0.0029
  652MOL0     C87904   8.385   7.767   1.056 -0.3499 -0.1285  0.5074
  652MOL0     C87905   8.366   7.675   1.174  0.8095  0.5321  1.0843
  652MOL0     C87906   8.216   7.651   1.200 -0.0605  0.3602  0.6110
  652MOL0     C87907   8.195   7.544   1.307 -0.6444 -0.2656  0.2889
  652MOL0     C87908   8.046   7.525   1.340  0.3742  0.4820 -0.0293
  652MOL0     O87909   8.046   7.426   1.451 -0.4135  0.2584  0.0121
  652MOL0     C87910   8.033   7.288   1.427 -0.5459  0.5971  0.2310
  652MOL0     C87911   8.050   7.208   1.539  0.5768  0.2000  0.2251
  652MOL0     C87912   8.037   7.069   1.535 -0.9971  0.5838  0.7904
  652MOL0     C87913   8.057   6.993   1.661 -0.1873  0.0230  0.3008
  652MOL0     C87914   8.012   7.004   1.405  0.6691 -0.2324 -0.9840
  652MOL0     C87915   7.998   6.857   1.392  0.2472  0.7048 -0.5717
  652MOL0     O87916   8.082   6.808   1.292  0.1028 -0.7647 -0.4531
  652MOL0     C87917   8.044   6.705   1.211 -0.6396 -0.3094  0.2773
  652MOL0     C87918   8.149   6.660   1.131  0.2211 -0.6127 -0.4761
  652MOL0     C87919   8.132   6.546   1.043  0.4505 -0.5377 -0.3711
  652MOL0     C87920   7.999   6.491   1.029 -0.5690  0.3523 -0.5702
  652MOL0     O87921   7.961   6.391   0.940 -0.4944  0.2580 -0.1566
  652MOL0     C87922   8.065   6.309   0.880 -0.2819 -0.5582  0.2312
  652MOL0     C87923   8.009   6.196   0.793 -0.3550  1.2107  0.1169
  652MOL0     C87924   8.114   6.090   0.761 -0.2681 -0.6103  0.1150
  652MOL0     C87925   8.080   6.019   0.634 -0.0924  0.2456  0.2055
  652MOL0     C87926   8.185   5.899   0.619 -0.1455 -0.2791  0.5204
  652MOL0     C87927   8.328   5.937   0.568  0.8142 -0.3267  0.8133
  652MOL0     C87928   8.415   5.817   0.576  0.3598  0.0195  0.0865
  652MOL0     C87929   8.546   5.823   0.498  0.4066  0.0942 -0.1887
  652MOL0    Cl87930   8.656   5.673   0.524 -0.2481 -0.1541 -0.0902
  652MOL0     C87931   7.893   6.543   1.104 -0.2958  0.5364 -0.4069
  652MOL0     C87932   7.920   6.650   1.195 -0.4556  0.1010 -0.0061
  652MOL0     O87933   7.927   6.788   1.466 -0.1498 -0.0907  0.3663
  652MOL0     C87934   8.017   7.090   1.294 -0.0760  0.3734  0.3565
  652MOL0     C87935   8.030   7.227   1.301  0.1061  0.2989 -0.4549
  652MOL0     N87936   8.356   7.742   0.922  0.2565  0.4101  0.4740
  652MOL0     N87937   8.388   7.845   0.853 -0.3219 -0.7917  0.3078
  652MOL0     C87938   9.409   7.814   1.250  0.6802 -0.0660 -0.0758
  652MOL0     C87939   9.425   7.731   1.361 -0.4923  0.5090 -0.4932
  652MOL0     C87940   9.494   7.549   1.786 -0.5272 -0.0140  1.1776
  652MOL0     C87941   9.563   7.452   1.714  0.9789  0.5451  0.2099
  652MOL0     C87942   9.643   7.364   1.779  0.3177  0.1784 -0.4738
  652MOL0     C87943   9.648   7.366   1.920 -0.3180  0.3936 -0.0468
  652MOL0     O87944   9.734   7.275   1.975  0.4353  0.3827 -0.5482
  652MOL0     C87945   9.703   7.215   2.103  0.3731 -0.1089 -0.5798
  652MOL0     C87946   9.741   7.064   2.104 -0.1017 -0.5017 -0.1930
  652MOL0     C87947   9.642   6.985   2.010  0.0496  0.4487 -0.4848
  652MOL0     C87948   9.631   6.834   2.051  0.3665  0.2729 -0.7436
  652MOL0     C87949   9.598   6.812   2.193 -0.2749 -0.6047  0.6079
  652MOL0     C87950   9.576   6.799   2.314 -0.0939 -1.1333  0.5841
  652MOL0     C87951   9.574   7.451   1.989  0.6981  0.4844 -0.6760
  652MOL0     C87952   9.504   7.541   1.924 -0.4197 -0.3516 -0.3145
  652MOL0     H87953   9.244   7.874   1.608 -2.3007  1.0194 -1.0903
  652MOL0     H87954   9.209   8.026   1.420  1.0620 -0.4461  2.1631
  652MOL0     H87955   9.266   8.062   0.976 -0.0202 -0.1888  1.1800
  652MOL0     H87956   9.385   7.948   1.006  0.1143 -0.9894  1.7885
  652MOL0     H87957   9.199   7.857   0.858 -1.8063 -4.8480  0.3353
  652MOL0     H87958   9.206   7.764   1.006 -0.7660 -2.2450 -2.3714
  652MOL0     H87959   9.015   7.887   1.105  1.2094 -0.9647 -0.5397
  652MOL0     H87960   9.061   8.020   0.993 -0.1668 -0.4284 -0.3454
  652MOL0     H87961   8.950   7.871   0.819  1.2394  0.7471  0.4706
  652MOL0     H87962   8.927   7.751   0.942 -0.8517  0.1029  0.5922
  652MOL0     H87963   8.718   7.848   0.927 -0.6559  1.4262 -1.2301
  652MOL0     H87964   8.774   7.898   1.076  0.1846 -1.6932  0.2210
  652MOL0     H87965   8.858   8.122   0.968 -0.3715  0.9981  0.0910
  652MOL0     H87966   8.785   8.076   0.822 -0.9770 -0.8475 -0.0247
  652MOL0     H87967   8.622   8.108   1.093 -1.4546 -2.2996 -0.6509
  652MOL0     H87968   8.655   8.227   0.966  0.9636 -0.3705 -3.7597
  652MOL0     H87969   8.529   8.070   0.805 -1.3177 -0.3923 -1.1899
  652MOL0     H87970   8.421   8.151   0.917 -1.9293 -2.7989  0.0998
  652MOL0     H87971   8.448   7.949   1.162 -2.3670  2.4575 -1.0459
  652MOL0     H87972   8.422   7.583   1.158  1.1973  1.1545 -1.5676
  652MOL0     H87973   8.398   7.719   1.269 -1.4874 -1.5892  2.9857
  652MOL0     H87974   8.164   7.621   1.108  1.8259  1.1505 -0.7763
  652MOL0     H87975   8.174   7.743   1.242  0.4410  0.7314  0.3171
  652MOL0     H87976   8.253   7.572   1.395 -1.8129  1.8237  0.4560
  652MOL0     H87977   8.228   7.449   1.264  0.2177  1.2223 -2.5905
  652MOL0     H87978   7.989   7.499   1.250 -0.6396  1.5012  0.2991
  652MOL0     H87979   8.005   7.612   1.391  0.9631  0.1690  1.0173
  652MOL0     H87980   8.048   7.260   1.634  0.9087  0.9040 -0.1481
  652MOL0     H87981   8.080   7.052   1.751 -1.3077  0.7982  0.1038
  652MOL0     H87982   7.978   6.921   1.686  0.7524 -0.4498  2.0735
  652MOL0     H87983   8.147   6.935   1.639  0.1517  1.2229 -1.7000
  652MOL0     H87984   8.237   6.724   1.131 -0.9591  1.2250  2.6575
  652MOL0     H87985   8.211   6.506   0.981 -0.9480 -0.9746 -1.9350
  652MOL0     H87986   8.127   6.366   0.810 -4.5465  1.4332 -2.3054
  652MOL0     H87987   8.134   6.277   0.958 -1.3335  1.5630  2.1514
  652MOL0     H87988   7.921   6.144   0.832  0.1736  1.4165  1.6453
  652MOL0     H87989   8.006   6.245   0.695  1.2201 -2.7284 -2.1147
  652MOL0     H87990   8.110   6.011   0.836  0.2169  0.9764  1.9153
  652MOL0     H87991   8.214   6.134   0.765 -0.2878 -0.1557 -2.5815
  652MOL0     H87992   7.980   5.978   0.650 -1.0119  1.6457 -1.5555
  652MOL0     H87993   8.083   6.076   0.541  0.2253 -1.4751 -0.8826
  652MOL0     H87994   8.141   5.828   0.548 -0.0093  0.0933  0.0573
  652MOL0     H87995   8.200   5.853   0.717  2.0917  1.0233  0.8538
  652MOL0     H87996   8.321   5.976   0.466 -2.6058 -1.3390  0.5397
  652MOL0     H87997   8.368   6.014   0.634  0.8815  1.1190 -0.8133
  652MOL0     H87998   8.362   5.726   0.544 -0.5021  0.8320 -0.8414
  652MOL0     H87999   8.445   5.796   0.680  0.6603 -2.3102 -0.4053
  652MOL0     H88000   8.590   5.918   0.529 -2.5565  1.5257 -0.0756
  652MOL0     H88001   8.528   5.826   0.390  2.8842  1.6816 -0.6463
  652MOL0     H88002   7.793   6.501   1.100 -0.4653  0.8983 -0.0247
  652MOL0     H88003   7.839   6.681   1.261 -0.3630  2.0140 -0.7092
  652MOL0     H88004   7.979   7.048   1.202  0.2649  2.7294 -0.9248
  652MOL0     H88005   8.030   7.290   1.212 -2.4298  0.0162 -0.7202
  652MOL0     H88006   9.466   7.791   1.161  2.2310  3.6507 -0.2320
  652MOL0     H88007   9.494   7.652   1.332 -2.6860 -1.0073 -1.8257
  652MOL0     H88008   9.560   7.440   1.606  0.8539  0.9054  0.1700
  652MOL0     H88009   9.716   7.299   1.733  1.0107  0.7280 -0.1741
  652MOL0     H88010   9.760   7.264   2.182 -0.3156 -1.2833  0.7060
  652MOL0     H88011   9.598   7.235   2.128  1.1985  1.3026  2.1760
  652MOL0     H88012   9.748   7.047   2.212 -1.6513  2.8033  0.5553
  652MOL0     H88013   9.840   7.034   2.068  0.1602 -1.7014  1.4186
  652MOL0     H88014   9.690   6.992   1.912  4.2078 -1.7312  1.1071
  652MOL0     H88015   9.541   7.024   2.003 -0.2990  0.0106  1.4258
  652MOL0     H88016   9.720   6.777   2.022 -0.2164 -0.6324 -0.8017
  652MOL0     H88017   9.551   6.786   1.993 -2.7845 -0.2152  3.4980
  652MOL0     H88018   9.556   6.812   2.419 -1.5414  0.8646  0.1143
  652MOL0     H88019   9.562   7.461   2.097  0.3369 -0.2878 -0.6376
  652MOL0     H88020   9.461   7.618   1.986  1.4680 -0.3825  1.1309
  653MOL0     O88021   6.989   2.208   2.789 -0.4736 -1.0818 -0.1636
  653MOL0     C88022   7.046   2.178   2.898  0.0663 -0.0898  0.7267
  653MOL0     O88023   7.165   2.236   2.932 -0.1368  0.4833 -0.4634
  653MOL0     C88024   7.224   2.328   2.846 -0.6438 -0.9229  0.2833
  653MOL0     C88025   7.235   2.316   2.704  1.0461 -0.1587  0.7249
  653MOL0     C88026   7.263   2.441   2.633  0.4714  0.2273 -0.7340
  653MOL0     C88027   7.319   2.553   2.699 -0.3440 -0.6806  0.2228
  653MOL0     O88028   7.320   2.680   2.639  0.6299 -0.1814  0.5462
  653MOL0     C88029   7.196   2.747   2.617  0.3393  0.3515 -0.9152
  653MOL0     C88030   7.229   2.841   2.503 -0.1788  0.1768 -0.3854
  653MOL0     C88031   7.247   2.779   2.367  0.1928 -0.3213 -1.0419
  653MOL0     C88032   7.112   2.738   2.305 -0.0611 -0.0440 -0.1125
  653MOL0     C88033   7.136   2.670   2.172  0.4221  0.1686 -0.3309
  653MOL0     C88034   7.153   2.753   2.048 -0.6007 -0.7137 -0.0644
  653MOL0     C88035   7.020   2.813   1.996 -0.4768 -1.1341 -0.5721
  653MOL0     C88036   7.051   2.945   1.909  0.0172  0.2994  0.4372
  653MOL0     N88037   7.128   2.923   1.790  0.8264 -0.1375  1.0939
  653MOL0     C88038   7.189   3.030   1.724 -0.6659  0.2212  0.0505
  653MOL0     C88039   7.217   2.989   1.598 -0.2419  0.2446 -0.7939
  653MOL0     C88040   7.295   3.067   1.497  0.1278 -1.2610  0.4632
  653MOL0     C88041   7.398   2.977   1.423 -0.3416 -0.2823 -0.2204
  653MOL0     C88042   7.452   3.035   1.293  0.2459 -1.4363 -0.5199
  653MOL0     C88043   7.562   3.139   1.325  0.0896  1.0788 -0.4061
  653MOL0     O88044   7.668   3.070   1.406  0.3904 -0.6324  0.6442
  653MOL0     C88045   7.775   2.996   1.352  0.3300 -0.3911 -0.1910
  653MOL0     C88046   7.864   2.928   1.442  0.0491 -0.2668 -0.5451
  653MOL0     C88047   7.971   2.843   1.407  0.8183  0.3501  0.4723
  653MOL0     C88048   8.056   2.779   1.514 -0.2850  0.2175  0.2853
  653MOL0     C88049   7.993   2.823   1.270 -0.7572 -0.9615  0.6465
  653MOL0     C88050   8.091   2.714   1.213 -1.1218 -0.2486  0.2628
  653MOL0     O88051   8.126   2.716   1.079  0.1300  0.2186 -0.2405
  653MOL0     C88052   8.230   2.657   1.030  0.1808 -0.4942 -0.1087
  653MOL0     C88053   8.239   2.520   1.003  1.0999 -0.3833 -0.0930
  653MOL0     C88054   8.345   2.454   0.938 -0.7432  0.0217 -0.1789
  653MOL0     C88055   8.457   2.524   0.897  0.4743 -0.2313  0.4929
  653MOL0     O88056   8.559   2.470   0.828 -0.3387  0.0010  0.0202
  653MOL0     C88057   8.546   2.335   0.779 -0.0517 -0.6441  0.3731
  653MOL0     C88058   8.664   2.335   0.683  0.5150  0.3152 -0.7090
  653MOL0     C88059   8.801   2.301   0.746  0.0908 -0.0651  0.0782
  653MOL0     C88060   8.911   2.377   0.676 -0.4683  0.6297  0.1236
  653MOL0     C88061   9.036   2.407   0.764 -0.0191 -0.2630  0.4030
  653MOL0     C88062   9.158   2.441   0.682 -0.0369  0.7861 -0.0490
  653MOL0     C88063   9.155   2.583   0.630 -0.1327  0.1221 -0.8108
  653MOL0     C88064   9.247   2.625   0.511 -0.5252  0.4677  0.7130
  653MOL0    Cl88065   9.422   2.580   0.536 -0.3403  0.2421 -0.3623
  653MOL0     C88066   8.456   2.663   0.920 -0.8291  0.4217 -0.0932
  653MOL0     C88067   8.350   2.730   0.992  0.5548 -0.1744  1.2292
  653MOL0     O88068   8.136   2.631   1.293 -0.0797 -0.6470 -0.4011
  653MOL0     C88069   7.921   2.897   1.184 -0.0249  0.4284 -1.0456
  653MOL0     C88070   7.808   2.974   1.216  0.4987  0.6799 -0.0157
  653MOL0     N88071   7.164   2.859   1.584 -0.9834  1.2922 -0.5641
  653MOL0     N88072   7.104   2.828   1.693  0.3813 -0.7760 -0.4701
  653MOL0     C88073   7.321   2.550   2.839 -0.8074 -0.5067 -0.8938
  653MOL0     C88074   7.275   2.439   2.909 -0.0435  0.0380  0.4109
  653MOL0     C88075   6.982   2.071   2.983  0.9989 -0.5206 -0.4201
  653MOL0     C88076   6.850   2.025   2.946 -0.4139 -0.1928  0.5199
  653MOL0     C88077   6.791   1.932   3.030  0.5384 -0.1282 -0.0813
  653MOL0     C88078   6.855   1.880   3.146 -0.6043 -0.7057  0.1792
  653MOL0     O88079   6.795   1.768   3.209  0.2164 -0.3249 -0.6777
  653MOL0     C88080   6.821   1.722   3.336  1.2070  0.8924 -0.5399
  653MOL0     C88081   6.739   1.594   3.351 -0.2939  0.4796 -0.0551
  653MOL0     C88082   6.641   1.596   3.471 -1.2203 -1.8206 -0.3895
  653MOL0     C88083   6.559   1.462   3.489 -0.1441  0.2540  0.4755
  653MOL0     C88084   6.654   1.350   3.506 -0.7005  0.3818  0.9017
  653MOL0     C88085   6.719   1.251   3.529 -0.1058  0.5455  0.0988
  653MOL0     C88086   6.989   1.920   3.170 -0.5665  0.2958  0.3204
  653MOL0     C88087   7.045   2.022   3.094 -0.1682  0.5696 -0.0183
  653MOL0     H88088   7.199   2.227   2.654 -0.9041  1.5476 -1.1377
  653MOL0     H88089   7.254   2.430   2.525 -1.3430 -0.6416 -0.5258
  653MOL0     H88090   7.118   2.683   2.576 -1.4977  2.1446 -0.4183
  653MOL0     H88091   7.169   2.799   2.710 -2.2329 -3.3210  0.6382
  653MOL0     H88092   7.172   2.934   2.494  2.1936  1.8786  0.9735
  653MOL0     H88093   7.329   2.883   2.515  0.4768 -0.3966 -3.1645
  653MOL0     H88094   7.303   2.850   2.306  3.5635  0.7525  2.8195
  653MOL0     H88095   7.323   2.701   2.379  3.1322  2.5542  0.7860
  653MOL0     H88096   7.072   2.657   2.366 -2.6895  0.5552 -0.9414
  653MOL0     H88097   7.045   2.824   2.313  0.9866  0.6418  3.4875
  653MOL0     H88098   7.231   2.617   2.187  0.6278  0.1146 -1.6512
  653MOL0     H88099   7.059   2.596   2.147  2.2520 -1.8070 -0.4444
  653MOL0     H88100   7.223   2.834   2.066 -0.8274  0.4559 -3.6911
  653MOL0     H88101   7.204   2.694   1.971 -0.4530 -3.0533  1.7221
  653MOL0     H88102   6.971   2.734   1.938 -0.7544 -2.0873  0.9133
  653MOL0     H88103   6.940   2.836   2.067 -1.1224 -0.4970 -1.4835
  653MOL0     H88104   7.090   3.033   1.961  1.2768  2.9060 -4.3166
  653MOL0     H88105   6.952   2.983   1.883 -1.4661 -2.7375  1.1061
  653MOL0     H88106   7.213   3.130   1.759  1.3488 -0.6133  1.2180
  653MOL0     H88107   7.232   3.109   1.418  0.0382  2.3710  2.2455
  653MOL0     H88108   7.343   3.155   1.541 -2.7436  0.1976  0.9380
  653MOL0     H88109   7.352   2.880   1.401  0.7416 -0.9667  0.3999
  653MOL0     H88110   7.477   2.945   1.492  0.5439 -1.4702 -1.6982
  653MOL0     H88111   7.384   3.097   1.233  2.6650  0.5341 -1.4239
  653MOL0     H88112   7.484   2.956   1.225 -0.5263  0.3446 -3.1240
  653MOL0     H88113   7.526   3.224   1.383  0.2279  0.6002  0.3954
  653MOL0     H88114   7.607   3.175   1.233  1.9268  1.2576  0.5131
  653MOL0     H88115   7.870   2.948   1.548  3.2716  2.0899 -1.0631
  653MOL0     H88116   8.054   2.825   1.613  1.2252 -0.7675  0.8017
  653MOL0     H88117   8.040   2.673   1.531 -0.4412  0.1830 -0.0512
  653MOL0     H88118   8.159   2.798   1.483 -0.8035 -1.2357 -2.7478
  653MOL0     H88119   8.165   2.447   1.034  1.7446 -1.3138 -0.6920
  653MOL0     H88120   8.351   2.346   0.925 -1.4976 -0.0608  0.1175
  653MOL0     H88121   8.540   2.249   0.846 -0.6799 -3.2574 -2.7780
  653MOL0     H88122   8.455   2.329   0.719  1.1256  0.0221 -1.5845
  653MOL0     H88123   8.637   2.259   0.609 -0.3579 -2.6757  2.4037
  653MOL0     H88124   8.670   2.432   0.632 -2.2084  0.7366 -0.3829
  653MOL0     H88125   8.814   2.193   0.746  0.1601 -0.0764  1.4068
  653MOL0     H88126   8.800   2.342   0.848 -1.3194 -1.3757  0.6345
  653MOL0     H88127   8.943   2.319   0.589  0.4180  0.1710  0.7349
  653MOL0     H88128   8.868   2.470   0.638  1.3049  1.1409 -0.7277
  653MOL0     H88129   9.058   2.318   0.823  2.0491 -0.0786 -0.0070
  653MOL0     H88130   9.020   2.491   0.832 -1.0914 -1.0044  1.1062
  653MOL0     H88131   9.246   2.416   0.742  0.5118 -0.6734 -1.3955
  653MOL0     H88132   9.181   2.373   0.599  3.4918 -1.3292  2.3993
  653MOL0     H88133   9.178   2.654   0.709 -1.9490  0.4090 -0.5016
  653MOL0     H88134   9.052   2.607   0.602  0.4413  2.6677 -0.9227
  653MOL0     H88135   9.249   2.729   0.478  2.0368  0.4226  0.5307
  653MOL0     H88136   9.212   2.575   0.420  0.5402  0.1559  0.4505
  653MOL0     H88137   8.546   2.715   0.892 -1.9296  2.3441 -0.2192
  653MOL0     H88138   8.360   2.837   1.009  1.2006  0.2188 -1.1974
  653MOL0     H88139   7.949   2.873   1.082  0.0154 -1.6054 -0.6091
  653MOL0     H88140   7.752   3.024   1.138 -1.7075  2.6257  2.6167
  653MOL0     H88141   7.353   2.645   2.880 -0.5074 -1.3974  1.0669
  653MOL0     H88142   7.280   2.442   3.018  1.9528 -2.7357  0.4946
  653MOL0     H88143   6.802   2.057   2.854  0.2956 -1.5888 -0.3832
  653MOL0     H88144   6.698   1.878   3.020  0.3641 -0.0609  1.0374
  653MOL0     H88145   6.929   1.703   3.339  1.1900  0.9068  0.2370
  653MOL0     H88146   6.793   1.809   3.396 -2.6866 -1.0513  0.8038
  653MOL0     H88147   6.809   1.512   3.368  0.7574  1.2042 -0.7547
  653MOL0     H88148   6.679   1.574   3.262 -0.6329  1.6202 -0.0938
  653MOL0     H88149   6.560   1.665   3.447  1.7970  1.1685 -3.0943
  653MOL0     H88150   6.692   1.630   3.562 -3.5342 -2.9174  1.4150
  653MOL0     H88151   6.503   1.445   3.396 -0.4497  0.1452  0.6781
  653MOL0     H88152   6.490   1.457   3.574  2.3355  1.6220  2.7001
  653MOL0     H88153   6.793   1.174   3.525 -1.2320 -0.5244 -1.5474
  653MOL0     H88154   7.040   1.881   3.258  0.4475  3.3743  1.2314
  653MOL0     H88155   7.145   2.057   3.119  1.4796 -2.5363 -1.6255
  654MOL0     O88156   4.030   3.919  10.081 -0.0096  0.6162  1.3995
  654MOL0     C88157   4.125   3.921  10.004 -0.2494  0.7824 -0.1483
  654MOL0     O88158   4.164   4.025   9.928  0.9508  0.0479 -0.5664
  654MOL0     C88159   4.080   4.129   9.923  0.1281 -1.4058  0.4984
  654MOL0     C88160   4.134   4.251   9.963 -0.2693 -0.1057  0.0227
  654MOL0     C88161   4.063   4.371   9.954 -0.5053 -0.3268  0.4502
  654MOL0     C88162   3.935   4.376   9.901  0.6469  0.5527  0.4388
  654MOL0     O88163   3.853   4.482   9.894  1.1976  0.1404  0.7781
  654MOL0     C88164   3.782   4.519  10.013  0.3833  0.6344 -0.0820
  654MOL0     C88165   3.632   4.506   9.984  0.1165 -0.0281  0.6439
  654MOL0     C88166   3.587   4.629   9.897  0.5331 -1.2712  0.2643
  654MOL0     C88167   3.443   4.618   9.857  0.3120  0.0621 -0.3277
  654MOL0     C88168   3.378   4.727   9.774  0.5699  1.7274  0.6431
  654MOL0     C88169   3.244   4.670   9.738  0.4542 -0.4521  0.0424
  654MOL0     C88170   3.174   4.763   9.630 -0.6524  0.6850  0.6433
  654MOL0     C88171   3.053   4.702   9.574  0.0122  0.0715  0.1837
  654MOL0     N88172   3.004   4.790   9.468  0.4322  0.7013  0.5557
  654MOL0     C88173   3.030   4.770   9.333  0.9644 -0.2235 -0.4523
  654MOL0     C88174   2.920   4.815   9.269  0.1045  0.0046  0.4586
  654MOL0     C88175   2.899   4.815   9.116  0.1055  0.1971 -0.1393
  654MOL0     C88176   2.965   4.689   9.045  1.5580  1.2296  0.8554
  654MOL0     C88177   2.956   4.702   8.897 -0.1143  0.1548 -0.5679
  654MOL0     C88178   3.024   4.591   8.819  0.0163  0.3753  0.1071
  654MOL0     O88179   3.039   4.612   8.683 -0.0563  0.8870  0.5257
  654MOL0     C88180   3.140   4.695   8.635  1.1141  0.4834  0.3775
  654MOL0     C88181   3.152   4.721   8.501  0.3221  0.7228  0.3083
  654MOL0     C88182   3.256   4.796   8.444 -0.1299 -0.2499  0.1473
  654MOL0     C88183   3.252   4.815   8.295 -0.1311  0.0597 -0.7768
  654MOL0     C88184   3.352   4.857   8.530 -1.3157  0.8502  0.1398
  654MOL0     C88185   3.469   4.941   8.477 -0.7078 -0.3248  0.0185
  654MOL0     O88186   3.511   4.912   8.358 -0.5872  0.4248 -0.4398
  654MOL0     C88187   3.636   4.946   8.306 -0.3930  0.0393  0.3452
  654MOL0     C88188   3.635   4.943   8.168  0.0005 -0.5573  0.4587
  654MOL0     C88189   3.758   4.979   8.105 -0.5849  0.1391  1.2206
  654MOL0     C88190   3.878   5.000   8.175  0.5094 -0.4559 -0.1999
  654MOL0     O88191   3.985   5.040   8.101  0.1421 -0.6114 -0.0967
  654MOL0     C88192   4.109   4.979   8.132 -0.6476  0.1590 -0.0176
  654MOL0     C88193   4.143   4.899   7.998 -0.4711  0.3508  0.7608
  654MOL0     C88194   4.286   4.857   8.009 -1.3546  0.9906  0.4362
  654MOL0     C88195   4.325   4.758   7.896 -0.0927  0.3521  1.0329
  654MOL0     C88196   4.435   4.657   7.936 -0.3304  0.5292  0.8028
  654MOL0     C88197   4.430   4.549   7.831 -0.2961 -0.3352 -0.3241
  654MOL0     C88198   4.537   4.453   7.883 -0.3739 -0.4489  0.5096
  654MOL0     C88199   4.599   4.350   7.791  0.2873  0.0226  0.8815
  654MOL0    Cl88200   4.616   4.186   7.872 -0.0341 -0.0339 -0.1282
  654MOL0     C88201   3.872   5.011   8.317  0.3275 -0.2911 -0.1911
  654MOL0     C88202   3.756   4.978   8.383  0.0791  0.0078 -0.0216
  654MOL0     O88203   3.493   5.046   8.536  0.7038 -0.6419 -0.3180
  654MOL0     C88204   3.333   4.844   8.666  0.2525 -1.6258 -0.3777
  654MOL0     C88205   3.232   4.763   8.719 -0.0611 -0.5337  0.0068
  654MOL0     N88206   2.832   4.865   9.369  0.0138 -0.2966  1.1361
  654MOL0     N88207   2.881   4.846   9.487  0.3150  0.0616 -1.0490
  654MOL0     C88208   3.874   4.256   9.873 -0.1233 -0.8702  0.3092
  654MOL0     C88209   3.946   4.137   9.885  0.2652  0.7968 -0.4398
  654MOL0     C88210   4.194   3.795   9.992  0.2512  0.7114  0.6704
  654MOL0     C88211   4.290   3.774   9.893  0.2070 -1.3052 -0.0737
  654MOL0     C88212   4.357   3.653   9.879  0.7927  0.1396 -0.7591
  654MOL0     C88213   4.345   3.543   9.973 -0.1326 -0.1401  0.7810
  654MOL0     O88214   4.428   3.434   9.975 -0.4983 -0.0595  0.2022
  654MOL0     C88215   4.554   3.465   9.912  0.5220  0.1074  0.2948
  654MOL0     C88216   4.651   3.359   9.956  0.5881 -0.8555  0.7820
  654MOL0     C88217   4.778   3.384   9.882  0.5009 -0.3931  0.3656
  654MOL0     C88218   4.881   3.276   9.925  0.2166  0.0946  0.6142
  654MOL0     C88219   4.840   3.149   9.862 -0.0310 -0.1133 -0.2606
  654MOL0     C88220   4.813   3.043   9.810 -1.4306 -0.2224  1.2326
  654MOL0     C88221   4.240   3.566  10.063 -0.3048 -0.1058  0.6594
  654MOL0     C88222   4.167   3.683  10.075  0.2835 -1.2005  0.1917
  654MOL0     H88223   4.225   4.254  10.022  0.9972  0.0300 -1.8385
  654MOL0     H88224   4.120   4.462   9.970 -0.4223 -0.4483  0.8595
  654MOL0     H88225   3.797   4.442  10.090 -3.8180  1.1428  1.5055
  654MOL0     H88226   3.815   4.621  10.035 -0.5243  0.7576  0.7760
  654MOL0     H88227   3.612   4.414   9.927 -2.0701  0.7837 -0.0127
  654MOL0     H88228   3.572   4.498  10.075 -1.9615 -3.5036 -0.8089
  654MOL0     H88229   3.606   4.725   9.946 -0.1825  0.9840 -3.4535
  654MOL0     H88230   3.636   4.636   9.800  0.3671 -2.4970  0.0812
  654MOL0     H88231   3.439   4.527   9.797  1.1760  0.7168 -1.4166
  654MOL0     H88232   3.383   4.615   9.949 -0.0163  1.2550 -0.4898
  654MOL0     H88233   3.370   4.823   9.825  1.7706  3.1953 -1.7572
  654MOL0     H88234   3.431   4.740   9.679 -1.5071 -0.9895 -1.0325
  654MOL0     H88235   3.248   4.575   9.685 -4.4459 -0.4057 -0.8565
  654MOL0     H88236   3.179   4.650   9.824  0.8239 -2.1714 -0.0380
  654MOL0     H88237   3.159   4.858   9.682 -1.4959  0.0374  1.6348
  654MOL0     H88238   3.245   4.770   9.547 -2.5447  0.5043 -1.0734
  654MOL0     H88239   2.981   4.692   9.655  1.4003  2.1592  1.7682
  654MOL0     H88240   3.079   4.606   9.529 -1.3098 -0.3862  0.3561
  654MOL0     H88241   3.117   4.717   9.294  2.9514  3.1477 -0.9526
  654MOL0     H88242   2.795   4.836   9.091  0.1940  1.5515  0.5536
  654MOL0     H88243   2.956   4.895   9.067  1.6613 -2.0086 -2.1964
  654MOL0     H88244   2.892   4.611   9.069  2.2357  0.4281  0.3674
  654MOL0     H88245   3.067   4.659   9.069  1.8526  1.1486 -0.4163
  654MOL0     H88246   3.001   4.799   8.874 -1.3176  0.7266 -0.6101
  654MOL0     H88247   2.851   4.708   8.867 -1.1117 -3.1111  1.7691
  654MOL0     H88248   2.955   4.506   8.823 -1.9405  1.7076 -2.3140
  654MOL0     H88249   3.116   4.567   8.873  0.2842 -2.1551 -1.3151
  654MOL0     H88250   3.086   4.666   8.435  1.8287  2.4451 -2.8897
  654MOL0     H88251   3.255   4.920   8.265  3.7762 -0.0223 -1.2184
  654MOL0     H88252   3.335   4.757   8.254 -1.0886 -1.4990 -0.5936
  654MOL0     H88253   3.159   4.769   8.262  0.3105  0.0399 -2.0319
  654MOL0     H88254   3.545   4.922   8.111 -1.4372  0.6802  2.1708
  654MOL0     H88255   3.762   4.987   7.997  2.6753  2.1952  1.3481
  654MOL0     H88256   4.185   5.051   8.164  0.9546 -1.6204  0.3767
  654MOL0     H88257   4.090   4.907   8.212  0.4096  1.3127  1.3360
  654MOL0     H88258   4.076   4.813   7.994 -1.4757  1.0970  0.9678
  654MOL0     H88259   4.129   4.967   7.913  0.1319 -0.7754 -0.2658
  654MOL0     H88260   4.292   4.791   8.096  1.0767 -1.5354 -1.4395
  654MOL0     H88261   4.362   4.935   8.018 -0.7323  0.2706  1.6343
  654MOL0     H88262   4.240   4.699   7.859 -0.8397  1.7313  0.4795
  654MOL0     H88263   4.356   4.816   7.809 -2.0205 -0.7649 -0.4978
  654MOL0     H88264   4.428   4.608   8.034 -4.4391 -3.6182 -1.1861
  654MOL0     H88265   4.536   4.699   7.932 -0.7536  1.4848 -0.5133
  654MOL0     H88266   4.337   4.491   7.826  0.9258 -2.6385  1.7063
  654MOL0     H88267   4.457   4.599   7.738  3.0543 -0.3448  0.5317
  654MOL0     H88268   4.495   4.409   7.974 -0.6444  1.8306  1.5470
  654MOL0     H88269   4.622   4.513   7.915  0.4660 -0.5721 -1.3864
  654MOL0     H88270   4.678   4.378   7.721 -2.5054 -0.0704 -2.5864
  654MOL0     H88271   4.528   4.334   7.709  0.0216  0.0628  1.1020
  654MOL0     H88272   3.964   5.029   8.371 -0.9402 -1.8098  2.6806
  654MOL0     H88273   3.749   4.984   8.492  0.5824 -3.7930  0.3314
  654MOL0     H88274   3.409   4.886   8.730 -0.2209 -0.8432 -0.3238
  654MOL0     H88275   3.219   4.760   8.826 -1.5259 -2.0950 -0.1650
  654MOL0     H88276   3.768   4.263   9.847 -0.3227  0.7161  1.4136
  654MOL0     H88277   3.910   4.038   9.858  1.7821 -0.0219  0.3702
  654MOL0     H88278   4.309   3.849   9.817  2.3624 -0.0020  1.6432
  654MOL0     H88279   4.413   3.631   9.788  0.8314 -3.7114  0.0504
  654MOL0     H88280   4.539   3.470   9.804 -0.9439  0.8884  0.5044
  654MOL0     H88281   4.597   3.560   9.945 -0.4698  0.6045  0.1922
  654MOL0     H88282   4.616   3.258   9.935  1.4149 -0.8024 -0.9616
  654MOL0     H88283   4.673   3.381  10.061  0.7138 -0.3435  0.6505
  654MOL0     H88284   4.814   3.483   9.912  2.1432 -0.1842 -2.0133
  654MOL0     H88285   4.755   3.384   9.775 -0.0803  0.5575  0.4818
  654MOL0     H88286   4.897   3.261  10.032  2.7167 -0.2966  0.2653
  654MOL0     H88287   4.982   3.302   9.889 -0.3335 -0.7116 -1.7344
  654MOL0     H88288   4.783   2.951   9.765  0.4983  0.6968 -2.3253
  654MOL0     H88289   4.213   3.489  10.135 -0.0563  0.3653  1.2699
  654MOL0     H88290   4.094   3.700  10.154  5.0410  0.9684  4.7412
  655MOL0     O88291  10.973   7.340   4.283  0.4760 -0.2444 -0.0491
  655MOL0     C88292  10.871   7.420   4.278 -0.3427 -0.0864 -0.3432
  655MOL0     O88293  10.739   7.379   4.231 -0.1505 -0.0515 -0.8186
  655MOL0     C88294  10.694   7.246   4.229  0.2105 -0.3117  0.4191
  655MOL0     C88295  10.603   7.206   4.130  0.1513 -0.6669  0.3635
  655MOL0     C88296  10.556   7.072   4.124 -0.5469 -0.7456 -0.1423
  655MOL0     C88297  10.597   6.980   4.220  0.6188  0.5357 -0.0684
  655MOL0     O88298  10.552   6.850   4.199 -0.3129 -0.2140  0.0341
  655MOL0     C88299  10.641   6.737   4.221 -0.3542  0.4106 -0.5316
  655MOL0     C88300  10.617   6.655   4.352  0.0911  0.3413 -0.5206
  655MOL0     C88301  10.463   6.626   4.353  0.6538  0.1881  0.5494
  655MOL0     C88302  10.408   6.549   4.231  0.3038  0.3994  0.9404
  655MOL0     C88303  10.256   6.492   4.243  0.2954 -0.0951  0.6011
  655MOL0     C88304  10.203   6.439   4.115  0.2691 -0.1920  0.2187
  655MOL0     C88305  10.282   6.307   4.073 -0.1484 -0.6864 -0.8541
  655MOL0     C88306  10.193   6.238   3.964  0.4638  0.6283 -0.5932
  655MOL0     N88307  10.228   6.095   3.938 -0.3080 -0.7245 -0.7386
  655MOL0     C88308  10.349   6.037   3.968  0.1776 -0.3036  0.4475
  655MOL0     C88309  10.326   5.909   3.952 -0.4592  0.6221  0.3129
  655MOL0     C88310  10.404   5.789   3.993 -0.1898 -0.4159 -0.2193
  655MOL0     C88311  10.472   5.729   3.870 -0.2349  0.1469  0.8309
  655MOL0     C88312  10.525   5.581   3.909 -0.3646  0.6655 -0.3440
  655MOL0     C88313  10.640   5.538   3.822  0.7387 -0.1765  0.3840
  655MOL0     O88314  10.608   5.554   3.683 -0.3182 -1.1139 -0.8972
  655MOL0     C88315  10.695   5.520   3.587 -0.4063 -0.5313 -0.1575
  655MOL0     C88316  10.833   5.505   3.605  0.5023  1.0553 -0.8663
  655MOL0     C88317  10.922   5.447   3.504 -0.1142  0.6809  0.2599
  655MOL0     C88318  11.064   5.444   3.538  0.8599 -0.7448  0.3216
  655MOL0     C88319  10.869   5.407   3.384  0.5081  0.3630  0.3403
  655MOL0     C88320  10.959   5.344   3.282  0.2213  1.0776  0.8780
  655MOL0     O88321  11.075   5.408   3.259 -0.0292  0.2009  0.3607
  655MOL0     C88322  11.158   5.358   3.158  0.1168 -0.2200 -0.0303
  655MOL0     C88323  11.130   5.293   3.032 -0.5073 -1.3103 -1.0213
  655MOL0     C88324  11.232   5.261   2.941 -0.2699  0.1555 -0.2079
  655MOL0     C88325  11.365   5.298   2.971  0.5176  0.1410 -0.3291
  655MOL0     O88326  11.468   5.250   2.887  0.4776 -0.0161  0.9834
  655MOL0     C88327  11.602   5.289   2.913 -0.5877  0.5172  0.4482
  655MOL0     C88328  11.693   5.190   2.836  0.6875  0.5400 -0.2224
  655MOL0     C88329  11.649   5.044   2.862  0.1728 -0.3414  0.6290
  655MOL0     C88330  11.745   4.948   2.793 -0.3903  1.0461  0.4852
  655MOL0     C88331  11.865   4.899   2.886 -0.4628 -0.1755  0.2717
  655MOL0     C88332  11.967   4.813   2.804 -0.4158  0.1012 -0.7667
  655MOL0     C88333  11.915   4.681   2.757  1.0395  0.4442  0.1604
  655MOL0     C88334  12.021   4.585   2.710 -0.0069 -0.2797  0.2380
  655MOL0    Cl88335  12.150   4.660   2.608  0.0889 -0.5101  0.2152
  655MOL0     C88336  11.382   5.385   3.086  0.8762  0.7824 -0.4314
  655MOL0     C88337  11.282   5.410   3.183 -0.1618 -0.1257  0.3942
  655MOL0     O88338  10.927   5.245   3.226  0.2940  1.1344 -0.2605
  655MOL0     C88339  10.743   5.438   3.364  0.1662 -0.0223  0.5399
  655MOL0     C88340  10.650   5.485   3.460  0.3991 -0.3840  0.7219
  655MOL0     N88341  10.188   5.891   3.921 -0.5234  0.0147 -0.5994
  655MOL0     N88342  10.139   6.009   3.895 -0.1917  0.2648 -0.6561
  655MOL0     C88343  10.680   7.021   4.335  0.5317 -0.3269 -0.3400
  655MOL0     C88344  10.721   7.162   4.335 -0.5698  0.4073 -0.3500
  655MOL0     C88345  10.876   7.554   4.340  0.6719  0.8173 -0.2684
  655MOL0     C88346  11.011   7.604   4.384 -0.2147  1.1057 -0.2597
  655MOL0     C88347  11.013   7.726   4.458  0.2458 -0.0438  0.0314
  655MOL0     C88348  10.892   7.796   4.486  0.3875 -0.7074 -0.7902
  655MOL0     O88349  10.888   7.920   4.539 -0.7706 -0.5843 -0.0199
  655MOL0     C88350  11.012   7.991   4.559  0.0046 -0.3886  0.1538
  655MOL0     C88351  11.074   8.047   4.424 -0.5907 -0.5801  0.6005
  655MOL0     C88352  10.956   8.104   4.334 -0.5225  0.3935 -0.9851
  655MOL0     C88353  10.873   8.212   4.398  1.0903  0.3135  0.4777
  655MOL0     C88354  10.767   8.239   4.296  1.4334  0.1558 -0.6107
  655MOL0     C88355  10.679   8.267   4.225  0.8299  0.5021 -0.2907
  655MOL0     C88356  10.772   7.752   4.421 -0.0131  0.1428  0.1219
  655MOL0     C88357  10.758   7.629   4.361  0.4044 -0.2665 -0.8076
  655MOL0     H88358  10.584   7.280   4.053  3.0862 -0.2513 -0.0858
  655MOL0     H88359  10.484   7.043   4.048 -1.8961  2.9051 -0.4575
  655MOL0     H88360  10.642   6.672   4.133 -0.2300  0.1217 -0.3160
  655MOL0     H88361  10.742   6.779   4.224 -1.4099  3.2536 -1.1743
  655MOL0     H88362  10.673   6.561   4.350  1.6349  1.2065  0.0081
  655MOL0     H88363  10.645   6.720   4.435  0.7095  0.0553 -0.4986
  655MOL0     H88364  10.446   6.572   4.446  0.6913  0.7495  0.8903
  655MOL0     H88365  10.396   6.713   4.359 -0.3807 -0.4004 -1.4328
  655MOL0     H88366  10.427   6.600   4.136  0.6160 -1.0809  0.1748
  655MOL0     H88367  10.476   6.464   4.227  0.6337  0.5558  2.6793
  655MOL0     H88368  10.258   6.408   4.313  0.2840 -0.2925  0.3657
  655MOL0     H88369  10.198   6.579   4.277  1.0155  1.2353 -1.3793
  655MOL0     H88370  10.102   6.404   4.137 -1.0411  2.7264 -0.6284
  655MOL0     H88371  10.198   6.522   4.044  1.3530 -2.8116 -3.1372
  655MOL0     H88372  10.379   6.323   4.025 -0.8202 -3.7722 -3.6179
  655MOL0     H88373  10.293   6.238   4.156  1.8486  0.8926  0.2825
  655MOL0     H88374  10.198   6.278   3.862 -4.6302  0.0501 -1.3505
  655MOL0     H88375  10.089   6.245   3.999  1.0431 -6.4184  4.8182
  655MOL0     H88376  10.434   6.090   4.010 -0.7173 -0.3963  2.4822
  655MOL0     H88377  10.476   5.817   4.071 -2.3454  3.2819  0.6721
  655MOL0     H88378  10.339   5.712   4.034  4.5637 -3.5890  2.3186
  655MOL0     H88379  10.557   5.788   3.835 -1.0871 -0.2203 -2.1100
  655MOL0     H88380  10.396   5.738   3.792 -0.2891  0.3663  0.9092
  655MOL0     H88381  10.438   5.515   3.915 -0.3397  0.7294  0.9206
  655MOL0     H88382  10.571   5.581   4.008  3.9812 -3.6420 -1.9895
  655MOL0     H88383  10.666   5.432   3.836  0.9041 -0.3148 -0.8113
  655MOL0     H88384  10.728   5.600   3.843 -0.9887  1.7814  2.2353
  655MOL0     H88385  10.865   5.512   3.708 -0.5867 -0.4039 -0.3981
  655MOL0     H88386  11.123   5.373   3.479 -1.2942 -2.2567 -0.1595
  655MOL0     H88387  11.100   5.546   3.529 -2.1332  0.3119 -0.9971
  655MOL0     H88388  11.093   5.411   3.638  0.8375 -1.9321 -0.0417
  655MOL0     H88389  11.033   5.253   3.002 -0.5638 -2.1772  0.2279
  655MOL0     H88390  11.221   5.209   2.846 -1.5321 -2.0774  1.0647
  655MOL0     H88391  11.623   5.394   2.890 -2.2351  0.2565 -3.0420
  655MOL0     H88392  11.619   5.278   3.020 -0.0844 -1.7368  0.1828
  655MOL0     H88393  11.679   5.225   2.733 -1.0727  1.6042  0.3300
  655MOL0     H88394  11.794   5.195   2.879  1.1264  0.1360 -1.1730
  655MOL0     H88395  11.549   5.028   2.822  0.4659 -0.6425 -0.0014
  655MOL0     H88396  11.653   5.028   2.970  0.4896  0.9773  0.8383
  655MOL0     H88397  11.694   4.857   2.759  2.6456 -0.3237 -0.7495
  655MOL0     H88398  11.785   4.998   2.704  1.1229  0.4838  0.8093
  655MOL0     H88399  11.826   4.848   2.974  1.5782 -1.3613  0.5599
  655MOL0     H88400  11.930   4.980   2.921 -2.3684 -0.1154  4.1660
  655MOL0     H88401  11.994   4.873   2.717  1.8121 -0.3922 -0.4870
  655MOL0     H88402  12.059   4.806   2.863 -1.0749 -2.5226  0.1129
  655MOL0     H88403  11.848   4.705   2.673 -0.3625  1.1725  1.4337
  655MOL0     H88404  11.853   4.636   2.835 -0.2588  0.0920 -1.0108
  655MOL0     H88405  11.965   4.510   2.654  2.1922 -2.0760  0.3200
  655MOL0     H88406  12.066   4.525   2.789 -0.9271 -3.0149 -1.1851
  655MOL0     H88407  11.475   5.438   3.102  0.7055  0.8294  0.4736
  655MOL0     H88408  11.290   5.460   3.279  0.5044 -2.9284  1.9052
  655MOL0     H88409  10.694   5.422   3.268  1.7717 -1.3897 -0.0989
  655MOL0     H88410  10.545   5.499   3.435  0.5226  0.6499  0.7251
  655MOL0     H88411  10.724   6.949   4.403 -2.0788 -0.4315  1.3915
  655MOL0     H88412  10.783   7.194   4.417 -1.3527  2.1133 -0.3662
  655MOL0     H88413  11.106   7.550   4.380  0.3571  1.8318  1.8049
  655MOL0     H88414  11.111   7.764   4.482  0.2515  1.6486 -2.2547
  655MOL0     H88415  10.980   8.077   4.618  2.4907  1.5090 -1.0857
  655MOL0     H88416  11.087   7.947   4.626  0.6405 -2.2877 -1.6969
  655MOL0     H88417  11.125   7.968   4.368 -0.5755 -0.9970  1.1854
  655MOL0     H88418  11.153   8.120   4.444 -0.1625  1.4374 -6.1453
  655MOL0     H88419  10.886   8.025   4.307 -0.8685 -0.4947  2.2185
  655MOL0     H88420  10.999   8.138   4.239 -0.0026 -0.9877 -1.2678
  655MOL0     H88421  10.931   8.302   4.418  2.3451 -0.4930  0.5829
  655MOL0     H88422  10.832   8.183   4.495 -0.3181  0.2672 -0.1091
  655MOL0     H88423  10.599   8.286   4.156  0.2623 -4.3003 -1.3386
  655MOL0     H88424  10.691   7.824   4.426 -0.2899 -0.1733  0.2421
  655MOL0     H88425  10.660   7.599   4.326 -0.7115  3.3031 -1.1780
  656MOL0     O88426   5.384   8.034   2.404 -0.4308  0.4013  0.3636
  656MOL0     C88427   5.325   8.113   2.471  0.1214 -0.5263  0.8807
  656MOL0     O88428   5.213   8.183   2.437 -0.1628 -0.0202  0.8306
  656MOL0     C88429   5.143   8.137   2.320 -0.0491 -0.8938 -1.0130
  656MOL0     C88430   5.052   8.033   2.333 -0.0326  0.0004  0.3856
  656MOL0     C88431   4.966   7.993   2.224  0.1139 -0.6154 -0.1872
  656MOL0     C88432   4.975   8.057   2.098 -0.8801 -0.2964  0.3230
  656MOL0     O88433   4.910   8.018   1.984  0.1372  0.1911  0.1737
  656MOL0     C88434   4.938   7.882   1.930 -0.6488  0.0777  0.3120
  656MOL0     C88435   5.068   7.869   1.851  0.0898 -0.6908 -0.0012
  656MOL0     C88436   5.195   7.884   1.943 -0.3635  1.1826  0.4155
  656MOL0     C88437   5.204   7.780   2.048 -0.3734 -1.3640 -0.9316
  656MOL0     C88438   5.344   7.792   2.114 -0.1648 -0.1476 -0.3484
  656MOL0     C88439   5.369   7.698   2.232 -0.0120 -0.3574 -0.0499
  656MOL0     C88440   5.516   7.703   2.282  0.4687 -0.1822 -1.0424
  656MOL0     C88441   5.528   7.597   2.391 -0.1589 -0.2500  0.6058
  656MOL0     N88442   5.492   7.659   2.518  0.4313 -0.1175  0.2915
  656MOL0     C88443   5.384   7.611   2.593  0.5351 -0.3685 -0.1189
  656MOL0     C88444   5.390   7.688   2.709  0.0595  0.0820  0.5205
  656MOL0     C88445   5.306   7.692   2.834  0.2832  0.4995  0.5458
  656MOL0     C88446   5.211   7.808   2.846  0.5087  0.3633 -0.5033
  656MOL0     C88447   5.091   7.812   2.746  0.4707 -0.1403 -0.2474
  656MOL0     C88448   5.018   7.946   2.746 -0.3794  0.0888  0.2959
  656MOL0     O88449   4.914   7.926   2.644  0.2842  0.0074 -0.6100
  656MOL0     C88450   4.798   8.003   2.641  0.4151 -0.5438  0.0022
  656MOL0     C88451   4.751   8.094   2.742 -0.2764 -0.1138 -0.8206
  656MOL0     C88452   4.636   8.169   2.719 -0.2129  0.9219 -0.3494
  656MOL0     C88453   4.598   8.266   2.819 -0.1843  0.3380 -0.3279
  656MOL0     C88454   4.555   8.151   2.598 -0.6790  0.8754  0.0213
  656MOL0     C88455   4.432   8.224   2.563  0.2882  0.6010 -0.6557
  656MOL0     O88456   4.379   8.205   2.442 -1.0420  0.2232  0.4812
  656MOL0     C88457   4.310   8.303   2.382 -0.2480 -0.1946 -0.3619
  656MOL0     C88458   4.217   8.278   2.284 -0.1165 -0.0142 -0.0596
  656MOL0     C88459   4.143   8.378   2.214  0.3204 -0.0513 -0.5698
  656MOL0     C88460   4.174   8.514   2.245  0.4390  0.7583 -0.8127
  656MOL0     O88461   4.104   8.625   2.186 -0.8964  0.8754  0.9266
  656MOL0     C88462   4.036   8.573   2.068 -0.2959 -0.5082 -0.2915
  656MOL0     C88463   3.983   8.688   1.987  0.0605  0.2283  0.3594
  656MOL0     C88464   3.874   8.761   2.070 -1.1300 -0.1413  0.4154
  656MOL0     C88465   3.933   8.883   2.148  0.3905 -0.0668  0.4216
  656MOL0     C88466   3.835   8.935   2.256  0.6403  0.4613 -0.0675
  656MOL0     C88467   3.700   8.986   2.205 -0.0040 -0.1781  0.6282
  656MOL0     C88468   3.721   9.098   2.099  0.0213 -0.2465 -0.4942
  656MOL0     C88469   3.782   9.231   2.151 -0.8000 -0.1085  0.0641
  656MOL0    Cl88470   3.815   9.330   2.016 -0.7450  0.2879  0.5485
  656MOL0     C88471   4.280   8.535   2.331 -1.2811 -0.7344 -0.0570
  656MOL0     C88472   4.351   8.437   2.391 -0.5150 -0.2754 -0.5349
  656MOL0     O88473   4.376   8.296   2.644 -0.4625 -0.3628 -0.2058
  656MOL0     C88474   4.612   8.065   2.497  1.0469 -1.0574 -0.9052
  656MOL0     C88475   4.724   7.988   2.521 -0.7463  0.0875 -0.1313
  656MOL0     N88476   5.496   7.778   2.700  0.2113  0.5146 -0.0095
  656MOL0     N88477   5.556   7.764   2.582 -0.2320  0.2649  0.6093
  656MOL0     C88478   5.072   8.162   2.092 -0.1989  0.1996  0.2809
  656MOL0     C88479   5.155   8.199   2.203 -0.4341  0.0776  0.5183
  656MOL0     C88480   5.382   8.132   2.606  0.4698  0.0921  0.1805
  656MOL0     C88481   5.329   8.225   2.703  0.2828 -0.4276  0.1028
  656MOL0     C88482   5.393   8.252   2.815  0.2100 -0.3348 -0.3675
  656MOL0     C88483   5.503   8.180   2.855 -0.3984  0.5277  0.2721
  656MOL0     O88484   5.558   8.200   2.982 -0.6560 -0.0040  0.4513
  656MOL0     C88485   5.537   8.323   3.053 -0.8511 -0.5582  0.0666
  656MOL0     C88486   5.627   8.316   3.174  0.2048 -0.1765 -0.1356
  656MOL0     C88487   5.628   8.454   3.236  0.3726 -0.8556 -0.2190
  656MOL0     C88488   5.740   8.473   3.334  0.1707  1.3119  0.5408
  656MOL0     C88489   5.751   8.373   3.440 -0.6201  0.4518 -0.8293
  656MOL0     C88490   5.745   8.298   3.538 -1.7004 -0.1514 -0.7372
  656MOL0     C88491   5.547   8.083   2.768 -0.5417 -0.4944  0.7224
  656MOL0     C88492   5.505   8.071   2.637 -0.1722 -1.3961  0.6047
  656MOL0     H88493   5.063   7.972   2.422  0.5497  1.2323  1.1845
  656MOL0     H88494   4.897   7.910   2.235  0.6160 -0.9228  0.7200
  656MOL0     H88495   4.947   7.806   2.008  0.3295 -0.7252 -0.5483
  656MOL0     H88496   4.860   7.848   1.861  1.9686 -4.5729 -0.7678
  656MOL0     H88497   5.070   7.775   1.795 -1.9975 -0.3082 -0.7949
  656MOL0     H88498   5.065   7.949   1.777  1.7546 -0.5242  0.0818
  656MOL0     H88499   5.282   7.871   1.877 -1.0511  1.3420 -0.5415
  656MOL0     H88500   5.205   7.986   1.981  0.0570  0.7714  1.4322
  656MOL0     H88501   5.125   7.797   2.122  0.1293 -2.9123 -0.0058
  656MOL0     H88502   5.184   7.677   2.017 -2.8293 -0.9657 -0.8792
  656MOL0     H88503   5.419   7.780   2.034  1.1529  2.7837  0.3230
  656MOL0     H88504   5.358   7.898   2.138 -1.5684 -0.0203 -0.0422
  656MOL0     H88505   5.308   7.728   2.318 -0.9063 -0.1174 -0.7462
  656MOL0     H88506   5.333   7.598   2.205  1.6179 -0.9032 -0.2862
  656MOL0     H88507   5.590   7.677   2.207  1.9147 -0.5929  0.4748
  656MOL0     H88508   5.543   7.801   2.324  0.9770 -0.2096 -1.3096
  656MOL0     H88509   5.630   7.560   2.379  0.2672  1.6383 -3.0542
  656MOL0     H88510   5.461   7.514   2.367  1.5197 -0.5448 -4.0528
  656MOL0     H88511   5.314   7.539   2.553 -0.3144 -1.0063  2.3257
  656MOL0     H88512   5.273   7.589   2.850  1.7542 -0.2537 -0.8939
  656MOL0     H88513   5.377   7.691   2.917  0.4404 -2.4198  0.4792
  656MOL0     H88514   5.270   7.899   2.832 -1.3289  1.7183  0.1474
  656MOL0     H88515   5.178   7.820   2.950 -1.5334  0.1851 -1.0925
  656MOL0     H88516   5.025   7.728   2.771 -2.7182  2.3999  0.4192
  656MOL0     H88517   5.139   7.800   2.648  3.7015 -4.0087  1.4748
  656MOL0     H88518   5.094   8.021   2.721  0.6505 -1.5387 -1.7141
  656MOL0     H88519   4.975   7.973   2.843 -2.1850  2.8618 -1.1274
  656MOL0     H88520   4.804   8.096   2.836 -0.5878  0.1908 -0.6508
  656MOL0     H88521   4.668   8.270   2.903  0.2024  0.1917 -0.6451
  656MOL0     H88522   4.594   8.366   2.774  0.0023 -0.8756 -3.2524
  656MOL0     H88523   4.505   8.250   2.874 -0.1440  0.9148 -0.0822
  656MOL0     H88524   4.207   8.176   2.250 -1.4764  1.1522 -3.6154
  656MOL0     H88525   4.058   8.339   2.159 -0.5068 -1.8551  1.8048
  656MOL0     H88526   4.100   8.511   2.005  0.8142 -1.7256  1.9182
  656MOL0     H88527   3.950   8.515   2.102 -1.8898 -0.8901 -4.3690
  656MOL0     H88528   4.066   8.755   1.963 -0.4763  1.5620  2.0222
  656MOL0     H88529   3.946   8.645   1.893  1.5451 -2.5859  0.9401
  656MOL0     H88530   3.830   8.695   2.145 -1.6757  3.0768  3.1378
  656MOL0     H88531   3.786   8.791   2.010 -1.0377  2.3425  1.3919
  656MOL0     H88532   4.025   8.867   2.205 -0.6407  0.8512  2.4449
  656MOL0     H88533   3.956   8.969   2.085 -0.1547  0.2913  0.7111
  656MOL0     H88534   3.875   9.020   2.313 -1.4414  3.2506 -2.4332
  656MOL0     H88535   3.818   8.852   2.324  0.8800  0.3654 -0.1228
  656MOL0     H88536   3.639   8.903   2.168  1.6701 -0.5437 -1.4995
  656MOL0     H88537   3.645   9.035   2.286  0.1245  1.6842 -0.3406
  656MOL0     H88538   3.623   9.113   2.053  0.3451 -1.7880 -1.7595
  656MOL0     H88539   3.791   9.064   2.022  0.2208 -2.0158  0.4237
  656MOL0     H88540   3.873   9.221   2.211 -0.8724  1.1314  0.4131
  656MOL0     H88541   3.701   9.280   2.206 -0.6073  0.1612  0.1074
  656MOL0     H88542   4.317   8.636   2.352 -2.3019 -0.2951 -0.3133
  656MOL0     H88543   4.419   8.470   2.469 -0.1857 -0.8136 -0.5883
  656MOL0     H88544   4.566   8.062   2.399 -0.9787  0.1700 -0.0522
  656MOL0     H88545   4.757   7.919   2.443 -1.1343  0.8995 -1.0374
  656MOL0     H88546   5.088   8.211   1.996 -2.2180 -0.2290 -0.3257
  656MOL0     H88547   5.216   8.288   2.193 -0.4513  0.2667  1.9134
  656MOL0     H88548   5.244   8.284   2.669 -0.6428 -2.7026 -1.8152
  656MOL0     H88549   5.348   8.333   2.872  0.7712 -1.1606  1.2915
  656MOL0     H88550   5.560   8.405   2.984  0.2184  0.9722  2.1554
  656MOL0     H88551   5.431   8.321   3.082 -1.0427 -1.9262 -0.6155
  656MOL0     H88552   5.726   8.290   3.134 -1.1193 -2.8253 -1.9761
  656MOL0     H88553   5.603   8.237   3.246  2.1551 -1.5625 -0.9154
  656MOL0     H88554   5.530   8.469   3.282  1.1672  1.4530  0.8863
  656MOL0     H88555   5.647   8.526   3.157  0.6792 -0.6801  0.0125
  656MOL0     H88556   5.726   8.574   3.375 -3.3770  1.7583 -1.3392
  656MOL0     H88557   5.834   8.462   3.280 -0.0125 -1.6716  0.6792
  656MOL0     H88558   5.735   8.239   3.627  0.1570 -0.2249 -0.5282
  656MOL0     H88559   5.633   8.021   2.792  1.5110  2.3220  1.1607
  656MOL0     H88560   5.554   8.008   2.565 -1.6489 -1.4770 -0.3630
  657MOL0     O88561   2.369  10.108   8.991  0.0323  0.4759  0.0550
  657MOL0     C88562   2.328  10.028   8.908  0.2143  0.2284 -0.6962
  657MOL0     O88563   2.220   9.947   8.930 -0.0924  0.0929  0.0469
  657MOL0     C88564   2.161   9.947   9.051  0.2324 -0.4292 -1.3844
  657MOL0     C88565   2.180   9.839   9.133 -0.4433 -0.2317 -0.2786
  657MOL0     C88566   2.129   9.829   9.257  0.6173 -0.8963 -0.5924
  657MOL0     C88567   2.056   9.933   9.302  0.2629  0.1931  0.9446
  657MOL0     O88568   1.997   9.922   9.422 -0.0417  0.4485 -1.0262
  657MOL0     C88569   1.968  10.039   9.506  0.1078 -0.4203 -0.5081
  657MOL0     C88570   1.974   9.981   9.653 -1.3629  0.9162 -0.1515
  657MOL0     C88571   1.922  10.090   9.761  0.2617 -0.7829 -0.0021
  657MOL0     C88572   1.999  10.075   9.895  0.8061 -0.0382  0.4426
  657MOL0     C88573   1.926  10.170   9.994 -0.5759  1.1819 -0.2294
  657MOL0     C88574   2.010  10.178  10.126  0.3654  0.7672 -0.2495
  657MOL0     C88575   2.103  10.298  10.118  0.4078 -0.5058 -0.9689
  657MOL0     C88576   2.135  10.351  10.259 -0.1778 -0.5729 -0.3171
  657MOL0     N88577   2.239  10.455  10.269 -1.1646  1.3571 -0.7259
  657MOL0     C88578   2.373  10.432  10.233  1.3056 -0.0706 -0.3949
  657MOL0     C88579   2.429  10.547  10.267 -0.3505 -0.1532 -0.7783
  657MOL0     C88580   2.562  10.600  10.249 -0.0215 -0.1900 -0.0692
  657MOL0     C88581   2.588  10.691  10.132  0.9566 -0.3656  0.0114
  657MOL0     C88582   2.514  10.643  10.013 -0.0027 -0.7757 -0.5980
  657MOL0     C88583   2.575  10.716   9.888  0.0244  0.3509  0.2209
  657MOL0     O88584   2.688  10.634   9.859 -0.4111 -0.3417 -0.0795
  657MOL0     C88585   2.704  10.582   9.734  0.1020 -1.0252 -0.1730
  657MOL0     C88586   2.788  10.470   9.721  0.4711 -0.9214  0.2431
  657MOL0     C88587   2.815  10.402   9.601  0.3180 -0.7559  0.1191
  657MOL0     C88588   2.906  10.278   9.603 -0.6166  0.6142  0.0003
  657MOL0     C88589   2.750  10.451   9.482  0.5556  0.0620 -0.0927
  657MOL0     C88590   2.768  10.391   9.344 -0.3178 -0.4242  0.7451
  657MOL0     O88591   2.708  10.455   9.238 -0.4884 -0.5747  0.3480
  657MOL0     C88592   2.753  10.440   9.106 -0.3594  0.5090 -0.3989
  657MOL0     C88593   2.871  10.502   9.066  0.5597 -0.6332 -0.3927
  657MOL0     C88594   2.917  10.494   8.937  0.5381 -0.6773  0.2197
  657MOL0     C88595   2.848  10.413   8.845 -0.0807 -0.3170  0.5545
  657MOL0     O88596   2.860  10.418   8.715 -0.1436  0.2558  1.0237
  657MOL0     C88597   2.989  10.440   8.656  0.6745  0.4032 -0.6075
  657MOL0     C88598   2.975  10.394   8.510 -0.3883 -0.9007 -1.3619
  657MOL0     C88599   2.962  10.238   8.487  0.0879 -0.2803  0.1806
  657MOL0     C88600   3.060  10.151   8.555  0.1502  0.9858  0.0057
  657MOL0     C88601   3.034  10.003   8.531  0.6075  0.2882  0.2689
  657MOL0     C88602   3.071   9.960   8.388  1.0960  0.0712 -0.5259
  657MOL0     C88603   3.094   9.817   8.360 -0.4023 -0.0888  0.7051
  657MOL0     C88604   3.093   9.776   8.211 -0.3779 -1.0423 -0.9080
  657MOL0    Cl88605   3.107   9.603   8.180 -0.4849  0.0170 -0.6160
  657MOL0     C88606   2.733  10.345   8.887  0.3886  0.1122  0.0650
  657MOL0     C88607   2.689  10.346   9.019  0.0997  0.4523 -0.7603
  657MOL0     O88608   2.843  10.292   9.332  0.0406  0.1310  1.0921
  657MOL0     C88609   2.674  10.563   9.495 -0.1271 -0.6079  0.1759
  657MOL0     C88610   2.653  10.626   9.616 -0.8439 -0.0150  0.0216
  657MOL0     N88611   2.333  10.637  10.319  0.7717  0.0272  0.5289
  657MOL0     N88612   2.215  10.573  10.322 -0.6139 -0.2176  0.2115
  657MOL0     C88613   2.030  10.049   9.224 -0.8467  0.4549  0.4204
  657MOL0     C88614   2.074  10.054   9.097  0.6232  0.6432  1.3077
  657MOL0     C88615   2.406  10.013   8.786  0.2242  0.7763  0.2647
  657MOL0     C88616   2.547  10.021   8.786 -0.7407  0.4699 -0.7536
  657MOL0     C88617   2.627  10.004   8.674 -0.7147  1.2892  0.6499
  657MOL0     C88618   2.562   9.960   8.559 -0.0841  1.0683  0.7197
  657MOL0     O88619   2.637   9.943   8.448  0.1111 -0.3770 -0.1118
  657MOL0     C88620   2.581  10.002   8.331 -0.2935  0.2902 -1.4062
  657MOL0     C88621   2.697  10.026   8.238  0.1110  0.4424  0.5705
  657MOL0     C88622   2.646  10.049   8.090 -0.3848 -0.3469 -0.7808
  657MOL0     C88623   2.759  10.046   7.986  0.2343  0.5380  0.2766
  657MOL0     C88624   2.837  10.170   8.004  0.2358  0.4226  0.6788
  657MOL0     C88625   2.898  10.279   8.008  0.7652  0.2357  0.5283
  657MOL0     C88626   2.426   9.929   8.563  0.1651  0.6348  0.5358
  657MOL0     C88627   2.344   9.956   8.671  0.4922  0.2203  0.1385
  657MOL0     H88628   2.242   9.757   9.099  4.4188  3.2748 -0.8760
  657MOL0     H88629   2.165   9.754   9.327  1.5487  0.5857  0.5868
  657MOL0     H88630   2.047  10.113   9.493 -0.8535  0.4335 -1.8382
  657MOL0     H88631   1.874  10.095   9.501 -0.1163 -0.7036  0.3702
  657MOL0     H88632   1.913   9.893   9.673  0.0021  0.2763  1.5252
  657MOL0     H88633   2.073   9.944   9.681 -1.3290  1.6156  0.7350
  657MOL0     H88634   1.943  10.192   9.728  0.9762 -0.8528  0.2255
  657MOL0     H88635   1.814  10.096   9.777 -0.1791  0.5889 -2.8605
  657MOL0     H88636   1.994   9.975   9.939  1.6052  0.3260  1.3865
  657MOL0     H88637   2.103  10.092   9.868  0.4617 -0.9932 -1.6570
  657MOL0     H88638   1.907  10.266   9.946  0.9234  2.6605  1.9184
  657MOL0     H88639   1.831  10.121  10.016 -0.6752  0.8936 -1.2910
  657MOL0     H88640   1.939  10.195  10.207  0.8211  2.1784 -0.1150
  657MOL0     H88641   2.068  10.087  10.138  0.4559  0.7438 -0.8091
  657MOL0     H88642   2.191  10.261  10.064 -0.4573 -1.1386 -1.9867
  657MOL0     H88643   2.058  10.383  10.067  1.0439  0.0035 -0.7070
  657MOL0     H88644   2.178  10.264  10.309 -2.4409 -2.8555 -2.1037
  657MOL0     H88645   2.044  10.387  10.307  1.1178  2.0203  0.3965
  657MOL0     H88646   2.412  10.339  10.192 -1.9860 -2.1159  0.6906
  657MOL0     H88647   2.587  10.665  10.334  0.7399  0.6043 -0.8639
  657MOL0     H88648   2.630  10.515  10.252  0.4977  0.2452  1.5787
  657MOL0     H88649   2.697  10.693  10.117  1.0328  1.3739  0.4931
  657MOL0     H88650   2.557  10.795  10.146 -0.3960 -0.9110  1.3941
  657MOL0     H88651   2.409  10.672  10.022 -0.3794 -1.9655 -1.0535
  657MOL0     H88652   2.522  10.535   9.997 -2.3598 -1.4253  1.9047
  657MOL0     H88653   2.587  10.824   9.899  1.7005  0.3235 -0.9874
  657MOL0     H88654   2.494  10.705   9.815 -1.7136  3.7867  1.3976
  657MOL0     H88655   2.829  10.447   9.819 -0.8456  2.2899  1.6825
  657MOL0     H88656   2.847  10.191   9.573  1.9100 -0.8684 -0.9183
  657MOL0     H88657   2.991  10.278   9.534 -1.2275 -2.9829 -0.9776
  657MOL0     H88658   2.947  10.252   9.701  1.2400  1.9425 -0.3604
  657MOL0     H88659   2.916  10.567   9.140 -2.0363 -0.4662  1.1622
  657MOL0     H88660   2.998  10.553   8.894  1.2163  0.3912  2.7816
  657MOL0     H88661   3.016  10.544   8.676  3.7280 -0.4654  0.3471
  657MOL0     H88662   3.067  10.387   8.711 -0.0273  1.7201  1.7954
  657MOL0     H88663   2.884  10.441   8.469 -1.3497 -2.3107 -0.9228
  657MOL0     H88664   3.059  10.427   8.448 -0.2749 -2.5005 -2.1285
  657MOL0     H88665   2.970  10.232   8.378  0.5391 -1.9332  0.2823
  657MOL0     H88666   2.864  10.196   8.511 -1.4121  3.4523  1.2123
  657MOL0     H88667   3.163  10.178   8.532  1.4342 -2.6354  0.8544
  657MOL0     H88668   3.047  10.159   8.663 -0.5078 -0.3904  0.0541
  657MOL0     H88669   2.932   9.968   8.551  0.0584  2.1439  0.8712
  657MOL0     H88670   3.102   9.945   8.594  1.3470 -0.0330 -0.7953
  657MOL0     H88671   3.001  10.008   8.318  0.8290 -1.6700 -1.5014
  657MOL0     H88672   3.168  10.008   8.374  2.2739 -1.9447  0.4542
  657MOL0     H88673   3.016   9.755   8.404  0.0165 -3.8481 -3.1474
  657MOL0     H88674   3.185   9.777   8.407 -0.9573  0.0742  1.9536
  657MOL0     H88675   3.179   9.820   8.159 -0.0115 -0.6579  0.0125
  657MOL0     H88676   3.005   9.824   8.168 -0.0552  2.0687  1.5244
  657MOL0     H88677   2.676  10.302   8.805  0.4381 -2.2280  1.1797
  657MOL0     H88678   2.602  10.290   9.052 -1.1231  2.4535 -0.4528
  657MOL0     H88679   2.621  10.615   9.415 -1.6926  2.4708  2.9832
  657MOL0     H88680   2.599  10.720   9.612 -0.6547  0.1021  0.1759
  657MOL0     H88681   1.972  10.135   9.255  0.3934  1.1751  0.8173
  657MOL0     H88682   2.072  10.143   9.034  0.3740  0.6830  1.3686
  657MOL0     H88683   2.590  10.015   8.886  2.6978 -2.1341 -2.1799
  657MOL0     H88684   2.735  10.009   8.659 -1.1906  2.2238 -3.9856
  657MOL0     H88685   2.508   9.933   8.287 -2.0550  0.8148  0.5327
  657MOL0     H88686   2.535  10.094   8.368 -1.9325 -2.6098  5.3851
  657MOL0     H88687   2.766   9.943   8.252  0.4405  0.6804  0.3761
  657MOL0     H88688   2.747  10.119   8.270  0.8370  1.1178 -2.2958
  657MOL0     H88689   2.594  10.145   8.082  1.5997  0.9258  0.6682
  657MOL0     H88690   2.575   9.968   8.072 -1.8320 -0.5018  4.1461
  657MOL0     H88691   2.721  10.056   7.884 -0.3065  0.7354  0.4978
  657MOL0     H88692   2.822   9.956   7.991 -1.1167 -0.3670  2.3800
  657MOL0     H88693   2.941  10.377   8.014  0.2477  0.4526  0.7184
  657MOL0     H88694   2.375   9.885   8.477 -2.6533  1.8198  1.4792
  657MOL0     H88695   2.238   9.934   8.681  0.2507  1.1585 -0.2183
  658MOL0     O88696   9.521   3.119  11.221 -0.3804 -0.3217 -0.0218
  658MOL0     C88697   9.627   3.081  11.167  0.5335  0.1400  0.0699
  658MOL0     O88698   9.751   3.064  11.223 -0.3245  0.0020 -0.1389
  658MOL0     C88699   9.767   3.054  11.362 -0.4846  0.4749  1.0712
  658MOL0     C88700   9.901   3.058  11.407 -0.1825 -0.3813  0.6458
  658MOL0     C88701   9.934   3.036  11.552 -0.1034 -0.4370  0.3209
  658MOL0     C88702   9.835   3.005  11.643  0.5871 -0.2948  0.4140
  658MOL0     O88703   9.838   2.973  11.768  0.5903 -0.3243  0.5419
  658MOL0     C88704   9.962   2.959  11.833  0.3927 -0.7151 -0.0635
  658MOL0     C88705   9.935   2.958  11.985  0.5715 -0.1711 -0.1018
  658MOL0     C88706  10.048   2.906  12.061 -0.4318  0.9280  0.4582
  658MOL0     C88707  10.046   2.914  12.207  0.0642  0.4754  0.6485
  658MOL0     C88708   9.955   2.809  12.271  0.0669  0.1420  0.2867
  658MOL0     C88709   9.985   2.660  12.235  0.2380  0.1203  0.8721
  658MOL0     C88710   9.923   2.563  12.340  0.4276 -0.0570  0.4660
  658MOL0     C88711   9.779   2.593  12.377 -0.4896  0.1784  0.5052
  658MOL0     N88712   9.751   2.499  12.490  0.3334 -0.1878 -0.2880
  658MOL0     C88713   9.758   2.538  12.625 -0.5154  0.0701  0.1799
  658MOL0     C88714   9.705   2.431  12.682 -0.2404  0.9493  0.3750
  658MOL0     C88715   9.676   2.424  12.835 -0.0189 -0.4116  0.7742
  658MOL0     C88716   9.595   2.543  12.880 -0.2771 -0.4829 -0.1456
  658MOL0     C88717   9.510   2.524  13.009 -0.2635 -0.6439 -0.5731
  658MOL0     C88718   9.402   2.420  12.983 -0.9125 -0.0086 -0.4062
  658MOL0     O88719   9.347   2.393  13.110  0.0087 -0.4710 -0.2992
  658MOL0     C88720   9.406   2.302  13.199  0.3921 -0.4702  1.1401
  658MOL0     C88721   9.332   2.273  13.317  0.7193  0.5095 -0.9695
  658MOL0     C88722   9.371   2.176  13.413 -0.6246  0.4569  0.3927
  658MOL0     C88723   9.276   2.148  13.531  0.1443  0.4925 -0.3778
  658MOL0     C88724   9.503   2.114  13.394  0.3796 -0.2651 -0.4231
  658MOL0     C88725   9.561   2.024  13.491 -0.0332  0.8988  0.5014
  658MOL0     O88726   9.487   1.944  13.572 -0.7515 -0.0923 -0.6106
  658MOL0     C88727   9.553   1.825  13.618 -0.8514 -0.0740 -0.1768
  658MOL0     C88728   9.606   1.726  13.534 -0.0902 -0.2125 -0.5870
  658MOL0     C88729   9.672   1.613  13.591  0.3611 -0.1169  0.1929
  658MOL0     C88730   9.694   1.598  13.728 -0.1310 -0.4860 -0.2377
  658MOL0     O88731   9.775   1.507  13.795  0.6314 -0.0453  0.2811
  658MOL0     C88732   9.883   1.453  13.721 -0.2052  0.6986 -0.4632
  658MOL0     C88733   9.975   1.378  13.812 -0.1076 -0.0242  0.2064
  658MOL0     C88734  10.101   1.322  13.751 -1.2721  0.4464  0.3159
  658MOL0     C88735  10.207   1.426  13.715 -0.3034  0.2536 -0.0192
  658MOL0     C88736  10.340   1.354  13.679  1.2226  0.1805 -0.2372
  658MOL0     C88737  10.472   1.420  13.714 -0.5033  0.6109 -0.6137
  658MOL0     C88738  10.467   1.556  13.632  0.5776  0.3601 -0.0955
  658MOL0     C88739  10.590   1.645  13.666  0.2682  0.0576  0.4306
  658MOL0    Cl88740  10.587   1.672  13.850 -0.3364 -0.0978 -0.4116
  658MOL0     C88741   9.627   1.691  13.809 -0.0167  0.5173 -0.0525
  658MOL0     C88742   9.564   1.800  13.750  0.3094  0.4420 -0.2365
  658MOL0     O88743   9.687   2.031  13.502 -0.3008 -0.2195  0.1962
  658MOL0     C88744   9.567   2.139  13.272  0.2076  0.5221  0.4110
  658MOL0     C88745   9.519   2.231  13.181  1.0792  0.0674 -0.0664
  658MOL0     N88746   9.686   2.328  12.596 -0.2087 -0.4106  0.6377
  658MOL0     N88747   9.714   2.371  12.476 -0.4128  0.0281 -0.5692
  658MOL0     C88748   9.705   3.009  11.593  0.1796 -0.6091  0.3981
  658MOL0     C88749   9.667   3.034  11.461 -0.1846 -0.3468 -0.3084
  658MOL0     C88750   9.629   3.071  11.022  0.8381  0.2358  0.7302
  658MOL0     C88751   9.745   3.049  10.944 -0.1401  0.2911  0.3456
  658MOL0     C88752   9.732   3.030  10.802 -0.8212  0.4716  0.6525
  658MOL0     C88753   9.609   3.037  10.741 -0.2191 -0.7746 -0.6900
  658MOL0     O88754   9.574   3.001  10.619  0.3142  0.4125  0.0400
  658MOL0     C88755   9.647   2.892  10.563  0.4636 -0.1729 -0.3832
  658MOL0     C88756   9.643   2.763  10.654  0.0009  0.2923 -0.2247
  658MOL0     C88757   9.736   2.652  10.597  0.4644  0.1509  0.2120
  658MOL0     C88758   9.725   2.623  10.448  0.2326  0.3067  0.0268
  658MOL0     C88759   9.585   2.597  10.392 -0.1311 -0.7202 -0.6950
  658MOL0     C88760   9.494   2.546  10.327  0.8495 -0.5133 -0.0963
  658MOL0     C88761   9.505   3.047  10.819  0.7622 -0.4999  0.4662
  658MOL0     C88762   9.511   3.079  10.948  0.1668 -0.4136 -0.6887
  658MOL0     H88763   9.985   3.094  11.348 -0.2561 -1.0423  0.1268
  658MOL0     H88764  10.037   3.040  11.586  0.3780  0.4608 -1.1702
  658MOL0     H88765  10.013   2.867  11.803  0.0099 -1.2772  0.9592
  658MOL0     H88766  10.033   3.039  11.809 -2.5243  2.4211  1.0417
  658MOL0     H88767   9.930   3.066  12.006 -1.7326  0.0264 -1.3976
  658MOL0     H88768   9.837   2.912  12.002 -0.0475  0.8758 -0.7122
  658MOL0     H88769  10.068   2.805  12.024  2.4311  1.3622  0.6422
  658MOL0     H88770  10.134   2.968  12.036  0.5029  0.4199  2.2818
  658MOL0     H88771  10.146   2.895  12.246  0.9131 -0.3125 -1.7106
  658MOL0     H88772  10.025   3.011  12.254 -1.9252 -1.0333  3.1690
  658MOL0     H88773   9.956   2.813  12.380  1.2194  1.6168  0.2586
  658MOL0     H88774   9.855   2.833  12.231  0.5065  0.2200 -0.7948
  658MOL0     H88775   9.940   2.626  12.141  3.2085  1.3268 -1.1403
  658MOL0     H88776  10.092   2.647  12.215 -0.4808  0.6359 -5.4914
  658MOL0     H88777   9.934   2.458  12.311  0.4445 -0.6964  2.5983
  658MOL0     H88778   9.985   2.568  12.430  1.3897  1.2935 -0.2375
  658MOL0     H88779   9.703   2.582  12.299  1.8737 -1.0681 -1.7420
  658MOL0     H88780   9.776   2.696  12.414 -0.0684  1.1676 -1.9753
  658MOL0     H88781   9.804   2.630  12.660 -0.2547 -1.6133  5.1383
  658MOL0     H88782   9.629   2.329  12.863 -0.0976 -1.0260 -1.3058
  658MOL0     H88783   9.772   2.422  12.888  0.6787 -1.8044 -0.4750
  658MOL0     H88784   9.530   2.580  12.800 -0.9694 -1.7025 -0.1836
  658MOL0     H88785   9.667   2.625  12.889  0.4593 -1.0253 -0.9199
  658MOL0     H88786   9.460   2.619  13.033  0.1089 -0.3829 -0.8070
  658MOL0     H88787   9.577   2.488  13.087 -2.0959  1.4730  2.1738
  658MOL0     H88788   9.453   2.330  12.949  2.2749  0.8294  1.7200
  658MOL0     H88789   9.327   2.456  12.912  0.8546  1.3407 -1.6913
  658MOL0     H88790   9.237   2.323  13.333  1.0440  1.0202 -0.5914
  658MOL0     H88791   9.268   2.039  13.530 -4.0608  0.4382 -5.3985
  658MOL0     H88792   9.325   2.181  13.622  1.3457 -2.8632  0.3280
  658MOL0     H88793   9.174   2.186  13.516  0.0781  1.2502  1.6540
  658MOL0     H88794   9.578   1.717  13.429 -1.4950  0.5802 -0.3125
  658MOL0     H88795   9.708   1.553  13.508 -1.2708  0.0506 -0.6787
  658MOL0     H88796   9.845   1.387  13.643 -0.0712  1.7048 -1.4165
  658MOL0     H88797   9.935   1.536  13.671 -0.5801  1.6485  0.6901
  658MOL0     H88798  10.016   1.450  13.883  1.3995  0.8455 -1.4681
  658MOL0     H88799   9.920   1.303  13.870  1.2183  0.1176  1.7095
  658MOL0     H88800  10.086   1.246  13.674  3.3778 -0.1070 -0.3640
  658MOL0     H88801  10.154   1.274  13.834  1.6989 -0.5760 -2.0122
  658MOL0     H88802  10.158   1.480  13.634  0.4953 -0.3482 -0.9179
  658MOL0     H88803  10.233   1.491  13.800  1.5810 -0.4595  0.0002
  658MOL0     H88804  10.344   1.325  13.574 -1.4161 -0.6460 -0.1958
  658MOL0     H88805  10.350   1.263  13.739  3.7729  1.2613  1.1481
  658MOL0     H88806  10.478   1.430  13.823  4.8657  1.5180 -0.7209
  658MOL0     H88807  10.562   1.368  13.679  1.1583  3.7187 -1.3443
  658MOL0     H88808  10.371   1.604  13.652  0.4112 -0.0717  0.1512
  658MOL0     H88809  10.474   1.527  13.527  1.1382 -0.7698  0.2397
  658MOL0     H88810  10.592   1.740  13.610 -4.9035  0.2580  0.1343
  658MOL0     H88811  10.679   1.585  13.648  2.1900  2.3868  1.4758
  658MOL0     H88812   9.632   1.683  13.917  0.8527 -2.8066 -0.2541
  658MOL0     H88813   9.524   1.868  13.824  1.7471  0.1577  0.8486
  658MOL0     H88814   9.664   2.093  13.255  0.6383  2.2651 -2.4129
  658MOL0     H88815   9.565   2.235  13.082  2.4643  1.0806  0.5786
  658MOL0     H88816   9.614   2.999  11.651 -0.0250  0.6022  0.3146
  658MOL0     H88817   9.561   3.040  11.435  0.5295  1.9991 -3.2503
  658MOL0     H88818   9.844   3.049  10.990  1.1792  0.2240 -2.3211
  658MOL0     H88819   9.819   3.024  10.737 -1.8788  0.2748 -0.7791
  658MOL0     H88820   9.594   2.878  10.468 -2.4113 -1.5269  1.2732
  658MOL0     H88821   9.746   2.938  10.550  2.0614 -2.6068  1.9851
  658MOL0     H88822   9.539   2.731  10.665 -0.7183  1.8596 -1.8121
  658MOL0     H88823   9.683   2.783  10.753  1.1162  0.4868 -0.6952
  658MOL0     H88824   9.703   2.556  10.638  0.9350  0.8785  2.4423
  658MOL0     H88825   9.838   2.666  10.634  0.4619 -0.1606  0.3466
  658MOL0     H88826   9.787   2.535  10.429 -0.8863 -0.5063  0.0624
  658MOL0     H88827   9.781   2.707  10.404  1.2146  0.3712  1.3263
  658MOL0     H88828   9.411   2.499  10.278  3.3989 -1.6400 -3.7698
  658MOL0     H88829   9.411   3.020  10.773 -0.4407  2.5202  0.8575
  658MOL0     H88830   9.423   3.088  11.012  0.2511 -0.7094 -0.5303
  659MOL0     O88831   4.546   6.459   9.975 -0.0486  0.4008 -0.4536
  659MOL0     C88832   4.593   6.367   9.908  0.1941 -0.4318 -0.6713
  659MOL0     O88833   4.639   6.244   9.963  1.2817  0.8021  0.3731
  659MOL0     C88834   4.623   6.216  10.096 -0.3080 -0.3913  0.0584
  659MOL0     C88835   4.531   6.125  10.139 -0.1471  0.2100 -1.0906
  659MOL0     C88836   4.534   6.072  10.268 -0.1102 -0.1581  0.5507
  659MOL0     C88837   4.623   6.117  10.363 -0.6649  1.0742  1.1337
  659MOL0     O88838   4.620   6.073  10.496  0.0898  0.3181  0.5365
  659MOL0     C88839   4.582   5.944  10.519 -1.3362  0.7305 -0.7754
  659MOL0     C88840   4.574   5.904  10.672 -0.2084 -1.1816  0.8124
  659MOL0     C88841   4.709   5.889  10.733 -0.1932  1.0293  0.0886
  659MOL0     C88842   4.701   5.838  10.877  0.2815 -0.0637  0.0269
  659MOL0     C88843   4.711   5.686  10.878 -0.7902  0.0510  0.7252
  659MOL0     C88844   4.736   5.630  11.030  0.2669 -0.6624 -0.5388
  659MOL0     C88845   4.645   5.672  11.143 -0.2447 -0.0101  0.2407
  659MOL0     C88846   4.659   5.592  11.270 -0.0331  0.4614  0.0087
  659MOL0     N88847   4.732   5.644  11.385 -0.8783  0.0570 -0.2795
  659MOL0     C88848   4.855   5.696  11.378 -0.5754 -0.5184  1.4732
  659MOL0     C88849   4.862   5.776  11.488  0.0366 -0.4960  0.8741
  659MOL0     C88850   4.979   5.858  11.525  0.1695  0.4655  0.1900
  659MOL0     C88851   4.987   6.012  11.495 -0.0082 -0.2246 -0.6703
  659MOL0     C88852   4.957   6.051  11.351  0.4035  0.2471  0.4391
  659MOL0     C88853   4.815   6.065  11.318  0.1718 -0.8746 -0.4458
  659MOL0     O88854   4.778   6.109  11.190 -0.3604  0.3123 -0.1796
  659MOL0     C88855   4.798   6.244  11.155 -0.6818  0.1663 -0.6814
  659MOL0     C88856   4.772   6.282  11.021 -0.5061  0.6094 -0.0971
  659MOL0     C88857   4.792   6.410  10.970  1.6595  0.1095 -0.4973
  659MOL0     C88858   4.780   6.436  10.823  0.5450  0.4736  0.9866
  659MOL0     C88859   4.821   6.517  11.065  0.3350  0.2650  0.7320
  659MOL0     C88860   4.825   6.655  11.020 -0.7082 -0.4433  0.7765
  659MOL0     O88861   4.781   6.702  10.906  0.4314 -0.1728  2.0169
  659MOL0     C88862   4.790   6.830  10.875 -0.1911  0.0892  0.4379
  659MOL0     C88863   4.918   6.895  10.878  0.7716 -0.9866 -0.1408
  659MOL0     C88864   4.927   7.034  10.836 -0.8838 -1.2597  0.1146
  659MOL0     C88865   4.818   7.094  10.775  0.0247 -0.1428 -0.6469
  659MOL0     O88866   4.844   7.213  10.704  0.3545 -0.3305 -0.4888
  659MOL0     C88867   4.753   7.243  10.604 -0.4726  0.1223  0.8216
  659MOL0     C88868   4.753   7.148  10.484  0.5417 -0.7894 -0.7992
  659MOL0     C88869   4.899   7.148  10.430 -0.3030  0.2162  0.9204
  659MOL0     C88870   4.903   7.134  10.277 -0.0031 -0.5015  0.3189
  659MOL0     C88871   5.044   7.122  10.210  0.3382  0.0408  0.4517
  659MOL0     C88872   5.126   7.253  10.241 -0.0075  0.5363 -0.1442
  659MOL0     C88873   5.172   7.315  10.113  0.6060 -0.2494 -0.3273
  659MOL0     C88874   5.280   7.220  10.053 -0.3777 -0.5890  0.2509
  659MOL0    Cl88875   5.326   7.268   9.896 -0.4654  0.0122 -0.2193
  659MOL0     C88876   4.693   7.024  10.773 -0.2238  1.7485 -0.5173
  659MOL0     C88877   4.680   6.888  10.810 -0.5459 -0.6930  0.1608
  659MOL0     O88878   4.841   6.724  11.121 -0.3230 -0.0508  0.0497
  659MOL0     C88879   4.860   6.481  11.203 -0.0770 -0.1296  0.0458
  659MOL0     C88880   4.852   6.348  11.241 -0.0566 -0.3557  0.0495
  659MOL0     N88881   4.745   5.767  11.558 -0.9244 -1.5588 -0.0893
  659MOL0     N88882   4.670   5.687  11.499 -0.1392  0.5178 -0.1184
  659MOL0     C88883   4.720   6.217  10.322  0.9949 -1.1139  0.3301
  659MOL0     C88884   4.719   6.254  10.187 -0.5130 -0.4812  0.4973
  659MOL0     C88885   4.616   6.393   9.765 -0.4822  0.0680 -0.4453
  659MOL0     C88886   4.695   6.306   9.690  0.2041 -0.4839  0.0777
  659MOL0     C88887   4.682   6.300   9.551 -0.1963 -0.0630  0.2406
  659MOL0     C88888   4.590   6.381   9.491  0.2157  0.1287 -0.4751
  659MOL0     O88889   4.592   6.377   9.352 -0.5850  0.1744 -0.0845
  659MOL0     C88890   4.493   6.437   9.267 -0.8928  0.7931  0.2868
  659MOL0     C88891   4.509   6.398   9.120 -0.4173 -0.1428  0.3448
  659MOL0     C88892   4.485   6.256   9.077 -0.9514 -0.7526  1.3067
  659MOL0     C88893   4.474   6.238   8.927 -0.2980 -0.1862 -0.5381
  659MOL0     C88894   4.370   6.319   8.864 -1.5033  0.1904 -0.1869
  659MOL0     C88895   4.294   6.375   8.798  0.4070  0.1293 -0.3365
  659MOL0     C88896   4.502   6.458   9.564  0.0379  0.1112  0.3246
  659MOL0     C88897   4.522   6.471   9.699  0.6151  0.7314  0.9505
  659MOL0     H88898   4.459   6.089  10.066 -1.5051  0.0635  0.2885
  659MOL0     H88899   4.452   6.013  10.308  0.9074 -2.0182 -0.0264
  659MOL0     H88900   4.484   5.911  10.483 -1.3904 -0.2859  0.2293
  659MOL0     H88901   4.670   5.889  10.486 -0.1671  0.5852  2.2891
  659MOL0     H88902   4.512   5.981  10.719  0.7342  1.1488 -1.5077
  659MOL0     H88903   4.507   5.818  10.666 -2.1572  0.3329 -0.8230
  659MOL0     H88904   4.770   5.828  10.665 -0.5684  0.3276  0.3698
  659MOL0     H88905   4.754   5.988  10.744  0.5218  0.5843  1.4436
  659MOL0     H88906   4.781   5.876  10.941 -2.1866 -4.2221  6.5944
  659MOL0     H88907   4.608   5.870  10.924 -0.6159 -1.5489 -0.6585
  659MOL0     H88908   4.611   5.652  10.851 -0.5858 -0.9459  1.2073
  659MOL0     H88909   4.787   5.652  10.807 -0.6027 -1.7814  1.7687
  659MOL0     H88910   4.722   5.522  11.025  0.8797 -0.8756  1.6045
  659MOL0     H88911   4.840   5.648  11.061 -0.1511  0.7590  0.0979
  659MOL0     H88912   4.642   5.778  11.168  1.1555 -0.3610  2.2447
  659MOL0     H88913   4.543   5.661  11.106 -0.6310  3.7249 -0.1256
  659MOL0     H88914   4.703   5.498  11.235  1.7814  1.1183  0.4556
  659MOL0     H88915   4.565   5.559  11.315 -0.8560  2.4949 -0.1123
  659MOL0     H88916   4.923   5.685  11.294 -3.0589 -1.0770 -0.5894
  659MOL0     H88917   4.976   5.841  11.633 -0.7581 -2.4302 -0.2143
  659MOL0     H88918   5.072   5.821  11.483 -1.0575 -1.1324 -1.2114
  659MOL0     H88919   5.084   6.056  11.521 -0.8795  0.4873  1.6389
  659MOL0     H88920   4.911   6.053  11.562 -2.8670 -1.5112 -2.9345
  659MOL0     H88921   5.008   5.987  11.279 -0.1940  2.0988 -1.7556
  659MOL0     H88922   5.002   6.151  11.350  0.8776  0.0382  0.4583
  659MOL0     H88923   4.765   6.118  11.399  0.5352 -2.1422  0.6424
  659MOL0     H88924   4.765   5.968  11.324 -2.1388  0.2467 -0.3545
  659MOL0     H88925   4.738   6.203  10.955  3.5463 -0.1103 -1.5603
  659MOL0     H88926   4.693   6.498  10.799  0.1461  0.6063  2.6489
  659MOL0     H88927   4.868   6.481  10.778 -0.1399 -0.8741 -1.9547
  659MOL0     H88928   4.774   6.342  10.766 -0.9652  1.2793 -0.2740
  659MOL0     H88929   5.001   6.844  10.926 -0.6605 -1.1473  2.3620
  659MOL0     H88930   5.021   7.086  10.847 -1.5952  0.1178 -0.1038
  659MOL0     H88931   4.650   7.251  10.641 -0.3097  0.3283  1.2436
  659MOL0     H88932   4.778   7.345  10.574 -0.1712 -0.2380 -0.1701
  659MOL0     H88933   4.730   7.045  10.514  4.4408 -1.4162  0.6881
  659MOL0     H88934   4.678   7.175  10.410  0.2229 -0.8057 -0.4867
  659MOL0     H88935   4.950   7.056  10.460 -1.2698 -0.4431  0.5669
  659MOL0     H88936   4.949   7.241  10.460  1.8956  0.2996 -2.4354
  659MOL0     H88937   4.845   7.048  10.242 -4.4715  3.3501 -3.1533
  659MOL0     H88938   4.857   7.219  10.226  0.9208 -0.0534  0.2133
  659MOL0     H88939   5.027   7.091  10.107  1.7842  0.6801  0.0057
  659MOL0     H88940   5.085   7.033  10.259  1.2831 -0.3469 -0.9945
  659MOL0     H88941   5.071   7.328  10.299 -2.4333 -0.6754 -0.7718
  659MOL0     H88942   5.210   7.214  10.299 -0.1048 -1.5299 -1.3128
  659MOL0     H88943   5.223   7.408  10.139 -1.5298  0.2542  2.6345
  659MOL0     H88944   5.081   7.335  10.057  0.6284  0.0523 -0.2560
  659MOL0     H88945   5.247   7.116  10.056 -0.2091 -0.6204  1.6530
  659MOL0     H88946   5.374   7.237  10.107 -0.0923  1.9921 -0.8932
  659MOL0     H88947   4.602   7.071  10.736 -3.3683 -1.2301  2.6085
  659MOL0     H88948   4.587   6.832  10.811  0.3620 -2.5808 -3.3529
  659MOL0     H88949   4.889   6.560  11.272  2.6857 -0.6506 -0.4170
  659MOL0     H88950   4.867   6.338  11.348  2.8180  0.9916 -0.1449
  659MOL0     H88951   4.793   6.251  10.395 -1.0324  0.2473  1.7978
  659MOL0     H88952   4.795   6.325  10.155 -0.4583 -1.0961 -0.8132
  659MOL0     H88953   4.782   6.258   9.736  0.4326  0.6845  0.9358
  659MOL0     H88954   4.741   6.231   9.490 -1.3277  0.1582 -1.1443
  659MOL0     H88955   4.391   6.414   9.302 -1.2850  1.2694 -0.5131
  659MOL0     H88956   4.495   6.546   9.273  0.3919  0.7684  0.6248
  659MOL0     H88957   4.613   6.423   9.097  0.1402 -0.5230  2.2347
  659MOL0     H88958   4.441   6.460   9.061  0.6443  2.1732  1.4311
  659MOL0     H88959   4.396   6.220   9.128 -0.1608 -3.2139  1.0825
  659MOL0     H88960   4.564   6.195   9.121 -1.1023 -2.3739 -0.5357
  659MOL0     H88961   4.456   6.134   8.897 -4.5558 -0.6512  2.6950
  659MOL0     H88962   4.574   6.266   8.893  1.5078 -2.2196  2.5643
  659MOL0     H88963   4.229   6.432   8.735 -2.2020 -1.1660  0.9985
  659MOL0     H88964   4.443   6.534   9.512  1.4319  1.0459  0.0434
  659MOL0     H88965   4.445   6.524   9.753  0.4915  0.8827  0.6243
  660MOL0     O88966   2.415   3.319   1.699  0.3176 -0.1392  0.5284
  660MOL0     C88967   2.415   3.420   1.628 -0.3331  0.3167 -0.1046
  660MOL0     O88968   2.389   3.553   1.676  0.2804 -0.0935  0.3821
  660MOL0     C88969   2.397   3.576   1.809  0.3960  0.1481  0.2801
  660MOL0     C88970   2.487   3.673   1.854  0.3394  0.5772  0.3231
  660MOL0     C88971   2.507   3.700   1.987 -0.7491  0.0913 -0.7548
  660MOL0     C88972   2.429   3.632   2.079 -0.4034  0.1885 -0.2836
  660MOL0     O88973   2.437   3.677   2.209  0.0723  0.4808 -0.4378
  660MOL0     C88974   2.410   3.584   2.318 -0.2633 -0.1134 -0.2284
  660MOL0     C88975   2.407   3.659   2.451 -0.4335 -0.2628  0.8538
  660MOL0     C88976   2.444   3.581   2.572 -0.8521 -1.4270  0.0705
  660MOL0     C88977   2.344   3.462   2.601 -0.1338  0.5108 -0.2836
  660MOL0     C88978   2.219   3.522   2.658  0.9585 -0.6039 -0.3803
  660MOL0     C88979   2.143   3.414   2.744 -0.4255  0.2422  0.3088
  660MOL0     C88980   2.004   3.465   2.780  0.5055 -0.9147  0.1249
  660MOL0     C88981   1.994   3.588   2.879  0.4188 -0.3563  0.4508
  660MOL0     N88982   2.056   3.557   3.005  0.4381 -0.6576  0.4599
  660MOL0     C88983   2.187   3.583   3.029 -0.0540  0.8133  0.1108
  660MOL0     C88984   2.215   3.534   3.154 -0.1791  1.0914 -0.0650
  660MOL0     C88985   2.349   3.542   3.227 -1.1558 -0.5117  0.9301
  660MOL0     C88986   2.377   3.657   3.328  0.5149 -1.1186  0.6352
  660MOL0     C88987   2.385   3.803   3.273 -0.2939 -0.1340  0.2699
  660MOL0     C88988   2.364   3.912   3.369 -0.0743 -0.3827  0.1732
  660MOL0     O88989   2.375   4.031   3.294  0.8087 -0.0403  0.3155
  660MOL0     C88990   2.387   4.152   3.353  0.0484 -0.2392  0.4258
  660MOL0     C88991   2.352   4.182   3.483  0.3053  0.4272  0.0020
  660MOL0     C88992   2.352   4.312   3.530 -0.5731 -0.3065  0.8435
  660MOL0     C88993   2.289   4.350   3.663 -0.8003  0.4301  0.1002
  660MOL0     C88994   2.399   4.412   3.439 -0.5423  0.2522 -0.1572
  660MOL0     C88995   2.394   4.554   3.478 -0.0585  0.5206 -1.1836
  660MOL0     O88996   2.275   4.612   3.452 -0.3511  0.2157 -0.0694
  660MOL0     C88997   2.270   4.746   3.480 -0.4532 -0.1190  0.1784
  660MOL0     C88998   2.329   4.856   3.418  0.2341  0.7370  0.5173
  660MOL0     C88999   2.299   4.985   3.459 -0.5791 -0.1173  0.0941
  660MOL0     C89000   2.193   5.007   3.548  0.1580 -0.6563  0.4474
  660MOL0     O89001   2.156   5.137   3.584  0.5865  0.3650  0.2125
  660MOL0     C89002   2.261   5.234   3.641 -0.2605  0.2691 -0.5050
  660MOL0     C89003   2.212   5.381   3.639  0.1774  0.0717 -0.1800
  660MOL0     C89004   2.191   5.423   3.485  0.3155 -0.4719  0.0388
  660MOL0     C89005   2.113   5.558   3.478 -0.3187  0.2414  0.8697
  660MOL0     C89006   2.082   5.604   3.334  0.1136  0.5151 -0.2408
  660MOL0     C89007   2.209   5.646   3.268 -0.1096  0.3323  0.1271
  660MOL0     C89008   2.178   5.698   3.136 -0.8137 -0.1808  0.6725
  660MOL0     C89009   2.288   5.773   3.059  0.0716  1.0367  0.5569
  660MOL0    Cl89010   2.421   5.673   3.008 -0.1531 -0.2475  0.1034
  660MOL0     C89011   2.125   4.903   3.609 -1.1079 -0.5349 -0.4061
  660MOL0     C89012   2.178   4.770   3.582  0.1880  0.7058  0.6784
  660MOL0     O89013   2.492   4.607   3.533  0.5614  0.1444  0.8592
  660MOL0     C89014   2.436   4.385   3.308  0.6772  0.5624  0.1813
  660MOL0     C89015   2.425   4.254   3.260 -0.3508  0.3718 -1.1982
  660MOL0     N89016   2.096   3.462   3.187 -0.0753 -0.4865  0.1392
  660MOL0     N89017   2.005   3.473   3.100 -0.7672  0.4076 -0.4864
  660MOL0     C89018   2.353   3.523   2.041 -1.1425  0.1723 -0.4076
  660MOL0     C89019   2.326   3.496   1.904 -0.1367  0.4318 -0.8134
  660MOL0     C89020   2.432   3.409   1.481 -1.0536 -0.2274 -0.2231
  660MOL0     C89021   2.470   3.284   1.422 -0.4427  0.4635 -0.2018
  660MOL0     C89022   2.483   3.277   1.285 -0.4726  0.4703 -0.7064
  660MOL0     C89023   2.472   3.390   1.200  0.1518  0.1905 -0.2746
  660MOL0     O89024   2.490   3.369   1.066  0.2857  0.0428  0.2072
  660MOL0     C89025   2.473   3.466   0.958 -0.9474 -0.1054  0.7131
  660MOL0     C89026   2.467   3.395   0.825 -0.6788  0.5266 -0.0584
  660MOL0     C89027   2.373   3.454   0.721  0.8935 -0.0515 -0.1851
  660MOL0     C89028   2.451   3.560   0.644  0.6125  1.0497  1.1881
  660MOL0     C89029   2.359   3.641   0.553 -0.3940  0.5786 -0.1068
  660MOL0     C89030   2.295   3.711   0.480 -0.6356 -0.5951  0.9858
  660MOL0     C89031   2.429   3.509   1.259  0.2921 -0.4657 -0.7409
  660MOL0     C89032   2.417   3.520   1.399 -0.5281  0.1616 -0.6519
  660MOL0     H89033   2.542   3.725   1.776 -1.2518  4.2822  1.4268
  660MOL0     H89034   2.578   3.773   2.024 -3.0712  1.5721  1.0929
  660MOL0     H89035   2.305   3.563   2.297 -0.3268  3.3485 -5.1079
  660MOL0     H89036   2.479   3.499   2.311  3.4747  2.7027 -0.9365
  660MOL0     H89037   2.476   3.742   2.433  0.8076 -1.4176  0.0833
  660MOL0     H89038   2.315   3.716   2.464 -0.5683  0.9323 -3.7050
  660MOL0     H89039   2.549   3.551   2.566 -0.5399 -0.6321  1.2440
  660MOL0     H89040   2.438   3.643   2.662  2.4386  1.6829 -1.5650
  660MOL0     H89041   2.331   3.397   2.515  0.7049 -0.5286  0.3477
  660MOL0     H89042   2.373   3.394   2.682 -2.2231  0.2095  0.2644
  660MOL0     H89043   2.237   3.618   2.707 -1.1209  0.6505 -1.9279
  660MOL0     H89044   2.152   3.547   2.575 -0.0369  1.2478  0.9061
  660MOL0     H89045   2.145   3.310   2.709 -0.6261  0.2233  0.3514
  660MOL0     H89046   2.205   3.397   2.833  0.0109 -2.6363 -0.4408
  660MOL0     H89047   1.949   3.499   2.691  0.2570 -0.7304  0.3499
  660MOL0     H89048   1.946   3.388   2.832 -2.8137  1.1438 -0.2428
  660MOL0     H89049   1.888   3.612   2.887  0.1160 -0.4969 -2.2067
  660MOL0     H89050   2.028   3.685   2.843 -2.0525  0.4779  0.1794
  660MOL0     H89051   2.261   3.635   2.970  0.3978 -2.1891 -2.2493
  660MOL0     H89052   2.365   3.445   3.275  0.1816  0.2789  2.1396
  660MOL0     H89053   2.426   3.560   3.152 -2.4133  2.1423  0.1378
  660MOL0     H89054   2.475   3.634   3.372  1.4678 -1.2316 -1.4107
  660MOL0     H89055   2.305   3.642   3.408 -1.2847 -1.9091 -1.0420
  660MOL0     H89056   2.310   3.819   3.194  1.8110  0.7734 -1.6642
  660MOL0     H89057   2.484   3.814   3.228  0.7640  0.5452  2.6044
  660MOL0     H89058   2.441   3.917   3.445  0.6831  1.7685 -0.6573
  660MOL0     H89059   2.265   3.894   3.412  0.7781  1.7563  3.3351
  660MOL0     H89060   2.308   4.117   3.559 -2.2032 -0.0050 -1.6897
  660MOL0     H89061   2.276   4.265   3.731 -2.6332  1.1510  0.7064
  660MOL0     H89062   2.357   4.420   3.712 -0.3265 -0.7255  1.1396
  660MOL0     H89063   2.194   4.404   3.654 -0.9297  0.6427  2.1780
  660MOL0     H89064   2.384   4.853   3.324  0.4885  0.9806  0.6596
  660MOL0     H89065   2.356   5.066   3.415  0.1517 -0.5324  0.2528
  660MOL0     H89066   2.291   5.202   3.742 -3.7773 -1.9269  0.0195
  660MOL0     H89067   2.349   5.235   3.577 -0.4763  3.4844 -0.8921
  660MOL0     H89068   2.114   5.393   3.687 -0.5407 -1.8000 -1.0967
  660MOL0     H89069   2.282   5.453   3.682 -2.1746  2.0100  0.6059
  660MOL0     H89070   2.134   5.345   3.433 -0.8248 -1.3314  2.4534
  660MOL0     H89071   2.284   5.430   3.426 -0.7383  2.4094 -1.4850
  660MOL0     H89072   2.016   5.548   3.529 -1.1022  2.7283  0.0292
  660MOL0     H89073   2.168   5.634   3.535  0.1935 -0.3243  1.1374
  660MOL0     H89074   2.013   5.689   3.331  0.5226  0.8880  0.5165
  660MOL0     H89075   2.033   5.519   3.287  4.5255 -2.7173  0.3958
  660MOL0     H89076   2.252   5.724   3.331  1.1422  0.0998 -0.4135
  660MOL0     H89077   2.274   5.558   3.268 -1.2968 -0.5745 -0.6093
  660MOL0     H89078   2.106   5.778   3.154  0.5873  1.8559 -2.1332
  660MOL0     H89079   2.137   5.617   3.075  0.1949  0.0756 -0.3709
  660MOL0     H89080   2.329   5.854   3.120  2.5446 -2.1668  3.5562
  660MOL0     H89081   2.251   5.812   2.964  0.0855  0.0590  0.1372
  660MOL0     H89082   2.046   4.931   3.678 -3.1515  2.3006 -3.5444
  660MOL0     H89083   2.137   4.682   3.631 -0.5355  1.1062  0.8033
  660MOL0     H89084   2.447   4.472   3.243 -1.0152 -0.2858 -1.3418
  660MOL0     H89085   2.464   4.229   3.161  3.0162 -0.4305  0.1849
  660MOL0     H89086   2.288   3.463   2.105 -0.9358  0.4471  0.0631
  660MOL0     H89087   2.258   3.415   1.878  1.4660 -1.5098  0.6934
  660MOL0     H89088   2.475   3.192   1.479  0.8952  0.1311 -0.8233
  660MOL0     H89089   2.501   3.176   1.250  0.2958 -0.1098  1.1919
  660MOL0     H89090   2.374   3.511   0.954 -0.8642  0.0264 -2.1455
  660MOL0     H89091   2.554   3.539   0.969 -0.4008 -0.6953  0.6703
  660MOL0     H89092   2.429   3.293   0.842 -3.2977  1.2118 -1.3051
  660MOL0     H89093   2.570   3.396   0.789 -0.4073  0.0203  0.6763
  660MOL0     H89094   2.290   3.508   0.768  2.1320  0.9003  0.9896
  660MOL0     H89095   2.329   3.378   0.656  2.3824 -2.1036  1.0789
  660MOL0     H89096   2.525   3.512   0.580  0.0478  1.6762  0.0327
  660MOL0     H89097   2.498   3.625   0.719 -1.6568  2.1140  1.7725
  660MOL0     H89098   2.228   3.764   0.415  1.5343  0.6202 -0.3642
  660MOL0     H89099   2.410   3.596   1.197  1.4552  0.6850  0.4414
  660MOL0     H89100   2.392   3.619   1.436 -2.7508 -1.2026  1.7387
  661MOL0     O89101   1.415   4.122   0.034  1.1376 -0.1016  0.0969
  661MOL0     C89102   1.363   4.011   0.022  0.6771  0.4895 -0.5895
  661MOL0     O89103   1.398   3.892   0.095  0.4050  0.3999 -0.1026
  661MOL0     C89104   1.467   3.901   0.208  0.0972 -0.0387 -0.4259
  661MOL0     C89105   1.549   3.802   0.232 -0.2786  0.4516  0.2199
  661MOL0     C89106   1.636   3.791   0.345 -0.3317  0.4340 -0.0962
  661MOL0     C89107   1.621   3.890   0.448 -0.1064 -0.0922  0.4268
  661MOL0     O89108   1.694   3.894   0.564 -0.5051 -0.2362  0.1951
  661MOL0     C89109   1.671   3.787   0.659  0.4796  0.5064 -0.0252
  661MOL0     C89110   1.748   3.790   0.795 -0.5696 -1.0045 -0.6729
  661MOL0     C89111   1.900   3.808   0.764  0.2799 -0.5984  0.2116
  661MOL0     C89112   1.990   3.804   0.891 -0.0636  0.7038 -0.6122
  661MOL0     C89113   2.135   3.811   0.851 -0.3442 -0.2141 -0.7851
  661MOL0     C89114   2.237   3.852   0.957  0.6240  0.0683  0.7248
  661MOL0     C89115   2.372   3.834   0.911  0.7505  0.8167  0.5249
  661MOL0     C89116   2.478   3.921   0.981 -0.2869  0.5540 -0.2118
  661MOL0     N89117   2.506   3.895   1.122 -0.2938  0.5137 -0.6587
  661MOL0     C89118   2.612   3.818   1.167 -0.3024 -0.5551 -1.0650
  661MOL0     C89119   2.594   3.825   1.300  0.3887  1.0391 -0.1669
  661MOL0     C89120   2.680   3.788   1.419 -0.6906 -0.0804 -0.9394
  661MOL0     C89121   2.728   3.894   1.522  0.2080 -1.0734  1.0052
  661MOL0     C89122   2.786   3.824   1.644 -0.9966 -0.0846 -0.1186
  661MOL0     C89123   2.822   3.920   1.751  0.5590 -0.4476 -0.0838
  661MOL0     O89124   2.702   3.974   1.815 -0.3809  1.1257 -0.3718
  661MOL0     C89125   2.731   4.073   1.913  0.8323  0.9276  0.3366
  661MOL0     C89126   2.845   4.149   1.927 -0.3613  0.0504  0.0916
  661MOL0     C89127   2.869   4.220   2.045  0.1353 -0.6513  0.2168
  661MOL0     C89128   3.005   4.267   2.072  0.3169 -0.1196 -0.0710
  661MOL0     C89129   2.760   4.241   2.140 -0.8992 -0.4921  0.5755
  661MOL0     C89130   2.755   4.347   2.238 -0.4512  0.2111 -0.1356
  661MOL0     O89131   2.853   4.448   2.241 -0.3328  0.0528  0.4083
  661MOL0     C89132   2.844   4.533   2.345  0.1142  0.0097  0.4909
  661MOL0     C89133   2.789   4.661   2.322 -1.0444 -0.3119  0.2980
  661MOL0     C89134   2.791   4.751   2.426 -0.3436 -0.0344 -0.1922
  661MOL0     C89135   2.834   4.717   2.556  0.5608  0.0847  0.3446
  661MOL0     O89136   2.846   4.812   2.661  0.3461  0.3624  0.2941
  661MOL0     C89137   2.797   4.945   2.627  0.5864  0.3897 -0.0542
  661MOL0     C89138   2.833   5.042   2.733 -0.2335  0.1194 -0.1402
  661MOL0     C89139   2.787   5.182   2.683 -0.1315  0.1169  0.4199
  661MOL0     C89140   2.793   5.291   2.786  0.1041 -0.1474 -0.8909
  661MOL0     C89141   2.930   5.342   2.817 -0.0587 -0.0700  0.5148
  661MOL0     C89142   2.939   5.439   2.936 -0.2520  0.0638  0.5510
  661MOL0     C89143   3.084   5.461   2.980  0.2389  0.6117  0.4321
  661MOL0     C89144   3.187   5.452   2.872 -1.2949 -0.3654  0.0652
  661MOL0    Cl89145   3.204   5.592   2.764  0.2863  0.3079 -0.7364
  661MOL0     C89146   2.883   4.592   2.572  0.3724  0.7204 -0.4617
  661MOL0     C89147   2.885   4.501   2.472 -0.0997 -0.0825 -0.1797
  661MOL0     O89148   2.665   4.340   2.319  0.3184  0.1191  0.0661
  661MOL0     C89149   2.639   4.177   2.104 -0.9534  0.2436  0.6141
  661MOL0     C89150   2.625   4.081   2.004 -0.2674 -0.3482  0.2435
  661MOL0     N89151   2.468   3.882   1.327 -0.4410  0.4377 -0.2149
  661MOL0     N89152   2.413   3.921   1.217 -0.1428  0.8583 -0.4930
  661MOL0     C89153   1.530   3.990   0.430  1.0834 -0.4094  0.5078
  661MOL0     C89154   1.463   4.005   0.303 -1.0283 -0.8426 -0.0209
  661MOL0     C89155   1.275   3.985  -0.094 -0.4453 -1.3349  0.3382
  661MOL0     C89156   1.242   4.092  -0.175 -0.0653 -0.5068  0.3216
  661MOL0     C89157   1.144   4.071  -0.282 -1.3257 -0.2380  0.6708
  661MOL0     C89158   1.083   3.947  -0.299  0.5500 -0.4020 -0.2313
  661MOL0     O89159   0.990   3.937  -0.398  0.4674 -0.3155 -0.7787
  661MOL0     C89160   0.928   3.823  -0.437  0.6115  1.5908  0.6020
  661MOL0     C89161   0.797   3.873  -0.495 -0.4625 -0.0238  0.0897
  661MOL0     C89162   0.769   3.817  -0.633  0.5064 -0.4832  0.5762
  661MOL0     C89163   0.686   3.688  -0.627  0.1111 -0.0131  0.3158
  661MOL0     C89164   0.544   3.714  -0.621 -0.2802 -0.2770  0.3172
  661MOL0     C89165   0.423   3.730  -0.610 -0.1809 -0.7160  0.7027
  661MOL0     C89166   1.124   3.841  -0.220 -0.0631 -0.0644  0.4905
  661MOL0     C89167   1.218   3.864  -0.119 -0.4775  0.2729  0.3902
  661MOL0     H89168   1.557   3.724   0.157 -0.6564  0.9938 -0.3908
  661MOL0     H89169   1.718   3.720   0.351  0.6601  1.4531 -1.1605
  661MOL0     H89170   1.567   3.798   0.691  1.1028 -0.6814  2.6804
  661MOL0     H89171   1.685   3.688   0.614 -1.7797 -0.1198  0.5291
  661MOL0     H89172   1.718   3.877   0.853 -0.2633 -0.9369 -0.6161
  661MOL0     H89173   1.731   3.705   0.862 -0.1676  1.5271  2.8715
  661MOL0     H89174   1.933   3.723   0.703  0.7169 -0.5345  0.3516
  661MOL0     H89175   1.916   3.890   0.695 -1.4220 -2.0381 -2.0497
  661MOL0     H89176   1.974   3.881   0.968 -0.8505 -2.2890  2.4418
  661MOL0     H89177   1.972   3.711   0.945  1.4890  1.8848  2.1743
  661MOL0     H89178   2.169   3.711   0.822  2.9473  0.6994 -0.4669
  661MOL0     H89179   2.150   3.869   0.759  0.3156  2.4286  0.8870
  661MOL0     H89180   2.217   3.958   0.975 -1.8308  0.1287 -1.6128
  661MOL0     H89181   2.223   3.800   1.052  1.2224  1.5855  1.6835
  661MOL0     H89182   2.394   3.727   0.912 -1.8436  0.1687 -1.2925
  661MOL0     H89183   2.373   3.848   0.803 -0.6744  1.3909  0.5684
  661MOL0     H89184   2.441   4.024   0.983  0.9039  0.9896  0.6197
  661MOL0     H89185   2.571   3.928   0.925 -1.4558 -0.2092 -2.3468
  661MOL0     H89186   2.690   3.758   1.122 -1.3571 -2.5218 -0.4124
  661MOL0     H89187   2.613   3.728   1.482  0.5156 -0.7453 -0.2571
  661MOL0     H89188   2.764   3.724   1.391 -0.1304  0.1520  0.1555
  661MOL0     H89189   2.640   3.947   1.559 -0.2821 -0.4867 -0.9140
  661MOL0     H89190   2.795   3.959   1.465 -1.5769 -0.8466 -0.9245
  661MOL0     H89191   2.883   3.790   1.608 -0.2073  2.9669 -1.2313
  661MOL0     H89192   2.721   3.744   1.681  1.7350 -1.5960  1.8073
  661MOL0     H89193   2.885   3.990   1.695 -1.1180 -1.5429 -3.5966
  661MOL0     H89194   2.875   3.872   1.834 -1.3237 -0.8146  0.9600
  661MOL0     H89195   2.921   4.121   1.855 -2.7482 -2.2377 -1.7286
  661MOL0     H89196   3.032   4.213   2.163  1.4669 -0.9301 -0.8669
  661MOL0     H89197   3.083   4.232   2.003  3.0963 -2.4506  3.8012
  661MOL0     H89198   2.998   4.376   2.079 -2.5714 -0.2750  0.3924
  661MOL0     H89199   2.744   4.686   2.226  0.6256 -0.9748 -0.6965
  661MOL0     H89200   2.746   4.846   2.400 -0.9344 -0.4681 -0.8220
  661MOL0     H89201   2.839   4.991   2.538  0.1764 -0.5738 -0.7662
  661MOL0     H89202   2.688   4.941   2.616  0.7113 -5.1037 -2.5811
  661MOL0     H89203   2.788   5.000   2.823  2.2551  0.4205  1.3566
  661MOL0     H89204   2.940   5.034   2.757 -0.7174 -1.7496  1.6527
  661MOL0     H89205   2.684   5.167   2.649  1.0378 -3.8591 -2.0162
  661MOL0     H89206   2.864   5.213   2.612 -1.4158  1.3665 -0.4798
  661MOL0     H89207   2.720   5.368   2.759  1.5257  0.9134 -1.9000
  661MOL0     H89208   2.753   5.248   2.878 -1.7157  1.8144 -0.6803
  661MOL0     H89209   2.969   5.374   2.720 -0.4142  0.2618  0.4768
  661MOL0     H89210   3.000   5.262   2.842  1.4817  0.1124 -2.7318
  661MOL0     H89211   2.894   5.534   2.906 -0.2929  0.9194  3.0898
  661MOL0     H89212   2.879   5.406   3.021 -4.6498 -3.2874 -3.2848
  661MOL0     H89213   3.106   5.382   3.053  1.5836  0.7366  0.1936
  661MOL0     H89214   3.104   5.546   3.046  2.0453  1.2111 -0.8243
  661MOL0     H89215   3.171   5.365   2.808 -1.1773  0.2865 -0.8683
  661MOL0     H89216   3.284   5.453   2.922 -2.1535  2.7406  1.9101
  661MOL0     H89217   2.905   4.564   2.674  1.5282  0.8674 -0.6489
  661MOL0     H89218   2.914   4.400   2.499  0.3599 -0.1503 -0.9021
  661MOL0     H89219   2.556   4.187   2.173 -0.8399 -0.8485  0.9182
  661MOL0     H89220   2.531   4.029   1.997 -0.2034 -0.7897  2.1148
  661MOL0     H89221   1.513   4.068   0.503  0.3288  0.5310 -0.6217
  661MOL0     H89222   1.405   4.096   0.290 -0.0065  0.4852  3.5802
  661MOL0     H89223   1.277   4.193  -0.160 -3.4323  0.5951  1.6931
  661MOL0     H89224   1.127   4.159  -0.343 -0.3541  0.1649  0.9637
  661MOL0     H89225   0.986   3.773  -0.515 -1.8888 -0.3260 -0.1610
  661MOL0     H89226   0.904   3.750  -0.359  1.5976 -1.3734 -1.6659
  661MOL0     H89227   0.790   3.983  -0.496  0.9290  0.0991 -2.0833
  661MOL0     H89228   0.719   3.843  -0.424 -2.0593 -2.0715 -2.3550
  661MOL0     H89229   0.864   3.792  -0.681  0.8278  0.3067  0.7701
  661MOL0     H89230   0.717   3.895  -0.690 -1.2290 -0.2451  2.3595
  661MOL0     H89231   0.715   3.626  -0.542 -2.4810 -1.7153  0.0799
  661MOL0     H89232   0.705   3.628  -0.716  1.3391  1.5588 -0.5419
  661MOL0     H89233   0.322   3.763  -0.593 -0.0054  0.0456  0.3003
  661MOL0     H89234   1.082   3.741  -0.225 -1.7980  0.6175  0.6258
  661MOL0     H89235   1.251   3.781  -0.058 -0.0803  1.5971  2.0474
  662MOL0     O89236   4.901   4.090   3.588  0.2859 -0.4395  1.2061
  662MOL0     C89237   4.902   4.016   3.489  0.4233 -0.6105 -0.5424
  662MOL0     O89238   4.870   4.058   3.354  0.1108  0.6543  0.3295
  662MOL0     C89239   4.832   4.189   3.317  0.3751  0.5356  0.1082
  662MOL0     C89240   4.855   4.309   3.387  0.5142  0.4850  0.1553
  662MOL0     C89241   4.821   4.430   3.317  0.0696 -0.7420  0.4326
  662MOL0     C89242   4.750   4.430   3.196 -0.6017  0.4244  0.7022
  662MOL0     O89243   4.697   4.559   3.160 -0.0844  0.0319  0.4187
  662MOL0     C89244   4.663   4.572   3.018 -0.8662 -0.0267  0.7594
  662MOL0     C89245   4.682   4.704   2.951 -0.7541  0.6553  0.0693
  662MOL0     C89246   4.587   4.819   2.968  0.5185  0.1928 -1.0903
  662MOL0     C89247   4.436   4.788   2.937 -0.5779  0.8269 -0.0558
  662MOL0     C89248   4.334   4.888   2.997 -0.0157  0.1190  0.2677
  662MOL0     C89249   4.318   4.873   3.146 -0.7404  0.0434  0.2566
  662MOL0     C89250   4.176   4.917   3.193  0.2204  0.3722 -0.4501
  662MOL0     C89251   4.166   4.911   3.356 -0.3520 -0.2883 -0.9656
  662MOL0     N89252   4.275   4.981   3.433 -0.1778  0.1530 -0.1573
  662MOL0     C89253   4.400   4.931   3.464  0.8764  0.3570 -0.6528
  662MOL0     C89254   4.462   5.021   3.544 -0.0591 -0.7118  0.6372
  662MOL0     C89255   4.610   5.017   3.590  0.4935 -0.2225 -0.4662
  662MOL0     C89256   4.698   4.941   3.499 -0.0566 -0.1381  0.1410
  662MOL0     C89257   4.723   5.011   3.360 -0.1516 -0.0457  0.5559
  662MOL0     C89258   4.801   4.920   3.261  0.2209  0.5773 -0.0549
  662MOL0     O89259   4.928   4.896   3.316  0.5156 -0.4102  0.4972
  662MOL0     C89260   5.010   4.791   3.278 -0.0033  0.5479 -0.7390
  662MOL0     C89261   5.017   4.740   3.145  0.1608  0.2013 -0.1888
  662MOL0     C89262   5.099   4.632   3.110 -0.6136  0.0011 -0.3097
  662MOL0     C89263   5.113   4.590   2.970 -0.4532  0.2771 -1.1189
  662MOL0     C89264   5.173   4.565   3.213 -0.1119  0.9033 -0.7917
  662MOL0     C89265   5.257   4.449   3.181 -0.6874 -0.6284  0.5151
  662MOL0     O89266   5.378   4.439   3.241 -0.1501 -0.2991  0.3402
  662MOL0     C89267   5.457   4.321   3.221 -0.2439  0.6950 -1.0111
  662MOL0     C89268   5.523   4.259   3.327  0.0642  0.1023  0.1790
  662MOL0     C89269   5.589   4.140   3.313 -0.1175 -0.6770  0.4093
  662MOL0     C89270   5.611   4.082   3.190  0.5094 -0.6415 -0.0375
  662MOL0     O89271   5.670   3.954   3.181  0.4547 -0.2988 -0.1489
  662MOL0     C89272   5.648   3.883   3.060  0.6726 -0.0035 -0.5142
  662MOL0     C89273   5.680   3.737   3.070 -0.0310 -0.1144 -0.0660
  662MOL0     C89274   5.710   3.674   2.932  0.2649  0.1458  0.2591
  662MOL0     C89275   5.731   3.527   2.965  0.8029 -0.8743  0.0947
  662MOL0     C89276   5.735   3.445   2.837 -0.0881  0.6515  1.0238
  662MOL0     C89277   5.749   3.292   2.847  0.8438  0.1334  0.3714
  662MOL0     C89278   5.745   3.222   2.713 -0.1377 -0.1564  0.5562
  662MOL0     C89279   5.799   3.076   2.701 -0.5996 -0.6824 -0.5742
  662MOL0    Cl89280   5.965   3.084   2.769 -0.0061  0.0553  0.0024
  662MOL0     C89281   5.564   4.154   3.076  0.3081  0.0956  0.9128
  662MOL0     C89282   5.480   4.263   3.096  0.9963  0.1554  0.4649
  662MOL0     O89283   5.206   4.363   3.111 -0.6824  0.6602 -0.2481
  662MOL0     C89284   5.167   4.613   3.344  0.6036  0.1049  0.6820
  662MOL0     C89285   5.080   4.722   3.370 -0.3699  0.6375 -0.2059
  662MOL0     N89286   4.375   5.121   3.570 -0.1390  0.3171  0.3210
  662MOL0     N89287   4.266   5.102   3.503  0.4743  0.0771  0.1182
  662MOL0     C89288   4.735   4.316   3.125  0.0947 -0.2224  0.9400
  662MOL0     C89289   4.761   4.195   3.192  0.1075  1.4583 -0.7556
  662MOL0     C89290   4.932   3.872   3.509 -0.8597  0.4276 -0.2149
  662MOL0     C89291   4.965   3.786   3.401  0.2426  0.7860 -0.5717
  662MOL0     C89292   4.990   3.653   3.415  0.1543 -0.0760 -0.2611
  662MOL0     C89293   4.983   3.596   3.543 -0.0767  1.1392 -0.7155
  662MOL0     O89294   5.017   3.463   3.571  0.0658 -0.2640 -0.0733
  662MOL0     C89295   5.042   3.371   3.455 -0.1280 -0.4342  0.2347
  662MOL0     C89296   4.906   3.345   3.374 -0.6310 -0.2198 -0.1847
  662MOL0     C89297   4.917   3.245   3.258  0.3668 -0.2409  0.9038
  662MOL0     C89298   4.975   3.296   3.121  0.3410 -0.3898  0.5423
  662MOL0     C89299   5.088   3.388   3.125  0.2611  0.6659  0.0355
  662MOL0     C89300   5.183   3.454   3.102 -0.1009 -1.7230 -0.0082
  662MOL0     C89301   4.931   3.671   3.655  0.6046  0.4269  0.2033
  662MOL0     C89302   4.914   3.814   3.635 -0.4897  0.0317 -0.4541
  662MOL0     H89303   4.905   4.313   3.484  1.1411 -1.9754  0.0084
  662MOL0     H89304   4.831   4.533   3.350 -2.8181  0.3326 -1.6763
  662MOL0     H89305   4.731   4.504   2.966  0.2210  0.3192  1.6778
  662MOL0     H89306   4.558   4.544   3.000 -0.9212  0.7396 -0.1359
  662MOL0     H89307   4.781   4.738   2.982 -1.2671  1.7649  0.5193
  662MOL0     H89308   4.690   4.690   2.842  0.3933  0.6628  0.1365
  662MOL0     H89309   4.587   4.851   3.072 -1.7256  2.2744 -1.6362
  662MOL0     H89310   4.620   4.900   2.902 -0.9114  0.3938 -1.5999
  662MOL0     H89311   4.429   4.781   2.828  0.5540 -0.1366 -0.0821
  662MOL0     H89312   4.418   4.693   2.988 -2.1735  1.2526  0.2449
  662MOL0     H89313   4.355   4.992   2.969  3.0606  0.4652  3.1531
  662MOL0     H89314   4.237   4.858   2.956 -0.0733 -0.1481  0.5989
  662MOL0     H89315   4.351   4.774   3.180  5.4174 -0.0512 -4.1841
  662MOL0     H89316   4.395   4.940   3.185 -0.8257 -1.0181  2.3891
  662MOL0     H89317   4.154   5.020   3.162  1.6437  0.0977 -2.5962
  662MOL0     H89318   4.108   4.846   3.145  2.8249 -0.7384 -2.7301
  662MOL0     H89319   4.173   4.811   3.401 -0.4647  1.6550  3.9054
  662MOL0     H89320   4.070   4.955   3.383 -0.2247 -2.0742  3.1319
  662MOL0     H89321   4.451   4.847   3.417  1.1086  1.3463 -2.2456
  662MOL0     H89322   4.634   5.124   3.587  0.6468 -0.2477 -0.1263
  662MOL0     H89323   4.617   4.985   3.694 -2.0054 -0.8823 -0.4515
  662MOL0     H89324   4.661   4.838   3.498 -4.8816  1.2495  2.5225
  662MOL0     H89325   4.793   4.946   3.553  0.5167  0.4642 -0.9129
  662MOL0     H89326   4.783   5.102   3.370 -0.9738  0.3352  2.3277
  662MOL0     H89327   4.626   5.031   3.312 -0.6358 -0.8533  1.1833
  662MOL0     H89328   4.811   4.962   3.161 -0.4178 -3.5679 -2.0830
  662MOL0     H89329   4.754   4.824   3.238  3.2709 -0.8850 -0.6552
  662MOL0     H89330   4.967   4.787   3.060  0.9456  0.0830 -0.7189
  662MOL0     H89331   5.208   4.564   2.923 -0.5541  0.8381 -1.6570
  662MOL0     H89332   5.051   4.501   2.965 -1.0985  0.7539 -1.9013
  662MOL0     H89333   5.083   4.658   2.889  0.7358 -1.5521 -3.2108
  662MOL0     H89334   5.503   4.291   3.429  1.1518  0.5112  0.2805
  662MOL0     H89335   5.618   4.084   3.401 -1.1832 -0.8677  0.6639
  662MOL0     H89336   5.540   3.890   3.044  0.3446 -2.0582  0.5373
  662MOL0     H89337   5.706   3.928   2.980  0.7743 -0.8955 -0.9436
  662MOL0     H89338   5.785   3.728   3.101  0.8465 -3.6485 -3.2577
  662MOL0     H89339   5.613   3.676   3.130 -0.4469  0.8352  0.4544
  662MOL0     H89340   5.802   3.712   2.888  1.3830 -0.6924  1.7364
  662MOL0     H89341   5.625   3.697   2.868  0.9759  0.9587 -0.4072
  662MOL0     H89342   5.823   3.514   3.022 -0.8295  2.0784  3.8701
  662MOL0     H89343   5.643   3.498   3.023 -0.4718  0.8760 -0.8608
  662MOL0     H89344   5.820   3.487   2.782 -0.9284  0.6439 -0.3458
  662MOL0     H89345   5.646   3.467   2.776  1.1717 -2.3850 -2.2762
  662MOL0     H89346   5.846   3.272   2.892  1.7635  3.6634  0.2133
  662MOL0     H89347   5.667   3.256   2.911  0.1714  3.5079  1.5947
  662MOL0     H89348   5.804   3.284   2.645 -0.8427 -1.3685 -1.2618
  662MOL0     H89349   5.646   3.230   2.665  1.0383  1.0503 -1.8832
  662MOL0     H89350   5.798   3.035   2.600 -1.0624 -1.8455 -0.1156
  662MOL0     H89351   5.732   3.017   2.764 -1.2425 -0.1497 -0.7486
  662MOL0     H89352   5.554   4.100   2.983  3.8000 -2.4803  1.8329
  662MOL0     H89353   5.448   4.311   3.004  3.5252  0.7930 -0.1824
  662MOL0     H89354   5.224   4.564   3.423 -1.1770  0.4893  2.2743
  662MOL0     H89355   5.080   4.768   3.469  3.7161  1.1954 -0.2844
  662MOL0     H89356   4.692   4.306   3.025 -0.9977 -0.3235  1.4086
  662MOL0     H89357   4.739   4.106   3.135  0.3308  0.4164  0.7342
  662MOL0     H89358   4.970   3.832   3.302 -0.2143 -0.8522 -1.3798
  662MOL0     H89359   5.035   3.608   3.327  0.8602  1.4067 -0.7024
  662MOL0     H89360   5.111   3.430   3.395 -0.7939  0.3105  0.1858
  662MOL0     H89361   5.081   3.281   3.502 -3.6272 -1.9919  0.5196
  662MOL0     H89362   4.853   3.437   3.347  0.7791  1.0655  1.1509
  662MOL0     H89363   4.839   3.292   3.442 -1.2319  0.7429  0.0012
  662MOL0     H89364   4.814   3.214   3.243  0.6760 -1.2971  0.8658
  662MOL0     H89365   4.988   3.167   3.289  0.2937  0.3423  2.6296
  662MOL0     H89366   4.889   3.346   3.075  1.4193  0.4764 -0.5874
  662MOL0     H89367   5.008   3.218   3.051  2.5515  0.0695  1.0034
  662MOL0     H89368   5.252   3.532   3.076 -1.3370  0.1749  2.0879
  662MOL0     H89369   4.914   3.614   3.746  2.7133 -0.2033  0.2497
  662MOL0     H89370   4.874   3.869   3.720  0.7536 -0.1539  0.2821
  663MOL0     O89371   1.237   0.783   6.175  0.8309 -0.1935  0.1576
  663MOL0     C89372   1.257   0.662   6.152  0.4559  0.4840 -0.5355
  663MOL0     O89373   1.178   0.584   6.061 -0.0870 -0.4020 -0.6164
  663MOL0     C89374   1.113   0.647   5.955 -0.3269  0.1889 -0.0327
  663MOL0     C89375   1.147   0.773   5.913 -0.3100  0.2336  0.0147
  663MOL0     C89376   1.087   0.830   5.810 -0.4766 -0.2990  0.2683
  663MOL0     C89377   0.986   0.768   5.736  0.0443 -0.2691 -0.9289
  663MOL0     O89378   0.934   0.812   5.615  0.8274  0.7168  0.1397
  663MOL0     C89379   0.924   0.952   5.605  1.2257 -0.0613 -0.1892
  663MOL0     C89380   0.854   0.978   5.464  0.3324  0.2766 -0.7150
  663MOL0     C89381   0.923   1.085   5.387  1.0236  0.7234 -1.0290
  663MOL0     C89382   0.887   1.227   5.459 -0.0605 -0.1678  1.1701
  663MOL0     C89383   0.926   1.361   5.375  0.3753  1.1336 -0.1369
  663MOL0     C89384   0.814   1.404   5.270 -0.0524  1.1831 -0.6019
  663MOL0     C89385   0.808   1.545   5.248  0.0249 -0.6130  0.0908
  663MOL0     C89386   0.764   1.642   5.361 -0.0449  1.1137 -0.1819
  663MOL0     N89387   0.737   1.773   5.293 -0.3731  0.0224 -0.1963
  663MOL0     C89388   0.625   1.819   5.216 -0.1502  0.0449  0.8977
  663MOL0     C89389   0.668   1.935   5.166  0.5282 -0.0364 -0.0121
  663MOL0     C89390   0.605   2.022   5.059  0.0183 -0.4290 -0.4079
  663MOL0     C89391   0.655   2.162   5.049 -0.0440 -0.4023  0.6374
  663MOL0     C89392   0.571   2.239   4.948  0.9127  0.0879  1.4490
  663MOL0     C89393   0.632   2.374   4.932  0.0073 -0.1170  0.3913
  663MOL0     O89394   0.579   2.438   5.051 -0.2192  0.3624 -0.4693
  663MOL0     C89395   0.655   2.551   5.077  0.0158  0.5951  1.1827
  663MOL0     C89396   0.793   2.565   5.057  0.7669  0.0323 -0.3019
  663MOL0     C89397   0.858   2.683   5.063 -0.2956  0.0079  0.1693
  663MOL0     C89398   0.997   2.688   5.009 -0.0448  0.4534 -1.2302
  663MOL0     C89399   0.787   2.792   5.126  1.0606  0.7675 -0.0332
  663MOL0     C89400   0.856   2.916   5.170 -0.6473  0.1045 -0.3605
  663MOL0     O89401   0.952   2.964   5.086 -0.1212  0.3944 -0.1412
  663MOL0     C89402   1.024   3.078   5.104  0.3051 -0.8374  0.2001
  663MOL0     C89403   1.143   3.098   5.020  0.1402 -0.5045  0.9792
  663MOL0     C89404   1.204   3.222   5.022  0.0671  0.2099 -0.3045
  663MOL0     C89405   1.165   3.326   5.103  0.0394 -0.8114 -0.2290
  663MOL0     O89406   1.231   3.450   5.116  0.2775  0.7227 -0.2709
  663MOL0     C89407   1.208   3.529   5.000  0.4420  0.1662 -0.8195
  663MOL0     C89408   1.348   3.558   4.934 -0.3010 -0.6528 -0.0752
  663MOL0     C89409   1.446   3.451   4.919 -0.0971  0.0654 -0.3784
  663MOL0     C89410   1.589   3.495   4.910 -0.0999 -0.8643  0.2931
  663MOL0     C89411   1.681   3.366   4.897  0.7271 -0.5892  0.2328
  663MOL0     C89412   1.831   3.392   4.899  0.4602  1.0069 -0.5169
  663MOL0     C89413   1.887   3.468   4.784 -0.2932  0.1310  0.0390
  663MOL0     C89414   2.022   3.402   4.745 -0.3821  0.9561  1.7397
  663MOL0    Cl89415   2.003   3.248   4.648 -0.0575 -0.0027  0.2244
  663MOL0     C89416   1.054   3.304   5.196  0.5929  0.0387 -0.7343
  663MOL0     C89417   0.988   3.188   5.186  0.8295  0.0303  0.5347
  663MOL0     O89418   0.815   2.961   5.277  0.8832 -0.4190 -0.0281
  663MOL0     C89419   0.645   2.768   5.162 -0.0411 -0.1751  0.3992
  663MOL0     C89420   0.588   2.646   5.140  0.1331  0.0561 -0.0950
  663MOL0     N89421   0.790   1.966   5.213  0.1483  0.1101 -0.5487
  663MOL0     N89422   0.836   1.866   5.275 -0.5741 -0.3505  0.5232
  663MOL0     C89423   0.938   0.633   5.783 -0.9667 -0.7776  1.1935
  663MOL0     C89424   1.007   0.578   5.887  0.3936 -0.4560  0.2807
  663MOL0     C89425   1.367   0.598   6.226  0.2331  0.3203  1.0640
  663MOL0     C89426   1.444   0.665   6.319 -0.4401 -0.9581  0.0432
  663MOL0     C89427   1.537   0.591   6.388  0.0573 -0.1442  0.3007
  663MOL0     C89428   1.549   0.451   6.389  0.0261 -0.5266 -0.3923
  663MOL0     O89429   1.644   0.395   6.469 -0.3699 -0.2729 -0.6164
  663MOL0     C89430   1.677   0.253   6.455  0.8112  0.5218  0.5198
  663MOL0     C89431   1.579   0.174   6.538  0.3830 -0.1309 -0.2522
  663MOL0     C89432   1.628   0.030   6.560 -0.1986 -0.4137 -0.7971
  663MOL0     C89433   1.522  -0.046   6.631  0.3751  0.9590 -0.2453
  663MOL0     C89434   1.554  -0.192   6.662  0.4472  0.4660  0.2457
  663MOL0     C89435   1.582  -0.313   6.660  0.6473 -0.1546 -0.6471
  663MOL0     C89436   1.481   0.389   6.284  0.7562  0.4420 -0.2253
  663MOL0     C89437   1.399   0.460   6.201 -0.4021  0.5010 -0.3608
  663MOL0     H89438   1.226   0.835   5.956  0.9358 -1.8986  0.9641
  663MOL0     H89439   1.122   0.929   5.782  0.7062 -0.5957  0.6364
  663MOL0     H89440   0.854   0.987   5.681  2.7830 -0.8926  1.6935
  663MOL0     H89441   1.014   1.012   5.623  0.7288  0.3328  1.0709
  663MOL0     H89442   0.870   0.880   5.417  0.7529  0.1444 -0.2967
  663MOL0     H89443   0.748   0.997   5.483  0.1381 -1.4352  0.1639
  663MOL0     H89444   1.028   1.058   5.401  0.6005 -0.9952 -1.0096
  663MOL0     H89445   0.889   1.089   5.283 -0.6381  2.3866 -0.4804
  663MOL0     H89446   0.783   1.218   5.491  0.4661 -5.2938  2.3340
  663MOL0     H89447   0.943   1.231   5.553  2.8168 -1.3838 -0.3714
  663MOL0     H89448   0.930   1.435   5.455 -2.4700  1.8861 -0.5965
  663MOL0     H89449   1.031   1.355   5.343  1.5220  0.7212  3.2974
  663MOL0     H89450   0.832   1.364   5.170 -0.6490 -1.7613  0.3839
  663MOL0     H89451   0.723   1.351   5.300  1.4565 -1.6167 -0.7108
  663MOL0     H89452   0.896   1.584   5.197 -0.9258  3.4559  1.2013
  663MOL0     H89453   0.733   1.565   5.170 -0.3375 -2.4191 -0.0715
  663MOL0     H89454   0.842   1.645   5.438 -0.6957 -1.2213  0.6705
  663MOL0     H89455   0.671   1.603   5.404 -0.0776  1.7299  0.3067
  663MOL0     H89456   0.534   1.765   5.192 -0.0245 -1.2068  3.0008
  663MOL0     H89457   0.619   1.962   4.969  3.1381 -0.3174 -0.1052
  663MOL0     H89458   0.499   2.014   5.084 -0.2282  0.1970 -1.2477
  663MOL0     H89459   0.759   2.152   5.018 -0.1341 -0.5410  0.3696
  663MOL0     H89460   0.651   2.214   5.145 -0.1879 -0.1566  0.4983
  663MOL0     H89461   0.466   2.242   4.980  0.4251 -3.4181  0.6789
  663MOL0     H89462   0.587   2.182   4.856  1.0616  1.4477  0.6089
  663MOL0     H89463   0.591   2.427   4.845  1.5722  0.4330 -0.0405
  663MOL0     H89464   0.739   2.357   4.923 -0.3471 -1.4247 -2.4059
  663MOL0     H89465   0.850   2.496   4.995  0.8480 -1.5142  1.3890
  663MOL0     H89466   1.006   2.744   4.916  0.1156  0.2571 -1.3316
  663MOL0     H89467   1.068   2.737   5.076 -2.8577  0.8257  1.7465
  663MOL0     H89468   1.034   2.587   4.995 -0.6839 -0.5688  2.9763
  663MOL0     H89469   1.178   3.025   4.949  1.0657  1.8575 -1.1355
  663MOL0     H89470   1.294   3.237   4.963  0.0793  0.0166 -0.3386
  663MOL0     H89471   1.148   3.494   4.916 -0.1584  2.1056 -1.2364
  663MOL0     H89472   1.171   3.623   5.041 -0.8824 -1.2418  1.4367
  663MOL0     H89473   1.316   3.590   4.835 -1.0589 -2.3522 -0.4311
  663MOL0     H89474   1.399   3.637   4.989 -1.5030  0.5595 -0.6521
  663MOL0     H89475   1.426   3.373   4.845 -0.7684 -2.4342  2.2659
  663MOL0     H89476   1.445   3.397   5.014  0.1636 -1.6383 -1.3033
  663MOL0     H89477   1.604   3.575   4.837 -0.0817  0.1829  1.3967
  663MOL0     H89478   1.599   3.541   5.009  2.4108  1.2287 -0.8078
  663MOL0     H89479   1.637   3.310   4.814 -2.5783 -1.6430  2.4802
  663MOL0     H89480   1.661   3.302   4.983 -1.0402 -0.0026  0.2933
  663MOL0     H89481   1.844   3.454   4.988  0.0315  0.9715 -0.4275
  663MOL0     H89482   1.879   3.294   4.910 -1.5471 -0.0462 -0.5490
  663MOL0     H89483   1.884   3.575   4.804 -0.8300  0.3064 -0.8923
  663MOL0     H89484   1.823   3.449   4.697 -0.5436  1.1006  0.0002
  663MOL0     H89485   2.086   3.394   4.834 -2.7463 -2.8924  3.3666
  663MOL0     H89486   2.070   3.479   4.685  1.0113 -0.0580  1.4897
  663MOL0     H89487   1.029   3.379   5.270  1.8011  0.8153 -1.0812
  663MOL0     H89488   0.902   3.182   5.252 -0.1439  2.1425 -0.4225
  663MOL0     H89489   0.591   2.851   5.208  1.2708  1.9525 -1.6411
  663MOL0     H89490   0.482   2.636   5.158 -0.2398  0.0310 -2.1233
  663MOL0     H89491   0.869   0.570   5.728 -0.0488  1.5578 -3.0549
  663MOL0     H89492   0.979   0.477   5.913  0.1422 -0.3009  0.6207
  663MOL0     H89493   1.425   0.771   6.327 -0.2527 -0.8904 -0.3793
  663MOL0     H89494   1.601   0.642   6.459  2.0412 -1.4001 -0.4898
  663MOL0     H89495   1.692   0.216   6.353  0.3956 -0.6489  0.8621
  663MOL0     H89496   1.781   0.246   6.490  1.7016  0.6766 -1.9119
  663MOL0     H89497   1.482   0.175   6.489  0.0829  1.1542  0.3365
  663MOL0     H89498   1.566   0.220   6.636  0.4343  1.0063 -0.7666
  663MOL0     H89499   1.722   0.028   6.616 -0.9931 -0.2414  0.6036
  663MOL0     H89500   1.650  -0.009   6.460 -2.2663 -1.7913 -0.7777
  663MOL0     H89501   1.426  -0.045   6.579  0.0855 -5.4115 -0.5210
  663MOL0     H89502   1.494   0.004   6.724 -1.9963 -0.5367 -0.0795
  663MOL0     H89503   1.604  -0.416   6.639  0.9604 -1.0605  3.3364
  663MOL0     H89504   1.479   0.282   6.263 -2.4914  0.1305  1.0445
  663MOL0     H89505   1.341   0.414   6.122  0.7949  0.3723 -1.1921
  664MOL0     O89506   8.777   6.576   7.388  0.5102  0.0514  0.0047
  664MOL0     C89507   8.749   6.621   7.500 -0.3736 -0.0676 -0.1311
  664MOL0     O89508   8.763   6.544   7.617 -0.0108  0.2660  0.0492
  664MOL0     C89509   8.777   6.406   7.615  0.2835  0.0495  0.1329
  664MOL0     C89510   8.675   6.317   7.621  0.6396 -0.5214 -0.0449
  664MOL0     C89511   8.686   6.179   7.642  0.0154 -0.6965  0.5849
  664MOL0     C89512   8.818   6.127   7.650  0.9393 -1.2515  0.8260
  664MOL0     O89513   8.836   5.993   7.644 -0.1657  0.3396 -0.7614
  664MOL0     C89514   8.775   5.932   7.762  0.6530 -0.1755  0.3018
  664MOL0     C89515   8.786   5.782   7.773  0.0670  0.4576  0.2842
  664MOL0     C89516   8.693   5.714   7.882  0.0618 -0.1737 -0.0337
  664MOL0     C89517   8.740   5.567   7.917 -0.3868  0.3976  0.4474
  664MOL0     C89518   8.630   5.490   7.992  0.2812 -0.2582  0.4456
  664MOL0     C89519   8.694   5.420   8.109  0.0369  0.0373  0.4440
  664MOL0     C89520   8.587   5.373   8.204 -0.7247 -0.7186 -0.2982
  664MOL0     C89521   8.637   5.297   8.328 -0.9262  0.5885  0.0791
  664MOL0     N89522   8.713   5.372   8.432 -0.6063  0.0596 -0.7097
  664MOL0     C89523   8.856   5.379   8.451  0.2992 -0.2680 -0.0565
  664MOL0     C89524   8.874   5.487   8.538 -0.3334 -0.6136  0.6501
  664MOL0     C89525   9.003   5.543   8.585 -0.2968  0.5934  0.2616
  664MOL0     C89526   9.102   5.568   8.464  0.4679 -0.3937  0.5774
  664MOL0     C89527   9.037   5.652   8.343 -1.0422 -0.4573 -0.5224
  664MOL0     C89528   9.081   5.804   8.343 -0.0993 -0.8654 -0.6836
  664MOL0     O89529   9.014   5.850   8.224 -0.6370 -0.0656 -0.1554
  664MOL0     C89530   9.066   5.954   8.155 -0.1193  0.2600 -0.3315
  664MOL0     C89531   9.122   6.068   8.212  0.3839  0.0838 -0.7013
  664MOL0     C89532   9.138   6.189   8.138  0.5653 -0.1782 -0.9053
  664MOL0     C89533   9.172   6.318   8.222 -0.5144 -0.2025 -0.2635
  664MOL0     C89534   9.128   6.189   8.000 -0.2729 -0.3434  0.5108
  664MOL0     C89535   9.142   6.303   7.909 -0.4378  0.1415  0.3942
  664MOL0     O89536   9.107   6.429   7.947 -0.2235 -0.4056  0.1911
  664MOL0     C89537   9.152   6.534   7.872  0.6369  0.6078  0.2558
  664MOL0     C89538   9.281   6.583   7.883  0.0066 -0.3190  0.7948
  664MOL0     C89539   9.321   6.698   7.816 -0.4452 -1.1279  0.1163
  664MOL0     C89540   9.219   6.777   7.738  0.1526  0.6828  0.2901
  664MOL0     O89541   9.245   6.897   7.686  0.4102 -0.3373  0.2214
  664MOL0     C89542   9.150   6.992   7.633 -0.9601 -0.2905 -0.7616
  664MOL0     C89543   9.132   6.967   7.478 -0.9397 -0.2345 -0.1638
  664MOL0     C89544   8.981   6.980   7.433 -0.2001 -0.6492 -0.3655
  664MOL0     C89545   8.961   7.069   7.306  0.4251 -0.3901 -0.8123
  664MOL0     C89546   8.971   7.220   7.331  0.1985  1.0111  0.4037
  664MOL0     C89547   8.988   7.310   7.213 -0.3320  0.0887 -0.2056
  664MOL0     C89548   8.882   7.268   7.107 -0.8134 -1.1672 -0.2501
  664MOL0     C89549   8.850   7.387   7.014  0.8616 -0.8254 -0.3065
  664MOL0    Cl89550   8.765   7.333   6.858 -0.0949  0.5232  0.0531
  664MOL0     C89551   9.093   6.714   7.720 -0.0671  0.0652  0.0130
  664MOL0     C89552   9.062   6.596   7.788  0.3939  0.4102  0.3635
  664MOL0     O89553   9.197   6.277   7.802  0.0351 -0.1221 -0.3557
  664MOL0     C89554   9.096   6.065   7.932  0.1775 -0.3484  0.3866
  664MOL0     C89555   9.055   5.953   8.011 -0.1285 -0.3189  0.2566
  664MOL0     N89556   8.753   5.544   8.566  0.4495 -0.1702 -0.1554
  664MOL0     N89557   8.664   5.471   8.505  0.1598 -0.0755 -0.9802
  664MOL0     C89558   8.926   6.212   7.622  0.1748 -0.9532 -0.3972
  664MOL0     C89559   8.902   6.352   7.611  0.2161  0.6034  0.0859
  664MOL0     C89560   8.706   6.756   7.521 -0.4283 -0.2498 -0.2996
  664MOL0     C89561   8.652   6.832   7.417 -0.0441  0.1727 -0.7293
  664MOL0     C89562   8.613   6.965   7.418  1.0798  0.6022  0.1501
  664MOL0     C89563   8.639   7.031   7.537 -0.2862 -0.0987  0.0091
  664MOL0     O89564   8.609   7.168   7.539  0.1582  0.1355  0.9547
  664MOL0     C89565   8.612   7.240   7.662  0.0697 -0.9645  0.4223
  664MOL0     C89566   8.614   7.391   7.638 -0.2483 -0.3176 -0.1692
  664MOL0     C89567   8.479   7.444   7.586 -0.0012  0.1731 -0.0477
  664MOL0     C89568   8.461   7.569   7.672  0.1385 -0.2234  0.2878
  664MOL0     C89569   8.333   7.637   7.646  0.1897 -0.9323  0.4765
  664MOL0     C89570   8.228   7.700   7.635  0.0270  1.1051  0.8062
  664MOL0     C89571   8.681   6.961   7.653 -0.4795  0.1432  0.3706
  664MOL0     C89572   8.724   6.829   7.637  0.1662 -0.5269 -1.4289
  664MOL0     H89573   8.584   6.375   7.612  1.7367  1.6610  1.7743
  664MOL0     H89574   8.606   6.106   7.635 -0.4870 -0.3509  2.2458
  664MOL0     H89575   8.823   5.969   7.854 -0.5067  0.8800  0.5039
  664MOL0     H89576   8.671   5.965   7.770  1.1524  1.3391  0.8167
  664MOL0     H89577   8.759   5.739   7.676  0.1334 -3.2492  1.7568
  664MOL0     H89578   8.890   5.750   7.779 -0.3595 -1.8955 -2.5549
  664MOL0     H89579   8.705   5.771   7.974 -3.1148 -1.6350  1.4293
  664MOL0     H89580   8.595   5.712   7.834  1.2796 -2.1832 -2.7052
  664MOL0     H89581   8.768   5.514   7.825 -1.8346  3.6707 -2.0605
  664MOL0     H89582   8.830   5.576   7.979 -1.4197  2.0964  1.7694
  664MOL0     H89583   8.553   5.561   8.025  2.0547  2.2322 -0.4247
  664MOL0     H89584   8.590   5.417   7.921  3.7894 -0.5428 -1.4484
  664MOL0     H89585   8.760   5.343   8.068  1.9472  0.9839  1.6011
  664MOL0     H89586   8.752   5.491   8.168 -0.2745  1.8806 -1.3610
  664MOL0     H89587   8.525   5.455   8.242 -5.1044 -2.7832 -2.2974
  664MOL0     H89588   8.526   5.306   8.143  0.2535 -1.9573  0.0641
  664MOL0     H89589   8.701   5.213   8.302  0.3226  0.4725  3.1045
  664MOL0     H89590   8.548   5.261   8.381 -0.6498  0.3002  0.3495
  664MOL0     H89591   8.928   5.339   8.380 -1.2961  1.0149 -2.5195
  664MOL0     H89592   8.977   5.637   8.635 -1.0732  0.7367 -0.3838
  664MOL0     H89593   9.060   5.480   8.653  1.8858 -0.3224 -2.2246
  664MOL0     H89594   9.136   5.474   8.421  4.0205  1.2883 -0.7442
  664MOL0     H89595   9.188   5.620   8.509 -1.1679  4.4849 -1.2360
  664MOL0     H89596   8.929   5.657   8.324 -0.6844 -0.3728 -2.9028
  664MOL0     H89597   9.074   5.597   8.255  0.2845  0.6161 -0.6624
  664MOL0     H89598   9.189   5.813   8.334  0.0007 -2.7047 -1.9539
  664MOL0     H89599   9.044   5.858   8.430  0.0605 -0.2177 -1.0141
  664MOL0     H89600   9.147   6.057   8.317 -2.5070  2.5428  0.3790
  664MOL0     H89601   9.204   6.293   8.323  2.1911  0.6126 -0.8325
  664MOL0     H89602   9.260   6.355   8.168  0.7000 -0.3398  1.5534
  664MOL0     H89603   9.091   6.391   8.218 -1.4689 -1.2768 -3.2257
  664MOL0     H89604   9.345   6.539   7.958 -2.4098 -0.9208  2.6472
  664MOL0     H89605   9.422   6.736   7.821 -0.3172 -1.6253  2.1736
  664MOL0     H89606   9.053   6.979   7.683  0.2590 -1.5891  1.4051
  664MOL0     H89607   9.191   7.092   7.648 -0.3884 -0.5330 -0.6890
  664MOL0     H89608   9.197   7.036   7.423 -1.7551 -0.9477 -2.1042
  664MOL0     H89609   9.160   6.861   7.468 -0.6800 -0.0731 -1.4201
  664MOL0     H89610   8.923   7.022   7.515 -2.3845 -2.7517 -0.7322
  664MOL0     H89611   8.944   6.881   7.406 -3.9861  0.8952 -1.4620
  664MOL0     H89612   9.023   7.039   7.221  0.5316 -2.3537 -0.1004
  664MOL0     H89613   8.858   7.039   7.283  0.1595 -1.0990  1.1221
  664MOL0     H89614   9.060   7.234   7.394  0.2482 -3.0791  1.5265
  664MOL0     H89615   8.884   7.245   7.393  0.0180  1.2990  0.0381
  664MOL0     H89616   8.982   7.417   7.238  1.6380  0.4983 -1.3326
  664MOL0     H89617   9.089   7.286   7.180 -0.1608 -1.6895  1.4234
  664MOL0     H89618   8.796   7.216   7.151 -1.2815  0.5976  1.0288
  664MOL0     H89619   8.925   7.195   7.038  1.2429 -0.7691  0.5258
  664MOL0     H89620   8.940   7.440   6.982  0.8390 -2.0475 -2.6014
  664MOL0     H89621   8.785   7.464   7.056  1.0964 -0.5071 -0.5192
  664MOL0     H89622   9.023   6.765   7.655 -0.3498  0.9751  1.0118
  664MOL0     H89623   8.958   6.565   7.777 -0.5631  3.3553  0.2887
  664MOL0     H89624   9.104   6.074   7.825  2.3606 -1.8081  0.3565
  664MOL0     H89625   9.023   5.872   7.945  1.6698  0.0876 -1.1835
  664MOL0     H89626   9.023   6.164   7.622  1.0339  0.6006  1.9176
  664MOL0     H89627   8.979   6.422   7.582  0.2873 -0.5958 -2.9479
  664MOL0     H89628   8.625   6.773   7.330  0.3155 -1.3264  0.1375
  664MOL0     H89629   8.544   6.993   7.339 -1.5126 -0.0134  2.0869
  664MOL0     H89630   8.520   7.225   7.719 -2.9795  0.7695 -3.5341
  664MOL0     H89631   8.700   7.222   7.724 -0.3194 -3.0365  0.4694
  664MOL0     H89632   8.693   7.410   7.566 -1.1963 -0.5126 -1.2845
  664MOL0     H89633   8.653   7.437   7.730  0.2897 -1.5628  0.2378
  664MOL0     H89634   8.401   7.368   7.598  0.8238 -0.6639  0.1042
  664MOL0     H89635   8.475   7.471   7.480  0.2905 -1.1990 -0.4343
  664MOL0     H89636   8.543   7.638   7.649  0.1299  0.3287  1.8147
  664MOL0     H89637   8.471   7.540   7.777  1.3163 -1.0347 -0.0201
  664MOL0     H89638   8.140   7.760   7.622 -0.7820 -0.4206 -1.5116
  664MOL0     H89639   8.679   7.015   7.748 -2.3244  2.9004 -1.0872
  664MOL0     H89640   8.760   6.773   7.723 -0.5184 -1.3808 -1.6728
  665MOL0     O89641   1.812   9.100   0.794 -0.4749 -0.0121 -0.5257
  665MOL0     C89642   1.774   9.014   0.878  0.2822 -0.3923 -0.5179
  665MOL0     O89643   1.750   9.040   1.009  0.6934  0.3959  0.1839
  665MOL0     C89644   1.768   9.166   1.053  1.0015  0.4814  0.3350
  665MOL0     C89645   1.666   9.260   1.072  0.3464  0.4355 -0.4611
  665MOL0     C89646   1.694   9.390   1.115  0.2738  0.5242  0.6270
  665MOL0     C89647   1.824   9.430   1.140  0.2757 -0.4484 -0.1162
  665MOL0     O89648   1.863   9.559   1.179 -0.4844 -0.1102  0.0795
  665MOL0     C89649   1.799   9.635   1.284  0.2834  0.9029  0.0736
  665MOL0     C89650   1.788   9.557   1.419  0.1793  1.2183  0.8906
  665MOL0     C89651   1.742   9.646   1.535  0.4270  0.1654  0.0813
  665MOL0     C89652   1.593   9.682   1.529  1.6878 -0.2279 -0.0039
  665MOL0     C89653   1.538   9.742   1.662 -0.2482 -0.5240  0.3914
  665MOL0     C89654   1.543   9.899   1.654 -0.8574 -0.5907 -0.5644
  665MOL0     C89655   1.647   9.972   1.743  1.0039  0.1178 -0.4364
  665MOL0     C89656   1.616  10.116   1.761 -0.5760 -0.4062  0.1747
  665MOL0     N89657   1.520  10.149   1.866 -0.2213 -0.4226 -0.5997
  665MOL0     C89658   1.557  10.172   2.000 -0.0714 -0.3660  0.8801
  665MOL0     C89659   1.445  10.177   2.070 -0.7114  0.4375 -0.1898
  665MOL0     C89660   1.419  10.173   2.218 -0.3963  0.0117 -0.6870
  665MOL0     C89661   1.281  10.125   2.263 -0.7967  0.5423 -1.0410
  665MOL0     C89662   1.255   9.976   2.231  0.4007 -0.5141 -0.6759
  665MOL0     C89663   1.332   9.877   2.321 -0.8361  0.1873 -0.5928
  665MOL0     O89664   1.269   9.870   2.451 -0.2940 -0.5076  0.2963
  665MOL0     C89665   1.353   9.857   2.556  0.2124  0.2614  0.2236
  665MOL0     C89666   1.316   9.922   2.672 -0.2933  0.2455  0.1457
  665MOL0     C89667   1.386   9.902   2.797  0.6969  0.1224  0.2488
  665MOL0     C89668   1.345   9.997   2.900  0.0252 -0.8130 -0.6393
  665MOL0     C89669   1.497   9.810   2.797 -0.1505 -0.0928 -0.9427
  665MOL0     C89670   1.584   9.811   2.910  1.0717  0.4741  0.4932
  665MOL0     O89671   1.536   9.784   3.035 -0.2683  0.1136 -0.1354
  665MOL0     C89672   1.616   9.787   3.149  0.5951  0.8411  0.0472
  665MOL0     C89673   1.753   9.766   3.150 -0.6270 -0.1744  0.3396
  665MOL0     C89674   1.822   9.780   3.266  0.4765  0.3503  0.7349
  665MOL0     C89675   1.758   9.800   3.393  0.8546 -0.5988 -0.7228
  665MOL0     O89676   1.831   9.797   3.508  0.1356  0.0370  0.8631
  665MOL0     C89677   1.887   9.927   3.553 -0.4494  0.7795  0.4642
  665MOL0     C89678   1.781  10.017   3.615  0.0009 -0.4310  0.1243
  665MOL0     C89679   1.847  10.123   3.710 -0.0926  0.5150  1.5596
  665MOL0     C89680   1.785  10.109   3.843  0.4157 -0.4824 -0.6338
  665MOL0     C89681   1.834  10.204   3.950  0.7991 -0.0362  0.0568
  665MOL0     C89682   1.734  10.223   4.061  0.1322 -0.0111 -0.4613
  665MOL0     C89683   1.611  10.309   4.025  0.1244 -0.2128 -0.4897
  665MOL0     C89684   1.498  10.274   4.122 -0.4764 -0.1678 -0.0944
  665MOL0    Cl89685   1.444  10.106   4.084  0.1774  0.1499  0.2347
  665MOL0     C89686   1.621   9.799   3.395 -0.0116  0.1647 -0.3295
  665MOL0     C89687   1.555   9.804   3.275  0.6724 -1.2466 -0.5693
  665MOL0     O89688   1.699   9.818   2.876 -0.2368  0.8049 -0.4747
  665MOL0     C89689   1.524   9.725   2.682  0.2100 -0.5248 -0.4913
  665MOL0     C89690   1.454   9.759   2.565  0.6211  0.8172 -0.2554
  665MOL0     N89691   1.350  10.182   1.970  0.6888  0.2669 -0.0459
  665MOL0     N89692   1.393  10.158   1.856  0.9758 -0.1959  0.2259
  665MOL0     C89693   1.927   9.335   1.117  0.0938 -0.6257 -1.0085
  665MOL0     C89694   1.900   9.209   1.061 -0.5486 -0.0625  0.2562
  665MOL0     C89695   1.769   8.871   0.838  0.1319 -0.4719  0.5223
  665MOL0     C89696   1.775   8.840   0.703  0.1134  0.1071 -0.5367
  665MOL0     C89697   1.768   8.708   0.659 -0.1370  0.3682 -0.0143
  665MOL0     C89698   1.761   8.605   0.759 -0.0505 -0.2120  0.1161
  665MOL0     O89699   1.758   8.468   0.735 -0.0857  0.1818  0.5380
  665MOL0     C89700   1.649   8.424   0.657  0.8909  0.2796  0.0813
  665MOL0     C89701   1.632   8.267   0.683  1.0683  0.3270  0.8745
  665MOL0     C89702   1.510   8.199   0.606  0.1353 -0.2154  0.1736
  665MOL0     C89703   1.473   8.074   0.663  0.3747  0.9090 -0.1430
  665MOL0     C89704   1.376   8.009   0.586 -0.8345  0.0071 -0.0263
  665MOL0     C89705   1.296   7.976   0.503  0.7528 -0.0049 -0.0262
  665MOL0     C89706   1.762   8.635   0.904 -0.3666  0.1308  0.2312
  665MOL0     C89707   1.765   8.769   0.938 -0.7771  0.2392  0.6288
  665MOL0     H89708   1.563   9.234   1.048  1.2455 -3.8744 -0.5990
  665MOL0     H89709   1.615   9.464   1.124 -0.5060 -0.4149  1.8496
  665MOL0     H89710   1.847   9.730   1.309 -2.9724  2.0808  2.6698
  665MOL0     H89711   1.700   9.668   1.251  0.0102 -0.3400 -0.4103
  665MOL0     H89712   1.711   9.481   1.405  1.2887  0.3457 -0.9662
  665MOL0     H89713   1.885   9.519   1.452 -1.1581 -2.4402  1.0587
  665MOL0     H89714   1.775   9.602   1.629  2.9625 -1.8953 -1.6223
  665MOL0     H89715   1.790   9.744   1.522  0.1676  0.0788 -1.7159
  665MOL0     H89716   1.559   9.746   1.447  0.7405 -1.2278 -0.4139
  665MOL0     H89717   1.539   9.588   1.516 -1.2566  1.3470 -0.1682
  665MOL0     H89718   1.435   9.711   1.679 -0.2567 -1.0632 -0.5709
  665MOL0     H89719   1.587   9.707   1.754  1.3911 -1.1416 -0.6831
  665MOL0     H89720   1.573   9.938   1.556  1.9302 -0.8426  0.0917
  665MOL0     H89721   1.445   9.942   1.676 -0.1385  1.0970 -0.4997
  665MOL0     H89722   1.651   9.944   1.849  1.4310  0.8338 -0.2575
  665MOL0     H89723   1.743   9.957   1.693  1.2082  0.6493 -0.2023
  665MOL0     H89724   1.574  10.150   1.666  1.3914 -2.1575 -1.4261
  665MOL0     H89725   1.707  10.173   1.784  0.4262 -1.6939 -0.4595
  665MOL0     H89726   1.660  10.176   2.035  0.5753  2.0841 -1.0049
  665MOL0     H89727   1.501  10.114   2.261  1.1698  2.5213 -0.0058
  665MOL0     H89728   1.434  10.274   2.258  2.0768 -0.5276 -0.0983
  665MOL0     H89729   1.216  10.187   2.200  2.9602  1.9694 -3.9285
  665MOL0     H89730   1.281  10.130   2.372 -0.0024  3.9457 -1.0599
  665MOL0     H89731   1.261   9.955   2.123 -1.6698  0.1281 -0.9617
  665MOL0     H89732   1.151   9.951   2.255  0.7578 -1.8053 -0.3959
  665MOL0     H89733   1.439   9.899   2.329 -0.2876 -2.3572 -0.0848
  665MOL0     H89734   1.329   9.776   2.278 -1.8214  1.7354 -4.6210
  665MOL0     H89735   1.233   9.991   2.667 -0.0363  0.5811  0.4185
  665MOL0     H89736   1.335   9.954   3.000 -0.3835  1.0939  0.1830
  665MOL0     H89737   1.425  10.072   2.902 -1.7533  1.1755  0.7219
  665MOL0     H89738   1.258  10.054   2.866 -0.9343 -1.9960 -0.1915
  665MOL0     H89739   1.812   9.739   3.063  0.5139  0.7021  0.8141
  665MOL0     H89740   1.928   9.756   3.260  0.0055 -1.4938 -1.2755
  665MOL0     H89741   1.978   9.908   3.610 -0.3305  2.9063  1.0638
  665MOL0     H89742   1.930   9.972   3.463 -0.6293 -1.7681 -1.0056
  665MOL0     H89743   1.718  10.074   3.546 -2.0539 -0.7202  1.6414
  665MOL0     H89744   1.708   9.954   3.667 -0.4387 -0.5933 -0.6786
  665MOL0     H89745   1.826  10.226   3.678  0.5837  0.4185  0.7528
  665MOL0     H89746   1.953  10.109   3.731 -0.4071 -0.7962  2.3973
  665MOL0     H89747   1.677  10.107   3.828  0.3797 -0.5689 -0.3607
  665MOL0     H89748   1.812  10.009   3.880 -0.0467  0.8339  3.7844
  665MOL0     H89749   1.869  10.302   3.918  0.9773 -1.3374 -4.4480
  665MOL0     H89750   1.914  10.151   4.003  0.3391 -0.6001  0.2024
  665MOL0     H89751   1.713  10.124   4.104  3.5322 -0.8832 -0.5469
  665MOL0     H89752   1.776  10.279   4.144 -2.4275 -0.3666  1.1732
  665MOL0     H89753   1.577  10.290   3.923 -0.6068 -1.3039 -0.0695
  665MOL0     H89754   1.636  10.414   4.041 -3.7492  1.0224 -1.4412
  665MOL0     H89755   1.410  10.336   4.105  0.5656  1.9340  1.5897
  665MOL0     H89756   1.518  10.282   4.229 -1.5760  3.7145 -0.0322
  665MOL0     H89757   1.566   9.808   3.488  3.0568 -0.2294  1.6346
  665MOL0     H89758   1.448   9.814   3.289  1.0733  4.2479  1.0677
  665MOL0     H89759   1.607   9.657   2.669  0.8225  0.0031  0.5632
  665MOL0     H89760   1.485   9.710   2.474  4.0115 -0.1884  1.2931
  665MOL0     H89761   2.028   9.375   1.129 -1.0063  1.5325  2.7025
  665MOL0     H89762   1.982   9.152   1.019  0.0120  0.1154  1.0670
  665MOL0     H89763   1.770   8.917   0.627 -1.2232 -0.0308 -0.6141
  665MOL0     H89764   1.771   8.695   0.551  2.6870 -1.1774  0.1664
  665MOL0     H89765   1.556   8.468   0.694  0.6192  2.0106 -2.4192
  665MOL0     H89766   1.659   8.443   0.550 -1.4785 -1.8177 -0.6131
  665MOL0     H89767   1.637   8.237   0.788  1.2255 -3.1328 -0.0069
  665MOL0     H89768   1.721   8.227   0.633 -0.2628 -2.9995  0.9127
  665MOL0     H89769   1.532   8.183   0.500  0.5153 -1.5494  0.4297
  665MOL0     H89770   1.419   8.259   0.602  0.3648  0.1930  0.8492
  665MOL0     H89771   1.432   8.092   0.763 -2.3603 -2.1921 -0.5483
  665MOL0     H89772   1.553   8.000   0.671  0.0960  0.5674 -0.4833
  665MOL0     H89773   1.231   7.943   0.424  0.0349 -0.1962  0.6258
  665MOL0     H89774   1.760   8.554   0.977  0.4703 -1.1314 -1.0780
  665MOL0     H89775   1.756   8.786   1.045  0.1517 -0.3069  0.8094
  666MOL0     O89776   4.936   2.837   1.187 -0.4554  0.3372 -0.0323
  666MOL0     C89777   4.850   2.792   1.264 -0.3020 -0.0726  0.3069
  666MOL0     O89778   4.739   2.858   1.300 -0.5578 -0.1993 -0.2790
  666MOL0     C89779   4.715   2.979   1.237  0.0708 -0.0950 -0.0580
  666MOL0     C89780   4.600   2.992   1.157 -0.4566  0.1002  0.6107
  666MOL0     C89781   4.560   3.109   1.106  0.1297 -0.3324 -0.0890
  666MOL0     C89782   4.640   3.229   1.107  0.3050 -0.4852 -0.1613
  666MOL0     O89783   4.596   3.352   1.060 -0.6014 -0.2316  0.4307
  666MOL0     C89784   4.460   3.357   1.002 -0.0111  0.7923  0.3690
  666MOL0     C89785   4.402   3.495   0.982  0.8103  0.1095 -0.7581
  666MOL0     C89786   4.505   3.591   0.924  0.3164  0.5809  0.0032
  666MOL0     C89787   4.551   3.684   1.036  0.0676 -0.8815 -0.2707
  666MOL0     C89788   4.671   3.782   0.993 -0.2395 -0.6642  0.2358
  666MOL0     C89789   4.635   3.878   0.878  0.2659  0.7124  0.0338
  666MOL0     C89790   4.714   4.006   0.871  0.4664  0.1619  0.2019
  666MOL0     C89791   4.693   4.106   0.763  0.2869  0.8392 -0.8978
  666MOL0     N89792   4.569   4.179   0.780 -0.1373 -0.1603 -0.0048
  666MOL0     C89793   4.546   4.263   0.883 -0.2087 -0.2635 -0.4138
  666MOL0     C89794   4.410   4.263   0.901  0.8498 -0.0294  0.6346
  666MOL0     C89795   4.332   4.329   1.010  0.6777  1.0447 -0.4815
  666MOL0     C89796   4.307   4.237   1.129  0.3200  0.7603  0.0830
  666MOL0     C89797   4.430   4.174   1.199  0.6509 -0.3057  0.7821
  666MOL0     C89798   4.383   4.119   1.346 -0.0579 -0.2357  0.2688
  666MOL0     O89799   4.283   4.193   1.410 -0.1019 -0.0290  0.6651
  666MOL0     C89800   4.310   4.296   1.494 -0.1232  0.0733 -0.2335
  666MOL0     C89801   4.429   4.310   1.566 -0.2755 -0.4914  0.2783
  666MOL0     C89802   4.449   4.420   1.646  0.4558 -0.0311 -0.2977
  666MOL0     C89803   4.575   4.428   1.725  0.9874  0.9171  0.1609
  666MOL0     C89804   4.331   4.506   1.665 -1.5876  1.1695 -0.0876
  666MOL0     C89805   4.325   4.618   1.766  0.2334  0.6237  0.1700
  666MOL0     O89806   4.198   4.636   1.828 -1.0550  0.7543 -0.2038
  666MOL0     C89807   4.188   4.733   1.932  0.5876  1.1553 -0.5525
  666MOL0     C89808   4.233   4.699   2.057  0.8986 -0.1858 -0.0946
  666MOL0     C89809   4.226   4.789   2.164 -0.6539 -0.5637 -0.1503
  666MOL0     C89810   4.157   4.912   2.156 -0.4464  0.4766  0.4022
  666MOL0     O89811   4.142   4.977   2.275  0.3917  0.0132 -0.0057
  666MOL0     C89812   4.075   5.103   2.272 -0.5385  0.2759  0.6927
  666MOL0     C89813   4.052   5.174   2.407 -1.3466  0.6183  0.3160
  666MOL0     C89814   4.027   5.320   2.414 -0.2712 -0.1829 -0.0403
  666MOL0     C89815   3.888   5.365   2.361  0.2928  0.0350 -0.4859
  666MOL0     C89816   3.867   5.518   2.376  1.0754  0.3042  0.3824
  666MOL0     C89817   3.726   5.575   2.371  0.9498 -0.0434  0.9091
  666MOL0     C89818   3.652   5.554   2.231 -0.6430 -0.1976 -0.3953
  666MOL0     C89819   3.724   5.636   2.112 -0.0074 -0.0752 -0.5811
  666MOL0    Cl89820   3.634   5.619   1.947 -0.4167 -0.0339 -0.4497
  666MOL0     C89821   4.104   4.943   2.027  0.9893 -0.2434  0.2205
  666MOL0     C89822   4.121   4.851   1.917  0.4146 -0.6618 -0.3012
  666MOL0     O89823   4.422   4.691   1.784 -0.4565 -0.1355 -0.2320
  666MOL0     C89824   4.207   4.488   1.597 -0.9771 -0.2330  0.1193
  666MOL0     C89825   4.211   4.384   1.512 -0.1942  0.8159 -0.5705
  666MOL0     N89826   4.352   4.178   0.806 -0.1605  0.9056 -0.0784
  666MOL0     N89827   4.452   4.127   0.743  0.4310 -0.3157 -0.2197
  666MOL0     C89828   4.763   3.213   1.175  0.3427  0.4840 -0.1234
  666MOL0     C89829   4.801   3.087   1.234  0.2685  0.1163 -0.3492
  666MOL0     C89830   4.854   2.657   1.320 -0.6363  0.3742  0.6184
  666MOL0     C89831   4.744   2.613   1.405  0.1585 -0.3192  0.8291
  666MOL0     C89832   4.747   2.481   1.454  0.1352  0.1949  1.0217
  666MOL0     C89833   4.871   2.402   1.440 -0.2497 -0.2409  0.5164
  666MOL0     O89834   4.903   2.292   1.513  0.2573  1.0984  0.5026
  666MOL0     C89835   4.794   2.199   1.541  0.0944 -0.0755  0.1476
  666MOL0     C89836   4.770   2.108   1.422 -0.4645 -0.4625  0.3448
  666MOL0     C89837   4.893   2.034   1.373 -0.1013  0.2964  0.3194
  666MOL0     C89838   4.860   1.922   1.271  0.9767 -0.0949  0.2225
  666MOL0     C89839   4.963   1.818   1.276 -0.1741 -1.0124 -0.5292
  666MOL0     C89840   5.045   1.736   1.299 -0.1610 -0.0079 -0.3981
  666MOL0     C89841   4.981   2.458   1.373  0.0789  0.1126  0.1342
  666MOL0     C89842   4.972   2.578   1.302  0.1153  0.4135 -0.1385
  666MOL0     H89843   4.553   2.895   1.140 -0.2080  0.1016 -0.1159
  666MOL0     H89844   4.459   3.123   1.068  0.2918  0.3325 -0.2974
  666MOL0     H89845   4.473   3.313   0.903 -6.3197  0.5545 -0.8184
  666MOL0     H89846   4.385   3.307   1.064  0.1631  1.9064  1.5178
  666MOL0     H89847   4.317   3.491   0.914 -0.1019  1.1636  0.2951
  666MOL0     H89848   4.362   3.522   1.080 -0.3379 -0.3443 -1.0857
  666MOL0     H89849   4.583   3.523   0.888 -3.5846 -7.0496  3.4286
  666MOL0     H89850   4.463   3.648   0.841  2.4530 -2.0237 -3.1073
  666MOL0     H89851   4.463   3.739   1.068 -2.6717 -2.5746 -4.1042
  666MOL0     H89852   4.596   3.623   1.116  1.0585  0.0869 -0.0586
  666MOL0     H89853   4.706   3.844   1.075 -2.4547  1.9856 -0.6819
  666MOL0     H89854   4.755   3.720   0.958  0.0684 -0.1012 -0.0253
  666MOL0     H89855   4.640   3.834   0.778 -2.1316 -1.5706  0.7780
  666MOL0     H89856   4.530   3.895   0.904  0.3251 -2.1770  2.9577
  666MOL0     H89857   4.700   4.062   0.963  1.9959  0.1076  0.4924
  666MOL0     H89858   4.822   3.990   0.863  0.2952 -0.1101 -2.6725
  666MOL0     H89859   4.688   4.055   0.667 -2.4782 -0.1035 -0.3572
  666MOL0     H89860   4.785   4.164   0.756  0.8239  0.4176  1.6361
  666MOL0     H89861   4.620   4.316   0.943 -0.0316  0.1420 -0.9808
  666MOL0     H89862   4.384   4.419   1.042 -2.3616  2.1154  1.9817
  666MOL0     H89863   4.236   4.364   0.971 -0.7437 -2.5025 -0.5495
  666MOL0     H89864   4.251   4.146   1.108  1.1894  0.7508 -2.5300
  666MOL0     H89865   4.250   4.292   1.205  1.2326 -3.2972  4.1674
  666MOL0     H89866   4.511   4.248   1.203  0.8338 -0.5374  1.3907
  666MOL0     H89867   4.463   4.090   1.136 -1.2728 -0.5882  0.1050
  666MOL0     H89868   4.475   4.098   1.401  2.0792  0.7998 -2.6809
  666MOL0     H89869   4.332   4.024   1.327 -0.2091  0.3443 -2.6682
  666MOL0     H89870   4.505   4.233   1.567  0.8236  0.5629  1.7227
  666MOL0     H89871   4.624   4.526   1.730  3.2402 -0.1834  0.5692
  666MOL0     H89872   4.563   4.392   1.828  1.4230  2.4165  0.7783
  666MOL0     H89873   4.658   4.371   1.683  0.2210 -0.0108 -0.1128
  666MOL0     H89874   4.279   4.603   2.075  1.5806 -0.4949 -2.9684
  666MOL0     H89875   4.271   4.759   2.258  3.5161 -1.6982 -2.2719
  666MOL0     H89876   4.145   5.162   2.213 -1.2072 -0.3729 -0.8054
  666MOL0     H89877   3.982   5.097   2.215  0.6582 -0.0843 -1.3034
  666MOL0     H89878   3.962   5.125   2.445 -0.6301 -0.1183  1.1049
  666MOL0     H89879   4.135   5.143   2.471  0.4236  1.7488 -1.3460
  666MOL0     H89880   4.106   5.380   2.367  1.4560  0.6629  3.6286
  666MOL0     H89881   4.049   5.344   2.518  0.5016  1.4465 -0.5341
  666MOL0     H89882   3.880   5.350   2.253 -4.5088 -1.5676 -0.1533
  666MOL0     H89883   3.803   5.308   2.400 -0.1568  1.6763  1.0771
  666MOL0     H89884   3.923   5.574   2.301  2.6155  1.3103  2.2000
  666MOL0     H89885   3.904   5.548   2.475 -0.1395 -0.8724  1.2365
  666MOL0     H89886   3.679   5.530   2.458  1.4935  0.2443  1.3567
  666MOL0     H89887   3.733   5.682   2.394 -2.7039 -0.1039  2.9969
  666MOL0     H89888   3.548   5.588   2.241 -1.0937 -1.4374 -0.7894
  666MOL0     H89889   3.649   5.446   2.220 -0.7521 -0.3119  0.6656
  666MOL0     H89890   3.826   5.601   2.093 -0.0047  0.4229 -1.5612
  666MOL0     H89891   3.736   5.741   2.141  0.7543 -0.2671 -0.1759
  666MOL0     H89892   4.063   5.040   2.000  2.8138  0.6322  0.4188
  666MOL0     H89893   4.081   4.869   1.818 -2.2438 -1.8504  0.4687
  666MOL0     H89894   4.119   4.551   1.606 -0.4064  0.9182 -1.9144
  666MOL0     H89895   4.116   4.364   1.463 -0.6370  0.2744  0.4796
  666MOL0     H89896   4.832   3.296   1.186  0.9264 -0.2513  2.5863
  666MOL0     H89897   4.897   3.089   1.285 -0.5405 -1.1555  1.3222
  666MOL0     H89898   4.670   2.685   1.438  0.5197 -0.8559  2.9230
  666MOL0     H89899   4.662   2.447   1.513  0.9198 -2.4158  0.7496
  666MOL0     H89900   4.821   2.135   1.626  0.7833 -0.6479 -0.4943
  666MOL0     H89901   4.704   2.255   1.570 -2.8800 -3.6911 -1.3060
  666MOL0     H89902   4.736   2.171   1.339  0.4816  2.2094  1.8859
  666MOL0     H89903   4.695   2.033   1.451 -0.9958  0.4831  1.5029
  666MOL0     H89904   4.949   2.000   1.460  1.6766 -1.6981 -1.5095
  666MOL0     H89905   4.964   2.104   1.329  1.7771 -2.2942 -1.0109
  666MOL0     H89906   4.844   1.956   1.168  0.1805 -0.4172  0.2337
  666MOL0     H89907   4.775   1.862   1.305 -0.0924 -0.7568 -3.2196
  666MOL0     H89908   5.112   1.658   1.331 -1.4055 -0.8464  0.2399
  666MOL0     H89909   5.069   2.396   1.357 -1.8298 -2.0234 -3.8193
  666MOL0     H89910   5.061   2.621   1.259  2.0031  0.9428  3.8622
  667MOL0     O89911   0.445   6.355   9.135  0.1902 -0.6784  0.0156
  667MOL0     C89912   0.399   6.449   9.204 -0.3272  0.8447  0.4854
  667MOL0     O89913   0.270   6.476   9.224  0.0796 -0.6597  0.9772
  667MOL0     C89914   0.161   6.387   9.190 -0.2574  1.0814 -0.3753
  667MOL0     C89915   0.038   6.450   9.204  0.2292 -0.3398 -0.3806
  667MOL0     C89916  -0.081   6.374   9.193  0.4307  0.2605 -0.0293
  667MOL0     C89917  -0.075   6.238   9.151 -0.6637 -0.2055  0.7373
  667MOL0     O89918  -0.192   6.177   9.136 -0.1533  0.0971 -0.2709
  667MOL0     C89919  -0.198   6.044   9.074 -0.1982  0.8527 -0.4289
  667MOL0     C89920  -0.333   5.965   9.076 -0.0804 -0.0211  0.1103
  667MOL0     C89921  -0.439   6.044   9.002 -0.7397  0.0971 -1.2600
  667MOL0     C89922  -0.579   6.013   9.063 -0.4724 -0.0602  0.3864
  667MOL0     C89923  -0.675   6.115   9.013 -0.5603  0.5153 -0.1249
  667MOL0     C89924  -0.809   6.081   9.067 -0.0143 -0.1836 -0.5360
  667MOL0     C89925  -0.920   6.166   9.014  0.7677  0.1874 -1.6387
  667MOL0     C89926  -0.908   6.319   9.019  0.2595 -1.0975  1.0597
  667MOL0     N89927  -1.030   6.394   8.980 -0.3985  0.3502 -0.2721
  667MOL0     C89928  -1.059   6.432   8.853  0.8624  0.1886  0.5999
  667MOL0     C89929  -1.184   6.471   8.843  0.2495 -0.3129 -0.3362
  667MOL0     C89930  -1.259   6.557   8.735 -0.2614  0.8604  0.1248
  667MOL0     C89931  -1.345   6.470   8.636 -0.3775  0.1617 -0.3973
  667MOL0     C89932  -1.444   6.545   8.535 -0.5579  0.4639  0.2927
  667MOL0     C89933  -1.484   6.453   8.419  0.1444 -0.4511 -0.6228
  667MOL0     O89934  -1.589   6.363   8.467 -0.2958  0.4475 -0.0574
  667MOL0     C89935  -1.715   6.409   8.476  0.2608  0.1458  0.0530
  667MOL0     C89936  -1.803   6.334   8.559 -0.2521  0.6022  0.1895
  667MOL0     C89937  -1.941   6.359   8.559  0.4197  0.2066 -1.2055
  667MOL0     C89938  -2.024   6.258   8.635  0.1873  0.2062 -0.4420
  667MOL0     C89939  -1.995   6.456   8.474  0.3024 -0.2113 -0.3687
  667MOL0     C89940  -2.144   6.478   8.465 -0.8182  0.2402 -0.2022
  667MOL0     O89941  -2.181   6.561   8.371 -0.3998 -0.1113  0.4294
  667MOL0     C89942  -2.293   6.631   8.349 -0.4801 -0.0132  0.3450
  667MOL0     C89943  -2.314   6.687   8.226  0.5239  0.0055  0.3898
  667MOL0     C89944  -2.425   6.759   8.191 -0.3036 -0.9981 -0.7188
  667MOL0     C89945  -2.524   6.778   8.283  0.3759  0.1775  0.2818
  667MOL0     O89946  -2.636   6.838   8.257  0.2768 -0.4513 -0.2010
  667MOL0     C89947  -2.639   6.937   8.157  0.6454 -0.1276 -0.2497
  667MOL0     C89948  -2.778   6.996   8.166 -0.1587  0.4529 -1.3647
  667MOL0     C89949  -2.804   7.101   8.060 -0.2190 -0.2396  0.4974
  667MOL0     C89950  -2.767   7.241   8.109  0.7378 -0.3484  0.0861
  667MOL0     C89951  -2.793   7.354   8.002 -0.2751  0.1236 -0.7403
  667MOL0     C89952  -2.773   7.492   8.065  1.0460  0.5138 -0.2402
  667MOL0     C89953  -2.895   7.525   8.167  0.1665 -0.5523  0.6354
  667MOL0     C89954  -2.881   7.654   8.246  0.0345  0.1160 -0.2192
  667MOL0    Cl89955  -2.816   7.794   8.151 -0.3982  0.1088  0.1145
  667MOL0     C89956  -2.508   6.729   8.419 -0.0538 -0.0450 -0.3680
  667MOL0     C89957  -2.388   6.650   8.448 -0.3153 -0.1034  0.2027
  667MOL0     O89958  -2.216   6.439   8.557  0.1680  0.7287  0.0454
  667MOL0     C89959  -1.911   6.539   8.402 -1.1965  0.1877 -0.1571
  667MOL0     C89960  -1.773   6.524   8.420 -0.1311  0.8128 -0.6134
  667MOL0     N89961  -1.238   6.447   8.968 -0.0015 -0.3023  0.4058
  667MOL0     N89962  -1.146   6.397   9.046 -0.2712 -0.7787  0.2459
  667MOL0     C89963   0.053   6.182   9.138  0.3235  0.8326 -0.1110
  667MOL0     C89964   0.165   6.250   9.167  0.0482  0.0377 -0.6015
  667MOL0     C89965   0.490   6.544   9.269  0.3655  0.1824 -0.1188
  667MOL0     C89966   0.444   6.670   9.310 -0.0418  0.5654  0.7078
  667MOL0     C89967   0.531   6.762   9.359 -0.7964  0.2189  1.2177
  667MOL0     C89968   0.673   6.745   9.350  0.1938  0.5580 -0.2634
  667MOL0     O89969   0.759   6.846   9.382 -0.3200  0.3468 -0.0285
  667MOL0     C89970   0.830   6.897   9.266 -0.3875  0.2109 -0.1607
  667MOL0     C89971   0.731   6.980   9.189  1.2215 -0.3145  0.8520
  667MOL0     C89972   0.667   7.101   9.255 -0.1853 -0.0514 -1.0328
  667MOL0     C89973   0.546   7.144   9.178  0.1225 -0.0737  0.8755
  667MOL0     C89974   0.468   7.232   9.264  0.1397  0.1010 -0.4329
  667MOL0     C89975   0.400   7.321   9.317 -0.7146  0.0911  0.3167
  667MOL0     C89976   0.722   6.618   9.326  0.2398 -0.0664  0.7987
  667MOL0     C89977   0.632   6.519   9.291 -0.5925 -0.4924  1.1260
  667MOL0     H89978   0.028   6.556   9.223  1.2126  0.1656 -2.4431
  667MOL0     H89979  -0.181   6.410   9.214  1.1205  1.8362  0.6596
  667MOL0     H89980  -0.163   6.052   8.970 -0.3876 -0.6845 -0.6368
  667MOL0     H89981  -0.123   5.983   9.125 -0.2003  1.5289  0.3979
  667MOL0     H89982  -0.317   5.876   9.014  2.6873  0.5079 -0.0831
  667MOL0     H89983  -0.358   5.945   9.180  1.9344 -1.0241  0.4526
  667MOL0     H89984  -0.411   6.146   9.030  1.2636 -1.2920  2.3468
  667MOL0     H89985  -0.427   6.036   8.893  1.2306 -5.1369 -0.9115
  667MOL0     H89986  -0.618   5.911   9.055 -3.8401  1.2442 -1.7651
  667MOL0     H89987  -0.569   6.025   9.171  2.6131  0.8621  0.1063
  667MOL0     H89988  -0.648   6.216   9.045  1.8638  0.7537 -2.6379
  667MOL0     H89989  -0.672   6.112   8.904 -0.8631 -1.4055 -0.1258
  667MOL0     H89990  -0.838   5.977   9.048 -2.5204  0.8029 -2.6316
  667MOL0     H89991  -0.803   6.107   9.173  1.3168  1.1588 -0.9083
  667MOL0     H89992  -0.934   6.144   8.908 -2.3092 -0.0016 -1.2977
  667MOL0     H89993  -1.016   6.141   9.060 -0.7438  4.8105 -1.7200
  667MOL0     H89994  -0.821   6.344   8.958 -0.3399 -2.2241 -0.3190
  667MOL0     H89995  -0.900   6.348   9.124  0.9075  1.5883  0.3376
  667MOL0     H89996  -0.997   6.452   8.766  0.9844 -2.2069  0.0739
  667MOL0     H89997  -1.309   6.642   8.782  0.6942  1.0157  0.8770
  667MOL0     H89998  -1.187   6.609   8.671  1.3724  0.1599  1.3150
  667MOL0     H89999  -1.402   6.402   8.700  1.3080 -0.3573  0.6022
  667MOL0     H90000  -1.277   6.418   8.567 -1.0037  0.7291 -1.4773
  667MOL0     H90001  -1.392   6.628   8.488 -2.8261  0.4811 -2.4364
  667MOL0     H90002  -1.532   6.589   8.583 -1.3377 -0.7674  0.0345
  667MOL0     H90003  -1.396   6.398   8.384 -0.4803 -1.0672 -1.2576
  667MOL0     H90004  -1.510   6.520   8.336  1.2478 -0.1234 -0.7226
  667MOL0     H90005  -1.759   6.247   8.606  1.8569  1.7512  0.4735
  667MOL0     H90006  -2.115   6.236   8.577  0.6592  1.7008 -1.8327
  667MOL0     H90007  -1.970   6.167   8.661 -2.0075 -0.9439  0.3951
  667MOL0     H90008  -2.063   6.297   8.729  0.6628  4.2327 -1.7354
  667MOL0     H90009  -2.233   6.692   8.154  1.2747 -0.0250  1.2243
  667MOL0     H90010  -2.448   6.789   8.089 -0.4222  0.1656 -0.3542
  667MOL0     H90011  -2.560   7.011   8.171  1.3885 -0.5584 -1.9741
  667MOL0     H90012  -2.631   6.901   8.054 -0.4635 -1.2952  0.0514
  667MOL0     H90013  -2.845   6.911   8.146  2.9454 -2.0668 -1.8742
  667MOL0     H90014  -2.796   7.034   8.267 -2.3448  0.6682 -1.7805
  667MOL0     H90015  -2.909   7.104   8.030 -0.5148 -0.7280  1.4338
  667MOL0     H90016  -2.747   7.078   7.970 -0.8249 -4.0035  0.9183
  667MOL0     H90017  -2.820   7.261   8.203 -1.3606 -0.9117 -0.9260
  667MOL0     H90018  -2.659   7.240   8.130  0.9408 -2.2887 -0.8063
  667MOL0     H90019  -2.892   7.337   7.959 -0.7462  0.1484  0.3033
  667MOL0     H90020  -2.724   7.340   7.918 -1.3166 -2.2366 -1.2873
  667MOL0     H90021  -2.677   7.499   8.117  0.7859  0.3698  0.2662
  667MOL0     H90022  -2.777   7.569   7.987 -0.2202 -0.8455 -1.5828
  667MOL0     H90023  -2.921   7.440   8.230 -2.7245 -0.6161 -0.5164
  667MOL0     H90024  -2.980   7.533   8.098 -0.1145  1.2559  1.1170
  667MOL0     H90025  -2.807   7.625   8.321  0.4748 -0.7424 -0.9637
  667MOL0     H90026  -2.977   7.683   8.292  0.5453  2.0885 -0.3412
  667MOL0     H90027  -2.591   6.742   8.488  0.8044  0.1918  0.6424
  667MOL0     H90028  -2.385   6.600   8.544 -0.8362  0.4795  0.5348
  667MOL0     H90029  -1.949   6.621   8.342  0.6177  1.5134  0.4185
  667MOL0     H90030  -1.707   6.599   8.376  2.0031  0.6992  2.0865
  667MOL0     H90031   0.070   6.079   9.109  0.8722  1.1423 -0.9353
  667MOL0     H90032   0.262   6.201   9.173  1.6411  2.8163 -1.8891
  667MOL0     H90033   0.341   6.688   9.283 -0.3762 -0.7436  1.0400
  667MOL0     H90034   0.488   6.857   9.391 -0.3559  0.4629  1.1010
  667MOL0     H90035   0.921   6.951   9.296  0.0148  0.1963 -1.3038
  667MOL0     H90036   0.867   6.820   9.198  0.4959  0.2729  0.2284
  667MOL0     H90037   0.645   6.918   9.162  0.2155  1.2979  0.1995
  667MOL0     H90038   0.777   7.016   9.097 -0.6074  3.7582  1.2955
  667MOL0     H90039   0.740   7.180   9.275 -1.7177  1.4084 -1.0022
  667MOL0     H90040   0.639   7.061   9.353  2.8253 -0.8996 -0.4076
  667MOL0     H90041   0.492   7.055   9.147 -0.9560  0.8552  0.0208
  667MOL0     H90042   0.562   7.208   9.090  1.0162  1.6738  2.2274
  667MOL0     H90043   0.352   7.396   9.377  0.6467  1.3288 -0.0884
  667MOL0     H90044   0.826   6.590   9.337  0.1734 -0.6591  0.0059
  667MOL0     H90045   0.664   6.420   9.260  4.3362  0.8792  1.0245
  668MOL0     O90046   4.351   1.283   6.527 -0.0184  0.2953  0.1034
  668MOL0     C90047   4.318   1.237   6.641 -0.5759  0.3764  1.0026
  668MOL0     O90048   4.399   1.165   6.730  0.9238  0.1866 -0.9646
  668MOL0     C90049   4.522   1.104   6.706  0.4561  0.3296  0.5435
  668MOL0     C90050   4.579   1.038   6.818 -0.3074 -0.0949 -0.0870
  668MOL0     C90051   4.705   0.983   6.805 -0.2552 -0.3501 -0.2082
  668MOL0     C90052   4.782   0.986   6.685  0.2870 -0.6399  0.2970
  668MOL0     O90053   4.911   0.958   6.671 -0.6916  0.1477 -0.4184
  668MOL0     C90054   4.965   0.891   6.788 -0.9836  0.2208  0.3866
  668MOL0     C90055   5.115   0.903   6.770 -0.4369  0.4587  0.1263
  668MOL0     C90056   5.193   0.791   6.842 -0.9085  0.3563  0.1484
  668MOL0     C90057   5.343   0.807   6.815  0.4121  0.5574 -0.0159
  668MOL0     C90058   5.416   0.741   6.937 -0.0767 -0.6528 -0.0760
  668MOL0     C90059   5.579   0.718   6.909  0.7836 -0.1419  0.1678
  668MOL0     C90060   5.619   0.645   6.783 -0.0092  0.1404 -0.1366
  668MOL0     C90061   5.591   0.492   6.786 -0.3181 -0.0110 -0.7210
  668MOL0     N90062   5.622   0.412   6.673  0.6651 -0.1120  0.0381
  668MOL0     C90063   5.745   0.368   6.637 -0.2556 -0.2739 -0.4095
  668MOL0     C90064   5.725   0.309   6.525  1.3084 -0.4302  0.1568
  668MOL0     C90065   5.837   0.260   6.442 -0.0291 -0.0236 -0.3844
  668MOL0     C90066   5.867   0.116   6.495 -0.3071  0.0541  0.0858
  668MOL0     C90067   5.996   0.063   6.449  0.2118  0.3173  0.0522
  668MOL0     C90068   5.992  -0.002   6.310 -0.3908  1.2654  0.9488
  668MOL0     O90069   6.118  -0.072   6.311  0.3422  1.0466 -0.0167
  668MOL0     C90070   6.160  -0.093   6.181  0.1745  0.3465 -0.5383
  668MOL0     C90071   6.177   0.009   6.081  0.1689 -0.2774 -0.6812
  668MOL0     C90072   6.242  -0.013   5.960  0.5060  0.8031  0.2620
  668MOL0     C90073   6.261   0.109   5.878  0.1690 -0.2108 -0.2782
  668MOL0     C90074   6.291  -0.146   5.929  0.0066 -0.0700 -0.2341
  668MOL0     C90075   6.326  -0.191   5.794  0.3631  0.3917 -0.3205
  668MOL0     O90076   6.385  -0.312   5.780  0.1343  0.9404 -0.0686
  668MOL0     C90077   6.419  -0.360   5.660 -0.6406 -0.7133 -0.5031
  668MOL0     C90078   6.502  -0.284   5.580  0.7113  0.7368  0.1758
  668MOL0     C90079   6.560  -0.347   5.474 -0.1079  0.6274  0.3622
  668MOL0     C90080   6.525  -0.476   5.428  0.4341 -0.1401 -0.5134
  668MOL0     O90081   6.594  -0.525   5.317 -0.3015  0.0446 -0.5392
  668MOL0     C90082   6.554  -0.655   5.271 -0.1983  0.7375 -0.5667
  668MOL0     C90083   6.628  -0.688   5.145 -0.8575 -0.3527  0.5152
  668MOL0     C90084   6.775  -0.708   5.171 -0.4328  0.2500  0.2904
  668MOL0     C90085   6.858  -0.706   5.039 -0.5145 -0.0334 -0.8380
  668MOL0     C90086   7.015  -0.690   5.061  0.6890 -0.4913  0.5477
  668MOL0     C90087   7.072  -0.554   5.091  0.4521  0.3444 -0.6647
  668MOL0     C90088   7.221  -0.525   5.069  0.0336  0.0883  0.0826
  668MOL0     C90089   7.310  -0.608   5.162  0.3749 -0.2373  0.9555
  668MOL0    Cl90090   7.294  -0.560   5.329 -0.3591 -0.0786 -0.1713
  668MOL0     C90091   6.434  -0.548   5.512  0.2357 -0.6556  0.3527
  668MOL0     C90092   6.395  -0.492   5.629 -0.2620  0.2351  0.1655
  668MOL0     O90093   6.282  -0.128   5.701 -0.1707 -0.6618  0.4345
  668MOL0     C90094   6.291  -0.240   6.033  0.2458  0.2446 -0.0518
  668MOL0     C90095   6.230  -0.207   6.159 -1.5288  0.0536 -0.5756
  668MOL0     N90096   5.586   0.308   6.494 -0.2925 -0.3588 -0.1724
  668MOL0     N90097   5.534   0.380   6.583 -0.2515  0.2459  0.1289
  668MOL0     C90098   4.712   1.034   6.567 -0.0639 -0.0670  0.0111
  668MOL0     C90099   4.587   1.095   6.579 -0.4198 -0.0415 -0.0353
  668MOL0     C90100   4.196   1.292   6.697  1.2269 -0.7987  0.0641
  668MOL0     C90101   4.126   1.408   6.653 -0.5051  0.7690  0.0328
  668MOL0     C90102   4.001   1.443   6.711  0.0113  0.6833  0.2818
  668MOL0     C90103   3.953   1.376   6.827 -0.0276 -0.8580 -0.2688
  668MOL0     O90104   3.840   1.415   6.897  0.1727  0.1409 -0.2544
  668MOL0     C90105   3.748   1.513   6.864  0.7096 -0.1720  0.2207
  668MOL0     C90106   3.624   1.499   6.959 -0.4998  0.5832  0.1759
  668MOL0     C90107   3.546   1.376   6.931 -1.0772  0.5266 -0.1752
  668MOL0     C90108   3.456   1.393   6.811  0.0529  0.4690 -0.2201
  668MOL0     C90109   3.443   1.270   6.749  0.0765  0.8550 -0.1259
  668MOL0     C90110   3.427   1.152   6.716  0.5222 -1.5838  0.5020
  668MOL0     C90111   4.031   1.270   6.877  0.0765  0.1279  0.1972
  668MOL0     C90112   4.147   1.227   6.810 -0.1528 -0.1438  0.5944
  668MOL0     H90113   4.539   1.028   6.918  0.2621  1.7239  0.3561
  668MOL0     H90114   4.732   0.940   6.901  1.3523  0.3068 -0.3287
  668MOL0     H90115   4.936   0.929   6.887 -3.5326 -0.8171  0.1138
  668MOL0     H90116   4.934   0.786   6.792 -0.4369  0.0930  2.8909
  668MOL0     H90117   5.124   0.909   6.661  2.7599  0.3676  0.3013
  668MOL0     H90118   5.152   0.997   6.811  1.5266  0.3695 -1.3170
  668MOL0     H90119   5.171   0.783   6.949 -0.0863 -0.9903  0.2477
  668MOL0     H90120   5.157   0.695   6.802 -0.1466  0.1323 -0.0177
  668MOL0     H90121   5.368   0.762   6.718 -1.0207  0.4267 -0.3475
  668MOL0     H90122   5.374   0.912   6.816 -1.2465  1.2790 -4.0914
  668MOL0     H90123   5.402   0.802   7.026  3.0716  0.1169 -0.0022
  668MOL0     H90124   5.377   0.640   6.956  0.1692 -0.5422  1.1097
  668MOL0     H90125   5.628   0.815   6.893 -0.1377  0.3421  0.2227
  668MOL0     H90126   5.626   0.678   6.999  1.0867  1.1142  0.5883
  668MOL0     H90127   5.578   0.688   6.691  4.2311  1.8292 -1.4851
  668MOL0     H90128   5.728   0.643   6.771  0.0610  0.6285  0.4021
  668MOL0     H90129   5.483   0.488   6.803  0.1218 -4.3087  3.0979
  668MOL0     H90130   5.635   0.458   6.880  0.3258 -0.5900 -1.2200
  668MOL0     H90131   5.834   0.388   6.696 -0.9554  0.8518  0.3315
  668MOL0     H90132   5.820   0.263   6.334  3.6026  1.2506 -1.0508
  668MOL0     H90133   5.930   0.318   6.442  0.7718 -1.0097 -4.5123
  668MOL0     H90134   5.783   0.060   6.452 -0.5922  0.8857 -0.4723
  668MOL0     H90135   5.874   0.118   6.604 -3.8489  0.8633  0.4218
  668MOL0     H90136   6.020  -0.025   6.509  3.2135  2.2091  1.8597
  668MOL0     H90137   6.078   0.132   6.472  0.6629 -0.5991  1.3015
  668MOL0     H90138   5.996   0.079   6.237 -1.0684  1.2535  0.8955
  668MOL0     H90139   5.916  -0.068   6.268  1.5975 -0.1784 -0.5425
  668MOL0     H90140   6.143   0.111   6.099  0.5986 -0.0768 -0.9879
  668MOL0     H90141   6.232   0.091   5.774 -1.8816 -0.8832  0.3435
  668MOL0     H90142   6.212   0.201   5.912 -1.1933  0.3479 -3.4410
  668MOL0     H90143   6.369   0.126   5.876 -0.0078  0.9413 -2.2081
  668MOL0     H90144   6.512  -0.180   5.607  1.1193  0.1881  2.3521
  668MOL0     H90145   6.634  -0.292   5.418  2.2053 -0.8492  1.8091
  668MOL0     H90146   6.577  -0.732   5.345  1.2959 -1.3179 -3.0186
  668MOL0     H90147   6.445  -0.660   5.259 -0.9230  2.8289  3.4186
  668MOL0     H90148   6.588  -0.781   5.102 -2.0265  1.6474 -3.1652
  668MOL0     H90149   6.619  -0.610   5.069 -3.2524  0.1199  1.2193
  668MOL0     H90150   6.790  -0.800   5.229 -0.4928  0.1401  0.1347
  668MOL0     H90151   6.805  -0.623   5.232 -1.7377  2.5713 -2.1033
  668MOL0     H90152   6.842  -0.806   4.999 -0.2814 -0.8540  1.0421
  668MOL0     H90153   6.815  -0.627   4.976 -1.7153 -1.4019 -1.8240
  668MOL0     H90154   7.058  -0.727   4.968  0.6205 -1.2580  0.8117
  668MOL0     H90155   7.050  -0.752   5.144 -1.1221 -0.8395  1.1185
  668MOL0     H90156   7.026  -0.481   5.023 -0.2863 -1.3985 -2.0958
  668MOL0     H90157   7.063  -0.549   5.200  4.0594 -2.3044 -0.0325
  668MOL0     H90158   7.227  -0.417   5.087  0.5253  0.2731 -1.1141
  668MOL0     H90159   7.243  -0.543   4.963  1.8299 -3.2067  0.8647
  668MOL0     H90160   7.416  -0.609   5.137  0.0301 -3.4375 -0.8886
  668MOL0     H90161   7.286  -0.715   5.161 -2.5077  0.1989 -2.7952
  668MOL0     H90162   6.406  -0.649   5.485  1.6666 -0.5889 -1.6574
  668MOL0     H90163   6.340  -0.553   5.701 -3.7558  1.6480 -1.0755
  668MOL0     H90164   6.330  -0.342   6.034  0.3042  0.2633  0.6767
  668MOL0     H90165   6.257  -0.275   6.239  1.5937  0.9592 -0.7487
  668MOL0     H90166   4.768   1.039   6.474 -0.5635  1.0110 -0.2484
  668MOL0     H90167   4.540   1.144   6.494 -7.4912  0.8542  3.7054
  668MOL0     H90168   4.183   1.467   6.582  1.8820  1.4268  2.3347
  668MOL0     H90169   3.936   1.517   6.665  1.8811  0.2728 -3.4011
  668MOL0     H90170   3.801   1.608   6.875  0.7899 -0.3845  2.0004
  668MOL0     H90171   3.710   1.500   6.762 -0.7895  1.4295  0.5130
  668MOL0     H90172   3.568   1.592   6.968 -1.0001  0.4917 -1.5353
  668MOL0     H90173   3.674   1.483   7.055 -1.0262 -2.6444  0.0269
  668MOL0     H90174   3.478   1.372   7.016 -2.2241  1.1440 -1.0365
  668MOL0     H90175   3.610   1.287   6.926 -0.0270  1.2886 -0.5570
  668MOL0     H90176   3.503   1.458   6.737  2.5689 -1.9771 -0.9027
  668MOL0     H90177   3.367   1.447   6.846  1.6329  3.0172  0.1147
  668MOL0     H90178   3.412   1.048   6.693 -0.4765 -1.8686  2.2485
  668MOL0     H90179   3.988   1.207   6.954 -0.6007 -2.7691 -2.3795
  668MOL0     H90180   4.197   1.134   6.835 -0.9866 -0.8935 -0.4322
  669MOL0     O90181   5.229   9.371   0.831 -0.2018  0.6213  0.2575
  669MOL0     C90182   5.281   9.469   0.853  0.7556 -0.6336  0.0199
  669MOL0     O90183   5.304   9.565   0.764 -0.2979  0.1255 -0.0612
  669MOL0     C90184   5.270   9.542   0.631 -0.5161 -0.1875  1.4076
  669MOL0     C90185   5.298   9.429   0.558 -0.2243 -0.6531  0.0197
  669MOL0     C90186   5.291   9.424   0.413 -0.8681 -0.2784 -0.2208
  669MOL0     C90187   5.260   9.540   0.343  0.1068  0.1903 -0.0010
  669MOL0     O90188   5.259   9.544   0.209 -0.0043 -0.5511  0.4563
  669MOL0     C90189   5.339   9.451   0.135  0.1170 -1.3297 -0.6501
  669MOL0     C90190   5.343   9.485  -0.014  0.9898 -1.1808  1.2016
  669MOL0     C90191   5.452   9.596  -0.034 -0.5642  0.6143 -1.0114
  669MOL0     C90192   5.452   9.626  -0.185  0.0684 -0.1673  1.3071
  669MOL0     C90193   5.563   9.727  -0.219  0.6256 -0.2101  0.8829
  669MOL0     C90194   5.520   9.873  -0.196 -0.2427  0.1712  0.2494
  669MOL0     C90195   5.632   9.963  -0.261  0.1496 -0.1392 -0.0170
  669MOL0     C90196   5.600  10.117  -0.252 -0.2641 -0.2827 -0.0461
  669MOL0     N90197   5.689  10.206  -0.320  0.4711 -0.4724  0.2212
  669MOL0     C90198   5.663  10.257  -0.448 -0.2452  0.6332 -0.4582
  669MOL0     C90199   5.744  10.361  -0.461 -0.0855  0.5704  0.2486
  669MOL0     C90200   5.758  10.439  -0.582  0.2598  0.2958 -0.2979
  669MOL0     C90201   5.647  10.551  -0.595 -0.5888 -0.2938  0.2099
  669MOL0     C90202   5.679  10.615  -0.734  0.0893 -0.4905  0.0745
  669MOL0     C90203   5.553  10.600  -0.827  0.4663  0.9243 -0.4662
  669MOL0     O90204   5.572  10.684  -0.939  0.6588  0.3703  0.3404
  669MOL0     C90205   5.649  10.644  -1.048  0.8034  0.4533 -0.3371
  669MOL0     C90206   5.677  10.750  -1.138  0.6146  0.1880 -0.2440
  669MOL0     C90207   5.761  10.724  -1.250  0.3316 -0.4999 -0.3673
  669MOL0     C90208   5.786  10.851  -1.333 -0.7021 -0.5297  0.0205
  669MOL0     C90209   5.813  10.593  -1.275  0.3410  1.8274  0.6730
  669MOL0     C90210   5.889  10.548  -1.390  0.2881 -0.2339  0.7457
  669MOL0     O90211   5.873  10.417  -1.421 -0.2136  0.1698 -0.7710
  669MOL0     C90212   5.967  10.365  -1.502 -0.0275  0.3555  0.6837
  669MOL0     C90213   6.094  10.320  -1.455 -0.0245  0.0930 -0.1601
  669MOL0     C90214   6.184  10.256  -1.541  0.2351 -0.4735  0.0834
  669MOL0     C90215   6.159  10.258  -1.679 -0.7021  0.2775  0.0178
  669MOL0     O90216   6.262  10.202  -1.755 -1.2818  0.4615 -0.2141
  669MOL0     C90217   6.211  10.150  -1.886 -0.4463 -0.3849  0.2690
  669MOL0     C90218   6.316  10.081  -1.965  0.4303 -0.0518  0.1276
  669MOL0     C90219   6.382   9.963  -1.884 -0.2179  0.5052 -0.1219
  669MOL0     C90220   6.518   9.929  -1.926  0.3010  0.0196 -0.4757
  669MOL0     C90221   6.568   9.803  -1.847  0.1645  0.4034 -0.0832
  669MOL0     C90222   6.721   9.772  -1.883  0.4698 -0.5384 -0.6638
  669MOL0     C90223   6.751   9.639  -1.822  0.6367 -0.0828  0.7861
  669MOL0     C90224   6.786   9.653  -1.677 -0.0042  0.0593 -0.3575
  669MOL0    Cl90225   6.852   9.498  -1.624  0.4460  0.2214 -0.6149
  669MOL0     C90226   6.031  10.295  -1.728  0.7795 -0.7938 -0.4273
  669MOL0     C90227   5.936  10.355  -1.638 -0.8145  1.4812  0.9567
  669MOL0     O90228   5.940  10.624  -1.466  0.1665 -0.3634 -0.4767
  669MOL0     C90229   5.796  10.498  -1.174 -0.4698  0.3905 -0.3062
  669MOL0     C90230   5.713  10.519  -1.067  0.1261 -0.1711  0.2969
  669MOL0     N90231   5.823  10.364  -0.352 -0.5794 -0.2715 -0.3915
  669MOL0     N90232   5.792  10.273  -0.273 -0.6723  0.9034 -0.1538
  669MOL0     C90233   5.239   9.659   0.409 -1.1447 -0.4616 -0.6887
  669MOL0     C90234   5.244   9.657   0.552 -0.3448 -0.1702  0.4625
  669MOL0     C90235   5.327   9.479   0.993 -0.4804  0.2023  0.8229
  669MOL0     C90236   5.304   9.382   1.097  0.5380 -0.7089  0.2202
  669MOL0     C90237   5.359   9.401   1.221  0.0947  0.5328 -0.2361
  669MOL0     C90238   5.440   9.512   1.254  0.2937  0.4519 -0.6367
  669MOL0     O90239   5.499   9.508   1.381  0.7238 -0.4429 -0.4631
  669MOL0     C90240   5.457   9.409   1.480  0.8383 -0.5880 -0.3344
  669MOL0     C90241   5.536   9.428   1.608  0.0905 -0.0487  0.3106
  669MOL0     C90242   5.498   9.560   1.670  0.2044 -0.7393 -0.4422
  669MOL0     C90243   5.587   9.576   1.793 -0.7233  0.1355 -0.2458
  669MOL0     C90244   5.575   9.715   1.841  0.1308  1.2225  0.3004
  669MOL0     C90245   5.587   9.830   1.856 -0.4870 -1.2236 -0.0793
  669MOL0     C90246   5.482   9.589   1.147 -0.3751  0.1914  0.3280
  669MOL0     C90247   5.420   9.581   1.023 -0.2626 -0.3156  0.6308
  669MOL0     H90248   5.334   9.345   0.616  1.9612  1.4481  1.9032
  669MOL0     H90249   5.305   9.333   0.355 -2.8500 -0.0089 -1.1869
  669MOL0     H90250   5.443   9.458   0.166 -0.2437  0.8234  0.2635
  669MOL0     H90251   5.285   9.356   0.129 -1.0467 -0.6237 -2.7623
  669MOL0     H90252   5.375   9.392  -0.062 -1.1449 -1.8753  0.9940
  669MOL0     H90253   5.244   9.514  -0.050  0.8144 -3.1751 -0.0835
  669MOL0     H90254   5.428   9.684   0.026  2.5650  0.6035  0.4345
  669MOL0     H90255   5.552   9.556  -0.018 -1.2097 -1.6017 -2.1277
  669MOL0     H90256   5.479   9.533  -0.234 -0.5123  0.1096  0.4449
  669MOL0     H90257   5.357   9.661  -0.227  1.1717 -0.0330 -1.2540
  669MOL0     H90258   5.660   9.703  -0.174  1.7091  2.1367 -0.0388
  669MOL0     H90259   5.589   9.724  -0.325  1.4264  2.0206  0.9590
  669MOL0     H90260   5.419   9.891  -0.235  0.0156  2.9537  0.6907
  669MOL0     H90261   5.528   9.892  -0.089  1.2309  1.0297  0.0150
  669MOL0     H90262   5.729   9.947  -0.214  1.1853  2.2952 -1.1430
  669MOL0     H90263   5.632   9.930  -0.366  1.7643 -0.9743  0.2224
  669MOL0     H90264   5.599  10.133  -0.144  3.3752 -3.9081  0.7849
  669MOL0     H90265   5.499  10.142  -0.286 -0.3379  0.7541  0.8908
  669MOL0     H90266   5.582  10.236  -0.517 -2.2776 -0.0843  1.9707
  669MOL0     H90267   5.857  10.483  -0.570  0.4693  0.7819 -3.0835
  669MOL0     H90268   5.762  10.371  -0.668 -1.2859 -0.6876  0.3634
  669MOL0     H90269   5.646  10.615  -0.507 -0.3213 -1.6060  1.1954
  669MOL0     H90270   5.548  10.505  -0.586 -0.6713  0.1134  1.5515
  669MOL0     H90271   5.768  10.571  -0.781  0.8781 -1.4925  2.3625
  669MOL0     H90272   5.702  10.720  -0.716 -3.3589  0.4698 -0.3870
  669MOL0     H90273   5.467  10.649  -0.781  0.4057 -0.3641  0.9017
  669MOL0     H90274   5.526  10.498  -0.856 -1.1829  1.7129 -1.8590
  669MOL0     H90275   5.645  10.851  -1.117 -0.1182 -0.1620  0.3513
  669MOL0     H90276   5.893  10.875  -1.329 -1.6179  4.4951  3.4185
  669MOL0     H90277   5.751  10.839  -1.436  0.5405 -0.1655 -0.4602
  669MOL0     H90278   5.740  10.944  -1.296  0.8183  0.0334  0.5778
  669MOL0     H90279   6.111  10.329  -1.348  1.1442 -0.6843 -0.2576
  669MOL0     H90280   6.277  10.216  -1.501 -0.2496 -0.6553  1.0525
  669MOL0     H90281   6.125  10.086  -1.865 -0.1489  0.0479  3.3430
  669MOL0     H90282   6.175  10.235  -1.945  0.7024  0.8379  1.2546
  669MOL0     H90283   6.268  10.049  -2.058 -0.0404 -1.8504  0.9386
  669MOL0     H90284   6.395  10.154  -1.987 -1.2415  1.5218 -0.9437
  669MOL0     H90285   6.319   9.874  -1.886 -1.3949  1.2124  1.7736
  669MOL0     H90286   6.386   9.989  -1.777  1.1768  0.2163 -0.0935
  669MOL0     H90287   6.523   9.916  -2.034  1.0700  2.1586 -0.7411
  669MOL0     H90288   6.593  10.007  -1.907  0.3122 -0.7018  3.1970
  669MOL0     H90289   6.512   9.712  -1.872 -2.7611  2.3469 -1.1024
  669MOL0     H90290   6.562   9.826  -1.740  3.4278  1.4882 -0.0068
  669MOL0     H90291   6.742   9.771  -1.990 -0.3967  3.1836 -1.0163
  669MOL0     H90292   6.789   9.847  -1.839 -0.8985 -0.1553  0.9179
  669MOL0     H90293   6.834   9.607  -1.886  0.9237  0.6398  0.7870
  669MOL0     H90294   6.673   9.564  -1.839  1.8493 -1.4798  1.2369
  669MOL0     H90295   6.701   9.685  -1.616 -2.8566 -1.8525 -3.0326
  669MOL0     H90296   6.864   9.729  -1.668 -2.7204  3.1677 -0.9436
  669MOL0     H90297   5.994  10.294  -1.830 -1.1745 -0.6412  0.2376
  669MOL0     H90298   5.845  10.396  -1.681 -1.2810  0.4934  0.9809
  669MOL0     H90299   5.869  10.417  -1.173 -1.2509 -0.3197  0.2004
  669MOL0     H90300   5.708  10.434  -1.000  1.0088  0.8640  1.7500
  669MOL0     H90301   5.225   9.756   0.363 -1.9379 -0.3561 -0.2423
  669MOL0     H90302   5.234   9.749   0.607 -0.0452 -0.0575  0.3286
  669MOL0     H90303   5.247   9.297   1.062 -1.4569  0.3649  0.7281
  669MOL0     H90304   5.331   9.322   1.289  0.3367  1.6847  1.2510
  669MOL0     H90305   5.348   9.416   1.495  0.7287 -3.5863  1.0077
  669MOL0     H90306   5.470   9.307   1.442  1.4105 -0.5801 -0.1670
  669MOL0     H90307   5.641   9.429   1.576  0.5823 -3.1796  1.4564
  669MOL0     H90308   5.519   9.345   1.678  0.0635  1.8175  2.6338
  669MOL0     H90309   5.392   9.564   1.696  0.3820  0.1596  0.1908
  669MOL0     H90310   5.506   9.643   1.599 -2.2677 -0.9261 -1.0362
  669MOL0     H90311   5.693   9.558   1.770 -0.8973 -0.8371 -0.3320
  669MOL0     H90312   5.569   9.508   1.876  1.4846 -0.7176 -0.3926
  669MOL0     H90313   5.612   9.931   1.881 -0.4027 -2.3073  5.2524
  669MOL0     H90314   5.540   9.679   1.165  0.5338 -0.6651  1.8583
  669MOL0     H90315   5.447   9.647   0.941 -2.0838 -0.1647  0.1128
  670MOL0     O90316   7.251   6.933   6.828  0.9247 -0.1067 -0.1129
  670MOL0     C90317   7.226   6.829   6.776 -0.7534 -0.3191  0.0910
  670MOL0     O90318   7.270   6.796   6.648  0.2996 -0.2882  0.6951
  670MOL0     C90319   7.334   6.884   6.571 -0.0708 -0.1221 -0.1787
  670MOL0     C90320   7.444   6.844   6.492 -2.1527 -0.7528 -1.1651
  670MOL0     C90321   7.515   6.926   6.399  0.9267 -0.8453 -0.0947
  670MOL0     C90322   7.481   7.061   6.397 -0.3615  0.6077 -0.5675
  670MOL0     O90323   7.569   7.143   6.332  0.1726  0.4657 -0.0286
  670MOL0     C90324   7.551   7.285   6.338  0.5350 -0.1032  0.8702
  670MOL0     C90325   7.505   7.323   6.196 -0.2135 -0.0607 -1.0408
  670MOL0     C90326   7.374   7.251   6.160  0.2070 -0.1057  0.9997
  670MOL0     C90327   7.302   7.304   6.038 -0.1385 -0.0336  0.5788
  670MOL0     C90328   7.195   7.208   5.969 -0.0235 -0.5436  0.3745
  670MOL0     C90329   7.106   7.145   6.076  0.0231 -0.0001 -0.6486
  670MOL0     C90330   6.994   7.064   6.001 -0.9644  0.0227 -0.5017
  670MOL0     C90331   6.892   7.161   5.942 -0.1511 -0.7949  0.4961
  670MOL0     N90332   6.848   7.260   6.033 -0.4591 -0.3062  0.5445
  670MOL0     C90333   6.728   7.257   6.101 -1.0142  0.1524  0.3382
  670MOL0     C90334   6.705   7.382   6.162 -0.6410  0.1961  0.3590
  670MOL0     C90335   6.595   7.403   6.258  0.4087  0.0496 -0.0084
  670MOL0     C90336   6.451   7.367   6.224  0.3046  0.8184 -0.0752
  670MOL0     C90337   6.353   7.458   6.290 -0.2816  0.3860 -0.4795
  670MOL0     C90338   6.212   7.445   6.227 -0.2468  0.6803  0.5599
  670MOL0     O90339   6.114   7.538   6.260  0.2764  0.2154 -0.3591
  670MOL0     C90340   6.137   7.669   6.246 -0.1277  0.6751 -0.0396
  670MOL0     C90341   6.102   7.743   6.138 -0.6789  0.1502  0.8247
  670MOL0     C90342   6.125   7.879   6.121 -0.3454  0.4703 -0.7517
  670MOL0     C90343   6.079   7.941   5.984 -0.3023 -0.3569  0.6283
  670MOL0     C90344   6.175   7.945   6.233  0.2168  0.2931 -0.1495
  670MOL0     C90345   6.189   8.091   6.241 -0.4660  0.0915  0.4671
  670MOL0     O90346   6.168   8.152   6.360  0.9784  0.0224  0.0432
  670MOL0     C90347   6.216   8.284   6.356  0.6773 -0.6804 -0.0587
  670MOL0     C90348   6.354   8.311   6.378  0.2880 -0.4745 -0.4074
  670MOL0     C90349   6.413   8.440   6.361 -0.1080  0.6432  0.1938
  670MOL0     C90350   6.332   8.549   6.318 -0.6111 -0.0236 -0.1539
  670MOL0     O90351   6.391   8.671   6.298  0.1147 -0.0388  0.0427
  670MOL0     C90352   6.403   8.735   6.174 -0.0158 -0.0971 -0.4831
  670MOL0     C90353   6.443   8.882   6.194  0.4859 -0.2989  0.1032
  670MOL0     C90354   6.580   8.907   6.254  0.7101  0.0307 -0.4645
  670MOL0     C90355   6.664   8.992   6.154 -0.4254  0.7700  0.3797
  670MOL0     C90356   6.807   8.992   6.197 -0.5819  0.1612  0.7090
  670MOL0     C90357   6.898   9.077   6.110  0.0748  0.0826 -0.7338
  670MOL0     C90358   7.050   9.039   6.137 -0.1509  0.2062  0.0622
  670MOL0     C90359   7.143   9.116   6.046 -0.1514 -0.1588  0.3247
  670MOL0    Cl90360   7.157   9.284   6.113  0.0499 -0.1976 -0.5517
  670MOL0     C90361   6.196   8.530   6.302  0.6876 -0.3487 -0.4348
  670MOL0     C90362   6.136   8.401   6.328 -0.7355 -0.8345  0.8786
  670MOL0     O90363   6.235   8.144   6.138 -0.7080  0.0548  0.0525
  670MOL0     C90364   6.194   7.870   6.355 -0.6173 -0.0254  0.6206
  670MOL0     C90365   6.169   7.735   6.352  0.1471 -0.1057 -1.5375
  670MOL0     N90366   6.811   7.464   6.109  0.2695  0.8132  0.5440
  670MOL0     N90367   6.898   7.382   6.045  0.0844  0.7880 -0.5407
  670MOL0     C90368   7.368   7.104   6.476 -0.0876 -0.0624  0.6945
  670MOL0     C90369   7.297   7.012   6.555  0.4379 -0.3948 -0.5159
  670MOL0     C90370   7.142   6.726   6.830 -0.2889 -0.3025  0.2169
  670MOL0     C90371   7.044   6.767   6.921 -0.1848  0.3520  0.1623
  670MOL0     C90372   6.956   6.670   6.973  0.1435 -0.1463 -0.0435
  670MOL0     C90373   6.962   6.534   6.926 -0.1070  0.3696  0.3949
  670MOL0     O90374   6.874   6.443   6.979  0.1477  0.3561 -0.2542
  670MOL0     C90375   6.881   6.312   6.939  0.0116  0.2208  0.6527
  670MOL0     C90376   6.754   6.232   6.989 -0.9236  0.0050  0.5296
  670MOL0     C90377   6.752   6.092   6.924 -0.2842  0.4426 -0.7272
  670MOL0     C90378   6.629   6.006   6.954 -0.0100 -0.5103  0.1025
  670MOL0     C90379   6.503   6.040   6.892 -0.3369  0.0915 -0.8276
  670MOL0     C90380   6.402   6.085   6.851  0.5499  0.1018 -0.0320
  670MOL0     C90381   7.060   6.499   6.832  0.4304  0.1764 -0.3525
  670MOL0     C90382   7.145   6.595   6.790  0.2776  0.1784  0.1672
  670MOL0     H90383   7.472   6.739   6.498  1.9360  0.2369  2.0111
  670MOL0     H90384   7.611   6.900   6.356  1.9937  0.9446  1.0577
  670MOL0     H90385   7.496   7.325   6.423  1.5565  1.1665  0.9598
  670MOL0     H90386   7.650   7.333   6.338 -0.0149  1.8518 -4.9902
  670MOL0     H90387   7.491   7.431   6.182 -1.7313 -0.3991 -2.4760
  670MOL0     H90388   7.578   7.290   6.121 -1.1929  0.7419 -2.4008
  670MOL0     H90389   7.398   7.151   6.124 -0.2228  0.8892 -2.4005
  670MOL0     H90390   7.299   7.238   6.239  1.0188  1.0389  1.9901
  670MOL0     H90391   7.246   7.391   6.073  0.2584  1.4221 -2.1317
  670MOL0     H90392   7.383   7.340   5.974  0.9732 -0.0904  1.9073
  670MOL0     H90393   7.137   7.270   5.900  0.2151  1.0606  1.5453
  670MOL0     H90394   7.246   7.120   5.930  1.7200 -0.4082  2.2245
  670MOL0     H90395   7.177   7.080   6.128  1.7507  2.7997  0.7304
  670MOL0     H90396   7.064   7.214   6.149  0.8196  0.1460 -0.3187
  670MOL0     H90397   7.039   6.999   5.925  0.2884  1.1522 -0.7697
  670MOL0     H90398   6.953   7.006   6.084  2.4343 -1.7821  0.1129
  670MOL0     H90399   6.805   7.111   5.898 -0.9137 -0.8336  1.9940
  670MOL0     H90400   6.943   7.208   5.857  0.0787 -1.8004  0.0644
  670MOL0     H90401   6.669   7.167   6.120  1.6710 -1.6062  0.9241
  670MOL0     H90402   6.613   7.335   6.342  0.3623  2.4891  2.0860
  670MOL0     H90403   6.603   7.503   6.303 -3.0902 -0.2845  1.6727
  670MOL0     H90404   6.443   7.260   6.248  3.4744  0.6295  0.6957
  670MOL0     H90405   6.439   7.392   6.118  1.9090 -0.6909 -0.6741
  670MOL0     H90406   6.397   7.558   6.293 -0.8616  0.6442 -0.3862
  670MOL0     H90407   6.350   7.435   6.397  0.0320  1.9964 -0.0939
  670MOL0     H90408   6.177   7.342   6.239  1.1545  0.3997  2.6799
  670MOL0     H90409   6.232   7.462   6.120  0.1884 -0.4784  0.4411
  670MOL0     H90410   6.085   7.695   6.042  1.0081 -0.7867  0.9414
  670MOL0     H90411   6.161   8.006   5.953 -1.7501  1.8977  1.3054
  670MOL0     H90412   6.051   7.875   5.901  0.9558  0.8591 -0.8082
  670MOL0     H90413   5.995   8.009   6.002 -1.7134 -1.7290 -0.4513
  670MOL0     H90414   6.406   8.220   6.404  0.9000  0.4963  2.0333
  670MOL0     H90415   6.516   8.468   6.382  0.5760 -1.0081 -0.8192
  670MOL0     H90416   6.481   8.679   6.121 -0.4647 -0.0307 -1.2232
  670MOL0     H90417   6.310   8.732   6.116  0.8256  2.1493 -2.0495
  670MOL0     H90418   6.429   8.951   6.111 -1.0176  1.7200  1.9191
  670MOL0     H90419   6.361   8.931   6.248 -1.1890 -1.2174 -1.4711
  670MOL0     H90420   6.630   8.814   6.282 -1.9824 -0.8526  1.8124
  670MOL0     H90421   6.565   8.959   6.349  1.4646 -1.8072  0.7134
  670MOL0     H90422   6.661   8.940   6.058  1.1713 -1.3288  1.3822
  670MOL0     H90423   6.626   9.094   6.144 -2.7800 -0.2944 -4.6384
  670MOL0     H90424   6.848   8.891   6.184  2.2945  1.4335 -0.9330
  670MOL0     H90425   6.823   9.031   6.298  2.4341 -1.4486  0.9676
  670MOL0     H90426   6.876   9.060   6.004 -1.4354  1.0587 -0.6101
  670MOL0     H90427   6.875   9.179   6.142  0.2536 -0.0486 -0.1834
  670MOL0     H90428   7.054   8.941   6.088 -7.1418 -0.8426  0.4763
  670MOL0     H90429   7.075   9.046   6.243 -2.0945 -2.0368  0.7690
  670MOL0     H90430   7.089   9.123   5.951  1.4517  0.0694 -0.6036
  670MOL0     H90431   7.243   9.071   6.037  0.1241  0.7462 -1.5265
  670MOL0     H90432   6.135   8.616   6.278  1.0464 -0.0756 -0.3782
  670MOL0     H90433   6.030   8.387   6.313 -0.6212 -0.8847  0.0894
  670MOL0     H90434   6.222   7.910   6.452  1.0221 -2.3167  1.1801
  670MOL0     H90435   6.191   7.678   6.441 -0.9242  2.4127  0.4903
  670MOL0     H90436   7.339   7.207   6.460  1.9705  0.5847  0.8722
  670MOL0     H90437   7.210   7.048   6.608  0.8194  0.6661 -0.5951
  670MOL0     H90438   7.042   6.873   6.947  0.1037  0.7238 -1.2381
  670MOL0     H90439   6.873   6.706   7.033 -1.5532 -1.9965 -1.1315
  670MOL0     H90440   6.883   6.292   6.832  0.7553 -3.7004  1.2468
  670MOL0     H90441   6.973   6.258   6.964 -0.9859 -2.6532 -1.3679
  670MOL0     H90442   6.666   6.290   6.961 -0.0619  0.1540 -2.1766
  670MOL0     H90443   6.768   6.218   7.097  3.5787 -1.9678 -0.0745
  670MOL0     H90444   6.837   6.037   6.964 -0.1677 -1.0867 -2.9314
  670MOL0     H90445   6.751   6.110   6.816 -2.0464  1.2307 -0.6165
  670MOL0     H90446   6.626   6.018   7.063 -1.0374  0.4417 -0.0144
  670MOL0     H90447   6.654   5.900   6.939  0.0604 -0.3856 -0.7076
  670MOL0     H90448   6.312   6.129   6.812  0.3345 -0.2534  0.0594
  670MOL0     H90449   7.080   6.400   6.791  0.7419  0.2685 -0.4258
  670MOL0     H90450   7.215   6.573   6.711  0.6523  1.2379  0.1934
  671MOL0     O90451   8.595   5.158  10.006  0.2234  0.5245 -0.4942
  671MOL0     C90452   8.706   5.166   9.955  0.0579 -1.0883  0.2969
  671MOL0     O90453   8.753   5.278   9.882  0.2992 -0.5842  0.2477
  671MOL0     C90454   8.664   5.379   9.842 -0.1674  0.4314  0.6981
  671MOL0     C90455   8.693   5.512   9.881 -0.7542  0.8390  0.3904
  671MOL0     C90456   8.599   5.612   9.848 -0.4439  0.5909 -0.2949
  671MOL0     C90457   8.496   5.584   9.751  0.1873  0.3805 -0.7576
  671MOL0     O90458   8.416   5.682   9.700 -0.2087  0.6101 -0.2581
  671MOL0     C90459   8.281   5.642   9.654  0.2848  0.6145  0.0596
  671MOL0     C90460   8.191   5.767   9.639 -0.7052 -0.3134 -0.2936
  671MOL0     C90461   8.049   5.720   9.599  0.4401  0.4949 -0.4111
  671MOL0     C90462   7.945   5.827   9.597 -0.0505 -0.6546  1.0531
  671MOL0     C90463   7.823   5.782   9.504 -0.7955  0.2252 -0.6203
  671MOL0     C90464   7.719   5.892   9.481 -0.1386  0.2754  0.6438
  671MOL0     C90465   7.770   6.008   9.406 -0.8506 -0.8788  0.4351
  671MOL0     C90466   7.678   6.128   9.405 -0.5491 -0.1907 -0.0160
  671MOL0     N90467   7.539   6.099   9.363 -0.2143 -0.6421 -0.0829
  671MOL0     C90468   7.429   6.118   9.446 -0.1091 -0.6345  0.1811
  671MOL0     C90469   7.331   6.101   9.361  0.7662  0.7451  0.0141
  671MOL0     C90470   7.189   6.078   9.413 -0.7648  0.1300  0.1060
  671MOL0     C90471   7.156   5.936   9.355 -0.3685 -0.0810 -0.5813
  671MOL0     C90472   7.026   5.897   9.425  0.4983 -0.7904  0.1717
  671MOL0     C90473   6.904   5.975   9.380  0.4504  0.0595 -0.1803
  671MOL0     O90474   6.821   5.986   9.498 -0.5923 -0.3816 -0.3782
  671MOL0     C90475   6.686   5.968   9.485  0.6304 -0.2809 -0.1474
  671MOL0     C90476   6.610   6.020   9.377 -0.5357 -0.3197 -0.1467
  671MOL0     C90477   6.471   5.995   9.364 -0.3396  0.8311 -0.3586
  671MOL0     C90478   6.406   6.033   9.232  0.9885  0.3131 -0.1533
  671MOL0     C90479   6.408   5.940   9.471  0.4330  0.3023  0.0851
  671MOL0     C90480   6.260   5.913   9.467  1.2643  0.4651 -0.1544
  671MOL0     O90481   6.207   5.859   9.348  0.6629 -0.0572  0.3463
  671MOL0     C90482   6.076   5.885   9.313  0.0513 -0.1335 -0.2714
  671MOL0     C90483   5.998   5.989   9.352  0.3499 -0.4653  0.1058
  671MOL0     C90484   5.876   6.015   9.289  1.2678  0.1292 -0.1398
  671MOL0     C90485   5.821   5.939   9.186  0.0773 -0.4442  0.5952
  671MOL0     O90486   5.694   5.974   9.142  0.3370 -0.1392 -0.3845
  671MOL0     C90487   5.620   5.874   9.083  0.0403  0.4966 -0.2070
  671MOL0     C90488   5.480   5.941   9.047 -0.0950 -0.0725 -0.0531
  671MOL0     C90489   5.413   5.863   8.927 -0.0224 -0.2852 -0.1232
  671MOL0     C90490   5.300   5.937   8.847  0.4568  0.4793  0.2166
  671MOL0     C90491   5.274   5.860   8.720 -0.4113 -0.8737 -0.1555
  671MOL0     C90492   5.183   5.945   8.620 -0.3985  0.3897 -1.3197
  671MOL0     C90493   5.143   5.862   8.493 -1.0015 -0.1075  0.1408
  671MOL0     C90494   5.050   5.946   8.410 -0.6803 -0.0439 -0.5822
  671MOL0    Cl90495   5.119   6.101   8.346  0.4811 -0.4528  0.3832
  671MOL0     C90496   5.901   5.826   9.146 -0.4218  0.5447 -0.6502
  671MOL0     C90497   6.032   5.801   9.214 -0.5836  0.4970 -0.9688
  671MOL0     O90498   6.193   5.930   9.569  0.4285  0.2789  0.4397
  671MOL0     C90499   6.481   5.900   9.583 -0.5613 -0.1682 -0.0226
  671MOL0     C90500   6.625   5.904   9.588  0.6092 -0.4519  0.3690
  671MOL0     N90501   7.376   6.086   9.227  0.0814 -0.0693 -0.2214
  671MOL0     N90502   7.504   6.087   9.230  0.7434  0.1224 -0.6144
  671MOL0     C90503   8.481   5.457   9.701 -0.3097  0.0609 -0.6677
  671MOL0     C90504   8.557   5.357   9.754  0.4708  0.0818  0.1709
  671MOL0     C90505   8.799   5.061   9.971  0.1457 -0.8419  0.4008
  671MOL0     C90506   8.924   5.044   9.897 -1.1450 -0.7286  0.1401
  671MOL0     C90507   9.011   4.936   9.910 -0.0886  0.0367 -0.3898
  671MOL0     C90508   8.977   4.837  10.001  0.3951 -0.1453  0.2987
  671MOL0     O90509   9.049   4.728  10.038  0.2482  0.5717 -0.0067
  671MOL0     C90510   9.179   4.704   9.978  0.1029  0.7900 -0.0182
  671MOL0     C90511   9.260   4.590  10.060 -0.7233  0.0405 -0.2721
  671MOL0     C90512   9.270   4.626  10.209 -0.1657  0.4483 -0.1108
  671MOL0     C90513   9.373   4.543  10.277 -0.5103 -0.3942  0.8917
  671MOL0     C90514   9.376   4.605  10.416 -0.7631  1.2712 -0.4243
  671MOL0     C90515   9.363   4.655  10.526  0.5174  0.0553 -0.8219
  671MOL0     C90516   8.862   4.851  10.087  0.4697 -0.4265  0.4695
  671MOL0     C90517   8.774   4.952  10.065 -0.1075 -0.7509  0.3130
  671MOL0     H90518   8.784   5.540   9.932 -0.3407  0.0348  0.1064
  671MOL0     H90519   8.612   5.715   9.881  1.8740  0.4250 -0.5354
  671MOL0     H90520   8.277   5.609   9.550 -3.0536  2.0278 -0.3926
  671MOL0     H90521   8.237   5.567   9.720  1.9345  0.0815  0.5870
  671MOL0     H90522   8.198   5.814   9.738  2.0851 -1.3863  0.1203
  671MOL0     H90523   8.228   5.840   9.567 -0.8056 -2.5390 -2.7354
  671MOL0     H90524   8.052   5.683   9.496 -0.0593  0.1411 -0.3029
  671MOL0     H90525   8.007   5.632   9.649 -1.2934  2.5440  2.0220
  671MOL0     H90526   7.904   5.847   9.697 -0.0469 -1.0362  1.1315
  671MOL0     H90527   7.994   5.918   9.561  2.8865 -1.5165  2.5539
  671MOL0     H90528   7.858   5.739   9.410 -3.2318  0.1953 -1.6067
  671MOL0     H90529   7.765   5.705   9.555  0.4285 -0.1437  0.2524
  671MOL0     H90530   7.634   5.871   9.416 -2.3265  0.3662  3.3045
  671MOL0     H90531   7.684   5.923   9.580  2.8275  1.0792  1.5389
  671MOL0     H90532   7.869   6.046   9.431 -1.0098  0.2221 -0.5077
  671MOL0     H90533   7.785   5.990   9.299  0.4152  3.8628 -0.4150
  671MOL0     H90534   7.713   6.192   9.324  3.5804 -0.7867  1.0945
  671MOL0     H90535   7.689   6.182   9.500  2.6505 -1.3255  0.3694
  671MOL0     H90536   7.431   6.124   9.555 -1.5160 -0.2579  0.2059
  671MOL0     H90537   7.183   6.084   9.522 -3.0235 -2.4407  0.1997
  671MOL0     H90538   7.118   6.153   9.377 -2.9516 -1.5344  0.7704
  671MOL0     H90539   7.235   5.866   9.383  0.5797  0.9830 -0.4864
  671MOL0     H90540   7.153   5.929   9.246  0.1953  0.5573 -0.6474
  671MOL0     H90541   7.029   5.910   9.534 -2.4207 -0.9745  0.3533
  671MOL0     H90542   7.026   5.791   9.395 -0.6336 -0.0355 -2.9247
  671MOL0     H90543   6.861   5.933   9.289  0.7922 -2.4261  0.7134
  671MOL0     H90544   6.939   6.076   9.358 -0.2184  0.5120  0.7581
  671MOL0     H90545   6.664   6.075   9.300 -2.6109  0.5734 -1.0477
  671MOL0     H90546   6.472   6.082   9.160 -1.7722 -0.6008 -3.5778
  671MOL0     H90547   6.363   5.951   9.174  0.0792 -0.7517  1.9092
  671MOL0     H90548   6.324   6.103   9.251  0.4099  0.3694 -2.5115
  671MOL0     H90549   6.025   6.053   9.435 -1.8395 -3.2328  3.2570
  671MOL0     H90550   5.810   6.090   9.330  1.2945  0.2524 -0.3238
  671MOL0     H90551   5.660   5.846   8.985 -0.2074  1.2135 -0.5211
  671MOL0     H90552   5.608   5.785   9.145  1.6878  1.6252  1.8475
  671MOL0     H90553   5.417   5.941   9.136  0.5533  0.9568  0.4224
  671MOL0     H90554   5.503   6.043   9.017  0.9578 -0.6494 -1.3141
  671MOL0     H90555   5.377   5.766   8.964 -1.2047 -0.5303 -1.8179
  671MOL0     H90556   5.491   5.838   8.855 -1.9080  0.0073 -2.4048
  671MOL0     H90557   5.213   5.957   8.910  1.2241  2.1961  0.7774
  671MOL0     H90558   5.319   6.043   8.826  0.8420  0.5478  0.8667
  671MOL0     H90559   5.225   5.767   8.749 -0.4849 -0.8475 -0.1973
  671MOL0     H90560   5.373   5.840   8.677  1.2120  0.1721  2.7938
  671MOL0     H90561   5.091   5.961   8.678  0.2456 -1.3560  0.2994
  671MOL0     H90562   5.245   6.031   8.593 -0.6926  0.4067 -1.9591
  671MOL0     H90563   5.102   5.765   8.522  0.4791 -1.0716 -0.8611
  671MOL0     H90564   5.233   5.837   8.436  0.9148  1.6316  2.2009
  671MOL0     H90565   4.959   5.971   8.466 -1.1739 -2.9948  0.0956
  671MOL0     H90566   5.021   5.888   8.322  2.2054 -1.4031 -0.7633
  671MOL0     H90567   5.868   5.753   9.074  3.3204  0.3136 -2.3804
  671MOL0     H90568   6.090   5.717   9.176 -1.1045  0.4620 -1.7039
  671MOL0     H90569   6.427   5.872   9.673 -2.8757  1.1965 -0.8913
  671MOL0     H90570   6.688   5.875   9.672 -0.2762 -1.9915  0.5517
  671MOL0     H90571   8.417   5.437   9.616  0.7594  0.4559 -1.5962
  671MOL0     H90572   8.540   5.255   9.721  0.9897  0.4450 -1.3066
  671MOL0     H90573   8.941   5.113   9.816  0.4852 -0.9631  0.2486
  671MOL0     H90574   9.085   4.905   9.837 -2.1345 -0.3304 -2.4332
  671MOL0     H90575   9.160   4.677   9.874 -0.5787 -0.6404  0.4517
  671MOL0     H90576   9.252   4.785   9.991  2.1989 -0.9160 -0.4751
  671MOL0     H90577   9.356   4.581  10.008 -1.0481  1.8084 -1.2450
  671MOL0     H90578   9.206   4.496  10.051  2.3936 -1.8497 -0.6065
  671MOL0     H90579   9.173   4.615  10.259 -0.4290 -3.4805 -1.1944
  671MOL0     H90580   9.296   4.732  10.212  2.1388 -0.0394 -0.9425
  671MOL0     H90581   9.471   4.568  10.235 -0.1601 -2.3572  0.4689
  671MOL0     H90582   9.367   4.434  10.275 -2.0201 -0.3351  0.9370
  671MOL0     H90583   9.362   4.699  10.624 -0.7563 -1.0034 -0.3238
  671MOL0     H90584   8.845   4.770  10.157  0.4361 -2.7305 -2.0524
  671MOL0     H90585   8.688   4.952  10.130  0.2185  1.0579  0.7765
  672MOL0     O90586   4.873   7.656   0.038  0.0458 -0.9346 -0.8227
  672MOL0     C90587   4.975   7.594   0.065 -0.0077  0.3680 -0.2113
  672MOL0     O90588   5.052   7.620   0.179  0.4210 -0.3487  0.1049
  672MOL0     C90589   4.991   7.696   0.281 -0.6092  0.1662  0.0313
  672MOL0     C90590   4.905   7.644   0.387  0.2549  0.2074  0.3070
  672MOL0     C90591   4.871   7.724   0.496  0.5148 -0.3280  0.0370
  672MOL0     C90592   4.907   7.857   0.500  0.6539 -0.0166 -0.6905
  672MOL0     O90593   4.876   7.930   0.615  0.3448  0.3419  0.7054
  672MOL0     C90594   4.916   8.065   0.618  0.1514 -1.2230 -0.0619
  672MOL0     C90595   4.900   8.124   0.760 -0.1747  0.2231 -1.0455
  672MOL0     C90596   4.917   8.275   0.749 -0.1358 -0.6281  0.0384
  672MOL0     C90597   4.942   8.343   0.885  0.0083  0.1547  0.0816
  672MOL0     C90598   5.079   8.321   0.958  0.1523  1.0684 -0.2095
  672MOL0     C90599   5.197   8.370   0.874 -0.6857  0.4352  0.5181
  672MOL0     C90600   5.346   8.349   0.940 -0.4818  1.3061 -0.4291
  672MOL0     C90601   5.391   8.201   0.960 -0.4274 -1.4538 -1.0326
  672MOL0     N90602   5.404   8.126   0.832  0.2966 -0.3603 -0.1229
  672MOL0     C90603   5.335   8.015   0.792  0.3377  0.5450  0.8315
  672MOL0     C90604   5.370   8.001   0.662  0.1724  0.6741  0.7530
  672MOL0     C90605   5.328   7.898   0.554  0.6526 -0.3949 -0.1890
  672MOL0     C90606   5.446   7.815   0.520  1.3161  0.4332  0.3682
  672MOL0     C90607   5.414   7.699   0.423 -0.1826 -0.1902 -0.0292
  672MOL0     C90608   5.287   7.615   0.454 -0.3235 -0.7696 -0.6680
  672MOL0     O90609   5.294   7.493   0.386  0.2528  0.1316 -0.3931
  672MOL0     C90610   5.192   7.407   0.391 -0.6186  0.3700  0.4906
  672MOL0     C90611   5.102   7.416   0.504 -0.3690  0.9231 -0.0898
  672MOL0     C90612   5.003   7.321   0.527  0.0094 -0.2351 -0.2926
  672MOL0     C90613   4.921   7.339   0.652 -0.4158 -0.3580 -0.0623
  672MOL0     C90614   4.988   7.211   0.437 -0.5182  0.3022  0.5754
  672MOL0     C90615   4.902   7.090   0.458 -0.7856  0.0804  0.6269
  672MOL0     O90616   4.969   6.971   0.452 -0.4776  0.3011 -0.2753
  672MOL0     C90617   4.926   6.858   0.493 -0.5303  0.0947 -0.2120
  672MOL0     C90618   5.013   6.771   0.558 -0.0386 -0.0809 -0.9353
  672MOL0     C90619   4.962   6.642   0.595 -0.0974 -0.4554 -0.9462
  672MOL0     C90620   4.839   6.596   0.549  0.0457 -0.0258 -0.1035
  672MOL0     O90621   4.791   6.466   0.575  0.4017 -0.5873  0.3886
  672MOL0     C90622   4.852   6.346   0.514  0.1191 -0.1938 -0.3120
  672MOL0     C90623   4.825   6.229   0.606 -0.8060  0.7980  0.4959
  672MOL0     C90624   4.915   6.119   0.545  0.8263  0.6038 -0.6311
  672MOL0     C90625   4.867   5.982   0.596  0.4715 -0.2806 -0.7386
  672MOL0     C90626   4.993   5.888   0.615  0.5155 -0.1955 -0.5138
  672MOL0     C90627   4.986   5.736   0.597  0.4197  0.3708 -0.1775
  672MOL0     C90628   4.952   5.705   0.450  0.0809  0.0417 -0.3895
  672MOL0     C90629   4.980   5.562   0.406 -0.0150  0.4167 -0.4847
  672MOL0    Cl90630   4.872   5.445   0.491 -0.0098  0.1577  0.3409
  672MOL0     C90631   4.758   6.688   0.481  0.9636 -0.7260  0.0127
  672MOL0     C90632   4.799   6.816   0.453  0.0643  0.1796  0.1580
  672MOL0     O90633   4.779   7.103   0.463 -0.4399 -0.4691  0.0704
  672MOL0     C90634   5.083   7.201   0.328  0.1566 -0.7402  0.0713
  672MOL0     C90635   5.178   7.298   0.308  0.6839  0.2033 -0.1853
  672MOL0     N90636   5.448   8.100   0.626 -0.1157 -0.5726 -0.3555
  672MOL0     N90637   5.473   8.175   0.726 -0.8976 -0.2423 -0.2687
  672MOL0     C90638   4.989   7.907   0.401  0.0460  0.5231  0.2998
  672MOL0     C90639   5.033   7.821   0.301  0.2613 -1.6190 -0.8369
  672MOL0     C90640   5.042   7.497  -0.029  0.2406  0.5573  0.2315
  672MOL0     C90641   4.976   7.434  -0.144  0.0799  0.0915 -0.4452
  672MOL0     C90642   5.047   7.339  -0.226  0.2418  0.0515 -0.1867
  672MOL0     C90643   5.179   7.307  -0.202 -0.0249 -0.5010 -0.3960
  672MOL0     O90644   5.255   7.217  -0.257 -0.1916  0.0107  0.0379
  672MOL0     C90645   5.190   7.136  -0.360  0.3798  0.2388 -0.4940
  672MOL0     C90646   5.268   7.002  -0.363  0.4848  0.0058  0.1304
  672MOL0     C90647   5.418   7.004  -0.368 -0.5258  0.4683 -0.1315
  672MOL0     C90648   5.482   6.872  -0.392 -0.5048 -0.3493 -0.1701
  672MOL0     C90649   5.620   6.880  -0.443  0.0852 -0.7277 -1.2304
  672MOL0     C90650   5.739   6.903  -0.464  0.8651  0.1792  1.0340
  672MOL0     C90651   5.246   7.367  -0.091 -0.0406  1.1800 -0.2950
  672MOL0     C90652   5.178   7.458  -0.002 -0.7006  0.0506 -0.0812
  672MOL0     H90653   4.876   7.541   0.371 -0.0955  0.9068 -5.3768
  672MOL0     H90654   4.822   7.666   0.573  0.1454 -2.2142 -1.5520
  672MOL0     H90655   5.021   8.081   0.591  0.0119 -3.6451 -2.4416
  672MOL0     H90656   4.868   8.144   0.560  0.6265  1.6879  3.1464
  672MOL0     H90657   4.799   8.096   0.792  0.1283 -0.2325 -0.4628
  672MOL0     H90658   4.975   8.083   0.830 -0.4235 -0.0091 -0.9130
  672MOL0     H90659   5.002   8.302   0.686  0.4132  2.0568  1.7585
  672MOL0     H90660   4.831   8.318   0.697  1.1909 -0.8443 -2.4659
  672MOL0     H90661   4.934   8.451   0.867  1.9419  0.1416 -1.2315
  672MOL0     H90662   4.859   8.318   0.952 -1.0017  1.0968 -0.7716
  672MOL0     H90663   5.070   8.371   1.055 -1.7917  2.5990 -1.0880
  672MOL0     H90664   5.080   8.213   0.970 -4.9042  0.1780 -4.1429
  672MOL0     H90665   5.206   8.304   0.787 -0.4084  0.3823  0.5842
  672MOL0     H90666   5.188   8.478   0.853 -3.0703  0.4931  1.5852
  672MOL0     H90667   5.428   8.396   0.886  1.2780 -0.4336  0.6030
  672MOL0     H90668   5.350   8.387   1.042  0.4675  0.1985 -0.0296
  672MOL0     H90669   5.319   8.145   1.020 -2.4920  1.2105 -0.8747
  672MOL0     H90670   5.486   8.197   1.015 -0.9216 -0.7908 -0.1146
  672MOL0     H90671   5.251   7.967   0.840 -2.1928  0.0967 -3.5641
  672MOL0     H90672   5.255   7.826   0.592  0.5628 -2.3454 -3.6713
  672MOL0     H90673   5.277   7.945   0.470  3.0982 -1.9644 -2.6902
  672MOL0     H90674   5.474   7.768   0.615 -3.0420 -2.4571  0.5100
  672MOL0     H90675   5.522   7.877   0.473  2.4050 -0.8371  0.3913
  672MOL0     H90676   5.495   7.626   0.420  0.3456  0.4196 -0.7640
  672MOL0     H90677   5.404   7.740   0.323 -2.1378 -1.7983 -0.5747
  672MOL0     H90678   5.199   7.672   0.423 -0.4353  0.3768  1.5792
  672MOL0     H90679   5.293   7.600   0.562 -0.5544 -1.8851 -0.7984
  672MOL0     H90680   5.110   7.489   0.584  0.6212 -0.4625  1.1367
  672MOL0     H90681   4.977   7.329   0.745 -0.4804  0.5867  0.0891
  672MOL0     H90682   4.871   7.436   0.650  0.7488  0.2529  0.1684
  672MOL0     H90683   4.835   7.270   0.657 -2.1873  1.7217 -0.2578
  672MOL0     H90684   5.118   6.790   0.575 -0.2673 -1.8156  3.9251
  672MOL0     H90685   5.012   6.561   0.646  1.8153  0.8156 -0.6911
  672MOL0     H90686   4.804   6.335   0.416 -1.1591 -0.2594  0.2997
  672MOL0     H90687   4.960   6.362   0.506  0.1804 -1.4258 -3.3879
  672MOL0     H90688   4.839   6.256   0.711 -1.1890  0.4099  0.6514
  672MOL0     H90689   4.721   6.195   0.596 -0.3855 -0.4008  0.0839
  672MOL0     H90690   5.019   6.137   0.574  0.4793 -0.2657  1.3212
  672MOL0     H90691   4.912   6.113   0.435 -0.5317 -2.2109 -0.5381
  672MOL0     H90692   4.812   6.003   0.689 -2.4916  0.5587 -2.5594
  672MOL0     H90693   4.796   5.925   0.537  1.6353 -2.5558 -0.0539
  672MOL0     H90694   5.052   5.905   0.705 -0.7443  0.7612  0.1536
  672MOL0     H90695   5.069   5.914   0.541 -1.1775 -0.0620 -2.3119
  672MOL0     H90696   5.079   5.686   0.623  0.4118  1.4301  2.1223
  672MOL0     H90697   4.918   5.682   0.663  1.6480 -2.5661 -1.1407
  672MOL0     H90698   5.009   5.773   0.386 -1.6875  1.7365 -0.2421
  672MOL0     H90699   4.849   5.732   0.426  0.5542  1.1752 -1.2139
  672MOL0     H90700   5.084   5.535   0.429 -0.2472 -1.2476 -1.2434
  672MOL0     H90701   4.965   5.539   0.300  0.1989  0.3448 -0.5010
  672MOL0     H90702   4.660   6.653   0.449  0.0870 -0.7932  2.5176
  672MOL0     H90703   4.738   6.878   0.388 -0.3084  1.1761  1.4186
  672MOL0     H90704   5.084   7.116   0.261  1.1496 -1.8394  1.4242
  672MOL0     H90705   5.250   7.286   0.228  1.4913 -0.0966  0.5570
  672MOL0     H90706   5.007   8.014   0.397 -1.2219  0.6953 -1.6609
  672MOL0     H90707   5.101   7.871   0.233  1.5855  1.1558  2.1911
  672MOL0     H90708   4.874   7.464  -0.166  0.0944  0.8961  0.4992
  672MOL0     H90709   4.991   7.295  -0.309 -1.6586 -1.0231  1.5663
  672MOL0     H90710   5.088   7.118  -0.327  1.0463  1.7100  2.8004
  672MOL0     H90711   5.192   7.181  -0.460  1.6181 -0.4641 -0.8003
  672MOL0     H90712   5.223   6.942  -0.442  2.6404 -0.4042 -0.8774
  672MOL0     H90713   5.231   6.950  -0.274 -0.7897 -2.0825 -1.5323
  672MOL0     H90714   5.454   7.042  -0.271 -1.2253  1.8851 -0.3990
  672MOL0     H90715   5.439   7.080  -0.443  2.1097 -1.9533 -2.0272
  672MOL0     H90716   5.434   6.817  -0.474  2.1181  0.3049 -2.2868
  672MOL0     H90717   5.471   6.818  -0.297 -0.5395  1.0929  0.6654
  672MOL0     H90718   5.839   6.941  -0.471  0.4913  1.2699  1.5064
  672MOL0     H90719   5.347   7.339  -0.065 -0.3474  2.1102  2.1799
  672MOL0     H90720   5.248   7.498   0.070 -0.2344  2.2380 -1.6587
  673MOL0     O90721   9.202   4.822   8.584 -0.6058  0.3542 -0.0793
  673MOL0     C90722   9.259   4.861   8.689  0.0227  0.8635 -0.4276
  673MOL0     O90723   9.191   4.920   8.793 -0.5334 -0.1488  0.1444
  673MOL0     C90724   9.061   4.961   8.771 -0.2156 -1.0297  0.1924
  673MOL0     C90725   8.945   4.907   8.827 -0.0161 -0.2975  0.8387
  673MOL0     C90726   8.816   4.968   8.816  0.0518 -0.8152  0.2446
  673MOL0     C90727   8.808   5.092   8.748  0.6911 -0.1327 -1.0375
  673MOL0     O90728   8.688   5.159   8.728  0.1127 -0.3335 -1.2825
  673MOL0     C90729   8.575   5.135   8.809 -0.6797  0.5030  0.7175
  673MOL0     C90730   8.494   5.257   8.796  0.0888  0.3692  0.5756
  673MOL0     C90731   8.429   5.255   8.654  0.5344 -0.4983  0.5414
  673MOL0     C90732   8.334   5.372   8.658 -0.0954 -0.1642  0.4617
  673MOL0     C90733   8.250   5.381   8.528 -0.2660  0.0003 -0.4584
  673MOL0     C90734   8.102   5.427   8.555 -0.4791  0.2417  0.2977
  673MOL0     C90735   8.015   5.471   8.429  0.1915  0.0672 -0.1770
  673MOL0     C90736   7.986   5.627   8.415 -0.0521  0.3531  0.2273
  673MOL0     N90737   8.087   5.711   8.346 -0.2005 -0.2526 -0.0358
  673MOL0     C90738   8.224   5.706   8.365  0.3871 -0.4492 -0.7503
  673MOL0     C90739   8.285   5.796   8.284 -0.2117  0.4149 -0.3338
  673MOL0     C90740   8.428   5.849   8.312  0.8790  0.2845 -0.6780
  673MOL0     C90741   8.539   5.762   8.242 -0.8457 -0.3289  0.0113
  673MOL0     C90742   8.678   5.822   8.256 -0.4912 -0.1007  0.7036
  673MOL0     C90743   8.691   5.970   8.214 -0.4870  0.4190  0.5804
  673MOL0     O90744   8.612   6.008   8.090  0.0296  1.2177  0.0603
  673MOL0     C90745   8.609   6.134   8.043  1.2344 -0.8657 -0.2504
  673MOL0     C90746   8.707   6.229   8.057 -0.3025 -1.0548  0.6516
  673MOL0     C90747   8.693   6.368   8.021  0.0482  0.3848 -0.7586
  673MOL0     C90748   8.800   6.465   8.067  0.6575  0.1664  0.1793
  673MOL0     C90749   8.572   6.409   7.965 -0.0496 -0.7356  0.5212
  673MOL0     C90750   8.525   6.554   7.935 -0.7578 -0.2757  1.4051
  673MOL0     O90751   8.467   6.577   7.811  0.0113  0.9052 -0.3264
  673MOL0     C90752   8.407   6.694   7.790  0.8188  0.3999  0.4706
  673MOL0     C90753   8.358   6.785   7.883 -0.3464 -0.1383  0.1059
  673MOL0     C90754   8.305   6.911   7.854 -0.2848  0.0836  0.2252
  673MOL0     C90755   8.300   6.963   7.724  0.1584  0.4532 -0.3699
  673MOL0     O90756   8.252   7.093   7.716  0.4932  1.0493  1.2248
  673MOL0     C90757   8.168   7.130   7.610  0.3411  0.4090 -0.0354
  673MOL0     C90758   8.082   7.255   7.658  0.2114  0.4991 -1.2074
  673MOL0     C90759   7.977   7.294   7.557  0.8586  0.5953  0.7505
  673MOL0     C90760   7.923   7.435   7.570 -0.2296 -0.7746  0.0020
  673MOL0     C90761   7.809   7.467   7.467  0.9965 -0.0043 -0.1178
  673MOL0     C90762   7.737   7.587   7.532 -0.1661 -0.7576 -0.5220
  673MOL0     C90763   7.630   7.650   7.444 -0.2912 -0.1383  0.3492
  673MOL0     C90764   7.673   7.698   7.304 -0.4390 -0.1881  0.8141
  673MOL0    Cl90765   7.794   7.830   7.328  0.1161 -0.0661  0.5624
  673MOL0     C90766   8.330   6.876   7.622 -0.0635 -0.6543  0.0841
  673MOL0     C90767   8.381   6.740   7.656  0.4154  0.9067 -0.3402
  673MOL0     O90768   8.555   6.644   8.013  0.6682  0.7689 -0.9061
  673MOL0     C90769   8.480   6.300   7.929  0.3334 -0.0833 -0.1606
  673MOL0     C90770   8.498   6.167   7.965  0.8713 -1.0464  0.4417
  673MOL0     N90771   8.183   5.853   8.203 -0.2096  0.4034  0.4464
  673MOL0     N90772   8.068   5.797   8.240  0.2785  0.0099 -0.3256
  673MOL0     C90773   8.922   5.148   8.703 -0.5179 -0.8343  0.9127
  673MOL0     C90774   9.046   5.084   8.708 -0.8331  1.1047 -0.0564
  673MOL0     C90775   9.405   4.860   8.692 -0.1547  0.3364 -0.4413
  673MOL0     C90776   9.473   4.926   8.796 -0.9022 -0.6689 -0.7960
  673MOL0     C90777   9.615   4.918   8.798  0.0028 -0.1746  0.1126
  673MOL0     C90778   9.683   4.839   8.706 -0.0334  0.2593 -0.4349
  673MOL0     O90779   9.815   4.802   8.714  0.0964 -0.4377  1.1356
  673MOL0     C90780   9.865   4.780   8.844 -0.0955  0.3803 -0.2094
  673MOL0     C90781  10.016   4.739   8.846  0.9687  0.1371 -0.4665
  673MOL0     C90782  10.115   4.866   8.830  0.5953  0.0040  0.0651
  673MOL0     C90783  10.237   4.852   8.904 -0.6693  0.6859  0.0974
  673MOL0     C90784  10.291   4.725   8.871 -0.0855 -0.1608  0.4950
  673MOL0     C90785  10.341   4.620   8.833  0.1956  0.9526  0.0864
  673MOL0     C90786   9.608   4.774   8.607 -0.1277 -1.0747 -0.0057
  673MOL0     C90787   9.469   4.787   8.596  0.0142  1.0474 -0.7989
  673MOL0     H90788   8.954   4.815   8.883 -0.2682  0.5878  2.3795
  673MOL0     H90789   8.734   4.920   8.870  2.0698 -3.2426  1.3741
  673MOL0     H90790   8.521   5.042   8.789  1.2048 -0.2788 -1.0777
  673MOL0     H90791   8.607   5.144   8.913  0.5536  0.4044  0.3592
  673MOL0     H90792   8.420   5.260   8.876  0.5275  0.7098  0.9764
  673MOL0     H90793   8.542   5.355   8.806  1.8735  0.4541 -5.1331
  673MOL0     H90794   8.506   5.262   8.577  0.5614 -1.6138  0.4494
  673MOL0     H90795   8.378   5.164   8.623  2.3913 -1.2798 -0.4024
  673MOL0     H90796   8.269   5.356   8.744  1.4011 -1.7887  1.3552
  673MOL0     H90797   8.383   5.465   8.687  2.3980 -1.8948  2.1580
  673MOL0     H90798   8.294   5.453   8.457 -2.3563  0.1075 -1.7108
  673MOL0     H90799   8.253   5.284   8.478  0.4829 -0.6493  0.7871
  673MOL0     H90800   8.072   5.333   8.604 -2.8270  0.2255 -1.0516
  673MOL0     H90801   8.086   5.509   8.626 -2.8844 -0.2944  0.4619
  673MOL0     H90802   8.060   5.436   8.335 -0.4196  0.5691 -0.6615
  673MOL0     H90803   7.926   5.409   8.438  0.2496 -0.7558 -3.6016
  673MOL0     H90804   7.973   5.671   8.514 -0.7891  2.1973 -0.6416
  673MOL0     H90805   7.902   5.628   8.346  0.4027 -1.7070 -0.4284
  673MOL0     H90806   8.276   5.657   8.447 -0.4551 -0.4210 -0.1814
  673MOL0     H90807   8.441   5.949   8.271 -0.0891 -0.1501 -2.1555
  673MOL0     H90808   8.444   5.867   8.418 -0.9201 -0.7656 -0.1919
  673MOL0     H90809   8.513   5.744   8.138 -1.0054  0.8556 -0.1697
  673MOL0     H90810   8.542   5.663   8.288  1.2754 -0.5872 -0.6067
  673MOL0     H90811   8.743   5.760   8.195  0.6835  1.2229  0.5427
  673MOL0     H90812   8.712   5.817   8.360  2.1498 -1.4070 -0.1447
  673MOL0     H90813   8.795   5.993   8.189 -0.7744  2.0233  0.7444
  673MOL0     H90814   8.651   6.038   8.290 -0.4494 -0.4370  1.3871
  673MOL0     H90815   8.804   6.218   8.105 -1.6732 -1.4779  3.5634
  673MOL0     H90816   8.766   6.543   8.136  0.0543  0.3062 -0.2673
  673MOL0     H90817   8.884   6.409   8.110  1.4825 -0.7149 -2.4169
  673MOL0     H90818   8.844   6.517   7.981  1.5328  2.6344  2.0076
  673MOL0     H90819   8.347   6.756   7.987 -1.1774 -0.1576  0.0190
  673MOL0     H90820   8.278   6.968   7.943  0.0819  0.0445  0.3632
  673MOL0     H90821   8.225   7.161   7.522 -1.7144  1.2152 -1.1446
  673MOL0     H90822   8.104   7.047   7.578 -3.6309  3.4282 -0.8171
  673MOL0     H90823   8.038   7.226   7.754  1.4886 -3.2170 -1.5540
  673MOL0     H90824   8.150   7.339   7.672  0.6877  0.0893 -1.0260
  673MOL0     H90825   7.892   7.225   7.564  3.1691 -3.0478 -2.6773
  673MOL0     H90826   8.016   7.285   7.455  1.6485 -0.0145  1.1007
  673MOL0     H90827   7.896   7.469   7.670  2.7543  2.3967 -0.0866
  673MOL0     H90828   7.998   7.511   7.546 -2.3659  2.0043  1.5322
  673MOL0     H90829   7.741   7.382   7.468  1.6755 -0.6369  3.1545
  673MOL0     H90830   7.864   7.496   7.377  1.4083  0.3261  0.2361
  673MOL0     H90831   7.690   7.556   7.625  1.6783  1.2217  1.1558
  673MOL0     H90832   7.801   7.669   7.566  0.9988 -2.5503  1.8223
  673MOL0     H90833   7.601   7.743   7.495 -0.5087  1.2665 -2.1911
  673MOL0     H90834   7.541   7.588   7.447  0.4951 -1.2652  1.3282
  673MOL0     H90835   7.594   7.730   7.235 -2.1022 -1.3007  2.1189
  673MOL0     H90836   7.725   7.613   7.258 -2.1348 -1.3920  1.0205
  673MOL0     H90837   8.320   6.906   7.518  0.5373 -0.1421  0.1673
  673MOL0     H90838   8.414   6.681   7.571  0.5273  0.2584  0.1521
  673MOL0     H90839   8.396   6.319   7.863  1.1331  1.8631 -0.6736
  673MOL0     H90840   8.425   6.088   7.956 -0.8173  0.5295 -0.2322
  673MOL0     H90841   8.918   5.247   8.659  2.9822 -1.4828 -1.2731
  673MOL0     H90842   9.134   5.133   8.666 -0.0506 -2.2471 -2.7343
  673MOL0     H90843   9.429   4.993   8.869  0.6452  0.4138 -0.8159
  673MOL0     H90844   9.669   4.987   8.862 -1.4961  1.0447  0.1252
  673MOL0     H90845   9.852   4.874   8.899 -4.1893 -0.5394  0.7073
  673MOL0     H90846   9.809   4.701   8.895  2.1561 -0.5543  0.9741
  673MOL0     H90847  10.036   4.668   8.766  0.0280 -0.4292 -0.2156
  673MOL0     H90848  10.017   4.682   8.939 -1.1753 -0.2937 -0.6458
  673MOL0     H90849  10.062   4.957   8.859 -0.0341 -0.4357  0.3278
  673MOL0     H90850  10.151   4.874   8.727  0.3291  1.3671  0.0534
  673MOL0     H90851  10.206   4.842   9.009  1.3688 -0.7475  0.6297
  673MOL0     H90852  10.304   4.938   8.901 -2.4074  2.1459  1.1310
  673MOL0     H90853  10.370   4.520   8.807  1.5635  0.4686  3.1175
  673MOL0     H90854   9.660   4.703   8.543  2.6366  0.9935 -0.2466
  673MOL0     H90855   9.414   4.733   8.519 -2.2770  1.0383  0.7392
  674MOL0     O90856   1.995   3.567   2.200 -0.1975  0.9268 -0.0331
  674MOL0     C90857   1.873   3.578   2.168 -0.3931  1.8579 -0.4859
  674MOL0     O90858   1.778   3.641   2.237  0.0679  0.1676  0.1314
  674MOL0     C90859   1.824   3.728   2.332  0.2906 -0.2932  0.5221
  674MOL0     C90860   1.881   3.851   2.291 -0.3158 -0.5968  0.0693
  674MOL0     C90861   1.913   3.949   2.379 -0.8530  0.4744  0.1437
  674MOL0     C90862   1.877   3.935   2.512 -0.2676 -0.7892 -0.1348
  674MOL0     O90863   1.903   4.048   2.588 -0.0050  0.0226  0.5907
  674MOL0     C90864   1.979   4.030   2.714  0.1832 -0.0753  0.0880
  674MOL0     C90865   2.123   3.996   2.691  0.8223  0.3280 -0.7360
  674MOL0     C90866   2.203   4.004   2.821 -0.4449 -0.5362 -0.1506
  674MOL0     C90867   2.353   4.004   2.780  0.8529  0.2084 -1.2585
  674MOL0     C90868   2.450   4.024   2.904  0.7313  0.1040 -0.3921
  674MOL0     C90869   2.579   4.084   2.865  0.3972 -0.3786  0.5472
  674MOL0     C90870   2.574   4.230   2.817 -0.2324 -0.5446  0.4825
  674MOL0     C90871   2.711   4.297   2.790 -0.3036  0.1944  0.4814
  674MOL0     N90872   2.790   4.236   2.690  0.0060 -0.0755 -0.0154
  674MOL0     C90873   2.736   4.192   2.568 -0.1962  0.2809 -0.0910
  674MOL0     C90874   2.829   4.110   2.522 -0.1440  0.5587  0.2058
  674MOL0     C90875   2.817   4.029   2.399  0.0626  0.9811  0.2155
  674MOL0     C90876   2.828   3.875   2.421 -0.1543  0.3609  0.6013
  674MOL0     C90877   2.794   3.801   2.293  0.6608  0.0493 -0.3084
  674MOL0     C90878   2.772   3.654   2.319  0.3612  1.2978  0.0710
  674MOL0     O90879   2.781   3.591   2.192 -0.4362  0.8778  0.7835
  674MOL0     C90880   2.777   3.453   2.193 -0.0749 -0.1825  1.0555
  674MOL0     C90881   2.752   3.388   2.068  1.2268 -0.0400 -0.1000
  674MOL0     C90882   2.755   3.245   2.056 -0.1925 -0.0788 -0.6412
  674MOL0     C90883   2.705   3.196   1.928  0.4508 -0.8271  1.3539
  674MOL0     C90884   2.799   3.168   2.162  0.1419  0.1790 -0.5018
  674MOL0     C90885   2.839   3.011   2.160 -0.0060 -0.0605  0.7662
  674MOL0     O90886   2.828   2.951   2.039  0.1683  0.0347 -0.8326
  674MOL0     C90887   2.838   2.813   2.044  0.4390  0.0151 -0.4442
  674MOL0     C90888   2.727   2.732   2.021 -0.7493 -0.3086  0.0070
  674MOL0     C90889   2.736   2.589   2.017 -0.1277 -0.3861  0.1108
  674MOL0     C90890   2.867   2.534   2.045  0.2202 -0.3194 -0.3734
  674MOL0     O90891   2.897   2.404   2.023 -1.0421  0.2495  0.0588
  674MOL0     C90892   2.837   2.305   2.098 -0.2284  0.3930  0.2032
  674MOL0     C90893   2.809   2.193   2.008 -0.1429  0.0568  0.3140
  674MOL0     C90894   2.674   2.213   1.931  0.3369  1.1761  0.8568
  674MOL0     C90895   2.547   2.205   2.030 -0.7336  0.4673 -0.4597
  674MOL0     C90896   2.410   2.214   1.961 -0.4226  0.2527  0.3265
  674MOL0     C90897   2.382   2.340   1.882  0.1428 -0.1672 -0.4396
  674MOL0     C90898   2.242   2.318   1.827  0.7723  0.1152 -0.4130
  674MOL0     C90899   2.201   2.434   1.736 -0.4507  0.4917 -0.0932
  674MOL0    Cl90900   2.291   2.429   1.567 -0.0592 -0.4342 -0.0318
  674MOL0     C90901   2.969   2.613   2.081 -0.5663 -0.1506  0.2306
  674MOL0     C90902   2.961   2.749   2.077  0.2855 -0.0727 -0.5311
  674MOL0     O90903   2.859   2.960   2.270  0.2713  0.1302  0.8178
  674MOL0     C90904   2.832   3.234   2.283 -0.4785 -0.3638 -0.2647
  674MOL0     C90905   2.819   3.372   2.301  1.3426 -0.8151 -0.7264
  674MOL0     N90906   2.939   4.110   2.609 -0.3384  0.1743  1.1113
  674MOL0     N90907   2.907   4.171   2.713  0.5881  0.3729  0.4684
  674MOL0     C90908   1.819   3.818   2.559  0.2752 -0.7610  1.3964
  674MOL0     C90909   1.804   3.709   2.467  0.6583 -0.1382 -0.3049
  674MOL0     C90910   1.843   3.508   2.045  0.8592 -0.2340  0.5250
  674MOL0     C90911   1.732   3.535   1.966  1.3404 -0.8912 -0.2069
  674MOL0     C90912   1.725   3.461   1.846  0.2090  0.3327  0.2912
  674MOL0     C90913   1.812   3.355   1.810 -0.7191 -0.1915 -0.6207
  674MOL0     O90914   1.811   3.288   1.698 -0.4405  0.1313 -0.4023
  674MOL0     C90915   1.717   3.316   1.587 -0.0773  0.1186  0.3234
  674MOL0     C90916   1.740   3.213   1.475 -0.0143  0.8423 -0.4326
  674MOL0     C90917   1.728   3.062   1.499  0.0805  0.0116  0.4020
  674MOL0     C90918   1.702   2.973   1.372 -0.9070  1.3933  0.4581
  674MOL0     C90919   1.691   2.836   1.415  0.3304 -0.3869 -0.0623
  674MOL0     C90920   1.703   2.718   1.441  0.5066  0.3026  0.3978
  674MOL0     C90921   1.922   3.338   1.886 -0.0893 -0.6987  0.6508
  674MOL0     C90922   1.933   3.406   2.004  0.5003 -0.9827 -0.6806
  674MOL0     H90923   1.887   3.878   2.186  2.2396  0.0803  0.3228
  674MOL0     H90924   1.965   4.037   2.342  0.9332 -0.7683 -0.4179
  674MOL0     H90925   1.983   4.120   2.777  3.0122  0.2966 -0.5156
  674MOL0     H90926   1.929   3.949   2.768  0.2650 -1.5022 -1.8870
  674MOL0     H90927   2.138   3.897   2.646  0.8773  0.8638 -1.9192
  674MOL0     H90928   2.165   4.071   2.624  1.4351  0.5776 -0.0795
  674MOL0     H90929   2.186   4.099   2.871 -0.6854 -0.2250 -0.8093
  674MOL0     H90930   2.190   3.922   2.892  3.7419 -0.6941  0.6855
  674MOL0     H90931   2.369   3.902   2.744 -0.1145 -1.4772  2.5489
  674MOL0     H90932   2.356   4.082   2.704 -0.2491 -0.0252 -1.5528
  674MOL0     H90933   2.410   4.101   2.970  0.6412  0.5389 -0.9442
  674MOL0     H90934   2.457   3.923   2.945  1.1981 -0.9826 -2.9533
  674MOL0     H90935   2.653   4.077   2.945  0.7998  0.1293  0.2279
  674MOL0     H90936   2.625   4.022   2.787 -2.2537 -0.3272 -1.1825
  674MOL0     H90937   2.512   4.215   2.728 -1.2921 -1.3098  1.3081
  674MOL0     H90938   2.511   4.289   2.884 -0.0053  2.1030 -1.4973
  674MOL0     H90939   2.772   4.285   2.880  1.9148  2.4906 -0.5926
  674MOL0     H90940   2.696   4.399   2.754 -0.3935 -0.3583 -1.1507
  674MOL0     H90941   2.640   4.209   2.520 -0.6998  0.8870  1.1093
  674MOL0     H90942   2.720   4.039   2.350 -0.5113  1.2287  1.3681
  674MOL0     H90943   2.896   4.074   2.337  1.7971  0.1577  1.7259
  674MOL0     H90944   2.758   3.842   2.499 -2.4298 -1.3827 -1.9603
  674MOL0     H90945   2.930   3.847   2.449  0.0826 -1.6903 -2.0028
  674MOL0     H90946   2.878   3.816   2.224  2.0099  3.2345  1.7890
  674MOL0     H90947   2.705   3.853   2.256 -0.6877 -0.2202  2.3641
  674MOL0     H90948   2.680   3.635   2.375  0.6627  0.0228  0.1677
  674MOL0     H90949   2.855   3.626   2.385 -1.5357  0.2312  2.1487
  674MOL0     H90950   2.730   3.454   1.985  1.6185 -0.6572 -0.7097
  674MOL0     H90951   2.672   3.092   1.935 -1.7911 -0.2611  0.2117
  674MOL0     H90952   2.633   3.259   1.875  1.6405 -0.7188 -0.1983
  674MOL0     H90953   2.791   3.182   1.863 -0.4052 -3.2428  0.6433
  674MOL0     H90954   2.638   2.789   1.998 -0.4782  0.2602  0.3469
  674MOL0     H90955   2.656   2.519   1.995 -1.7397  1.7817 -1.3422
  674MOL0     H90956   2.920   2.274   2.162  0.0910 -0.1238 -0.4532
  674MOL0     H90957   2.756   2.326   2.168 -2.0932 -5.6818  0.4720
  674MOL0     H90958   2.895   2.187   1.940  1.4244  1.0283  2.1277
  674MOL0     H90959   2.811   2.094   2.055  0.1568 -0.2252 -0.2821
  674MOL0     H90960   2.663   2.142   1.848 -2.1835  2.1390  0.2913
  674MOL0     H90961   2.676   2.313   1.886 -0.0405  0.5130 -0.6993
  674MOL0     H90962   2.565   2.113   2.086  1.8088  2.0058  1.5187
  674MOL0     H90963   2.548   2.284   2.106  0.1041 -0.1994  0.2433
  674MOL0     H90964   2.324   2.197   2.026  0.8327  3.8046  3.2621
  674MOL0     H90965   2.416   2.130   1.891 -0.1005  0.8822 -0.4101
  674MOL0     H90966   2.381   2.422   1.954  1.5126 -3.2363  3.4108
  674MOL0     H90967   2.464   2.356   1.812  0.0091  3.3675  0.0531
  674MOL0     H90968   2.167   2.321   1.906  0.6331  5.1964 -0.4186
  674MOL0     H90969   2.239   2.224   1.772  0.4859 -0.7417  1.0248
  674MOL0     H90970   2.226   2.528   1.786  2.4742 -0.3955  0.3027
  674MOL0     H90971   2.093   2.438   1.715 -0.1894  0.2298 -1.5759
  674MOL0     H90972   3.054   2.554   2.113  0.5236  0.6766 -1.0523
  674MOL0     H90973   3.039   2.813   2.117 -2.2920  1.6148  2.3018
  674MOL0     H90974   2.870   3.182   2.370  0.4536 -1.2836 -1.1981
  674MOL0     H90975   2.832   3.410   2.402  0.9084 -2.1130 -0.1620
  674MOL0     H90976   1.774   3.809   2.657 -1.0036 -0.5950  0.8424
  674MOL0     H90977   1.753   3.618   2.496 -0.0536  0.3213 -0.0836
  674MOL0     H90978   1.663   3.610   2.001  2.4711  0.5784 -0.9747
  674MOL0     H90979   1.635   3.476   1.787 -1.1869 -2.9548  1.3298
  674MOL0     H90980   1.612   3.315   1.614 -0.4032 -2.0281 -0.7984
  674MOL0     H90981   1.741   3.418   1.553  2.0594  0.1150  1.5780
  674MOL0     H90982   1.846   3.226   1.455  0.9152  2.1020  4.1790
  674MOL0     H90983   1.672   3.235   1.392 -0.1651  0.7142 -0.3435
  674MOL0     H90984   1.650   3.049   1.574  0.1954  0.8923  0.6892
  674MOL0     H90985   1.821   3.027   1.544 -0.1049 -0.6363  0.2799
  674MOL0     H90986   1.783   2.977   1.298  0.4472  0.7474  1.8561
  674MOL0     H90987   1.611   3.013   1.326  0.4284  1.3829 -2.3720
  674MOL0     H90988   1.718   2.614   1.458  0.7604  0.4337  1.0338
  674MOL0     H90989   1.987   3.254   1.864 -0.3367 -1.2941  2.0895
  674MOL0     H90990   2.027   3.387   2.056  0.5012  3.5100  1.4574
  675MOL0     O90991   4.447   9.890   1.100  0.4094  0.0655 -0.1426
  675MOL0     C90992   4.455   9.854   1.223  0.0684  1.0206 -0.0691
  675MOL0     O90993   4.356   9.865   1.316  0.4260  0.1987  0.0357
  675MOL0     C90994   4.238   9.933   1.277  0.7191 -0.5371 -1.0587
  675MOL0     C90995   4.256  10.065   1.228 -0.2442  0.2269 -0.2433
  675MOL0     C90996   4.144  10.148   1.204 -1.2538 -0.0117  0.1105
  675MOL0     C90997   4.017  10.099   1.232  0.1308 -0.3588  0.0019
  675MOL0     O90998   3.899  10.176   1.218 -0.4663 -0.0852 -0.4105
  675MOL0     C90999   3.899  10.242   1.092  0.1508  0.1515  0.7800
  675MOL0     C91000   3.754  10.243   1.031 -0.2564  0.5884 -0.0303
  675MOL0     C91001   3.723  10.103   0.975 -0.7317  1.2820 -0.1679
  675MOL0     C91002   3.763  10.077   0.827  0.2939  0.2456  0.4925
  675MOL0     C91003   3.672  10.143   0.725 -0.4863 -0.7466 -0.8602
  675MOL0     C91004   3.714  10.121   0.576 -0.6523  0.1643 -0.7036
  675MOL0     C91005   3.605  10.185   0.495 -0.8253 -0.0577 -0.1575
  675MOL0     C91006   3.654  10.187   0.348  0.0250  0.1925 -0.1598
  675MOL0     N91007   3.545  10.248   0.263 -0.1284  0.8726 -0.6013
  675MOL0     C91008   3.482  10.363   0.282  1.2674 -0.3182 -0.1530
  675MOL0     C91009   3.378  10.359   0.193 -0.5444  0.5515 -0.6886
  675MOL0     C91010   3.277  10.461   0.203 -0.1685 -0.2077 -0.9882
  675MOL0     C91011   3.163  10.438   0.107  0.5001  0.1394  0.5104
  675MOL0     C91012   3.081  10.570   0.106 -0.4288 -0.5966 -0.2857
  675MOL0     C91013   2.956  10.563   0.012  0.3115 -0.1271  1.0793
  675MOL0     O91014   2.996  10.552  -0.121 -0.3087  0.0976 -0.8299
  675MOL0     C91015   2.925  10.590  -0.227  0.5065  0.3775 -0.3547
  675MOL0     C91016   2.935  10.534  -0.352 -0.1534  0.8445  1.3302
  675MOL0     C91017   2.851  10.558  -0.466 -0.2480 -0.1206 -0.5793
  675MOL0     C91018   2.891  10.495  -0.600  0.6812 -0.5220  0.3387
  675MOL0     C91019   2.747  10.657  -0.453 -0.8783 -0.3986  0.5356
  675MOL0     C91020   2.640  10.677  -0.560  0.9029  0.0255  0.6338
  675MOL0     O91021   2.569  10.795  -0.549 -0.6338 -0.5642 -0.0933
  675MOL0     C91022   2.478  10.825  -0.642  0.6475  0.1972 -0.4178
  675MOL0     C91023   2.477  10.775  -0.778 -0.1082 -0.4647  0.4587
  675MOL0     C91024   2.365  10.805  -0.856  0.3255  0.7465 -0.6893
  675MOL0     C91025   2.262  10.881  -0.814  0.0971  0.2498  0.2354
  675MOL0     O91026   2.162  10.889  -0.906  0.1208 -0.0065  0.3077
  675MOL0     C91027   2.079  11.004  -0.919 -0.4105  1.0485 -0.0079
  675MOL0     C91028   2.052  11.015  -1.072 -1.0228  0.4821 -0.3018
  675MOL0     C91029   2.004  11.157  -1.101 -0.1006  0.1846 -0.4993
  675MOL0     C91030   1.954  11.164  -1.249 -0.0225  0.4780 -0.4718
  675MOL0     C91031   1.863  11.286  -1.272 -0.3637 -0.1771  0.4715
  675MOL0     C91032   1.832  11.295  -1.418 -0.6148 -0.8813  0.2742
  675MOL0     C91033   1.727  11.196  -1.466  1.0131  0.2729 -0.4754
  675MOL0     C91034   1.691  11.208  -1.613  0.7619 -0.2733 -0.4310
  675MOL0    Cl91035   1.617  11.347  -1.663  0.0718 -0.2574  0.3904
  675MOL0     C91036   2.263  10.935  -0.687 -0.5568  0.2320 -0.4236
  675MOL0     C91037   2.373  10.909  -0.604 -0.3676  0.3178  0.4719
  675MOL0     O91038   2.609  10.583  -0.638 -0.5719  0.0519 -0.3171
  675MOL0     C91039   2.747  10.720  -0.327  0.4649  0.8467  1.1912
  675MOL0     C91040   2.826  10.680  -0.223  0.0209 -0.3256 -1.5782
  675MOL0     N91041   3.393  10.248   0.107 -0.2612 -0.6739  0.2821
  675MOL0     N91042   3.503  10.187   0.149  0.0933 -0.2044  0.3247
  675MOL0     C91043   4.011   9.975   1.289  0.7837  0.6162  0.1752
  675MOL0     C91044   4.116   9.891   1.312 -0.1072  0.4265  0.8771
  675MOL0     C91045   4.584   9.775   1.274  0.6769 -0.5459  0.0657
  675MOL0     C91046   4.591   9.722   1.411  0.1819 -1.0252  0.2830
  675MOL0     C91047   4.704   9.659   1.457 -0.0274 -0.7250  0.8769
  675MOL0     C91048   4.810   9.645   1.371 -0.3294 -0.1695  0.4004
  675MOL0     O91049   4.917   9.590   1.420  0.2681 -0.1939 -0.7673
  675MOL0     C91050   5.051   9.620   1.381 -0.9724 -0.8278 -0.4208
  675MOL0     C91051   5.084   9.764   1.400 -0.3478  0.3457  0.7921
  675MOL0     C91052   5.237   9.777   1.407  0.2869  1.3679  0.0468
  675MOL0     C91053   5.279   9.919   1.417 -1.1509  0.7060 -0.1101
  675MOL0     C91054   5.427   9.924   1.416  0.1541  0.5113 -0.0441
  675MOL0     C91055   5.542   9.930   1.410  0.8726 -0.5390 -0.4314
  675MOL0     C91056   4.812   9.698   1.242  0.5750 -0.4803 -0.3756
  675MOL0     C91057   4.697   9.763   1.195  0.8013  0.7069 -0.1691
  675MOL0     H91058   4.354  10.109   1.222 -0.7923  1.3324 -1.6180
  675MOL0     H91059   4.161  10.247   1.162 -1.6065 -0.2594 -0.6391
  675MOL0     H91060   3.926  10.347   1.106 -1.4441  0.7182 -0.1355
  675MOL0     H91061   3.970  10.200   1.019  1.4925  1.2275  1.4242
  675MOL0     H91062   3.683  10.279   1.107 -2.6890 -3.5782  0.0171
  675MOL0     H91063   3.746  10.309   0.945 -2.2774 -0.9816 -1.1540
  675MOL0     H91064   3.765  10.027   1.042 -2.3503  2.4195  2.3205
  675MOL0     H91065   3.616  10.081   0.980 -0.3152 -0.7156  1.6371
  675MOL0     H91066   3.862  10.116   0.806  0.3351 -1.3113 -2.7056
  675MOL0     H91067   3.759   9.969   0.807  1.5008  0.7016 -2.7486
  675MOL0     H91068   3.571  10.112   0.753  0.1439 -0.9584  1.3155
  675MOL0     H91069   3.680  10.251   0.740 -1.4657 -0.9241  1.3550
  675MOL0     H91070   3.810  10.173   0.566 -0.3245 -0.2150  0.3133
  675MOL0     H91071   3.728  10.015   0.553  0.1991 -0.4531  2.2109
  675MOL0     H91072   3.508  10.134   0.498 -0.5668 -0.5047  1.4634
  675MOL0     H91073   3.592  10.285   0.538 -0.5026  0.5236 -1.3708
  675MOL0     H91074   3.676  10.087   0.311 -0.2851 -0.6376  1.7614
  675MOL0     H91075   3.745  10.247   0.347  1.0808 -1.1224  2.9257
  675MOL0     H91076   3.485  10.435   0.363 -1.4062  1.1551 -1.2470
  675MOL0     H91077   3.248  10.434   0.304  0.4765 -2.5516 -1.3671
  675MOL0     H91078   3.328  10.557   0.188  3.2130 -1.4745  1.1653
  675MOL0     H91079   3.097  10.364   0.154 -0.6794  0.3764 -0.7091
  675MOL0     H91080   3.192  10.406   0.006 -2.9943 -0.2247 -0.5004
  675MOL0     H91081   3.147  10.656   0.087 -1.5463  0.6622  1.2364
  675MOL0     H91082   3.029  10.580   0.202 -0.9265 -0.2937 -0.5799
  675MOL0     H91083   2.906  10.659   0.027 -0.6657 -0.3711 -0.3984
  675MOL0     H91084   2.897  10.476   0.040 -0.4255  0.3607  1.0628
  675MOL0     H91085   3.015  10.464  -0.371 -2.4266 -0.7575 -4.4556
  675MOL0     H91086   2.991  10.451  -0.605 -0.0702 -2.2403 -0.6275
  675MOL0     H91087   2.823  10.413  -0.626  1.5339 -1.1771  0.1543
  675MOL0     H91088   2.881  10.576  -0.672  0.0675  0.2714  1.2997
  675MOL0     H91089   2.560  10.717  -0.817 -0.4596 -0.9294  0.4057
  675MOL0     H91090   2.357  10.769  -0.958  0.0564  2.6799 -1.3819
  675MOL0     H91091   1.984  10.985  -0.869  0.0962 -2.4920 -0.0824
  675MOL0     H91092   2.136  11.086  -0.875  0.2955  0.2365  0.6271
  675MOL0     H91093   2.144  10.990  -1.127  0.6525  2.1391  1.5666
  675MOL0     H91094   1.976  10.944  -1.105 -0.1113 -0.2777 -0.8434
  675MOL0     H91095   2.083  11.231  -1.090  0.3653 -0.5928  1.9467
  675MOL0     H91096   1.912  11.179  -1.047  0.2379  0.6265 -0.1033
  675MOL0     H91097   2.037  11.169  -1.320  0.5788 -0.1426  0.1516
  675MOL0     H91098   1.908  11.068  -1.273  0.5940 -0.3521  1.4305
  675MOL0     H91099   1.917  11.376  -1.242 -0.9692  0.5023 -0.4061
  675MOL0     H91100   1.772  11.281  -1.211  0.6529  0.7578  2.1425
  675MOL0     H91101   1.789  11.395  -1.436  2.2999  0.1961 -1.3145
  675MOL0     H91102   1.926  11.285  -1.473 -0.2626 -1.2513  0.9339
  675MOL0     H91103   1.640  11.223  -1.406  2.9324  1.0071  2.1516
  675MOL0     H91104   1.749  11.094  -1.431 -2.5051 -0.5587 -0.2890
  675MOL0     H91105   1.629  11.125  -1.647  2.4856 -1.4087 -0.9363
  675MOL0     H91106   1.775  11.190  -1.681 -1.3587  0.7474 -3.5509
  675MOL0     H91107   2.175  10.989  -0.654 -0.5623  0.5373 -0.9388
  675MOL0     H91108   2.391  10.972  -0.518  3.8220  2.9805 -1.9766
  675MOL0     H91109   2.673  10.798  -0.314 -1.9936 -1.2497  0.5454
  675MOL0     H91110   2.807  10.740  -0.134  0.5911 -0.2052 -1.5348
  675MOL0     H91111   3.914   9.948   1.328  0.5549 -0.1618 -0.8768
  675MOL0     H91112   4.101   9.794   1.357 -0.7314  0.7771  1.4350
  675MOL0     H91113   4.508   9.723   1.481 -0.3098 -0.5062 -0.3005
  675MOL0     H91114   4.713   9.601   1.549  4.6022  0.1168  1.1847
  675MOL0     H91115   5.110   9.567   1.456  0.1834 -2.0602 -2.1324
  675MOL0     H91116   5.090   9.598   1.282  2.0481  1.9721 -0.0449
  675MOL0     H91117   5.035   9.805   1.489 -0.9744 -1.2072  1.1847
  675MOL0     H91118   5.048   9.821   1.314  1.2964  1.1545  0.5945
  675MOL0     H91119   5.286   9.727   1.323  1.8218 -2.9282  3.1381
  675MOL0     H91120   5.266   9.720   1.496  1.4270  1.4829 -0.2435
  675MOL0     H91121   5.229   9.962   1.504 -1.5915 -0.8432  0.4303
  675MOL0     H91122   5.254   9.972   1.324 -1.5689  0.4326 -0.1502
  675MOL0     H91123   5.643   9.966   1.417  0.3187  0.9585  0.2262
  675MOL0     H91124   4.898   9.675   1.179  1.3590 -1.0666  0.8698
  675MOL0     H91125   4.690   9.811   1.098 -2.4489  0.3049 -0.2589
  676MOL0     O91126   8.421  10.328   3.375 -0.1340  0.0959 -0.6984
  676MOL0     C91127   8.452  10.225   3.449  1.0346  0.7239  0.2048
  676MOL0     O91128   8.438  10.090   3.425 -0.4123 -0.0127  0.3717
  676MOL0     C91129   8.356  10.055   3.328 -0.5684  0.6353  0.3014
  676MOL0     C91130   8.237   9.992   3.369  0.3854  0.1877 -0.2979
  676MOL0     C91131   8.136   9.942   3.279 -0.1432 -0.7183  0.0183
  676MOL0     C91132   8.165   9.964   3.140  0.0761  0.1152 -0.1517
  676MOL0     O91133   8.081   9.911   3.053  0.2367  0.6513  0.5669
  676MOL0     C91134   8.056   9.961   2.922 -0.2982 -0.1768  0.0868
  676MOL0     C91135   7.944   9.885   2.860  0.3132  0.0079  0.1336
  676MOL0     C91136   7.896   9.918   2.721  0.3836 -0.3139 -1.3111
  676MOL0     C91137   7.784  10.028   2.732 -0.5153  0.3613  0.3416
  676MOL0     C91138   7.636   9.987   2.754 -0.2083  0.6928 -0.1401
  676MOL0     C91139   7.575   9.918   2.628  0.3731 -0.6391 -0.2096
  676MOL0     C91140   7.429   9.851   2.637 -0.7266  0.3804  0.0821
  676MOL0     C91141   7.396   9.766   2.504 -0.0610 -0.7236  0.0150
  676MOL0     N91142   7.305   9.658   2.536  1.0592  1.3716  0.1699
  676MOL0     C91143   7.334   9.524   2.513 -0.4459 -0.8722 -0.8120
  676MOL0     C91144   7.219   9.463   2.526  0.9901  0.5453  0.3930
  676MOL0     C91145   7.189   9.320   2.512  0.0236 -0.5906 -0.2624
  676MOL0     C91146   7.159   9.287   2.367 -0.1312 -0.2720 -0.2276
  676MOL0     C91147   7.024   9.204   2.354 -1.3067  0.0664 -1.1036
  676MOL0     C91148   7.056   9.059   2.394 -0.1155  0.5466  1.2889
  676MOL0     O91149   6.943   8.969   2.383  0.4412 -0.0385 -0.0310
  676MOL0     C91150   6.854   8.951   2.491 -0.7672 -0.3315  0.6476
  676MOL0     C91151   6.850   9.038   2.606  0.1508 -0.3261 -0.8792
  676MOL0     C91152   6.755   9.017   2.702  0.0729  0.2190 -0.4177
  676MOL0     C91153   6.756   9.112   2.819  0.0263 -0.1947  0.9721
  676MOL0     C91154   6.662   8.913   2.694  0.1372 -0.2673 -0.3170
  676MOL0     C91155   6.553   8.902   2.800 -0.1704  0.2892  0.1132
  676MOL0     O91156   6.485   8.780   2.804 -0.5622  0.1878  0.3051
  676MOL0     C91157   6.376   8.770   2.888  0.3185 -0.2189 -0.9286
  676MOL0     C91158   6.260   8.849   2.884  0.3652 -0.2958  0.2980
  676MOL0     C91159   6.166   8.839   2.992  0.3705 -0.0861 -0.4680
  676MOL0     C91160   6.187   8.764   3.100 -0.2925  0.6652  0.5243
  676MOL0     O91161   6.091   8.755   3.199  0.7153 -0.0729 -0.1345
  676MOL0     C91162   6.146   8.711   3.329  0.6513  0.1442 -0.1474
  676MOL0     C91163   6.037   8.732   3.440  0.3206 -0.7103 -0.0814
  676MOL0     C91164   6.074   8.688   3.578  0.0722  0.2305  0.1588
  676MOL0     C91165   6.214   8.723   3.625  0.4641  0.0955 -0.5252
  676MOL0     C91166   6.244   8.659   3.758 -0.9492  0.3022  0.4130
  676MOL0     C91167   6.175   8.735   3.875 -0.7243  0.1496 -0.2796
  676MOL0     C91168   6.239   8.709   4.007  0.2200  0.3722 -0.5255
  676MOL0     C91169   6.179   8.579   4.070  0.4305 -0.1983 -0.4701
  676MOL0    Cl91170   6.234   8.422   4.001  0.1505 -0.0604 -0.0438
  676MOL0     C91171   6.297   8.675   3.093  0.0017 -0.6791 -0.4450
  676MOL0     C91172   6.396   8.686   2.993 -0.1237 -0.4246 -0.2594
  676MOL0     O91173   6.517   8.998   2.867  0.1513 -0.4839 -0.5799
  676MOL0     C91174   6.671   8.826   2.589  0.0502  0.8814 -1.1974
  676MOL0     C91175   6.754   8.852   2.486 -0.7470  0.1717 -0.0223
  676MOL0     N91176   7.119   9.558   2.560  0.0049 -0.9460  0.1663
  676MOL0     N91177   7.174   9.673   2.565  0.3663  0.1542  0.4849
  676MOL0     C91178   8.278  10.040   3.104  0.6461  0.5959  0.3285
  676MOL0     C91179   8.369  10.082   3.194 -1.2533 -0.1709 -0.4953
  676MOL0     C91180   8.520  10.255   3.586 -0.2715  0.3019 -0.2797
  676MOL0     C91181   8.590  10.153   3.662  1.1589 -0.1087 -0.3184
  676MOL0     C91182   8.667  10.194   3.776  0.4885  0.0092  0.2692
  676MOL0     C91183   8.660  10.322   3.821  0.1919  0.0246  0.0438
  676MOL0     O91184   8.694  10.336   3.951 -0.3295 -0.6614 -0.5279
  676MOL0     C91185   8.677  10.467   4.016 -0.2210 -0.4479 -0.5677
  676MOL0     C91186   8.810  10.505   4.065  0.5686  0.2151  0.3048
  676MOL0     C91187   8.914  10.508   3.951 -0.6355  0.0476 -0.0347
  676MOL0     C91188   9.060  10.560   3.996  0.0397  0.0539 -0.2520
  676MOL0     C91189   9.095  10.689   3.922 -1.5252  0.4950  0.0568
  676MOL0     C91190   9.122  10.798   3.870  1.2049  0.8083  0.1575
  676MOL0     C91191   8.601  10.417   3.737 -0.2919 -0.9430  0.6712
  676MOL0     C91192   8.551  10.385   3.616 -0.3437  0.2272 -0.4913
  676MOL0     H91193   8.224   9.976   3.476  4.4790  0.5700  0.3929
  676MOL0     H91194   8.044   9.895   3.312 -0.4404  0.1053  0.4020
  676MOL0     H91195   8.039  10.069   2.917 -0.8137 -0.2168  0.8773
  676MOL0     H91196   8.148   9.927   2.872 -0.3304 -3.1724  1.8334
  676MOL0     H91197   7.973   9.779   2.859  0.3452 -0.1517  4.0462
  676MOL0     H91198   7.851   9.885   2.918 -1.3508 -1.4671 -2.3362
  676MOL0     H91199   7.985   9.940   2.661  1.6023  4.2340  1.6645
  676MOL0     H91200   7.853   9.837   2.660 -0.6827  0.5266 -1.7175
  676MOL0     H91201   7.816  10.113   2.794 -0.0052  2.5607 -2.7138
  676MOL0     H91202   7.784  10.084   2.638  1.5065  1.1190  0.7338
  676MOL0     H91203   7.633   9.925   2.844 -0.6732 -0.0248 -0.6413
  676MOL0     H91204   7.568  10.071   2.769  0.2663  0.8754  1.1088
  676MOL0     H91205   7.562   9.993   2.550 -0.6650 -0.9563 -0.3598
  676MOL0     H91206   7.642   9.839   2.592  0.2521 -1.9398  2.1679
  676MOL0     H91207   7.436   9.774   2.714  2.5275 -1.5629 -1.9350
  676MOL0     H91208   7.347   9.922   2.656 -0.4789  0.0667  2.5567
  676MOL0     H91209   7.498   9.736   2.477  0.7354 -0.5369  2.5237
  676MOL0     H91210   7.353   9.823   2.421  1.9331  1.2001  0.2057
  676MOL0     H91211   7.434   9.489   2.490 -0.2897 -3.3574  2.8157
  676MOL0     H91212   7.276   9.260   2.540 -1.1835 -2.9678 -1.3284
  676MOL0     H91213   7.107   9.294   2.579 -0.9271 -1.5810 -1.7682
  676MOL0     H91214   7.243   9.240   2.316 -0.9767 -3.5993  1.1497
  676MOL0     H91215   7.137   9.377   2.309  4.2056  0.7022 -0.7255
  676MOL0     H91216   7.005   9.208   2.246  2.9711  1.9890 -2.0025
  676MOL0     H91217   6.944   9.241   2.418 -0.7709 -0.8273  0.1247
  676MOL0     H91218   7.113   9.060   2.487 -0.6638 -1.3473  1.6985
  676MOL0     H91219   7.119   9.026   2.310 -1.3665  1.2550  0.0180
  676MOL0     H91220   6.921   9.120   2.611 -0.7279  0.4849 -1.4584
  676MOL0     H91221   6.669   9.172   2.790  0.8535 -0.2309 -1.9706
  676MOL0     H91222   6.751   9.082   2.923 -1.6570  2.8238  1.8965
  676MOL0     H91223   6.843   9.179   2.811  0.4094 -0.7762  0.1171
  676MOL0     H91224   6.256   8.916   2.798 -3.3331  0.6433  1.0166
  676MOL0     H91225   6.099   8.924   3.001  2.1488  1.1525  2.9514
  676MOL0     H91226   6.176   8.606   3.325  1.8565  0.4731 -0.2554
  676MOL0     H91227   6.239   8.766   3.348  1.0762 -1.1025  1.6820
  676MOL0     H91228   6.027   8.840   3.434  1.5708 -0.5594  0.2529
  676MOL0     H91229   5.946   8.681   3.407  0.7062  0.0330 -2.4614
  676MOL0     H91230   6.078   8.579   3.576 -2.7417  0.0653 -0.9682
  676MOL0     H91231   6.012   8.720   3.662  0.8965  0.0904  0.8356
  676MOL0     H91232   6.291   8.690   3.554  0.6300  0.0128 -0.3095
  676MOL0     H91233   6.223   8.830   3.648  2.8510 -0.1469 -0.0959
  676MOL0     H91234   6.353   8.660   3.762 -0.5399 -3.7404 -3.0580
  676MOL0     H91235   6.204   8.557   3.765 -1.8563  0.6800  0.9861
  676MOL0     H91236   6.181   8.842   3.853  0.8505 -0.3127 -2.4083
  676MOL0     H91237   6.070   8.708   3.890  0.5035 -4.1285  2.1974
  676MOL0     H91238   6.211   8.794   4.070 -3.3853  0.3990 -1.9538
  676MOL0     H91239   6.347   8.715   3.992  0.1178 -2.0802 -2.7528
  676MOL0     H91240   6.070   8.582   4.064  0.4317 -1.7717 -2.1195
  676MOL0     H91241   6.211   8.573   4.174 -1.3960  1.2625  0.2399
  676MOL0     H91242   6.306   8.596   3.166 -4.1924 -1.6619 -0.7512
  676MOL0     H91243   6.479   8.616   2.995  0.4701  0.2621  1.8502
  676MOL0     H91244   6.603   8.742   2.578  0.4685  0.4268 -0.4068
  676MOL0     H91245   6.744   8.798   2.393  3.2666  1.3641 -1.3368
  676MOL0     H91246   8.277  10.073   3.001 -2.7072 -0.6170 -0.1291
  676MOL0     H91247   8.452  10.145   3.162 -0.7640 -1.1281 -1.1757
  676MOL0     H91248   8.588  10.049   3.631 -0.2608 -0.5361  1.0875
  676MOL0     H91249   8.708  10.115   3.838 -0.1780 -0.4529  0.1299
  676MOL0     H91250   8.638  10.545   3.950  1.6487  0.5355 -0.5683
  676MOL0     H91251   8.603  10.452   4.096  0.6866  0.3583  0.4458
  676MOL0     H91252   8.842  10.442   4.148  0.1824  1.7976  1.7152
  676MOL0     H91253   8.796  10.606   4.106 -2.3084  1.3532 -2.9337
  676MOL0     H91254   8.872  10.551   3.860 -1.3541 -2.1805 -0.8194
  676MOL0     H91255   8.927  10.406   3.913 -0.7866  0.1317 -0.3059
  676MOL0     H91256   9.124  10.478   3.962  1.2142  0.2333  1.3524
  676MOL0     H91257   9.077  10.567   4.104 -0.7828  1.7418 -0.2005
  676MOL0     H91258   9.141  10.894   3.827 -0.0368  1.2859  0.6323
  676MOL0     H91259   8.597  10.524   3.755  2.9863 -0.2886 -1.7253
  676MOL0     H91260   8.520  10.466   3.550  0.2257  0.4929 -0.4362
  677MOL0     O91261   1.049   7.935   9.487  0.3914 -0.2662  0.2950
  677MOL0     C91262   1.015   7.921   9.371 -0.2137  0.5034  1.2449
  677MOL0     O91263   0.902   7.860   9.331 -0.3861  0.0518  0.2939
  677MOL0     C91264   0.786   7.838   9.403 -0.2454  0.0643  0.0242
  677MOL0     C91265   0.670   7.800   9.331 -0.6049 -0.0951  0.9455
  677MOL0     C91266   0.549   7.773   9.384  0.0192  0.3920  0.3779
  677MOL0     C91267   0.533   7.783   9.521 -0.5674  0.0249 -1.3672
  677MOL0     O91268   0.419   7.757   9.591 -0.2327 -0.0067  0.1417
  677MOL0     C91269   0.387   7.615   9.609 -0.1803 -0.2137  0.2434
  677MOL0     C91270   0.375   7.585   9.761  0.7092  0.1999 -0.3797
  677MOL0     C91271   0.493   7.608   9.845  0.7091  0.6837 -0.7632
  677MOL0     C91272   0.629   7.554   9.803 -0.6484  0.1383  0.5026
  677MOL0     C91273   0.752   7.585   9.896 -0.5306 -1.0855  0.1934
  677MOL0     C91274   0.882   7.531   9.844  0.9573 -1.7722 -0.8397
  677MOL0     C91275   1.001   7.597   9.927  0.6092  0.2196 -0.2927
  677MOL0     C91276   1.141   7.535   9.891  0.5510 -0.0915  0.1629
  677MOL0     N91277   1.191   7.539   9.749  0.0796 -0.3480 -1.0906
  677MOL0     C91278   1.202   7.653   9.675  0.2734  0.4245 -0.3616
  677MOL0     C91279   1.255   7.611   9.557 -0.3764 -0.2270  0.3052
  677MOL0     C91280   1.291   7.710   9.446 -0.3027 -0.6379  0.0523
  677MOL0     C91281   1.437   7.702   9.404 -0.1376 -0.1982 -0.9707
  677MOL0     C91282   1.472   7.784   9.283  0.3612 -0.1130  0.1733
  677MOL0     C91283   1.614   7.768   9.260 -0.8018  0.4329  0.2278
  677MOL0     O91284   1.665   7.858   9.157 -0.5645  0.6356  0.1537
  677MOL0     C91285   1.669   7.807   9.036 -0.2473  0.3497 -0.2741
  677MOL0     C91286   1.776   7.733   8.995  0.0838 -0.1876 -0.2920
  677MOL0     C91287   1.784   7.685   8.859 -0.1999 -0.4594  0.2421
  677MOL0     C91288   1.916   7.641   8.818 -0.0250 -0.0998 -0.9704
  677MOL0     C91289   1.682   7.713   8.760  0.1868 -0.7374 -0.0703
  677MOL0     C91290   1.678   7.689   8.609  0.6354 -0.7555 -0.7360
  677MOL0     O91291   1.548   7.692   8.558  0.1136 -0.3247 -0.5711
  677MOL0     C91292   1.553   7.740   8.434  0.0435  0.0795 -0.6714
  677MOL0     C91293   1.532   7.874   8.409 -0.0204 -0.1847 -0.6997
  677MOL0     C91294   1.541   7.930   8.283  0.2510  0.0210 -0.6501
  677MOL0     C91295   1.578   7.844   8.170  0.1204  0.0893 -0.1369
  677MOL0     O91296   1.599   7.913   8.051  0.3333  0.5394  0.0454
  677MOL0     C91297   1.495   7.992   8.000 -0.6082 -0.5708 -0.4969
  677MOL0     C91298   1.511   8.021   7.849  0.0341  0.6356  0.3386
  677MOL0     C91299   1.639   8.097   7.812 -0.4786 -0.9515 -0.3917
  677MOL0     C91300   1.673   8.074   7.661  0.2210  0.3005  0.4877
  677MOL0     C91301   1.759   7.945   7.631  0.5801 -0.4021 -0.4159
  677MOL0     C91302   1.768   7.920   7.484 -0.4504  0.4513  0.1102
  677MOL0     C91303   1.784   7.768   7.445  0.0058  0.4772 -0.1000
  677MOL0     C91304   1.795   7.747   7.299 -0.2805  0.7334  0.0897
  677MOL0    Cl91305   1.636   7.704   7.245  0.1185  0.5407  0.3425
  677MOL0     C91306   1.607   7.710   8.185  0.0996 -0.4612  0.1506
  677MOL0     C91307   1.585   7.662   8.321 -0.3456  1.1765 -0.4554
  677MOL0     O91308   1.776   7.684   8.544  0.0411  0.9558  0.4021
  677MOL0     C91309   1.570   7.765   8.828 -0.8787 -0.3376  0.9455
  677MOL0     C91310   1.561   7.821   8.959  0.1212  1.4016  0.5685
  677MOL0     N91311   1.285   7.475   9.563 -0.5179 -0.2799  0.0895
  677MOL0     N91312   1.244   7.437   9.680 -0.1577  0.7955 -0.1576
  677MOL0     C91313   0.652   7.814   9.595  0.8587  1.2002  0.0476
  677MOL0     C91314   0.776   7.847   9.538  0.1482  1.2069 -0.4149
  677MOL0     C91315   1.101   7.976   9.260 -0.5501 -0.1557 -0.3509
  677MOL0     C91316   1.184   8.089   9.290  0.0940  0.8481 -0.6138
  677MOL0     C91317   1.265   8.145   9.200 -0.6911 -0.2832  0.0696
  677MOL0     C91318   1.286   8.089   9.077 -0.8566 -0.4740  0.3761
  677MOL0     O91319   1.378   8.142   8.987  0.6451  0.1688  0.3328
  677MOL0     C91320   1.448   8.263   9.004 -0.4442 -0.5212 -0.3092
  677MOL0     C91321   1.515   8.274   8.858 -0.6998 -0.2997 -0.2285
  677MOL0     C91322   1.615   8.175   8.819 -0.2110  0.8618 -0.3443
  677MOL0     C91323   1.664   8.217   8.683 -0.3722 -0.4256 -0.4801
  677MOL0     C91324   1.749   8.115   8.620  0.8776  0.7056  1.1977
  677MOL0     C91325   1.808   8.029   8.562  0.2918  0.3949  0.8334
  677MOL0     C91326   1.214   7.972   9.047  0.9788  0.0546  0.5213
  677MOL0     C91327   1.118   7.917   9.136  0.3975  0.5018  0.0813
  677MOL0     H91328   0.677   7.802   9.223  0.6704  2.3804  0.9900
  677MOL0     H91329   0.467   7.739   9.321  0.6621 -1.0919  0.3135
  677MOL0     H91330   0.287   7.591   9.571  0.0465  0.1490 -0.6079
  677MOL0     H91331   0.464   7.558   9.556  0.0406  2.2950 -2.3877
  677MOL0     H91332   0.293   7.642   9.804  0.5052  0.6813 -1.3760
  677MOL0     H91333   0.354   7.478   9.762  0.0747  0.2232 -3.0618
  677MOL0     H91334   0.509   7.716   9.846 -0.1301  0.8200 -1.0530
  677MOL0     H91335   0.472   7.572   9.946 -2.4887  2.5506 -0.6370
  677MOL0     H91336   0.627   7.445   9.810  1.6790  0.1578  3.7542
  677MOL0     H91337   0.662   7.571   9.700  5.0831 -3.3453  1.2506
  677MOL0     H91338   0.757   7.694   9.900  3.5150 -1.1282  0.3035
  677MOL0     H91339   0.728   7.544   9.995 -2.8701  0.6426  0.4116
  677MOL0     H91340   0.888   7.422   9.846 -1.4098 -1.9489  0.4340
  677MOL0     H91341   0.901   7.564   9.742 -1.9950  1.3275 -0.5788
  677MOL0     H91342   1.010   7.703   9.905  2.1057  0.2946  0.4979
  677MOL0     H91343   0.987   7.596  10.035 -0.4649  1.6473 -0.4033
  677MOL0     H91344   1.148   7.428   9.916  2.2738 -0.8374 -3.0262
  677MOL0     H91345   1.220   7.568   9.959 -0.4759 -3.7108  3.5404
  677MOL0     H91346   1.191   7.757   9.704  2.8059  0.5066  0.5866
  677MOL0     H91347   1.235   7.695   9.354 -1.1325  1.4370  0.1567
  677MOL0     H91348   1.261   7.814   9.467 -1.7121 -0.0456 -3.9523
  677MOL0     H91349   1.479   7.601   9.400  1.8978  0.1038  4.5342
  677MOL0     H91350   1.477   7.749   9.494 -0.2788  2.4315 -2.2019
  677MOL0     H91351   1.447   7.889   9.300 -4.4619 -1.0060  0.0278
  677MOL0     H91352   1.427   7.742   9.193  2.8225 -0.1707 -1.1166
  677MOL0     H91353   1.634   7.666   9.224 -1.8273  1.0336 -2.2755
  677MOL0     H91354   1.676   7.775   9.350  1.8637 -0.7794 -1.3558
  677MOL0     H91355   1.858   7.707   9.060 -0.7637 -1.9759  0.1359
  677MOL0     H91356   1.977   7.619   8.906 -4.6275  0.3423  2.7364
  677MOL0     H91357   1.902   7.551   8.757 -2.5681  0.7192 -1.7315
  677MOL0     H91358   1.971   7.716   8.761  1.1023  0.1260  0.3675
  677MOL0     H91359   1.507   7.944   8.488  2.9019  1.5353 -1.1351
  677MOL0     H91360   1.521   8.035   8.264  1.7160  0.3843 -0.2847
  677MOL0     H91361   1.398   7.943   8.013 -1.3896 -0.4074 -4.4614
  677MOL0     H91362   1.483   8.092   8.044 -1.6780 -2.0904  3.0356
  677MOL0     H91363   1.512   7.919   7.809  0.6833  0.5913  0.4661
  677MOL0     H91364   1.426   8.074   7.805  0.0808  0.6989  0.3247
  677MOL0     H91365   1.719   8.067   7.881 -1.9561  0.4518  2.0783
  677MOL0     H91366   1.626   8.204   7.832 -0.7724 -1.3507  1.8889
  677MOL0     H91367   1.585   8.066   7.596 -0.4923 -3.8764  1.6834
  677MOL0     H91368   1.730   8.160   7.624  0.6085 -1.3828 -3.3787
  677MOL0     H91369   1.732   7.858   7.690  0.5920  1.2425  2.1447
  677MOL0     H91370   1.861   7.975   7.659  0.1992  1.2940 -0.7221
  677MOL0     H91371   1.675   7.961   7.444 -1.6157 -1.1773  1.0498
  677MOL0     H91372   1.846   7.985   7.444 -2.2426  0.2909 -4.1984
  677MOL0     H91373   1.710   7.708   7.499  0.1334 -0.5029 -0.9862
  677MOL0     H91374   1.873   7.735   7.499 -0.5843 -1.3218 -0.1548
  677MOL0     H91375   1.874   7.672   7.291  0.3685  1.5040 -0.9941
  677MOL0     H91376   1.823   7.837   7.244 -1.3439  0.2225 -1.3570
  677MOL0     H91377   1.613   7.644   8.099  0.2696 -1.4840  0.9326
  677MOL0     H91378   1.607   7.559   8.346  0.3777  2.5878  6.6591
  677MOL0     H91379   1.491   7.794   8.759  1.4042  1.1134 -1.1971
  677MOL0     H91380   1.482   7.887   8.991 -1.1991  0.0196  0.2591
  677MOL0     H91381   0.643   7.799   9.703  3.7780 -2.3966 -0.0139
  677MOL0     H91382   0.865   7.849   9.599  0.9469  0.4573 -1.5228
  677MOL0     H91383   1.172   8.132   9.389 -2.0729  0.8595 -0.8206
  677MOL0     H91384   1.318   8.236   9.226  0.2609 -0.5921 -0.7359
  677MOL0     H91385   1.385   8.348   9.028  0.5068  0.0293  0.3098
  677MOL0     H91386   1.530   8.255   9.076  0.6783 -2.3278 -1.6951
  677MOL0     H91387   1.573   8.367   8.856  1.4705 -1.5653 -3.3354
  677MOL0     H91388   1.440   8.267   8.779 -0.2283 -2.6833 -0.5259
  677MOL0     H91389   1.579   8.072   8.806  0.6874  0.6849 -1.5929
  677MOL0     H91390   1.695   8.179   8.893 -0.4694  1.9107 -0.1109
  677MOL0     H91391   1.726   8.306   8.695 -2.3049  1.0317 -0.7516
  677MOL0     H91392   1.584   8.237   8.611 -0.7358 -4.5704 -1.4597
  677MOL0     H91393   1.869   7.952   8.520 -1.2287 -0.0398 -0.6942
  677MOL0     H91394   1.218   7.925   8.949 -2.5002 -1.3131  0.8739
  677MOL0     H91395   1.060   7.829   9.110 -1.2074  1.7818 -0.9367
  678MOL0     O91396   4.131   6.262   3.730  0.3269  0.2338 -0.0466
  678MOL0     C91397   4.031   6.338   3.719  0.4223  0.0312  0.4234
  678MOL0     O91398   3.926   6.344   3.802  1.1172  0.5838 -0.1195
  678MOL0     C91399   3.917   6.263   3.916 -0.1116 -0.0206  0.2230
  678MOL0     C91400   3.938   6.120   3.909  0.6231  1.0108  0.5681
  678MOL0     C91401   3.925   6.049   4.025  0.2432  0.2070 -0.7357
  678MOL0     C91402   3.881   6.106   4.143 -0.5187 -1.3669  0.7819
  678MOL0     O91403   3.851   6.042   4.260  0.4097  0.6216  0.2161
  678MOL0     C91404   3.778   5.913   4.239 -0.7160 -0.5841 -0.1751
  678MOL0     C91405   3.877   5.797   4.255 -0.3414  0.4406 -0.2214
  678MOL0     C91406   3.901   5.743   4.399 -0.1327  0.4611 -0.5218
  678MOL0     C91407   4.009   5.628   4.413 -0.3052  0.2627 -0.2748
  678MOL0     C91408   4.027   5.601   4.568 -0.2279 -0.3376  0.8905
  678MOL0     C91409   4.119   5.481   4.590 -0.1085  0.6175  0.4574
  678MOL0     C91410   4.111   5.422   4.741 -0.1361 -0.0694 -0.2817
  678MOL0     C91411   3.994   5.319   4.762 -0.2835  0.0097 -0.0557
  678MOL0     N91412   4.049   5.184   4.762  0.2580  0.3128  0.1644
  678MOL0     C91413   4.026   5.094   4.867  0.1484 -0.6701  0.3770
  678MOL0     C91414   4.088   4.985   4.820  0.2922 -0.1627 -0.1755
  678MOL0     C91415   4.098   4.843   4.876 -0.0817  0.4878 -0.2941
  678MOL0     C91416   4.033   4.828   5.020  0.3621 -0.2500  0.1398
  678MOL0     C91417   4.079   4.709   5.098 -0.3516  0.5194  0.2622
  678MOL0     C91418   4.035   4.689   5.244  0.2824 -0.5710 -0.1007
  678MOL0     O91419   4.101   4.779   5.342  0.2065 -0.0277  0.1632
  678MOL0     C91420   4.057   4.771   5.473 -0.5153 -0.2400 -0.7569
  678MOL0     C91421   3.934   4.822   5.500  0.8286  0.2353 -0.4026
  678MOL0     C91422   3.876   4.833   5.625 -0.7765  0.0284 -0.5491
  678MOL0     C91423   3.741   4.898   5.632 -0.4358  0.1111 -0.5383
  678MOL0     C91424   3.942   4.782   5.738 -1.2587 -0.4095 -0.0930
  678MOL0     C91425   3.916   4.801   5.879  0.9349 -0.1674  0.1590
  678MOL0     O91426   4.024   4.810   5.961  0.0641  0.0713 -0.4056
  678MOL0     C91427   4.014   4.781   6.099 -0.8732  0.2242  0.6316
  678MOL0     C91428   3.913   4.721   6.178 -0.8538 -0.1516  0.3523
  678MOL0     C91429   3.930   4.704   6.315 -0.5125 -0.0887 -0.5774
  678MOL0     C91430   4.051   4.747   6.376  0.2876  0.3051 -0.6274
  678MOL0     O91431   4.065   4.715   6.511  0.2617 -0.6804 -0.1702
  678MOL0     C91432   4.167   4.776   6.583  0.0027 -0.2717 -0.4011
  678MOL0     C91433   4.118   4.910   6.656  0.6101 -0.1186  0.5770
  678MOL0     C91434   4.036   4.998   6.575 -0.0403 -0.0875 -0.3710
  678MOL0     C91435   3.977   5.112   6.666  0.1004 -0.0031 -0.4539
  678MOL0     C91436   3.886   5.201   6.571  0.0099 -1.2643 -0.1946
  678MOL0     C91437   3.847   5.333   6.636  0.3890  0.0220  1.0379
  678MOL0     C91438   3.716   5.323   6.728  0.2380  0.3338 -0.2220
  678MOL0     C91439   3.685   5.457   6.794  0.6909  0.7781  0.4716
  678MOL0    Cl91440   3.514   5.455   6.847  0.0568 -0.0694 -0.4845
  678MOL0     C91441   4.141   4.822   6.308 -1.1016  0.7856 -0.8265
  678MOL0     C91442   4.122   4.842   6.170 -0.1187  0.4443 -0.1603
  678MOL0     O91443   3.797   4.801   5.914 -0.2636  0.8207 -0.1965
  678MOL0     C91444   4.066   4.715   5.712  0.3864  0.4550 -0.5545
  678MOL0     C91445   4.122   4.716   5.587 -0.3548 -0.4707 -0.0170
  678MOL0     N91446   4.152   5.010   4.702  1.1467 -0.6796  0.4073
  678MOL0     N91447   4.121   5.132   4.662  0.0844  0.1346  0.9716
  678MOL0     C91448   3.873   6.241   4.145 -0.5145 -0.1416  0.0926
  678MOL0     C91449   3.876   6.322   4.035 -1.0202  0.4540  0.1479
  678MOL0     C91450   4.027   6.432   3.598  0.9319  0.5258 -0.6711
  678MOL0     C91451   4.141   6.440   3.518  0.9704  0.1730 -0.3163
  678MOL0     C91452   4.156   6.537   3.418  1.3209 -0.1005  0.5665
  678MOL0     C91453   4.043   6.622   3.389 -0.3670 -0.0468 -0.4704
  678MOL0     O91454   4.034   6.721   3.294 -0.8381 -0.3123 -0.3706
  678MOL0     C91455   4.146   6.751   3.208  0.6674 -1.2061  1.6802
  678MOL0     C91456   4.110   6.887   3.133 -1.0919 -0.5125 -0.4716
  678MOL0     C91457   4.061   6.986   3.242  1.1130  0.0781  0.9379
  678MOL0     C91458   4.124   7.127   3.238  0.9191  0.2227  0.1472
  678MOL0     C91459   4.098   7.186   3.102 -0.2056 -0.9735 -0.7486
  678MOL0     C91460   4.045   7.240   3.007  0.3040 -0.0251 -0.2211
  678MOL0     C91461   3.926   6.612   3.476 -0.0135 -1.2056 -0.1176
  678MOL0     C91462   3.926   6.521   3.575  0.2469 -1.0954  0.1927
  678MOL0     H91463   3.972   6.067   3.821 -0.7545  1.7199 -0.4355
  678MOL0     H91464   3.964   5.948   4.027 -0.6807 -0.1441 -0.3678
  678MOL0     H91465   3.695   5.902   4.310 -1.3945 -3.2598 -1.2536
  678MOL0     H91466   3.721   5.902   4.147  0.4812 -2.5875 -0.7503
  678MOL0     H91467   3.834   5.713   4.201 -1.3122 -1.8650  3.7350
  678MOL0     H91468   3.977   5.823   4.218 -0.4564  3.2961  1.1254
  678MOL0     H91469   3.920   5.833   4.458  0.4135  0.3621 -0.5396
  678MOL0     H91470   3.806   5.703   4.436 -0.8278  1.7579 -0.8531
  678MOL0     H91471   3.987   5.532   4.365  0.4011 -0.4972  0.8786
  678MOL0     H91472   4.093   5.672   4.359 -1.9079  0.2937 -2.9366
  678MOL0     H91473   4.076   5.690   4.609  0.8510 -0.3983 -0.1898
  678MOL0     H91474   3.929   5.588   4.615 -0.1578 -0.8933  0.8904
  678MOL0     H91475   4.096   5.397   4.524  0.7162 -1.9844  3.2524
  678MOL0     H91476   4.221   5.514   4.571  0.7354 -1.0859  1.7277
  678MOL0     H91477   4.213   5.392   4.768  1.1197  4.4744  0.8032
  678MOL0     H91478   4.086   5.500   4.813 -1.6240 -0.8888  0.1302
  678MOL0     H91479   3.915   5.338   4.688 -0.3741 -2.7460 -0.7858
  678MOL0     H91480   3.943   5.335   4.857 -0.3875  0.8760 -0.2547
  678MOL0     H91481   3.952   5.103   4.947 -2.1478 -2.0941 -1.4608
  678MOL0     H91482   4.048   4.776   4.805 -1.0732  1.8300 -0.9161
  678MOL0     H91483   4.205   4.820   4.877  0.0282  0.7055 -2.2702
  678MOL0     H91484   3.924   4.833   5.011  0.3239  0.7678  0.9292
  678MOL0     H91485   4.067   4.916   5.075  0.7539  0.2567 -0.8832
  678MOL0     H91486   4.188   4.714   5.098 -0.3259  2.7362 -2.6212
  678MOL0     H91487   4.038   4.622   5.046 -0.6947  0.9235 -0.1459
  678MOL0     H91488   4.075   4.590   5.268  1.4095 -0.8823 -2.8742
  678MOL0     H91489   3.928   4.689   5.267  0.0600  2.0989 -0.8326
  678MOL0     H91490   3.871   4.849   5.416 -1.1933  0.3080  1.0584
  678MOL0     H91491   3.749   4.984   5.699 -0.9314  1.0135 -1.6151
  678MOL0     H91492   3.706   4.938   5.537 -1.1322 -0.4273 -0.5127
  678MOL0     H91493   3.667   4.829   5.673 -2.4537  0.8343 -2.7183
  678MOL0     H91494   3.821   4.687   6.131 -1.2883  0.4817  0.7406
  678MOL0     H91495   3.847   4.658   6.369  0.3345 -2.4940 -1.2259
  678MOL0     H91496   4.184   4.706   6.665 -1.1455  0.3781  0.4105
  678MOL0     H91497   4.263   4.789   6.531  0.6024  0.1927  0.7870
  678MOL0     H91498   4.051   4.869   6.732 -0.0985  1.7572  1.0148
  678MOL0     H91499   4.192   4.965   6.714  1.1047 -0.2722  0.1070
  678MOL0     H91500   3.951   4.948   6.527  2.8037 -2.9829 -2.8577
  678MOL0     H91501   4.104   5.030   6.495 -0.8821 -1.1113 -1.5308
  678MOL0     H91502   3.918   5.063   6.744  0.2880 -0.5976 -0.6868
  678MOL0     H91503   4.059   5.172   6.708 -0.6352  0.8156 -0.1423
  678MOL0     H91504   3.795   5.145   6.550  0.6821 -2.7925  0.7669
  678MOL0     H91505   3.939   5.218   6.477 -1.0260  0.9241 -0.4250
  678MOL0     H91506   3.924   5.387   6.691 -0.7546  2.8710  0.0307
  678MOL0     H91507   3.814   5.390   6.549  1.8041 -0.5683  0.0677
  678MOL0     H91508   3.723   5.251   6.810  1.9344  0.7350  0.0277
  678MOL0     H91509   3.641   5.285   6.658 -0.9135 -2.0769  2.1365
  678MOL0     H91510   3.709   5.542   6.730 -0.3292  1.4612  0.9779
  678MOL0     H91511   3.757   5.479   6.874  0.6552  0.1974  0.6690
  678MOL0     H91512   4.225   4.868   6.360 -2.5425  3.3749 -0.6633
  678MOL0     H91513   4.180   4.919   6.120  0.1122  1.8493  2.1406
  678MOL0     H91514   4.119   4.658   5.788 -0.3154  0.2121 -0.2420
  678MOL0     H91515   4.223   4.680   5.570 -0.4362  0.2491 -2.3708
  678MOL0     H91516   3.845   6.281   4.242  2.0002 -3.8923  2.6427
  678MOL0     H91517   3.865   6.429   4.048 -0.5504  0.4051  1.0838
  678MOL0     H91518   4.223   6.377   3.551 -0.3348 -0.4517  1.9147
  678MOL0     H91519   4.239   6.537   3.348  0.1044 -4.2301 -1.1648
  678MOL0     H91520   4.247   6.748   3.252  2.0423 -0.9161 -1.2039
  678MOL0     H91521   4.153   6.673   3.131 -2.0402  0.0725 -0.0226
  678MOL0     H91522   4.028   6.869   3.063 -0.6699 -1.4479 -0.7364
  678MOL0     H91523   4.197   6.925   3.078 -0.9406  1.3596  0.9649
  678MOL0     H91524   4.092   6.942   3.338  5.0856 -0.4465 -0.4038
  678MOL0     H91525   3.952   6.988   3.241  0.8971 -3.4828  2.4690
  678MOL0     H91526   4.227   7.123   3.274 -0.4092  0.3235  4.5746
  678MOL0     H91527   4.067   7.185   3.311 -1.4052  0.6790 -1.8928
  678MOL0     H91528   4.011   7.295   2.921  1.9483  1.8241  0.2303
  678MOL0     H91529   3.843   6.679   3.459  1.8284  1.0640 -0.6652
  678MOL0     H91530   3.838   6.525   3.639  0.5454  1.2397  0.5515
  679MOL0     O91531   6.226   7.413   2.763  1.1018  0.4174  0.8885
  679MOL0     C91532   6.247   7.531   2.779 -1.4490  0.0531 -1.2665
  679MOL0     O91533   6.264   7.592   2.902 -0.1847  0.5059  0.5556
  679MOL0     C91534   6.207   7.537   3.014  0.1239 -0.6790 -0.2976
  679MOL0     C91535   6.111   7.617   3.079  0.3319 -0.0688 -0.1838
  679MOL0     C91536   6.067   7.573   3.210 -0.1277 -0.3035  0.2164
  679MOL0     C91537   6.119   7.463   3.276 -0.2593  0.6923 -0.4789
  679MOL0     O91538   6.075   7.443   3.402  0.5757  0.2049  0.1115
  679MOL0     C91539   6.146   7.340   3.481  0.3247 -0.2095 -0.2941
  679MOL0     C91540   6.089   7.324   3.620  0.4955  0.8152  0.2323
  679MOL0     C91541   5.944   7.288   3.631  0.6830  1.2006  0.5411
  679MOL0     C91542   5.899   7.165   3.716 -0.5967 -0.0742  0.5517
  679MOL0     C91543   5.971   7.162   3.847 -1.1800  0.5076 -0.1162
  679MOL0     C91544   5.900   7.076   3.946 -0.6666  0.0936 -0.6813
  679MOL0     C91545   5.970   7.061   4.087 -0.3746  0.5811 -0.5155
  679MOL0     C91546   5.883   6.981   4.185 -0.0396  0.6059  0.5730
  679MOL0     N91547   5.873   6.835   4.149 -0.1063 -0.5223 -0.2727
  679MOL0     C91548   5.933   6.734   4.224 -0.8065  0.0413  1.1412
  679MOL0     C91549   5.884   6.614   4.174  0.8735 -0.2609 -0.0283
  679MOL0     C91550   5.922   6.477   4.214  0.0848  0.1373  0.6363
  679MOL0     C91551   5.825   6.421   4.323 -0.7231  1.0215  0.1650
  679MOL0     C91552   5.853   6.489   4.464  0.6456  0.2116  0.8965
  679MOL0     C91553   5.989   6.440   4.521  0.1466  0.4240 -0.4303
  679MOL0     O91554   6.036   6.517   4.637 -0.0349 -0.0269 -1.0756
  679MOL0     C91555   6.165   6.570   4.642 -0.4962  0.4598  0.0479
  679MOL0     C91556   6.189   6.695   4.700  0.6455 -0.2142 -0.1389
  679MOL0     C91557   6.319   6.754   4.715 -0.2277  0.2154  0.9836
  679MOL0     C91558   6.337   6.888   4.778 -0.1317  1.2607  0.4849
  679MOL0     C91559   6.428   6.679   4.655  0.5361  0.0467 -0.3207
  679MOL0     C91560   6.571   6.719   4.661 -0.2797  0.5334  0.6579
  679MOL0     O91561   6.615   6.774   4.779 -0.3931  0.5206 -0.4056
  679MOL0     C91562   6.742   6.828   4.777  0.5729 -0.1777 -0.7906
  679MOL0     C91563   6.849   6.778   4.853  0.1896 -0.0137 -1.3567
  679MOL0     C91564   6.968   6.845   4.848  0.0028 -0.1707  0.1794
  679MOL0     C91565   7.002   6.942   4.749 -0.2041 -0.5606  0.0174
  679MOL0     O91566   7.130   6.997   4.758  0.5481  0.2042 -0.0192
  679MOL0     C91567   7.144   7.138   4.731  0.3231  0.2066  0.0630
  679MOL0     C91568   7.245   7.202   4.822  0.8375  0.3900 -0.6992
  679MOL0     C91569   7.384   7.166   4.765  0.1694 -0.5019  0.4088
  679MOL0     C91570   7.507   7.230   4.838 -0.0962  0.1158 -0.9337
  679MOL0     C91571   7.645   7.227   4.767 -0.1919  0.1082 -0.0302
  679MOL0     C91572   7.693   7.089   4.714 -0.4464  0.4704  0.9247
  679MOL0     C91573   7.825   7.095   4.643  0.2001  0.1740 -0.4411
  679MOL0     C91574   7.818   7.142   4.499  0.7777  0.1780  0.2497
  679MOL0    Cl91575   7.815   7.319   4.480 -0.4479 -0.3340  0.2567
  679MOL0     C91576   6.900   6.981   4.658 -0.1795 -0.3217  0.0546
  679MOL0     C91577   6.772   6.933   4.696  0.2658  0.0006  0.5200
  679MOL0     O91578   6.636   6.687   4.559  0.0489 -0.2162 -0.5719
  679MOL0     C91579   6.407   6.550   4.599 -0.5834 -0.2768 -0.2772
  679MOL0     C91580   6.273   6.494   4.595 -0.2780  0.5023  0.0024
  679MOL0     N91581   5.787   6.648   4.078 -0.0035 -0.2986 -0.7032
  679MOL0     N91582   5.778   6.781   4.063 -0.1982  0.2966  0.0720
  679MOL0     C91583   6.206   7.383   3.202  0.8659  0.2561  0.5346
  679MOL0     C91584   6.252   7.424   3.077  0.0157  0.1362 -0.9671
  679MOL0     C91585   6.292   7.608   2.654 -0.4177 -0.5758 -0.4620
  679MOL0     C91586   6.350   7.735   2.665 -0.9405 -0.0572  0.7358
  679MOL0     C91587   6.431   7.793   2.557 -0.1563  0.3297 -1.0972
  679MOL0     C91588   6.428   7.727   2.439  0.9175  0.1391 -0.3093
  679MOL0     O91589   6.496   7.784   2.335 -0.0798  0.3369 -0.7210
  679MOL0     C91590   6.433   7.893   2.276  0.0383 -0.4717  0.1350
  679MOL0     C91591   6.402   7.850   2.125 -0.3055  0.1155  0.7190
  679MOL0     C91592   6.529   7.838   2.031 -0.4515  0.7203  0.3797
  679MOL0     C91593   6.595   7.972   1.999 -0.2773 -0.2951  0.3866
  679MOL0     C91594   6.687   8.011   2.114  0.3367 -0.0366 -0.1007
  679MOL0     C91595   6.755   8.028   2.214  0.9301  0.4103  0.2786
  679MOL0     C91596   6.347   7.617   2.417  0.1288 -0.1406  1.1699
  679MOL0     C91597   6.286   7.544   2.524 -0.4412 -0.7971  0.8751
  679MOL0     H91598   6.064   7.703   3.032 -0.5248 -0.7278 -0.5716
  679MOL0     H91599   5.989   7.630   3.260  1.1149 -1.2675  3.5077
  679MOL0     H91600   6.129   7.244   3.432 -2.2046  0.0599 -0.0573
  679MOL0     H91601   6.251   7.369   3.497  0.5870 -0.0331 -2.1597
  679MOL0     H91602   6.155   7.257   3.675 -0.2133  0.8096  1.1005
  679MOL0     H91603   6.098   7.410   3.687  0.5668 -1.3439  3.1723
  679MOL0     H91604   5.896   7.370   3.684  0.3020  0.7776  0.8631
  679MOL0     H91605   5.898   7.277   3.532 -2.1388  0.0799  1.8723
  679MOL0     H91606   5.792   7.169   3.735 -0.7914 -2.1342  0.1708
  679MOL0     H91607   5.928   7.074   3.663 -1.1204 -0.6653  1.2559
  679MOL0     H91608   6.073   7.121   3.841 -1.5000 -1.5772  4.2609
  679MOL0     H91609   5.973   7.264   3.887 -3.2056  0.0722  1.2363
  679MOL0     H91610   5.801   7.121   3.963 -1.5388 -0.9177 -2.6896
  679MOL0     H91611   5.879   6.978   3.903 -1.7711 -0.1134  0.2800
  679MOL0     H91612   6.073   7.026   4.081 -0.4190 -0.6918  3.3683
  679MOL0     H91613   5.975   7.163   4.125  0.7468  0.0671  0.7865
  679MOL0     H91614   5.782   7.023   4.186 -1.4465 -2.4818  2.3352
  679MOL0     H91615   5.923   6.989   4.287 -0.0728  1.0631  0.5535
  679MOL0     H91616   6.011   6.744   4.300  0.1854 -0.2917  0.1963
  679MOL0     H91617   5.899   6.408   4.132 -2.7528  0.3631  1.1130
  679MOL0     H91618   6.026   6.463   4.244 -0.0917  1.2708  1.9053
  679MOL0     H91619   5.849   6.317   4.342 -0.5649  0.5885 -2.0766
  679MOL0     H91620   5.722   6.425   4.286 -2.2142 -1.8152  3.4550
  679MOL0     H91621   5.776   6.461   4.537 -1.8379 -0.5223 -1.8076
  679MOL0     H91622   5.858   6.598   4.453 -0.3571  0.1850 -0.0100
  679MOL0     H91623   6.060   6.461   4.441  2.1755  0.1807  1.2229
  679MOL0     H91624   5.997   6.332   4.540  1.3033  0.6420  0.4452
  679MOL0     H91625   6.094   6.732   4.739  1.2792  1.8569 -0.4415
  679MOL0     H91626   6.384   6.956   4.707  1.9558  0.7144  1.2440
  679MOL0     H91627   6.248   6.937   4.817 -0.5218 -1.5293  3.6145
  679MOL0     H91628   6.397   6.865   4.867 -0.1326 -2.7479 -0.3607
  679MOL0     H91629   6.834   6.691   4.916  1.0511 -0.8612 -2.2776
  679MOL0     H91630   7.047   6.828   4.921  0.8969  0.5106 -0.6028
  679MOL0     H91631   7.168   7.136   4.624  0.6057 -0.9172  0.1439
  679MOL0     H91632   7.053   7.198   4.742  0.4565  0.9687 -2.3740
  679MOL0     H91633   7.240   7.310   4.837  0.3201  0.2469  0.3074
  679MOL0     H91634   7.236   7.152   4.919  2.5157 -4.7860 -2.8544
  679MOL0     H91635   7.381   7.209   4.664 -1.6802  0.8646  1.0012
  679MOL0     H91636   7.389   7.057   4.759 -0.0792 -0.4421 -3.3397
  679MOL0     H91637   7.477   7.333   4.862 -0.7311 -0.1960 -0.3825
  679MOL0     H91638   7.517   7.189   4.939 -1.9062  1.1114 -0.3050
  679MOL0     H91639   7.706   7.277   4.843 -0.8580  3.7915 -1.6845
  679MOL0     H91640   7.641   7.294   4.680  3.1334  0.2627 -0.2065
  679MOL0     H91641   7.705   7.024   4.800  0.1615 -1.4417 -0.5284
  679MOL0     H91642   7.618   7.052   4.643 -0.2669 -1.1853  1.5658
  679MOL0     H91643   7.869   6.995   4.645 -1.3916 -0.5645  0.6636
  679MOL0     H91644   7.899   7.158   4.693  0.0981  1.8407 -2.2976
  679MOL0     H91645   7.721   7.110   4.462 -0.9128  2.1760  2.6598
  679MOL0     H91646   7.892   7.108   4.425 -1.3104 -1.5325 -1.1675
  679MOL0     H91647   6.923   7.037   4.569  4.6177 -1.2366  0.4058
  679MOL0     H91648   6.694   6.972   4.631  1.0180 -0.2607 -0.5544
  679MOL0     H91649   6.486   6.486   4.563  1.3809  1.7083  0.3228
  679MOL0     H91650   6.259   6.401   4.541 -0.5139  1.8599 -2.3993
  679MOL0     H91651   6.247   7.291   3.242  2.4468  0.4369 -0.5872
  679MOL0     H91652   6.326   7.369   3.020  0.3310  2.1678 -2.6795
  679MOL0     H91653   6.356   7.782   2.763  1.9830  1.0235  0.1484
  679MOL0     H91654   6.481   7.886   2.581 -0.2972  0.1023  0.1270
  679MOL0     H91655   6.333   7.909   2.317  0.3964 -1.2573  1.3799
  679MOL0     H91656   6.480   7.991   2.273 -4.1597  1.7706 -0.6405
  679MOL0     H91657   6.330   7.917   2.077  2.2547  0.7378 -2.6663
  679MOL0     H91658   6.353   7.753   2.129  0.0987 -0.1858 -0.8427
  679MOL0     H91659   6.523   7.784   1.936  0.0693  1.5050 -0.1063
  679MOL0     H91660   6.608   7.784   2.085 -0.0041  1.0661  0.0754
  679MOL0     H91661   6.522   8.053   1.994  0.0250 -0.0270  0.3025
  679MOL0     H91662   6.652   7.957   1.907 -1.1169 -4.3727  0.3194
  679MOL0     H91663   6.811   8.038   2.305  0.1171 -0.0899  0.8512
  679MOL0     H91664   6.339   7.577   2.316  3.4109  0.0244  0.7188
  679MOL0     H91665   6.238   7.450   2.500  0.7310 -1.1221 -0.3818
  680MOL0     O91666   9.401   6.827  10.498  0.3152 -0.0895 -0.4971
  680MOL0     C91667   9.289   6.842  10.453 -1.0581  0.6805  0.1570
  680MOL0     O91668   9.224   6.755  10.368 -0.4266  0.0293  0.1077
  680MOL0     C91669   9.272   6.631  10.351  0.1630  0.0505 -0.0474
  680MOL0     C91670   9.402   6.601  10.315 -0.2743  0.7777  0.7137
  680MOL0     C91671   9.456   6.470  10.295 -0.5768  0.0137  0.0634
  680MOL0     C91672   9.368   6.360  10.325 -0.0981  0.4737 -0.1350
  680MOL0     O91673   9.422   6.233  10.326  0.4156 -0.5537  0.5807
  680MOL0     C91674   9.435   6.177  10.191  0.2995  0.3048  0.1367
  680MOL0     C91675   9.529   6.056  10.181 -0.2308 -0.5979  1.0179
  680MOL0     C91676   9.508   5.949  10.281 -0.2520  0.0688 -0.5316
  680MOL0     C91677   9.356   5.902  10.286  0.2506  0.0269 -0.0636
  680MOL0     C91678   9.346   5.777  10.367  0.8805  0.3916  0.0092
  680MOL0     C91679   9.409   5.638  10.326 -0.2008 -0.1111 -0.8929
  680MOL0     C91680   9.369   5.528  10.428 -0.1967  0.3446  0.2327
  680MOL0     C91681   9.445   5.507  10.558 -0.2575  0.0671  0.3289
  680MOL0     N91682   9.592   5.518  10.538 -0.1715 -0.2233 -0.1314
  680MOL0     C91683   9.678   5.429  10.480 -0.6464 -1.2746  0.4862
  680MOL0     C91684   9.798   5.482  10.493  0.6493  0.1724  0.4984
  680MOL0     C91685   9.920   5.409  10.440 -0.0094  0.7297 -0.0899
  680MOL0     C91686   9.999   5.339  10.548  0.1822  0.6022 -0.3480
  680MOL0     C91687  10.063   5.434  10.653  0.1629 -0.4251 -0.1708
  680MOL0     C91688  10.148   5.385  10.766 -0.3036  0.9505 -0.1153
  680MOL0     O91689  10.246   5.284  10.723 -0.8131 -0.0025  0.2600
  680MOL0     C91690  10.344   5.331  10.635 -0.0398  0.1166 -1.2739
  680MOL0     C91691  10.409   5.236  10.543  0.4808 -0.4358  0.1140
  680MOL0     C91692  10.515   5.277  10.467  0.0614  0.5485 -0.5533
  680MOL0     C91693  10.553   5.169  10.377 -0.4914  0.6375  0.3748
  680MOL0     C91694  10.564   5.407  10.463 -0.0564 -0.3885 -0.1595
  680MOL0     C91695  10.682   5.446  10.379  0.6286 -1.0872 -0.4828
  680MOL0     O91696  10.786   5.362  10.391 -0.2422  0.5100  0.5073
  680MOL0     C91697  10.904   5.384  10.320 -0.5555 -0.1218 -0.9771
  680MOL0     C91698  11.007   5.453  10.383  0.0985 -0.6940 -0.2245
  680MOL0     C91699  11.127   5.468  10.330  0.2546 -0.4320  0.3388
  680MOL0     C91700  11.164   5.422  10.198  0.0784  0.2899  0.9633
  680MOL0     O91701  11.287   5.459  10.147 -0.0596  0.0898 -0.0004
  680MOL0     C91702  11.394   5.464  10.235  0.0896  0.0316  0.3212
  680MOL0     C91703  11.425   5.608  10.268 -0.4348 -0.0018  0.0472
  680MOL0     C91704  11.538   5.621  10.380  0.5045  0.1303  0.8282
  680MOL0     C91705  11.589   5.762  10.392  0.4094  0.8970  0.7126
  680MOL0     C91706  11.670   5.770  10.519 -0.0849  0.6657  0.5839
  680MOL0     C91707  11.743   5.904  10.505 -0.3887 -0.4207  0.4735
  680MOL0     C91708  11.864   5.887  10.589 -0.6093 -0.1006 -0.8103
  680MOL0     C91709  11.913   6.019  10.639 -0.7692  0.9260 -0.7675
  680MOL0    Cl91710  12.088   6.008  10.683  0.2661  0.3172 -0.0770
  680MOL0     C91711  11.056   5.368  10.125 -0.7274 -0.7658  0.0134
  680MOL0     C91712  10.937   5.334  10.189 -0.1878 -0.4328 -0.3754
  680MOL0     O91713  10.680   5.554  10.315  0.3754  0.7407  0.6081
  680MOL0     C91714  10.490   5.504  10.534 -0.9938  0.5512  0.7229
  680MOL0     C91715  10.384   5.462  10.612  0.1961 -0.5268 -0.2244
  680MOL0     N91716   9.787   5.611  10.554  0.2963 -0.0782  0.0993
  680MOL0     N91717   9.663   5.625  10.588  0.6938 -0.5465 -0.2262
  680MOL0     C91718   9.234   6.391  10.358  0.8902 -0.3961 -0.2017
  680MOL0     C91719   9.186   6.521  10.370 -1.3063 -0.2683 -0.7403
  680MOL0     C91720   9.215   6.971  10.489 -0.8917 -0.3736 -0.2025
  680MOL0     C91721   9.283   7.086  10.536  0.0673  0.3599  0.1029
  680MOL0     C91722   9.214   7.207  10.553  0.2974 -0.4189  0.0984
  680MOL0     C91723   9.079   7.221  10.521  0.1803 -0.7258 -0.0321
  680MOL0     O91724   9.016   7.347  10.552  0.1860  0.4044 -0.4511
  680MOL0     C91725   8.883   7.350  10.619 -0.4270 -0.0831 -0.6586
  680MOL0     C91726   8.915   7.337  10.769  0.4686 -0.5471  0.1351
  680MOL0     C91727   8.970   7.480  10.817 -0.1774 -1.0892  0.0690
  680MOL0     C91728   8.851   7.573  10.870 -0.5061  0.3989  0.1802
  680MOL0     C91729   8.793   7.517  10.997  0.6620  0.0642 -0.0600
  680MOL0     C91730   8.743   7.463  11.095 -0.8236  0.1969  0.7517
  680MOL0     C91731   9.014   7.117  10.460 -0.0014 -0.3246 -0.0532
  680MOL0     C91732   9.081   6.992  10.444 -0.5913 -0.6647  0.4068
  680MOL0     H91733   9.472   6.680  10.289  1.2302 -1.1142 -1.3724
  680MOL0     H91734   9.557   6.451  10.259 -0.3602 -2.8825  1.8507
  680MOL0     H91735   9.337   6.155  10.147  0.6635 -0.1396 -0.4613
  680MOL0     H91736   9.494   6.244  10.128 -1.1262  1.5454  0.0806
  680MOL0     H91737   9.533   6.013  10.080  1.5980 -0.3555  0.9550
  680MOL0     H91738   9.634   6.080  10.200 -0.2799 -1.8398  3.0942
  680MOL0     H91739   9.573   5.872  10.238 -0.3079 -1.3964  1.8513
  680MOL0     H91740   9.545   5.984  10.377 -1.2713 -0.3010  0.0029
  680MOL0     H91741   9.287   5.977  10.326 -3.4460 -2.9590 -0.2761
  680MOL0     H91742   9.317   5.880  10.186 -0.5510 -1.4682  0.5545
  680MOL0     H91743   9.385   5.799  10.467 -0.5472 -3.3514  1.5730
  680MOL0     H91744   9.238   5.760  10.371  0.7062  1.0203 -1.3074
  680MOL0     H91745   9.387   5.609  10.223  0.9989 -0.9034 -0.9492
  680MOL0     H91746   9.518   5.648  10.320 -0.3847  1.5187 -2.2414
  680MOL0     H91747   9.266   5.540  10.463 -0.2708 -0.6871  0.4031
  680MOL0     H91748   9.355   5.433  10.374 -2.4631 -0.0066  1.3409
  680MOL0     H91749   9.428   5.405  10.593 -0.5066 -0.2955 -0.8113
  680MOL0     H91750   9.423   5.587  10.630  1.1976  0.2654  0.5864
  680MOL0     H91751   9.654   5.328  10.447 -2.3507 -0.1756 -1.9269
  680MOL0     H91752   9.887   5.332  10.370 -0.9629 -1.0179  2.1593
  680MOL0     H91753   9.997   5.469  10.390  0.5732  1.1992  1.2998
  680MOL0     H91754  10.083   5.292  10.496  1.2508  2.9024 -0.8305
  680MOL0     H91755   9.940   5.259  10.595  0.1375  0.3530 -0.8240
  680MOL0     H91756   9.982   5.488  10.705 -0.5506 -0.3892 -1.2993
  680MOL0     H91757  10.097   5.517  10.591 -2.4792  1.3101  0.4797
  680MOL0     H91758  10.091   5.336  10.845 -2.2884  2.6145 -0.4340
  680MOL0     H91759  10.205   5.464  10.816 -0.1716  0.9425 -0.2521
  680MOL0     H91760  10.360   5.139  10.545  0.5062 -0.4851  2.9377
  680MOL0     H91761  10.588   5.078  10.427 -0.0616  1.9549  2.6649
  680MOL0     H91762  10.467   5.133  10.321 -0.0355  0.1293 -0.0055
  680MOL0     H91763  10.621   5.205  10.300  0.4642 -0.8193  0.5079
  680MOL0     H91764  11.001   5.487  10.486 -3.0030 -0.3426 -0.4339
  680MOL0     H91765  11.189   5.528  10.396 -0.4274  0.5311  0.1297
  680MOL0     H91766  11.382   5.402  10.325 -3.9328  1.7408  1.1840
  680MOL0     H91767  11.476   5.420  10.178  1.3268  0.6994  1.5039
  680MOL0     H91768  11.458   5.656  10.175  0.4514 -0.4687  0.1096
  680MOL0     H91769  11.333   5.656  10.303 -0.3247 -0.6258  1.2194
  680MOL0     H91770  11.617   5.548  10.358  2.0229  1.3330  2.1113
  680MOL0     H91771  11.495   5.585  10.474  2.0860 -0.0229  1.5324
  680MOL0     H91772  11.657   5.790  10.311  0.9797  2.7553  1.7961
  680MOL0     H91773  11.505   5.832  10.386 -1.4532 -1.2799 -0.8744
  680MOL0     H91774  11.741   5.688  10.520 -1.6565 -0.8886 -2.4430
  680MOL0     H91775  11.598   5.766  10.602 -1.6549  0.7991 -0.7169
  680MOL0     H91776  11.769   5.913  10.399 -0.9240  1.2506  0.4477
  680MOL0     H91777  11.691   5.996  10.532  0.1172  1.1072 -3.2117
  680MOL0     H91778  11.936   5.840  10.522 -1.5767 -0.3105 -1.7339
  680MOL0     H91779  11.838   5.831  10.679 -1.9123 -2.5095 -2.5773
  680MOL0     H91780  11.864   6.051  10.732 -1.7249  2.0270 -1.6338
  680MOL0     H91781  11.894   6.090  10.559 -0.3477  0.9252 -0.8707
  680MOL0     H91782  11.077   5.350  10.020  2.3561  1.6611  0.0909
  680MOL0     H91783  10.863   5.279  10.132  0.1482 -1.3661  0.0671
  680MOL0     H91784  10.509   5.609  10.517 -1.6269  0.5683  0.1232
  680MOL0     H91785  10.342   5.547  10.666  0.9675  0.0830 -0.5627
  680MOL0     H91786   9.180   6.299  10.378  2.8826 -0.8863  3.7783
  680MOL0     H91787   9.082   6.534  10.398 -0.8563  0.7370  0.5882
  680MOL0     H91788   9.381   7.077  10.583  0.0482  3.0866  0.8378
  680MOL0     H91789   9.262   7.291  10.603  1.9466  0.0423 -2.0783
  680MOL0     H91790   8.828   7.443  10.601  0.7243  1.4947  3.0234
  680MOL0     H91791   8.825   7.268  10.578 -2.1749  1.2090 -0.8877
  680MOL0     H91792   8.985   7.257  10.793  1.9921  1.4623  3.1145
  680MOL0     H91793   8.819   7.322  10.819  1.6274 -0.7297  2.4485
  680MOL0     H91794   9.011   7.537  10.733  0.2864  1.5581  1.9868
  680MOL0     H91795   9.054   7.481  10.886  0.2975  0.3848 -0.4967
  680MOL0     H91796   8.769   7.569  10.798  0.5792 -3.4932 -1.0744
  680MOL0     H91797   8.902   7.668  10.888 -0.0218  0.1859 -0.0710
  680MOL0     H91798   8.708   7.423  11.188 -0.6649 -0.0747  0.6947
  680MOL0     H91799   8.908   7.121  10.436  0.3150  1.5076 -1.3234
  680MOL0     H91800   9.035   6.908  10.394  1.9310 -1.5419 -0.6222
  681MOL0     O91801   2.824   5.673  10.895 -0.3278 -0.0421 -0.3888
  681MOL0     C91802   2.708   5.720  10.872  0.9469 -0.4533  0.7948
  681MOL0     O91803   2.631   5.800  10.956 -0.1497 -0.5063  0.1024
  681MOL0     C91804   2.674   5.838  11.088  0.0236  0.9052  0.2363
  681MOL0     C91805   2.732   5.753  11.192 -0.1944 -0.6845 -0.6498
  681MOL0     C91806   2.763   5.806  11.314  0.3463 -0.4629  0.3308
  681MOL0     C91807   2.722   5.938  11.346 -0.5047 -0.8731 -0.5332
  681MOL0     O91808   2.726   5.993  11.468 -0.5137  0.5398  0.2348
  681MOL0     C91809   2.612   6.063  11.521 -1.0965 -0.1779 -0.0747
  681MOL0     C91810   2.591   6.052  11.669  0.6971  0.6809 -0.1560
  681MOL0     C91811   2.718   6.097  11.740 -0.4155  0.4080  0.5709
  681MOL0     C91812   2.692   6.151  11.878  0.8596  0.7035 -0.9248
  681MOL0     C91813   2.653   6.037  11.972  0.1874  0.2413  0.4099
  681MOL0     C91814   2.622   6.095  12.113 -0.4680 -0.1388 -0.4015
  681MOL0     C91815   2.555   5.977  12.194 -0.1419 -0.9658 -0.2814
  681MOL0     C91816   2.469   6.013  12.315 -0.9184  0.1245  0.7060
  681MOL0     N91817   2.462   5.904  12.414 -0.0219  0.5725  0.1779
  681MOL0     C91818   2.349   5.838  12.453 -0.9504 -0.1924 -0.1386
  681MOL0     C91819   2.394   5.742  12.530 -0.6082  0.1677 -0.4297
  681MOL0     C91820   2.299   5.639  12.589 -0.0711  0.3441 -0.3393
  681MOL0     C91821   2.319   5.652  12.741  0.4926 -0.4054  0.2530
  681MOL0     C91822   2.227   5.551  12.806  0.2767 -0.4569  0.5160
  681MOL0     C91823   2.235   5.554  12.960 -0.2342 -0.1737  0.2814
  681MOL0     O91824   2.103   5.599  13.010 -0.2955 -0.4332  0.5663
  681MOL0     C91825   2.035   5.510  13.084 -0.3563  0.1527 -0.7665
  681MOL0     C91826   2.009   5.540  13.222  0.9213  0.7087 -0.0971
  681MOL0     C91827   1.944   5.443  13.305 -0.7907 -0.4593  0.3691
  681MOL0     C91828   1.947   5.469  13.454 -0.0955  0.2904  0.0144
  681MOL0     C91829   1.899   5.325  13.248 -0.8403  0.4183 -0.2575
  681MOL0     C91830   1.811   5.229  13.324  0.3209 -0.1920 -0.3666
  681MOL0     O91831   1.775   5.256  13.455  0.0331  0.3715  0.1575
  681MOL0     C91832   1.673   5.186  13.505 -0.0108 -0.6680 -0.5558
  681MOL0     C91833   1.691   5.112  13.626 -1.0538  0.1344  0.1664
  681MOL0     C91834   1.589   5.044  13.692 -0.6709 -0.5518 -0.1466
  681MOL0     C91835   1.463   5.047  13.630  0.3080 -0.0022 -0.4975
  681MOL0     O91836   1.354   4.983  13.673  0.2959 -0.2513  0.5853
  681MOL0     C91837   1.377   4.858  13.736  0.5191  0.5671  0.7433
  681MOL0     C91838   1.295   4.749  13.675  1.1315 -0.0862 -0.3819
  681MOL0     C91839   1.323   4.720  13.525  0.2064 -0.6644  0.0439
  681MOL0     C91840   1.222   4.799  13.429 -0.3478  0.3147 -0.2376
  681MOL0     C91841   1.256   4.782  13.282  0.4792  0.5835 -0.0957
  681MOL0     C91842   1.385   4.865  13.245  0.9943 -0.0452 -0.3608
  681MOL0     C91843   1.505   4.773  13.208  1.0622  0.2031 -0.8850
  681MOL0     C91844   1.615   4.877  13.177 -0.1698  0.6579  1.0429
  681MOL0    Cl91845   1.755   4.806  13.082  0.0670  0.3131 -0.5609
  681MOL0     C91846   1.449   5.115  13.508  1.0604  0.8547  0.2700
  681MOL0     C91847   1.553   5.180  13.443  0.4219 -0.7906  0.0361
  681MOL0     O91848   1.795   5.119  13.268  0.6102 -0.0174 -0.2711
  681MOL0     C91849   1.937   5.299  13.111 -0.5173  0.0155 -0.6440
  681MOL0     C91850   1.998   5.390  13.031 -0.0130  0.0253  0.5738
  681MOL0     N91851   2.527   5.754  12.554 -1.0284  0.0841 -0.0515
  681MOL0     N91852   2.568   5.843  12.476 -0.1458  0.5904 -0.5233
  681MOL0     C91853   2.663   6.014  11.244 -1.4859  0.2967 -0.4198
  681MOL0     C91854   2.634   5.964  11.122 -1.1068 -0.0885 -0.2142
  681MOL0     C91855   2.649   5.686  10.740  1.0881 -0.3792 -0.1360
  681MOL0     C91856   2.665   5.561  10.679 -0.2151 -0.6211  0.4999
  681MOL0     C91857   2.620   5.532  10.549 -0.4185  0.6193  0.0027
  681MOL0     C91858   2.532   5.622  10.487  0.5098  0.2260 -0.8984
  681MOL0     O91859   2.464   5.586  10.373 -0.4080 -0.0784 -0.6757
  681MOL0     C91860   2.479   5.674  10.264  0.5389  0.1925  0.1082
  681MOL0     C91861   2.374   5.647  10.156  0.7979 -0.7351  0.2106
  681MOL0     C91862   2.363   5.763  10.051  1.3523  0.9586 -0.7488
  681MOL0     C91863   2.301   5.701   9.922  0.6840  0.6056 -0.7352
  681MOL0     C91864   2.391   5.601   9.852  0.7287  0.1402 -0.1471
  681MOL0     C91865   2.457   5.507   9.803  0.3842 -0.4581 -0.3915
  681MOL0     C91866   2.498   5.743  10.552  0.6400 -0.1949  0.4863
  681MOL0     C91867   2.555   5.778  10.676  0.4284  0.9849 -1.1363
  681MOL0     H91868   2.746   5.648  11.168  0.7797 -1.1261  1.6020
  681MOL0     H91869   2.796   5.738  11.392 -0.3326 -0.3432  0.7263
  681MOL0     H91870   2.633   6.167  11.494  3.2309 -0.9189 -0.3313
  681MOL0     H91871   2.517   6.032  11.476 -1.1964 -0.8450  0.5698
  681MOL0     H91872   2.503   6.111  11.699  0.6980  1.3928 -1.5008
  681MOL0     H91873   2.569   5.948  11.693 -2.0926  1.5001  1.3201
  681MOL0     H91874   2.779   6.006  11.745  0.8318  1.1079 -1.0121
  681MOL0     H91875   2.777   6.164  11.677 -0.3922  0.4802  0.6713
  681MOL0     H91876   2.784   6.195  11.918  0.4340 -0.9804  2.1655
  681MOL0     H91877   2.614   6.228  11.871  0.7007  0.4236 -3.0243
  681MOL0     H91878   2.569   5.983  11.930  2.1364 -0.2674 -3.2028
  681MOL0     H91879   2.734   5.964  11.980 -0.9604 -1.0290  0.7701
  681MOL0     H91880   2.720   6.100  12.163 -1.5538  1.6077  1.7090
  681MOL0     H91881   2.558   6.183  12.121 -0.1702  0.1079 -0.7108
  681MOL0     H91882   2.487   5.922  12.127 -1.6489 -1.0634  1.2601
  681MOL0     H91883   2.623   5.902  12.235 -1.4614  0.3397  5.0812
  681MOL0     H91884   2.373   6.052  12.279 -1.4293 -1.4944  0.2403
  681MOL0     H91885   2.518   6.101  12.358 -3.2080  1.3844  0.8864
  681MOL0     H91886   2.245   5.854  12.423 -0.2971  0.7003 -2.0761
  681MOL0     H91887   2.195   5.671  12.576 -0.0881  0.1146 -0.8100
  681MOL0     H91888   2.317   5.538  12.550  1.4803  1.1410 -1.8567
  681MOL0     H91889   2.299   5.752  12.780  0.0994  0.5754 -2.2932
  681MOL0     H91890   2.423   5.633  12.771  1.4235  1.4371 -1.5874
  681MOL0     H91891   2.268   5.455  12.773  1.3489  0.6526 -1.5374
  681MOL0     H91892   2.127   5.581  12.772  0.2758  1.2806  1.9203
  681MOL0     H91893   2.317   5.616  12.996 -0.5596 -0.0915  0.8882
  681MOL0     H91894   2.254   5.453  12.997  1.5554  0.4386  1.1384
  681MOL0     H91895   2.036   5.635  13.266  1.6650  0.3353  0.2729
  681MOL0     H91896   1.995   5.387  13.508 -2.7533 -1.2638  0.2092
  681MOL0     H91897   2.002   5.563  13.466  0.4443 -0.2047  1.6016
  681MOL0     H91898   1.848   5.482  13.498  0.7968  2.9475  1.4768
  681MOL0     H91899   1.792   5.109  13.665 -0.4400  0.8158 -1.3007
  681MOL0     H91900   1.615   4.976  13.772 -0.1424 -0.9223 -0.6241
  681MOL0     H91901   1.479   4.824  13.716 -0.0851 -0.4401 -0.8778
  681MOL0     H91902   1.362   4.852  13.844  1.6074 -0.7433  0.8526
  681MOL0     H91903   1.332   4.665  13.733 -1.3147 -0.0712  1.3606
  681MOL0     H91904   1.187   4.769  13.683  1.7867  3.1800  2.5390
  681MOL0     H91905   1.305   4.614  13.510  5.0270 -1.8537  0.9816
  681MOL0     H91906   1.427   4.742  13.501  0.5831  0.3360  2.3016
  681MOL0     H91907   1.121   4.757  13.445 -0.8093  2.2316  2.7397
  681MOL0     H91908   1.219   4.905  13.455 -2.1073  0.6768 -1.7153
  681MOL0     H91909   1.174   4.818  13.219 -2.5431 -1.1462  2.5594
  681MOL0     H91910   1.274   4.676  13.261  5.4851  1.0256  0.6318
  681MOL0     H91911   1.363   4.921  13.155  1.0481  3.4553  1.6301
  681MOL0     H91912   1.409   4.933  13.328 -0.6892 -0.7453  0.7682
  681MOL0     H91913   1.484   4.703  13.127 -2.0193 -0.1425  0.0786
  681MOL0     H91914   1.539   4.708  13.289  0.2074  0.3628 -0.3791
  681MOL0     H91915   1.644   4.932  13.266  1.7116  4.0166 -1.4179
  681MOL0     H91916   1.579   4.942  13.097 -0.0786 -1.1937 -0.6046
  681MOL0     H91917   1.358   5.093  13.453  0.1473 -1.3004  2.4374
  681MOL0     H91918   1.536   5.224  13.345  1.0163 -0.9542 -0.1434
  681MOL0     H91919   1.904   5.207  13.062  0.4538 -0.5937 -0.1820
  681MOL0     H91920   2.024   5.366  12.928 -1.8080 -4.1387  0.9076
  681MOL0     H91921   2.625   6.113  11.263  0.2423  1.1531 -1.1854
  681MOL0     H91922   2.568   6.014  11.052 -1.3717  0.5959  0.4992
  681MOL0     H91923   2.734   5.491  10.725  1.2436 -0.0291 -0.6729
  681MOL0     H91924   2.645   5.436  10.505  1.6731  0.7652  0.7929
  681MOL0     H91925   2.468   5.781  10.286 -2.0344  0.3987 -1.7890
  681MOL0     H91926   2.579   5.650  10.225 -0.9132  1.1180 -4.8533
  681MOL0     H91927   2.274   5.632  10.196 -0.1192  0.0843 -1.6632
  681MOL0     H91928   2.403   5.551  10.112  0.7517 -1.6192  2.0142
  681MOL0     H91929   2.468   5.785  10.029  1.6261  0.0286 -0.4382
  681MOL0     H91930   2.319   5.852  10.095 -1.3856 -1.8127  2.7874
  681MOL0     H91931   2.278   5.773   9.843 -3.6302 -0.8018 -0.9972
  681MOL0     H91932   2.200   5.668   9.949 -0.2154  1.5524 -2.7695
  681MOL0     H91933   2.517   5.434   9.751 -1.4304 -1.0065 -1.8433
  681MOL0     H91934   2.436   5.820  10.507  1.5185  1.2350  1.6160
  681MOL0     H91935   2.542   5.877  10.717 -1.2364  0.7616 -1.0441
  682MOL0     O91936   2.584   7.309   6.062  0.6369  0.9411  0.1142
  682MOL0     C91937   2.655   7.288   5.963 -0.0891  0.4523  0.9076
  682MOL0     O91938   2.791   7.288   5.966 -0.3826 -0.3223 -0.2723
  682MOL0     C91939   2.865   7.292   6.084  1.1955 -0.4083 -0.9937
  682MOL0     C91940   2.814   7.219   6.204 -0.4387  0.9739  0.0188
  682MOL0     C91941   2.894   7.198   6.318 -0.3634 -0.5068  0.4729
  682MOL0     C91942   3.026   7.258   6.315  0.0563  0.0862 -1.5400
  682MOL0     O91943   3.126   7.257   6.412  0.6191 -0.5207  0.4613
  682MOL0     C91944   3.127   7.155   6.519  0.0615 -0.8513  0.0671
  682MOL0     C91945   3.249   7.195   6.608  0.2246  0.0671 -0.1872
  682MOL0     C91946   3.226   7.328   6.688  0.9166  0.0937 -1.2920
  682MOL0     C91947   3.298   7.438   6.613  0.1969  0.0984  1.0767
  682MOL0     C91948   3.294   7.577   6.686  0.4073  0.1690 -0.4477
  682MOL0     C91949   3.146   7.637   6.708  0.8172 -0.4621 -0.4859
  682MOL0     C91950   3.070   7.635   6.578  0.8853 -0.2839 -0.4814
  682MOL0     C91951   3.139   7.711   6.462  0.7881  0.2985  0.0137
  682MOL0     N91952   3.171   7.848   6.496  0.6799  0.3926 -0.1189
  682MOL0     C91953   3.072   7.942   6.527  0.4715  0.1753 -0.2148
  682MOL0     C91954   3.135   8.064   6.540 -0.4119 -0.1825 -0.1333
  682MOL0     C91955   3.075   8.192   6.565  0.6138  0.4840  0.5003
  682MOL0     C91956   3.135   8.257   6.687 -0.2368  0.4767  0.2049
  682MOL0     C91957   3.040   8.346   6.767 -0.5934 -0.0514  1.0462
  682MOL0     C91958   2.981   8.475   6.707 -0.3204  0.0169 -0.3571
  682MOL0     O91959   2.914   8.445   6.588  0.0383 -0.5290  0.3064
  682MOL0     C91960   2.820   8.537   6.549 -0.8830 -0.3001  0.0521
  682MOL0     C91961   2.821   8.676   6.582  0.3185  0.1326  0.5894
  682MOL0     C91962   2.718   8.762   6.526  0.0991 -0.0626 -0.2033
  682MOL0     C91963   2.726   8.917   6.559 -0.5324  0.8934 -0.5803
  682MOL0     C91964   2.632   8.703   6.431 -0.0757  0.2183  0.5864
  682MOL0     C91965   2.516   8.785   6.357  0.0103 -0.2741 -0.1256
  682MOL0     O91966   2.413   8.724   6.305  0.6342  0.6866  0.1062
  682MOL0     C91967   2.326   8.784   6.223 -0.6521 -0.9309 -0.7818
  682MOL0     C91968   2.361   8.812   6.092  0.6403 -0.1179  0.8137
  682MOL0     C91969   2.269   8.850   5.995  0.0281 -0.4758  0.6320
  682MOL0     C91970   2.141   8.875   6.040  0.0574  0.1181 -0.6385
  682MOL0     O91971   2.051   8.920   5.951 -0.5613 -0.2735  0.5537
  682MOL0     C91972   1.917   8.962   5.989  0.8692  0.2355  0.6479
  682MOL0     C91973   1.834   9.013   5.869  0.1532  0.5568 -0.3671
  682MOL0     C91974   1.868   9.159   5.854 -0.4181 -0.7457  0.8723
  682MOL0     C91975   1.792   9.216   5.734 -1.2474  0.3640 -0.4744
  682MOL0     C91976   1.845   9.354   5.684  0.2650 -0.1681 -0.1934
  682MOL0     C91977   1.774   9.406   5.558 -0.8758  0.8742  0.4885
  682MOL0     C91978   1.810   9.560   5.532  0.0492 -0.0376 -0.8011
  682MOL0     C91979   1.753   9.625   5.401 -0.1602 -0.2379 -1.2068
  682MOL0    Cl91980   1.582   9.654   5.417 -0.3911 -0.0858 -0.0515
  682MOL0     C91981   2.101   8.844   6.176 -1.0457  0.1680  0.3490
  682MOL0     C91982   2.203   8.806   6.268 -0.0866  0.5990 -0.0808
  682MOL0     O91983   2.522   8.911   6.357  0.4900  0.0416  0.2592
  682MOL0     C91984   2.632   8.567   6.413  0.9582  0.6269  0.4193
  682MOL0     C91985   2.722   8.485   6.472 -0.9602  0.4820 -0.3289
  682MOL0     N91986   3.270   8.035   6.507 -0.0500 -0.6641 -0.0445
  682MOL0     N91987   3.288   7.915   6.485 -0.3035  0.6731  0.1538
  682MOL0     C91988   3.068   7.338   6.206  0.8644  0.4750 -0.6705
  682MOL0     C91989   2.984   7.366   6.094 -0.0588 -0.1426  0.3773
  682MOL0     C91990   2.580   7.294   5.835 -0.2839  0.7486 -0.0585
  682MOL0     C91991   2.618   7.204   5.734 -0.0935 -0.5208  0.6606
  682MOL0     C91992   2.532   7.192   5.624 -1.0386  0.3654 -0.4264
  682MOL0     C91993   2.438   7.288   5.594  0.4912 -0.0557 -0.3589
  682MOL0     O91994   2.367   7.308   5.479 -0.3941 -0.7197 -0.8363
  682MOL0     C91995   2.429   7.278   5.351  1.2328 -0.3985 -0.2301
  682MOL0     C91996   2.334   7.337   5.248  0.9432  0.4314  0.7908
  682MOL0     C91997   2.385   7.467   5.200 -0.1038 -0.2503  0.0004
  682MOL0     C91998   2.278   7.538   5.104  0.4764  0.3889  0.1243
  682MOL0     C91999   2.157   7.556   5.190 -1.1481  0.2070 -0.0112
  682MOL0     C92000   2.064   7.572   5.260 -0.2029  0.1319  0.2851
  682MOL0     C92001   2.408   7.380   5.694 -0.5161  0.4772  0.3120
  682MOL0     C92002   2.477   7.381   5.813 -0.0360  0.2687 -0.2648
  682MOL0     H92003   2.722   7.161   6.195  0.5306 -0.3141 -3.2274
  682MOL0     H92004   2.855   7.144   6.403 -3.4071 -0.3467 -0.6615
  682MOL0     H92005   3.032   7.176   6.568 -0.2137 -0.9247 -0.4216
  682MOL0     H92006   3.135   7.053   6.478  0.4566 -0.3542 -1.1380
  682MOL0     H92007   3.266   7.119   6.686 -0.9915 -0.6720 -0.6191
  682MOL0     H92008   3.337   7.201   6.543 -0.0494 -2.9368 -0.9987
  682MOL0     H92009   3.118   7.349   6.696  0.9412 -0.4340  2.3354
  682MOL0     H92010   3.252   7.321   6.794  0.8953 -1.3200 -1.3677
  682MOL0     H92011   3.401   7.399   6.611 -0.4597 -1.7619 -1.3350
  682MOL0     H92012   3.269   7.447   6.508 -1.3328  2.8983  1.6609
  682MOL0     H92013   3.338   7.560   6.785 -0.7082 -0.8269 -0.1004
  682MOL0     H92014   3.357   7.650   6.636 -0.5779  1.2459 -0.1555
  682MOL0     H92015   3.093   7.566   6.772  3.0029 -0.6107  1.2925
  682MOL0     H92016   3.137   7.734   6.758 -1.0765 -0.6241 -0.4447
  682MOL0     H92017   3.044   7.530   6.566  0.7223 -0.1561 -1.3327
  682MOL0     H92018   2.975   7.684   6.602  1.2558  0.6308 -0.8104
  682MOL0     H92019   3.088   7.711   6.365  2.0304  2.9904 -0.7353
  682MOL0     H92020   3.231   7.654   6.448  0.0853 -0.5183 -1.5785
  682MOL0     H92021   2.964   7.937   6.528  0.2765  2.2653 -2.2725
  682MOL0     H92022   3.080   8.256   6.476  3.7825 -0.6557 -0.2764
  682MOL0     H92023   2.968   8.186   6.585  0.7225  2.9424  2.4286
  682MOL0     H92024   3.231   8.303   6.660 -0.6801  1.1253 -0.3234
  682MOL0     H92025   3.158   8.185   6.765  0.3513  0.5779  0.1304
  682MOL0     H92026   3.092   8.368   6.861  0.7768 -0.4229  0.3912
  682MOL0     H92027   2.955   8.288   6.806 -0.8094  1.1553  2.4450
  682MOL0     H92028   3.056   8.550   6.681 -2.3554  1.3637 -2.8435
  682MOL0     H92029   2.914   8.518   6.782  0.9996  0.7892  0.4161
  682MOL0     H92030   2.889   8.726   6.650  0.3547 -0.3258  0.8991
  682MOL0     H92031   2.830   8.939   6.587 -0.5105  1.3914 -1.0383
  682MOL0     H92032   2.706   8.990   6.480  3.5912  1.2487 -1.5294
  682MOL0     H92033   2.661   8.938   6.645  0.7961  0.0922  0.6616
  682MOL0     H92034   2.456   8.783   6.049 -0.8159 -0.3011 -2.6230
  682MOL0     H92035   2.304   8.871   5.894  1.3233 -2.1947  0.6731
  682MOL0     H92036   1.870   8.878   6.041 -1.1027  1.4841  0.9974
  682MOL0     H92037   1.921   9.040   6.066 -2.2195 -1.9165  3.2753
  682MOL0     H92038   1.854   8.959   5.777  0.3036 -0.7112  0.3881
  682MOL0     H92039   1.732   9.010   5.909  0.0986 -0.7329 -0.5650
  682MOL0     H92040   1.973   9.168   5.825 -0.6991 -0.6570 -0.1250
  682MOL0     H92041   1.853   9.227   5.939  2.5419  1.5673 -0.2654
  682MOL0     H92042   1.795   9.151   5.646  1.8983  1.7040 -1.4730
  682MOL0     H92043   1.692   9.237   5.773  0.0176  0.1156  3.4385
  682MOL0     H92044   1.952   9.362   5.663  0.6008 -0.1145  1.3994
  682MOL0     H92045   1.811   9.420   5.765 -1.5434  0.1972 -1.2011
  682MOL0     H92046   1.828   9.349   5.482  1.6047  0.8983  2.1224
  682MOL0     H92047   1.668   9.383   5.575  0.0579 -5.7747 -0.2638
  682MOL0     H92048   1.918   9.576   5.538 -0.1062  0.7804  0.1258
  682MOL0     H92049   1.774   9.612   5.621  1.7236 -2.7898  1.6599
  682MOL0     H92050   1.765   9.560   5.313  1.4873 -0.1335 -1.0841
  682MOL0     H92051   1.793   9.724   5.376 -0.6102 -0.7124 -4.1488
  682MOL0     H92052   1.997   8.858   6.202 -0.5442  0.4450  2.4002
  682MOL0     H92053   2.174   8.775   6.368 -2.0915  1.8626 -0.2091
  682MOL0     H92054   2.561   8.513   6.351  1.7011 -0.5142  0.5260
  682MOL0     H92055   2.720   8.380   6.443  1.7739  0.8403 -2.1939
  682MOL0     H92056   3.161   7.394   6.207  0.1100  1.7768  1.0490
  682MOL0     H92057   3.008   7.433   6.012 -2.6997  2.0202  1.2338
  682MOL0     H92058   2.705   7.138   5.739  0.1089 -0.1787  2.3877
  682MOL0     H92059   2.566   7.121   5.549  2.4105  2.2724 -0.8947
  682MOL0     H92060   2.533   7.305   5.332  0.9766 -0.0014 -1.1173
  682MOL0     H92061   2.416   7.171   5.332 -1.0856 -0.3106  0.4984
  682MOL0     H92062   2.240   7.349   5.301  0.2784 -1.4411  0.1170
  682MOL0     H92063   2.321   7.271   5.161  0.1164 -0.9914  1.9465
  682MOL0     H92064   2.474   7.444   5.141 -0.8800  0.7544 -1.6482
  682MOL0     H92065   2.389   7.540   5.281 -0.5683 -0.1705 -0.0476
  682MOL0     H92066   2.252   7.475   5.019 -1.9332  2.7329 -1.0207
  682MOL0     H92067   2.309   7.635   5.064 -0.7319 -0.3899 -2.9619
  682MOL0     H92068   1.983   7.601   5.323  0.3762 -0.6530  1.4163
  682MOL0     H92069   2.326   7.446   5.670  0.4126  1.6253  0.2246
  682MOL0     H92070   2.467   7.458   5.888 -1.9888 -0.8854  0.7377
  683MOL0     O92071   8.520  11.306   4.518 -0.1141 -0.3403  0.2484
  683MOL0     C92072   8.618  11.293   4.593  0.8595  0.5470  0.9108
  683MOL0     O92073   8.683  11.173   4.620 -0.0649 -0.1093  0.1765
  683MOL0     C92074   8.618  11.059   4.604 -0.4132  0.7917 -0.3385
  683MOL0     C92075   8.475  11.045   4.608  0.4691  0.0603  1.3103
  683MOL0     C92076   8.408  10.924   4.578 -0.7096  0.3087  0.5070
  683MOL0     C92077   8.483  10.809   4.539  0.0818  1.1714  0.4699
  683MOL0     O92078   8.412  10.694   4.486  0.2578 -0.2410 -0.1717
  683MOL0     C92079   8.479  10.579   4.448 -0.8645  0.2998  0.5066
  683MOL0     C92080   8.537  10.491   4.564  0.4012  0.4002  0.3767
  683MOL0     C92081   8.656  10.399   4.523 -0.8765  0.5561 -0.1991
  683MOL0     C92082   8.638  10.304   4.406  0.4111  1.2250 -0.9869
  683MOL0     C92083   8.552  10.181   4.414  0.6344 -0.3414 -1.0710
  683MOL0     C92084   8.533  10.141   4.563  0.9491 -0.8346 -0.5565
  683MOL0     C92085   8.487   9.996   4.582 -0.5417  0.6248  0.3292
  683MOL0     C92086   8.590   9.892   4.553 -0.9490  0.4719 -0.4557
  683MOL0     N92087   8.540   9.754   4.559  1.0652  0.2603 -0.2879
  683MOL0     C92088   8.471   9.673   4.457 -0.4873 -0.5343 -1.4304
  683MOL0     C92089   8.440   9.556   4.520 -0.6275 -0.3451  0.7861
  683MOL0     C92090   8.396   9.433   4.474 -0.0201 -0.3766  0.1429
  683MOL0     C92091   8.278   9.432   4.384 -0.0147 -0.3808  0.1593
  683MOL0     C92092   8.142   9.461   4.443  0.1218 -0.9723 -0.8402
  683MOL0     C92093   8.120   9.603   4.468  0.2425 -0.4303  0.1773
  683MOL0     O92094   8.166   9.695   4.376  0.2856  0.1089 -0.8921
  683MOL0     C92095   8.139   9.834   4.401 -0.7797  0.0595  0.1241
  683MOL0     C92096   8.169   9.914   4.292 -0.3525 -0.1443 -0.3271
  683MOL0     C92097   8.154  10.055   4.297 -0.1534 -0.2715  0.1521
  683MOL0     C92098   8.177  10.130   4.171 -0.2828  0.2921  0.2566
  683MOL0     C92099   8.117  10.114   4.424  0.1002  0.6969  0.4032
  683MOL0     C92100   8.111  10.266   4.443 -0.9947 -0.7680  0.9891
  683MOL0     O92101   8.029  10.307   4.541  0.8511  0.5322 -0.3488
  683MOL0     C92102   8.013  10.439   4.581  0.0427 -0.4815 -0.0013
  683MOL0     C92103   7.943  10.458   4.700  0.2673 -0.5233  0.6559
  683MOL0     C92104   7.923  10.578   4.762  0.6628 -0.0711 -0.1591
  683MOL0     C92105   7.973  10.693   4.702  0.7751  0.8824 -0.4489
  683MOL0     O92106   7.969  10.809   4.770 -0.4090  0.0299 -0.9296
  683MOL0     C92107   8.092  10.870   4.793 -0.4990  0.9271 -0.1837
  683MOL0     C92108   8.078  10.938   4.926 -0.2856 -0.2731  0.8710
  683MOL0     C92109   8.083  10.840   5.039 -0.7548  1.0331 -0.5359
  683MOL0     C92110   8.034  10.895   5.169  0.2126  0.2385  0.2023
  683MOL0     C92111   7.884  10.928   5.168 -0.2743 -0.0210  0.3526
  683MOL0     C92112   7.793  10.803   5.129  0.1831  0.0351 -0.1482
  683MOL0     C92113   7.825  10.684   5.215  1.5688  0.0481 -0.1918
  683MOL0     C92114   7.702  10.592   5.232  0.8006 -0.4726 -0.2689
  683MOL0    Cl92115   7.666  10.510   5.078 -0.3001  0.3215  0.0904
  683MOL0     C92116   8.043  10.679   4.580  0.6973 -0.4845  0.2748
  683MOL0     C92117   8.060  10.554   4.522  0.3066  0.0842  0.2003
  683MOL0     O92118   8.196  10.334   4.388  0.0717  0.2055  0.3606
  683MOL0     C92119   8.081  10.030   4.524  0.2595  0.4304  0.1011
  683MOL0     C92120   8.084   9.893   4.514 -1.3428  0.4995 -0.7525
  683MOL0     N92121   8.493   9.558   4.647 -0.1891  0.2199  0.0977
  683MOL0     N92122   8.541   9.677   4.665  0.2950  0.9528 -0.9448
  683MOL0     C92123   8.624  10.817   4.539 -0.1904 -0.8159 -0.5456
  683MOL0     C92124   8.690  10.937   4.567  0.3078 -0.0924  0.2656
  683MOL0     C92125   8.677  11.419   4.641  0.6370  0.3775 -0.0499
  683MOL0     C92126   8.609  11.544   4.618  0.9918  0.2092 -0.0373
  683MOL0     C92127   8.673  11.659   4.667 -0.7089 -0.3694  0.7318
  683MOL0     C92128   8.791  11.656   4.747 -0.0770  0.3618  1.0044
  683MOL0     O92129   8.837  11.766   4.814  0.6922 -0.3987  0.4195
  683MOL0     C92130   8.822  11.894   4.746 -0.7483  0.2957 -0.2856
  683MOL0     C92131   8.797  12.005   4.852 -0.0635  0.4509 -0.4919
  683MOL0     C92132   8.656  11.980   4.917 -0.5010  0.3237  0.3020
  683MOL0     C92133   8.583  12.121   4.932  0.0139 -0.2051 -0.2685
  683MOL0     C92134   8.436  12.105   4.956  0.7368  1.4364 -0.0178
  683MOL0     C92135   8.323  12.072   4.988 -0.5874 -0.0004  0.9811
  683MOL0     C92136   8.840  11.532   4.776 -0.8115 -0.4907  0.6997
  683MOL0     C92137   8.787  11.411   4.721  0.3063 -1.0766  0.1122
  683MOL0     H92138   8.413  11.132   4.630  0.4408  1.1452 -2.4235
  683MOL0     H92139   8.300  10.933   4.576 -1.0483 -2.0646  2.8268
  683MOL0     H92140   8.409  10.511   4.399 -2.3030  2.0909 -0.0323
  683MOL0     H92141   8.550  10.616   4.374  0.1517  1.1684  1.8569
  683MOL0     H92142   8.567  10.556   4.647 -0.8110  0.5626  0.6973
  683MOL0     H92143   8.462  10.419   4.597  0.2310  0.3312 -0.1574
  683MOL0     H92144   8.737  10.463   4.486  0.4432  0.1399  1.8252
  683MOL0     H92145   8.694  10.355   4.616 -0.0578  1.7684  0.0655
  683MOL0     H92146   8.603  10.355   4.315 -3.3469  0.0847 -0.3567
  683MOL0     H92147   8.738  10.265   4.385 -0.0912 -1.0939  0.5357
  683MOL0     H92148   8.453  10.202   4.373  0.9041 -0.0794 -1.5869
  683MOL0     H92149   8.591  10.100   4.351 -2.9323 -1.7496 -1.7085
  683MOL0     H92150   8.629  10.149   4.616  0.2868  0.0393  0.5569
  683MOL0     H92151   8.458  10.199   4.618  2.5766  1.2247 -0.3986
  683MOL0     H92152   8.441   9.980   4.680  0.3296  0.4156  0.7114
  683MOL0     H92153   8.401  10.003   4.516 -2.0991 -2.2042  1.8623
  683MOL0     H92154   8.661   9.905   4.635  1.9111  4.3354 -3.1737
  683MOL0     H92155   8.646   9.903   4.460  1.0552 -1.1148  0.4763
  683MOL0     H92156   8.447   9.697   4.354  3.1434  0.8421 -2.1303
  683MOL0     H92157   8.480   9.382   4.424 -0.6733  0.9805 -2.5661
  683MOL0     H92158   8.365   9.377   4.562  1.6528  0.3643  1.2497
  683MOL0     H92159   8.260   9.337   4.332 -2.4430 -0.6207  1.3245
  683MOL0     H92160   8.292   9.513   4.311 -0.5199  0.1923  0.6905
  683MOL0     H92161   8.127   9.401   4.533  3.5199 -0.2855  0.3353
  683MOL0     H92162   8.062   9.436   4.372 -1.2285 -0.7950  0.5590
  683MOL0     H92163   8.171   9.627   4.563 -2.2528 -0.2972  1.5724
  683MOL0     H92164   8.013   9.622   4.481  0.2518  1.3286 -1.7892
  683MOL0     H92165   8.207   9.878   4.197  1.2339  1.0647 -0.2013
  683MOL0     H92166   8.283  10.136   4.145  0.5676  2.1192  3.7080
  683MOL0     H92167   8.114  10.087   4.092 -2.3899  0.9050  1.5194
  683MOL0     H92168   8.124  10.225   4.165  0.3582  0.5923 -1.3441
  683MOL0     H92169   7.898  10.371   4.746  0.2602 -0.6255  0.4521
  683MOL0     H92170   7.866  10.580   4.854  1.5329 -1.2227  0.4302
  683MOL0     H92171   8.183  10.810   4.794 -1.3122 -0.7188  5.1989
  683MOL0     H92172   8.101  10.950   4.719  2.1748  0.7509 -0.1457
  683MOL0     H92173   8.171  10.996   4.929  0.0303 -0.5476 -1.6110
  683MOL0     H92174   7.986  10.996   4.920 -0.3367 -0.2956  1.3795
  683MOL0     H92175   8.186  10.809   5.058 -1.1067  1.1854  2.0519
  683MOL0     H92176   8.032  10.746   5.015  2.8902 -1.1573 -0.4223
  683MOL0     H92177   8.073  10.832   5.249 -0.4661 -0.3884  0.0487
  683MOL0     H92178   8.098  10.984   5.175  0.1811  0.2324  0.6244
  683MOL0     H92179   7.871  11.010   5.097  1.6261 -0.0652 -0.0975
  683MOL0     H92180   7.868  10.968   5.268  1.1376  2.6554 -0.3950
  683MOL0     H92181   7.689  10.835   5.133 -0.7971 -1.0452 -6.4587
  683MOL0     H92182   7.804  10.778   5.023  1.3563 -0.5065  0.0853
  683MOL0     H92183   7.857  10.720   5.313  1.1361 -0.6339  0.2126
  683MOL0     H92184   7.901  10.623   5.165  2.1298  1.1542 -0.7312
  683MOL0     H92185   7.609  10.639   5.265 -0.7971 -2.9929 -0.8745
  683MOL0     H92186   7.729  10.511   5.300  2.2045  0.4476  0.3117
  683MOL0     H92187   8.099  10.761   4.538 -0.0933 -0.0874 -0.0251
  683MOL0     H92188   8.136  10.552   4.444  1.0344  1.1062  0.8582
  683MOL0     H92189   8.047  10.074   4.618  0.4895  0.1488  0.3163
  683MOL0     H92190   8.050   9.840   4.603 -0.9920  3.1406  1.1061
  683MOL0     H92191   8.688  10.732   4.517 -1.2265 -1.3865 -1.4695
  683MOL0     H92192   8.798  10.936   4.562  0.2636  0.0532 -1.9110
  683MOL0     H92193   8.510  11.540   4.574  1.0200 -1.7929 -0.0183
  683MOL0     H92194   8.615  11.750   4.653 -2.9194 -1.9072 -0.7021
  683MOL0     H92195   8.919  11.912   4.698  0.7238  0.1053  2.4026
  683MOL0     H92196   8.755  11.899   4.659 -2.5987 -1.3035  0.9632
  683MOL0     H92197   8.799  12.100   4.798  0.0200  0.6279 -0.1834
  683MOL0     H92198   8.879  12.011   4.925  1.0114 -2.5707 -1.3129
  683MOL0     H92199   8.670  11.927   5.012  2.1944 -1.1510 -0.7923
  683MOL0     H92200   8.597  11.916   4.851 -0.7584 -1.2454  1.9521
  683MOL0     H92201   8.592  12.182   4.842 -0.6372 -0.0270 -0.2182
  683MOL0     H92202   8.623  12.166   5.023  0.5277 -1.5495  0.2001
  683MOL0     H92203   8.222  12.048   5.012 -1.5010 -1.7471 -3.5536
  683MOL0     H92204   8.924  11.530   4.845  0.5359 -1.2890 -0.8869
  683MOL0     H92205   8.827  11.313   4.747  0.8937 -0.3877  1.8959
  684MOL0     O92206   5.626   4.304  11.310  0.2463  0.3238  0.1823
  684MOL0     C92207   5.701   4.314  11.217 -0.0041 -0.5263 -0.6950
  684MOL0     O92208   5.813   4.234  11.202 -0.4606 -0.4137 -0.3512
  684MOL0     C92209   5.841   4.127  11.285  0.0459 -1.6550  0.6769
  684MOL0     C92210   5.971   4.115  11.329 -0.1203 -0.3403  0.1496
  684MOL0     C92211   6.009   4.014  11.419  0.1136  0.1702  0.3903
  684MOL0     C92212   5.919   3.915  11.457 -0.5920  0.8843  0.7248
  684MOL0     O92213   5.944   3.812  11.541 -1.1118 -1.1715 -0.9606
  684MOL0     C92214   5.894   3.683  11.489 -0.7074 -1.0824  0.0373
  684MOL0     C92215   5.792   3.626  11.581  0.1562 -0.4918  0.0948
  684MOL0     C92216   5.760   3.479  11.540  1.0505 -0.3814  0.4799
  684MOL0     C92217   5.654   3.414  11.633 -0.4079 -0.4176  0.1243
  684MOL0     C92218   5.592   3.274  11.577  0.5488 -0.1446 -0.5250
  684MOL0     C92219   5.441   3.287  11.526 -0.3547  1.1581  0.7417
  684MOL0     C92220   5.395   3.146  11.478 -0.2943 -0.9145  0.0902
  684MOL0     C92221   5.242   3.136  11.454 -0.0147 -0.0835  0.0950
  684MOL0     N92222   5.206   3.186  11.322 -0.0160 -0.2649 -0.3805
  684MOL0     C92223   5.151   3.308  11.283  0.6193  0.0519  0.8744
  684MOL0     C92224   5.129   3.308  11.146  0.2586 -0.4240  0.0015
  684MOL0     C92225   5.083   3.423  11.074  0.3026 -0.7878  0.2309
  684MOL0     C92226   5.186   3.457  10.960  0.4889 -0.5847 -0.1649
  684MOL0     C92227   5.127   3.413  10.827  1.0776  1.1158 -0.9070
  684MOL0     C92228   5.218   3.418  10.707 -0.5580  0.8393  0.4105
  684MOL0     O92229   5.274   3.544  10.690  0.4885  0.0742  0.0180
  684MOL0     C92230   5.336   3.577  10.576 -0.4099  0.6182  0.0165
  684MOL0     C92231   5.390   3.707  10.576 -0.6896  0.3034  0.1670
  684MOL0     C92232   5.443   3.759  10.460 -0.3991 -0.5776  0.8301
  684MOL0     C92233   5.468   3.913  10.471 -0.0877  0.5388 -0.0939
  684MOL0     C92234   5.479   3.670  10.346 -0.3533  0.3913 -1.2588
  684MOL0     C92235   5.553   3.717  10.226  0.5630 -1.0158  0.5308
  684MOL0     O92236   5.562   3.624  10.122 -0.3487  0.0579 -0.8728
  684MOL0     C92237   5.593   3.673   9.994 -1.3729 -1.2923 -0.5503
  684MOL0     C92238   5.694   3.611   9.919 -1.0358  0.5960 -0.6358
  684MOL0     C92239   5.735   3.650   9.793 -0.8910  0.0193 -0.4703
  684MOL0     C92240   5.686   3.768   9.740 -0.4685 -0.3895 -0.5035
  684MOL0     O92241   5.713   3.819   9.619 -0.1521  0.9740  0.2638
  684MOL0     C92242   5.740   3.715   9.516 -0.5769 -0.3900 -0.6565
  684MOL0     C92243   5.687   3.777   9.385 -0.2231 -0.2058 -0.9612
  684MOL0     C92244   5.703   3.677   9.276  0.4245  0.5787  0.1498
  684MOL0     C92245   5.823   3.684   9.182 -0.1804  0.3222  0.6633
  684MOL0     C92246   5.813   3.578   9.068 -0.5126 -0.2595  0.4676
  684MOL0     C92247   5.907   3.613   8.945 -0.2010  0.2565  0.8736
  684MOL0     C92248   5.890   3.524   8.816 -0.2016  0.2132  0.2803
  684MOL0     C92249   6.001   3.564   8.718 -0.3983  0.2015  0.2846
  684MOL0    Cl92250   5.965   3.480   8.577  0.2706  0.4778  0.2374
  684MOL0     C92251   5.605   3.842   9.827  0.4519 -0.4108 -0.3288
  684MOL0     C92252   5.552   3.790   9.947  0.1655  0.1655  0.0444
  684MOL0     O92253   5.615   3.818  10.239  0.2629  0.3116 -1.1690
  684MOL0     C92254   5.443   3.535  10.359 -0.5542 -0.4688 -0.5885
  684MOL0     C92255   5.368   3.489  10.465 -0.0052  0.2735 -0.5924
  684MOL0     N92256   5.156   3.177  11.105  0.1899 -0.0685 -0.8848
  684MOL0     N92257   5.184   3.107  11.203 -0.2670  1.1403 -0.0683
  684MOL0     C92258   5.787   3.931  11.411 -0.4409  0.3813  0.5559
  684MOL0     C92259   5.745   4.038  11.328  0.5727  0.3030  0.5265
  684MOL0     C92260   5.671   4.427  11.119 -0.3963  0.8324  0.5104
  684MOL0     C92261   5.555   4.511  11.139 -0.7456 -0.0554 -0.2845
  684MOL0     C92262   5.536   4.627  11.057  0.7271  0.8220  0.8772
  684MOL0     C92263   5.621   4.654  10.948  0.1434  0.2220  0.0241
  684MOL0     O92264   5.615   4.771  10.856  0.0125 -0.2862  0.0044
  684MOL0     C92265   5.500   4.857  10.882  0.8122 -0.8161  0.1548
  684MOL0     C92266   5.489   4.979  10.785  0.3046 -0.2185 -0.2906
  684MOL0     C92267   5.516   4.939  10.644 -0.0053  0.9911  0.4307
  684MOL0     C92268   5.497   5.072  10.564  0.1473  0.9689 -0.2573
  684MOL0     C92269   5.519   5.058  10.419 -0.7022 -0.6501  0.3159
  684MOL0     C92270   5.529   5.050  10.297  0.5526 -0.6248  0.8218
  684MOL0     C92271   5.733   4.565  10.925 -0.0006  0.2832 -0.0563
  684MOL0     C92272   5.757   4.454  11.007  0.3510 -0.3854 -0.2674
  684MOL0     H92273   6.037   4.197  11.305  2.8732 -3.1362 -2.2076
  684MOL0     H92274   6.110   4.023  11.455  0.1597 -0.5516  0.4527
  684MOL0     H92275   5.852   3.691  11.388  1.9175  0.6600 -1.0370
  684MOL0     H92276   5.981   3.618  11.475 -0.0586  0.2354 -2.6873
  684MOL0     H92277   5.844   3.624  11.678  2.3917  0.0129 -1.0245
  684MOL0     H92278   5.709   3.696  11.570  0.2957 -0.3827 -0.2704
  684MOL0     H92279   5.730   3.479  11.435  1.6775  0.8217  0.2887
  684MOL0     H92280   5.848   3.418  11.562  2.3057  0.4918 -1.8473
  684MOL0     H92281   5.702   3.395  11.729  1.3176 -0.2035 -0.6631
  684MOL0     H92282   5.568   3.481  11.645 -2.1668 -2.9039  2.7084
  684MOL0     H92283   5.655   3.233  11.497  1.5703  0.4834 -0.0554
  684MOL0     H92284   5.602   3.191  11.649 -2.0389  1.1938  1.5808
  684MOL0     H92285   5.377   3.328  11.604  2.6649  2.3716  2.7795
  684MOL0     H92286   5.433   3.355  11.440  0.5843  0.9624  0.4848
  684MOL0     H92287   5.450   3.117  11.388 -2.7212  0.6395 -2.0349
  684MOL0     H92288   5.420   3.082  11.562 -0.6950  0.7290  1.5290
  684MOL0     H92289   5.188   3.197  11.528 -3.5382  0.6216 -2.7591
  684MOL0     H92290   5.204   3.034  11.453 -2.1685  0.6517 -0.0410
  684MOL0     H92291   5.142   3.392  11.350  0.2744  0.6366  0.1093
  684MOL0     H92292   4.985   3.411  11.027  0.0613  0.6864  0.2954
  684MOL0     H92293   5.066   3.508  11.141 -2.5072 -1.0005 -0.1303
  684MOL0     H92294   5.272   3.392  10.980  0.3507 -1.3558 -1.9107
  684MOL0     H92295   5.207   3.564  10.952  0.5428 -0.6837 -1.7650
  684MOL0     H92296   5.049   3.484  10.797  0.2751  0.2229 -0.9971
  684MOL0     H92297   5.094   3.309  10.825  0.7102  1.2363 -3.2140
  684MOL0     H92298   5.151   3.396  10.624 -2.9637 -0.8475  2.6433
  684MOL0     H92299   5.291   3.337  10.708  0.5078  1.7410  2.4109
  684MOL0     H92300   5.366   3.764  10.665  2.4665  0.5034  1.0091
  684MOL0     H92301   5.575   3.922  10.490  0.2250  0.6141 -1.7767
  684MOL0     H92302   5.451   3.960  10.374 -1.8628  1.2550  0.5199
  684MOL0     H92303   5.406   3.966  10.544 -4.6803 -4.5428  0.4128
  684MOL0     H92304   5.739   3.517   9.950  2.3525  0.9632 -3.7697
  684MOL0     H92305   5.802   3.594   9.730  1.6157  3.5894 -1.2535
  684MOL0     H92306   5.846   3.690   9.504 -0.4941 -0.5939  0.3817
  684MOL0     H92307   5.695   3.619   9.543  4.4223 -2.6900  0.8268
  684MOL0     H92308   5.581   3.795   9.401 -0.0301  2.0873 -1.8059
  684MOL0     H92309   5.735   3.873   9.365 -1.0479  0.7174  1.2618
  684MOL0     H92310   5.620   3.677   9.204  1.7156 -1.0148 -1.4290
  684MOL0     H92311   5.696   3.577   9.320 -1.2914  1.9029  3.2591
  684MOL0     H92312   5.822   3.787   9.145 -0.0404  0.5610  1.3096
  684MOL0     H92313   5.918   3.666   9.232 -0.8412  1.8929  2.6183
  684MOL0     H92314   5.711   3.581   9.028  0.0691  0.5169 -1.0017
  684MOL0     H92315   5.830   3.474   9.097  0.3230 -0.1640  0.3229
  684MOL0     H92316   5.907   3.718   8.912  0.0232 -0.7195 -2.5921
  684MOL0     H92317   6.011   3.591   8.972 -0.6573 -2.0239  0.9033
  684MOL0     H92318   5.794   3.539   8.764  0.2715 -2.4192 -1.5418
  684MOL0     H92319   5.894   3.418   8.840 -1.6299 -0.2150 -1.2090
  684MOL0     H92320   6.096   3.528   8.759  0.1376 -0.7300 -1.6484
  684MOL0     H92321   5.994   3.673   8.710  0.4707  0.1779 -1.1741
  684MOL0     H92322   5.577   3.939   9.786 -1.0608 -0.4479  0.5263
  684MOL0     H92323   5.480   3.843  10.009 -0.4426 -1.6631  0.9682
  684MOL0     H92324   5.466   3.468  10.277 -0.2653 -1.0410 -0.0444
  684MOL0     H92325   5.332   3.386  10.462  0.8005 -0.0305 -0.2604
  684MOL0     H92326   5.710   3.862  11.444  2.4220 -2.7447  1.1759
  684MOL0     H92327   5.645   4.060  11.292  0.1821 -1.0385  0.7570
  684MOL0     H92328   5.501   4.503  11.232 -1.1171  1.5579 -0.3239
  684MOL0     H92329   5.461   4.701  11.083 -1.5842 -0.7183 -0.9810
  684MOL0     H92330   5.414   4.789  10.870  1.7513 -2.0348  0.1093
  684MOL0     H92331   5.506   4.888  10.986 -1.3869  2.2744 -0.4954
  684MOL0     H92332   5.562   5.056  10.814 -0.5906  0.4822  0.1622
  684MOL0     H92333   5.391   5.027  10.793 -0.0983 -1.2073  1.2996
  684MOL0     H92334   5.458   4.854  10.605 -0.4883  0.1296  2.8533
  684MOL0     H92335   5.621   4.906  10.640 -0.4363 -0.3708 -0.7740
  684MOL0     H92336   5.573   5.140  10.603  3.8135 -3.0712  0.4671
  684MOL0     H92337   5.397   5.110  10.586  0.8289  1.1083  3.2371
  684MOL0     H92338   5.542   5.058  10.191  1.0248 -2.3302  0.7276
  684MOL0     H92339   5.807   4.590  10.850  0.9932  1.2506  1.2138
  684MOL0     H92340   5.847   4.393  11.006  0.4531 -0.6506  4.0036
  685MOL0     O92341   6.461  11.019   0.631  0.1783  0.0781 -0.1399
  685MOL0     C92342   6.443  10.952   0.526  0.2411  0.2187  0.0278
  685MOL0     O92343   6.353  10.973   0.427 -1.1475 -0.7761 -0.0769
  685MOL0     C92344   6.241  11.047   0.458 -0.1406 -1.0053  0.5989
  685MOL0     C92345   6.188  11.057   0.585 -0.4354  0.3132  0.3952
  685MOL0     C92346   6.094  11.160   0.607  0.1482  0.7101 -0.3440
  685MOL0     C92347   6.038  11.238   0.502 -0.4964 -0.8099 -1.1340
  685MOL0     O92348   5.957  11.342   0.523  0.4334  0.3242 -0.6545
  685MOL0     C92349   5.835  11.321   0.603 -1.0161  1.0446  0.0989
  685MOL0     C92350   5.734  11.427   0.584  0.5714 -0.8410  0.3875
  685MOL0     C92351   5.667  11.434   0.440 -0.6614 -0.2139 -0.3118
  685MOL0     C92352   5.530  11.494   0.429  0.0708  0.3344  0.4128
  685MOL0     C92353   5.494  11.535   0.285 -0.0352  0.4980  0.1104
  685MOL0     C92354   5.344  11.575   0.266 -0.1932  0.3524  0.4370
  685MOL0     C92355   5.301  11.714   0.328 -0.4168 -0.7119 -0.6940
  685MOL0     C92356   5.272  11.824   0.222  0.2724  0.6972 -0.5113
  685MOL0     N92357   5.136  11.828   0.175  0.8277  0.5763  0.5839
  685MOL0     C92358   5.020  11.888   0.229  0.1224  0.2528 -0.0612
  685MOL0     C92359   4.928  11.876   0.135  0.2626 -1.4385  0.2769
  685MOL0     C92360   4.785  11.930   0.147 -0.0716  0.2530 -0.4907
  685MOL0     C92361   4.749  11.995   0.289  0.2710  0.0755  0.8149
  685MOL0     C92362   4.808  12.139   0.279 -0.6398 -0.3740  0.6087
  685MOL0     C92363   4.774  12.203   0.417 -0.4103 -0.1231 -0.2884
  685MOL0     O92364   4.823  12.139   0.533  0.6759  0.5968 -1.1921
  685MOL0     C92365   4.961  12.117   0.554 -0.0058 -0.3581  1.0410
  685MOL0     C92366   5.062  12.191   0.494  0.7013 -0.5938  0.1673
  685MOL0     C92367   5.198  12.165   0.525  0.0312  0.2983 -0.2511
  685MOL0     C92368   5.297  12.251   0.466  0.1930 -0.5827  0.3375
  685MOL0     C92369   5.237  12.055   0.602 -0.5351  0.5195  0.0873
  685MOL0     C92370   5.377  11.995   0.617  0.1232  0.1881  0.6651
  685MOL0     O92371   5.486  12.055   0.567 -0.4257 -0.8302  0.0140
  685MOL0     C92372   5.598  11.990   0.541  0.8603  0.4800 -0.3386
  685MOL0     C92373   5.706  12.006   0.630 -0.1603  0.6030  0.1501
  685MOL0     C92374   5.830  11.952   0.584 -0.5484  0.4869 -0.9357
  685MOL0     C92375   5.848  11.890   0.458 -0.4840  0.1789 -0.7293
  685MOL0     O92376   5.966  11.839   0.412  0.0384  0.3483  0.8973
  685MOL0     C92377   6.008  11.710   0.465 -0.2580 -0.4418 -0.7018
  685MOL0     C92378   6.156  11.687   0.410 -0.7344  0.6933  0.2942
  685MOL0     C92379   6.197  11.544   0.434 -0.7559 -0.0177  0.4297
  685MOL0     C92380   6.343  11.519   0.389  1.1050 -0.2722  0.1910
  685MOL0     C92381   6.402  11.407   0.482  0.1430 -0.0489 -0.2782
  685MOL0     C92382   6.549  11.427   0.473 -1.5095  1.0697  0.3078
  685MOL0     C92383   6.633  11.318   0.543  0.3664  0.5591  0.2141
  685MOL0     C92384   6.780  11.323   0.505  0.6147 -0.4639  0.2673
  685MOL0    Cl92385   6.829  11.471   0.571  0.4202 -0.0346 -0.3528
  685MOL0     C92386   5.740  11.880   0.374  0.4624  0.4548  0.0852
  685MOL0     C92387   5.615  11.927   0.415  0.0206  0.2151 -0.6268
  685MOL0     O92388   5.369  11.881   0.665  0.1568  0.9113  0.8818
  685MOL0     C92389   5.133  11.986   0.671 -0.5994  0.0792  0.5706
  685MOL0     C92390   4.998  12.011   0.640  0.0938 -0.5039 -0.5038
  685MOL0     N92391   4.981  11.842   0.021 -1.1158 -0.0034 -0.1140
  685MOL0     N92392   5.101  11.810   0.038  0.6265  0.3309 -0.3839
  685MOL0     C92393   6.072  11.196   0.373  1.2702  0.1122  0.3446
  685MOL0     C92394   6.179  11.108   0.349 -0.2995 -0.4134  0.6613
  685MOL0     C92395   6.530  10.832   0.505  0.8000  0.7662 -0.5315
  685MOL0     C92396   6.593  10.776   0.618 -0.3322 -0.4138 -0.0665
  685MOL0     C92397   6.677  10.661   0.605 -0.5298  0.5533  0.1651
  685MOL0     C92398   6.695  10.590   0.479 -0.6868  0.7612  1.1058
  685MOL0     O92399   6.780  10.481   0.462 -0.0637 -0.5749 -0.4115
  685MOL0     C92400   6.869  10.499   0.359 -0.6590  0.0359 -0.1894
  685MOL0     C92401   6.985  10.409   0.380 -0.0430 -0.4765 -0.0081
  685MOL0     C92402   7.114  10.421   0.289  1.3980  0.3823 -0.7131
  685MOL0     C92403   7.209  10.531   0.328  0.6463 -0.7297  0.0362
  685MOL0     C92404   7.147  10.657   0.293 -0.3316 -0.7652 -0.1064
  685MOL0     C92405   7.097  10.763   0.265  0.3952  0.2106 -0.7512
  685MOL0     C92406   6.625  10.643   0.372  0.2183 -0.4418 -0.1232
  685MOL0     C92407   6.546  10.759   0.384  0.1227 -0.1368 -0.1184
  685MOL0     H92408   6.239  11.008   0.667  1.3728  1.7039  0.1603
  685MOL0     H92409   6.056  11.190   0.704  1.6480  1.6733 -0.0202
  685MOL0     H92410   5.796  11.230   0.557  0.9209  0.7916 -1.1900
  685MOL0     H92411   5.846  11.302   0.710 -1.8973  0.6664  0.1320
  685MOL0     H92412   5.649  11.419   0.652 -1.5535  0.7148 -1.8951
  685MOL0     H92413   5.771  11.527   0.605 -1.2909  0.7871 -3.1312
  685MOL0     H92414   5.738  11.494   0.384 -1.2887 -0.5705 -1.5375
  685MOL0     H92415   5.657  11.336   0.392  1.0162  0.1242 -1.4210
  685MOL0     H92416   5.460  11.415   0.457  1.6248 -1.7387 -1.1841
  685MOL0     H92417   5.527  11.573   0.504  0.3260 -0.6437  1.4750
  685MOL0     H92418   5.542  11.627   0.252 -1.0545  0.1059 -2.7425
  685MOL0     H92419   5.530  11.463   0.211 -1.1000  1.0304 -0.9656
  685MOL0     H92420   5.315  11.574   0.160 -2.6386 -0.0806  1.0470
  685MOL0     H92421   5.275  11.495   0.293  1.3805 -1.3982 -0.5051
  685MOL0     H92422   5.210  11.702   0.388  1.1173 -5.2147  1.2105
  685MOL0     H92423   5.383  11.733   0.397  0.3509 -3.4136 -0.7394
  685MOL0     H92424   5.323  11.803   0.127 -1.9926 -0.7069 -1.4952
  685MOL0     H92425   5.300  11.919   0.268 -2.0435  0.7542  0.9457
  685MOL0     H92426   5.012  11.919   0.332 -0.3739 -0.9477  0.2845
  685MOL0     H92427   4.767  12.009   0.074  2.0041  0.4356 -0.8593
  685MOL0     H92428   4.721  11.843   0.128  2.5801 -1.7407 -0.8253
  685MOL0     H92429   4.794  11.933   0.368  0.6666  1.1063  1.4326
  685MOL0     H92430   4.640  11.998   0.294 -0.0618  0.7524 -3.3031
  685MOL0     H92431   4.765  12.197   0.197 -1.0314  2.8749  2.8960
  685MOL0     H92432   4.912  12.150   0.249 -0.8801 -2.2721 -1.0838
  685MOL0     H92433   4.670  12.183   0.445 -1.1440  2.6362 -0.7062
  685MOL0     H92434   4.797  12.310   0.407 -0.4497  0.2303  2.5251
  685MOL0     H92435   5.034  12.271   0.426  2.4668  1.7414  2.0043
  685MOL0     H92436   5.251  12.337   0.415  1.1654 -1.2541 -1.7770
  685MOL0     H92437   5.364  12.292   0.542 -2.3493 -0.5203  2.6960
  685MOL0     H92438   5.353  12.197   0.390 -1.0318  0.1804 -1.1613
  685MOL0     H92439   5.690  12.060   0.723  0.9588 -0.0854  0.7639
  685MOL0     H92440   5.916  11.953   0.651 -0.1718 -1.4253 -1.3324
  685MOL0     H92441   6.006  11.713   0.574 -1.0066 -1.2832 -0.6790
  685MOL0     H92442   5.952  11.624   0.428  2.3266 -2.1609 -0.8766
  685MOL0     H92443   6.161  11.705   0.303  2.2694 -2.7925 -0.3709
  685MOL0     H92444   6.223  11.767   0.444  1.2522 -0.3115 -1.0062
  685MOL0     H92445   6.129  11.484   0.372 -0.6852  1.9805 -1.7139
  685MOL0     H92446   6.177  11.528   0.541 -2.7836  0.3339  0.1501
  685MOL0     H92447   6.336  11.487   0.284 -0.0891 -1.1015  0.5041
  685MOL0     H92448   6.408  11.607   0.395  0.9173  0.1430 -2.3792
  685MOL0     H92449   6.373  11.306   0.451 -2.6435  0.2248  1.1053
  685MOL0     H92450   6.371  11.418   0.586  2.7916 -1.3635  0.7259
  685MOL0     H92451   6.570  11.432   0.366 -2.0037 -1.5205  0.0267
  685MOL0     H92452   6.579  11.526   0.507  0.8622  0.8522 -0.9467
  685MOL0     H92453   6.592  11.220   0.514 -2.8483  1.2476  2.0218
  685MOL0     H92454   6.616  11.327   0.650 -1.4841 -0.1858  0.0233
  685MOL0     H92455   6.801  11.340   0.399  0.3927  2.4826  0.6077
  685MOL0     H92456   6.819  11.227   0.538 -0.0776 -0.3294  1.5484
  685MOL0     H92457   5.751  11.836   0.275  2.7308  0.7255  0.1810
  685MOL0     H92458   5.528  11.919   0.351  0.6309  2.8258 -1.9257
  685MOL0     H92459   5.155  11.908   0.742 -0.3967 -0.2835  0.1166
  685MOL0     H92460   4.920  11.949   0.685  2.5883 -1.2419  3.2786
  685MOL0     H92461   6.030  11.244   0.284  1.0964 -2.2108 -0.9027
  685MOL0     H92462   6.214  11.079   0.250 -0.9355  0.4451  0.1721
  685MOL0     H92463   6.608  10.828   0.712  0.5937 -0.1539 -0.3468
  685MOL0     H92464   6.715  10.615   0.696 -0.1015 -0.1501 -0.3592
  685MOL0     H92465   6.817  10.470   0.268 -0.1437  2.2188 -1.2439
  685MOL0     H92466   6.898  10.602   0.337  1.2273 -0.8218 -2.0722
  685MOL0     H92467   6.948  10.307   0.365 -1.9549  0.4511 -2.1528
  685MOL0     H92468   7.015  10.422   0.484 -2.7849  1.5891  0.6189
  685MOL0     H92469   7.081  10.420   0.185 -2.1777 -2.4155  0.2068
  685MOL0     H92470   7.177  10.332   0.298  1.1301  0.1964 -0.6384
  685MOL0     H92471   7.308  10.513   0.284  0.1060 -3.0552 -0.3387
  685MOL0     H92472   7.223  10.534   0.436  0.3496 -0.7191  0.0736
  685MOL0     H92473   7.058  10.858   0.235 -2.0681 -0.1807  0.9215
  685MOL0     H92474   6.622  10.600   0.272  1.3437 -2.2360  0.5608
  685MOL0     H92475   6.510  10.800   0.289  3.1920  1.3089 -0.8033
  686MOL0     O92476   2.600   3.446  10.782 -0.0485 -0.4397 -0.5543
  686MOL0     C92477   2.548   3.536  10.844  0.6399  0.6317  0.7735
  686MOL0     O92478   2.490   3.525  10.967  0.5449  1.3622  1.0143
  686MOL0     C92479   2.490   3.393  11.016 -0.0113  0.3695  0.3151
  686MOL0     C92480   2.431   3.282  10.956 -0.3946 -0.8539 -0.4346
  686MOL0     C92481   2.400   3.163  11.029 -0.6280 -1.4081  0.2204
  686MOL0     C92482   2.439   3.154  11.161 -0.3920 -1.1969  0.5796
  686MOL0     O92483   2.424   3.028  11.212  0.3520  0.2434  0.0891
  686MOL0     C92484   2.473   2.995  11.343 -0.8416  0.1194 -0.0893
  686MOL0     C92485   2.432   2.854  11.386  0.2351  0.2015 -0.1629
  686MOL0     C92486   2.445   2.839  11.538 -0.3340  1.3489 -0.4531
  686MOL0     C92487   2.597   2.780  11.559 -0.0347 -0.3313 -0.7444
  686MOL0     C92488   2.618   2.767  11.708  0.6009 -0.6232 -0.2292
  686MOL0     C92489   2.759   2.711  11.737  0.7358 -0.5297  0.3142
  686MOL0     C92490   2.763   2.660  11.882 -0.0869 -0.7165  0.1388
  686MOL0     C92491   2.896   2.599  11.923  0.7707  0.8136  1.1014
  686MOL0     N92492   2.893   2.545  12.064 -0.2766  0.0241  0.2229
  686MOL0     C92493   2.846   2.434  12.126 -0.0593  1.2874  0.0877
  686MOL0     C92494   2.898   2.437  12.250  0.6043  0.5951 -0.2607
  686MOL0     C92495   2.870   2.326  12.349 -0.8586  0.0759  0.3332
  686MOL0     C92496   2.896   2.371  12.502 -0.0117 -0.0697  0.4421
  686MOL0     C92497   3.044   2.368  12.542 -0.5821  0.4834  0.2004
  686MOL0     C92498   3.124   2.235  12.526  0.1279  0.8523 -0.3599
  686MOL0     O92499   3.257   2.245  12.590 -0.1158  0.9981 -0.1284
  686MOL0     C92500   3.254   2.247  12.726 -0.5383 -0.0093  0.4224
  686MOL0     C92501   3.355   2.319  12.782  1.2569 -0.3178  0.1400
  686MOL0     C92502   3.366   2.338  12.917 -0.1239 -0.2309 -0.6252
  686MOL0     C92503   3.489   2.417  12.963 -0.8654 -0.9581 -0.5571
  686MOL0     C92504   3.277   2.281  13.013 -0.5948 -0.5466  0.5117
  686MOL0     C92505   3.282   2.287  13.159  0.3333 -0.2876 -1.3265
  686MOL0     O92506   3.356   2.384  13.222  0.0833  0.0012  0.2167
  686MOL0     C92507   3.375   2.367  13.359  0.2512  0.7902  1.0457
  686MOL0     C92508   3.266   2.344  13.446  0.3633 -0.1960 -0.3408
  686MOL0     C92509   3.289   2.326  13.587 -0.0549 -0.3349  0.0827
  686MOL0     C92510   3.414   2.303  13.639  0.3492 -0.9140 -0.2604
  686MOL0     O92511   3.419   2.275  13.772 -0.9592 -0.1192  0.2012
  686MOL0     C92512   3.544   2.279  13.837  0.3483 -0.2356  0.3830
  686MOL0     C92513   3.610   2.139  13.844  0.1022 -1.1299 -0.1504
  686MOL0     C92514   3.548   2.051  13.951  0.2635 -0.3657  0.3156
  686MOL0     C92515   3.637   1.926  13.973  1.7402 -0.1966 -0.7517
  686MOL0     C92516   3.747   1.927  14.073 -0.0948 -0.2144 -0.5982
  686MOL0     C92517   3.826   1.795  14.077  0.2647 -0.4513 -0.2240
  686MOL0     C92518   3.941   1.804  14.177 -0.0053 -0.5657  1.0777
  686MOL0     C92519   4.008   1.670  14.211  0.7719  0.6397 -0.6494
  686MOL0    Cl92520   4.129   1.703  14.358 -0.1441  0.4818 -0.3453
  686MOL0     C92521   3.525   2.323  13.547 -0.1430 -0.5781  0.1273
  686MOL0     C92522   3.503   2.353  13.411  0.1465 -0.5768 -0.0026
  686MOL0     O92523   3.242   2.181  13.212 -0.6666  0.1709  0.4476
  686MOL0     C92524   3.172   2.213  12.950 -0.8529 -1.2373  0.1614
  686MOL0     C92525   3.165   2.195  12.811  0.6555 -0.5093  0.0586
  686MOL0     N92526   2.975   2.548  12.267 -0.1646 -0.0545  0.0521
  686MOL0     N92527   2.979   2.610  12.150  0.4889  0.3211  0.8776
  686MOL0     C92528   2.501   3.264  11.220  0.0151  0.1240  0.5122
  686MOL0     C92529   2.525   3.381  11.154 -1.7259  0.0820 -0.0942
  686MOL0     C92530   2.542   3.663  10.770  0.5924  0.8190 -0.2718
  686MOL0     C92531   2.586   3.692  10.643  0.6607 -0.5344  1.0818
  686MOL0     C92532   2.576   3.819  10.591  0.1868 -0.0573 -1.1737
  686MOL0     C92533   2.508   3.925  10.662 -0.3315  0.4794  0.2970
  686MOL0     O92534   2.501   4.049  10.605  0.1506  0.1556  0.3038
  686MOL0     C92535   2.432   4.151  10.669  0.2540 -0.5850 -0.3568
  686MOL0     C92536   2.441   4.278  10.578 -0.5279  0.2260 -1.0922
  686MOL0     C92537   2.357   4.273  10.452  0.0203  1.0265  0.2350
  686MOL0     C92538   2.363   4.400  10.377  0.0367 -0.6798 -0.1477
  686MOL0     C92539   2.486   4.404  10.286  0.0442  0.2866  0.0136
  686MOL0     C92540   2.591   4.402  10.233  0.1895 -0.8136 -1.0928
  686MOL0     C92541   2.446   3.884  10.780 -0.0071  0.6002 -0.0474
  686MOL0     C92542   2.467   3.762  10.835  0.9879  0.1117  0.0145
  686MOL0     H92543   2.415   3.284  10.848  1.2657  1.3662 -0.7390
  686MOL0     H92544   2.355   3.079  10.976 -1.7754 -0.1737 -0.8140
  686MOL0     H92545   2.583   3.003  11.343 -0.7616 -0.2700  2.5176
  686MOL0     H92546   2.440   3.077  11.407  1.4197  2.2754 -1.5091
  686MOL0     H92547   2.324   2.840  11.372  0.2036  0.9933 -0.7739
  686MOL0     H92548   2.486   2.778  11.329  1.9286 -0.2623  1.9141
  686MOL0     H92549   2.442   2.923  11.607  1.4833  1.6234 -0.6411
  686MOL0     H92550   2.380   2.758  11.570  2.1527  0.6740  3.5798
  686MOL0     H92551   2.621   2.680  11.522  1.6735 -1.2794  2.5360
  686MOL0     H92552   2.659   2.853  11.507 -0.4472  1.4443  1.1224
  686MOL0     H92553   2.607   2.863  11.758  2.2162  0.2026 -1.3921
  686MOL0     H92554   2.534   2.704  11.741 -3.0159  0.5102 -5.9331
  686MOL0     H92555   2.785   2.635  11.663 -1.6273 -1.2492  0.1404
  686MOL0     H92556   2.829   2.795  11.734  1.4856 -1.0520  1.8751
  686MOL0     H92557   2.743   2.748  11.944 -2.2881 -1.1237  0.1044
  686MOL0     H92558   2.683   2.585  11.886 -1.3029  0.4639 -1.0460
  686MOL0     H92559   2.973   2.676  11.918  2.3207 -0.7704 -0.3386
  686MOL0     H92560   2.917   2.516  11.856 -1.6771 -2.4509  3.9904
  686MOL0     H92561   2.802   2.348  12.075  0.4038  2.9366 -3.4283
  686MOL0     H92562   2.765   2.298  12.349 -0.2536 -2.8612  3.2060
  686MOL0     H92563   2.931   2.240  12.322 -2.0060 -1.8907  3.4514
  686MOL0     H92564   2.848   2.306  12.576 -0.1598 -0.7581 -0.2453
  686MOL0     H92565   2.862   2.472  12.528  0.5388  0.4975 -0.9514
  686MOL0     H92566   3.033   2.399  12.646  3.2799  2.7697  0.1377
  686MOL0     H92567   3.099   2.445  12.487 -0.6074  2.2835  2.5599
  686MOL0     H92568   3.140   2.207  12.421  0.9153  0.2802 -0.0969
  686MOL0     H92569   3.059   2.159  12.572 -2.4071  3.4268  0.6218
  686MOL0     H92570   3.432   2.374  12.729  2.7989 -2.3613  0.1422
  686MOL0     H92571   3.459   2.499  13.029  1.9325  0.7726 -1.2901
  686MOL0     H92572   3.566   2.352  13.008 -2.0020 -1.8519  0.1630
  686MOL0     H92573   3.533   2.462  12.874 -2.9317 -0.9386 -1.6199
  686MOL0     H92574   3.165   2.340  13.406 -0.4384  0.2305  1.5420
  686MOL0     H92575   3.206   2.317  13.657 -0.9833  0.1395 -0.9379
  686MOL0     H92576   3.608   2.357  13.794  1.1911 -0.5652  1.0278
  686MOL0     H92577   3.511   2.307  13.937 -0.8219 -1.0983  0.2629
  686MOL0     H92578   3.617   2.079  13.753 -0.6401 -1.5450  0.0550
  686MOL0     H92579   3.713   2.159  13.873  1.7942 -1.7617 -4.8644
  686MOL0     H92580   3.447   2.021  13.921  0.8998 -2.7095  0.2946
  686MOL0     H92581   3.546   2.103  14.048 -1.9269 -0.2030  0.2238
  686MOL0     H92582   3.567   1.847  14.004  1.2203  0.0355 -1.3127
  686MOL0     H92583   3.682   1.890  13.880  2.0040 -3.0617  0.3887
  686MOL0     H92584   3.714   1.956  14.174  3.5522 -2.5322  1.5024
  686MOL0     H92585   3.814   2.005  14.037  0.4407  0.0765  0.9396
  686MOL0     H92586   3.749   1.718  14.093  1.2047 -1.3601  0.0493
  686MOL0     H92587   3.881   1.770  13.986  1.3082  0.9214  0.0027
  686MOL0     H92588   3.912   1.852  14.271 -0.6652  0.5381  0.3338
  686MOL0     H92589   4.019   1.870  14.139 -0.4804 -1.1799 -1.1086
  686MOL0     H92590   4.066   1.628  14.129  0.8703  4.6687 -2.9049
  686MOL0     H92591   3.931   1.606  14.256  1.3115  0.4181 -0.0232
  686MOL0     H92592   3.629   2.317  13.577  0.0796 -0.8767 -0.6829
  686MOL0     H92593   3.582   2.364  13.337 -1.1075 -0.1745 -1.3423
  686MOL0     H92594   3.097   2.172  13.017 -1.8972  0.6648  0.2216
  686MOL0     H92595   3.073   2.148  12.778 -1.2201  1.9239  1.4964
  686MOL0     H92596   2.520   3.267  11.327  4.1307 -0.7614 -0.0439
  686MOL0     H92597   2.565   3.468  11.206  3.2125 -1.3759 -0.9166
  686MOL0     H92598   2.618   3.607  10.583  0.6866  0.4217 -0.3042
  686MOL0     H92599   2.608   3.843  10.491  0.3085 -0.0722 -1.1374
  686MOL0     H92600   2.327   4.120  10.672  0.1121 -0.2864 -1.4625
  686MOL0     H92601   2.480   4.177  10.763 -1.0388 -2.5676  0.9169
  686MOL0     H92602   2.546   4.279  10.547  0.6379  1.1112  2.4952
  686MOL0     H92603   2.418   4.363  10.641 -4.1796 -0.7452 -0.8620
  686MOL0     H92604   2.250   4.266  10.474  0.2267  0.9294  1.2913
  686MOL0     H92605   2.387   4.185  10.394 -0.3867 -0.1004  1.6637
  686MOL0     H92606   2.354   4.486  10.444 -3.1389 -0.6564 -0.4746
  686MOL0     H92607   2.277   4.387  10.311 -1.1437 -3.8661  1.7943
  686MOL0     H92608   2.686   4.402  10.184  0.5405  1.9678 -0.5869
  686MOL0     H92609   2.373   3.951  10.825 -0.4662 -0.9028  1.5512
  686MOL0     H92610   2.417   3.741  10.929  1.7452 -0.2648  0.3453
  687MOL0     O92611   2.376  11.078   8.711  0.5945 -0.3799 -0.3227
  687MOL0     C92612   2.315  11.039   8.611  0.6638 -0.1078 -0.2633
  687MOL0     O92613   2.242  10.917   8.602 -0.4754  0.0211  0.3115
  687MOL0     C92614   2.241  10.834   8.704  0.0525  1.0626  0.2723
  687MOL0     C92615   2.119  10.769   8.740 -0.1858 -0.3801  0.8605
  687MOL0     C92616   2.114  10.672   8.840 -0.0192 -0.3028 -0.5836
  687MOL0     C92617   2.229  10.645   8.915  0.1591  0.7416 -0.6504
  687MOL0     O92618   2.218  10.551   9.024 -0.5906 -0.0727 -0.0498
  687MOL0     C92619   2.326  10.498   9.086  0.2476 -0.1419 -0.2640
  687MOL0     C92620   2.262  10.387   9.180 -0.1674 -0.1012 -0.4508
  687MOL0     C92621   2.365  10.362   9.294  1.1053  0.7690 -0.3367
  687MOL0     C92622   2.331  10.229   9.358 -0.6390  0.5293 -0.1695
  687MOL0     C92623   2.452  10.148   9.400  0.0998 -0.3203 -0.4651
  687MOL0     C92624   2.529  10.068   9.301  0.5039  0.0738  0.9102
  687MOL0     C92625   2.643   9.991   9.353  0.2356  0.3307 -0.5078
  687MOL0     C92626   2.687   9.876   9.251 -0.8415 -0.9829 -0.0317
  687MOL0     N92627   2.604   9.757   9.252  0.7000  0.9561 -0.4331
  687MOL0     C92628   2.606   9.661   9.357 -0.7592 -0.7831  0.1796
  687MOL0     C92629   2.545   9.549   9.311 -0.1854 -0.6843  0.3859
  687MOL0     C92630   2.536   9.431   9.397  0.1544  0.3135  0.1778
  687MOL0     C92631   2.440   9.452   9.514  0.2964 -0.4230 -0.0103
  687MOL0     C92632   2.439   9.338   9.618  0.1321  1.1973 -0.4453
  687MOL0     C92633   2.371   9.216   9.568  0.7001 -0.5154  1.0513
  687MOL0     O92634   2.432   9.110   9.643 -0.4123 -0.8090  0.1262
  687MOL0     C92635   2.367   9.039   9.743  0.1976 -0.2994 -0.5179
  687MOL0     C92636   2.432   8.924   9.790  0.7678 -0.3731  0.8770
  687MOL0     C92637   2.382   8.843   9.896 -1.1748 -0.5647  0.1537
  687MOL0     C92638   2.453   8.715   9.931 -0.8810  0.2710  0.6330
  687MOL0     C92639   2.254   8.879   9.953 -0.0799 -0.3346 -0.0035
  687MOL0     C92640   2.179   8.794  10.057 -1.3695 -1.0240  0.2618
  687MOL0     O92641   2.256   8.741  10.154 -0.0131  0.3401  0.6941
  687MOL0     C92642   2.218   8.651  10.246 -0.4641  0.6270  0.4404
  687MOL0     C92643   2.102   8.568  10.224  0.7123 -0.5248  0.0350
  687MOL0     C92644   2.049   8.491  10.328  1.0134  1.3770  1.4200
  687MOL0     C92645   2.124   8.476  10.451  0.5013 -0.0649 -0.0330
  687MOL0     O92646   2.076   8.400  10.553 -0.1173  0.0213  0.1290
  687MOL0     C92647   2.090   8.471  10.679 -0.1707  0.4762  0.1152
  687MOL0     C92648   1.998   8.421  10.797  0.9186  0.0233 -0.3192
  687MOL0     C92649   2.023   8.266  10.807 -0.3740 -0.3352 -0.5745
  687MOL0     C92650   2.009   8.204  10.957 -0.1687  1.1497  0.3313
  687MOL0     C92651   2.063   8.273  11.079  0.7601  0.9404  0.0402
  687MOL0     C92652   2.214   8.245  11.094 -0.2145  0.3577  0.5264
  687MOL0     C92653   2.315   8.335  11.003  0.0390 -0.7613  0.5840
  687MOL0     C92654   2.451   8.349  11.084 -0.5056  0.2672  0.1106
  687MOL0    Cl92655   2.532   8.490  11.013  0.7015 -0.1089 -0.4167
  687MOL0     C92656   2.239   8.544  10.459 -0.5221  0.0145  0.0629
  687MOL0     C92657   2.294   8.630  10.361 -0.0195  0.3990  0.0646
  687MOL0     O92658   2.056   8.787  10.051  0.0478  0.0405 -0.0312
  687MOL0     C92659   2.179   8.979   9.890  0.3106  0.5513 -0.0615
  687MOL0     C92660   2.241   9.063   9.804 -0.5957 -0.1360 -0.0461
  687MOL0     N92661   2.495   9.582   9.185 -0.5263 -1.0596 -0.4866
  687MOL0     N92662   2.539   9.694   9.150 -0.3610 -0.7577  0.4610
  687MOL0     C92663   2.354  10.694   8.878 -0.2638 -0.0457  0.9880
  687MOL0     C92664   2.356  10.796   8.777 -0.0663  0.1673  0.0467
  687MOL0     C92665   2.305  11.143   8.500  0.3246  0.7379  0.2267
  687MOL0     C92666   2.387  11.255   8.503 -0.7717 -0.0807  0.3818
  687MOL0     C92667   2.393  11.342   8.395 -0.0257  0.3122 -0.2376
  687MOL0     C92668   2.318  11.309   8.273  0.0753 -0.1269 -0.3393
  687MOL0     O92669   2.337  11.400   8.178 -0.0549 -0.4310 -0.6068
  687MOL0     C92670   2.269  11.372   8.064 -0.3997  0.6232  0.1085
  687MOL0     C92671   2.332  11.459   7.953 -0.1269 -0.4016  0.0213
  687MOL0     C92672   2.301  11.609   7.966  0.0342  0.0038  0.9113
  687MOL0     C92673   2.333  11.689   7.836  0.6924  0.2452 -0.3363
  687MOL0     C92674   2.250  11.652   7.719  0.0722  0.2924  0.5295
  687MOL0     C92675   2.164  11.617   7.632 -0.1888 -1.0551  0.1922
  687MOL0     C92676   2.230  11.197   8.278 -0.3200 -0.1226 -0.5108
  687MOL0     C92677   2.233  11.109   8.386  1.1207  0.3352 -0.6280
  687MOL0     H92678   2.034  10.796   8.678 -0.9778  0.7028  2.3499
  687MOL0     H92679   2.026  10.614   8.865  0.0638 -1.7609 -3.2574
  687MOL0     H92680   2.404  10.455   9.023  0.7915  4.0347 -2.8124
  687MOL0     H92681   2.369  10.571   9.155 -0.3732 -0.8604  0.9292
  687MOL0     H92682   2.166  10.404   9.230  0.2084 -1.2661  0.7330
  687MOL0     H92683   2.248  10.300   9.116  1.0835 -1.4715  1.0469
  687MOL0     H92684   2.468  10.357   9.256  1.5933 -1.3576  1.0608
  687MOL0     H92685   2.355  10.444   9.366 -2.3842 -0.6594  1.0131
  687MOL0     H92686   2.281  10.250   9.453 -1.8608 -0.9574 -0.4370
  687MOL0     H92687   2.264  10.163   9.301 -0.3405  1.8023 -2.0706
  687MOL0     H92688   2.515  10.222   9.450 -4.5753  2.6070  1.7862
  687MOL0     H92689   2.415  10.067   9.463 -0.6421 -1.1486 -1.9150
  687MOL0     H92690   2.457  10.002   9.250 -1.9629  2.1860  1.4496
  687MOL0     H92691   2.579  10.139   9.235 -0.1498 -0.2198  0.0787
  687MOL0     H92692   2.727  10.061   9.363 -1.8380  2.8845 -0.0967
  687MOL0     H92693   2.613   9.949   9.450 -1.2566 -0.0510 -1.1203
  687MOL0     H92694   2.793   9.859   9.271  0.4916  4.4925 -0.8244
  687MOL0     H92695   2.675   9.914   9.149 -0.7453 -0.8908 -0.0090
  687MOL0     H92696   2.648   9.685   9.455 -2.4044  0.8259  0.5444
  687MOL0     H92697   2.485   9.352   9.342  0.3338 -0.3066  0.8932
  687MOL0     H92698   2.631   9.391   9.434 -0.3640 -1.6039 -0.4666
  687MOL0     H92699   2.343   9.480   9.473  0.7708  4.1118  1.3704
  687MOL0     H92700   2.465   9.546   9.565 -3.3037  1.0239 -0.5878
  687MOL0     H92701   2.394   9.356   9.716 -1.7989  0.9439 -1.2488
  687MOL0     H92702   2.539   9.300   9.642  0.1839  2.5166  1.6610
  687MOL0     H92703   2.398   9.189   9.465  1.1504  0.2210  0.9683
  687MOL0     H92704   2.262   9.228   9.566  0.7588  0.1383 -1.3159
  687MOL0     H92705   2.512   8.884   9.729  0.2229  0.0981 -0.1811
  687MOL0     H92706   2.385   8.631   9.914 -0.3164  0.2254 -1.7166
  687MOL0     H92707   2.528   8.699   9.853 -2.8297  2.1214 -1.8120
  687MOL0     H92708   2.504   8.722  10.027 -0.5794  1.2425  0.4123
  687MOL0     H92709   2.063   8.556  10.124 -2.6197 -1.8474  1.3233
  687MOL0     H92710   1.957   8.435  10.318  2.5882 -1.2579  0.7087
  687MOL0     H92711   2.190   8.448  10.718 -1.9141 -4.4232  2.5856
  687MOL0     H92712   2.066   8.577  10.665 -0.0967  0.7093  1.5648
  687MOL0     H92713   2.030   8.485  10.879  1.0361 -1.5502  0.9036
  687MOL0     H92714   1.892   8.434  10.774  0.5725  1.2800  1.7897
  687MOL0     H92715   2.124   8.251  10.768  0.2400 -1.1880  1.2357
  687MOL0     H92716   1.948   8.217  10.745 -0.4751 -1.6262  0.5395
  687MOL0     H92717   1.903   8.205  10.983  0.2591 -1.2387  2.5454
  687MOL0     H92718   2.044   8.101  10.945  2.1992  1.7954  1.1960
  687MOL0     H92719   2.014   8.228  11.166 -0.8037  0.4546 -1.0534
  687MOL0     H92720   2.035   8.378  11.089  0.0843  0.6697  1.1290
  687MOL0     H92721   2.227   8.267  11.201  0.4230  1.0411  0.3204
  687MOL0     H92722   2.245   8.140  11.099  2.3108  0.9651 -0.7275
  687MOL0     H92723   2.282   8.439  10.991  0.0360 -0.6880  1.1917
  687MOL0     H92724   2.323   8.286  10.906 -2.7578 -0.2873  0.0094
  687MOL0     H92725   2.504   8.254  11.075 -1.2436 -0.0594 -1.0658
  687MOL0     H92726   2.431   8.358  11.191 -1.7566  1.7176 -0.2076
  687MOL0     H92727   2.291   8.518  10.551 -0.7641  4.7903  1.8501
  687MOL0     H92728   2.393   8.674  10.366 -0.1581  0.6793  0.3093
  687MOL0     H92729   2.078   9.003   9.920  1.0504  1.9727  1.4923
  687MOL0     H92730   2.185   9.148   9.766  0.3782  1.1480  1.3146
  687MOL0     H92731   2.440  10.647   8.925 -1.0850 -1.8211  0.8070
  687MOL0     H92732   2.456  10.828   8.750 -0.0006 -1.1221 -1.3213
  687MOL0     H92733   2.435  11.280   8.598  1.4866 -0.9441 -0.4647
  687MOL0     H92734   2.455  11.431   8.398 -0.3396  0.5913 -1.5683
  687MOL0     H92735   2.297  11.270   8.036  2.2581  0.3606  3.1872
  687MOL0     H92736   2.160  11.373   8.071 -0.4741 -1.9382  0.3884
  687MOL0     H92737   2.300  11.408   7.862  0.1091  0.0991 -0.3530
  687MOL0     H92738   2.439  11.451   7.974 -0.6156 -0.3899  2.9915
  687MOL0     H92739   2.362  11.643   8.050 -0.1566 -1.9372  1.8763
  687MOL0     H92740   2.198  11.626   7.998 -0.5459 -0.7638 -0.4729
  687MOL0     H92741   2.434  11.663   7.803  0.2918 -1.0269 -0.6216
  687MOL0     H92742   2.326  11.798   7.844 -1.5916  0.1103  0.1726
  687MOL0     H92743   2.090  11.585   7.562 -2.5257 -0.8976  2.4290
  687MOL0     H92744   2.170  11.171   8.191 -0.6851 -0.5025 -0.1486
  687MOL0     H92745   2.171  11.020   8.379  0.0793  1.0089 -0.2626
  688MOL0     O92746   3.356  11.212  11.373 -0.0042  0.1632  0.4471
  688MOL0     C92747   3.346  11.329  11.407  0.8582 -0.4012 -0.5688
  688MOL0     O92748   3.424  11.432  11.373  0.2665 -0.5301 -0.2469
  688MOL0     C92749   3.531  11.409  11.297 -0.1057  0.4628  0.3368
  688MOL0     C92750   3.511  11.402  11.150  0.1403  0.5629  0.1522
  688MOL0     C92751   3.619  11.372  11.069 -1.2250 -0.5343 -0.8009
  688MOL0     C92752   3.752  11.373  11.110  0.4618  0.2489 -0.4231
  688MOL0     O92753   3.858  11.341  11.027  0.0555  0.9181 -0.0162
  688MOL0     C92754   3.834  11.307  10.891  0.2171  0.4390  0.3065
  688MOL0     C92755   3.822  11.443  10.814 -0.6823  1.1350  1.3132
  688MOL0     C92756   3.793  11.425  10.660 -0.8770  0.3015 -0.4546
  688MOL0     C92757   3.822  11.547  10.570 -0.3856 -0.1436 -0.3122
  688MOL0     C92758   3.811  11.517  10.414  0.6198  0.0484  0.1884
  688MOL0     C92759   3.864  11.634  10.326  0.1944 -0.5302  0.7204
  688MOL0     C92760   3.805  11.614  10.180  0.2753  0.3355  0.1815
  688MOL0     C92761   3.910  11.531  10.102 -0.0739 -0.0398  0.2994
  688MOL0     N92762   3.856  11.403  10.058  0.1904 -0.0154 -0.0056
  688MOL0     C92763   3.852  11.292  10.137  0.2416  0.2250  0.8347
  688MOL0     C92764   3.808  11.187  10.061  0.3712 -1.1104 -0.2047
  688MOL0     C92765   3.811  11.046  10.103 -0.1561 -1.6880  0.4445
  688MOL0     C92766   3.913  10.970  10.014  0.6085 -0.8365 -0.2946
  688MOL0     C92767   3.951  10.834  10.062  0.3099  0.2875  1.2645
  688MOL0     C92768   4.018  10.835  10.196  0.0484  0.6489 -0.5437
  688MOL0     O92769   4.111  10.720  10.207  0.5240  0.2076  0.2064
  688MOL0     C92770   4.143  10.677  10.340 -0.1217  0.3602  0.2215
  688MOL0     C92771   4.234  10.567  10.343  0.1479  0.5228 -0.1836
  688MOL0     C92772   4.296  10.529  10.460 -0.2391  0.1558 -0.3008
  688MOL0     C92773   4.365  10.396  10.460  0.2880 -0.0339 -0.1668
  688MOL0     C92774   4.274  10.598  10.583  0.0943 -0.6455  0.0544
  688MOL0     C92775   4.331  10.562  10.720 -0.4529  0.2991 -1.5608
  688MOL0     O92776   4.308  10.654  10.818  0.1741 -0.2626  0.5632
  688MOL0     C92777   4.316  10.612  10.946 -0.2838 -0.0041 -0.4389
  688MOL0     C92778   4.219  10.538  11.008 -0.1429  0.6005  0.7872
  688MOL0     C92779   4.217  10.495  11.140 -0.7555 -0.0478 -0.8416
  688MOL0     C92780   4.333  10.531  11.218  0.4767  1.0865 -0.5003
  688MOL0     O92781   4.327  10.472  11.341  1.0903  0.7098  0.4619
  688MOL0     C92782   4.446  10.388  11.378  0.1472 -0.2009  1.1177
  688MOL0     C92783   4.426  10.238  11.351  0.5929  0.2844 -0.4400
  688MOL0     C92784   4.359  10.162  11.471 -0.4744  0.5526  0.1888
  688MOL0     C92785   4.416  10.199  11.608 -0.4296  0.6724  0.0778
  688MOL0     C92786   4.408  10.093  11.718 -0.7888  0.0230 -0.4225
  688MOL0     C92787   4.269  10.046  11.746 -0.1145 -0.4465  0.2570
  688MOL0     C92788   4.180  10.156  11.822 -0.5384  0.2310  0.8817
  688MOL0     C92789   4.034  10.114  11.848 -0.0559 -0.4348 -0.3046
  688MOL0    Cl92790   3.937  10.063  11.707 -0.0558 -0.4288  0.3529
  688MOL0     C92791   4.436  10.600  11.165  0.1027 -1.0500  0.6426
  688MOL0     C92792   4.430  10.629  11.025  0.6992  0.8154 -0.5400
  688MOL0     O92793   4.379  10.449  10.740 -0.4036 -0.0499  0.6698
  688MOL0     C92794   4.194  10.723  10.574  1.1047  0.7150 -0.5808
  688MOL0     C92795   4.128  10.755  10.454 -0.0470 -0.2186 -0.4089
  688MOL0     N92796   3.776  11.244   9.938 -0.0315  0.5595  0.0696
  688MOL0     N92797   3.790  11.371   9.939  0.2415 -0.5238 -0.6656
  688MOL0     C92798   3.777  11.389  11.246  0.7515 -0.4355 -0.1027
  688MOL0     C92799   3.669  11.400  11.336 -0.6378  0.3388 -0.6185
  688MOL0     C92800   3.241  11.353  11.498  0.2416 -0.8666  0.5606
  688MOL0     C92801   3.163  11.467  11.484  0.2254 -0.4431  0.2648
  688MOL0     C92802   3.069  11.507  11.585  0.3999 -0.2183  0.3198
  688MOL0     C92803   3.042  11.427  11.699  0.9580 -0.5085  0.2071
  688MOL0     O92804   2.944  11.461  11.788  0.5195  0.0750 -0.1083
  688MOL0     C92805   2.959  11.426  11.931 -1.0053 -0.7339  0.1827
  688MOL0     C92806   2.857  11.333  11.994  0.7345 -0.4741 -0.5663
  688MOL0     C92807   2.893  11.312  12.138  0.3747 -0.2050 -0.5272
  688MOL0     C92808   2.768  11.314  12.223 -0.3644  0.0571  0.1769
  688MOL0     C92809   2.793  11.235  12.343 -0.6277 -0.1269 -0.0993
  688MOL0     C92810   2.830  11.175  12.440  0.9031  0.8455 -0.0853
  688MOL0     C92811   3.118  11.309  11.708  0.7831 -0.4333  0.4157
  688MOL0     C92812   3.205  11.267  11.607 -0.6683  0.4278 -0.0842
  688MOL0     H92813   3.414  11.403  11.100 -0.1319 -2.1912  0.4619
  688MOL0     H92814   3.587  11.355  10.967 -1.8983  0.3004 -0.7352
  688MOL0     H92815   3.923  11.261  10.848 -1.6505 -1.1750 -2.0599
  688MOL0     H92816   3.755  11.232  10.883  0.6168 -0.6598  4.4203
  688MOL0     H92817   3.742  11.507  10.853 -3.6019 -0.4718 -1.5068
  688MOL0     H92818   3.911  11.503  10.833 -0.0609  0.6902 -0.0850
  688MOL0     H92819   3.851  11.337  10.630 -0.4325 -0.0291  1.3075
  688MOL0     H92820   3.685  11.408  10.658 -1.0869  1.4594  0.1027
  688MOL0     H92821   3.775  11.640  10.604 -0.7359 -0.9619  1.5410
  688MOL0     H92822   3.930  11.559  10.584 -0.1258 -1.0958 -1.4212
  688MOL0     H92823   3.872  11.430  10.390 -1.7761 -1.6348 -0.1554
  688MOL0     H92824   3.705  11.509  10.390  0.4958  0.7927  0.4548
  688MOL0     H92825   3.832  11.730  10.366  1.2507 -0.0973  0.5422
  688MOL0     H92826   3.972  11.624  10.311 -0.2811 -1.1523 -3.9033
  688MOL0     H92827   3.712  11.556  10.186  1.5454 -1.6220  2.8254
  688MOL0     H92828   3.783  11.709  10.131  0.2632 -0.3319 -1.1362
  688MOL0     H92829   4.005  11.513  10.153  2.1311  0.3380 -3.3234
  688MOL0     H92830   3.941  11.599  10.021  2.2201 -0.0863  1.0497
  688MOL0     H92831   3.886  11.289  10.240  2.7093 -1.0350  0.0562
  688MOL0     H92832   3.824  11.026  10.210  4.0972 -2.5225 -0.0266
  688MOL0     H92833   3.714  10.995  10.094 -0.5752 -0.7439 -0.6463
  688MOL0     H92834   4.008  11.024  10.004 -0.3645  0.9304 -0.5220
  688MOL0     H92835   3.859  10.970   9.919  0.0369 -2.3140  0.0076
  688MOL0     H92836   4.030  10.802   9.993  1.4200  2.0459  1.6530
  688MOL0     H92837   3.868  10.763  10.052 -1.3284  2.4159 -1.7473
  688MOL0     H92838   3.938  10.834  10.270  1.8916 -1.3914  1.5757
  688MOL0     H92839   4.086  10.921  10.193 -0.2843  0.9319 -0.1078
  688MOL0     H92840   4.257  10.506  10.256  0.0853 -1.4596  1.1153
  688MOL0     H92841   4.395  10.362  10.360 -0.1824 -2.3155  0.4117
  688MOL0     H92842   4.461  10.393  10.512  0.2160  0.4825 -0.0026
  688MOL0     H92843   4.294  10.328  10.507  1.8162 -1.3146  0.4024
  688MOL0     H92844   4.128  10.511  10.956  0.1923  0.5188  0.2425
  688MOL0     H92845   4.131  10.452  11.189 -2.3735  2.3310 -1.4514
  688MOL0     H92846   4.539  10.417  11.328 -1.2837  0.6416 -1.2405
  688MOL0     H92847   4.458  10.408  11.485 -1.0710  0.9712  1.0680
  688MOL0     H92848   4.367  10.217  11.261 -1.6554  1.3999  0.7082
  688MOL0     H92849   4.528  10.201  11.338  0.6284 -0.2687  1.1961
  688MOL0     H92850   4.370  10.055  11.451  1.9014  0.8316 -0.3120
  688MOL0     H92851   4.251  10.178  11.479 -0.5936  0.1623 -0.5583
  688MOL0     H92852   4.522  10.228  11.603 -0.4648  0.6925 -0.6802
  688MOL0     H92853   4.377  10.295  11.644 -1.3755  1.2406 -2.3051
  688MOL0     H92854   4.459  10.135  11.805 -1.5727  0.4654 -0.1598
  688MOL0     H92855   4.469  10.006  11.691 -2.1980 -1.6063  1.2370
  688MOL0     H92856   4.214  10.015  11.656 -3.1736 -3.5476  2.9092
  688MOL0     H92857   4.276   9.963  11.816  0.5743 -0.6622 -0.0657
  688MOL0     H92858   4.182  10.243  11.756 -2.1849  2.4354  3.5287
  688MOL0     H92859   4.228  10.186  11.916  1.8253  0.7941 -0.4162
  688MOL0     H92860   3.989  10.199  11.900  0.3905  0.0185 -0.6505
  688MOL0     H92861   4.036  10.033  11.921 -1.8940 -1.2663 -1.1206
  688MOL0     H92862   4.523  10.625  11.226  0.3433  0.4505 -0.2710
  688MOL0     H92863   4.524  10.668  10.986  0.6780  1.8926  0.4162
  688MOL0     H92864   4.180  10.778  10.666 -0.3821  1.4476 -1.2246
  688MOL0     H92865   4.064  10.843  10.444  1.8738  1.5926  1.9281
  688MOL0     H92866   3.876  11.370  11.286 -0.2441 -2.1591  1.7370
  688MOL0     H92867   3.699  11.415  11.440 -2.5688 -1.2788  0.2529
  688MOL0     H92868   3.165  11.528  11.394  0.8828 -2.8245 -1.4143
  688MOL0     H92869   3.015  11.602  11.587 -0.7994 -0.8455 -0.8136
  688MOL0     H92870   3.057  11.380  11.946 -0.6083  0.8546  3.1752
  688MOL0     H92871   2.960  11.522  11.983  0.2354  0.2739 -1.5921
  688MOL0     H92872   2.853  11.235  11.946  2.0012 -0.4034 -0.8349
  688MOL0     H92873   2.757  11.373  11.972 -0.3942 -1.9899  1.4430
  688MOL0     H92874   2.972  11.377  12.178  0.9250 -2.5534  2.5711
  688MOL0     H92875   2.942  11.214  12.139 -1.1008 -0.9670  0.4371
  688MOL0     H92876   2.686  11.280  12.159 -1.2064  2.6628 -0.2357
  688MOL0     H92877   2.740  11.412  12.262 -2.7235  0.0001 -1.1363
  688MOL0     H92878   2.860  11.133  12.534  0.8924  1.4218  0.1812
  688MOL0     H92879   3.099  11.241  11.791 -6.2432  1.7238  1.2463
  688MOL0     H92880   3.261  11.174  11.620 -2.4565 -0.4022  2.2822
  689MOL0     O92881  11.172   9.639   3.840 -0.0755 -0.1264  0.0234
  689MOL0     C92882  11.167   9.752   3.871 -0.0825 -0.7371 -1.0416
  689MOL0     O92883  11.055   9.832   3.917 -0.1749 -0.1189  0.4410
  689MOL0     C92884  10.940   9.764   3.944  1.1731  0.6330  0.0999
  689MOL0     C92885  10.874   9.827   4.048  0.7723 -0.7457 -0.4785
  689MOL0     C92886  10.752   9.779   4.091  0.0607  0.3338  0.2643
  689MOL0     C92887  10.696   9.662   4.035  0.6188  0.6691  0.6514
  689MOL0     O92888  10.582   9.604   4.093  0.2789  0.1125  0.0260
  689MOL0     C92889  10.542   9.647   4.222  0.0996  0.0995 -0.6337
  689MOL0     C92890  10.440   9.545   4.286 -0.5058 -0.4051 -0.3302
  689MOL0     C92891  10.493   9.403   4.259  0.6452 -0.0083  0.3185
  689MOL0     C92892  10.421   9.301   4.339 -0.3872  0.4258 -0.0070
  689MOL0     C92893  10.272   9.299   4.306  1.0552  0.7561  0.0179
  689MOL0     C92894  10.205   9.194   4.396 -0.1347  0.4409 -0.6679
  689MOL0     C92895  10.054   9.191   4.374  1.0989 -0.9246 -0.5032
  689MOL0     C92896   9.984   9.075   4.444  0.2114 -0.1541 -0.1146
  689MOL0     N92897   9.983   9.085   4.597  0.6502 -0.4855  0.5405
  689MOL0     C92898   9.948   9.201   4.670 -0.3294  0.2845  1.3336
  689MOL0     C92899   9.986   9.161   4.791  0.0886 -1.0257  0.2781
  689MOL0     C92900   9.939   9.239   4.914  0.6380 -0.3113  0.4758
  689MOL0     C92901   9.840   9.170   5.001  0.5518 -0.1304 -0.3318
  689MOL0     C92902   9.768   9.281   5.076  0.5091  0.0441 -0.0273
  689MOL0     C92903   9.695   9.241   5.201 -0.3161 -0.3177  0.1692
  689MOL0     O92904   9.631   9.111   5.199 -0.3182 -0.4601 -0.5479
  689MOL0     C92905   9.525   9.084   5.288  0.4419  0.3924 -0.0277
  689MOL0     C92906   9.502   9.157   5.398  0.2832 -0.4952 -0.1695
  689MOL0     C92907   9.381   9.146   5.472 -0.1168 -1.4333  0.0687
  689MOL0     C92908   9.373   9.225   5.596 -0.3407 -0.2291 -0.7764
  689MOL0     C92909   9.278   9.054   5.435  0.0977 -0.1249  0.2020
  689MOL0     C92910   9.142   9.045   5.485 -0.0541 -0.2657 -0.3776
  689MOL0     O92911   9.069   8.937   5.441  0.3791  0.1278 -0.9573
  689MOL0     C92912   8.947   8.913   5.505 -0.0589 -0.2508  0.4356
  689MOL0     C92913   8.831   8.908   5.425  0.5271 -0.7737  0.5619
  689MOL0     C92914   8.701   8.883   5.469 -1.3577  0.1703 -0.1461
  689MOL0     C92915   8.686   8.844   5.598  0.5643 -0.4885 -0.1185
  689MOL0     O92916   8.567   8.795   5.648 -0.7045 -0.8796 -0.0108
  689MOL0     C92917   8.524   8.841   5.773  0.5356  0.6287 -0.4430
  689MOL0     C92918   8.404   8.759   5.834 -0.1635 -0.8090 -0.2521
  689MOL0     C92919   8.281   8.758   5.741  0.5004  1.0919 -0.1016
  689MOL0     C92920   8.149   8.722   5.805  0.4341 -0.3670  0.3140
  689MOL0     C92921   8.019   8.696   5.712 -1.0107 -0.1029 -0.5741
  689MOL0     C92922   7.891   8.663   5.794  0.1628 -0.0939 -0.5689
  689MOL0     C92923   7.887   8.554   5.899  0.8741 -0.0130 -0.0205
  689MOL0     C92924   7.754   8.562   5.981 -0.9775  0.0158  0.9027
  689MOL0    Cl92925   7.731   8.721   6.056 -0.4275 -0.5350 -0.1623
  689MOL0     C92926   8.806   8.839   5.677 -0.1191  0.6081 -0.6026
  689MOL0     C92927   8.934   8.884   5.639  0.4609  0.2952 -0.1361
  689MOL0     O92928   9.094   9.137   5.562 -1.2545 -0.2294 -0.5085
  689MOL0     C92929   9.313   8.972   5.322  0.3838 -0.1600 -0.3647
  689MOL0     C92930   9.428   8.995   5.249  0.3195  0.2522  0.0654
  689MOL0     N92931  10.051   9.041   4.784 -1.4172  0.1918 -0.6343
  689MOL0     N92932  10.047   8.986   4.669  0.2991  0.0343 -0.1912
  689MOL0     C92933  10.766   9.598   3.931  0.6479  0.3823  0.2235
  689MOL0     C92934  10.883   9.652   3.885 -0.6063 -0.4192 -0.2924
  689MOL0     C92935  11.300   9.821   3.854  0.6323  0.0307 -0.5388
  689MOL0     C92936  11.312   9.960   3.893 -0.6710 -0.2113  1.2836
  689MOL0     C92937  11.441  10.024   3.876 -0.3383 -0.5225 -1.4513
  689MOL0     C92938  11.543   9.953   3.814 -0.6392  0.4460  1.1117
  689MOL0     O92939  11.666  10.018   3.803  0.2140 -0.2330  0.7692
  689MOL0     C92940  11.669  10.089   3.677 -0.3711  0.2459  0.0597
  689MOL0     C92941  11.811  10.112   3.633  0.1766 -0.0666  0.5868
  689MOL0     C92942  11.866  10.224   3.716  0.8341 -0.2971  0.2515
  689MOL0     C92943  12.010  10.263   3.696  0.0031 -0.7290 -0.0521
  689MOL0     C92944  12.045  10.392   3.753 -0.3334 -0.1781 -0.1055
  689MOL0     C92945  12.099  10.501   3.774 -0.2245 -0.4682  0.1125
  689MOL0     C92946  11.533   9.821   3.779  0.3940  0.5931  0.0845
  689MOL0     C92947  11.412   9.761   3.800 -0.0241  0.3054  0.5545
  689MOL0     H92948  10.913   9.914   4.100 -1.2908  0.1878 -0.3821
  689MOL0     H92949  10.701   9.837   4.167 -2.9752  1.5245 -2.4382
  689MOL0     H92950  10.629   9.643   4.287 -0.9015 -0.2733  0.7386
  689MOL0     H92951  10.508   9.751   4.214  1.3809  0.4927 -1.2673
  689MOL0     H92952  10.429   9.568   4.392  1.4993  2.0899 -0.5654
  689MOL0     H92953  10.347   9.563   4.231 -0.4564 -1.4954 -0.7929
  689MOL0     H92954  10.480   9.372   4.155  0.3555 -0.8700  0.5992
  689MOL0     H92955  10.597   9.401   4.293  1.0735 -0.1671 -0.9633
  689MOL0     H92956  10.468   9.204   4.319 -1.6532  0.2117 -2.3084
  689MOL0     H92957  10.441   9.333   4.442  3.6007 -0.0101 -0.4878
  689MOL0     H92958  10.234   9.399   4.325  2.2716  1.4507 -1.0619
  689MOL0     H92959  10.255   9.280   4.199 -0.1534  3.7836 -0.4074
  689MOL0     H92960  10.250   9.096   4.378 -0.6969  0.1541 -0.5417
  689MOL0     H92961  10.228   9.222   4.499 -3.6980  2.9409 -0.3645
  689MOL0     H92962  10.032   9.288   4.420  3.1375 -0.7906  0.2884
  689MOL0     H92963  10.020   9.195   4.270 -2.4466 -0.7831  0.5323
  689MOL0     H92964  10.042   8.990   4.407 -0.2266 -1.3601  1.8447
  689MOL0     H92965   9.879   9.061   4.418  0.3394 -3.9514  0.8559
  689MOL0     H92966   9.889   9.285   4.636  1.1422  2.4006  3.6518
  689MOL0     H92967  10.021   9.267   4.980  2.2103 -0.8557 -1.1565
  689MOL0     H92968   9.884   9.321   4.865 -0.5552 -0.0768  2.1262
  689MOL0     H92969   9.891   9.099   5.067  2.1787 -2.0641 -3.4116
  689MOL0     H92970   9.767   9.128   4.932  1.1407  0.4699 -1.3418
  689MOL0     H92971   9.707   9.330   4.999 -0.6921  2.8481  2.4994
  689MOL0     H92972   9.844   9.351   5.113 -2.0230  2.0007  1.8799
  689MOL0     H92973   9.643   9.330   5.239  0.7218  0.2706  0.2381
  689MOL0     H92974   9.782   9.226   5.264  0.1456 -0.9845 -0.6101
  689MOL0     H92975   9.566   9.234   5.440 -3.0062 -0.1685  5.3845
  689MOL0     H92976   9.313   9.182   5.676  0.5844 -2.1400 -1.0701
  689MOL0     H92977   9.475   9.225   5.636 -1.0829 -1.1668  1.2236
  689MOL0     H92978   9.332   9.323   5.566 -0.8470  0.9133  3.1534
  689MOL0     H92979   8.836   8.938   5.321  2.2032  3.0470  1.5693
  689MOL0     H92980   8.619   8.875   5.399  1.1326  2.4379 -3.6398
  689MOL0     H92981   8.608   8.818   5.838  1.2649 -0.4665 -1.7046
  689MOL0     H92982   8.516   8.950   5.778 -0.9943  0.4705  1.9543
  689MOL0     H92983   8.427   8.652   5.847 -2.2147 -1.1552  0.9997
  689MOL0     H92984   8.380   8.804   5.931 -2.6060  0.2392 -1.2785
  689MOL0     H92985   8.310   8.691   5.660 -0.4438 -1.3800  1.5047
  689MOL0     H92986   8.272   8.854   5.688  0.3955  0.7197 -0.7751
  689MOL0     H92987   8.153   8.633   5.869 -0.9408 -0.3354  0.4749
  689MOL0     H92988   8.139   8.796   5.886  0.8548 -0.5277  0.5210
  689MOL0     H92989   8.046   8.613   5.645  2.7419 -1.1822  1.9624
  689MOL0     H92990   8.005   8.787   5.653  3.2472  1.6913  0.7913
  689MOL0     H92991   7.857   8.749   5.852 -2.3303 -2.6082  2.0341
  689MOL0     H92992   7.799   8.647   5.737 -1.3930 -0.5786  1.9355
  689MOL0     H92993   7.964   8.575   5.973 -1.0040  0.2905  1.9323
  689MOL0     H92994   7.901   8.453   5.859  1.5306  0.3928 -0.8542
  689MOL0     H92995   7.767   8.492   6.063 -0.8730 -0.1374  0.7545
  689MOL0     H92996   7.673   8.534   5.913  0.4234 -1.1631 -0.3491
  689MOL0     H92997   8.808   8.804   5.780  4.9461  0.9380 -0.3442
  689MOL0     H92998   9.006   8.883   5.720  0.3786  3.1485  0.0656
  689MOL0     H92999   9.254   8.895   5.274 -0.3757  0.2684 -0.1333
  689MOL0     H93000   9.444   8.928   5.164  0.3405 -0.7370  0.8307
  689MOL0     H93001  10.723   9.509   3.887 -2.0211  1.3326  0.7117
  689MOL0     H93002  10.943   9.598   3.812  0.2545  1.7319 -1.2529
  689MOL0     H93003  11.228  10.019   3.930 -1.9339 -1.3402  0.3127
  689MOL0     H93004  11.455  10.127   3.908 -2.9778 -0.1505 -1.2574
  689MOL0     H93005  11.623  10.038   3.592 -0.7178  0.8975 -0.1462
  689MOL0     H93006  11.610  10.180   3.691  1.6457  1.4193  1.4420
  689MOL0     H93007  11.807  10.149   3.530  0.2810  0.0002  0.6058
  689MOL0     H93008  11.871  10.021   3.624  1.0580  0.7047 -2.8710
  689MOL0     H93009  11.861  10.206   3.824 -1.2397  3.6243  0.9968
  689MOL0     H93010  11.801  10.310   3.693  1.9053  0.0343 -1.7302
  689MOL0     H93011  12.036  10.274   3.590 -1.5635 -1.2569 -0.5226
  689MOL0     H93012  12.062  10.183   3.750 -1.7317 -3.4059 -2.0735
  689MOL0     H93013  12.167  10.580   3.797  0.6551 -1.0780 -0.2977
  689MOL0     H93014  11.622   9.772   3.741 -0.1972 -1.7792  1.5752
  689MOL0     H93015  11.422   9.654   3.783  3.7932  0.8138 -1.5258
  690MOL0     O93016   6.285   4.284  10.384 -0.7837  0.5366 -0.4031
  690MOL0     C93017   6.187   4.224  10.343 -0.0029 -0.3988 -0.3535
  690MOL0     O93018   6.156   4.181  10.213  0.6689 -0.0944 -0.1182
  690MOL0     C93019   6.259   4.173  10.121  0.1034 -0.0366  0.9711
  690MOL0     C93020   6.353   4.075  10.133  0.4072 -0.3861 -0.6490
  690MOL0     C93021   6.454   4.070  10.045  1.2630  0.1636 -1.3214
  690MOL0     C93022   6.460   4.157   9.936  0.2773  0.0715  0.9178
  690MOL0     O93023   6.558   4.134   9.840  0.3960 -0.7880 -0.5389
  690MOL0     C93024   6.504   4.145   9.700  0.2986  0.5868 -0.2879
  690MOL0     C93025   6.596   4.053   9.617 -0.9844 -0.2478  0.0469
  690MOL0     C93026   6.603   3.909   9.678 -0.3147 -0.0841  0.6936
  690MOL0     C93027   6.671   3.807   9.592 -0.4215 -0.5126  0.4068
  690MOL0     C93028   6.817   3.838   9.556  1.2322  0.2661  0.4179
  690MOL0     C93029   6.874   3.728   9.463 -0.8633 -0.7159  0.5422
  690MOL0     C93030   7.024   3.729   9.487  0.4395 -0.5949 -0.5788
  690MOL0     C93031   7.085   3.863   9.471  0.8042  0.4844  0.0866
  690MOL0     N93032   7.237   3.853   9.460  0.6552 -0.1008 -0.2308
  690MOL0     C93033   7.314   3.910   9.364 -0.4843  0.4875 -0.1732
  690MOL0     C93034   7.436   3.857   9.382  0.2542  0.5637  0.0519
  690MOL0     C93035   7.560   3.872   9.293 -0.3107 -0.0557 -0.2012
  690MOL0     C93036   7.543   3.998   9.213 -0.1985 -0.8700 -0.6274
  690MOL0     C93037   7.541   4.117   9.301  0.8704  0.7947  0.0946
  690MOL0     C93038   7.505   4.243   9.229  0.5265 -0.6225 -0.2901
  690MOL0     O93039   7.378   4.243   9.157 -0.3082  0.0781 -0.6332
  690MOL0     C93040   7.267   4.253   9.236 -0.4745  0.0516 -0.6128
  690MOL0     C93041   7.153   4.188   9.202 -0.4583 -0.2994  0.0182
  690MOL0     C93042   7.038   4.209   9.271  0.5174 -0.7719 -0.7579
  690MOL0     C93043   6.918   4.132   9.215 -0.5772  0.3647 -0.1212
  690MOL0     C93044   7.032   4.296   9.393 -0.8927  0.8081  0.4338
  690MOL0     C93045   6.916   4.326   9.466  0.6882  0.6676 -0.3573
  690MOL0     O93046   6.900   4.451   9.516 -0.3778 -0.2788 -0.1800
  690MOL0     C93047   6.776   4.482   9.576  0.2531 -0.5848  0.1351
  690MOL0     C93048   6.665   4.512   9.493  0.0915  0.5122 -0.2509
  690MOL0     C93049   6.551   4.559   9.551  0.2548 -0.1770 -0.3011
  690MOL0     C93050   6.536   4.581   9.693 -0.5468 -0.2432  0.7002
  690MOL0     O93051   6.434   4.648   9.747 -0.1674 -0.7225 -0.5710
  690MOL0     C93052   6.309   4.660   9.667 -1.0340 -0.2098 -0.4849
  690MOL0     C93053   6.225   4.772   9.731  0.1234  0.1464  0.0752
  690MOL0     C93054   6.121   4.829   9.628 -0.8079 -0.2323  0.0236
  690MOL0     C93055   5.990   4.743   9.621 -0.2903  1.0240  1.0457
  690MOL0     C93056   5.910   4.781   9.498  0.2087  1.3066 -0.2812
  690MOL0     C93057   5.777   4.722   9.499 -0.1399 -0.2092 -0.0035
  690MOL0     C93058   5.680   4.796   9.406  0.2231  0.4872 -0.1656
  690MOL0     C93059   5.548   4.716   9.397 -0.0138  0.0158 -0.1854
  690MOL0    Cl93060   5.562   4.608   9.260  0.0138 -0.1024  0.2119
  690MOL0     C93061   6.640   4.525   9.772 -0.3569  0.0131  0.9488
  690MOL0     C93062   6.767   4.491   9.717  0.7409 -0.4589 -0.3070
  690MOL0     O93063   6.839   4.229   9.486  0.7430  0.1248  0.2625
  690MOL0     C93064   7.148   4.352   9.436  0.3054  0.6796  0.8912
  690MOL0     C93065   7.260   4.336   9.353  0.1461  0.0759  0.2555
  690MOL0     N93066   7.438   3.767   9.488 -0.7284 -0.1401  0.1825
  690MOL0     N93067   7.319   3.768   9.533  0.6196  0.4569 -0.3269
  690MOL0     C93068   6.362   4.260   9.917  0.6006 -0.5342  0.6598
  690MOL0     C93069   6.263   4.263  10.012  0.2117  0.5975 -0.6056
  690MOL0     C93070   6.087   4.196  10.446 -0.3736  0.0638  0.1291
  690MOL0     C93071   6.111   4.230  10.582  0.6688 -0.2770 -0.0053
  690MOL0     C93072   6.015   4.206  10.686  0.6906 -0.0339 -0.4300
  690MOL0     C93073   5.901   4.137  10.643 -0.7227  0.4839  0.2766
  690MOL0     O93074   5.817   4.102  10.743 -0.0419 -0.3139 -0.1865
  690MOL0     C93075   5.824   3.970  10.798  0.6035 -0.3074  0.7462
  690MOL0     C93076   5.704   3.936  10.889  0.4176  0.2941  0.1756
  690MOL0     C93077   5.627   4.053  10.938  0.5125  0.2473 -0.6788
  690MOL0     C93078   5.497   4.009  11.023  0.0960  1.3214  0.8213
  690MOL0     C93079   5.433   4.122  11.092 -0.3770  0.1831 -0.2263
  690MOL0     C93080   5.376   4.216  11.145  0.0712  0.8648  0.2278
  690MOL0     C93081   5.877   4.100  10.510  0.6440 -0.0202  0.2823
  690MOL0     C93082   5.974   4.134  10.414  0.0212  0.1466  0.3340
  690MOL0     H93083   6.343   4.020  10.227  1.0511 -0.4150 -0.5984
  690MOL0     H93084   6.526   3.990  10.056  1.2834  0.1796 -1.3338
  690MOL0     H93085   6.408   4.093   9.704  0.0454  1.1065  0.6087
  690MOL0     H93086   6.483   4.243   9.657 -0.6492 -0.8850 -3.5474
  690MOL0     H93087   6.569   4.053   9.511 -1.5336 -1.3760  0.1645
  690MOL0     H93088   6.689   4.107   9.634 -1.1067 -1.0121  4.3643
  690MOL0     H93089   6.666   3.911   9.767  2.9031 -0.2567 -1.4004
  690MOL0     H93090   6.500   3.877   9.700 -0.5955 -0.4406 -0.9822
  690MOL0     H93091   6.662   3.725   9.663 -0.3106 -0.7166  0.1872
  690MOL0     H93092   6.625   3.782   9.496  2.5783 -3.0973 -0.5365
  690MOL0     H93093   6.820   3.931   9.499  2.4288  0.4663  0.7671
  690MOL0     H93094   6.879   3.849   9.646 -0.2752 -1.3885  1.7166
  690MOL0     H93095   6.834   3.628   9.483 -0.6051 -0.9055  0.1302
  690MOL0     H93096   6.856   3.763   9.361  2.2393  2.6667  0.9627
  690MOL0     H93097   7.039   3.707   9.593  0.8112  1.4691 -0.1586
  690MOL0     H93098   7.069   3.651   9.425 -0.3335 -1.8000  0.3464
  690MOL0     H93099   7.054   3.935   9.546  0.2299  0.3407 -0.0067
  690MOL0     H93100   7.049   3.901   9.374  1.1824 -2.5071 -1.3429
  690MOL0     H93101   7.290   3.989   9.294  0.5757  1.0987  0.1271
  690MOL0     H93102   7.649   3.884   9.355 -2.6713  0.5039  3.3862
  690MOL0     H93103   7.579   3.776   9.245  2.1360  0.4863 -0.4215
  690MOL0     H93104   7.452   4.002   9.151 -0.5284 -2.3221 -0.2528
  690MOL0     H93105   7.632   4.006   9.150  1.9188 -2.8475  1.9047
  690MOL0     H93106   7.641   4.131   9.344  1.7046  2.5894 -2.2465
  690MOL0     H93107   7.472   4.106   9.385 -1.4093  3.4400 -1.2835
  690MOL0     H93108   7.579   4.258   9.150  0.6654 -2.9862 -0.6867
  690MOL0     H93109   7.511   4.326   9.300 -2.9429  0.2185 -0.7578
  690MOL0     H93110   7.151   4.124   9.115 -0.4732  2.1777 -1.8853
  690MOL0     H93111   6.946   4.101   9.114  0.8489 -0.4908  0.5004
  690MOL0     H93112   6.899   4.044   9.277 -1.5190 -1.2995 -2.6404
  690MOL0     H93113   6.827   4.192   9.211  1.0726  2.9729 -1.3395
  690MOL0     H93114   6.676   4.523   9.385  0.8574  0.2165 -0.2084
  690MOL0     H93115   6.472   4.598   9.488 -0.0162 -0.5464 -0.1918
  690MOL0     H93116   6.323   4.697   9.566 -0.3573  0.3629 -0.1904
  690MOL0     H93117   6.257   4.564   9.661  0.6328 -1.4127  2.3213
  690MOL0     H93118   6.176   4.729   9.819  2.1862 -3.1108 -0.2080
  690MOL0     H93119   6.285   4.858   9.761 -3.2456  2.6917  0.1698
  690MOL0     H93120   6.171   4.849   9.533  1.2384  0.6226  1.2315
  690MOL0     H93121   6.098   4.931   9.658 -1.9806 -0.1275 -1.1520
  690MOL0     H93122   6.025   4.645   9.585 -0.1960  1.6843 -0.7552
  690MOL0     H93123   5.932   4.724   9.712 -1.8009  0.9149  0.0853
  690MOL0     H93124   5.955   4.759   9.401  1.2401 -2.1950  0.8704
  690MOL0     H93125   5.892   4.889   9.498  1.2665  1.4973 -0.2673
  690MOL0     H93126   5.790   4.614   9.486 -0.7249 -0.1916 -0.7865
  690MOL0     H93127   5.729   4.735   9.597 -3.7418 -2.6445 -1.2541
  690MOL0     H93128   5.722   4.808   9.306 -1.0317  0.5297 -0.7116
  690MOL0     H93129   5.659   4.893   9.451 -2.9663 -0.8990  1.6771
  690MOL0     H93130   5.462   4.783   9.386 -1.4647 -1.5599  0.9697
  690MOL0     H93131   5.532   4.650   9.483  2.4730 -2.3406 -1.3790
  690MOL0     H93132   6.629   4.535   9.880 -0.7613  0.1575  0.8981
  690MOL0     H93133   6.858   4.485   9.776 -1.0083  0.4875  2.6492
  690MOL0     H93134   7.147   4.401   9.532 -0.6938  0.7795  0.8487
  690MOL0     H93135   7.348   4.389   9.387  1.8926 -1.8175 -1.0719
  690MOL0     H93136   6.355   4.323   9.829  0.1481 -3.5773 -1.6257
  690MOL0     H93137   6.179   4.328   9.988  0.2569  1.3141  1.0432
  690MOL0     H93138   6.197   4.292  10.605  1.3283 -1.0743 -0.2427
  690MOL0     H93139   6.036   4.242  10.786  0.2351  2.3844 -1.1335
  690MOL0     H93140   5.808   3.900  10.715  0.4721  0.1578  0.3796
  690MOL0     H93141   5.920   3.948  10.846  0.8933  2.5330  1.6359
  690MOL0     H93142   5.743   3.875  10.971 -1.3529 -2.1605 -0.7236
  690MOL0     H93143   5.635   3.869  10.839  0.5207 -1.7652  2.5979
  690MOL0     H93144   5.594   4.121  10.859  0.5590  1.7874  0.5743
  690MOL0     H93145   5.686   4.112  11.009  0.7603 -1.9520  1.0322
  690MOL0     H93146   5.535   3.934  11.094 -1.9673  0.6305  1.2560
  690MOL0     H93147   5.430   3.956  10.955 -0.1309 -0.5315  2.3884
  690MOL0     H93148   5.313   4.290  11.190 -2.6508 -2.1908  1.8608
  690MOL0     H93149   5.795   4.032  10.493  0.2804 -0.5544  3.5071
  690MOL0     H93150   5.943   4.122  10.310 -0.7548 -1.0408  0.6828
  691MOL0     O93151   6.756  10.804   3.724  0.0833 -0.0171  0.2238
  691MOL0     C93152   6.745  10.778   3.610  0.0470 -0.7375 -1.3198
  691MOL0     O93153   6.642  10.822   3.529  0.4217  0.5236  0.5352
  691MOL0     C93154   6.568  10.918   3.579 -0.1029 -1.0750  0.4897
  691MOL0     C93155   6.568  11.042   3.519 -0.1651  0.4951  0.5820
  691MOL0     C93156   6.490  11.144   3.565 -0.6431  0.4625 -0.0622
  691MOL0     C93157   6.412  11.133   3.683 -1.1287 -0.0853 -0.0240
  691MOL0     O93158   6.325  11.226   3.731 -0.6702 -0.6570  0.4926
  691MOL0     C93159   6.236  11.284   3.646 -1.0740 -0.2436 -0.2954
  691MOL0     C93160   6.101  11.206   3.643 -0.6401  0.6003  0.0270
  691MOL0     C93161   6.008  11.251   3.528 -0.5374 -0.6227  0.1258
  691MOL0     C93162   5.962  11.120   3.464  1.0570  0.0496 -0.2487
  691MOL0     C93163   5.910  11.148   3.317 -0.0091 -0.0304 -0.2434
  691MOL0     C93164   5.788  11.239   3.320  0.8924 -0.5908  0.6056
  691MOL0     C93165   5.672  11.206   3.220  0.5838 -0.0816  0.3511
  691MOL0     C93166   5.575  11.103   3.263  0.2067  0.2308 -0.2511
  691MOL0     N93167   5.484  11.136   3.372  0.2102 -0.0118 -0.5349
  691MOL0     C93168   5.364  11.197   3.367  0.1965  1.3273  0.4802
  691MOL0     C93169   5.305  11.183   3.484 -0.4972 -0.0054  0.8574
  691MOL0     C93170   5.167  11.219   3.528 -0.0254 -0.7967 -0.9046
  691MOL0     C93171   5.138  11.365   3.511 -0.6357  0.2047 -0.0827
  691MOL0     C93172   5.178  11.451   3.628  0.4580 -1.0009  0.5700
  691MOL0     C93173   5.176  11.604   3.613 -0.2638  0.0426 -1.0447
  691MOL0     O93174   5.164  11.672   3.746 -0.0248  0.0317  1.1978
  691MOL0     C93175   5.036  11.689   3.787 -0.0909 -0.5497  0.4589
  691MOL0     C93176   4.995  11.607   3.889  0.0501  0.0856  0.2950
  691MOL0     C93177   4.871  11.621   3.956  0.3522 -0.2315 -0.2448
  691MOL0     C93178   4.845  11.515   4.055  0.9934 -0.0554 -1.3523
  691MOL0     C93179   4.782  11.729   3.914  0.8900  1.2565  0.7846
  691MOL0     C93180   4.654  11.756   3.983  0.0481  0.7052 -0.2643
  691MOL0     O93181   4.600  11.879   3.949 -0.4827  0.7313  0.4865
  691MOL0     C93182   4.502  11.925   4.029 -0.3696 -1.0244  0.1844
  691MOL0     C93183   4.388  11.887   4.118 -1.2709  0.6447  0.9257
  691MOL0     C93184   4.314  11.980   4.185  1.1134  0.6816 -0.0889
  691MOL0     C93185   4.333  12.113   4.162  1.7074  0.0986 -0.5489
  691MOL0     O93186   4.247  12.197   4.221 -0.2413 -0.4389 -0.7467
  691MOL0     C93187   4.139  12.173   4.315  0.7329 -0.2250 -0.4864
  691MOL0     C93188   4.076  12.300   4.364 -0.6365 -0.8403 -0.0921
  691MOL0     C93189   4.171  12.401   4.424 -0.4716  0.4477 -0.3662
  691MOL0     C93190   4.110  12.532   4.470  0.5196 -0.5780  0.3254
  691MOL0     C93191   4.213  12.646   4.507  0.3729  0.2129  0.3211
  691MOL0     C93192   4.345  12.654   4.424 -0.0398  0.4686 -1.2197
  691MOL0     C93193   4.317  12.699   4.276  0.1785 -0.1425 -0.1570
  691MOL0     C93194   4.455  12.711   4.202  0.3451 -0.5918 -0.0950
  691MOL0    Cl93195   4.517  12.548   4.202  0.2228  0.1827 -0.2001
  691MOL0     C93196   4.421  12.162   4.067  0.4747 -0.1060 -0.2111
  691MOL0     C93197   4.510  12.069   4.012 -0.4938 -0.0324 -0.1750
  691MOL0     O93198   4.611  11.681   4.074 -0.0319 -0.3697  0.3945
  691MOL0     C93199   4.832  11.806   3.815  0.8029 -0.4020  0.4372
  691MOL0     C93200   4.958  11.799   3.759 -0.7508  0.0456 -0.0383
  691MOL0     N93201   5.402  11.113   3.563  0.2800  1.3195 -0.1143
  691MOL0     N93202   5.508  11.089   3.499  0.1698  0.6981  0.0166
  691MOL0     C93203   6.424  11.014   3.751  1.1202 -0.0431 -0.4357
  691MOL0     C93204   6.496  10.906   3.701 -0.3751  1.1104 -0.3514
  691MOL0     C93205   6.843  10.685   3.545  1.6348  0.2594  0.8970
  691MOL0     C93206   6.814  10.631   3.419 -0.3611 -0.3465  0.1127
  691MOL0     C93207   6.896  10.526   3.367 -0.6150  0.2916 -0.4084
  691MOL0     C93208   7.020  10.492   3.432 -0.1726 -0.2469 -0.2135
  691MOL0     O93209   7.110  10.405   3.384 -0.3538  0.1471 -0.1942
  691MOL0     C93210   7.134  10.406   3.240 -0.2851  0.2485 -0.6365
  691MOL0     C93211   7.287  10.366   3.235 -0.3030 -0.2752 -0.6510
  691MOL0     C93212   7.399  10.467   3.268 -0.2679 -0.9770 -0.5559
  691MOL0     C93213   7.527  10.386   3.268 -0.0323  0.4695  0.2056
  691MOL0     C93214   7.649  10.470   3.260 -0.4792 -0.4888  0.2340
  691MOL0     C93215   7.750  10.540   3.268  0.4579 -0.4647  0.9974
  691MOL0     C93216   7.041  10.550   3.555 -0.1087 -0.3825 -0.5013
  691MOL0     C93217   6.959  10.644   3.606 -0.1247  0.0811 -1.2192
  691MOL0     H93218   6.620  11.058   3.425 -0.7459  0.3083  0.2243
  691MOL0     H93219   6.481  11.235   3.506  0.6041 -0.1851 -1.3002
  691MOL0     H93220   6.222  11.383   3.691  2.0297  0.7316 -1.2447
  691MOL0     H93221   6.278  11.305   3.547 -0.3653 -1.1176 -0.1848
  691MOL0     H93222   6.112  11.097   3.640 -2.6267  0.3976 -1.1774
  691MOL0     H93223   6.056  11.221   3.742  1.3100  0.3912  0.9855
  691MOL0     H93224   5.928  11.305   3.579 -0.4397  0.9914 -1.3292
  691MOL0     H93225   6.050  11.334   3.470 -0.5449 -0.9868 -0.4093
  691MOL0     H93226   6.041  11.049   3.442 -2.1147 -3.3220 -1.8750
  691MOL0     H93227   5.887  11.066   3.523 -2.1241 -0.1683 -4.0401
  691MOL0     H93228   5.992  11.183   3.254 -0.9675  0.2702 -1.3441
  691MOL0     H93229   5.888  11.051   3.273 -1.9668  1.0361 -1.7650
  691MOL0     H93230   5.749  11.237   3.422  0.4765 -0.1814  0.4570
  691MOL0     H93231   5.813  11.344   3.306 -0.9391 -0.0925  0.8550
  691MOL0     H93232   5.613  11.297   3.208 -0.2075 -0.7070 -0.6307
  691MOL0     H93233   5.726  11.172   3.131 -0.0031  1.0436 -0.4541
  691MOL0     H93234   5.636  11.019   3.298  0.5843  1.1251  1.3367
  691MOL0     H93235   5.510  11.070   3.181  0.1791 -0.6051  0.0898
  691MOL0     H93236   5.330  11.218   3.267 -0.4800 -2.1605 -0.1552
  691MOL0     H93237   5.093  11.166   3.467 -2.1425  0.1233  0.7392
  691MOL0     H93238   5.154  11.183   3.630 -0.6789 -1.8783 -1.3570
  691MOL0     H93239   5.031  11.384   3.496 -0.4851  1.4657  0.3316
  691MOL0     H93240   5.187  11.403   3.421  0.6813  0.2063  0.6035
  691MOL0     H93241   5.278  11.423   3.662  0.6975 -1.1904 -0.2659
  691MOL0     H93242   5.104  11.426   3.705 -3.6521 -2.9630 -3.5069
  691MOL0     H93243   5.094  11.644   3.553 -0.2534 -4.1734 -4.3365
  691MOL0     H93244   5.262  11.633   3.554  1.1084 -0.3763  0.6612
  691MOL0     H93245   5.065  11.527   3.910  2.3958  1.8312 -0.4376
  691MOL0     H93246   4.748  11.474   4.027 -0.2652  0.1862  2.1541
  691MOL0     H93247   4.916  11.431   4.057  1.3164  0.2291  0.3539
  691MOL0     H93248   4.831  11.551   4.157  3.0892 -0.0138 -1.0214
  691MOL0     H93249   4.363  11.784   4.141 -3.0524  0.7625 -0.2985
  691MOL0     H93250   4.241  11.946   4.258 -1.4569  1.1722 -2.2681
  691MOL0     H93251   4.059  12.119   4.264 -1.6829 -0.7600  3.4671
  691MOL0     H93252   4.175  12.111   4.397 -0.3040 -1.6535 -1.0866
  691MOL0     H93253   4.052  12.340   4.265 -1.8413 -0.6389  0.2636
  691MOL0     H93254   3.987  12.286   4.427 -1.3395 -3.6171 -1.5426
  691MOL0     H93255   4.251  12.417   4.352 -0.1241 -1.1696 -0.3932
  691MOL0     H93256   4.221  12.357   4.512  0.6164  0.0203 -1.1769
  691MOL0     H93257   4.066  12.570   4.378  0.4378  0.2533  0.6990
  691MOL0     H93258   4.037  12.497   4.544  2.0410 -1.1132  1.6570
  691MOL0     H93259   4.253  12.617   4.605  1.0021  1.1466  0.3556
  691MOL0     H93260   4.173  12.747   4.510  3.3175  1.5014 -0.3792
  691MOL0     H93261   4.406  12.732   4.471  0.7174 -1.2149  0.7568
  691MOL0     H93262   4.404  12.565   4.449  2.1722  1.9579 -0.8199
  691MOL0     H93263   4.272  12.799   4.285 -2.8046 -1.4049  0.1258
  691MOL0     H93264   4.254  12.626   4.225 -4.6279  1.0739  3.3390
  691MOL0     H93265   4.521  12.789   4.241 -1.9489  1.6967 -0.4839
  691MOL0     H93266   4.429  12.753   4.104 -1.0637  1.5696  1.1207
  691MOL0     H93267   4.434  12.268   4.048  1.2461 -0.2681 -0.6563
  691MOL0     H93268   4.584  12.107   3.942  0.0367 -0.3101  0.2240
  691MOL0     H93269   4.784  11.896   3.776 -1.2634 -1.5487  0.2095
  691MOL0     H93270   4.999  11.877   3.696 -1.1161 -0.7457 -1.3085
  691MOL0     H93271   6.374  11.012   3.847  3.3904  4.7754  1.1645
  691MOL0     H93272   6.509  10.813   3.756 -0.6452  0.9024 -0.6367
  691MOL0     H93273   6.728  10.666   3.363 -0.5042 -0.3510  0.3302
  691MOL0     H93274   6.869  10.466   3.281 -0.6571 -3.8094  2.1674
  691MOL0     H93275   7.074  10.323   3.202 -2.2658  1.4862 -0.3354
  691MOL0     H93276   7.116  10.499   3.184  1.2470 -1.3520 -4.1035
  691MOL0     H93277   7.308  10.320   3.138 -0.7184 -2.1041  0.0729
  691MOL0     H93278   7.290  10.280   3.303  0.0158 -0.3680 -0.7819
  691MOL0     H93279   7.394  10.516   3.366 -2.4385 -0.1472 -1.0226
  691MOL0     H93280   7.392  10.548   3.195 -0.1880  1.2307  1.7170
  691MOL0     H93281   7.524  10.322   3.180 -2.6758  1.4615 -0.5497
  691MOL0     H93282   7.534  10.326   3.358 -0.6787  0.4396  0.2456
  691MOL0     H93283   7.825  10.616   3.279 -0.1245  0.3770 -0.5591
  691MOL0     H93284   7.126  10.511   3.611 -1.0676 -2.6135 -0.4858
  691MOL0     H93285   6.977  10.665   3.711  2.9638 -1.7773 -1.2455
  692MOL0     O93286   7.210   0.808   6.521  0.4077 -0.3778 -0.4249
  692MOL0     C93287   7.241   0.929   6.519 -0.4402  0.1199  0.0473
  692MOL0     O93288   7.174   1.026   6.599 -0.9164 -0.5717 -0.0083
  692MOL0     C93289   7.082   0.984   6.690  0.7996 -1.1021 -0.1974
  692MOL0     C93290   6.949   0.972   6.660  0.4427  0.3952  0.0645
  692MOL0     C93291   6.858   0.899   6.753 -0.8329  0.3830 -0.7282
  692MOL0     C93292   6.901   0.860   6.886  0.0908 -0.4278  0.1258
  692MOL0     O93293   6.823   0.803   6.984  0.3519  0.3309 -0.2816
  692MOL0     C93294   6.692   0.752   6.945  0.2902 -0.1026 -0.4693
  692MOL0     C93295   6.573   0.849   6.928 -0.4149 -0.8864 -0.7614
  692MOL0     C93296   6.445   0.777   6.876  1.3983 -0.7674 -0.1838
  692MOL0     C93297   6.447   0.762   6.727 -0.0284 -0.6914  0.2156
  692MOL0     C93298   6.390   0.638   6.673 -0.3947  0.2828 -0.1927
  692MOL0     C93299   6.239   0.628   6.696  0.2213 -0.0054  0.5082
  692MOL0     C93300   6.182   0.506   6.621  0.3023 -0.7977 -0.0063
  692MOL0     C93301   6.224   0.365   6.651 -0.7672  0.0535 -0.3150
  692MOL0     N93302   6.221   0.330   6.794  0.2033  0.9266  0.3310
  692MOL0     C93303   6.332   0.314   6.875 -0.1695 -0.2178 -0.2999
  692MOL0     C93304   6.293   0.282   7.000 -0.6659  0.7188 -0.1022
  692MOL0     C93305   6.385   0.262   7.122  0.3189  0.1449 -0.4480
  692MOL0     C93306   6.415   0.395   7.200 -0.0853 -0.2491  0.5246
  692MOL0     C93307   6.299   0.466   7.258 -0.1707  0.0951 -0.5200
  692MOL0     C93308   6.339   0.590   7.338 -0.5822 -0.1212  0.1102
  692MOL0     O93309   6.211   0.652   7.357 -0.0902  0.4485 -0.1348
  692MOL0     C93310   6.201   0.769   7.420  1.0466  0.7536  0.3342
  692MOL0     C93311   6.070   0.812   7.449  0.3438  0.9955  0.2807
  692MOL0     C93312   6.048   0.940   7.503  0.3199  0.1732  0.4712
  692MOL0     C93313   5.912   0.968   7.556 -0.3894 -0.2552  1.0337
  692MOL0     C93314   6.162   1.033   7.525 -0.4918  0.2627 -0.1032
  692MOL0     C93315   6.145   1.172   7.563 -0.1639 -0.6920  0.5332
  692MOL0     O93316   6.050   1.181   7.655 -0.2968 -1.1700 -0.1639
  692MOL0     C93317   6.058   1.292   7.731 -0.3066 -0.1438 -0.5452
  692MOL0     C93318   6.063   1.270   7.866  0.5437 -0.2702 -0.2977
  692MOL0     C93319   6.041   1.378   7.951  0.4571 -0.4674 -0.1301
  692MOL0     C93320   6.010   1.505   7.903 -0.9700 -0.9384  0.3107
  692MOL0     O93321   5.980   1.618   7.986 -1.0004  0.5528 -0.1189
  692MOL0     C93322   5.972   1.602   8.123 -0.0771  0.9717 -0.3349
  692MOL0     C93323   5.918   1.730   8.192 -0.0345  1.1395  0.1828
  692MOL0     C93324   5.780   1.761   8.141  0.7897  0.3668 -0.4778
  692MOL0     C93325   5.722   1.897   8.190 -0.0714 -0.4264 -0.2973
  692MOL0     C93326   5.620   1.881   8.302 -0.4180 -1.1516  0.3953
  692MOL0     C93327   5.594   2.016   8.367 -0.1383 -0.3872  0.5640
  692MOL0     C93328   5.475   2.015   8.458 -0.4381 -0.2235 -0.4943
  692MOL0     C93329   5.451   2.148   8.516  0.1405 -0.3774  0.3113
  692MOL0    Cl93330   5.283   2.144   8.563 -0.0521 -0.3011  0.4106
  692MOL0     C93331   5.997   1.525   7.766 -0.2401  0.7675  0.6000
  692MOL0     C93332   6.026   1.421   7.676 -1.6051 -0.9454  0.0894
  692MOL0     O93333   6.234   1.248   7.541 -0.7229 -0.3624 -0.1491
  692MOL0     C93334   6.290   0.985   7.498 -1.3022  0.4340  0.0517
  692MOL0     C93335   6.310   0.856   7.452  0.3797  0.4096 -1.2020
  692MOL0     N93336   6.155   0.262   6.987  0.5727 -0.2066  0.3323
  692MOL0     N93337   6.115   0.280   6.870 -0.1683 -0.1535  0.5487
  692MOL0     C93338   7.043   0.869   6.912  0.0673 -0.5125  0.0096
  692MOL0     C93339   7.128   0.922   6.808 -1.0277  0.2060 -0.7554
  692MOL0     C93340   7.357   0.966   6.439  0.4174 -0.1564 -0.0394
  692MOL0     C93341   7.390   1.105   6.428 -0.3739  0.1462 -0.1030
  692MOL0     C93342   7.493   1.141   6.350 -0.1813 -0.1657 -0.2907
  692MOL0     C93343   7.589   1.056   6.285  0.1981 -0.8420 -0.1184
  692MOL0     O93344   7.698   1.111   6.224  0.0359 -0.3345  0.6527
  692MOL0     C93345   7.791   1.017   6.158  0.5171  0.0863  0.1380
  692MOL0     C93346   7.918   1.109   6.125  0.3701  0.1290  0.0092
  692MOL0     C93347   8.006   1.044   6.020 -0.2171  1.0252  0.2883
  692MOL0     C93348   8.060   1.158   5.937 -0.3328  0.4429  0.9811
  692MOL0     C93349   8.151   1.242   6.013 -0.6314 -0.3200 -0.2740
  692MOL0     C93350   8.244   1.313   6.058  0.7709 -0.4788  0.0008
  692MOL0     C93351   7.554   0.926   6.298  0.7642  0.6627  0.6952
  692MOL0     C93352   7.443   0.879   6.372  0.6664  0.2445  0.6489
  692MOL0     H93353   6.912   1.025   6.572 -0.7244 -1.1064 -0.3977
  692MOL0     H93354   6.753   0.891   6.729 -1.7652 -0.7910  3.0400
  692MOL0     H93355   6.712   0.695   6.854 -2.5051  0.9040 -1.8449
  692MOL0     H93356   6.662   0.681   7.023  0.2362  2.0530  1.5757
  692MOL0     H93357   6.570   0.902   7.024  0.4295  0.2264 -1.3270
  692MOL0     H93358   6.596   0.929   6.857 -1.1060  0.0084 -0.0187
  692MOL0     H93359   6.439   0.682   6.929  0.1367  1.1831  3.5594
  692MOL0     H93360   6.356   0.832   6.906  0.9482 -1.1722 -0.7584
  692MOL0     H93361   6.402   0.853   6.687  2.3585 -0.6741 -2.8180
  692MOL0     H93362   6.550   0.749   6.692  0.5425  0.1205  1.5393
  692MOL0     H93363   6.424   0.621   6.570 -0.3461 -0.6981 -0.0189
  692MOL0     H93364   6.437   0.552   6.720  0.2211  0.3391 -0.6844
  692MOL0     H93365   6.207   0.626   6.800 -0.7703 -0.9745  0.2034
  692MOL0     H93366   6.181   0.714   6.659  1.9959  0.8192 -0.4986
  692MOL0     H93367   6.075   0.502   6.643  0.1506  0.4104 -0.4734
  692MOL0     H93368   6.195   0.523   6.514 -1.5805 -3.0260 -0.6740
  692MOL0     H93369   6.319   0.338   6.605 -1.0407 -1.5681  0.0098
  692MOL0     H93370   6.148   0.295   6.614 -1.4478  0.3244  0.5537
  692MOL0     H93371   6.440   0.327   6.875 -0.3293  3.3901  3.1067
  692MOL0     H93372   6.334   0.188   7.184  0.9129 -1.3871 -1.7433
  692MOL0     H93373   6.482   0.220   7.094  0.8550 -0.0083  1.5065
  692MOL0     H93374   6.455   0.460   7.122 -0.1643 -2.9252 -1.8944
  692MOL0     H93375   6.488   0.371   7.278  0.6589 -2.5933 -0.7834
  692MOL0     H93376   6.237   0.399   7.319  0.4335 -0.5737 -0.6272
  692MOL0     H93377   6.247   0.497   7.167 -0.5158  1.2221  0.0497
  692MOL0     H93378   6.401   0.654   7.275 -1.6501  0.1503 -0.6761
  692MOL0     H93379   6.386   0.551   7.429 -0.4788  0.2196  0.2038
  692MOL0     H93380   5.996   0.735   7.429  0.5459  1.3666 -2.1728
  692MOL0     H93381   5.863   1.052   7.505 -0.4921 -1.4781 -1.0119
  692MOL0     H93382   5.846   0.882   7.544  0.7258 -0.7954 -2.1607
  692MOL0     H93383   5.913   0.985   7.664  0.5369 -2.1834  1.3579
  692MOL0     H93384   6.092   1.173   7.906  2.3981 -1.0940 -3.2971
  692MOL0     H93385   6.052   1.362   8.058  0.7961  0.6404  0.0081
  692MOL0     H93386   5.898   1.529   8.156 -0.0689  2.0505  2.4115
  692MOL0     H93387   6.062   1.569   8.176 -0.1429  0.4626 -0.5361
  692MOL0     H93388   5.922   1.708   8.299 -0.3988 -2.2149 -0.4025
  692MOL0     H93389   5.981   1.815   8.161 -2.6910  2.6037 -1.5880
  692MOL0     H93390   5.716   1.674   8.153 -0.2429  1.4285  2.6910
  692MOL0     H93391   5.790   1.765   8.032  1.9271 -3.4496 -0.6527
  692MOL0     H93392   5.803   1.963   8.223 -0.8291  0.6808 -0.5807
  692MOL0     H93393   5.671   1.954   8.112  0.0735 -0.9263 -0.7668
  692MOL0     H93394   5.659   1.807   8.373 -0.5618 -0.5408  1.1211
  692MOL0     H93395   5.527   1.849   8.254  0.1403 -1.1592 -0.6993
  692MOL0     H93396   5.685   2.045   8.421 -0.1809 -2.3397  1.7749
  692MOL0     H93397   5.565   2.080   8.282 -0.7170 -3.4033 -1.6631
  692MOL0     H93398   5.486   1.945   8.542  0.1270  3.0418  2.3710
  692MOL0     H93399   5.382   1.987   8.407 -1.0290 -1.1718  1.0106
  692MOL0     H93400   5.471   2.226   8.442 -1.7110  0.6365  0.8320
  692MOL0     H93401   5.525   2.153   8.597  1.5454 -3.5390 -0.6145
  692MOL0     H93402   5.955   1.619   7.731  3.5946  2.3184 -0.3919
  692MOL0     H93403   6.016   1.419   7.568 -1.9387 -1.9583  0.1270
  692MOL0     H93404   6.382   1.036   7.522 -1.1181  0.2684 -0.3013
  692MOL0     H93405   6.414   0.824   7.443  0.5214  0.7819 -0.9095
  692MOL0     H93406   7.078   0.815   7.000 -1.0317 -0.6919  0.3506
  692MOL0     H93407   7.233   0.930   6.834 -1.0837  0.3703 -0.5742
  692MOL0     H93408   7.329   1.187   6.465 -0.6485  0.4023 -1.0901
  692MOL0     H93409   7.511   1.248   6.340 -1.5054  0.0031 -1.1569
  692MOL0     H93410   7.819   0.939   6.230  0.5300  1.1540  1.3132
  692MOL0     H93411   7.753   0.954   6.077 -3.2145  0.8979  1.0450
  692MOL0     H93412   7.975   1.128   6.216  0.0987 -0.5866  0.3369
  692MOL0     H93413   7.891   1.212   6.102  0.8378  0.9110  2.6825
  692MOL0     H93414   7.958   0.975   5.951 -0.0429  1.2997 -0.1068
  692MOL0     H93415   8.086   0.985   6.067  0.7619 -0.9375 -3.4482
  692MOL0     H93416   7.975   1.215   5.898  0.8351  0.7202 -1.3096
  692MOL0     H93417   8.116   1.131   5.847 -1.5134  1.3168 -0.0573
  692MOL0     H93418   8.322   1.366   6.108 -0.0048 -0.7230  1.5394
  692MOL0     H93419   7.613   0.844   6.257 -3.2287 -4.0778  3.4276
  692MOL0     H93420   7.420   0.774   6.361 -0.2981  0.2703  2.2035
  693MOL0     O93421   0.691  11.312   8.425  0.4384 -0.0167 -0.4615
  693MOL0     C93422   0.795  11.276   8.375  0.9143 -0.1964 -0.0172
  693MOL0     O93423   0.810  11.206   8.259 -0.1285  0.0309 -0.3786
  693MOL0     C93424   0.705  11.205   8.173 -0.4598 -0.2538  0.4228
  693MOL0     C93425   0.596  11.118   8.203  0.3524 -0.1767  1.5249
  693MOL0     C93426   0.497  11.105   8.106  0.8826  0.5070 -0.3192
  693MOL0     C93427   0.516  11.149   7.974  0.0023  1.4813  0.3079
  693MOL0     O93428   0.438  11.121   7.857 -0.0189 -0.6724  0.1302
  693MOL0     C93429   0.357  11.008   7.845 -0.7053 -0.0871  0.1241
  693MOL0     C93430   0.425  10.898   7.769 -0.1203  0.4889 -0.0259
  693MOL0     C93431   0.517  10.943   7.654 -0.3048 -0.0886  0.5607
  693MOL0     C93432   0.574  10.818   7.571  0.4168  0.7332  0.0105
  693MOL0     C93433   0.491  10.779   7.448 -0.1657  0.2585 -0.4521
  693MOL0     C93434   0.553  10.688   7.351  0.5710 -0.4172 -0.5646
  693MOL0     C93435   0.471  10.674   7.218  0.1147 -0.3471 -0.1540
  693MOL0     C93436   0.524  10.550   7.138  0.3658 -0.0854  0.6975
  693MOL0     N93437   0.479  10.562   7.004 -0.2454  0.2259 -0.5091
  693MOL0     C93438   0.549  10.617   6.902 -0.8665 -0.3150 -0.4274
  693MOL0     C93439   0.472  10.605   6.787 -0.0922  0.4189 -1.0724
  693MOL0     C93440   0.514  10.680   6.657 -0.1442 -0.7240 -0.1503
  693MOL0     C93441   0.457  10.814   6.671  0.2171 -0.0074 -1.0183
  693MOL0     C93442   0.300  10.833   6.699  0.1935 -0.7539  0.8650
  693MOL0     C93443   0.213  10.750   6.602  0.6385 -0.2195 -0.0286
  693MOL0     O93444   0.073  10.776   6.637  0.1096  0.0138 -0.3084
  693MOL0     C93445  -0.023  10.702   6.570 -0.1349  0.9817 -0.8080
  693MOL0     C93446  -0.007  10.599   6.472  0.7528  0.4185  0.6345
  693MOL0     C93447  -0.119  10.523   6.421 -0.7659  0.2516  1.1214
  693MOL0     C93448  -0.091  10.399   6.330  0.1908 -0.2572 -0.1614
  693MOL0     C93449  -0.247  10.559   6.468  0.4638 -0.8701  0.3202
  693MOL0     C93450  -0.365  10.483   6.427 -0.9367 -0.2612  0.3559
  693MOL0     O93451  -0.392  10.452   6.298  0.5472 -0.5840 -0.7657
  693MOL0     C93452  -0.340  10.517   6.195 -0.0425  0.0724 -0.5805
  693MOL0     C93453  -0.308  10.442   6.078  0.7793 -0.0250 -0.6165
  693MOL0     C93454  -0.244  10.500   5.966 -0.9190  0.1421 -0.5368
  693MOL0     C93455  -0.199  10.632   5.975 -0.2139  0.2071 -0.7272
  693MOL0     O93456  -0.123  10.695   5.877  0.4374 -0.4102  0.4539
  693MOL0     C93457  -0.028  10.623   5.780  1.0503 -0.2033  0.0916
  693MOL0     C93458   0.000  10.711   5.659  0.5879 -0.4601 -0.7020
  693MOL0     C93459  -0.130  10.724   5.571  0.8252  0.4687  0.2390
  693MOL0     C93460  -0.186  10.591   5.500  0.1233 -0.6727  0.4555
  693MOL0     C93461  -0.231  10.614   5.357  0.2660 -0.4635  0.7506
  693MOL0     C93462  -0.121  10.660   5.259  0.5760 -0.4632  0.4810
  693MOL0     C93463   0.003  10.573   5.262 -0.3037 -0.2205  0.2157
  693MOL0     C93464   0.097  10.601   5.145 -0.6728 -0.2920  0.3081
  693MOL0    Cl93465   0.117  10.781   5.142 -0.0313 -0.0679  0.3190
  693MOL0     C93466  -0.230  10.710   6.087  1.1663 -0.2223  0.7204
  693MOL0     C93467  -0.301  10.654   6.192 -0.6431  0.1292  0.1630
  693MOL0     O93468  -0.442  10.460   6.512 -0.2880  1.3603 -0.2224
  693MOL0     C93469  -0.261  10.660   6.568  1.7031 -0.4159 -0.1559
  693MOL0     C93470  -0.154  10.723   6.614  1.3126 -0.1164 -1.5552
  693MOL0     N93471   0.371  10.521   6.820  0.3883  0.2492 -0.5979
  693MOL0     N93472   0.368  10.507   6.951 -0.0792 -0.6747  0.7274
  693MOL0     C93473   0.615  11.244   7.947  0.3463  0.2081 -0.4060
  693MOL0     C93474   0.704  11.273   8.054 -0.4234 -0.7294 -0.2443
  693MOL0     C93475   0.920  11.320   8.441 -0.1757  0.4274 -0.5014
  693MOL0     C93476   0.917  11.391   8.564  0.8167 -0.0311  0.3532
  693MOL0     C93477   1.034  11.438   8.626  0.2051  0.0853  0.5615
  693MOL0     C93478   1.154  11.414   8.572  0.4858 -0.2493 -0.7550
  693MOL0     O93479   1.273  11.455   8.638 -0.0882 -0.2357 -0.7806
  693MOL0     C93480   1.334  11.567   8.567 -0.8841 -1.1074 -0.6292
  693MOL0     C93481   1.366  11.685   8.658  0.0644 -0.7135  0.1993
  693MOL0     C93482   1.515  11.665   8.709  1.3700  0.4845  1.1321
  693MOL0     C93483   1.575  11.800   8.757  0.0227 -0.3349  0.1225
  693MOL0     C93484   1.499  11.861   8.866  0.4906  0.0566  0.3422
  693MOL0     C93485   1.439  11.912   8.957  0.4664 -0.7507  0.2432
  693MOL0     C93486   1.155  11.343   8.451  0.3350 -0.7977 -0.3591
  693MOL0     C93487   1.043  11.292   8.385 -0.4963 -0.0602 -0.1289
  693MOL0     H93488   0.597  11.070   8.300  3.5618 -0.2961  1.5567
  693MOL0     H93489   0.416  11.035   8.122  2.3017 -1.6340 -1.9175
  693MOL0     H93490   0.340  10.955   7.939 -0.0457  2.7405  1.9587
  693MOL0     H93491   0.266  11.036   7.791 -1.2781 -0.6033  0.8104
  693MOL0     H93492   0.484  10.847   7.846 -1.6038  1.3421  1.7393
  693MOL0     H93493   0.364  10.818   7.727  1.3257 -1.3681  1.2211
  693MOL0     H93494   0.485  11.022   7.585  2.1923  1.5591  1.1452
  693MOL0     H93495   0.600  10.982   7.714 -0.8993  1.4152  0.4610
  693MOL0     H93496   0.681  10.834   7.552  0.4040 -0.2124 -0.9209
  693MOL0     H93497   0.565  10.728   7.633  3.5712  0.1604 -0.1907
  693MOL0     H93498   0.398  10.728   7.474  0.4656 -0.1830  1.0542
  693MOL0     H93499   0.454  10.870   7.399 -2.1331 -0.6095 -0.6939
  693MOL0     H93500   0.655  10.723   7.330  0.2469  0.5117 -0.6308
  693MOL0     H93501   0.564  10.598   7.413  0.4260 -0.1317 -0.1228
  693MOL0     H93502   0.366  10.655   7.238 -0.0392 -0.1902 -0.7905
  693MOL0     H93503   0.475  10.768   7.161  1.1307  0.7037  1.5457
  693MOL0     H93504   0.498  10.450   7.173  2.3768 -3.5980 -6.1543
  693MOL0     H93505   0.633  10.548   7.142  0.3614  0.5198  1.8725
  693MOL0     H93506   0.645  10.666   6.910 -2.0392  2.1915 -0.5519
  693MOL0     H93507   0.622  10.679   6.638 -0.2181  0.6561 -0.7831
  693MOL0     H93508   0.467  10.632   6.570 -1.7944 -0.3584  0.5106
  693MOL0     H93509   0.476  10.872   6.580 -2.6747  0.3657 -1.4657
  693MOL0     H93510   0.497  10.850   6.766  0.4002  2.7318 -2.0652
  693MOL0     H93511   0.272  10.938   6.687  2.0024 -0.2951  0.3732
  693MOL0     H93512   0.277  10.820   6.805 -1.2583  1.5161  0.8867
  693MOL0     H93513   0.221  10.643   6.624  0.3711 -0.4780 -1.1264
  693MOL0     H93514   0.245  10.766   6.499  0.6343 -0.3859 -0.0561
  693MOL0     H93515   0.091  10.586   6.428  1.3932  3.3765  1.0231
  693MOL0     H93516  -0.078  10.421   6.224  2.5403 -1.2534 -0.1320
  693MOL0     H93517   0.002  10.355   6.367  0.6210 -0.4789 -1.4529
  693MOL0     H93518  -0.173  10.330   6.351 -1.8412  2.1901  0.4956
  693MOL0     H93519  -0.333  10.337   6.075  2.4697 -0.4403 -1.6469
  693MOL0     H93520  -0.207  10.435   5.888  0.4752 -1.0229  1.0074
  693MOL0     H93521   0.066  10.617   5.836  3.2731  0.5326 -3.2522
  693MOL0     H93522  -0.044  10.517   5.761  1.8778  0.2202 -3.6429
  693MOL0     H93523   0.029  10.814   5.684  0.4974 -0.7572  0.6965
  693MOL0     H93524   0.080  10.657   5.607  0.6818 -1.4928  0.4894
  693MOL0     H93525  -0.112  10.796   5.491  2.7177 -2.2157 -1.9480
  693MOL0     H93526  -0.213  10.763   5.630  0.4825 -3.1818  2.4919
  693MOL0     H93527  -0.106  10.518   5.516  2.5845  1.8636  0.6208
  693MOL0     H93528  -0.275  10.566   5.558  0.7084 -1.2911  1.1084
  693MOL0     H93529  -0.291  10.704   5.371  0.9629  0.1746 -0.1762
  693MOL0     H93530  -0.290  10.531   5.318  1.5009 -2.0498  2.1297
  693MOL0     H93531  -0.168  10.687   5.164 -0.5206  0.0112  1.1439
  693MOL0     H93532  -0.094  10.760   5.293 -0.5449  0.4151 -1.0365
  693MOL0     H93533  -0.036  10.472   5.249  2.1830 -1.2430  0.1757
  693MOL0     H93534   0.056  10.604   5.353 -2.1010  3.2498  0.2524
  693MOL0     H93535   0.052  10.574   5.049  0.8261  0.1603 -0.5572
  693MOL0     H93536   0.193  10.549   5.154 -1.5574 -1.7978  1.7444
  693MOL0     H93537  -0.190  10.811   6.084  2.5742 -0.7721 -0.5146
  693MOL0     H93538  -0.336  10.715   6.275  0.5046 -0.0196  0.7731
  693MOL0     H93539  -0.359  10.675   6.613  1.5314 -1.0660 -0.3035
  693MOL0     H93540  -0.173  10.778   6.705 -1.5918 -0.6546 -1.7397
  693MOL0     H93541   0.630  11.288   7.849 -1.9667 -0.0395 -0.9383
  693MOL0     H93542   0.780  11.340   8.015 -0.8440 -0.6942 -1.0151
  693MOL0     H93543   0.818  11.404   8.608 -0.3073 -2.3373 -1.2653
  693MOL0     H93544   1.018  11.490   8.719 -0.4695 -1.1369  1.1634
  693MOL0     H93545   1.419  11.533   8.506  0.5051  1.6915 -0.4181
  693MOL0     H93546   1.273  11.618   8.491  3.2393  1.3181 -2.7009
  693MOL0     H93547   1.293  11.682   8.739 -2.6919  1.3958 -2.0101
  693MOL0     H93548   1.365  11.779   8.602 -2.0764 -1.3274 -0.9187
  693MOL0     H93549   1.575  11.629   8.625 -1.9697  1.9272 -2.1514
  693MOL0     H93550   1.505  11.593   8.791 -1.2899 -0.3219  0.1969
  693MOL0     H93551   1.594  11.868   8.674  1.0885 -0.3492  0.3416
  693MOL0     H93552   1.674  11.774   8.796  0.0299  0.0309  0.3437
  693MOL0     H93553   1.388  11.972   9.030  1.8995 -1.7518  2.1480
  693MOL0     H93554   1.252  11.321   8.407  1.7882  2.4591  0.8895
  693MOL0     H93555   1.042  11.241   8.289 -1.4913  0.8684 -0.6391
  694MOL0     O93556   0.110   8.854   9.540  0.0455  0.4869  0.2626
  694MOL0     C93557   0.222   8.802   9.542 -0.2219 -0.8422  0.3943
  694MOL0     O93558   0.289   8.776   9.661  0.0701 -0.1038  0.7665
  694MOL0     C93559   0.233   8.806   9.778 -0.0432  0.1935 -0.2908
  694MOL0     C93560   0.103   8.766   9.818 -0.0524 -0.1021 -0.4397
  694MOL0     C93561   0.049   8.786   9.943 -0.6622  0.7451 -0.1817
  694MOL0     C93562   0.134   8.855  10.040  0.3552  0.7846  0.2886
  694MOL0     O93563   0.080   8.883  10.164 -0.2151 -0.2486  0.3091
  694MOL0     C93564   0.155   8.951  10.266 -0.2156  0.0377  0.5870
  694MOL0     C93565   0.110   8.896  10.393 -0.2253 -0.0696 -0.6367
  694MOL0     C93566   0.144   8.759  10.422  0.2078  1.2802  0.2564
  694MOL0     C93567   0.059   8.695  10.527  0.1805 -0.4155  0.0125
  694MOL0     C93568   0.134   8.584  10.604 -0.0087  0.1403  0.6363
  694MOL0     C93569   0.138   8.450  10.528 -0.0406  0.1563  0.4166
  694MOL0     C93570   0.205   8.338  10.606  0.2396  0.8451  0.5603
  694MOL0     C93571   0.123   8.276  10.720 -0.2493  0.0506  0.4283
  694MOL0     N93572   0.195   8.179  10.805 -0.2718  0.7521 -0.1783
  694MOL0     C93573   0.253   8.206  10.925  0.3507 -0.2916  1.1266
  694MOL0     C93574   0.328   8.090  10.950 -0.5786 -0.2147  0.3297
  694MOL0     C93575   0.414   8.060  11.069 -0.1128 -0.4925  0.2795
  694MOL0     C93576   0.459   7.912  11.079 -1.2969 -0.0057 -1.2678
  694MOL0     C93577   0.339   7.814  11.094  0.2092 -0.5632 -0.0396
  694MOL0     C93578   0.373   7.664  11.080  0.1903  0.2151 -0.4737
  694MOL0     O93579   0.444   7.606  11.190 -0.4448  0.0516 -0.1016
  694MOL0     C93580   0.444   7.469  11.198 -0.3346 -0.4782  0.0400
  694MOL0     C93581   0.489   7.382  11.094  0.2183 -0.2091 -0.7817
  694MOL0     C93582   0.475   7.239  11.115 -0.0555  0.0655 -0.2763
  694MOL0     C93583   0.520   7.145  11.007 -0.0419 -0.0428  0.2209
  694MOL0     C93584   0.419   7.185  11.236  0.1904  0.0292  0.1982
  694MOL0     C93585   0.404   7.041  11.265 -0.1375  0.3923 -0.1698
  694MOL0     O93586   0.292   7.016  11.355 -0.1029  0.5362  0.6900
  694MOL0     C93587   0.292   6.903  11.430  0.0359 -0.1239 -0.1077
  694MOL0     C93588   0.404   6.839  11.488  0.1193 -0.0990 -0.3138
  694MOL0     C93589   0.382   6.736  11.574  0.3101  0.7783  0.0026
  694MOL0     C93590   0.254   6.679  11.601 -0.9715  0.0209 -0.2888
  694MOL0     O93591   0.237   6.571  11.690 -0.4745 -0.9958 -0.5832
  694MOL0     C93592   0.350   6.506  11.734  1.0450  0.4702  0.3037
  694MOL0     C93593   0.323   6.399  11.846 -0.2577 -0.6294  0.2811
  694MOL0     C93594   0.281   6.441  11.991  0.2179 -0.2105  0.6176
  694MOL0     C93595   0.368   6.567  12.041  0.4880 -0.5129  0.6021
  694MOL0     C93596   0.326   6.614  12.181  0.0805 -0.6327  0.0186
  694MOL0     C93597   0.377   6.505  12.288  0.3993  0.5727  0.7193
  694MOL0     C93598   0.527   6.509  12.317  0.1304  0.3544  0.1157
  694MOL0     C93599   0.546   6.431  12.450  0.3611 -0.1739 -0.6873
  694MOL0    Cl93600   0.719   6.436  12.480  0.4435  0.3921  0.2005
  694MOL0     C93601   0.144   6.730  11.532  0.9038  0.1105  0.8118
  694MOL0     C93602   0.163   6.851  11.457  0.1254 -0.4989 -0.4198
  694MOL0     O93603   0.483   6.959  11.224 -0.1461  0.4955  0.5837
  694MOL0     C93604   0.376   7.277  11.336 -0.4978 -0.2667  0.5065
  694MOL0     C93605   0.385   7.413  11.317 -0.1857 -0.3360 -0.3579
  694MOL0     N93606   0.307   8.000  10.845 -0.6600  1.0724 -0.2297
  694MOL0     N93607   0.235   8.057  10.761 -0.0813 -0.2778 -0.1320
  694MOL0     C93608   0.263   8.890   9.997 -0.7292  0.3432  0.5323
  694MOL0     C93609   0.310   8.863   9.873  0.3368  0.2717 -0.4362
  694MOL0     C93610   0.263   8.748   9.410 -0.3650  1.4737 -1.2546
  694MOL0     C93611   0.391   8.690   9.402 -0.6522 -0.4873  0.4646
  694MOL0     C93612   0.432   8.642   9.279 -0.3235  0.7070  0.3824
  694MOL0     C93613   0.353   8.642   9.159  0.0611 -0.6078  0.7889
  694MOL0     O93614   0.393   8.598   9.039 -0.3139 -0.8863  0.2212
  694MOL0     C93615   0.538   8.593   9.007  0.3887 -0.5363 -0.3304
  694MOL0     C93616   0.546   8.585   8.859  0.9276 -0.5922  0.9809
  694MOL0     C93617   0.483   8.447   8.813 -0.2102 -0.9051 -0.6114
  694MOL0     C93618   0.519   8.421   8.664 -0.8093 -0.6145  0.7421
  694MOL0     C93619   0.457   8.512   8.575  0.3780 -0.0863 -0.3266
  694MOL0     C93620   0.394   8.583   8.501 -0.1642 -0.4900 -0.6540
  694MOL0     C93621   0.222   8.677   9.178 -0.7014  0.0298  0.1622
  694MOL0     C93622   0.171   8.731   9.303 -0.0591  0.9141  0.5391
  694MOL0     H93623   0.041   8.724   9.740  0.7098 -0.2659 -0.9646
  694MOL0     H93624  -0.037   8.726   9.971  1.7723 -3.4361 -0.8637
  694MOL0     H93625   0.263   8.938  10.262 -0.0829  0.4279  2.2137
  694MOL0     H93626   0.143   9.059  10.258 -0.8258 -0.0074  0.8504
  694MOL0     H93627   0.132   8.959  10.480 -3.2207  0.3254 -0.0894
  694MOL0     H93628   0.002   8.909  10.392 -0.0654  2.0311  0.8502
  694MOL0     H93629   0.131   8.697  10.333 -0.7075 -2.7871  2.9566
  694MOL0     H93630   0.248   8.766  10.458  0.4450  3.2052 -0.6400
  694MOL0     H93631   0.019   8.771  10.595 -0.4031  0.4130 -1.2112
  694MOL0     H93632  -0.029   8.648  10.482  2.2213 -2.6769 -1.8920
  694MOL0     H93633   0.237   8.609  10.632  0.9603 -1.1198 -1.5476
  694MOL0     H93634   0.080   8.552  10.693  1.0495 -0.8006  0.9630
  694MOL0     H93635   0.032   8.424  10.515 -0.0185  0.8974 -1.6025
  694MOL0     H93636   0.186   8.465  10.431  1.8158 -0.7619  1.1521
  694MOL0     H93637   0.226   8.258  10.534 -1.0049 -0.6861  1.8197
  694MOL0     H93638   0.303   8.379  10.633  1.4531 -0.1029 -2.0090
  694MOL0     H93639   0.039   8.231  10.667  0.9914  0.4058 -1.9834
  694MOL0     H93640   0.081   8.350  10.788  2.3319  2.3138 -0.2394
  694MOL0     H93641   0.248   8.303  10.973  0.7555  1.4581 -2.0773
  694MOL0     H93642   0.513   8.106  11.059 -0.7537  0.6425 -1.1159
  694MOL0     H93643   0.365   8.097  11.159 -2.5279  0.2991 -1.2610
  694MOL0     H93644   0.530   7.893  11.160 -2.7309 -0.0070  0.0411
  694MOL0     H93645   0.510   7.890  10.985 -1.1996 -2.2130 -0.7646
  694MOL0     H93646   0.253   7.826  11.028  0.4575 -4.9101 -1.4660
  694MOL0     H93647   0.305   7.839  11.195 -2.8075 -2.2225 -0.5389
  694MOL0     H93648   0.438   7.647  10.993 -0.5024  0.4341 -1.0447
  694MOL0     H93649   0.283   7.608  11.053  0.3534  0.1013 -0.7840
  694MOL0     H93650   0.540   7.434  11.014  0.9786  1.3040  0.6213
  694MOL0     H93651   0.529   7.203  10.915  1.1438  2.3847  1.7542
  694MOL0     H93652   0.610   7.094  11.042 -1.1445 -0.9018  1.9892
  694MOL0     H93653   0.449   7.066  10.981  0.3859 -0.9978  1.8098
  694MOL0     H93654   0.507   6.873  11.484  0.0868  0.0471  0.0870
  694MOL0     H93655   0.473   6.713  11.629  0.4179 -2.1124 -1.2129
  694MOL0     H93656   0.404   6.463  11.649  0.1315  2.2188 -1.2656
  694MOL0     H93657   0.425   6.571  11.780  2.3885 -2.5792  2.6969
  694MOL0     H93658   0.259   6.318  11.810  3.4799 -3.2202 -1.1344
  694MOL0     H93659   0.413   6.338  11.854  0.5138  0.0184 -2.4378
  694MOL0     H93660   0.284   6.354  12.056 -1.5135 -0.6317  0.2047
  694MOL0     H93661   0.175   6.468  11.986  0.7008  1.6259 -1.6669
  694MOL0     H93662   0.476   6.551  12.039  0.7197  0.8509  1.3253
  694MOL0     H93663   0.331   6.649  11.978 -2.4346 -2.0218  0.1323
  694MOL0     H93664   0.219   6.627  12.163  0.5247  0.2636 -2.3233
  694MOL0     H93665   0.356   6.717  12.200 -0.3347 -0.2212 -1.4421
  694MOL0     H93666   0.315   6.534  12.374 -1.5009  3.1225 -1.3467
  694MOL0     H93667   0.339   6.407  12.259  1.9648 -0.5553  2.2630
  694MOL0     H93668   0.559   6.613  12.320 -2.1308  1.1849 -1.8215
  694MOL0     H93669   0.579   6.466  12.231  2.4816  1.7578  0.7325
  694MOL0     H93670   0.504   6.331  12.441 -0.7948  0.2941 -0.6815
  694MOL0     H93671   0.486   6.481  12.527  1.9417  1.0614 -0.1990
  694MOL0     H93672   0.044   6.691  11.548  1.8473 -1.0496  5.5370
  694MOL0     H93673   0.076   6.905  11.422 -1.6327 -2.1298  1.1800
  694MOL0     H93674   0.343   7.255  11.437  0.2623  1.4627  1.1694
  694MOL0     H93675   0.340   7.483  11.387 -0.6293 -0.4338 -0.5426
  694MOL0     H93676   0.318   8.965  10.054  1.1804 -1.0534  0.6376
  694MOL0     H93677   0.399   8.910   9.832 -0.2851 -0.4856 -2.8159
  694MOL0     H93678   0.454   8.689   9.491 -2.7878  1.8069  2.1876
  694MOL0     H93679   0.530   8.596   9.266 -1.0955 -0.1887 -4.8968
  694MOL0     H93680   0.593   8.682   9.043  0.7727 -1.6226  1.9873
  694MOL0     H93681   0.589   8.512   9.060 -2.3691 -2.8875 -1.0300
  694MOL0     H93682   0.651   8.590   8.831 -0.3797  3.9685 -5.3067
  694MOL0     H93683   0.490   8.659   8.800  0.4241 -0.7874  1.2131
  694MOL0     H93684   0.374   8.451   8.813 -0.2134  1.0385  1.8773
  694MOL0     H93685   0.516   8.365   8.876 -0.9329 -0.2392  0.6764
  694MOL0     H93686   0.492   8.318   8.640  1.4462 -0.8556 -1.1424
  694MOL0     H93687   0.628   8.424   8.667 -0.7630 -1.6639  0.5247
  694MOL0     H93688   0.344   8.661   8.448 -2.4482 -1.0948  0.4726
  694MOL0     H93689   0.164   8.683   9.087  0.7694 -2.2060 -1.0137
  694MOL0     H93690   0.064   8.750   9.303 -0.4147 -0.8240 -1.1985
  695MOL0     O93691  11.221   5.664   9.136  0.3202  0.4614  0.3551
  695MOL0     C93692  11.230   5.552   9.084 -0.7781  1.1891  0.1569
  695MOL0     O93693  11.176   5.507   8.963  0.1432 -0.2317  0.8552
  695MOL0     C93694  11.048   5.552   8.946 -0.1921  0.1674  1.0521
  695MOL0     C93695  11.029   5.671   8.879  0.4662  0.0716  0.7533
  695MOL0     C93696  10.894   5.719   8.853 -0.2880 -0.6525 -0.0404
  695MOL0     C93697  10.786   5.646   8.894  0.7742 -0.0319  0.0129
  695MOL0     O93698  10.656   5.697   8.857 -0.7756  0.2124  0.2284
  695MOL0     C93699  10.533   5.618   8.884 -0.6765 -0.1732  0.2464
  695MOL0     C93700  10.409   5.664   8.796 -0.2628  0.4558 -0.7287
  695MOL0     C93701  10.416   5.630   8.648 -0.2731  0.7298 -0.6531
  695MOL0     C93702  10.294   5.688   8.566 -1.5467  1.0734 -1.4256
  695MOL0     C93703  10.284   5.627   8.419  0.2358 -0.1157 -0.1726
  695MOL0     C93704  10.391   5.696   8.319 -0.5850 -0.4315  0.2663
  695MOL0     C93705  10.352   5.677   8.164 -1.1222  0.3027 -1.1780
  695MOL0     C93706  10.357   5.527   8.118 -0.0648  0.6733  0.5701
  695MOL0     N93707  10.491   5.460   8.126  0.2034  0.1815  0.4754
  695MOL0     C93708  10.605   5.490   8.052 -0.3295 -0.2892 -0.1741
  695MOL0     C93709  10.700   5.393   8.081 -0.7851  0.2105  0.2901
  695MOL0     C93710  10.849   5.383   8.052  0.1712 -0.8677  0.4558
  695MOL0     C93711  10.880   5.279   7.935  0.7099 -0.9321 -0.1855
  695MOL0     C93712  11.026   5.310   7.893  0.8908 -0.6846  0.2803
  695MOL0     C93713  11.071   5.194   7.811  0.1509 -0.0483 -0.0849
  695MOL0     O93714  11.204   5.203   7.750  0.2528  0.6565 -0.4459
  695MOL0     C93715  11.224   5.263   7.627  0.9010 -0.1991  0.8419
  695MOL0     C93716  11.222   5.402   7.624  0.3186 -0.3523 -0.2796
  695MOL0     C93717  11.233   5.471   7.503  0.2782  0.2329 -0.5990
  695MOL0     C93718  11.236   5.617   7.531  0.1775 -0.3222  0.0769
  695MOL0     C93719  11.253   5.401   7.385  0.1927 -0.1184 -0.1147
  695MOL0     C93720  11.262   5.473   7.255 -0.1707  0.4039 -0.1993
  695MOL0     O93721  11.282   5.401   7.141  0.5634 -0.0792 -0.2913
  695MOL0     C93722  11.309   5.472   7.030 -1.1914  0.4797 -1.3027
  695MOL0     C93723  11.205   5.465   6.932 -0.4818  0.9334  0.2615
  695MOL0     C93724  11.234   5.524   6.809  0.2322  0.8806 -0.4368
  695MOL0     C93725  11.357   5.591   6.792 -0.6897  0.2178  0.3155
  695MOL0     O93726  11.390   5.669   6.689  0.2029  0.0923 -1.1748
  695MOL0     C93727  11.280   5.729   6.623 -0.3207  0.0521  0.1210
  695MOL0     C93728  11.334   5.851   6.545  0.0003  0.2914 -0.2350
  695MOL0     C93729  11.421   5.795   6.433 -0.2495 -0.4779 -0.6757
  695MOL0     C93730  11.452   5.908   6.327  0.3660  0.0563 -0.3097
  695MOL0     C93731  11.573   5.871   6.239  0.0161 -0.7153  0.8407
  695MOL0     C93732  11.628   5.989   6.144 -0.7814  0.0114 -0.1485
  695MOL0     C93733  11.520   6.063   6.057 -0.8127  0.5742  0.2409
  695MOL0     C93734  11.448   6.183   6.124  0.0141 -0.3663  0.1334
  695MOL0    Cl93735  11.559   6.323   6.110 -0.1321 -0.2664  0.5361
  695MOL0     C93736  11.463   5.581   6.880 -0.1426  0.2794  0.1672
  695MOL0     C93737  11.439   5.522   7.008 -0.2386  0.7102  1.0626
  695MOL0     O93738  11.267   5.596   7.252  0.4189 -0.0002 -0.5196
  695MOL0     C93739  11.268   5.258   7.391  0.3667 -0.6859  0.4891
  695MOL0     C93740  11.241   5.189   7.512 -0.2093  0.7317  0.8505
  695MOL0     N93741  10.630   5.299   8.159 -0.4541 -0.4206 -0.7228
  695MOL0     N93742  10.509   5.338   8.179 -0.1807  0.2292 -0.2865
  695MOL0     C93743  10.806   5.529   8.971  0.2987 -0.0291  0.1614
  695MOL0     C93744  10.940   5.484   8.990  0.5122 -0.1557 -0.5267
  695MOL0     C93745  11.308   5.442   9.152 -0.0782  0.5833 -1.2313
  695MOL0     C93746  11.361   5.461   9.281  0.0124 -0.8014 -0.2508
  695MOL0     C93747  11.432   5.359   9.338  0.0807  1.0472  0.5780
  695MOL0     C93748  11.455   5.234   9.284 -0.0285 -0.7096 -0.2416
  695MOL0     O93749  11.520   5.143   9.370  0.6407 -0.0792  0.0141
  695MOL0     C93750  11.493   5.004   9.344  0.4967 -0.3462  0.0580
  695MOL0     C93751  11.349   4.958   9.383 -0.8044  0.6842 -0.7080
  695MOL0     C93752  11.344   4.803   9.372 -0.0391 -0.4328 -0.3745
  695MOL0     C93753  11.201   4.759   9.424  0.1093 -1.0118  0.2610
  695MOL0     C93754  11.210   4.689   9.548  0.0970  0.0608  0.1510
  695MOL0     C93755  11.232   4.645   9.660 -0.4330 -0.6441  0.2550
  695MOL0     C93756  11.389   5.213   9.155 -0.1479 -0.9926 -0.1087
  695MOL0     C93757  11.322   5.321   9.084 -0.7762 -0.0713 -0.1382
  695MOL0     H93758  11.104   5.742   8.849  0.7632  1.1695  3.7834
  695MOL0     H93759  10.876   5.816   8.808 -1.6121 -0.3310  1.1060
  695MOL0     H93760  10.564   5.514   8.872 -0.0607 -0.0249  0.5084
  695MOL0     H93761  10.493   5.624   8.985 -4.0146 -0.1550 -0.9462
  695MOL0     H93762  10.314   5.632   8.839  1.0844  1.8883  3.9185
  695MOL0     H93763  10.395   5.772   8.793 -1.2403  0.3276 -3.4630
  695MOL0     H93764  10.516   5.660   8.616 -0.6009 -1.5158 -4.3595
  695MOL0     H93765  10.408   5.521   8.642  0.1244  0.5271  1.7016
  695MOL0     H93766  10.207   5.667   8.629 -0.3581 -0.1498 -0.1311
  695MOL0     H93767  10.314   5.795   8.574  1.0665  0.4818  3.0271
  695MOL0     H93768  10.294   5.518   8.408 -1.3127 -0.2089 -0.9410
  695MOL0     H93769  10.180   5.652   8.394  0.2846 -0.4156 -0.7045
  695MOL0     H93770  10.403   5.802   8.346 -0.8286 -1.0602  3.2259
  695MOL0     H93771  10.488   5.652   8.345  1.4819  3.6277  0.2301
  695MOL0     H93772  10.264   5.739   8.146 -3.5798 -1.8339  2.2914
  695MOL0     H93773  10.436   5.723   8.112  0.8821 -0.9606  0.7604
  695MOL0     H93774  10.327   5.535   8.013 -1.6966  0.2604  0.9702
  695MOL0     H93775  10.280   5.474   8.174  0.7093 -1.5492 -0.3552
  695MOL0     H93776  10.612   5.582   7.995 -1.1799 -1.9798 -3.2096
  695MOL0     H93777  10.887   5.482   8.028  0.4149 -1.0616  0.0230
  695MOL0     H93778  10.897   5.352   8.145  1.9837  0.0226 -0.1526
  695MOL0     H93779  10.802   5.295   7.859  3.7709  1.3699 -3.1818
  695MOL0     H93780  10.879   5.176   7.970 -0.0144 -0.6804  0.5873
  695MOL0     H93781  11.089   5.331   7.980  3.0700  0.3263 -1.4345
  695MOL0     H93782  11.017   5.401   7.833  0.2880 -1.4797 -0.8682
  695MOL0     H93783  11.001   5.168   7.731 -1.1391  1.2556  0.5885
  695MOL0     H93784  11.078   5.109   7.880 -1.2477 -2.4095 -2.6344
  695MOL0     H93785  11.203   5.445   7.722 -0.1085 -1.7681  0.2803
  695MOL0     H93786  11.155   5.669   7.479  1.5323  0.1982 -1.6075
  695MOL0     H93787  11.216   5.639   7.636 -2.7780  0.3081 -0.5248
  695MOL0     H93788  11.335   5.648   7.496  0.6655 -1.2884  0.5624
  695MOL0     H93789  11.110   5.417   6.951  0.1710 -0.6342 -0.2596
  695MOL0     H93790  11.167   5.532   6.723 -0.7154  0.4548  0.2481
  695MOL0     H93791  11.237   5.660   6.548  1.8889 -0.8609 -0.3758
  695MOL0     H93792  11.201   5.751   6.696  1.5621 -0.5173  2.4278
  695MOL0     H93793  11.251   5.915   6.512  2.3473  3.0667 -1.1742
  695MOL0     H93794  11.404   5.908   6.607  4.1441 -2.5131 -1.9018
  695MOL0     H93795  11.362   5.717   6.384 -2.4585 -1.0438  2.5840
  695MOL0     H93796  11.512   5.750   6.475  0.4249  2.0566  0.8201
  695MOL0     H93797  11.371   5.917   6.255  0.2779  0.0144 -0.2163
  695MOL0     H93798  11.466   6.000   6.385 -0.4485 -0.0467  0.0615
  695MOL0     H93799  11.562   5.789   6.168  2.0250  1.3426 -2.0674
  695MOL0     H93800  11.655   5.851   6.308  0.8492 -1.4462 -0.3361
  695MOL0     H93801  11.670   6.065   6.211 -0.7124 -0.7652  0.7080
  695MOL0     H93802  11.702   5.948   6.076  1.6450  2.2648  0.9245
  695MOL0     H93803  11.442   5.987   6.049  0.1485 -0.2449 -2.9657
  695MOL0     H93804  11.553   6.096   5.958 -0.9610  0.6609  0.2193
  695MOL0     H93805  11.428   6.166   6.230 -0.2332  0.0036  0.1499
  695MOL0     H93806  11.350   6.190   6.075  0.9894  1.0116 -1.7719
  695MOL0     H93807  11.547   5.645   6.853  1.6213 -1.4545  1.3195
  695MOL0     H93808  11.514   5.514   7.087 -1.0441 -1.6593  1.6655
  695MOL0     H93809  11.298   5.208   7.300  1.6411 -0.0981  0.5555
  695MOL0     H93810  11.232   5.081   7.506 -1.8352  0.8687  0.2440
  695MOL0     H93811  10.723   5.469   9.007  0.5917 -0.4267  0.1809
  695MOL0     H93812  10.952   5.384   9.030  2.2570 -2.0922 -5.1303
  695MOL0     H93813  11.361   5.560   9.326  1.5232 -1.2214  0.7544
  695MOL0     H93814  11.468   5.375   9.439 -0.3144  0.6526  0.7845
  695MOL0     H93815  11.518   4.989   9.239 -0.1496 -0.3216 -0.1048
  695MOL0     H93816  11.564   4.948   9.406 -0.6426 -2.0432 -0.1186
  695MOL0     H93817  11.279   5.007   9.315 -0.9368  0.2515 -0.8864
  695MOL0     H93818  11.337   4.987   9.487  0.0449 -3.5517  0.7394
  695MOL0     H93819  11.423   4.762   9.435 -1.6113 -0.6131  1.6072
  695MOL0     H93820  11.350   4.759   9.272  1.9834  1.0246 -0.9449
  695MOL0     H93821  11.157   4.701   9.342  1.4736  2.0864 -2.9518
  695MOL0     H93822  11.144   4.851   9.439 -0.1670 -1.0962 -0.2521
  695MOL0     H93823  11.265   4.608   9.755  1.8697  3.0268  1.0822
  695MOL0     H93824  11.401   5.118   9.104  2.7571 -0.2740 -0.9650
  695MOL0     H93825  11.287   5.298   8.984 -2.2855 -1.6907  0.6864
  696MOL0     O93826   0.766   9.624   0.402 -0.2011 -0.1315 -0.2856
  696MOL0     C93827   0.644   9.623   0.381 -0.1217  0.1890 -0.6307
  696MOL0     O93828   0.589   9.613   0.250 -0.5086 -0.0050 -0.7998
  696MOL0     C93829   0.665   9.606   0.137  0.5194 -0.6212  0.1224
  696MOL0     C93830   0.599   9.661   0.028 -0.9683 -0.3374 -1.0038
  696MOL0     C93831   0.667   9.681  -0.094 -0.3397 -0.3175  0.0555
  696MOL0     C93832   0.793   9.632  -0.116  0.2825 -0.9430  0.0460
  696MOL0     O93833   0.852   9.627  -0.236 -0.3486 -0.1909  0.1812
  696MOL0     C93834   0.769   9.570  -0.347 -0.7282 -0.7068  0.3659
  696MOL0     C93835   0.795   9.648  -0.475 -0.4859  0.1708 -0.5220
  696MOL0     C93836   0.722   9.595  -0.603  0.2563 -0.1595  0.1861
  696MOL0     C93837   0.564   9.583  -0.582 -0.2410  0.1777  0.0272
  696MOL0     C93838   0.477   9.543  -0.704 -0.6620 -0.7563  1.4352
  696MOL0     C93839   0.497   9.615  -0.845  0.4491 -0.2974 -0.0102
  696MOL0     C93840   0.481   9.530  -0.970 -0.7808  0.7212  0.6617
  696MOL0     C93841   0.343   9.454  -0.971 -0.8042  0.6723  0.5378
  696MOL0     N93842   0.341   9.367  -1.076  0.3456 -0.1978 -0.5005
  696MOL0     C93843   0.282   9.392  -1.198 -0.4905  1.7739 -0.0140
  696MOL0     C93844   0.305   9.282  -1.282 -0.8961 -0.3256  0.5206
  696MOL0     C93845   0.245   9.260  -1.425  0.1231  0.6903  0.6515
  696MOL0     C93846   0.349   9.257  -1.545 -0.4772  0.0459 -0.9726
  696MOL0     C93847   0.457   9.370  -1.544 -0.4632 -0.2693  0.7317
  696MOL0     C93848   0.550   9.374  -1.655  0.2401  0.2917  0.4569
  696MOL0     O93849   0.678   9.341  -1.620 -0.4822 -0.4977  0.3665
  696MOL0     C93850   0.779   9.405  -1.692  0.1492 -0.0144  0.7246
  696MOL0     C93851   0.880   9.476  -1.619  0.4236 -0.1433 -0.4224
  696MOL0     C93852   0.986   9.540  -1.681 -0.0932  0.0922 -0.6812
  696MOL0     C93853   1.089   9.619  -1.600  0.5997  0.3238  0.1762
  696MOL0     C93854   0.997   9.532  -1.817 -0.1805 -0.1029 -0.1154
  696MOL0     C93855   1.099   9.606  -1.906 -0.4480 -0.3845 -0.7782
  696MOL0     O93856   1.071   9.608  -2.040  0.6680 -0.4888  0.2812
  696MOL0     C93857   1.174   9.603  -2.126  0.3982  0.3211 -0.5184
  696MOL0     C93858   1.264   9.500  -2.142 -0.0070 -0.2574  1.0515
  696MOL0     C93859   1.354   9.500  -2.254  0.7470  0.3179  0.5272
  696MOL0     C93860   1.353   9.599  -2.349  1.4277 -0.2758 -0.6357
  696MOL0     O93861   1.433   9.581  -2.453 -0.2117  0.0043  0.1266
  696MOL0     C93862   1.364   9.511  -2.558 -0.6897 -1.0646 -0.8383
  696MOL0     C93863   1.381   9.586  -2.692  0.1123 -0.3791  0.1842
  696MOL0     C93864   1.338   9.732  -2.696 -0.0254  0.2813  1.0968
  696MOL0     C93865   1.407   9.805  -2.806  0.6469 -0.0074 -0.1695
  696MOL0     C93866   1.348   9.945  -2.832  0.8054  0.1233 -0.0892
  696MOL0     C93867   1.379  10.068  -2.737 -1.0685 -0.4257  0.2061
  696MOL0     C93868   1.344  10.054  -2.590 -0.1653 -0.1491  0.5981
  696MOL0     C93869   1.364  10.177  -2.507  0.0601  0.0886 -0.3812
  696MOL0    Cl93870   1.239  10.295  -2.541  0.2473  0.0568 -0.0399
  696MOL0     C93871   1.261   9.705  -2.330 -1.1022  0.5400  0.0813
  696MOL0     C93872   1.171   9.705  -2.219 -0.3154 -0.0463 -0.2881
  696MOL0     O93873   1.208   9.634  -1.856 -0.6294  0.3229 -0.1846
  696MOL0     C93874   0.909   9.451  -1.889 -0.3056  0.0668  0.8011
  696MOL0     C93875   0.797   9.387  -1.829  0.2881 -0.3316 -0.1093
  696MOL0     N93876   0.381   9.192  -1.209 -0.6077 -1.3861 -0.1686
  696MOL0     N93877   0.394   9.246  -1.089 -0.1881  0.5871  0.1910
  696MOL0     C93878   0.858   9.582  -0.003  0.7834 -0.3301  0.0958
  696MOL0     C93879   0.795   9.561   0.123 -0.1524  0.8324  0.5285
  696MOL0     C93880   0.554   9.641   0.491 -0.0443  0.3175 -0.0461
  696MOL0     C93881   0.602   9.618   0.624  0.0080 -0.6683  0.9900
  696MOL0     C93882   0.515   9.654   0.727 -0.1214 -0.3612 -0.6124
  696MOL0     C93883   0.386   9.686   0.697  0.0539  0.2665  0.4169
  696MOL0     O93884   0.301   9.717   0.798  0.2411  0.1564  0.2414
  696MOL0     C93885   0.346   9.825   0.883  0.1946  0.1437 -1.6019
  696MOL0     C93886   0.346   9.956   0.810  0.2704 -0.0756 -0.2361
  696MOL0     C93887   0.213   9.976   0.736  0.5154 -0.0379  0.1238
  696MOL0     C93888   0.234  10.079   0.630  0.2455  0.6637  0.3994
  696MOL0     C93889   0.254  10.209   0.692  0.2672 -1.0855 -0.2055
  696MOL0     C93890   0.295  10.320   0.739  0.7231 -0.9005  0.2652
  696MOL0     C93891   0.335   9.682   0.568 -0.6904 -0.5048  0.3537
  696MOL0     C93892   0.421   9.681   0.467  0.6796  0.4239 -0.8168
  696MOL0     H93893   0.499   9.692   0.054 -1.4503 -1.4016 -1.5211
  696MOL0     H93894   0.604   9.724  -0.171  1.4431 -0.5242 -1.6082
  696MOL0     H93895   0.802   9.467  -0.365  1.1604  0.0506 -0.8604
  696MOL0     H93896   0.662   9.572  -0.329 -0.5222 -2.5638  2.1901
  696MOL0     H93897   0.767   9.751  -0.450  1.8906  0.7133  0.1762
  696MOL0     H93898   0.904   9.659  -0.485 -0.4413  0.6248  0.3601
  696MOL0     H93899   0.735   9.665  -0.686 -4.3782  3.3419  1.9660
  696MOL0     H93900   0.753   9.492  -0.622 -0.8468 -0.0520 -2.6763
  696MOL0     H93901   0.537   9.513  -0.503 -0.3103  0.6797  0.4550
  696MOL0     H93902   0.537   9.682  -0.545  0.5368  1.5808 -2.8217
  696MOL0     H93903   0.497   9.439  -0.731  1.7227  0.7590 -3.9237
  696MOL0     H93904   0.371   9.547  -0.678 -1.0826 -0.5711 -0.2163
  696MOL0     H93905   0.441   9.709  -0.849 -0.3018 -0.7213  0.3767
  696MOL0     H93906   0.601   9.649  -0.840  0.2972  0.0903  0.6676
  696MOL0     H93907   0.494   9.587  -1.063  0.6477 -0.4153  0.1414
  696MOL0     H93908   0.566   9.462  -0.961 -1.6523 -0.9016 -2.3344
  696MOL0     H93909   0.261   9.526  -0.976 -0.1366  1.3553 -1.0165
  696MOL0     H93910   0.331   9.404  -0.874  0.5449  0.9819  0.8800
  696MOL0     H93911   0.225   9.481  -1.224 -0.5690  2.1993  1.5228
  696MOL0     H93912   0.196   9.163  -1.419 -1.3004  1.4372  1.9201
  696MOL0     H93913   0.171   9.338  -1.448 -0.5154 -0.5137 -1.6518
  696MOL0     H93914   0.284   9.266  -1.633 -1.1040 -2.8002 -0.8946
  696MOL0     H93915   0.394   9.158  -1.541 -1.2133 -0.2562  0.5213
  696MOL0     H93916   0.513   9.387  -1.451 -1.3890  2.6758  0.8555
  696MOL0     H93917   0.404   9.465  -1.558 -0.1992 -0.0220  1.3723
  696MOL0     H93918   0.551   9.478  -1.691 -2.7518 -0.3573 -1.9144
  696MOL0     H93919   0.513   9.300  -1.727 -1.8420 -0.1875  1.9291
  696MOL0     H93920   0.871   9.480  -1.511  1.8692 -1.3017 -0.2268
  696MOL0     H93921   1.057   9.621  -1.495 -5.2298  2.7300 -1.2203
  696MOL0     H93922   1.192   9.588  -1.615  0.3342 -0.3133 -0.3787
  696MOL0     H93923   1.076   9.721  -1.638  2.2676  1.0723  1.4724
  696MOL0     H93924   1.267   9.416  -2.074 -1.7492 -1.1286  0.1074
  696MOL0     H93925   1.425   9.420  -2.275 -1.3168 -1.6453  0.5933
  696MOL0     H93926   1.401   9.409  -2.570 -3.3451 -2.1649 -0.4105
  696MOL0     H93927   1.257   9.506  -2.535 -0.7461 -0.5844 -0.9790
  696MOL0     H93928   1.482   9.575  -2.733 -0.0266  1.6502 -0.7812
  696MOL0     H93929   1.313   9.534  -2.760 -0.2380  1.0117 -0.5553
  696MOL0     H93930   1.368   9.777  -2.601 -0.5213  3.1062  0.0126
  696MOL0     H93931   1.229   9.739  -2.708  0.1819  1.2685 -0.4319
  696MOL0     H93932   1.506   9.831  -2.768  0.5609 -0.4237  0.3538
  696MOL0     H93933   1.416   9.743  -2.895  0.6164 -2.3532  1.3860
  696MOL0     H93934   1.240   9.930  -2.831  0.6719  0.8180 -1.5818
  696MOL0     H93935   1.368   9.968  -2.937  0.2263  0.7006 -0.0771
  696MOL0     H93936   1.487  10.087  -2.748 -1.2819  0.6573 -0.1478
  696MOL0     H93937   1.329  10.162  -2.758 -0.5399  0.4533  2.5791
  696MOL0     H93938   1.422   9.987  -2.554  0.2707  1.3707  2.6708
  696MOL0     H93939   1.240  10.023  -2.575 -0.3957 -0.3951 -1.2448
  696MOL0     H93940   1.459  10.223  -2.536 -0.9198  0.9045 -2.5770
  696MOL0     H93941   1.365  10.147  -2.402 -0.0109  0.9081 -0.1445
  696MOL0     H93942   1.245   9.777  -2.410  0.5818  0.8701 -0.0029
  696MOL0     H93943   1.093   9.779  -2.204 -1.9945 -1.6721 -0.6189
  696MOL0     H93944   0.925   9.435  -1.996 -0.9490 -0.5791  0.7902
  696MOL0     H93945   0.714   9.344  -1.885 -0.8181  1.6606 -0.1064
  696MOL0     H93946   0.961   9.553  -0.023  0.3691 -1.5638 -0.3288
  696MOL0     H93947   0.837   9.528   0.217 -0.4396 -0.1029  0.3382
  696MOL0     H93948   0.700   9.577   0.647  0.2064  0.3992  2.2192
  696MOL0     H93949   0.546   9.655   0.831 -1.6925  4.0341  0.0145
  696MOL0     H93950   0.273   9.837   0.963  0.8913  2.3938 -1.2269
  696MOL0     H93951   0.438   9.807   0.939 -1.2152 -0.1886  0.6974
  696MOL0     H93952   0.427   9.946   0.736 -2.6122  2.7738 -4.2163
  696MOL0     H93953   0.371  10.032   0.885  1.4940  0.2301 -0.9112
  696MOL0     H93954   0.125  10.004   0.793  1.2110 -3.3919  3.1792
  696MOL0     H93955   0.184   9.892   0.673 -2.1244  1.0012 -0.1690
  696MOL0     H93956   0.142  10.081   0.571  1.4373 -1.5190 -1.7306
  696MOL0     H93957   0.309  10.056   0.553  3.0938  2.1284  2.5294
  696MOL0     H93958   0.312  10.421   0.770  1.5846 -0.8313 -0.4095
  696MOL0     H93959   0.231   9.709   0.548 -1.5356 -1.9813  2.3297
  696MOL0     H93960   0.384   9.688   0.365 -2.7774 -3.5425 -0.0972
  697MOL0     O93961   4.916   1.173   3.440  0.2868  0.3200 -0.4293
  697MOL0     C93962   4.808   1.139   3.398  0.7179  0.2034  0.0988
  697MOL0     O93963   4.719   1.065   3.470  0.1407  1.1062 -0.4251
  697MOL0     C93964   4.779   0.985   3.572  0.8364 -0.7344  0.3379
  697MOL0     C93965   4.751   0.852   3.568  0.5753 -0.2806 -0.8086
  697MOL0     C93966   4.763   0.763   3.676 -0.1523 -0.3871  0.1362
  697MOL0     C93967   4.818   0.812   3.791  0.5477  0.7130 -0.8140
  697MOL0     O93968   4.864   0.715   3.876 -0.1079 -1.2635 -0.1771
  697MOL0     C93969   4.870   0.764   4.010  0.3427  1.0990 -0.5689
  697MOL0     C93970   4.871   0.630   4.095 -0.2408  0.2986 -0.2565
  697MOL0     C93971   5.008   0.554   4.105 -0.0716 -0.3783 -0.6969
  697MOL0     C93972   4.995   0.424   4.184  0.5982 -0.1584 -1.3406
  697MOL0     C93973   5.127   0.344   4.156  0.4252 -1.1716 -0.0518
  697MOL0     C93974   5.134   0.224   4.255  0.2753  0.4432 -0.1903
  697MOL0     C93975   5.230   0.119   4.206  0.0092  0.7635  0.0016
  697MOL0     C93976   5.315   0.039   4.314 -0.0952 -0.7450 -0.3926
  697MOL0     N93977   5.370  -0.080   4.273  0.1259 -0.2260  0.2578
  697MOL0     C93978   5.294  -0.189   4.226 -0.5467 -0.2101  0.2808
  697MOL0     C93979   5.390  -0.271   4.164  0.3605  0.0167  0.3985
  697MOL0     C93980   5.354  -0.397   4.088  0.0592 -0.3927 -0.1356
  697MOL0     C93981   5.243  -0.383   3.991  0.0554  0.3792  0.4554
  697MOL0     C93982   5.119  -0.468   4.035 -0.6314  0.3290 -0.6955
  697MOL0     C93983   4.989  -0.412   3.993  0.3152  0.5891  0.3555
  697MOL0     O93984   4.978  -0.408   3.850  0.7549  0.2165 -0.2674
  697MOL0     C93985   4.858  -0.377   3.794 -0.4316 -0.1536 -0.1521
  697MOL0     C93986   4.849  -0.395   3.657 -0.0959 -0.2469 -0.6556
  697MOL0     C93987   4.731  -0.373   3.595 -0.2570  0.3269  0.5834
  697MOL0     C93988   4.730  -0.405   3.449 -0.0538  0.4256  0.1219
  697MOL0     C93989   4.616  -0.316   3.661 -0.7629  1.4366 -0.6049
  697MOL0     C93990   4.490  -0.295   3.595 -0.3962  0.3863 -0.0443
  697MOL0     O93991   4.415  -0.194   3.648  0.0291  0.7896 -0.5403
  697MOL0     C93992   4.287  -0.172   3.611  0.4808 -0.6144  0.3887
  697MOL0     C93993   4.252  -0.182   3.475 -0.4795 -0.5068 -0.2447
  697MOL0     C93994   4.126  -0.138   3.436 -0.1686 -0.2948  0.1571
  697MOL0     C93995   4.023  -0.113   3.518  0.6792 -0.5119  0.0779
  697MOL0     O93996   3.895  -0.085   3.477 -0.4092 -0.2065  0.7111
  697MOL0     C93997   3.874  -0.028   3.344  0.6651  0.1462  0.1941
  697MOL0     C93998   3.786   0.100   3.341 -0.9695  1.1734  0.1154
  697MOL0     C93999   3.846   0.235   3.379 -0.1450  0.9017 -0.5441
  697MOL0     C94000   3.765   0.360   3.406  0.7813  0.8318  1.8386
  697MOL0     C94001   3.842   0.481   3.453  0.6005 -0.5108 -0.5409
  697MOL0     C94002   3.747   0.597   3.490 -1.0100 -0.1509  0.0965
  697MOL0     C94003   3.830   0.715   3.547 -0.5263 -0.4878 -0.4529
  697MOL0     C94004   3.741   0.827   3.583 -0.1086  0.5684 -0.5870
  697MOL0    Cl94005   3.692   0.899   3.421 -0.1328  0.1811  0.0585
  697MOL0     C94006   4.055  -0.107   3.656  0.7124  0.1267  0.2196
  697MOL0     C94007   4.189  -0.128   3.700 -0.2133 -0.8972 -0.5799
  697MOL0     O94008   4.448  -0.389   3.526 -0.2555  0.4743 -0.3818
  697MOL0     C94009   4.639  -0.271   3.793 -0.5445 -0.7404  0.3005
  697MOL0     C94010   4.752  -0.315   3.861  0.2694  0.2908  0.8177
  697MOL0     N94011   5.523  -0.212   4.194  0.5180  0.3257  0.0862
  697MOL0     N94012   5.505  -0.101   4.248 -0.7781  0.2487 -0.1775
  697MOL0     C94013   4.846   0.948   3.795 -0.3394  0.0494 -0.7043
  697MOL0     C94014   4.818   1.035   3.691 -0.1345  0.2574  0.7734
  697MOL0     C94015   4.770   1.199   3.279 -1.0967 -0.2154  0.4893
  697MOL0     C94016   4.635   1.211   3.250  1.2184 -0.2569  0.4678
  697MOL0     C94017   4.585   1.308   3.161  0.2852 -0.1067 -0.7069
  697MOL0     C94018   4.671   1.374   3.071 -0.4386 -0.2666  0.2095
  697MOL0     O94019   4.641   1.469   2.977 -0.1241  0.0238  0.0383
  697MOL0     C94020   4.509   1.531   2.989  0.2597 -0.8304 -0.2352
  697MOL0     C94021   4.511   1.672   2.946  0.0528 -0.0314 -1.1190
  697MOL0     C94022   4.570   1.688   2.809  0.1031 -0.2869  0.1581
  697MOL0     C94023   4.562   1.829   2.771  0.1642 -0.3200  0.3289
  697MOL0     C94024   4.428   1.869   2.738  0.0894  0.4620  0.5963
  697MOL0     C94025   4.310   1.913   2.725 -0.4096 -0.0779 -0.3518
  697MOL0     C94026   4.809   1.351   3.095 -0.0544 -0.6096 -0.5695
  697MOL0     C94027   4.856   1.267   3.191 -0.3077  0.0144 -0.4646
  697MOL0     H94028   4.700   0.820   3.477  0.5121  2.3078 -1.7727
  697MOL0     H94029   4.724   0.664   3.656 -1.0155  0.1861 -1.2463
  697MOL0     H94030   4.966   0.812   4.031  0.7414  0.0092  0.1439
  697MOL0     H94031   4.777   0.816   4.038 -0.6144  0.3178 -2.1490
  697MOL0     H94032   4.829   0.645   4.195  0.3978 -1.6909  0.3782
  697MOL0     H94033   4.794   0.566   4.051  0.4797 -0.7245 -0.0736
  697MOL0     H94034   5.045   0.530   4.004  3.9283  0.6681  0.3375
  697MOL0     H94035   5.083   0.622   4.146 -1.4988  0.3080  0.8892
  697MOL0     H94036   4.988   0.453   4.289  1.5736  1.9001 -1.7916
  697MOL0     H94037   4.903   0.372   4.158 -0.0076  0.5053 -0.5769
  697MOL0     H94038   5.127   0.312   4.052 -0.3375 -3.5280  0.6069
  697MOL0     H94039   5.216   0.403   4.177 -0.2475 -0.3348  0.5063
  697MOL0     H94040   5.166   0.265   4.352  0.1732  0.9182 -0.3537
  697MOL0     H94041   5.033   0.181   4.258  1.5874 -3.5331 -3.3586
  697MOL0     H94042   5.176   0.049   4.140  0.3513  1.1131 -0.6629
  697MOL0     H94043   5.300   0.174   4.142  0.4221  0.2746  0.0282
  697MOL0     H94044   5.261   0.019   4.407  1.1734  0.7542  0.7326
  697MOL0     H94045   5.398   0.105   4.341 -0.6899  0.0296 -0.4123
  697MOL0     H94046   5.185  -0.189   4.233 -0.6370  1.2136 -0.8178
  697MOL0     H94047   5.448  -0.412   4.034 -0.7713  1.7503 -2.4225
  697MOL0     H94048   5.355  -0.481   4.157  0.8053  1.1996  1.9000
  697MOL0     H94049   5.267  -0.413   3.888 -1.3792 -0.9107  0.4572
  697MOL0     H94050   5.206  -0.280   3.987 -0.8043  0.0389 -1.7276
  697MOL0     H94051   5.126  -0.477   4.144  0.2648  2.7598 -0.4774
  697MOL0     H94052   5.119  -0.571   3.999  0.0125  1.3923 -4.1116
  697MOL0     H94053   4.968  -0.319   4.047 -2.5160 -0.8467  1.9776
  697MOL0     H94054   4.915  -0.486   4.026  0.9515 -0.8550 -1.2927
  697MOL0     H94055   4.932  -0.432   3.597  1.8247  1.5433  0.7388
  697MOL0     H94056   4.685  -0.503   3.429 -0.0088  0.3470  0.4095
  697MOL0     H94057   4.675  -0.325   3.397  1.1319  0.1166 -1.7009
  697MOL0     H94058   4.825  -0.402   3.395  0.4526  0.5245  1.0015
  697MOL0     H94059   4.336  -0.190   3.407  0.7094  2.3881  0.7316
  697MOL0     H94060   4.129  -0.140   3.328 -0.1388 -0.5464  0.1622
  697MOL0     H94061   3.964   0.002   3.289 -1.9189  3.8146 -2.5155
  697MOL0     H94062   3.827  -0.109   3.287  0.5007 -0.4206  1.1208
  697MOL0     H94063   3.745   0.115   3.241 -2.1885 -1.5550  0.1416
  697MOL0     H94064   3.701   0.079   3.406 -1.4119  1.3948 -0.3787
  697MOL0     H94065   3.930   0.261   3.313  0.8173  0.5446  0.5001
  697MOL0     H94066   3.892   0.223   3.477 -0.2904  0.0374 -0.5773
  697MOL0     H94067   3.709   0.383   3.314 -0.4935 -1.2366  2.0272
  697MOL0     H94068   3.695   0.333   3.485 -3.1590 -1.3344 -1.9223
  697MOL0     H94069   3.910   0.524   3.380  1.8098  0.8777  1.3182
  697MOL0     H94070   3.906   0.457   3.539  1.1639  0.7064 -0.5980
  697MOL0     H94071   3.698   0.628   3.398  1.8096 -2.3751 -2.3444
  697MOL0     H94072   3.665   0.583   3.562  1.0205  0.3945  2.6478
  697MOL0     H94073   3.900   0.739   3.466  1.3820 -0.1969  1.2046
  697MOL0     H94074   3.885   0.676   3.632 -0.4896  1.3824  0.4422
  697MOL0     H94075   3.799   0.903   3.635  0.7674  0.9296 -2.0301
  697MOL0     H94076   3.660   0.799   3.651  0.2987  2.2353  0.6276
  697MOL0     H94077   3.977  -0.075   3.725 -0.6134  0.4117 -1.3498
  697MOL0     H94078   4.212  -0.115   3.805  0.2277 -1.7768 -0.5496
  697MOL0     H94079   4.580  -0.195   3.844  2.0651  1.6407  0.0232
  697MOL0     H94080   4.766  -0.294   3.967  0.6626  0.0913  0.8085
  697MOL0     H94081   4.899   0.990   3.880 -1.9435  3.3006 -1.2016
  697MOL0     H94082   4.835   1.143   3.689 -3.3435  0.8349  0.2678
  697MOL0     H94083   4.569   1.142   3.302 -0.7195  0.4717 -0.9370
  697MOL0     H94084   4.479   1.316   3.140 -0.4819 -3.7709  0.8437
  697MOL0     H94085   4.439   1.464   2.937 -0.7716 -0.4960  0.7093
  697MOL0     H94086   4.477   1.531   3.093  5.6818  0.7467  1.7885
  697MOL0     H94087   4.566   1.724   3.025 -2.4943  1.8422 -0.4774
  697MOL0     H94088   4.410   1.710   2.961  0.2648  0.5951 -1.2358
  697MOL0     H94089   4.517   1.624   2.738 -1.2827 -0.7857  1.5843
  697MOL0     H94090   4.676   1.660   2.810  0.7020  1.8716  0.4746
  697MOL0     H94091   4.624   1.847   2.682  1.0785 -2.7771  0.4028
  697MOL0     H94092   4.602   1.892   2.851  0.8828 -1.1476  0.6328
  697MOL0     H94093   4.217   1.953   2.690 -0.4502 -2.0666 -2.7596
  697MOL0     H94094   4.886   1.409   3.044 -1.7842  3.8341  1.3802
  697MOL0     H94095   4.962   1.254   3.207 -0.1554 -0.6122 -1.8514
  698MOL0     O94096   6.225  10.818   5.990 -0.2045 -0.2918  0.0598
  698MOL0     C94097   6.159  10.739   6.054  0.5536 -0.4197 -0.2964
  698MOL0     O94098   6.129  10.608   6.023 -0.1115 -0.2348  0.3953
  698MOL0     C94099   6.193  10.572   5.904 -0.4561  0.7184 -0.5470
  698MOL0     C94100   6.312  10.500   5.905 -0.4491 -0.1473 -0.4334
  698MOL0     C94101   6.375  10.471   5.780 -0.7241 -0.7571 -0.7183
  698MOL0     C94102   6.339  10.533   5.663  1.0613 -0.1551 -0.3155
  698MOL0     O94103   6.412  10.492   5.554  0.0780  0.0366 -0.7403
  698MOL0     C94104   6.351  10.519   5.425  0.1874 -0.3604 -0.7323
  698MOL0     C94105   6.425  10.441   5.313  0.1418  0.0603  0.4433
  698MOL0     C94106   6.340  10.436   5.192  0.0262  0.0368 -0.1666
  698MOL0     C94107   6.413  10.361   5.079 -0.0751 -1.3534 -0.1524
  698MOL0     C94108   6.334  10.375   4.957  0.2527 -1.1088 -0.5106
  698MOL0     C94109   6.395  10.307   4.839  0.9533 -0.3090 -0.8844
  698MOL0     C94110   6.323  10.301   4.709 -0.2583 -0.1690 -1.0024
  698MOL0     C94111   6.207  10.202   4.709 -0.2721 -0.0197 -0.2186
  698MOL0     N94112   6.148  10.172   4.576 -0.1299 -0.2463  0.6105
  698MOL0     C94113   6.171  10.240   4.460  0.2492 -0.5329 -0.2561
  698MOL0     C94114   6.114  10.174   4.361  0.8311 -0.2392 -0.6338
  698MOL0     C94115   6.106  10.218   4.218 -0.0944  0.5199 -0.3106
  698MOL0     C94116   6.022  10.350   4.225 -0.6463  0.2544 -0.8072
  698MOL0     C94117   5.951  10.375   4.083 -1.2821 -0.5433  0.0366
  698MOL0     C94118   5.904  10.514   4.066  0.2985 -0.1105 -0.7958
  698MOL0     O94119   6.021  10.594   4.045  0.0826 -0.1109 -0.3807
  698MOL0     C94120   6.007  10.715   4.103 -0.0635 -0.2609 -0.1192
  698MOL0     C94121   6.121  10.773   4.165  0.0963  0.1486 -0.2866
  698MOL0     C94122   6.119  10.906   4.216  0.7478  0.3589  0.1026
  698MOL0     C94123   6.233  10.946   4.298 -1.1152 -0.2174 -0.4500
  698MOL0     C94124   6.020  10.998   4.162  0.6344  0.3952  0.1856
  698MOL0     C94125   6.012  11.145   4.171 -0.9782 -0.2221  0.5692
  698MOL0     O94126   5.930  11.210   4.083  0.2767 -0.3607 -0.1294
  698MOL0     C94127   5.919  11.347   4.096 -0.8238  0.6824 -0.2941
  698MOL0     C94128   5.825  11.398   4.177  1.4319  0.4783 -1.1649
  698MOL0     C94129   5.808  11.542   4.188 -0.0850 -0.4058 -0.1054
  698MOL0     C94130   5.885  11.627   4.113 -0.6974  0.7857 -0.4705
  698MOL0     O94131   5.850  11.765   4.129  0.3906  0.2409  0.1668
  698MOL0     C94132   5.935  11.857   4.055  0.0411  0.1536 -0.4000
  698MOL0     C94133   5.867  11.993   4.056  0.4220  0.2486 -0.7308
  698MOL0     C94134   5.973  12.105   4.067  0.2217  0.1812 -0.4716
  698MOL0     C94135   6.048  12.128   3.945 -0.6796 -0.5037  0.6063
  698MOL0     C94136   6.148  12.245   3.948 -0.0360 -0.2351  0.7109
  698MOL0     C94137   6.088  12.377   3.952  0.0523 -0.1775  0.8712
  698MOL0     C94138   6.019  12.414   3.817  0.4737  0.5241  0.1564
  698MOL0     C94139   5.975  12.555   3.820 -0.3179  0.6020 -0.1971
  698MOL0    Cl94140   6.108  12.666   3.850  0.1584 -0.1906  0.3613
  698MOL0     C94141   5.981  11.574   4.021  0.9583  0.6511 -0.1848
  698MOL0     C94142   5.992  11.432   4.013 -0.7435 -0.5336  0.2220
  698MOL0     O94143   6.081  11.204   4.256 -0.0132  0.1746  0.0800
  698MOL0     C94144   5.899  10.930   4.108  1.1363  0.4838  0.8713
  698MOL0     C94145   5.898  10.796   4.074  1.4116 -0.3297 -0.5920
  698MOL0     N94146   6.060  10.057   4.416 -0.6816  0.2276  0.0969
  698MOL0     N94147   6.073  10.051   4.545 -0.9662 -0.6133  0.1662
  698MOL0     C94148   6.224  10.614   5.659  0.3527 -0.3229  0.6390
  698MOL0     C94149   6.147  10.631   5.777 -0.0274 -0.3128  0.2597
  698MOL0     C94150   6.093  10.799   6.169  0.4523 -0.1327  0.3277
  698MOL0     C94151   6.006  10.723   6.253 -0.2188  0.3938  0.1496
  698MOL0     C94152   5.948  10.783   6.366 -0.6905 -0.2370 -0.3096
  698MOL0     C94153   5.950  10.919   6.391 -0.6678 -1.1267  0.4956
  698MOL0     O94154   5.880  10.974   6.492  0.2886  0.1545 -0.1892
  698MOL0     C94155   5.748  11.025   6.457 -0.1734  0.2084  0.5157
  698MOL0     C94156   5.731  11.185   6.442 -0.0873  0.7523 -0.2885
  698MOL0     C94157   5.589  11.221   6.401 -0.2954  0.0477  0.2919
  698MOL0     C94158   5.483  11.223   6.512  0.2366  0.7834 -0.5707
  698MOL0     C94159   5.504  11.353   6.583 -0.7443  0.3508 -0.5981
  698MOL0     C94160   5.494  11.475   6.603 -0.4604 -0.3841  0.2104
  698MOL0     C94161   6.027  10.997   6.303  0.7761 -0.2853  0.6928
  698MOL0     C94162   6.098  10.937   6.195  0.1391  0.0233 -0.5085
  698MOL0     H94163   6.351  10.447   5.992 -3.5422 -2.4066 -0.2484
  698MOL0     H94164   6.460  10.406   5.765 -1.4472 -2.3443  1.5537
  698MOL0     H94165   6.246  10.487   5.416 -0.4474  1.7408 -1.4452
  698MOL0     H94166   6.362  10.625   5.400 -1.1868  0.0104  0.1660
  698MOL0     H94167   6.517  10.495   5.290 -1.0206  1.9684  0.0260
  698MOL0     H94168   6.446  10.336   5.334 -4.0381 -1.4028 -1.5647
  698MOL0     H94169   6.248  10.391   5.231  1.0548  0.1418  2.6357
  698MOL0     H94170   6.313  10.534   5.152  0.4538  0.1186 -0.2581
  698MOL0     H94171   6.514  10.402   5.069 -1.6217  3.0755  0.0732
  698MOL0     H94172   6.421  10.258   5.115  0.6328 -0.9608  0.8617
  698MOL0     H94173   6.236  10.330   4.977  0.5304 -1.1894  0.7534
  698MOL0     H94174   6.322  10.480   4.931  1.1837 -1.0216 -0.6035
  698MOL0     H94175   6.497  10.345   4.832  0.4704  1.0324 -0.8192
  698MOL0     H94176   6.412  10.208   4.884  0.7504 -0.5828 -1.4031
  698MOL0     H94177   6.288  10.404   4.697  1.1975  0.1685 -3.1920
  698MOL0     H94178   6.391  10.283   4.625  1.4690  1.0258  0.0587
  698MOL0     H94179   6.130  10.238   4.778  1.3114  3.2673  0.0427
  698MOL0     H94180   6.241  10.105   4.746 -0.7986  0.2837  1.1213
  698MOL0     H94181   6.230  10.329   4.442 -1.1632  0.0753 -2.3544
  698MOL0     H94182   6.205  10.238   4.178  0.8876  0.0682  1.7486
  698MOL0     H94183   6.062  10.137   4.159  0.8062  0.7645 -1.3269
  698MOL0     H94184   6.099  10.425   4.247 -2.4143  2.1327 -0.6854
  698MOL0     H94185   5.944  10.352   4.301  0.7996 -0.1132  0.7368
  698MOL0     H94186   5.865  10.308   4.070 -0.2413 -1.7603 -0.8039
  698MOL0     H94187   6.018  10.355   4.000 -1.1778 -2.0117  0.4382
  698MOL0     H94188   5.843  10.535   4.155 -1.6274 -3.1571 -1.2964
  698MOL0     H94189   5.844  10.513   3.975  1.5699 -1.6350 -1.6509
  698MOL0     H94190   6.199  10.707   4.201  0.4478  2.0603  2.8789
  698MOL0     H94191   6.295  11.017   4.241 -1.9503  1.5911  0.8117
  698MOL0     H94192   6.195  11.012   4.376  0.0036  0.1594 -0.2039
  698MOL0     H94193   6.290  10.863   4.341 -1.3810  0.3354  1.0251
  698MOL0     H94194   5.755  11.331   4.224  0.6462  0.7536 -1.9138
  698MOL0     H94195   5.744  11.587   4.264  0.4527  0.2647 -0.0313
  698MOL0     H94196   6.034  11.858   4.103  0.9704  0.5718 -2.2108
  698MOL0     H94197   5.950  11.826   3.951  1.8577 -1.5107  0.2854
  698MOL0     H94198   5.813  12.001   3.962 -0.1003 -3.0820 -0.8220
  698MOL0     H94199   5.791  12.000   4.134 -1.6850  0.9787 -2.7235
  698MOL0     H94200   6.047  12.073   4.141 -1.3442 -1.2595  0.5644
  698MOL0     H94201   5.938  12.202   4.104  0.5248  0.5840 -1.2227
  698MOL0     H94202   6.109  12.041   3.918  0.6865  0.3684  0.8094
  698MOL0     H94203   5.978  12.154   3.865 -0.9329 -0.2409  0.9105
  698MOL0     H94204   6.219  12.252   3.865 -0.4498  0.1737  0.3854
  698MOL0     H94205   6.195  12.236   4.046 -2.3825  2.9846  2.3275
  698MOL0     H94206   6.021  12.392   4.037  0.3074  1.2487  0.8489
  698MOL0     H94207   6.172  12.447   3.961  0.7437 -0.9508  0.4959
  698MOL0     H94208   5.927  12.358   3.803  1.1422  0.2591 -4.6541
  698MOL0     H94209   6.076  12.401   3.725 -0.8215  0.9118 -0.7235
  698MOL0     H94210   5.889  12.575   3.885  0.3176  0.1083  0.8281
  698MOL0     H94211   5.938  12.574   3.719 -2.6863  0.2867  0.5444
  698MOL0     H94212   6.035  11.640   3.954  2.1864  1.3393  1.4132
  698MOL0     H94213   6.060  11.383   3.944  0.5764 -0.7415  1.5914
  698MOL0     H94214   5.810  10.989   4.092 -1.1725 -2.1137  3.0979
  698MOL0     H94215   5.807  10.755   4.030  0.6593  0.1705  0.4548
  698MOL0     H94216   6.183  10.673   5.577  0.1653  0.4460  1.2655
  698MOL0     H94217   6.066  10.702   5.787 -0.6039 -0.9224  0.0381
  698MOL0     H94218   5.999  10.617   6.231  3.0685  0.5582 -2.5411
  698MOL0     H94219   5.886  10.721   6.430 -0.2514  0.3975  0.7521
  698MOL0     H94220   5.718  10.999   6.355  3.0803 -0.8857 -0.2819
  698MOL0     H94221   5.683  10.987   6.536  1.5672 -0.2914  1.7736
  698MOL0     H94222   5.795  11.195   6.355 -2.3117  2.6777 -1.8115
  698MOL0     H94223   5.771  11.240   6.527 -1.4195  1.4515 -0.0876
  698MOL0     H94224   5.570  11.157   6.314 -2.1187  1.1775 -0.2056
  698MOL0     H94225   5.596  11.323   6.361  0.1676 -0.0501  0.1225
  698MOL0     H94226   5.459  11.138   6.577 -2.6882  0.5481 -1.7607
  698MOL0     H94227   5.384  11.237   6.467 -0.8111  0.1884  1.4174
  698MOL0     H94228   5.479  11.581   6.603  0.0008 -0.3008 -1.4867
  698MOL0     H94229   6.024  11.105   6.308 -3.0782  0.0336 -3.0858
  698MOL0     H94230   6.155  11.006   6.135  1.5580  1.2370  2.0645
  699MOL0     O94231   8.671   2.668   3.893  0.8910 -0.0818 -0.3411
  699MOL0     C94232   8.621   2.609   3.791 -0.8727  0.5750 -0.7858
  699MOL0     O94233   8.685   2.532   3.706 -0.2157 -0.1137 -0.4766
  699MOL0     C94234   8.822   2.516   3.698  0.4293  0.2890 -0.1469
  699MOL0     C94235   8.915   2.495   3.805  0.3898 -0.0932  0.5490
  699MOL0     C94236   9.055   2.482   3.784  0.3314  0.5765  0.3111
  699MOL0     C94237   9.103   2.474   3.659 -0.3990  0.3638  0.3096
  699MOL0     O94238   9.232   2.438   3.649  0.5606 -0.0769  0.6258
  699MOL0     C94239   9.263   2.365   3.536 -0.4294  0.6319  0.5504
  699MOL0     C94240   9.408   2.330   3.537 -0.3371  0.8715  0.1533
  699MOL0     C94241   9.469   2.264   3.664  0.8472  0.5622  0.0624
  699MOL0     C94242   9.382   2.161   3.723  0.6210  0.3992  0.3198
  699MOL0     C94243   9.440   2.040   3.803  0.2040 -0.3059  0.3139
  699MOL0     C94244   9.561   1.967   3.740 -0.4900 -0.6953 -0.4059
  699MOL0     C94245   9.588   1.832   3.814  0.6786  0.2836 -0.3990
  699MOL0     C94246   9.724   1.780   3.783 -0.1449 -0.7499  0.0644
  699MOL0     N94247   9.748   1.653   3.843 -0.0705  0.2858 -0.0619
  699MOL0     C94248   9.784   1.645   3.982  0.6125  0.0668 -0.0794
  699MOL0     C94249   9.767   1.512   4.015  0.0009  0.8615  0.5174
  699MOL0     C94250   9.789   1.443   4.144 -0.5619  0.9272  0.4085
  699MOL0     C94251   9.833   1.521   4.258 -0.8472 -1.0055 -0.2055
  699MOL0     C94252   9.872   1.435   4.385  0.5262  0.3675  0.6418
  699MOL0     C94253   9.753   1.365   4.450  0.4514 -0.7249  0.1210
  699MOL0     O94254   9.804   1.308   4.567  0.5327 -1.2619 -0.5214
  699MOL0     C94255   9.723   1.256   4.661 -0.3136 -0.6625  0.2245
  699MOL0     C94256   9.582   1.297   4.678 -0.3282  0.0157  0.8247
  699MOL0     C94257   9.503   1.270   4.793  0.6146  0.5748  0.3673
  699MOL0     C94258   9.368   1.322   4.800  0.6292  0.9197  0.3829
  699MOL0     C94259   9.567   1.179   4.887 -0.2403 -0.5962 -0.2947
  699MOL0     C94260   9.488   1.124   4.995 -0.7248  0.3100 -0.1990
  699MOL0     O94261   9.541   1.154   5.117 -0.4699 -0.1609  0.3397
  699MOL0     C94262   9.493   1.086   5.225 -0.3188 -0.0814  0.2865
  699MOL0     C94263   9.579   0.991   5.280  0.7798  0.1035  0.0451
  699MOL0     C94264   9.545   0.933   5.402 -0.7042  0.0307  0.2370
  699MOL0     C94265   9.424   0.953   5.466  0.3470  0.1334 -0.7729
  699MOL0     O94266   9.395   0.886   5.582  0.0245 -0.4382 -0.5727
  699MOL0     C94267   9.281   0.919   5.658 -0.2840  0.9859  0.1017
  699MOL0     C94268   9.300   0.840   5.793 -0.5580 -0.8826  0.6900
  699MOL0     C94269   9.171   0.843   5.868  0.3911  0.8653 -0.2385
  699MOL0     C94270   9.069   0.740   5.815 -1.0998  0.2166 -0.6845
  699MOL0     C94271   8.932   0.772   5.871  0.4551  0.0369 -0.5947
  699MOL0     C94272   8.814   0.713   5.795 -0.1756 -0.3326 -0.3410
  699MOL0     C94273   8.832   0.560   5.803  0.1205  0.6375 -0.0852
  699MOL0     C94274   8.706   0.475   5.770  0.5723 -0.2688  0.2287
  699MOL0    Cl94275   8.640   0.520   5.607  0.0194 -0.0897  0.0560
  699MOL0     C94276   9.335   1.047   5.407 -0.8498  0.5157  1.4217
  699MOL0     C94277   9.371   1.103   5.277  0.4183 -0.4647 -0.3409
  699MOL0     O94278   9.379   1.070   4.974 -0.1686  0.2831  0.1576
  699MOL0     C94279   9.690   1.120   4.863  0.6846  0.1202 -0.2367
  699MOL0     C94280   9.772   1.172   4.759  0.2287 -0.1838  0.4041
  699MOL0     N94281   9.727   1.435   3.903 -0.0985 -0.1712 -0.9697
  699MOL0     N94282   9.703   1.528   3.805  0.1183 -1.4846 -0.6729
  699MOL0     C94283   9.020   2.502   3.553  0.4773  0.1379  0.0319
  699MOL0     C94284   8.879   2.520   3.569  0.5134  1.0874  0.4857
  699MOL0     C94285   8.471   2.605   3.777 -0.1396 -0.2462 -0.3104
  699MOL0     C94286   8.412   2.555   3.659 -0.7658 -0.0484 -0.2773
  699MOL0     C94287   8.274   2.560   3.651 -0.8053  0.5450  0.3966
  699MOL0     C94288   8.199   2.612   3.752  0.7281 -0.1629 -0.9374
  699MOL0     O94289   8.061   2.610   3.766 -0.8345  1.3742  0.9499
  699MOL0     C94290   7.979   2.531   3.676 -0.3568  0.2923  0.3488
  699MOL0     C94291   7.882   2.447   3.766 -0.2821  0.3062 -0.1471
  699MOL0     C94292   7.815   2.337   3.680  0.2763 -0.3124 -1.0691
  699MOL0     C94293   7.705   2.263   3.764  0.0749  0.6584  0.5663
  699MOL0     C94294   7.632   2.176   3.673 -0.4286  0.6768  0.5668
  699MOL0     C94295   7.572   2.091   3.607 -0.2278 -1.0231 -0.7088
  699MOL0     C94296   8.262   2.669   3.864  0.2164 -0.1586  0.2716
  699MOL0     C94297   8.400   2.663   3.875 -0.1974 -0.7335 -1.1592
  699MOL0     H94298   8.887   2.500   3.910 -0.6994 -1.0804  0.3312
  699MOL0     H94299   9.115   2.463   3.873  2.2909  2.2640 -0.5899
  699MOL0     H94300   9.215   2.266   3.531  2.3528 -0.8135  0.4540
  699MOL0     H94301   9.248   2.422   3.444  1.5403  1.9965  1.0240
  699MOL0     H94302   9.428   2.257   3.458  1.4709 -2.4067  3.3666
  699MOL0     H94303   9.469   2.418   3.514  2.1597  0.2678  3.6568
  699MOL0     H94304   9.566   2.225   3.633 -0.4947 -3.8607  0.7746
  699MOL0     H94305   9.494   2.335   3.743 -0.8035 -1.0856  2.2035
  699MOL0     H94306   9.310   2.215   3.785 -0.4543  0.1904 -0.7075
  699MOL0     H94307   9.323   2.119   3.641  3.0107  1.3408 -2.0312
  699MOL0     H94308   9.472   2.086   3.897  2.9051 -3.4340  1.1197
  699MOL0     H94309   9.358   1.968   3.809  1.1585 -1.4237  0.3195
  699MOL0     H94310   9.529   1.948   3.637 -3.1589 -0.5203  0.3123
  699MOL0     H94311   9.646   2.034   3.755 -1.1751 -0.2550  1.8934
  699MOL0     H94312   9.578   1.824   3.922 -1.5451  0.8569 -0.4923
  699MOL0     H94313   9.523   1.751   3.779 -0.1593  0.2656  1.1384
  699MOL0     H94314   9.808   1.842   3.817 -0.6106  1.3247 -2.3023
  699MOL0     H94315   9.724   1.767   3.674  1.5324 -0.2204 -0.0348
  699MOL0     H94316   9.820   1.724   4.046 -0.3260 -0.0720  0.6296
  699MOL0     H94317   9.702   1.384   4.173  0.8103 -1.8609 -0.7348
  699MOL0     H94318   9.876   1.380   4.122 -1.4069  0.4845 -2.0343
  699MOL0     H94319   9.761   1.601   4.273  1.5465  1.3686 -0.6703
  699MOL0     H94320   9.918   1.581   4.226 -3.0320  3.0070  0.9015
  699MOL0     H94321   9.924   1.493   4.463  1.3969  0.4798 -0.0108
  699MOL0     H94322   9.932   1.352   4.347 -0.7975  1.3446 -4.1608
  699MOL0     H94323   9.704   1.291   4.387 -0.3399  1.5977 -2.1688
  699MOL0     H94324   9.677   1.444   4.457  0.1666 -1.0267  0.4374
  699MOL0     H94325   9.546   1.378   4.615  0.0104 -0.2498  0.2882
  699MOL0     H94326   9.330   1.323   4.902  0.5090 -1.5027  0.4091
  699MOL0     H94327   9.371   1.423   4.757  0.4630 -0.2196 -2.5110
  699MOL0     H94328   9.292   1.266   4.744 -0.0837  4.9483 -3.2946
  699MOL0     H94329   9.677   0.984   5.234  0.0630 -1.0981 -1.3657
  699MOL0     H94330   9.618   0.885   5.466 -2.6298 -0.6000  2.0759
  699MOL0     H94331   9.272   1.028   5.671  1.7136  1.5470 -2.2405
  699MOL0     H94332   9.196   0.884   5.600  1.8972 -1.3451 -1.9497
  699MOL0     H94333   9.332   0.736   5.776  1.9811  0.1209 -1.4589
  699MOL0     H94334   9.382   0.887   5.848  1.6360 -4.2403  0.5859
  699MOL0     H94335   9.127   0.942   5.858 -1.0962  0.4236  1.4148
  699MOL0     H94336   9.182   0.827   5.976  1.1171 -2.0592 -0.6621
  699MOL0     H94337   9.059   0.746   5.706 -1.9825  0.3632 -0.5991
  699MOL0     H94338   9.096   0.639   5.848  2.9521  1.2149 -0.4239
  699MOL0     H94339   8.919   0.881   5.861  0.3275  0.1461  0.5751
  699MOL0     H94340   8.937   0.741   5.976 -2.1605  2.0174  0.2116
  699MOL0     H94341   8.717   0.737   5.840 -0.1659 -0.8999 -0.0118
  699MOL0     H94342   8.808   0.751   5.693 -2.1046 -2.8487 -1.2671
  699MOL0     H94343   8.868   0.525   5.900 -0.8773 -3.1202 -0.9010
  699MOL0     H94344   8.910   0.527   5.734  0.1205 -2.6699  1.3185
  699MOL0     H94345   8.632   0.484   5.850  0.9554  2.4087  0.3498
  699MOL0     H94346   8.722   0.367   5.778 -2.1190 -1.0296 -2.8184
  699MOL0     H94347   9.237   1.061   5.450 -1.3668  3.2114 -0.3591
  699MOL0     H94348   9.294   1.166   5.233 -0.2808 -2.4545 -2.1496
  699MOL0     H94349   9.734   1.063   4.945  2.3604  0.4586 -0.8623
  699MOL0     H94350   9.877   1.143   4.755 -0.3966 -2.4250 -1.9634
  699MOL0     H94351   9.054   2.485   3.452 -0.2305 -0.3717 -0.1265
  699MOL0     H94352   8.822   2.545   3.481 -1.4724 -2.9369  0.4217
  699MOL0     H94353   8.467   2.507   3.579  0.0641 -2.6490  1.7043
  699MOL0     H94354   8.236   2.532   3.554 -0.9505  2.4162 -0.1294
  699MOL0     H94355   7.920   2.594   3.610  2.4054 -1.4963 -4.3453
  699MOL0     H94356   8.043   2.468   3.614  0.3711 -0.3896  1.7382
  699MOL0     H94357   7.812   2.515   3.814  2.8641  1.6644  3.0238
  699MOL0     H94358   7.935   2.396   3.847  0.0717  0.1945 -0.4444
  699MOL0     H94359   7.898   2.270   3.655  1.3755  0.0942  1.1487
  699MOL0     H94360   7.769   2.390   3.596 -0.7098 -0.1275 -0.4280
  699MOL0     H94361   7.636   2.333   3.812  2.3317  2.6612  1.0812
  699MOL0     H94362   7.748   2.200   3.843 -2.2167 -3.2075 -0.9727
  699MOL0     H94363   7.537   2.010   3.546  2.2505 -1.0075 -2.3105
  699MOL0     H94364   8.195   2.703   3.942 -2.0001 -0.9645 -1.1577
  699MOL0     H94365   8.447   2.700   3.965 -2.0739  1.8463 -1.1438
  700MOL0     O94366  10.342   1.685   7.761  0.2636  0.4474  0.4660
  700MOL0     C94367  10.276   1.762   7.687 -0.1059 -0.5643 -0.3744
  700MOL0     O94368  10.323   1.890   7.653 -0.3830  0.1025 -0.4131
  700MOL0     C94369  10.456   1.928   7.655  0.1290 -0.2449 -0.0838
  700MOL0     C94370  10.512   1.996   7.770  1.5473 -0.0190  0.0202
  700MOL0     C94371  10.648   2.012   7.785  0.0478 -0.2739  0.3818
  700MOL0     C94372  10.739   1.955   7.694 -0.0328 -0.6200  0.8831
  700MOL0     O94373  10.872   1.977   7.697 -0.3630 -0.4067  0.1692
  700MOL0     C94374  10.921   2.049   7.815  0.0677  0.0455 -0.7650
  700MOL0     C94375  11.060   2.090   7.786 -0.3622  0.1820  0.3255
  700MOL0     C94376  11.149   1.968   7.747  0.3338 -0.2272 -1.2057
  700MOL0     C94377  11.295   2.013   7.725 -0.4183  0.3265 -0.1391
  700MOL0     C94378  11.358   1.918   7.620 -0.8333  0.2605  0.3080
  700MOL0     C94379  11.497   1.950   7.576 -0.3673 -0.0389 -0.1368
  700MOL0     C94380  11.549   1.880   7.443  0.5824 -0.0725  0.4447
  700MOL0     C94381  11.696   1.852   7.442 -0.1727  0.1264  0.6296
  700MOL0     N94382  11.752   1.757   7.540 -0.3076  0.6915 -0.7970
  700MOL0     C94383  11.802   1.780   7.665  1.0540 -0.1230 -0.5402
  700MOL0     C94384  11.836   1.664   7.727  0.7922  0.1025 -0.1842
  700MOL0     C94385  11.914   1.674   7.854  0.4811  0.0124  0.3783
  700MOL0     C94386  11.844   1.671   7.982 -0.1575 -0.0784  0.2233
  700MOL0     C94387  11.928   1.705   8.103 -0.3133  0.5019  0.4334
  700MOL0     C94388  11.868   1.653   8.235  0.2044  0.1286  0.2823
  700MOL0     O94389  11.732   1.691   8.248  0.0314 -0.4087 -0.4907
  700MOL0     C94390  11.637   1.598   8.291  0.4519 -0.3355  0.8392
  700MOL0     C94391  11.631   1.463   8.254  0.0164  0.0080 -0.0883
  700MOL0     C94392  11.524   1.383   8.296  0.5047 -1.0423  0.2706
  700MOL0     C94393  11.517   1.233   8.242 -0.7547  0.7124 -0.0438
  700MOL0     C94394  11.420   1.437   8.384 -0.7859  1.0308  0.5400
  700MOL0     C94395  11.310   1.351   8.439  0.2175 -0.1523 -0.9424
  700MOL0     O94396  11.199   1.423   8.488 -0.5410  0.2710  0.9551
  700MOL0     C94397  11.143   1.366   8.596  0.1624 -1.3016  0.6450
  700MOL0     C94398  11.211   1.316   8.705 -1.0090 -0.2046 -0.1858
  700MOL0     C94399  11.140   1.276   8.820 -1.2275 -0.0500  0.3835
  700MOL0     C94400  11.012   1.312   8.836 -0.3644  0.8419  0.3857
  700MOL0     O94401  10.957   1.274   8.954 -0.2205 -0.0125 -1.3426
  700MOL0     C94402  10.808   1.262   8.959 -0.6312  0.3206 -0.1142
  700MOL0     C94403  10.758   1.186   9.094  0.5572  0.3010  0.9867
  700MOL0     C94404  10.786   1.035   9.063  0.7047 -0.1163 -0.2423
  700MOL0     C94405  10.667   0.953   9.016  0.0481  0.6022  0.0269
  700MOL0     C94406  10.612   0.871   9.138  0.0871 -0.0326 -0.0772
  700MOL0     C94407  10.498   0.786   9.093  0.0456  0.1555  0.5397
  700MOL0     C94408  10.399   0.747   9.200  0.2219 -0.2364 -0.0768
  700MOL0     C94409  10.307   0.642   9.144  0.3552 -0.6904 -0.2929
  700MOL0    Cl94410  10.169   0.629   9.255 -0.2903 -0.0177  0.2090
  700MOL0     C94411  10.938   1.373   8.727  0.3493 -0.5041  0.4367
  700MOL0     C94412  11.000   1.391   8.604  0.5354  0.1068  1.0430
  700MOL0     O94413  11.323   1.230   8.454 -0.1665 -0.1494  0.0731
  700MOL0     C94414  11.438   1.568   8.416  0.0990  0.0454  0.2488
  700MOL0     C94415  11.545   1.651   8.375  0.6247  0.3003  0.0438
  700MOL0     N94416  11.821   1.563   7.629  0.1582 -0.0971  1.0303
  700MOL0     N94417  11.769   1.619   7.522 -0.1701 -0.2703  0.1981
  700MOL0     C94418  10.685   1.899   7.573  0.7512 -0.2756  0.0992
  700MOL0     C94419  10.549   1.894   7.562 -0.0185  1.1713  0.4356
  700MOL0     C94420  10.126   1.757   7.669 -0.0528  0.1806 -0.1785
  700MOL0     C94421  10.046   1.862   7.633  0.2161 -1.0442  0.1725
  700MOL0     C94422   9.905   1.853   7.617 -0.0746 -0.2335  0.6428
  700MOL0     C94423   9.853   1.726   7.628 -0.0011 -0.4912 -0.1357
  700MOL0     O94424   9.721   1.693   7.610 -0.2530  0.6337 -0.1277
  700MOL0     C94425   9.617   1.785   7.608 -0.3121  0.1504 -0.5229
  700MOL0     C94426   9.601   1.857   7.743 -0.2621  0.8010 -1.3030
  700MOL0     C94427   9.561   1.777   7.867  0.0417  0.7924 -0.0213
  700MOL0     C94428   9.434   1.692   7.848  0.4557 -0.4101  0.3148
  700MOL0     C94429   9.326   1.787   7.819  0.0181 -0.0473  0.5117
  700MOL0     C94430   9.235   1.862   7.788  0.3896 -0.0520 -0.1175
  700MOL0     C94431   9.936   1.619   7.665  0.6063 -0.2071  0.0076
  700MOL0     C94432  10.071   1.632   7.681  0.7100  0.2242  0.0738
  700MOL0     H94433  10.449   2.034   7.850  0.2074 -1.6730 -0.2146
  700MOL0     H94434  10.678   2.054   7.881  4.0610 -0.5449 -0.5845
  700MOL0     H94435  10.857   2.138   7.825 -1.1725 -0.7761 -1.0683
  700MOL0     H94436  10.922   1.992   7.908 -1.5831 -0.7373 -1.1910
  700MOL0     H94437  11.072   2.164   7.707  3.4363 -1.0954 -0.4971
  700MOL0     H94438  11.100   2.136   7.877 -1.8673 -0.1618  1.2041
  700MOL0     H94439  11.136   1.897   7.829 -2.9201  1.5015 -0.0357
  700MOL0     H94440  11.098   1.914   7.667 -3.7338  0.4882  0.6535
  700MOL0     H94441  11.287   2.118   7.699 -3.4387  0.9204  2.6005
  700MOL0     H94442  11.374   2.006   7.801  2.4699  1.2535 -2.8389
  700MOL0     H94443  11.352   1.817   7.663 -0.8518  0.4221  0.6843
  700MOL0     H94444  11.290   1.927   7.535 -0.9698 -2.1021  0.0838
  700MOL0     H94445  11.508   2.055   7.551  0.1054 -0.0071  0.1989
  700MOL0     H94446  11.563   1.924   7.659  2.2256 -1.0436 -2.3694
  700MOL0     H94447  11.510   1.778   7.430  1.1797 -0.3688  0.9780
  700MOL0     H94448  11.518   1.934   7.353 -3.8902 -5.2880 -1.7761
  700MOL0     H94449  11.747   1.949   7.446 -0.2172  0.2156 -0.5272
  700MOL0     H94450  11.723   1.815   7.342  0.6789 -1.3932  1.4025
  700MOL0     H94451  11.814   1.879   7.708 -0.1165  0.4696 -1.4880
  700MOL0     H94452  11.989   1.595   7.857  0.4075 -0.0360  1.1571
  700MOL0     H94453  11.966   1.770   7.860  0.6673 -0.0490 -0.1872
  700MOL0     H94454  11.804   1.569   7.990 -2.4402  0.8738  2.3313
  700MOL0     H94455  11.750   1.728   7.974 -0.5783 -0.1274  3.5886
  700MOL0     H94456  11.951   1.812   8.107 -0.4065  0.5074  0.8569
  700MOL0     H94457  12.022   1.648   8.094 -0.3625 -0.6651  5.0039
  700MOL0     H94458  11.934   1.703   8.307  0.6731  1.1266 -0.8184
  700MOL0     H94459  11.884   1.546   8.252 -1.1735  0.1066  1.7955
  700MOL0     H94460  11.706   1.422   8.188 -0.1035 -1.0760  0.4248
  700MOL0     H94461  11.601   1.203   8.179 -1.1864 -2.7994  0.8285
  700MOL0     H94462  11.527   1.157   8.321 -1.4876 -0.5693 -1.1497
  700MOL0     H94463  11.422   1.218   8.191 -0.4325  0.5314 -0.5971
  700MOL0     H94464  11.317   1.292   8.705 -0.6369  1.2337 -2.1238
  700MOL0     H94465  11.186   1.248   8.914  0.1959  0.4650 -0.1371
  700MOL0     H94466  10.762   1.362   8.964 -2.0327 -0.2675 -0.6768
  700MOL0     H94467  10.766   1.209   8.873 -1.6663 -0.5334  0.8829
  700MOL0     H94468  10.817   1.216   9.181 -0.9577 -0.2438  2.2600
  700MOL0     H94469  10.652   1.207   9.111  0.0001 -1.9964  0.5740
  700MOL0     H94470  10.819   1.001   9.161  2.5625 -1.7974 -1.3975
  700MOL0     H94471  10.866   1.024   8.990 -0.4526  0.8624 -1.7325
  700MOL0     H94472  10.592   1.014   8.965  1.8115  4.5061  1.6808
  700MOL0     H94473  10.706   0.880   8.944 -1.0021  1.5685 -1.5820
  700MOL0     H94474  10.570   0.939   9.213 -1.2600 -1.3610  0.4347
  700MOL0     H94475  10.682   0.800   9.183  1.2715 -0.7208 -2.8498
  700MOL0     H94476  10.436   0.835   9.017  2.2602 -2.0990 -3.0318
  700MOL0     H94477  10.527   0.695   9.040 -1.9975  0.1905 -0.7475
  700MOL0     H94478  10.345   0.838   9.226  2.2617  0.1785  3.3386
  700MOL0     H94479  10.457   0.704   9.283  2.0730 -0.3428 -1.3626
  700MOL0     H94480  10.359   0.548   9.121  0.1926 -1.0175  0.6505
  700MOL0     H94481  10.267   0.668   9.045 -1.9086 -2.1585  0.1726
  700MOL0     H94482  10.833   1.394   8.743  0.3874 -0.4575  0.6350
  700MOL0     H94483  10.948   1.441   8.523  2.8140 -1.2986 -1.4675
  700MOL0     H94484  11.364   1.619   8.476  0.8283  1.5477 -0.0730
  700MOL0     H94485  11.541   1.759   8.388 -2.2662  0.2041  0.5080
  700MOL0     H94486  10.742   1.850   7.495  0.3365 -1.4678  0.5301
  700MOL0     H94487  10.497   1.865   7.471  1.6820  3.6948 -1.4948
  700MOL0     H94488  10.087   1.962   7.627  1.2824 -1.3440  1.8390
  700MOL0     H94489   9.858   1.947   7.592 -0.6693 -0.6858  0.0473
  700MOL0     H94490   9.654   1.863   7.542  3.4559 -0.9995 -0.0058
  700MOL0     H94491   9.520   1.744   7.578 -0.2413 -0.6980  0.3535
  700MOL0     H94492   9.526   1.937   7.733  0.6817  1.8337 -0.3275
  700MOL0     H94493   9.695   1.908   7.764  0.7709 -1.2102 -0.7921
  700MOL0     H94494   9.565   1.858   7.940 -2.0552  1.2477 -0.3469
  700MOL0     H94495   9.648   1.715   7.891 -0.9781 -0.4769  0.5479
  700MOL0     H94496   9.416   1.648   7.947 -3.5564 -1.3869 -0.6988
  700MOL0     H94497   9.446   1.614   7.772 -0.8825 -0.6432  0.3272
  700MOL0     H94498   9.167   1.942   7.767  2.1150  1.4868 -0.1076
  700MOL0     H94499   9.889   1.522   7.675 -1.4605  0.9535  2.9489
  700MOL0     H94500  10.127   1.543   7.707 -0.2134 -0.5527 -0.5107
  701MOL0     O94501   9.078   6.752   0.047 -1.0397  0.0736 -0.8294
  701MOL0     C94502   9.041   6.728  -0.069  0.0612 -0.0539  1.1172
  701MOL0     O94503   9.112   6.754  -0.181 -0.5290  0.5315  0.0793
  701MOL0     C94504   9.226   6.823  -0.155  0.7952  0.0376 -0.3714
  701MOL0     C94505   9.225   6.954  -0.125  0.6167 -0.5012  0.0579
  701MOL0     C94506   9.342   7.034  -0.094  0.6409 -0.0576  0.5270
  701MOL0     C94507   9.470   6.991  -0.129 -0.1490  1.0397  0.3332
  701MOL0     O94508   9.580   7.070  -0.125  1.1409  1.0204 -0.5224
  701MOL0     C94509   9.584   7.184  -0.200  0.4243  0.0300  0.1052
  701MOL0     C94510   9.667   7.162  -0.318 -0.6134 -0.4490 -0.3662
  701MOL0     C94511   9.706   7.298  -0.383 -0.1668 -0.6730 -0.2111
  701MOL0     C94512   9.849   7.298  -0.434  0.5229  0.7550  0.0724
  701MOL0     C94513   9.878   7.438  -0.485 -0.2482 -0.2463  0.1451
  701MOL0     C94514   9.997   7.428  -0.585 -0.1001  0.6453  0.1007
  701MOL0     C94515  10.050   7.572  -0.646  0.2663 -0.5299 -0.2654
  701MOL0     C94516  10.053   7.678  -0.535 -0.0172  0.0775  0.4593
  701MOL0     N94517  10.093   7.808  -0.587 -0.2520 -0.1532 -0.7132
  701MOL0     C94518  10.058   7.919  -0.522  0.5344  0.7738  0.3466
  701MOL0     C94519  10.140   8.016  -0.565  0.5997  0.4028  0.0867
  701MOL0     C94520  10.131   8.153  -0.502 -0.2423  0.7602 -0.3323
  701MOL0     C94521  10.091   8.249  -0.610  0.3320 -0.7213 -0.0778
  701MOL0     C94522   9.944   8.233  -0.638  0.5988 -0.7838  0.2669
  701MOL0     C94523   9.882   8.288  -0.768 -0.3870 -0.1024 -0.0335
  701MOL0     O94524   9.944   8.416  -0.787 -0.0965  0.3431 -0.1904
  701MOL0     C94525   9.907   8.526  -0.722 -0.7136  0.0383 -0.4379
  701MOL0     C94526  10.002   8.629  -0.697 -0.1139 -0.5928  0.2120
  701MOL0     C94527   9.962   8.751  -0.634 -0.1600 -0.3502 -0.2016
  701MOL0     C94528  10.073   8.855  -0.633  0.3071  0.0097  0.3475
  701MOL0     C94529   9.839   8.767  -0.570 -0.2394  0.5151  0.1151
  701MOL0     C94530   9.812   8.878  -0.472  0.2114 -0.8029  0.1914
  701MOL0     O94531   9.696   8.882  -0.425  0.0655 -0.0793 -0.7431
  701MOL0     C94532   9.665   8.991  -0.345  0.6164  0.4569 -0.8564
  701MOL0     C94533   9.673   8.967  -0.204  0.3908 -0.3647 -0.4128
  701MOL0     C94534   9.651   9.078  -0.127  0.0595 -0.3164 -0.5348
  701MOL0     C94535   9.632   9.207  -0.177 -0.4719  1.2820  0.4606
  701MOL0     O94536   9.624   9.302  -0.082  0.1687 -0.3417 -0.3152
  701MOL0     C94537   9.714   9.408  -0.107  0.1000 -0.4023 -0.7429
  701MOL0     C94538   9.753   9.492   0.020  0.1564  0.6367  1.0369
  701MOL0     C94539   9.629   9.575   0.075 -0.9024  0.1288 -0.6308
  701MOL0     C94540   9.655   9.626   0.213  0.3160 -0.0601 -0.6794
  701MOL0     C94541   9.538   9.673   0.287  0.2329  1.1512  0.1644
  701MOL0     C94542   9.499   9.590   0.413  0.5883  0.4575 -0.1351
  701MOL0     C94543   9.389   9.664   0.500  0.0966  0.2073  0.0417
  701MOL0     C94544   9.377   9.583   0.627  0.3591 -0.5681  1.1260
  701MOL0    Cl94545   9.229   9.640   0.718  0.2594  0.1572  0.2621
  701MOL0     C94546   9.618   9.227  -0.316  0.6325  0.4037  0.7206
  701MOL0     C94547   9.633   9.121  -0.407 -0.5033  0.9580 -0.2510
  701MOL0     O94548   9.909   8.950  -0.443 -0.2084  0.0145  0.2503
  701MOL0     C94549   9.747   8.665  -0.596 -0.2240  0.4829  0.7640
  701MOL0     C94550   9.779   8.547  -0.676 -1.2808 -0.4321  0.4752
  701MOL0     N94551  10.216   7.966  -0.658 -0.0477  0.1668  0.9123
  701MOL0     N94552  10.195   7.835  -0.670  0.0415  0.1015 -0.6287
  701MOL0     C94553   9.470   6.854  -0.180  0.5202  0.2910 -0.8930
  701MOL0     C94554   9.352   6.773  -0.182  0.5000 -0.8229  0.5353
  701MOL0     C94555   8.919   6.654  -0.076  0.6144  0.0594 -0.6038
  701MOL0     C94556   8.899   6.556  -0.169 -0.4629 -0.1641  0.3146
  701MOL0     C94557   8.774   6.501  -0.178  0.7854 -1.0843 -0.5592
  701MOL0     C94558   8.670   6.519  -0.079  0.3278  0.4947 -1.1402
  701MOL0     O94559   8.555   6.439  -0.088 -0.0700 -0.4579 -0.9223
  701MOL0     C94560   8.462   6.433   0.024  0.8766  0.2907 -1.0598
  701MOL0     C94561   8.344   6.536  -0.000 -0.3916 -0.1050  0.3669
  701MOL0     C94562   8.217   6.467   0.046 -0.1125  0.9391 -0.0005
  701MOL0     C94563   8.106   6.568   0.069 -0.7810  0.9310 -0.4007
  701MOL0     C94564   7.975   6.505   0.080  0.8085  0.9759  0.6594
  701MOL0     C94565   7.858   6.457   0.083  0.1877 -0.9743 -0.1013
  701MOL0     C94566   8.699   6.611   0.020 -1.0323 -0.3306 -0.1103
  701MOL0     C94567   8.827   6.675   0.027  0.4209  0.0465  0.0615
  701MOL0     H94568   9.129   6.999  -0.101 -0.6381 -0.2962 -4.4442
  701MOL0     H94569   9.320   7.132  -0.052 -0.6108 -0.8207  1.7222
  701MOL0     H94570   9.488   7.219  -0.239 -0.3333 -0.2888  1.5983
  701MOL0     H94571   9.612   7.271  -0.138 -0.5256  0.9041 -0.6468
  701MOL0     H94572   9.756   7.107  -0.283 -1.2097 -1.2245 -0.0447
  701MOL0     H94573   9.599   7.107  -0.384  1.4986 -2.2773 -1.1595
  701MOL0     H94574   9.632   7.330  -0.456  2.1837  1.5080 -1.8236
  701MOL0     H94575   9.702   7.384  -0.315 -1.0798 -0.6299 -0.3098
  701MOL0     H94576   9.917   7.268  -0.354  0.6795  0.7512 -0.0586
  701MOL0     H94577   9.858   7.212  -0.501 -1.3619  2.7522 -3.0101
  701MOL0     H94578   9.793   7.480  -0.539  3.5844  4.3949 -3.1613
  701MOL0     H94579   9.910   7.497  -0.399  1.5007 -0.4435 -0.3280
  701MOL0     H94580  10.078   7.398  -0.518  1.6790  1.6756 -1.4931
  701MOL0     H94581   9.978   7.357  -0.666  2.0215 -2.3484  2.0049
  701MOL0     H94582  10.155   7.557  -0.674  0.1549 -0.3579 -0.7976
  701MOL0     H94583   9.984   7.602  -0.728 -3.1208  1.2669  2.8352
  701MOL0     H94584  10.130   7.640  -0.467 -0.7347 -5.3186 -1.3023
  701MOL0     H94585   9.955   7.687  -0.488 -1.2536 -1.1855 -1.7603
  701MOL0     H94586   9.980   7.920  -0.446 -0.3446 -0.5295 -0.5088
  701MOL0     H94587  10.060   8.147  -0.420 -3.3813 -0.4510 -2.9487
  701MOL0     H94588  10.236   8.168  -0.472  0.4775 -1.2248 -1.6169
  701MOL0     H94589  10.161   8.227  -0.691  1.5789  0.5056  0.6350
  701MOL0     H94590  10.118   8.351  -0.582 -2.1394 -0.5123  1.8878
  701MOL0     H94591   9.906   8.286  -0.550  1.3123 -1.8807  1.2590
  701MOL0     H94592   9.911   8.129  -0.624 -1.5846 -0.1469  0.2798
  701MOL0     H94593   9.774   8.290  -0.753 -0.6184 -1.1694 -1.3855
  701MOL0     H94594   9.920   8.219  -0.844  0.3569  0.3676 -0.1006
  701MOL0     H94595  10.103   8.603  -0.726 -0.1844 -2.0484  1.1851
  701MOL0     H94596  10.120   8.874  -0.537 -1.1748  5.0888  0.3589
  701MOL0     H94597  10.154   8.829  -0.703 -1.5016 -1.3064 -1.3765
  701MOL0     H94598  10.038   8.955  -0.660  1.3454  0.1034 -0.7831
  701MOL0     H94599   9.698   8.869  -0.165  1.0750  0.1435  0.4662
  701MOL0     H94600   9.646   9.050  -0.022 -1.6404  1.1772 -0.1690
  701MOL0     H94601   9.812   9.367  -0.129  0.6500 -1.1106  2.5280
  701MOL0     H94602   9.688   9.470  -0.193  1.8656  2.1161  0.4002
  701MOL0     H94603   9.791   9.413   0.086 -1.1452 -0.1686  0.8463
  701MOL0     H94604   9.837   9.557  -0.006  1.0946 -1.0425 -0.3863
  701MOL0     H94605   9.541   9.509   0.074  0.4491 -1.7838 -2.9393
  701MOL0     H94606   9.599   9.658   0.012 -2.3395 -1.0706 -1.5884
  701MOL0     H94607   9.710   9.543   0.258  2.2086  0.6882 -1.5093
  701MOL0     H94608   9.728   9.703   0.187 -0.3592 -0.5070 -4.5953
  701MOL0     H94609   9.448   9.670   0.224  1.1374 -1.5157 -1.1884
  701MOL0     H94610   9.550   9.779   0.311 -1.3404  1.2701  0.5790
  701MOL0     H94611   9.454   9.493   0.389 -4.8895  2.7823 -0.6405
  701MOL0     H94612   9.591   9.571   0.470  0.4230 -2.8035 -0.7137
  701MOL0     H94613   9.293   9.654   0.448 -0.9170  2.2655  1.3862
  701MOL0     H94614   9.411   9.769   0.524  2.1808 -0.0329 -0.6110
  701MOL0     H94615   9.456   9.581   0.703 -0.3355 -2.2877  1.8544
  701MOL0     H94616   9.358   9.478   0.605 -0.1957 -0.2442 -0.0024
  701MOL0     H94617   9.580   9.325  -0.342 -0.6623  0.4990  2.7466
  701MOL0     H94618   9.626   9.139  -0.514 -3.9885 -1.8713 -0.6736
  701MOL0     H94619   9.651   8.664  -0.545  0.7545 -3.2571  2.9431
  701MOL0     H94620   9.691   8.485  -0.664 -2.3506  1.2148  1.6396
  701MOL0     H94621   9.565   6.818  -0.215 -1.1960 -2.3176 -3.2868
  701MOL0     H94622   9.350   6.671  -0.219 -2.1304 -1.6394  2.6198
  701MOL0     H94623   8.981   6.537  -0.236 -2.2926  6.6508 -5.0752
  701MOL0     H94624   8.749   6.418  -0.243  1.0833 -1.7890  0.2006
  701MOL0     H94625   8.424   6.330   0.031  1.7436  0.0042  5.5143
  701MOL0     H94626   8.511   6.451   0.120  0.3773  1.0446 -0.9397
  701MOL0     H94627   8.338   6.557  -0.107 -2.6315  1.7086  0.7632
  701MOL0     H94628   8.364   6.633   0.046  1.0983  1.1212 -2.6174
  701MOL0     H94629   8.240   6.414   0.138 -0.0974  1.3834  0.2544
  701MOL0     H94630   8.184   6.391  -0.025 -2.3319 -0.5393  2.4455
  701MOL0     H94631   8.101   6.642  -0.011  0.3728  1.5389  0.0817
  701MOL0     H94632   8.131   6.615   0.164  0.7349  2.2039 -1.3867
  701MOL0     H94633   7.766   6.404   0.100 -0.2870 -0.5372 -1.2725
  701MOL0     H94634   8.621   6.634   0.092 -2.8180 -1.6993 -1.5440
  701MOL0     H94635   8.833   6.760   0.094 -6.1954  1.1308 -0.0638
  702MOL0     O94636   1.020  10.278   9.878 -0.1720 -0.2916  0.4728
  702MOL0     C94637   1.065  10.196   9.957  0.7444  0.6404 -0.4534
  702MOL0     O94638   1.182  10.206  10.025 -0.0520  0.3745  0.0464
  702MOL0     C94639   1.248  10.318  10.006  0.4721 -0.4820 -0.8011
  702MOL0     C94640   1.192  10.437  10.051  0.8659  0.2426 -0.0312
  702MOL0     C94641   1.262  10.556  10.041  0.3505 -0.0363  0.5474
  702MOL0     C94642   1.402  10.553  10.003  0.3835 -1.1671  0.3189
  702MOL0     O94643   1.482  10.667  10.004 -0.6854  0.1772 -0.9563
  702MOL0     C94644   1.449  10.782  10.086 -0.5831  0.0157 -0.3663
  702MOL0     C94645   1.568  10.872  10.111 -0.1377  0.5775  0.9371
  702MOL0     C94646   1.700  10.788  10.145  0.0293 -1.3472 -0.0944
  702MOL0     C94647   1.702  10.745  10.289 -0.2617  0.7366 -0.5170
  702MOL0     C94648   1.838  10.663  10.323 -0.5267  0.1717  0.7372
  702MOL0     C94649   1.842  10.587  10.459 -0.3669 -0.0798  0.7912
  702MOL0     C94650   1.846  10.675  10.573  0.0241 -0.4502  0.5188
  702MOL0     C94651   1.864  10.616  10.712 -0.3719  0.6003 -0.3790
  702MOL0     N94652   1.889  10.715  10.816  0.0488 -0.0379 -0.6141
  702MOL0     C94653   2.006  10.708  10.886 -0.6487  0.8790  0.0499
  702MOL0     C94654   1.984  10.788  10.992 -0.2856  0.0214 -0.1122
  702MOL0     C94655   2.077  10.817  11.105  0.0528 -0.4128  0.5593
  702MOL0     C94656   2.037  10.735  11.220 -0.1473  0.0262 -1.8210
  702MOL0     C94657   2.104  10.772  11.355  0.0331  0.4820  0.6152
  702MOL0     C94658   2.255  10.738  11.359  0.0041  0.5474 -0.8481
  702MOL0     O94659   2.305  10.762  11.492  0.6307  0.5275  0.2957
  702MOL0     C94660   2.402  10.671  11.541  0.3239 -0.2723 -0.9894
  702MOL0     C94661   2.426  10.672  11.677  0.4554  0.2348 -0.5570
  702MOL0     C94662   2.526  10.597  11.747  0.7403 -0.5464  0.4139
  702MOL0     C94663   2.540  10.622  11.898  0.0095 -0.4840  0.1705
  702MOL0     C94664   2.610  10.512  11.665 -0.0612  0.0331 -0.2640
  702MOL0     C94665   2.724  10.427  11.721  0.4024 -0.2712  0.3970
  702MOL0     O94666   2.765  10.320  11.638 -0.5494 -1.0547  1.0848
  702MOL0     C94667   2.863  10.233  11.678 -0.4530 -0.0311  1.1765
  702MOL0     C94668   2.935  10.223  11.805  0.3514 -0.0364  0.2513
  702MOL0     C94669   3.030  10.119  11.821  0.0989 -0.7720  0.5871
  702MOL0     C94670   3.072  10.039  11.709 -0.0685  0.1612 -0.4221
  702MOL0     O94671   3.176   9.950  11.708  0.3548  0.2447 -0.2273
  702MOL0     C94672   3.243   9.914  11.835  0.8902  0.9967  0.5135
  702MOL0     C94673   3.267   9.762  11.845 -0.1637 -0.1989  0.9471
  702MOL0     C94674   3.349   9.730  11.979  0.5321 -0.1315 -0.4500
  702MOL0     C94675   3.500   9.764  11.963  0.8005  0.5707 -0.3062
  702MOL0     C94676   3.575   9.757  12.091  0.7798 -0.0438  0.4227
  702MOL0     C94677   3.592   9.616  12.146 -0.1053  0.4674  0.3028
  702MOL0     C94678   3.701   9.544  12.055  1.1446  0.3210 -0.8376
  702MOL0     C94679   3.823   9.489  12.142 -0.0117 -0.4961 -0.9513
  702MOL0    Cl94680   3.936   9.617  12.141 -0.0232 -0.4156  0.5907
  702MOL0     C94681   3.004  10.053  11.587  0.7327  0.0008  1.1248
  702MOL0     C94682   2.902  10.144  11.570 -0.5203 -0.9474  0.2648
  702MOL0     O94683   2.774  10.461  11.832 -0.9522  0.0464  0.0926
  702MOL0     C94684   2.591  10.506  11.529  0.0570  0.3920 -1.0308
  702MOL0     C94685   2.489  10.590  11.469  1.0823 -0.0959 -0.3809
  702MOL0     N94686   1.856  10.837  10.977  0.7958  0.0687  0.4981
  702MOL0     N94687   1.800  10.798  10.872  0.4019 -0.6044  0.3153
  702MOL0     C94688   1.469  10.437   9.969 -0.0812  0.1466  0.2049
  702MOL0     C94689   1.388  10.321   9.982 -0.2352  0.3949 -0.0822
  702MOL0     C94690   0.990  10.078   9.987  0.3340  0.1118  0.5154
  702MOL0     C94691   1.026   9.987  10.094  0.5107  1.1481 -0.4337
  702MOL0     C94692   0.950   9.873  10.116  0.8252  0.8861  0.5139
  702MOL0     C94693   0.841   9.837  10.042 -0.1546 -0.8475 -0.6816
  702MOL0     O94694   0.780   9.721  10.074 -0.2607  1.0047  0.2858
  702MOL0     C94695   0.638   9.696  10.046 -0.7125 -0.6951  0.1366
  702MOL0     C94696   0.545   9.769  10.144  0.5352  0.0546  0.2399
  702MOL0     C94697   0.400   9.727  10.113  0.4218 -0.3875 -0.4564
  702MOL0     C94698   0.300   9.826  10.178  0.2756  0.0782  0.8934
  702MOL0     C94699   0.168   9.783  10.141 -0.1535 -0.5936  0.1863
  702MOL0     C94700   0.063   9.726  10.114 -0.7020 -0.3570  0.5667
  702MOL0     C94701   0.790   9.928   9.950 -1.4121 -0.0345  0.2274
  702MOL0     C94702   0.863  10.044   9.920 -0.7524 -0.3192  0.1249
  702MOL0     H94703   1.088  10.453  10.076 -0.1836  0.9216 -4.0486
  702MOL0     H94704   1.208  10.648  10.061 -0.0742 -0.6859  2.5806
  702MOL0     H94705   1.365  10.838  10.044  0.0997  1.8513  0.6113
  702MOL0     H94706   1.419  10.731  10.177  1.4541 -0.5873  0.0243
  702MOL0     H94707   1.586  10.936  10.024 -0.5214 -1.1264 -0.4397
  702MOL0     H94708   1.548  10.940  10.195  1.9237  0.6011  1.4450
  702MOL0     H94709   1.700  10.698  10.083 -3.3340 -1.6193  0.1531
  702MOL0     H94710   1.783  10.856  10.123  0.7908 -1.8639  1.0612
  702MOL0     H94711   1.705  10.838  10.348 -3.2587  0.1381  0.7719
  702MOL0     H94712   1.616  10.696  10.336  1.6825 -1.6163  0.7631
  702MOL0     H94713   1.856  10.596  10.239  3.5342  1.6111  0.2481
  702MOL0     H94714   1.932  10.719  10.316  1.1533 -2.1838  2.9207
  702MOL0     H94715   1.753  10.523  10.456  0.4830 -1.2695 -0.8582
  702MOL0     H94716   1.931  10.524  10.450  0.1103  0.8680 -4.0923
  702MOL0     H94717   1.933  10.741  10.558 -0.7485  1.2080  2.6783
  702MOL0     H94718   1.754  10.734  10.577  0.6426  0.6816 -0.8600
  702MOL0     H94719   1.945  10.542  10.718  0.3624  1.3854 -0.3486
  702MOL0     H94720   1.772  10.571  10.749  0.3991 -1.8076 -1.2128
  702MOL0     H94721   2.099  10.652  10.877 -1.3817 -0.1867 -1.1145
  702MOL0     H94722   2.180  10.793  11.078 -0.3361 -0.2535 -1.1770
  702MOL0     H94723   2.075  10.924  11.127  3.2934 -0.0883 -0.2437
  702MOL0     H94724   2.052  10.626  11.217  3.7387  0.4067 -1.2030
  702MOL0     H94725   1.929  10.734  11.233  0.1685  2.7862  5.1649
  702MOL0     H94726   2.051  10.731  11.441 -0.3942 -1.4917 -0.5404
  702MOL0     H94727   2.092  10.881  11.363  0.6285  0.9475 -3.1348
  702MOL0     H94728   2.308  10.795  11.282  0.8945 -1.0956 -1.5091
  702MOL0     H94729   2.272  10.634  11.329  0.6725  0.4746 -0.2223
  702MOL0     H94730   2.365  10.741  11.735 -2.3519 -0.4047 -2.5545
  702MOL0     H94731   2.497  10.718  11.927  1.8395  0.6021 -0.5038
  702MOL0     H94732   2.490  10.542  11.955  2.2845 -1.0625  1.5190
  702MOL0     H94733   2.645  10.632  11.928  0.0232  0.5030 -0.1775
  702MOL0     H94734   2.924  10.295  11.886 -1.6055  1.9350 -1.6099
  702MOL0     H94735   3.091  10.117  11.910 -1.5439  0.5835  1.8023
  702MOL0     H94736   3.342   9.959  11.832  1.4244 -0.1707 -0.2128
  702MOL0     H94737   3.186   9.939  11.925 -0.1610  0.6736 -0.0442
  702MOL0     H94738   3.176   9.701  11.841  0.7779 -1.6127 -1.2568
  702MOL0     H94739   3.335   9.732  11.764  0.9545 -0.2101  1.8707
  702MOL0     H94740   3.351   9.622  11.997  2.1276 -0.5866 -2.9023
  702MOL0     H94741   3.304   9.776  12.068  0.4513 -3.7998  1.6129
  702MOL0     H94742   3.550   9.707  11.884  0.5987 -0.9155  0.6023
  702MOL0     H94743   3.523   9.866  11.931  2.5670  0.8368  1.5813
  702MOL0     H94744   3.509   9.810  12.160 -0.7867 -0.2077 -0.8961
  702MOL0     H94745   3.671   9.810  12.087  0.8116 -0.1567 -0.4314
  702MOL0     H94746   3.640   9.622  12.244 -1.4836 -0.3409  1.0500
  702MOL0     H94747   3.501   9.557  12.158  0.7533 -1.0563 -0.4388
  702MOL0     H94748   3.747   9.605  11.977  1.1281 -0.1462 -1.2157
  702MOL0     H94749   3.652   9.455  12.016 -0.5461  0.2203  1.3181
  702MOL0     H94750   3.875   9.411  12.084 -1.8215 -1.1636 -1.7481
  702MOL0     H94751   3.795   9.456  12.242  0.6606  3.5011  0.7389
  702MOL0     H94752   3.027   9.994  11.499 -1.3264  2.9765 -1.6355
  702MOL0     H94753   2.843  10.130  11.480 -1.0800  0.9742  0.2754
  702MOL0     H94754   2.640  10.438  11.460 -2.4635 -2.6836 -0.0826
  702MOL0     H94755   2.481  10.600  11.361  1.3893  2.4009 -0.2257
  702MOL0     H94756   1.572  10.445   9.936 -0.6937  2.8893 -1.3784
  702MOL0     H94757   1.431  10.229   9.944 -0.0938  0.0012  0.9981
  702MOL0     H94758   1.125   9.998  10.138  1.6421  0.3356 -2.6253
  702MOL0     H94759   0.979   9.804  10.195  4.2520 -1.0591 -2.1676
  702MOL0     H94760   0.614   9.718   9.941  1.5317  0.1968 -0.2413
  702MOL0     H94761   0.630   9.587  10.051 -1.2695 -0.7201 -0.9182
  702MOL0     H94762   0.557   9.875  10.121 -0.8172 -0.5310 -3.9668
  702MOL0     H94763   0.549   9.745  10.251 -1.4763  0.6339  0.4941
  702MOL0     H94764   0.391   9.628  10.160  0.3006 -0.8156 -1.3658
  702MOL0     H94765   0.406   9.733  10.004  1.9475  3.2765 -0.3080
  702MOL0     H94766   0.306   9.931  10.149  0.3009  0.2676  1.5850
  702MOL0     H94767   0.300   9.824  10.287 -0.3378 -0.6538  0.8869
  702MOL0     H94768  -0.027   9.675  10.088  0.2953 -0.8618 -2.1734
  702MOL0     H94769   0.702   9.902   9.891 -1.9498 -0.3640  1.1420
  702MOL0     H94770   0.825  10.104   9.837  2.3544 -0.8837 -1.8913
  703MOL0     O94771  10.739   6.641  10.405 -0.4161 -0.4694  0.1207
  703MOL0     C94772  10.850   6.696  10.416  0.8588  0.6234  0.0415
  703MOL0     O94773  10.873   6.831  10.438  0.1249  0.3148  0.2695
  703MOL0     C94774  10.766   6.915  10.423 -0.0902 -0.2774 -1.1911
  703MOL0     C94775  10.672   6.935  10.522  0.8512 -0.5232 -0.1428
  703MOL0     C94776  10.554   7.010  10.494  0.2337  0.5795 -0.2621
  703MOL0     C94777  10.541   7.077  10.373 -0.2944 -0.0107 -0.0768
  703MOL0     O94778  10.440   7.160  10.341  0.7106 -0.1263  0.5778
  703MOL0     C94779  10.351   7.221  10.439  0.0173  1.0286 -0.2257
  703MOL0     C94780  10.282   7.335  10.373 -0.1244  0.1474 -0.0665
  703MOL0     C94781  10.176   7.400  10.468  0.0245 -0.1066 -0.3223
  703MOL0     C94782  10.126   7.529  10.396 -0.0605 -0.1551  0.4281
  703MOL0     C94783  10.065   7.624  10.494  0.0664 -0.7591  1.0180
  703MOL0     C94784  10.002   7.741  10.401 -0.6522  0.0806  0.5111
  703MOL0     C94785   9.948   7.852  10.492 -0.0510 -0.4223  0.9626
  703MOL0     C94786   9.919   7.968  10.407  0.3613  0.3041  0.1619
  703MOL0     N94787  10.025   8.018  10.321  0.3002 -0.0598  0.2960
  703MOL0     C94788  10.134   8.092  10.361  0.5839 -0.8952  0.4696
  703MOL0     C94789  10.213   8.112  10.247  0.5172  0.0344 -0.3431
  703MOL0     C94790  10.314   8.224  10.255 -0.4471  0.5737  0.6741
  703MOL0     C94791  10.433   8.191  10.175 -0.1537  0.2555  0.1591
  703MOL0     C94792  10.524   8.097  10.256 -1.2529 -0.0374 -0.1193
  703MOL0     C94793  10.606   8.141  10.378  0.5648 -0.2343 -0.1957
  703MOL0     O94794  10.698   8.041  10.434 -0.7091  0.6609  0.5496
  703MOL0     C94795  10.708   7.993  10.562  0.3552 -0.1063 -0.6730
  703MOL0     C94796  10.637   8.040  10.672  0.8014 -0.2897 -0.0761
  703MOL0     C94797  10.656   7.983  10.801  0.9872 -0.5627  0.1254
  703MOL0     C94798  10.561   8.035  10.906 -0.2781 -0.4005 -0.2139
  703MOL0     C94799  10.760   7.892  10.819 -0.7131  1.2653 -0.6855
  703MOL0     C94800  10.794   7.830  10.953 -0.3495 -0.2384  0.6692
  703MOL0     O94801  10.844   7.697  10.944  0.1901 -0.3401 -0.3167
  703MOL0     C94802  10.871   7.624  11.062  0.1672 -1.2108  0.5112
  703MOL0     C94803  10.972   7.531  11.050 -0.7840 -0.4937  0.8256
  703MOL0     C94804  11.008   7.453  11.159 -0.7979  0.0472 -0.7381
  703MOL0     C94805  10.935   7.449  11.283 -0.2587  0.1465 -0.5140
  703MOL0     O94806  10.959   7.355  11.383  0.6841 -0.4173 -0.2698
  703MOL0     C94807  11.081   7.284  11.390  0.1391  0.1331 -0.3654
  703MOL0     C94808  11.081   7.211  11.532  0.7460 -0.0196  0.1936
  703MOL0     C94809  11.192   7.107  11.542 -0.5606 -0.0896 -0.7069
  703MOL0     C94810  11.186   7.032  11.678 -0.1825 -0.8717 -0.0113
  703MOL0     C94811  11.278   6.912  11.703  1.0522 -0.2070  0.0682
  703MOL0     C94812  11.415   6.952  11.768 -0.0952  0.4797  0.0628
  703MOL0     C94813  11.463   6.816  11.824 -0.9790 -0.2387 -0.0031
  703MOL0     C94814  11.503   6.819  11.975 -0.5289 -0.3424 -0.3317
  703MOL0    Cl94815  11.354   6.812  12.083 -0.1014  0.1577  0.0576
  703MOL0     C94816  10.820   7.528  11.283 -1.2220  0.4540 -0.1265
  703MOL0     C94817  10.786   7.613  11.178 -0.4581 -0.4688  0.5591
  703MOL0     O94818  10.785   7.887  11.060  0.8121  0.7062 -0.5938
  703MOL0     C94819  10.830   7.853  10.708 -0.3448 -0.7504  0.1512
  703MOL0     C94820  10.812   7.908  10.586  0.2352  0.4803 -0.0295
  703MOL0     N94821  10.163   8.037  10.139 -1.0560 -0.4604 -0.1944
  703MOL0     N94822  10.054   7.986  10.186 -0.4377  0.4813 -0.4254
  703MOL0     C94823  10.647   7.069  10.283 -0.9822 -0.2913  0.6539
  703MOL0     C94824  10.760   6.988  10.306 -0.5944 -0.4225  0.1122
  703MOL0     C94825  10.959   6.592  10.402  0.0429 -0.2190  0.4697
  703MOL0     C94826  10.938   6.475  10.335  0.0378 -0.7431  0.4544
  703MOL0     C94827  11.041   6.381  10.321 -0.2533 -0.2819  0.3330
  703MOL0     C94828  11.166   6.417  10.370 -0.6978  0.3441  0.7697
  703MOL0     O94829  11.276   6.341  10.344 -1.0623 -0.1492  0.6061
  703MOL0     C94830  11.287   6.234  10.250  0.9060  0.5055 -0.4566
  703MOL0     C94831  11.270   6.092  10.306  0.3197 -0.2409 -0.2240
  703MOL0     C94832  11.156   6.074  10.405 -0.0808 -1.4729 -0.4142
  703MOL0     C94833  11.145   5.930  10.444  0.2764  0.8576  0.8153
  703MOL0     C94834  11.082   5.854  10.335 -0.1867  0.2581  0.1155
  703MOL0     C94835  11.027   5.790  10.240  0.6413 -0.6342 -0.0210
  703MOL0     C94836  11.185   6.532  10.446 -0.0082  0.3063 -0.0599
  703MOL0     C94837  11.086   6.623  10.456  0.1248  0.1474 -0.2567
  703MOL0     H94838  10.679   6.889  10.619  0.2041 -2.6353 -1.0508
  703MOL0     H94839  10.472   7.016  10.564  1.7003  4.6155  1.4503
  703MOL0     H94840  10.282   7.145  10.478 -2.3313  3.9513  1.7339
  703MOL0     H94841  10.405   7.258  10.527  0.4590  1.8784 -0.8485
  703MOL0     H94842  10.361   7.399  10.333  1.3752 -2.0540 -0.8846
  703MOL0     H94843  10.225   7.299  10.286 -2.5064 -0.1526  1.5413
  703MOL0     H94844  10.095   7.328  10.478  0.1864 -0.9932 -3.8772
  703MOL0     H94845  10.221   7.435  10.561  0.1681  2.1001 -1.1518
  703MOL0     H94846  10.218   7.575  10.359  0.1133 -0.1354  0.8840
  703MOL0     H94847  10.064   7.526  10.306 -0.5708  2.8395  0.5698
  703MOL0     H94848   9.977   7.582  10.544 -1.4028 -2.4830 -2.6000
  703MOL0     H94849  10.146   7.666  10.554  0.4294  1.1273 -0.6820
  703MOL0     H94850  10.079   7.778  10.334 -1.3086  0.6560  0.0610
  703MOL0     H94851   9.922   7.706  10.334  2.6829 -2.0353 -2.7264
  703MOL0     H94852   9.846   7.821  10.518 -0.7974  0.8788 -0.3246
  703MOL0     H94853  10.021   7.879  10.569 -1.8393  2.6825  1.7491
  703MOL0     H94854   9.875   8.057  10.451 -3.4841 -0.8396 -0.9482
  703MOL0     H94855   9.845   7.926  10.338 -0.8911  1.4364  0.7843
  703MOL0     H94856  10.151   8.133  10.460 -3.5092  0.8291  0.6527
  703MOL0     H94857  10.286   8.323  10.218  3.2903  1.4796 -0.1081
  703MOL0     H94858  10.329   8.247  10.361 -0.1441 -0.0680  0.7754
  703MOL0     H94859  10.491   8.283  10.160  1.0127 -0.2762  1.1361
  703MOL0     H94860  10.410   8.142  10.081 -0.3229 -3.9635  2.1686
  703MOL0     H94861  10.600   8.062  10.186 -1.4847  0.0421 -0.4152
  703MOL0     H94862  10.475   8.007  10.294 -2.5577  0.8473  0.4029
  703MOL0     H94863  10.545   8.185  10.457  0.2383  2.2942 -1.7388
  703MOL0     H94864  10.667   8.225  10.343  1.4674 -1.6193 -2.0772
  703MOL0     H94865  10.559   8.114  10.655  1.7535  1.0276  1.0659
  703MOL0     H94866  10.589   8.138  10.931  0.3572 -0.4023 -0.8708
  703MOL0     H94867  10.456   8.037  10.878  0.2285 -0.3918 -2.2733
  703MOL0     H94868  10.568   7.975  10.998  2.8728  1.3933  0.8939
  703MOL0     H94869  11.021   7.512  10.955  1.2669  0.5401  1.6298
  703MOL0     H94870  11.081   7.373  11.146 -1.0210 -1.1231  3.7399
  703MOL0     H94871  11.080   7.212  11.308 -0.9274  1.4681 -1.5767
  703MOL0     H94872  11.158   7.362  11.390 -1.9949  2.4657  2.1898
  703MOL0     H94873  11.083   7.293  11.605  3.2166 -0.3113  0.5293
  703MOL0     H94874  10.985   7.159  11.537 -0.0271  1.4710  2.2815
  703MOL0     H94875  11.289   7.157  11.532 -0.6581  0.6048  1.4733
  703MOL0     H94876  11.187   7.042  11.454  0.2617  0.7759 -1.4167
  703MOL0     H94877  11.208   7.105  11.756  1.4702 -0.9455 -0.3704
  703MOL0     H94878  11.085   6.993  11.692 -0.2618 -1.3747 -1.7991
  703MOL0     H94879  11.301   6.867  11.606  1.8903  1.6455 -0.6394
  703MOL0     H94880  11.210   6.850  11.763  1.7958 -2.6411 -1.4562
  703MOL0     H94881  11.478   6.993  11.690 -0.2788  0.4266 -0.1148
  703MOL0     H94882  11.415   7.024  11.850 -0.7200 -0.2073  0.6860
  703MOL0     H94883  11.558   6.788  11.776  0.9211 -0.5295  3.6011
  703MOL0     H94884  11.384   6.743  11.806  0.0940 -1.2370 -0.8297
  703MOL0     H94885  11.555   6.914  11.994 -1.8766  0.4762 -0.6249
  703MOL0     H94886  11.571   6.736  11.996 -0.1075  0.0618 -0.0729
  703MOL0     H94887  10.748   7.519  11.364 -0.2954 -1.3543  0.5419
  703MOL0     H94888  10.693   7.667  11.166  0.4145  1.0599  0.3968
  703MOL0     H94889  10.906   7.776  10.696 -0.4023 -0.4268 -3.8157
  703MOL0     H94890  10.874   7.878  10.502 -0.2763 -3.0573  0.7062
  703MOL0     H94891  10.640   7.119  10.186 -0.7741 -1.1972  0.1556
  703MOL0     H94892  10.848   6.993  10.243 -1.4280  0.0258 -1.0416
  703MOL0     H94893  10.848   6.452  10.280 -0.2277 -2.4439  1.5168
  703MOL0     H94894  11.026   6.295  10.256  1.4592  0.1018 -0.6231
  703MOL0     H94895  11.218   6.263  10.170  0.8163  1.7228  0.0373
  703MOL0     H94896  11.391   6.229  10.217  0.9908 -2.1525 -0.0058
  703MOL0     H94897  11.363   6.062  10.355  1.1236  4.2654  1.5094
  703MOL0     H94898  11.255   6.019  10.226  1.0011  0.2701 -0.8318
  703MOL0     H94899  11.061   6.111  10.364 -0.6581 -1.2393  1.0431
  703MOL0     H94900  11.182   6.135  10.493  0.3265  1.1335 -2.2367
  703MOL0     H94901  11.090   5.918  10.538 -2.1003 -3.8988 -0.8502
  703MOL0     H94902  11.236   5.875  10.474  0.4097  1.4166  1.4719
  703MOL0     H94903  10.980   5.733  10.164 -2.3062 -0.7080  1.7010
  703MOL0     H94904  11.285   6.564  10.476  0.8049 -0.6471 -1.5870
  703MOL0     H94905  11.111   6.722  10.492 -0.6621  1.1477 -2.2584
  704MOL0     O94906   7.844   9.545   7.955 -0.5002 -0.4618  0.8581
  704MOL0     C94907   7.950   9.596   7.980 -0.3820 -0.5956  0.0031
  704MOL0     O94908   8.023   9.672   7.887  0.0402  0.2525  0.0330
  704MOL0     C94909   7.993   9.700   7.752  0.0512  0.2200  0.7215
  704MOL0     C94910   8.057   9.805   7.682 -0.2211 -0.5861  0.1382
  704MOL0     C94911   8.045   9.837   7.546  0.3501 -0.3782 -0.2762
  704MOL0     C94912   7.959   9.754   7.476  0.3411 -0.0872  0.3218
  704MOL0     O94913   7.948   9.762   7.340 -0.3016  0.0442  0.2405
  704MOL0     C94914   7.987   9.879   7.272 -0.8327 -0.0811  0.5048
  704MOL0     C94915   7.909   9.868   7.129 -1.3616 -0.8083 -0.3258
  704MOL0     C94916   7.773   9.936   7.136 -0.2773 -0.3042 -0.0243
  704MOL0     C94917   7.719   9.931   6.993 -0.1332  0.0113 -1.4263
  704MOL0     C94918   7.580   9.988   6.962 -1.0512  1.7143 -1.3246
  704MOL0     C94919   7.565  10.068   6.841 -0.2071  0.7697  0.6937
  704MOL0     C94920   7.580   9.977   6.718 -0.0245  0.2486  0.4860
  704MOL0     C94921   7.584  10.064   6.592  0.0288 -0.7982 -0.7871
  704MOL0     N94922   7.462  10.155   6.587  0.7382 -0.2589 -0.2870
  704MOL0     C94923   7.337  10.116   6.549  0.1947  0.0713 -0.9503
  704MOL0     C94924   7.254  10.221   6.579 -0.1070  0.3948  0.0747
  704MOL0     C94925   7.106  10.228   6.544 -0.2896 -0.9374 -0.1765
  704MOL0     C94926   7.039  10.346   6.615  0.0965 -1.6463  0.2422
  704MOL0     C94927   6.907  10.380   6.559 -0.7232 -0.2196 -0.1938
  704MOL0     C94928   6.804  10.270   6.566 -0.4675  0.1341 -0.0477
  704MOL0     O94929   6.777  10.240   6.713  0.1432 -0.0578  0.2490
  704MOL0     C94930   6.650  10.200   6.750  0.9485 -0.4300  0.7462
  704MOL0     C94931   6.618  10.212   6.883 -0.5070 -0.5085  0.2626
  704MOL0     C94932   6.493  10.178   6.926 -0.3190 -0.7447 -0.3396
  704MOL0     C94933   6.469  10.167   7.071 -0.1032  0.4923  0.1856
  704MOL0     C94934   6.399  10.121   6.833  0.2055 -0.1949  0.2950
  704MOL0     C94935   6.273  10.059   6.876  1.0323  0.3266  0.3370
  704MOL0     O94936   6.237   9.939   6.824  0.0823 -1.0448 -0.5576
  704MOL0     C94937   6.139   9.872   6.895  0.3143 -0.0884  0.5184
  704MOL0     C94938   6.004   9.884   6.855  0.1935  0.3045 -0.5217
  704MOL0     C94939   5.902   9.811   6.922 -0.1279 -0.4630 -0.9569
  704MOL0     C94940   5.937   9.722   7.025 -0.5597 -0.0597  0.7686
  704MOL0     O94941   5.838   9.640   7.070 -0.4503 -0.4647 -0.6010
  704MOL0     C94942   5.876   9.518   7.137 -0.0225  0.6172 -0.0305
  704MOL0     C94943   5.734   9.453   7.170 -1.1982  0.7889 -0.2722
  704MOL0     C94944   5.677   9.508   7.302  0.2301  0.1970 -0.7802
  704MOL0     C94945   5.769   9.560   7.411 -0.0526  0.6542  0.1414
  704MOL0     C94946   5.694   9.596   7.534 -0.3567 -0.7861 -0.3433
  704MOL0     C94947   5.788   9.632   7.656  0.2769  0.5349  0.3337
  704MOL0     C94948   5.879   9.756   7.626  1.0616 -0.1985  0.1883
  704MOL0     C94949   5.950   9.801   7.748  0.1504  0.5552 -0.4713
  704MOL0    Cl94950   6.031   9.658   7.822  0.0700 -0.3257  0.0261
  704MOL0     C94951   6.077   9.702   7.055  0.3765 -0.9169 -0.7002
  704MOL0     C94952   6.178   9.786   7.003  1.0145  0.8009 -0.0170
  704MOL0     O94953   6.192  10.134   6.933  0.5015 -0.5902  0.1318
  704MOL0     C94954   6.427  10.106   6.696 -0.0897 -0.0271 -0.2187
  704MOL0     C94955   6.554  10.140   6.660 -0.3907 -0.5575 -0.2677
  704MOL0     N94956   7.337  10.316   6.633 -0.0984 -0.4659 -0.2438
  704MOL0     N94957   7.460  10.275   6.638  0.0425 -0.7369 -0.4580
  704MOL0     C94958   7.879   9.654   7.541 -0.3185 -0.6146  0.0856
  704MOL0     C94959   7.900   9.634   7.671  1.0872  1.1325  0.3535
  704MOL0     C94960   8.027   9.555   8.097 -0.1883 -0.2600 -0.3765
  704MOL0     C94961   7.979   9.457   8.187  0.4173 -0.4579 -0.5500
  704MOL0     C94962   8.065   9.415   8.293  0.2162 -0.3245  0.0442
  704MOL0     C94963   8.186   9.471   8.316  0.6237 -0.1765  0.0346
  704MOL0     O94964   8.269   9.443   8.428  0.3900 -0.0731  0.4892
  704MOL0     C94965   8.216   9.364   8.540 -0.5066 -1.3546 -0.7388
  704MOL0     C94966   8.318   9.350   8.655  0.8223  0.2938 -0.1982
  704MOL0     C94967   8.272   9.249   8.759  0.6974  0.1097 -0.2933
  704MOL0     C94968   8.377   9.254   8.863  0.8663 -1.1504  0.4958
  704MOL0     C94969   8.358   9.148   8.954 -0.1922 -0.2456 -0.4461
  704MOL0     C94970   8.368   9.060   9.038 -0.0968 -0.1531 -0.0801
  704MOL0     C94971   8.233   9.565   8.220  0.0987  0.3215  0.1897
  704MOL0     C94972   8.152   9.610   8.113 -0.5662 -0.3409 -0.9142
  704MOL0     H94973   8.124   9.872   7.734 -0.1601 -0.1339 -0.5123
  704MOL0     H94974   8.092   9.926   7.506 -2.4545  0.6859 -1.4390
  704MOL0     H94975   7.964   9.970   7.328  2.0413  0.5272  0.8697
  704MOL0     H94976   8.095   9.892   7.260 -1.1650  2.7254 -0.3215
  704MOL0     H94977   7.969   9.917   7.052 -2.0185 -0.8777 -0.8857
  704MOL0     H94978   7.910   9.761   7.107  1.7925 -0.9722  0.1207
  704MOL0     H94979   7.715   9.881   7.211 -0.9363 -1.3207 -1.2372
  704MOL0     H94980   7.783  10.036   7.179  0.1619 -0.5997  0.5863
  704MOL0     H94981   7.783   9.990   6.927  1.0928  2.3267  1.5473
  704MOL0     H94982   7.713   9.825   6.971  2.6164  0.2549 -3.9637
  704MOL0     H94983   7.510   9.905   6.975 -1.3017  2.2088  0.9543
  704MOL0     H94984   7.560  10.061   7.041 -1.2065 -1.8403  2.2881
  704MOL0     H94985   7.462  10.106   6.845 -0.7325 -0.6946  2.4281
  704MOL0     H94986   7.628  10.157   6.833  2.0665 -0.3986  3.7849
  704MOL0     H94987   7.675   9.925   6.732  0.1558 -0.1283 -1.7222
  704MOL0     H94988   7.503   9.899   6.712 -0.0365  0.3286 -0.6584
  704MOL0     H94989   7.595   9.999   6.505 -3.3403 -2.5219 -0.1202
  704MOL0     H94990   7.664  10.136   6.608  0.4602 -1.8508  2.6756
  704MOL0     H94991   7.303  10.017   6.523  1.3383 -1.1059  1.7476
  704MOL0     H94992   7.105  10.252   6.438 -0.0867 -3.3654 -0.7786
  704MOL0     H94993   7.059  10.132   6.565 -0.1422 -1.0786 -0.5006
  704MOL0     H94994   7.105  10.432   6.608 -1.1652 -0.4765  1.8812
  704MOL0     H94995   7.030  10.311   6.719 -2.8823 -1.9967 -0.0466
  704MOL0     H94996   6.918  10.404   6.452 -0.8625 -0.6379 -0.3027
  704MOL0     H94997   6.863  10.466   6.610 -1.8821 -0.0271 -1.4605
  704MOL0     H94998   6.845  10.180   6.519  0.3570 -0.2205  1.2909
  704MOL0     H94999   6.720  10.298   6.502  0.1660 -0.2987 -1.0970
  704MOL0     H95000   6.686  10.240   6.963 -1.1743 -0.5144  0.8441
  704MOL0     H95001   6.437  10.066   7.098  0.5243  0.6449  1.5593
  704MOL0     H95002   6.542  10.202   7.145  0.0544 -0.4500  0.4840
  704MOL0     H95003   6.388  10.237   7.093 -1.1553 -1.2189  2.0082
  704MOL0     H95004   5.980   9.951   6.773  0.3461  2.9665  1.4685
  704MOL0     H95005   5.800   9.802   6.886 -0.7249 -0.5270  0.6794
  704MOL0     H95006   5.927   9.450   7.068 -2.8477 -1.6740  0.0044
  704MOL0     H95007   5.945   9.528   7.221 -0.9855 -0.6343  0.9422
  704MOL0     H95008   5.662   9.477   7.091 -3.9206  2.4742  2.4781
  704MOL0     H95009   5.755   9.346   7.168  0.4140  1.0439 -3.3818
  704MOL0     H95010   5.612   9.429   7.339 -0.8567  1.0193 -0.8891
  704MOL0     H95011   5.607   9.586   7.272 -0.1751 -0.4464 -1.5512
  704MOL0     H95012   5.842   9.486   7.445  0.2353  0.6606 -0.4606
  704MOL0     H95013   5.821   9.646   7.367 -1.7162  0.8144 -1.6024
  704MOL0     H95014   5.627   9.513   7.557 -4.2601  2.3427  0.6942
  704MOL0     H95015   5.629   9.680   7.505  3.1026  0.8648 -4.4111
  704MOL0     H95016   5.723   9.647   7.743  1.4204 -0.0865  1.3270
  704MOL0     H95017   5.857   9.551   7.680  0.5421  0.8496  0.6558
  704MOL0     H95018   5.815   9.835   7.586 -0.5410 -0.9141  1.2486
  704MOL0     H95019   5.953   9.722   7.553  2.1623  1.7615  0.3228
  704MOL0     H95020   5.893   9.860   7.820 -0.0436  2.3475 -2.0121
  704MOL0     H95021   6.023   9.878   7.719  0.9735  0.2356  0.7017
  704MOL0     H95022   6.107   9.630   7.132 -2.0808  2.9319  4.4649
  704MOL0     H95023   6.275   9.776   7.050  0.3078 -2.2291  0.9868
  704MOL0     H95024   6.373  10.038   6.632  0.3150 -1.5239  0.9761
  704MOL0     H95025   6.583  10.121   6.557 -0.6800 -0.4488 -0.3702
  704MOL0     H95026   7.805   9.595   7.488  1.2109 -1.3431 -1.3337
  704MOL0     H95027   7.844   9.553   7.716  2.0371 -0.3536 -0.9861
  704MOL0     H95028   7.876   9.424   8.172  0.1846  0.7640 -1.8782
  704MOL0     H95029   8.019   9.355   8.371  0.2758  0.3505  0.6020
  704MOL0     H95030   8.120   9.398   8.582  0.6897  0.7974  0.4595
  704MOL0     H95031   8.202   9.263   8.500  1.4574 -0.4689 -3.9876
  704MOL0     H95032   8.328   9.445   8.708  1.3490 -1.2326  2.5988
  704MOL0     H95033   8.415   9.306   8.630  0.7502 -1.2052  1.8886
  704MOL0     H95034   8.267   9.149   8.714  1.6728 -1.2854  2.4794
  704MOL0     H95035   8.173   9.276   8.798  0.0722 -0.0587 -1.6860
  704MOL0     H95036   8.380   9.355   8.904  1.8481  0.8615 -3.9273
  704MOL0     H95037   8.478   9.236   8.823  0.0338  0.5578 -2.7614
  704MOL0     H95038   8.399   8.991   9.114 -0.9719  0.4251  0.8207
  704MOL0     H95039   8.328   9.612   8.246  2.1118 -1.0251 -3.8898
  704MOL0     H95040   8.193   9.685   8.047 -0.6207 -1.0007 -1.7161
  705MOL0     O95041   8.953   9.647   7.281 -0.3743  0.3444 -0.2642
  705MOL0     C95042   8.904   9.736   7.360  0.0822  0.1062 -0.2971
  705MOL0     O95043   8.886   9.720   7.497 -0.5403 -0.7998  0.1320
  705MOL0     C95044   8.939   9.608   7.565  0.6144  0.6732  0.8967
  705MOL0     C95045   9.051   9.618   7.644  0.4624 -0.6733 -0.2467
  705MOL0     C95046   9.105   9.504   7.704  0.0340 -0.0373 -0.5333
  705MOL0     C95047   9.032   9.382   7.711 -0.1909 -0.9456 -0.0101
  705MOL0     O95048   9.074   9.272   7.787  0.7341 -0.4433 -0.3539
  705MOL0     C95049   9.172   9.286   7.895 -0.3020 -0.1610 -0.6538
  705MOL0     C95050   9.159   9.169   7.987  0.0349 -0.9597 -0.2123
  705MOL0     C95051   9.269   9.176   8.091 -0.1722 -0.3396  0.1908
  705MOL0     C95052   9.254   9.065   8.201  0.3160  0.0101 -0.5110
  705MOL0     C95053   9.330   9.103   8.321  1.1720  0.4398 -0.4541
  705MOL0     C95054   9.477   9.137   8.301  1.1716  0.2261  0.4107
  705MOL0     C95055   9.567   9.033   8.223  1.2073  0.2199 -0.1262
  705MOL0     C95056   9.548   8.889   8.268 -0.2786  0.1719 -0.4765
  705MOL0     N95057   9.609   8.867   8.397  0.2186  0.4737 -0.1166
  705MOL0     C95058   9.742   8.875   8.417  0.8472 -0.2669 -0.5743
  705MOL0     C95059   9.750   8.861   8.547 -0.9446  0.1341 -0.0790
  705MOL0     C95060   9.880   8.850   8.627 -0.2855  0.1568 -0.5742
  705MOL0     C95061   9.869   8.776   8.761 -0.3388  1.0624 -0.0148
  705MOL0     C95062   9.972   8.834   8.865  0.3642 -1.1754 -0.9747
  705MOL0     C95063   9.922   8.963   8.930 -0.1426 -0.2528 -0.4766
  705MOL0     O95064   9.928   9.075   8.834 -0.0596 -0.1974  1.0182
  705MOL0     C95065   9.839   9.179   8.860  1.4273 -0.7466  0.4201
  705MOL0     C95066   9.790   9.256   8.750  0.3152  0.4019 -0.7164
  705MOL0     C95067   9.738   9.384   8.770  0.2670 -0.8395 -0.3187
  705MOL0     C95068   9.693   9.464   8.651  1.0949 -0.8066 -0.0820
  705MOL0     C95069   9.720   9.439   8.896 -0.0289  0.3603  0.3451
  705MOL0     C95070   9.663   9.568   8.921  0.0895 -1.0026 -0.5966
  705MOL0     O95071   9.696   9.678   8.844  0.9894 -0.6170 -0.7989
  705MOL0     C95072   9.629   9.801   8.856 -0.3464  0.3863 -0.2590
  705MOL0     C95073   9.712   9.918   8.861 -0.0427 -0.7364  0.7691
  705MOL0     C95074   9.659  10.043   8.866 -0.3672  0.7496  0.2985
  705MOL0     C95075   9.520  10.047   8.866  0.0274 -0.1712 -0.1640
  705MOL0     O95076   9.470  10.176   8.858 -0.6632  0.9210 -0.1612
  705MOL0     C95077   9.347  10.204   8.797  0.3556 -0.9290 -0.1326
  705MOL0     C95078   9.353  10.173   8.648  0.2911 -1.1326 -0.0449
  705MOL0     C95079   9.465  10.229   8.573  0.3001 -0.0128 -0.2320
  705MOL0     C95080   9.459  10.204   8.421  0.7061 -0.9399 -0.3155
  705MOL0     C95081   9.562  10.276   8.334  0.4773 -0.6746 -0.4578
  705MOL0     C95082   9.697  10.207   8.344  0.2228  0.4494 -0.2107
  705MOL0     C95083   9.810  10.310   8.287  0.5118 -0.3161 -0.4722
  705MOL0     C95084   9.950  10.230   8.265 -0.6129 -0.4502 -0.4900
  705MOL0    Cl95085  10.042  10.318   8.141 -0.1563 -0.5987 -0.3888
  705MOL0     C95086   9.436   9.932   8.875  0.0712 -0.5464  0.3106
  705MOL0     C95087   9.489   9.803   8.868  0.4847  0.3308 -0.1164
  705MOL0     O95088   9.582   9.568   9.015  0.1404  0.4549  0.3358
  705MOL0     C95089   9.745   9.351   9.006  0.0195 -0.4604  0.4665
  705MOL0     C95090   9.810   9.225   8.993  0.1411  0.4082 -0.5476
  705MOL0     N95091   9.625   8.846   8.605 -0.0570  0.7768 -1.0100
  705MOL0     N95092   9.535   8.856   8.517 -0.0128 -1.1008 -0.1067
  705MOL0     C95093   8.919   9.372   7.628 -1.3051 -0.1194 -0.2546
  705MOL0     C95094   8.869   9.478   7.558  0.7855 -0.7545  0.2118
  705MOL0     C95095   8.895   9.876   7.303  0.1105 -0.5572  0.6476
  705MOL0     C95096   8.820   9.974   7.359  0.0191 -0.0870  0.3871
  705MOL0     C95097   8.795  10.102   7.291  1.0697  0.9240  0.1297
  705MOL0     C95098   8.843  10.130   7.167 -1.2562 -0.4407  0.0707
  705MOL0     O95099   8.821  10.258   7.120 -0.8165 -0.9409  0.5870
  705MOL0     C95100   8.904  10.305   7.005  0.0297  0.1325  0.9303
  705MOL0     C95101   9.056  10.321   7.064  0.3196 -0.5457  1.2007
  705MOL0     C95102   9.143  10.397   6.952  0.4721 -0.9415  0.5689
  705MOL0     C95103   9.145  10.324   6.817  0.8292 -0.1621  0.6080
  705MOL0     C95104   9.186  10.182   6.834 -0.3598  1.7081 -0.8033
  705MOL0     C95105   9.210  10.064   6.856  0.2870  0.5602  0.6940
  705MOL0     C95106   8.929  10.024   7.110 -0.6834  1.0632  0.2012
  705MOL0     C95107   8.938   9.902   7.170  0.2006 -0.0791 -0.3368
  705MOL0     H95108   9.105   9.711   7.661 -0.6654 -0.1462  0.5933
  705MOL0     H95109   9.204   9.508   7.749 -0.1368  3.5909 -0.1848
  705MOL0     H95110   9.269   9.278   7.844  1.3397 -0.1355  2.2539
  705MOL0     H95111   9.178   9.384   7.944  0.8182  0.8278 -2.6035
  705MOL0     H95112   9.061   9.168   8.036 -0.0648  0.0870 -0.3514
  705MOL0     H95113   9.174   9.077   7.931  1.0183 -1.4841  0.8738
  705MOL0     H95114   9.368   9.176   8.045 -0.1059  1.5384  0.2333
  705MOL0     H95115   9.280   9.273   8.140  2.1546 -0.7578  0.5757
  705MOL0     H95116   9.149   9.062   8.233 -0.2456  1.0577 -2.1222
  705MOL0     H95117   9.278   8.970   8.152  2.9561 -0.8746  2.2393
  705MOL0     H95118   9.289   9.200   8.348 -0.1468 -0.0066 -0.7965
  705MOL0     H95119   9.306   9.035   8.404 -0.6167  1.5852  0.0193
  705MOL0     H95120   9.481   9.223   8.233 -0.5212  0.9755  1.2010
  705MOL0     H95121   9.511   9.170   8.400 -1.0861  0.3935  1.1865
  705MOL0     H95122   9.530   9.044   8.121  1.8734  1.5964 -0.2397
  705MOL0     H95123   9.673   9.054   8.237  0.7354  1.9900  1.3070
  705MOL0     H95124   9.600   8.822   8.199  2.5263  0.3281  1.3270
  705MOL0     H95125   9.441   8.867   8.276 -0.3921  0.6405 -0.6664
  705MOL0     H95126   9.827   8.898   8.354  0.6337  2.4395  0.0075
  705MOL0     H95127   9.961   8.798   8.574  1.3806  1.2234  0.8127
  705MOL0     H95128   9.915   8.952   8.645  1.8347 -0.2186 -2.1705
  705MOL0     H95129   9.885   8.669   8.745 -0.0922  1.1358 -0.2437
  705MOL0     H95130   9.770   8.780   8.809 -0.3245 -0.6994  0.2433
  705MOL0     H95131  10.062   8.854   8.806 -0.8973  2.2367 -2.0078
  705MOL0     H95132   9.990   8.749   8.930 -1.1716 -1.2400 -0.5791
  705MOL0     H95133   9.970   8.994   9.023 -3.3924  0.8965  0.9994
  705MOL0     H95134   9.819   8.943   8.962 -0.6746  2.9234  0.1920
  705MOL0     H95135   9.818   9.220   8.652 -3.8777 -0.6666 -1.7048
  705MOL0     H95136   9.765   9.546   8.644  0.5608 -0.4985 -4.3937
  705MOL0     H95137   9.696   9.398   8.564  0.0751  0.7847 -1.3741
  705MOL0     H95138   9.589   9.498   8.657  0.2625 -2.2689 -3.5828
  705MOL0     H95139   9.816   9.899   8.836  0.2113 -1.1770  2.0413
  705MOL0     H95140   9.727  10.127   8.854  1.5614 -0.6772  0.7235
  705MOL0     H95141   9.268  10.151   8.851 -0.4085 -1.2357 -1.5208
  705MOL0     H95142   9.315  10.309   8.793 -1.7857 -1.5728 -1.6665
  705MOL0     H95143   9.354  10.064   8.644  0.3378 -1.2275  1.7043
  705MOL0     H95144   9.255  10.209   8.613  0.0609 -0.6656  1.0257
  705MOL0     H95145   9.562  10.188   8.603  2.3649  1.0751 -4.5787
  705MOL0     H95146   9.476  10.336   8.595 -0.0590  0.0578 -0.3961
  705MOL0     H95147   9.455  10.100   8.390 -0.0306 -0.5080 -1.7957
  705MOL0     H95148   9.361  10.248   8.399  1.5679  1.1547 -0.2551
  705MOL0     H95149   9.569  10.382   8.360 -0.5076 -0.8164  0.4552
  705MOL0     H95150   9.530  10.274   8.229 -1.3393 -0.3529  0.0639
  705MOL0     H95151   9.715  10.194   8.451 -2.2928  4.2234  0.8873
  705MOL0     H95152   9.700  10.113   8.289  1.3262 -1.3107  2.6283
  705MOL0     H95153   9.823  10.394   8.356  0.0250 -0.4609 -0.1986
  705MOL0     H95154   9.786  10.368   8.197  0.1720  3.3105  1.7780
  705MOL0     H95155   9.938  10.126   8.231  0.0827 -1.6808  2.7102
  705MOL0     H95156  10.003  10.225   8.360  0.6039  0.5882 -1.0954
  705MOL0     H95157   9.329   9.948   8.875  0.2676  0.9262 -0.1895
  705MOL0     H95158   9.439   9.707   8.877  2.5800 -1.0362 -1.8023
  705MOL0     H95159   9.731   9.390   9.106  1.8184 -0.0845  0.5955
  705MOL0     H95160   9.848   9.176   9.082 -3.0650  1.9681  1.8716
  705MOL0     H95161   8.856   9.284   7.625  0.2018 -1.2038 -0.7946
  705MOL0     H95162   8.774   9.470   7.507  0.9070 -4.1354  0.2891
  705MOL0     H95163   8.786   9.965   7.462  0.1388 -0.9044  0.3585
  705MOL0     H95164   8.751  10.181   7.352 -2.2915  0.2144 -1.1474
  705MOL0     H95165   8.902  10.225   6.930 -1.0751  0.5893  0.4563
  705MOL0     H95166   8.856  10.396   6.969 -2.9616 -1.4013  0.6996
  705MOL0     H95167   9.093  10.220   7.083 -2.2734 -1.7586  0.3505
  705MOL0     H95168   9.051  10.380   7.156  2.6839  0.5171  0.7156
  705MOL0     H95169   9.248  10.416   6.977  1.3755 -0.8193 -2.8024
  705MOL0     H95170   9.110  10.499   6.928 -1.4234 -1.3000  1.4678
  705MOL0     H95171   9.207  10.377   6.744 -0.8012  1.3670  0.2815
  705MOL0     H95172   9.044  10.321   6.775  0.5560  1.5027  1.1002
  705MOL0     H95173   9.259   9.970   6.865  0.0403 -0.2524 -3.7813
  705MOL0     H95174   8.973  10.028   7.011 -0.3518  1.2009  0.3544
  705MOL0     H95175   8.983   9.826   7.108 -0.9131 -0.6071 -0.5178
  706MOL0     O95176  10.538   8.857   8.598  1.3709 -0.5708 -0.1759
  706MOL0     C95177  10.601   8.863   8.493 -0.6635 -0.1352 -0.6049
  706MOL0     O95178  10.548   8.906   8.383 -0.6183  0.0664 -0.0729
  706MOL0     C95179  10.428   8.969   8.372  0.5825  0.2972  1.0645
  706MOL0     C95180  10.424   9.055   8.261 -0.2208  0.8122  0.3671
  706MOL0     C95181  10.311   9.137   8.234  0.2451 -0.3306 -0.1607
  706MOL0     C95182  10.208   9.137   8.330  0.7455  1.1588 -0.5072
  706MOL0     O95183  10.095   9.222   8.317 -0.3551 -0.8148 -0.6321
  706MOL0     C95184  10.033   9.243   8.193  0.7864  0.1573 -0.3338
  706MOL0     C95185   9.947   9.363   8.209  0.3882  0.6665  0.1014
  706MOL0     C95186   9.887   9.407   8.068  0.4586 -0.3954 -1.1811
  706MOL0     C95187   9.805   9.294   8.002  0.2678  0.9626 -0.0502
  706MOL0     C95188   9.722   9.318   7.877 -0.6136 -0.8255  0.0415
  706MOL0     C95189   9.621   9.213   7.838 -0.8796 -0.1113 -0.7818
  706MOL0     C95190   9.522   9.276   7.744  0.1974 -0.4413  0.6442
  706MOL0     C95191   9.585   9.333   7.617  0.4365 -0.1929 -0.0144
  706MOL0     N95192   9.520   9.450   7.579  0.8589 -0.0896 -0.2577
  706MOL0     C95193   9.409   9.453   7.493  0.5511 -0.3801 -0.0634
  706MOL0     C95194   9.381   9.588   7.456 -0.0534  0.9376 -0.1427
  706MOL0     C95195   9.268   9.624   7.375  1.0904  0.1616  0.3553
  706MOL0     C95196   9.278   9.657   7.229  0.3363 -1.2479 -0.5115
  706MOL0     C95197   9.392   9.591   7.162 -0.5222 -0.5583 -0.6067
  706MOL0     C95198   9.375   9.440   7.141 -0.1715  1.5033 -0.1253
  706MOL0     O95199   9.454   9.411   7.025 -0.3124 -0.2007  0.6355
  706MOL0     C95200   9.477   9.282   6.983  0.2119  0.2083  0.5173
  706MOL0     C95201   9.386   9.181   7.011 -0.6452  0.5853  0.2908
  706MOL0     C95202   9.412   9.048   6.980 -0.7168  0.2970 -0.2547
  706MOL0     C95203   9.303   8.948   7.006 -0.5763 -0.0214  0.3673
  706MOL0     C95204   9.538   9.020   6.917 -0.2515  0.0732  0.3131
  706MOL0     C95205   9.582   8.887   6.868 -0.2063 -0.5049  0.1673
  706MOL0     O95206   9.487   8.798   6.839  0.4189 -0.0474  0.2965
  706MOL0     C95207   9.516   8.661   6.831 -0.2440 -1.0011  0.5496
  706MOL0     C95208   9.403   8.580   6.847 -0.3594  0.0858  0.0761
  706MOL0     C95209   9.418   8.441   6.823 -0.7434  0.0247 -1.4959
  706MOL0     C95210   9.535   8.391   6.777  0.2902  0.4501  0.4113
  706MOL0     O95211   9.544   8.253   6.759 -0.4918  0.6597 -0.2981
  706MOL0     C95212   9.631   8.187   6.670 -0.0430 -0.0853 -0.4204
  706MOL0     C95213   9.764   8.158   6.737  0.5327 -0.6915  0.3589
  706MOL0     C95214   9.741   8.071   6.866 -0.0594 -0.1290  0.9860
  706MOL0     C95215   9.846   8.077   6.988 -0.3859  0.4748 -0.4220
  706MOL0     C95216   9.837   8.208   7.068 -0.5240 -0.5534 -0.2366
  706MOL0     C95217   9.877   8.200   7.212 -0.5356 -0.4216 -0.7131
  706MOL0     C95218  10.032   8.167   7.225 -0.0431 -0.0606  0.0952
  706MOL0     C95219  10.040   8.098   7.357 -0.2532  0.2132  0.4893
  706MOL0    Cl95220  10.205   8.078   7.400 -0.3055  0.1818 -0.6029
  706MOL0     C95221   9.649   8.472   6.745 -0.0623 -0.2396 -0.6355
  706MOL0     C95222   9.639   8.610   6.779  0.5787 -0.6620 -0.2788
  706MOL0     O95223   9.707   8.862   6.878 -0.1603 -0.7821  0.0300
  706MOL0     C95224   9.624   9.126   6.882 -0.0527  1.1711 -0.1076
  706MOL0     C95225   9.592   9.249   6.916  0.3008  0.1983  0.0369
  706MOL0     N95226   9.487   9.662   7.512  0.1175 -0.4542 -0.4011
  706MOL0     N95227   9.561   9.578   7.577 -0.1183 -0.5638 -0.5626
  706MOL0     C95228  10.210   9.047   8.437 -0.0027  0.6668 -0.1933
  706MOL0     C95229  10.318   8.968   8.459  0.0355 -0.1920 -0.8317
  706MOL0     C95230  10.741   8.814   8.470 -0.0486  0.4899  0.5669
  706MOL0     C95231  10.816   8.832   8.350 -0.7894  0.2720 -0.4344
  706MOL0     C95232  10.953   8.797   8.357  0.1000 -0.0049  0.2676
  706MOL0     C95233  11.018   8.742   8.466  0.7834  0.1787 -0.4670
  706MOL0     O95234  11.145   8.691   8.449  0.0021 -0.5664  1.2175
  706MOL0     C95235  11.239   8.761   8.533  0.5595  0.2488  0.1303
  706MOL0     C95236  11.360   8.673   8.547  0.2389  0.7180 -0.4441
  706MOL0     C95237  11.480   8.730   8.625  0.6999  0.4646  0.1736
  706MOL0     C95238  11.517   8.645   8.757  0.6451 -0.0473  0.2803
  706MOL0     C95239  11.566   8.517   8.706 -0.1873  0.7334 -0.4773
  706MOL0     C95240  11.604   8.406   8.661  0.7298 -0.3528 -0.5083
  706MOL0     C95241  10.939   8.720   8.579 -0.7238  0.4828 -0.5636
  706MOL0     C95242  10.803   8.754   8.583  1.5808  0.2683  0.6159
  706MOL0     H95243  10.511   9.047   8.197  0.0220 -4.9446  0.8574
  706MOL0     H95244  10.316   9.219   8.163  1.2221  0.3920  0.6961
  706MOL0     H95245  10.112   9.263   8.120 -2.4269  1.9627 -3.6556
  706MOL0     H95246   9.982   9.149   8.168  1.5547 -0.9097  1.7934
  706MOL0     H95247   9.861   9.339   8.272 -0.6021  0.6672 -1.1845
  706MOL0     H95248   9.998   9.447   8.255 -1.8262  1.1832  1.7652
  706MOL0     H95249   9.820   9.492   8.084 -1.0583 -1.7042 -0.3056
  706MOL0     H95250   9.966   9.443   8.002  2.7673  0.4840  1.8663
  706MOL0     H95251   9.883   9.221   7.978  0.1908  1.1355 -0.8502
  706MOL0     H95252   9.738   9.248   8.075 -0.6624 -0.7012 -1.8712
  706MOL0     H95253   9.663   9.410   7.889  2.2256  1.3944 -1.7597
  706MOL0     H95254   9.792   9.329   7.794  0.7924  0.0826  1.2912
  706MOL0     H95255   9.671   9.134   7.781  2.0851 -0.7505  2.4208
  706MOL0     H95256   9.568   9.172   7.924 -0.6613 -1.6459 -1.3438
  706MOL0     H95257   9.447   9.210   7.699  0.2986  1.0190 -1.8833
  706MOL0     H95258   9.473   9.357   7.800 -1.5244 -0.2847 -0.9908
  706MOL0     H95259   9.577   9.254   7.541 -1.7400  0.8128 -0.9247
  706MOL0     H95260   9.691   9.355   7.624  0.6891 -0.6349 -1.9617
  706MOL0     H95261   9.341   9.377   7.458  0.6353 -1.3405  1.7547
  706MOL0     H95262   9.198   9.539   7.377 -1.2117  1.7279 -3.0543
  706MOL0     H95263   9.207   9.705   7.415  0.3033 -1.4620  2.6656
  706MOL0     H95264   9.292   9.765   7.219  1.4728 -0.9631  2.8015
  706MOL0     H95265   9.183   9.634   7.180 -1.0466 -0.4706  1.6838
  706MOL0     H95266   9.488   9.631   7.195 -0.7286  0.3083 -1.0467
  706MOL0     H95267   9.386   9.636   7.063 -0.9461  0.8897  0.0556
  706MOL0     H95268   9.272   9.414   7.116 -0.2118  2.8115 -1.4048
  706MOL0     H95269   9.417   9.380   7.223 -0.9475 -0.5795 -1.1713
  706MOL0     H95270   9.283   9.208   7.033 -1.9340 -2.2604 -1.5785
  706MOL0     H95271   9.229   8.986   7.077  1.1168  3.2976  0.5742
  706MOL0     H95272   9.250   8.942   6.911  0.6551 -0.9353 -0.2847
  706MOL0     H95273   9.343   8.851   7.036  0.4155  0.4652  0.6564
  706MOL0     H95274   9.313   8.631   6.880 -1.1446 -0.9156 -0.4602
  706MOL0     H95275   9.343   8.368   6.854 -1.4932  1.7858  1.1995
  706MOL0     H95276   9.580   8.091   6.655  1.1134 -1.0310  1.4093
  706MOL0     H95277   9.640   8.233   6.571  0.3474 -2.0918 -1.3770
  706MOL0     H95278   9.832   8.104   6.670  0.3225 -1.3562  0.6715
  706MOL0     H95279   9.802   8.257   6.763 -2.2040 -0.3907  3.9543
  706MOL0     H95280   9.735   7.968   6.830  1.0683 -0.7113  2.3384
  706MOL0     H95281   9.646   8.107   6.906 -0.1888  1.0268 -0.3139
  706MOL0     H95282   9.828   7.993   7.055  0.4348 -0.0675 -0.8628
  706MOL0     H95283   9.941   8.047   6.943 -0.0834 -1.6858  1.4906
  706MOL0     H95284   9.735   8.247   7.060 -0.2283 -0.0834 -2.2079
  706MOL0     H95285   9.897   8.283   7.015  0.0453 -1.7536 -1.3812
  706MOL0     H95286   9.839   8.289   7.264 -0.5226  0.5510 -2.2652
  706MOL0     H95287   9.823   8.117   7.256  0.1009 -0.1113  0.6902
  706MOL0     H95288  10.091   8.259   7.220 -0.5626  0.3754  1.3394
  706MOL0     H95289  10.067   8.099   7.148  0.2806  0.8883 -0.6166
  706MOL0     H95290   9.993   7.999   7.355  0.0964  0.0016 -2.8286
  706MOL0     H95291   9.983   8.152   7.434 -0.8844 -0.7791  0.7498
  706MOL0     H95292   9.731   8.419   6.698  2.6709 -2.6185  5.7055
  706MOL0     H95293   9.716   8.680   6.748 -1.2336  3.4977  3.4789
  706MOL0     H95294   9.713   9.109   6.823 -1.4310 -2.9054 -1.3135
  706MOL0     H95295   9.657   9.333   6.891  1.1906 -0.2104  0.9157
  706MOL0     H95296  10.127   9.031   8.505  0.8907 -4.0244  0.0762
  706MOL0     H95297  10.315   8.898   8.542  0.0103 -1.0365 -1.5328
  706MOL0     H95298  10.769   8.874   8.262 -0.4601  0.2696 -0.6127
  706MOL0     H95299  11.014   8.817   8.270 -1.7483  0.0287 -1.0670
  706MOL0     H95300  11.255   8.850   8.470 -1.8782 -0.0048 -0.9496
  706MOL0     H95301  11.201   8.777   8.635  0.1518  1.4348 -0.1872
  706MOL0     H95302  11.394   8.651   8.445  4.6426 -2.4512  1.4231
  706MOL0     H95303  11.328   8.583   8.600 -1.9111  2.6441  1.8081
  706MOL0     H95304  11.459   8.830   8.664  2.4559  0.7657  0.4465
  706MOL0     H95305  11.562   8.744   8.555  0.8422 -4.4860 -0.9846
  706MOL0     H95306  11.439   8.635   8.833  2.2279 -0.0049  1.9848
  706MOL0     H95307  11.602   8.700   8.798  3.1647 -2.2477 -1.6782
  706MOL0     H95308  11.642   8.309   8.638 -2.1968 -1.8136  0.3971
  706MOL0     H95309  10.992   8.664   8.655 -0.5021 -0.4372 -1.3865
  706MOL0     H95310  10.752   8.743   8.678 -1.8110  0.1740 -1.0589
  707MOL0     O95311   3.009   3.168   0.610  0.2117 -0.1698  0.7309
  707MOL0     C95312   3.024   3.187   0.731 -0.1929  0.3384  1.0749
  707MOL0     O95313   2.938   3.146   0.823 -0.0294 -0.1637 -0.5765
  707MOL0     C95314   2.832   3.070   0.782  0.5768  0.4112  0.2647
  707MOL0     C95315   2.707   3.125   0.741 -1.0616 -0.7045 -0.2311
  707MOL0     C95316   2.608   3.035   0.702  0.7377 -0.5771  0.8088
  707MOL0     C95317   2.629   2.892   0.698 -0.1637  0.5286  0.6151
  707MOL0     O95318   2.529   2.807   0.641  0.1789 -0.0333 -0.5881
  707MOL0     C95319   2.525   2.662   0.681 -0.0908  0.3399  0.3753
  707MOL0     C95320   2.483   2.652   0.830 -0.9097  0.8125  0.4038
  707MOL0     C95321   2.468   2.503   0.882  0.6271  0.4886  0.3828
  707MOL0     C95322   2.412   2.494   1.022 -0.2722 -0.8148  0.2052
  707MOL0     C95323   2.409   2.345   1.072 -0.6399 -0.2308  0.2166
  707MOL0     C95324   2.364   2.330   1.218 -0.5111 -0.5110 -0.3009
  707MOL0     C95325   2.355   2.194   1.285  0.1459  0.1277 -0.0525
  707MOL0     C95326   2.497   2.141   1.321  0.0384 -0.5192 -0.2959
  707MOL0     N95327   2.498   2.022   1.402  0.4352 -0.0285  0.0580
  707MOL0     C95328   2.482   1.890   1.361  0.5458  0.8888  1.1612
  707MOL0     C95329   2.472   1.812   1.471 -0.9791  0.0101  0.4379
  707MOL0     C95330   2.465   1.665   1.482  0.3760 -0.0983  0.7673
  707MOL0     C95331   2.342   1.611   1.394 -0.3619  0.4390 -0.2709
  707MOL0     C95332   2.353   1.463   1.365  0.2274 -0.4563 -0.7204
  707MOL0     C95333   2.390   1.365   1.478 -0.4964 -0.4898 -0.1174
  707MOL0     O95334   2.264   1.321   1.535 -0.2376  0.4354  0.0202
  707MOL0     C95335   2.260   1.305   1.670 -0.7964 -0.3174  0.8707
  707MOL0     C95336   2.286   1.394   1.770 -0.4096 -0.3163  0.0846
  707MOL0     C95337   2.257   1.365   1.910  0.3568 -0.4341  0.0706
  707MOL0     C95338   2.240   1.489   2.005 -0.3446 -0.3750  0.5477
  707MOL0     C95339   2.214   1.231   1.932 -0.4702 -0.6129  0.0042
  707MOL0     C95340   2.192   1.171   2.071 -0.7237 -0.0071 -0.0770
  707MOL0     O95341   2.187   1.039   2.090  0.0285 -0.3140 -0.2152
  707MOL0     C95342   2.174   0.993   2.220 -0.0059  0.9085 -0.1592
  707MOL0     C95343   2.077   1.032   2.314 -0.1172  0.2738  0.1042
  707MOL0     C95344   2.070   0.966   2.434 -0.0820  0.8431 -0.5188
  707MOL0     C95345   2.143   0.852   2.456  0.2632  0.4229  0.7125
  707MOL0     O95346   2.113   0.779   2.569 -0.5012  0.7618 -0.4980
  707MOL0     C95347   2.143   0.636   2.579 -0.4274 -0.0592  0.1357
  707MOL0     C95348   2.100   0.578   2.718 -0.5693 -0.6528 -0.2075
  707MOL0     C95349   1.943   0.593   2.738 -0.0204 -0.4341  0.6762
  707MOL0     C95350   1.922   0.544   2.883 -0.9477 -0.7022 -0.3247
  707MOL0     C95351   1.784   0.477   2.908 -0.8941 -0.7833  0.7432
  707MOL0     C95352   1.769   0.423   3.051 -0.3025  0.2877  0.1141
  707MOL0     C95353   1.833   0.285   3.067  0.4509  0.0974  0.2783
  707MOL0     C95354   1.824   0.230   3.207  0.4004  0.3245  0.1293
  707MOL0    Cl95355   1.890   0.073   3.226 -0.0915  0.0262 -0.0739
  707MOL0     C95356   2.233   0.812   2.361  0.5521 -0.2398 -0.2693
  707MOL0     C95357   2.246   0.878   2.242 -0.1612  0.7682 -0.6723
  707MOL0     O95358   2.181   1.251   2.169 -0.3983 -0.0723  0.2671
  707MOL0     C95359   2.183   1.142   1.827 -0.3846 -1.1568 -0.0143
  707MOL0     C95360   2.210   1.182   1.697 -0.1450  1.2073 -0.2443
  707MOL0     N95361   2.488   1.901   1.577 -0.6014 -0.8092 -0.0639
  707MOL0     N95362   2.492   2.022   1.534 -0.0495 -0.7995 -0.2564
  707MOL0     C95363   2.753   2.850   0.747  0.2456 -0.0322 -1.0238
  707MOL0     C95364   2.855   2.932   0.781 -0.1572 -0.5473 -1.1999
  707MOL0     C95365   3.127   3.272   0.780  0.6105 -0.7139 -0.2135
  707MOL0     C95366   3.248   3.282   0.707  0.2326 -0.4750  0.6183
  707MOL0     C95367   3.354   3.358   0.751 -0.0140 -0.2592 -0.2991
  707MOL0     C95368   3.351   3.417   0.881  0.2945  0.7809  0.1939
  707MOL0     O95369   3.459   3.491   0.921 -1.1776 -0.8455  0.2423
  707MOL0     C95370   3.471   3.557   1.044 -0.0502 -0.2641  0.1734
  707MOL0     C95371   3.388   3.686   1.051  0.3456 -0.7184 -0.5710
  707MOL0     C95372   3.416   3.787   0.944  0.1559 -0.1551 -0.5807
  707MOL0     C95373   3.335   3.921   0.979 -0.1725  0.4538  0.5859
  707MOL0     C95374   3.323   4.019   0.865  0.3666  0.1643 -0.4157
  707MOL0     C95375   3.318   4.090   0.764  0.9033 -0.3228 -0.4782
  707MOL0     C95376   3.233   3.400   0.950  0.1233 -0.6650 -0.2753
  707MOL0     C95377   3.126   3.328   0.903  0.0599 -0.5570 -0.3010
  707MOL0     H95378   2.687   3.231   0.746  0.2856 -0.4602  0.6224
  707MOL0     H95379   2.506   3.057   0.670 -0.0054 -3.7010  0.6960
  707MOL0     H95380   2.444   2.622   0.619 -0.0919 -0.8072  1.0889
  707MOL0     H95381   2.621   2.613   0.666  1.6262  2.6886  2.6567
  707MOL0     H95382   2.568   2.698   0.881  0.5915  0.1519 -1.3911
  707MOL0     H95383   2.392   2.707   0.852 -1.2056  0.0065  1.2600
  707MOL0     H95384   2.398   2.458   0.810  0.1119  1.7161  0.0804
  707MOL0     H95385   2.562   2.449   0.884  0.9028  0.9512  0.1837
  707MOL0     H95386   2.470   2.552   1.094  0.0459 -0.8106 -0.0564
  707MOL0     H95387   2.312   2.538   1.029  0.0857  0.1009 -0.2557
  707MOL0     H95388   2.340   2.276   1.024 -0.8602 -0.3944  0.7626
  707MOL0     H95389   2.512   2.308   1.067 -0.5685 -0.1112  0.7195
  707MOL0     H95390   2.438   2.388   1.272  1.2649 -1.8868 -1.1579
  707MOL0     H95391   2.269   2.383   1.232  0.6584  1.2208  1.5853
  707MOL0     H95392   2.301   2.203   1.380 -0.2133  2.7464 -0.4430
  707MOL0     H95393   2.310   2.120   1.218  0.9049  0.3176 -0.7898
  707MOL0     H95394   2.536   2.220   1.386  1.4784  0.5436 -2.3246
  707MOL0     H95395   2.557   2.133   1.230 -2.8802  1.4555 -2.5963
  707MOL0     H95396   2.457   1.852   1.262 -0.3794 -0.8446  2.0089
  707MOL0     H95397   2.561   1.617   1.460 -0.1494 -2.2469  2.6889
  707MOL0     H95398   2.456   1.622   1.582  3.4300 -0.8353  0.8281
  707MOL0     H95399   2.331   1.653   1.294 -7.4508  0.7990  0.1487
  707MOL0     H95400   2.244   1.632   1.438 -1.7941  0.6674 -3.3109
  707MOL0     H95401   2.419   1.452   1.279 -2.3210  1.2154 -3.0532
  707MOL0     H95402   2.255   1.438   1.323 -0.6008 -2.4956  2.1061
  707MOL0     H95403   2.461   1.403   1.552 -0.3275  1.8798 -1.3842
  707MOL0     H95404   2.446   1.287   1.426 -1.5643  0.1362 -2.3354
  707MOL0     H95405   2.324   1.494   1.757 -2.3420  0.7585  1.9919
  707MOL0     H95406   2.142   1.536   1.993  1.3897  3.2519 -0.7126
  707MOL0     H95407   2.279   1.473   2.106 -0.3401  1.7531  0.9295
  707MOL0     H95408   2.310   1.564   1.967  0.8511 -1.2959  0.8683
  707MOL0     H95409   2.005   1.113   2.298  0.8267  1.6743  2.4443
  707MOL0     H95410   2.005   1.007   2.511  0.6480  0.1832  0.4801
  707MOL0     H95411   2.106   0.583   2.491  0.1721 -1.8565  0.9201
  707MOL0     H95412   2.251   0.615   2.580 -0.7587 -2.1755  2.9223
  707MOL0     H95413   2.124   0.472   2.711  3.5602  0.1195  0.2364
  707MOL0     H95414   2.162   0.623   2.796  1.2494 -0.8000 -1.5035
  707MOL0     H95415   1.887   0.524   2.674 -5.1563  2.6205  1.3201
  707MOL0     H95416   1.915   0.698   2.734  1.7430  0.0447 -0.1826
  707MOL0     H95417   1.993   0.468   2.917 -0.4007  0.0575  0.2603
  707MOL0     H95418   1.921   0.632   2.948 -0.6470  0.9401 -2.4682
  707MOL0     H95419   1.774   0.397   2.834  0.7527  2.7304 -3.7650
  707MOL0     H95420   1.712   0.553   2.876  0.6157  0.1538 -0.6338
  707MOL0     H95421   1.816   0.486   3.127 -0.1341  0.8482 -0.4413
  707MOL0     H95422   1.664   0.424   3.082 -1.3839 -0.1432 -3.1542
  707MOL0     H95423   1.932   0.281   3.020 -0.4236 -0.8896 -1.5797
  707MOL0     H95424   1.788   0.217   2.994  2.5019 -2.8443  1.5365
  707MOL0     H95425   1.719   0.233   3.240  0.3486  1.8050 -0.0919
  707MOL0     H95426   1.867   0.297   3.283  1.5915 -0.0385 -0.2147
  707MOL0     H95427   2.287   0.724   2.392 -0.0267 -0.5783 -0.1947
  707MOL0     H95428   2.323   0.842   2.175  0.6607 -2.0642  1.5772
  707MOL0     H95429   2.140   1.043   1.838  3.5565 -2.8242  2.8854
  707MOL0     H95430   2.183   1.109   1.621 -1.2333 -2.2951  3.2211
  707MOL0     H95431   2.761   2.742   0.751 -0.4902 -0.0474  0.7552
  707MOL0     H95432   2.948   2.885   0.812 -0.8362 -1.9190 -1.1459
  707MOL0     H95433   3.246   3.248   0.604 -0.4760 -2.0066  1.0923
  707MOL0     H95434   3.443   3.373   0.691  0.6182 -0.6062  0.5265
  707MOL0     H95435   3.433   3.484   1.116  2.6822 -0.4239  1.6070
  707MOL0     H95436   3.579   3.571   1.055 -0.1572  1.3921 -0.5742
  707MOL0     H95437   3.428   3.737   1.139 -2.6024  0.0501  0.4627
  707MOL0     H95438   3.282   3.660   1.047  0.0456 -0.2546  2.4248
  707MOL0     H95439   3.384   3.737   0.851 -0.9056  2.1080 -1.5010
  707MOL0     H95440   3.524   3.802   0.946  0.6546 -3.0606  2.4821
  707MOL0     H95441   3.387   3.975   1.059 -1.2012 -1.5023  2.6951
  707MOL0     H95442   3.236   3.902   1.022 -2.4045  1.3547 -3.6254
  707MOL0     H95443   3.328   4.162   0.685 -2.2038 -0.3846 -1.0351
  707MOL0     H95444   3.223   3.448   1.047 -0.7875  0.5385 -0.9361
  707MOL0     H95445   3.039   3.316   0.967  1.5851  1.0004  2.2500
  708MOL0     O95446   6.993   1.163  11.183  0.9120 -0.2072  0.2925
  708MOL0     C95447   6.990   1.072  11.102 -0.1625 -0.3066 -0.5908
  708MOL0     O95448   6.958   0.939  11.130  0.0540 -0.5268  0.2420
  708MOL0     C95449   6.898   0.904  11.247  0.2388 -0.0050 -0.2737
  708MOL0     C95450   6.965   0.826  11.344 -0.4780  0.8143  0.1137
  708MOL0     C95451   6.913   0.806  11.476 -0.8724 -0.3998  0.2923
  708MOL0     C95452   6.791   0.851  11.509  0.8875  0.5138 -0.4760
  708MOL0     O95453   6.754   0.827  11.642  0.2314  0.7590 -0.3529
  708MOL0     C95454   6.695   0.932  11.717  0.4447 -0.1634  0.1850
  708MOL0     C95455   6.796   1.051  11.737  0.4116 -0.0506 -0.5466
  708MOL0     C95456   6.907   1.006  11.834 -0.6113 -0.2161  0.2628
  708MOL0     C95457   7.021   1.105  11.858 -0.6309  0.5637 -0.4336
  708MOL0     C95458   7.111   1.049  11.974 -0.7553  0.4375 -0.0483
  708MOL0     C95459   7.247   1.125  11.986 -0.1804 -0.3824  0.2834
  708MOL0     C95460   7.295   1.122  12.131 -0.4331  0.4496 -0.1385
  708MOL0     C95461   7.299   0.972  12.189 -0.1496 -1.1440 -0.3804
  708MOL0     N95462   7.312   0.978  12.338 -0.0904 -0.1354  0.0471
  708MOL0     C95463   7.214   1.023  12.421 -0.4637 -0.6655  1.0988
  708MOL0     C95464   7.273   1.024  12.540 -0.3124  0.7220 -0.2972
  708MOL0     C95465   7.208   1.085  12.658 -0.3454 -0.5067  0.0613
  708MOL0     C95466   7.270   1.230  12.695  0.3711 -0.4223 -0.2649
  708MOL0     C95467   7.419   1.225  12.743  0.2522  0.0110 -0.4608
  708MOL0     C95468   7.445   1.130  12.866 -0.0878 -0.6387  0.0372
  708MOL0     O95469   7.567   1.173  12.934  0.1951 -0.8776  0.6545
  708MOL0     C95470   7.599   1.112  13.048 -0.3688 -0.0540 -0.2018
  708MOL0     C95471   7.516   1.025  13.124  0.4656  0.4625 -0.1045
  708MOL0     C95472   7.561   0.983  13.247 -0.7435 -0.2217 -0.5542
  708MOL0     C95473   7.482   0.899  13.344  0.9837  0.0860  0.1754
  708MOL0     C95474   7.691   1.024  13.288 -0.4998 -1.0121 -1.0500
  708MOL0     C95475   7.756   0.973  13.411 -0.7668 -0.9259 -0.3838
  708MOL0     O95476   7.791   0.832  13.409 -0.1513  0.5587 -0.4811
  708MOL0     C95477   7.894   0.788  13.489 -0.2938  0.3903 -0.0660
  708MOL0     C95478   8.024   0.781  13.447  0.2013 -0.2203  0.9357
  708MOL0     C95479   8.120   0.726  13.528 -0.1797 -0.2298 -0.9814
  708MOL0     C95480   8.090   0.696  13.656  1.0234  0.1405 -0.4955
  708MOL0     O95481   8.194   0.668  13.734 -0.7855 -0.7892 -0.1832
  708MOL0     C95482   8.268   0.788  13.778  0.3449 -0.2076 -0.7856
  708MOL0     C95483   8.299   0.777  13.930  0.3111 -0.1554 -0.2408
  708MOL0     C95484   8.192   0.717  14.021 -0.5044 -0.7207  0.4798
  708MOL0     C95485   8.222   0.759  14.166  0.2747  0.1649  0.3180
  708MOL0     C95486   8.114   0.754  14.278  0.4727  0.4960 -0.2236
  708MOL0     C95487   8.105   0.604  14.329 -0.0765 -0.6040  0.2558
  708MOL0     C95488   7.988   0.602  14.434  0.8917 -0.2172  0.6031
  708MOL0     C95489   7.943   0.464  14.467 -0.3921  0.8376  0.5377
  708MOL0    Cl95490   8.069   0.356  14.516 -0.2475 -0.4235 -0.0512
  708MOL0     C95491   7.954   0.705  13.697 -0.5595  0.0401  0.4502
  708MOL0     C95492   7.858   0.756  13.619  0.0779  0.9224 -0.0903
  708MOL0     O95493   7.799   1.047  13.503  0.2010  0.6576 -0.1999
  708MOL0     C95494   7.772   1.107  13.213 -0.6968 -0.5728 -0.3893
  708MOL0     C95495   7.726   1.154  13.094  0.5058  0.6643  0.0950
  708MOL0     N95496   7.397   0.964  12.533 -0.2180  0.2848 -0.5746
  708MOL0     N95497   7.426   0.953  12.405 -0.7543 -0.2973  0.8665
  708MOL0     C95498   6.715   0.921  11.414 -0.1943 -0.7777  0.5104
  708MOL0     C95499   6.769   0.955  11.287 -0.4592  0.1379  1.0049
  708MOL0     C95500   7.021   1.097  10.959 -0.4830 -0.1871 -1.0734
  708MOL0     C95501   7.076   1.218  10.916  0.4599  0.4252 -0.8153
  708MOL0     C95502   7.083   1.250  10.779  0.5834 -0.8750 -0.6595
  708MOL0     C95503   7.029   1.168  10.683  0.1710  0.1445 -0.2219
  708MOL0     O95504   7.031   1.201  10.550 -0.3005  0.3845 -0.9708
  708MOL0     C95505   7.119   1.303  10.490  0.6872  0.2817 -1.2779
  708MOL0     C95506   7.083   1.322  10.345  0.2834  0.4298 -1.0035
  708MOL0     C95507   7.190   1.405  10.276 -0.9547 -0.1354 -0.1541
  708MOL0     C95508   7.129   1.511  10.183 -0.9227 -0.0324 -0.3162
  708MOL0     C95509   7.058   1.443  10.074  0.0781 -0.2620 -0.4133
  708MOL0     C95510   6.994   1.421   9.969  0.4437  0.5683 -1.2837
  708MOL0     C95511   6.983   1.043  10.723  0.2936 -0.1732  0.6589
  708MOL0     C95512   6.976   1.005  10.859  0.2111 -0.2395  0.3431
  708MOL0     H95513   7.056   0.782  11.306 -1.7380  0.1791 -2.3980
  708MOL0     H95514   6.985   0.754  11.539  1.0381 -1.3011 -2.4437
  708MOL0     H95515   6.608   0.975  11.667  0.8572 -0.8130 -1.1398
  708MOL0     H95516   6.663   0.891  11.814 -2.0106 -0.4400 -0.6616
  708MOL0     H95517   6.844   1.062  11.639  1.2628 -1.8190 -0.3883
  708MOL0     H95518   6.746   1.141  11.773 -0.0020 -0.8351  0.9220
  708MOL0     H95519   6.865   0.979  11.931  0.1678 -1.0966  0.3699
  708MOL0     H95520   6.950   0.916  11.787  1.4561  1.9800 -2.4575
  708MOL0     H95521   7.080   1.120  11.767 -1.4756  0.3180 -1.0279
  708MOL0     H95522   6.992   1.204  11.892 -0.3843  0.8290 -0.9905
  708MOL0     H95523   7.056   1.055  12.068 -1.0866  0.7829 -0.2616
  708MOL0     H95524   7.139   0.944  11.958 -0.2925  0.6149 -0.4241
  708MOL0     H95525   7.325   1.071  11.932 -2.2582 -1.1249 -2.1908
  708MOL0     H95526   7.251   1.232  11.965 -1.3096 -0.4127 -0.1594
  708MOL0     H95527   7.393   1.170  12.124 -0.2112 -0.0288 -0.3954
  708MOL0     H95528   7.225   1.174  12.197 -0.5040  2.1411 -1.4832
  708MOL0     H95529   7.378   0.915  12.140  0.1522 -1.2844  0.2600
  708MOL0     H95530   7.208   0.912  12.177 -1.6175  0.4927  1.6842
  708MOL0     H95531   7.113   1.048  12.390  0.3637 -0.1592 -1.3370
  708MOL0     H95532   7.102   1.099  12.631 -0.0780  0.3650 -0.6047
  708MOL0     H95533   7.211   1.031  12.752  0.5571  1.4993  1.2445
  708MOL0     H95534   7.207   1.287  12.764 -1.4431 -0.9464 -1.3912
  708MOL0     H95535   7.267   1.287  12.602  0.3445 -0.6551 -0.4080
  708MOL0     H95536   7.450   1.324  12.779  2.1655 -1.6492  3.0108
  708MOL0     H95537   7.467   1.189  12.652  0.4682  1.4251 -0.9321
  708MOL0     H95538   7.440   1.027  12.830  0.1658 -0.9885  0.9872
  708MOL0     H95539   7.371   1.156  12.942  1.9621 -1.0869  2.3066
  708MOL0     H95540   7.425   0.986  13.080 -0.9818  1.0812  2.1778
  708MOL0     H95541   7.485   0.921  13.451  0.8832  1.9557 -0.1746
  708MOL0     H95542   7.375   0.903  13.320  0.5780  3.1683  1.9986
  708MOL0     H95543   7.512   0.794  13.334 -0.9875 -0.4023 -1.2703
  708MOL0     H95544   8.040   0.804  13.342  0.2894  1.8654  1.3779
  708MOL0     H95545   8.225   0.722  13.499 -0.0202 -1.5969 -0.3157
  708MOL0     H95546   8.360   0.801  13.720  1.4647 -1.8771  0.5251
  708MOL0     H95547   8.210   0.879  13.758 -1.2266 -1.3966 -1.8625
  708MOL0     H95548   8.381   0.706  13.941  1.1853  0.8371 -0.2651
  708MOL0     H95549   8.330   0.876  13.965 -0.3752 -0.0420  0.0675
  708MOL0     H95550   8.177   0.609  14.013 -3.8353 -0.2326 -1.9935
  708MOL0     H95551   8.094   0.764  14.008  0.2189  1.7555  2.9004
  708MOL0     H95552   8.301   0.693  14.202  1.0377  1.2655  0.7050
  708MOL0     H95553   8.269   0.857  14.177  1.8515 -0.6644  1.2680
  708MOL0     H95554   8.015   0.787  14.243 -2.5183 -2.2742  4.4303
  708MOL0     H95555   8.142   0.813  14.365 -0.2184  1.4232 -0.6070
  708MOL0     H95556   8.084   0.543  14.241 -0.7911 -0.0717  0.0446
  708MOL0     H95557   8.195   0.564  14.377 -0.6223 -4.3510 -1.5148
  708MOL0     H95558   7.904   0.655  14.387 -0.1668 -2.6724 -0.4200
  708MOL0     H95559   8.015   0.666  14.519 -1.3746 -1.2416  2.1765
  708MOL0     H95560   7.899   0.427  14.373 -0.5159  2.1994  0.0342
  708MOL0     H95561   7.867   0.461  14.545 -0.7337  2.6496  0.3287
  708MOL0     H95562   7.937   0.682  13.802  3.9612 -2.2257  0.9077
  708MOL0     H95563   7.755   0.772  13.648 -1.3439 -3.6822 -1.8401
  708MOL0     H95564   7.876   1.119  13.242 -0.6593  2.7365 -1.5281
  708MOL0     H95565   7.793   1.211  13.030 -0.4196 -0.4663 -1.9640
  708MOL0     H95566   6.610   0.936  11.437 -0.3947 -0.6817 -0.4270
  708MOL0     H95567   6.712   1.001  11.207 -1.0051 -4.3616 -1.5024
  708MOL0     H95568   7.113   1.286  10.991 -0.3182 -2.5068  2.5006
  708MOL0     H95569   7.148   1.329  10.742 -1.5156  1.5975  0.6128
  708MOL0     H95570   7.122   1.395  10.549  1.6706 -1.0618  0.8971
  708MOL0     H95571   7.223   1.272  10.504  1.6026  2.8558 -1.9223
  708MOL0     H95572   6.988   1.374  10.333  0.5830  1.5118  0.8962
  708MOL0     H95573   7.072   1.226  10.293 -0.5757 -1.6430  2.6747
  708MOL0     H95574   7.266   1.349  10.222 -0.7732  2.6180 -3.0242
  708MOL0     H95575   7.243   1.454  10.358  3.8510 -0.9758 -2.4269
  708MOL0     H95576   7.214   1.562  10.137  0.7481 -0.6729  1.8939
  708MOL0     H95577   7.068   1.588  10.231 -1.0560 -1.3101  1.6530
  708MOL0     H95578   6.931   1.410   9.884  0.7281 -2.0371 -1.2290
  708MOL0     H95579   6.950   0.972  10.648  1.6503 -0.9221  0.7280
  708MOL0     H95580   6.925   0.911  10.877 -1.1200  0.2320 -0.7692
  709MOL0     O95581   1.898   6.718   1.202 -0.3369  0.3009  0.1428
  709MOL0     C95582   1.873   6.787   1.102 -0.6921  0.1446 -0.8930
  709MOL0     O95583   1.751   6.805   1.050 -0.1392 -0.1326 -0.1659
  709MOL0     C95584   1.647   6.744   1.108 -0.0733  0.2206 -0.1194
  709MOL0     C95585   1.632   6.600   1.106  0.2785 -0.2094  0.6386
  709MOL0     C95586   1.510   6.546   1.152  0.6163  0.7463  0.1911
  709MOL0     C95587   1.401   6.628   1.177  0.9481  0.5400  0.0933
  709MOL0     O95588   1.276   6.579   1.208 -0.1134  0.3338 -0.4619
  709MOL0     C95589   1.246   6.440   1.221 -0.3103 -0.2789  0.3274
  709MOL0     C95590   1.097   6.429   1.241 -0.5653 -0.5207 -0.4833
  709MOL0     C95591   1.087   6.285   1.294  0.0441  0.9536  0.0232
  709MOL0     C95592   0.946   6.237   1.327  0.0161  0.2731  0.1844
  709MOL0     C95593   0.947   6.105   1.408  0.0287 -0.0786  0.1845
  709MOL0     C95594   0.946   6.143   1.560 -0.4890 -0.0986  0.3070
  709MOL0     C95595   0.839   6.068   1.634  0.6132 -0.1235 -0.1314
  709MOL0     C95596   0.852   5.910   1.624 -1.1204 -0.6200 -0.6234
  709MOL0     N95597   0.723   5.846   1.669 -0.1475  0.2961 -0.1766
  709MOL0     C95598   0.695   5.788   1.790 -0.2406  0.6859 -0.6212
  709MOL0     C95599   0.577   5.727   1.774 -0.7833  0.0448  0.2710
  709MOL0     C95600   0.501   5.650   1.877 -0.2543  0.3216 -0.2010
  709MOL0     C95601   0.365   5.717   1.906  0.4743  0.5245 -0.8135
  709MOL0     C95602   0.292   5.632   1.998 -0.1468 -0.1079 -0.0733
  709MOL0     C95603   0.344   5.634   2.141 -0.6293 -1.0960  0.3667
  709MOL0     O95604   0.377   5.769   2.172  0.7517 -0.0489  0.2765
  709MOL0     C95605   0.271   5.858   2.192 -0.2767 -0.1858  0.5266
  709MOL0     C95606   0.134   5.825   2.212  0.9700 -1.0181  0.6640
  709MOL0     C95607   0.028   5.923   2.246  0.1293  0.3144  1.1010
  709MOL0     C95608  -0.115   5.864   2.271  1.3284  0.4179  0.7550
  709MOL0     C95609   0.059   6.061   2.262  0.2887  0.4505 -0.7524
  709MOL0     C95610  -0.037   6.168   2.303 -0.0755  0.0190  0.0337
  709MOL0     O95611   0.034   6.283   2.329 -0.0973 -0.7949  0.5597
  709MOL0     C95612  -0.011   6.402   2.264  0.1888 -1.0353  0.5698
  709MOL0     C95613   0.024   6.528   2.328  0.3182 -0.8331 -0.0216
  709MOL0     C95614  -0.041   6.651   2.282 -0.2426  1.3919 -0.2760
  709MOL0     C95615  -0.126   6.648   2.165 -0.7777  0.1966 -0.0381
  709MOL0     O95616  -0.183   6.765   2.120 -0.1430  0.2222  0.4828
  709MOL0     C95617  -0.077   6.861   2.097  0.3474  0.3251 -0.1188
  709MOL0     C95618  -0.122   6.951   1.983  0.1236  0.2991 -0.2247
  709MOL0     C95619  -0.088   6.905   1.843  0.6251 -0.7522 -0.1099
  709MOL0     C95620  -0.168   6.992   1.746 -0.2955 -0.2235  0.4246
  709MOL0     C95621  -0.138   6.960   1.596 -0.2458  0.9625 -0.0493
  709MOL0     C95622   0.011   6.951   1.548 -0.5793 -1.3336 -0.0790
  709MOL0     C95623  -0.006   6.961   1.387  0.1323  0.1219  0.1193
  709MOL0     C95624   0.133   6.976   1.329  0.4234 -0.3466 -0.2542
  709MOL0    Cl95625   0.120   6.962   1.149 -0.4897 -0.1041 -0.3638
  709MOL0     C95626  -0.161   6.523   2.112 -0.0792  0.0622 -0.1670
  709MOL0     C95627  -0.105   6.400   2.157 -0.2783 -0.1398  0.2755
  709MOL0     O95628  -0.162   6.152   2.287  0.7959  0.2623 -0.1972
  709MOL0     C95629   0.198   6.090   2.249 -0.1370  0.2790  0.7687
  709MOL0     C95630   0.296   5.995   2.213  0.7665 -0.2057  0.1423
  709MOL0     N95631   0.536   5.747   1.651  0.0693 -0.4009  0.0401
  709MOL0     N95632   0.622   5.810   1.588 -0.5192 -0.1603 -0.2544
  709MOL0     C95633   1.419   6.768   1.171  0.4095  0.0881  0.0476
  709MOL0     C95634   1.541   6.829   1.138  0.0544 -0.3574 -0.0284
  709MOL0     C95635   1.988   6.856   1.045  0.4789  0.7790  1.0240
  709MOL0     C95636   2.110   6.857   1.106 -0.0348  0.2216 -0.4927
  709MOL0     C95637   2.204   6.949   1.066  0.1605  0.4160  0.2023
  709MOL0     C95638   2.179   7.031   0.956 -0.1679  0.8904  0.4652
  709MOL0     O95639   2.281   7.118   0.917  0.1249  1.2802  0.2820
  709MOL0     C95640   2.319   7.107   0.780  0.2649  0.2712 -0.5470
  709MOL0     C95641   2.463   7.160   0.757  0.3813 -0.0076  0.2175
  709MOL0     C95642   2.463   7.308   0.728 -0.2343  0.5480  0.2110
  709MOL0     C95643   2.400   7.359   0.599 -0.4647 -0.2226  0.0165
  709MOL0     C95644   2.457   7.298   0.478  0.0734  0.0811  0.2677
  709MOL0     C95645   2.499   7.237   0.378 -0.0504 -0.3417 -0.1021
  709MOL0     C95646   2.060   7.031   0.893  0.3573  0.4539  1.2611
  709MOL0     C95647   1.963   6.935   0.934 -0.0006 -0.4010  0.0374
  709MOL0     H95648   1.705   6.524   1.080  0.2946 -0.3606  1.1080
  709MOL0     H95649   1.496   6.439   1.159 -0.4320  0.5224 -3.4528
  709MOL0     H95650   1.274   6.390   1.128  2.5340  2.4754 -0.4980
  709MOL0     H95651   1.304   6.391   1.301 -0.2451 -0.4287  0.1879
  709MOL0     H95652   1.057   6.505   1.309 -3.6204  1.2007 -3.8547
  709MOL0     H95653   1.040   6.450   1.150 -1.3119  1.3944  0.3572
  709MOL0     H95654   1.125   6.216   1.219  0.9268 -0.1642  1.4448
  709MOL0     H95655   1.147   6.275   1.385 -0.3530  2.4254  0.4813
  709MOL0     H95656   0.891   6.311   1.385  0.6338  0.2165  0.8623
  709MOL0     H95657   0.899   6.215   1.230  1.6360 -1.7896 -0.2191
  709MOL0     H95658   0.865   6.040   1.376  1.4114 -2.8600  1.9122
  709MOL0     H95659   1.024   6.032   1.383 -2.0115 -2.9955  1.8269
  709MOL0     H95660   1.037   6.103   1.606  0.8819 -0.3843 -2.4194
  709MOL0     H95661   0.942   6.249   1.587 -1.2478 -0.5513  2.1004
  709MOL0     H95662   0.842   6.109   1.736  2.1834 -2.0033  0.6306
  709MOL0     H95663   0.742   6.104   1.596  1.4932  0.7900 -1.6135
  709MOL0     H95664   0.931   5.877   1.693 -0.4378 -0.2606 -1.2254
  709MOL0     H95665   0.879   5.878   1.523  1.1652  2.4890 -1.1159
  709MOL0     H95666   0.739   5.773   1.888  0.3542 -0.1742 -1.0071
  709MOL0     H95667   0.480   5.547   1.846 -2.7936  1.2956 -2.0458
  709MOL0     H95668   0.558   5.649   1.970 -2.7883 -1.5408  1.4695
  709MOL0     H95669   0.294   5.713   1.823 -3.1110 -3.5768  2.0791
  709MOL0     H95670   0.378   5.824   1.928 -0.8680  1.2615 -3.2412
  709MOL0     H95671   0.284   5.528   1.964  0.2078  0.4520 -1.9613
  709MOL0     H95672   0.188   5.665   2.004  0.1605  0.6658  1.5158
  709MOL0     H95673   0.432   5.569   2.145  1.4048  1.0880 -3.0161
  709MOL0     H95674   0.270   5.591   2.209  0.7677 -1.9563  1.3919
  709MOL0     H95675   0.107   5.720   2.216  2.4667 -1.4107  1.5261
  709MOL0     H95676  -0.125   5.756   2.279  2.6085  0.0168 -1.9813
  709MOL0     H95677  -0.156   5.921   2.355  2.4043 -0.2519  1.7601
  709MOL0     H95678  -0.174   5.883   2.181  3.0505  1.7334 -0.1648
  709MOL0     H95679   0.098   6.555   2.403  0.9129 -0.3026 -0.7795
  709MOL0     H95680  -0.026   6.743   2.336  3.2179  1.5407 -1.2216
  709MOL0     H95681  -0.065   6.915   2.191 -0.6873 -3.7246  2.5646
  709MOL0     H95682   0.016   6.813   2.065 -0.0734 -0.6237  0.0782
  709MOL0     H95683  -0.230   6.969   1.993  0.2377 -0.2358  3.0112
  709MOL0     H95684  -0.065   7.040   2.012  2.7951 -1.6801  1.0493
  709MOL0     H95685  -0.105   6.797   1.831  1.5882 -0.8642 -0.5570
  709MOL0     H95686   0.020   6.921   1.833  0.3573 -0.1892 -3.0909
  709MOL0     H95687  -0.276   6.981   1.762 -0.7505  1.4393 -1.1289
  709MOL0     H95688  -0.131   7.095   1.754  1.4353 -0.7752 -0.0009
  709MOL0     H95689  -0.193   7.036   1.541  2.6563  1.2108 -2.8993
  709MOL0     H95690  -0.184   6.861   1.586 -0.3705  1.0614 -0.4504
  709MOL0     H95691   0.061   7.040   1.587 -0.3044 -0.6042 -2.0106
  709MOL0     H95692   0.063   6.859   1.577 -2.0361 -2.1109  0.1576
  709MOL0     H95693  -0.072   7.046   1.369 -2.9015 -2.4541 -1.9700
  709MOL0     H95694  -0.048   6.870   1.344  1.6648 -0.7801  0.4747
  709MOL0     H95695   0.198   6.903   1.379 -0.0351 -1.9560 -1.8938
  709MOL0     H95696   0.164   7.079   1.349  2.1956 -1.0722  0.9419
  709MOL0     H95697  -0.229   6.533   2.028 -0.3260 -0.7517 -0.0790
  709MOL0     H95698  -0.143   6.305   2.121  0.3527 -0.7666  1.2008
  709MOL0     H95699   0.237   6.191   2.252  0.6264  0.4166 -4.5372
  709MOL0     H95700   0.399   6.029   2.206  1.1005 -1.3843 -1.4845
  709MOL0     H95701   1.333   6.832   1.190  0.0706 -0.1320 -0.6759
  709MOL0     H95702   1.548   6.936   1.123  3.0739 -0.8271 -3.5764
  709MOL0     H95703   2.134   6.799   1.195 -0.9430 -0.2564 -0.5386
  709MOL0     H95704   2.291   6.977   1.124 -0.4476  4.9644 -0.7061
  709MOL0     H95705   2.323   7.005   0.742  1.1997  1.3560 -3.7183
  709MOL0     H95706   2.242   7.159   0.722  0.6261  0.8774 -0.4970
  709MOL0     H95707   2.502   7.121   0.663  1.8512  2.3008 -0.2270
  709MOL0     H95708   2.520   7.134   0.847 -0.2308  0.1002  0.6383
  709MOL0     H95709   2.568   7.338   0.724 -0.0002 -0.3749 -0.9649
  709MOL0     H95710   2.416   7.367   0.807  2.2966  0.8861  1.5600
  709MOL0     H95711   2.424   7.466   0.605 -0.2937 -0.3418  1.9682
  709MOL0     H95712   2.292   7.356   0.610 -0.3191 -0.7459  1.5024
  709MOL0     H95713   2.529   7.169   0.301 -1.4864 -0.0591 -0.9420
  709MOL0     H95714   2.035   7.100   0.813  0.1310 -2.0246 -0.9598
  709MOL0     H95715   1.865   6.930   0.886 -0.7253  0.0952  1.4059
  710MOL0     O95716   8.527   1.910   3.164 -0.0473  0.0038 -0.4483
  710MOL0     C95717   8.533   1.804   3.104 -0.0004  0.2674  0.1333
  710MOL0     O95718   8.621   1.698   3.125  0.3768 -0.1927  0.2291
  710MOL0     C95719   8.731   1.713   3.210  1.3136 -0.5999  1.0103
  710MOL0     C95720   8.856   1.669   3.172 -0.6307  0.0572  0.4483
  710MOL0     C95721   8.950   1.643   3.259 -0.0601 -0.0615  0.3954
  710MOL0     C95722   8.939   1.700   3.392 -0.4702  0.1815  0.1919
  710MOL0     O95723   9.028   1.676   3.499  0.2573 -0.0242 -0.5993
  710MOL0     C95724   9.168   1.709   3.476  0.7382 -0.1721 -0.0982
  710MOL0     C95725   9.248   1.690   3.602  0.1503 -0.4752 -0.0223
  710MOL0     C95726   9.275   1.548   3.658  0.5240  0.0527 -0.2494
  710MOL0     C95727   9.254   1.539   3.811 -0.2821 -0.3300 -0.4807
  710MOL0     C95728   9.308   1.400   3.860  0.3040  0.5483  1.2801
  710MOL0     C95729   9.217   1.343   3.977  0.8341 -0.3888  0.5639
  710MOL0     C95730   9.066   1.315   3.950 -0.6631  0.9198 -0.4487
  710MOL0     C95731   9.056   1.215   3.830 -0.8151 -0.4814 -0.1763
  710MOL0     N95732   8.917   1.232   3.784  0.6732  0.2877 -0.5233
  710MOL0     C95733   8.868   1.336   3.708 -0.3126  0.5535  0.3983
  710MOL0     C95734   8.737   1.309   3.690  0.1764  0.2771  0.8332
  710MOL0     C95735   8.638   1.394   3.614 -0.1928 -0.0419  0.1875
  710MOL0     C95736   8.595   1.316   3.490 -0.3041 -0.6353 -0.5459
  710MOL0     C95737   8.482   1.396   3.415 -1.3401  0.1083  0.5572
  710MOL0     C95738   8.350   1.434   3.495 -0.7793 -0.1906  0.6734
  710MOL0     O95739   8.249   1.473   3.404 -0.5664  0.2362  0.1014
  710MOL0     C95740   8.234   1.602   3.353  0.2304  0.5508  0.1317
  710MOL0     C95741   8.118   1.622   3.286 -0.1851 -0.5561  0.1669
  710MOL0     C95742   8.072   1.747   3.246 -0.5979 -0.6247 -0.2754
  710MOL0     C95743   7.941   1.748   3.173 -0.8363  0.1104  0.4209
  710MOL0     C95744   8.152   1.861   3.274  0.4332  0.6540 -0.3954
  710MOL0     C95745   8.109   1.997   3.252  0.4283 -0.0782  0.3428
  710MOL0     O95746   8.157   2.076   3.353 -0.0033  0.1212 -0.5073
  710MOL0     C95747   8.134   2.202   3.347 -0.0206 -0.8465  0.0881
  710MOL0     C95748   8.008   2.264   3.363 -0.1184  0.5105 -0.0455
  710MOL0     C95749   7.989   2.395   3.337 -0.2937 -0.5280  0.0338
  710MOL0     C95750   8.098   2.475   3.300  0.2140  0.0680 -1.1433
  710MOL0     O95751   8.097   2.607   3.268 -0.5102 -0.6974  0.2894
  710MOL0     C95752   7.969   2.676   3.237  0.0379 -0.4841  0.2555
  710MOL0     C95753   7.919   2.635   3.092 -0.3929 -0.6352 -0.0027
  710MOL0     C95754   7.769   2.655   3.083 -0.3830 -0.0995 -0.0721
  710MOL0     C95755   7.715   2.802   3.086 -0.3695 -0.5900  0.4398
  710MOL0     C95756   7.566   2.809   3.028  0.3576  1.0118  0.7158
  710MOL0     C95757   7.535   2.939   2.950 -0.0980  0.4664  0.3876
  710MOL0     C95758   7.564   3.067   3.017 -0.3090  1.2364  0.5551
  710MOL0     C95759   7.474   3.177   2.955 -0.4408  0.2040 -1.0093
  710MOL0    Cl95760   7.308   3.175   3.031 -0.0691  0.0125  0.6527
  710MOL0     C95761   8.226   2.417   3.304 -0.6094  0.3165 -0.0233
  710MOL0     C95762   8.245   2.279   3.327 -0.4826  0.0893  0.2522
  710MOL0     O95763   8.036   2.036   3.157  0.0332  0.4044 -0.1684
  710MOL0     C95764   8.274   1.839   3.347  0.1239 -0.1025  0.6210
  710MOL0     C95765   8.312   1.705   3.379  0.2382  0.5625 -0.7011
  710MOL0     N95766   8.709   1.183   3.744  0.0929  0.2706  0.1755
  710MOL0     N95767   8.818   1.148   3.806  0.7353 -0.2812 -0.0571
  710MOL0     C95768   8.815   1.753   3.433 -0.1224  0.0166  0.5857
  710MOL0     C95769   8.708   1.746   3.346 -0.1345  0.4175  0.5260
  710MOL0     C95770   8.425   1.782   2.998  0.0667  0.2377 -1.0855
  710MOL0     C95771   8.359   1.896   2.944 -0.2387  0.1288 -0.5304
  710MOL0     C95772   8.263   1.873   2.843 -0.4986  0.4454 -0.2445
  710MOL0     C95773   8.236   1.735   2.803  0.1782  0.7442  0.5068
  710MOL0     O95774   8.130   1.729   2.714  0.1521 -0.0100  0.2482
  710MOL0     C95775   8.063   1.605   2.693 -0.0608  0.0020  0.1453
  710MOL0     C95776   8.117   1.521   2.583  0.2253  0.3879  0.1738
  710MOL0     C95777   8.114   1.605   2.452  0.4930  0.8283  0.5754
  710MOL0     C95778   8.098   1.513   2.327 -0.5562 -0.2463 -0.4909
  710MOL0     C95779   7.964   1.474   2.297 -0.8508  0.7373 -0.3923
  710MOL0     C95780   7.852   1.444   2.262 -0.3193 -0.0038  0.5722
  710MOL0     C95781   8.311   1.626   2.862 -0.9411 -0.0229  1.4705
  710MOL0     C95782   8.396   1.651   2.968 -0.7987  0.6969 -0.0013
  710MOL0     H95783   8.858   1.623   3.074 -2.8409  2.3654 -0.7833
  710MOL0     H95784   9.044   1.595   3.237 -1.2300 -2.5406  0.5036
  710MOL0     H95785   9.210   1.670   3.383 -1.3151  2.3398 -2.1959
  710MOL0     H95786   9.166   1.817   3.459 -0.0870  0.4805  3.2810
  710MOL0     H95787   9.342   1.742   3.585  0.6563 -1.1515  0.6033
  710MOL0     H95788   9.199   1.741   3.686 -0.6963  0.3201 -0.9774
  710MOL0     H95789   9.214   1.472   3.608  1.1324  1.3528 -3.1951
  710MOL0     H95790   9.379   1.516   3.642  0.6149 -0.7598  1.6854
  710MOL0     H95791   9.315   1.609   3.869  4.8014 -3.5906 -1.3342
  710MOL0     H95792   9.149   1.552   3.841 -0.0194  0.9867 -0.0762
  710MOL0     H95793   9.309   1.323   3.782  4.3100  0.5015  1.1893
  710MOL0     H95794   9.414   1.409   3.884  1.5981 -0.8444 -3.0429
  710MOL0     H95795   9.269   1.249   3.999  0.6159 -0.7690 -0.4753
  710MOL0     H95796   9.223   1.401   4.070  5.6259 -2.3863  1.7929
  710MOL0     H95797   9.017   1.279   4.042  1.5028  2.1427  1.2891
  710MOL0     H95798   9.019   1.408   3.919  0.0932  0.8167 -1.9553
  710MOL0     H95799   9.059   1.110   3.862  3.3247 -0.8411 -1.1767
  710MOL0     H95800   9.127   1.231   3.749  0.6061  1.2397  1.3220
  710MOL0     H95801   8.934   1.408   3.660  0.9575 -0.1195  1.1035
  710MOL0     H95802   8.550   1.431   3.667  0.5036  2.2886 -0.1858
  710MOL0     H95803   8.686   1.488   3.585 -2.2907  0.7166 -0.9929
  710MOL0     H95804   8.553   1.220   3.521  1.2890 -0.8950  0.9859
  710MOL0     H95805   8.679   1.301   3.422 -0.9728 -1.8214 -1.1359
  710MOL0     H95806   8.457   1.339   3.325  0.5496  1.0685 -0.6202
  710MOL0     H95807   8.537   1.485   3.384  0.5974  0.2521  3.8884
  710MOL0     H95808   8.368   1.509   3.572  0.3053  2.0601 -1.6487
  710MOL0     H95809   8.317   1.346   3.552  1.6882 -1.5957  0.0941
  710MOL0     H95810   8.059   1.534   3.260 -0.4459  0.4264 -3.0401
  710MOL0     H95811   7.907   1.644   3.160  2.2228 -0.9342  0.0780
  710MOL0     H95812   7.872   1.788   3.249  0.0607 -1.8831  2.4043
  710MOL0     H95813   7.933   1.803   3.079 -0.6028  2.9645  1.9751
  710MOL0     H95814   7.936   2.194   3.404  0.4564 -2.4814 -3.5510
  710MOL0     H95815   7.891   2.439   3.351  0.4629  1.8544 -1.4815
  710MOL0     H95816   7.886   2.667   3.308 -0.2296 -0.1733 -0.0132
  710MOL0     H95817   7.989   2.784   3.236  1.9915 -0.7999 -1.9783
  710MOL0     H95818   7.972   2.704   3.027  2.6230 -0.7689  2.1107
  710MOL0     H95819   7.951   2.533   3.067  0.4049  0.0999 -2.2664
  710MOL0     H95820   7.734   2.595   3.168  2.0963 -0.0246  1.0879
  710MOL0     H95821   7.726   2.599   2.999  0.0132  1.7219 -1.5525
  710MOL0     H95822   7.722   2.847   3.185  2.7483 -1.1866  0.6075
  710MOL0     H95823   7.787   2.862   3.030 -1.7120  0.8812  0.2197
  710MOL0     H95824   7.502   2.786   3.114  0.7002 -1.7972  0.3226
  710MOL0     H95825   7.563   2.733   2.950  1.1912  0.6397  1.0308
  710MOL0     H95826   7.594   2.936   2.858 -0.4759  2.4939  0.0391
  710MOL0     H95827   7.432   2.932   2.915 -0.7646 -0.5547  2.4114
  710MOL0     H95828   7.668   3.094   2.998  0.4002 -0.9706  1.0183
  710MOL0     H95829   7.533   3.057   3.121 -0.2189  0.3463  0.5041
  710MOL0     H95830   7.455   3.164   2.848 -2.2298 -1.3077 -0.5574
  710MOL0     H95831   7.530   3.271   2.962 -2.0563  1.1312  3.7172
  710MOL0     H95832   8.307   2.485   3.281 -2.4151  3.1938  1.6067
  710MOL0     H95833   8.339   2.226   3.339  0.0487  1.0828  0.5597
  710MOL0     H95834   8.332   1.926   3.376  0.6269 -0.0082 -0.6096
  710MOL0     H95835   8.408   1.680   3.424 -0.7922 -0.9236  0.8043
  710MOL0     H95836   8.787   1.794   3.529 -1.4509  1.7020 -0.4645
  710MOL0     H95837   8.613   1.785   3.381  0.5262  1.8490  0.7973
  710MOL0     H95838   8.387   1.998   2.968  0.9708 -0.0653 -1.0206
  710MOL0     H95839   8.217   1.951   2.783  1.7455  0.8127 -1.5762
  710MOL0     H95840   8.055   1.540   2.781  0.8783  2.8698  2.5036
  710MOL0     H95841   7.962   1.627   2.659  0.0485 -0.5970 -0.6268
  710MOL0     H95842   8.056   1.431   2.576 -0.1291  0.6330  0.0691
  710MOL0     H95843   8.216   1.484   2.608 -0.8576 -0.0807  4.8452
  710MOL0     H95844   8.213   1.649   2.453  0.8158  0.1186  1.6193
  710MOL0     H95845   8.041   1.686   2.443 -1.8098 -1.1688  0.1586
  710MOL0     H95846   8.155   1.419   2.322 -0.3937 -0.1791  0.0107
  710MOL0     H95847   8.131   1.557   2.232  1.6606 -3.3639 -1.3412
  710MOL0     H95848   7.754   1.415   2.229 -0.9883  3.4794 -0.9334
  710MOL0     H95849   8.309   1.522   2.830  2.7549 -0.5345  2.3766
  710MOL0     H95850   8.432   1.562   3.019 -0.3037  1.3015  0.7241
  711MOL0     O95851   1.907  10.617   3.735 -0.0684  0.2145 -0.4805
  711MOL0     C95852   1.968  10.530   3.791  0.2196  0.0796 -1.3604
  711MOL0     O95853   1.995  10.521   3.925  0.0926 -0.5478 -0.1446
  711MOL0     C95854   1.918  10.567   4.028 -0.0787 -0.3028 -0.3615
  711MOL0     C95855   1.953  10.528   4.153 -0.3826 -1.1031 -0.4921
  711MOL0     C95856   1.885  10.574   4.266  0.1172  0.0002 -0.5096
  711MOL0     C95857   1.767  10.651   4.252  0.4923  0.4451  0.5792
  711MOL0     O95858   1.704  10.688   4.367 -0.0280  0.4201  0.2478
  711MOL0     C95859   1.573  10.735   4.364  0.9357 -0.3462 -0.1358
  711MOL0     C95860   1.520  10.750   4.508 -0.0804  0.0511 -0.6007
  711MOL0     C95861   1.420  10.860   4.511  0.0534  0.6087  0.2814
  711MOL0     C95862   1.370  10.883   4.661 -0.3591 -0.9368 -0.2185
  711MOL0     C95863   1.280  10.762   4.704 -0.7052 -0.3516 -0.0036
  711MOL0     C95864   1.174  10.710   4.612 -0.9168  0.6824 -0.7220
  711MOL0     C95865   1.049  10.800   4.604  0.6581 -0.4361 -0.6145
  711MOL0     C95866   0.930  10.727   4.541  0.7963  0.3450 -0.0329
  711MOL0     N95867   0.815  10.806   4.558  0.5986 -0.9250  0.1751
  711MOL0     C95868   0.782  10.915   4.480 -0.4111 -0.9248  0.0226
  711MOL0     C95869   0.653  10.950   4.522  0.3253  0.1183  0.6877
  711MOL0     C95870   0.565  11.049   4.446  0.8415  0.3684  0.0990
  711MOL0     C95871   0.629  11.192   4.446  0.7067 -0.4910 -1.0908
  711MOL0     C95872   0.621  11.245   4.586 -0.0077 -0.2782 -1.0418
  711MOL0     C95873   0.478  11.274   4.644  0.8041  0.4360  1.2309
  711MOL0     O95874   0.406  11.363   4.554  0.1361 -0.0920  0.2724
  711MOL0     C95875   0.274  11.396   4.590  0.2524 -0.5639 -0.1039
  711MOL0     C95876   0.194  11.438   4.481  0.6369 -0.6381 -0.1837
  711MOL0     C95877   0.067  11.493   4.512 -0.3618  0.5028  0.5581
  711MOL0     C95878  -0.018  11.527   4.393  0.0971  0.0249 -0.1478
  711MOL0     C95879   0.024  11.514   4.645 -0.0367  0.9938  0.0918
  711MOL0     C95880  -0.121  11.550   4.691 -0.3275  0.3988 -0.0157
  711MOL0     O95881  -0.144  11.589   4.822 -0.0320  0.5070 -0.5411
  711MOL0     C95882  -0.273  11.577   4.871 -0.2166  0.5744  0.2871
  711MOL0     C95883  -0.358  11.458   4.850 -0.3671 -0.3308 -1.1149
  711MOL0     C95884  -0.483  11.457   4.911  0.4265  0.0213  0.1704
  711MOL0     C95885  -0.534  11.567   4.984  0.9056 -0.7192 -0.5886
  711MOL0     O95886  -0.663  11.551   5.045 -0.4169  0.4247  0.4584
  711MOL0     C95887  -0.705  11.646   5.141  0.0997 -0.3973  0.3057
  711MOL0     C95888  -0.860  11.615   5.159  0.1019  0.1617  0.4478
  711MOL0     C95889  -0.925  11.690   5.285  0.5902  0.4788 -0.3052
  711MOL0     C95890  -1.077  11.725   5.271 -0.1015  0.0354  0.4902
  711MOL0     C95891  -1.136  11.788   5.400  0.0508 -0.1157  0.7775
  711MOL0     C95892  -1.240  11.891   5.371  0.7506 -0.1823  0.2976
  711MOL0     C95893  -1.375  11.839   5.316 -0.0800  0.6841  0.3218
  711MOL0     C95894  -1.429  11.721   5.395 -0.0124 -0.7905 -0.3130
  711MOL0    Cl95895  -1.603  11.700   5.359 -0.0854 -0.0657 -0.3610
  711MOL0     C95896  -0.448  11.669   5.006  0.6323 -0.1612  0.2078
  711MOL0     C95897  -0.320  11.677   4.949  0.3733  0.7358  0.4531
  711MOL0     O95898  -0.212  11.540   4.614  0.0635  0.1602  0.5176
  711MOL0     C95899   0.115  11.483   4.742 -0.1887 -0.0540 -0.1875
  711MOL0     C95900   0.243  11.426   4.715  0.2434 -0.0814  0.1735
  711MOL0     N95901   0.609  10.864   4.617 -0.0909  0.7973  0.3889
  711MOL0     N95902   0.702  10.774   4.640 -0.9586  0.0798 -0.5694
  711MOL0     C95903   1.729  10.691   4.120  0.4020  0.8922 -0.9396
  711MOL0     C95904   1.801  10.642   4.014 -0.3578  0.3456  0.0775
  711MOL0     C95905   2.041  10.430   3.706 -0.2578 -0.0896  0.2902
  711MOL0     C95906   2.021  10.423   3.571  0.4168 -0.1915 -0.4101
  711MOL0     C95907   2.080  10.325   3.498 -0.7943 -0.7429  0.3751
  711MOL0     C95908   2.173  10.228   3.554  0.4703 -0.5972  0.7688
  711MOL0     O95909   2.235  10.140   3.465 -0.0679 -0.5240 -0.1423
  711MOL0     C95910   2.303  10.025   3.516  0.6368  0.9798 -0.1251
  711MOL0     C95911   2.310   9.908   3.410  0.1548 -0.6440 -0.5901
  711MOL0     C95912   2.339   9.944   3.253  0.6811  0.5790 -0.0400
  711MOL0     C95913   2.253   9.849   3.173 -0.1018 -0.2068  0.6373
  711MOL0     C95914   2.274   9.890   3.030  0.6681  0.2466  0.4536
  711MOL0     C95915   2.306   9.928   2.915 -0.1823 -0.6865 -0.2233
  711MOL0     C95916   2.198  10.239   3.690  0.1877 -0.4810  0.1708
  711MOL0     C95917   2.140  10.343   3.764 -0.3860  0.2292 -0.4419
  711MOL0     H95918   2.040  10.465   4.166 -1.2787 -2.5823 -1.3373
  711MOL0     H95919   1.927  10.570   4.366 -1.2870 -0.6911  0.0927
  711MOL0     H95920   1.578  10.825   4.302 -0.2592 -1.0860 -1.3729
  711MOL0     H95921   1.510  10.665   4.307  0.3911 -0.3391  0.4469
  711MOL0     H95922   1.483  10.656   4.551  2.3450 -0.4008  0.7123
  711MOL0     H95923   1.600  10.780   4.577 -0.1892  2.2141 -1.3575
  711MOL0     H95924   1.478  10.947   4.482 -0.3521  0.3886 -1.2631
  711MOL0     H95925   1.331  10.843   4.448  0.8575 -4.7925  0.1276
  711MOL0     H95926   1.442  10.895   4.742 -1.8074 -0.6240  1.0781
  711MOL0     H95927   1.312  10.976   4.662 -0.8047 -1.1485 -2.2230
  711MOL0     H95928   1.355  10.685   4.725 -1.0806 -1.3619 -2.1402
  711MOL0     H95929   1.233  10.800   4.796  2.2695 -1.4613  2.1543
  711MOL0     H95930   1.210  10.685   4.512 -2.9369 -0.8446 -1.1143
  711MOL0     H95931   1.152  10.614   4.658  2.1058  0.2250 -0.0159
  711MOL0     H95932   1.032  10.843   4.702  0.2572 -1.2301 -0.3276
  711MOL0     H95933   1.076  10.882   4.536  1.9313  0.9901  1.5144
  711MOL0     H95934   0.924  10.625   4.581  0.4540 -0.9575 -3.1551
  711MOL0     H95935   0.953  10.709   4.436 -0.5042 -2.8028  0.1089
  711MOL0     H95936   0.844  10.961   4.404 -1.0637 -0.7631 -0.4222
  711MOL0     H95937   0.570  11.033   4.338  0.5184  1.1630 -0.0375
  711MOL0     H95938   0.463  11.050   4.486  0.8099 -3.8803  0.6320
  711MOL0     H95939   0.578  11.259   4.377 -1.3514  3.7565  3.8600
  711MOL0     H95940   0.731  11.177   4.409  0.5247 -0.9044 -1.4336
  711MOL0     H95941   0.677  11.339   4.590  1.4806 -1.1608  1.4677
  711MOL0     H95942   0.672  11.177   4.656 -2.4060 -0.7929  0.2884
  711MOL0     H95943   0.481  11.308   4.748  1.0278 -3.8912  2.8591
  711MOL0     H95944   0.423  11.180   4.660 -1.9871  1.6524 -0.5424
  711MOL0     H95945   0.227  11.434   4.378  2.0264  1.8249  0.1042
  711MOL0     H95946  -0.086  11.447   4.366 -1.5174  1.9019 -2.0496
  711MOL0     H95947  -0.081  11.614   4.416  0.0904 -0.0355  0.0633
  711MOL0     H95948   0.048  11.558   4.311  0.2824  1.0521  0.3710
  711MOL0     H95949  -0.330  11.369   4.796 -3.1896 -1.0264 -1.6117
  711MOL0     H95950  -0.547  11.371   4.891  2.4882 -1.4947 -0.2782
  711MOL0     H95951  -0.656  11.638   5.238  0.6939 -0.2217  0.0235
  711MOL0     H95952  -0.695  11.747   5.100  1.2549  2.0226  5.7416
  711MOL0     H95953  -0.923  11.635   5.071  0.4713 -0.7415 -0.0427
  711MOL0     H95954  -0.884  11.511   5.183  1.1468  0.3085  2.2794
  711MOL0     H95955  -0.870  11.783   5.305  1.4972 -0.5456  2.4499
  711MOL0     H95956  -0.910  11.630   5.375  0.4877  2.6434  1.2550
  711MOL0     H95957  -1.107  11.779   5.181  0.8514 -2.3562 -1.3740
  711MOL0     H95958  -1.122  11.626   5.266 -1.4268  0.6966 -2.8706
  711MOL0     H95959  -1.052  11.842   5.446  0.8257 -2.0044  1.6776
  711MOL0     H95960  -1.175  11.717   5.473 -0.9702  0.4088  0.7575
  711MOL0     H95961  -1.245  11.951   5.462  3.0145 -0.7039  0.8221
  711MOL0     H95962  -1.208  11.961   5.293 -0.2633  0.1690  0.1895
  711MOL0     H95963  -1.359  11.808   5.212  0.6692  0.0178  0.6364
  711MOL0     H95964  -1.452  11.917   5.313 -1.3225 -0.4814 -3.1416
  711MOL0     H95965  -1.415  11.739   5.502  2.4321 -3.0288 -0.1274
  711MOL0     H95966  -1.380  11.626   5.370 -1.0397 -1.6587  0.8371
  711MOL0     H95967  -0.479  11.752   5.069  0.6076 -0.8285  1.0973
  711MOL0     H95968  -0.259  11.766   4.959  0.3506  0.7946  0.0784
  711MOL0     H95969   0.099  11.495   4.848  1.3321 -0.2220  0.0854
  711MOL0     H95970   0.302  11.395   4.801 -0.2601 -0.6599  0.3198
  711MOL0     H95971   1.645  10.753   4.092 -0.8346 -1.4189 -2.6954
  711MOL0     H95972   1.782  10.677   3.913  0.5559  0.6965  0.0146
  711MOL0     H95973   1.978  10.511   3.524  0.4323 -0.5668 -1.1503
  711MOL0     H95974   2.063  10.307   3.392  1.0074 -0.4217 -0.0018
  711MOL0     H95975   2.406  10.049   3.543  2.0992 -1.9497 -2.4230
  711MOL0     H95976   2.258   9.992   3.610 -0.4814  1.8323 -0.3328
  711MOL0     H95977   2.216   9.855   3.427  0.3380 -0.1656  2.5511
  711MOL0     H95978   2.397   9.851   3.445  1.3579  2.0751  1.1774
  711MOL0     H95979   2.442   9.914   3.233 -0.8039 -4.6276 -1.3723
  711MOL0     H95980   2.326  10.045   3.214  0.0669  0.6863  0.4191
  711MOL0     H95981   2.144   9.849   3.186 -0.5710  3.2247 -1.9036
  711MOL0     H95982   2.287   9.746   3.188  2.0437  0.3967  0.2216
  711MOL0     H95983   2.325   9.970   2.819 -1.2879  0.8459  0.1671
  711MOL0     H95984   2.267  10.174   3.743  2.0236  0.6412 -0.7162
  711MOL0     H95985   2.156  10.339   3.871 -0.1748  0.9274 -0.4433
  712MOL0     O95986   8.717   7.923   4.015  0.4290  0.2965  0.3268
  712MOL0     C95987   8.785   7.911   3.913  0.4389 -0.0265  1.1186
  712MOL0     O95988   8.913   7.876   3.911 -0.4038  0.6600 -0.2108
  712MOL0     C95989   8.965   7.866   4.040 -0.4170  0.0144 -0.3203
  712MOL0     C95990   8.966   7.975   4.135 -0.1690 -0.3836  0.0185
  712MOL0     C95991   9.024   7.959   4.264  1.0211 -0.3130 -1.1736
  712MOL0     C95992   9.076   7.833   4.301  0.4431 -0.5482 -0.0901
  712MOL0     O95993   9.134   7.792   4.421 -0.2927  0.1884  0.5120
  712MOL0     C95994   9.197   7.898   4.498 -0.3795  0.4768  0.3879
  712MOL0     C95995   9.308   7.853   4.594 -0.2478  1.1275  0.1402
  712MOL0     C95996   9.394   7.957   4.661 -0.1372  0.9626 -0.0369
  712MOL0     C95997   9.322   8.073   4.722 -0.0756 -0.4916  0.8677
  712MOL0     C95998   9.433   8.183   4.737 -0.1451 -0.3779  0.4135
  712MOL0     C95999   9.375   8.317   4.788  0.0668 -0.7162 -0.5863
  712MOL0     C96000   9.473   8.426   4.783  0.3375 -0.0282 -0.0188
  712MOL0     C96001   9.409   8.556   4.812  0.1587 -0.0057 -0.2766
  712MOL0     N96002   9.390   8.633   4.685  0.5865  0.7867  0.7812
  712MOL0     C96003   9.312   8.589   4.575  0.6248 -0.7944 -0.7890
  712MOL0     C96004   9.329   8.674   4.474 -0.7286 -1.1022  0.9143
  712MOL0     C96005   9.252   8.677   4.345 -0.3673  0.3545 -0.4070
  712MOL0     C96006   9.353   8.664   4.232  0.8582  0.4934  1.2100
  712MOL0     C96007   9.315   8.742   4.105  0.4922  0.7851 -0.0019
  712MOL0     C96008   9.405   8.701   3.993  0.4941  0.6563  0.5263
  712MOL0     O96009   9.409   8.567   3.939  0.1733 -0.2324 -0.5811
  712MOL0     C96010   9.298   8.524   3.884  0.3891  0.1183  0.9060
  712MOL0     C96011   9.284   8.381   3.885 -0.4495 -0.8892 -0.2729
  712MOL0     C96012   9.177   8.312   3.826 -0.1140 -0.1950  0.3285
  712MOL0     C96013   9.173   8.162   3.842  0.5132  0.4645  0.3084
  712MOL0     C96014   9.070   8.396   3.767 -0.0458  0.9449 -0.2702
  712MOL0     C96015   8.937   8.350   3.725  0.2242 -0.7805 -0.0088
  712MOL0     O96016   8.855   8.446   3.666  0.5860 -0.3000  0.2615
  712MOL0     C96017   8.738   8.408   3.607 -1.0161  0.5265  0.3370
  712MOL0     C96018   8.626   8.482   3.637  0.7351  0.6932 -0.4593
  712MOL0     C96019   8.506   8.467   3.566  0.5199 -0.8360  1.0830
  712MOL0     C96020   8.497   8.375   3.455  0.5479 -0.2073  0.0791
  712MOL0     O96021   8.397   8.373   3.362 -0.1713  0.3846  0.5859
  712MOL0     C96022   8.265   8.410   3.401  0.1429  0.1130  0.2752
  712MOL0     C96023   8.165   8.355   3.296  0.4293  0.0518 -0.3741
  712MOL0     C96024   8.013   8.335   3.357  0.6975  0.1000  0.8186
  712MOL0     C96025   7.914   8.319   3.237 -0.2653 -0.6091  0.1849
  712MOL0     C96026   7.920   8.177   3.182 -0.1626  0.1491 -0.4247
  712MOL0     C96027   7.815   8.152   3.071 -0.1320  0.3790  0.6927
  712MOL0     C96028   7.818   8.008   3.018  0.2060  0.5415 -0.5936
  712MOL0     C96029   7.739   7.923   3.111 -0.1572  1.1459  0.2561
  712MOL0    Cl96030   7.735   7.750   3.041  0.0171  0.2343 -0.2705
  712MOL0     C96031   8.601   8.292   3.441 -0.4820  0.4148  0.6425
  712MOL0     C96032   8.726   8.309   3.503  0.4590 -0.9134  0.4330
  712MOL0     O96033   8.907   8.233   3.741 -0.1233 -0.2261  0.1374
  712MOL0     C96034   9.096   8.534   3.752 -0.7848  0.6336  0.1980
  712MOL0     C96035   9.205   8.595   3.817  0.3555 -0.3574  0.0854
  712MOL0     N96036   9.415   8.777   4.524  0.0474 -0.7051 -0.7561
  712MOL0     N96037   9.454   8.742   4.647 -0.4416 -0.1455 -0.5856
  712MOL0     C96038   9.088   7.733   4.206  0.4040 -0.4898  0.5223
  712MOL0     C96039   9.026   7.753   4.077 -0.3017 -0.4293  0.4426
  712MOL0     C96040   8.710   7.923   3.788  0.6945  0.1995  1.1361
  712MOL0     C96041   8.772   7.888   3.666 -0.2310 -0.9116 -0.0280
  712MOL0     C96042   8.696   7.884   3.545 -0.0190 -0.6756 -1.0969
  712MOL0     C96043   8.563   7.907   3.547 -0.5722 -0.5531  0.6399
  712MOL0     O96044   8.484   7.884   3.435 -0.1630  0.0139 -0.8064
  712MOL0     C96045   8.411   7.759   3.432  0.0932  0.3139 -0.5238
  712MOL0     C96046   8.507   7.643   3.400  0.0298  0.0895 -0.5832
  712MOL0     C96047   8.544   7.658   3.252 -0.1103 -0.7889  0.1037
  712MOL0     C96048   8.648   7.571   3.196 -0.2502  0.6259 -0.1359
  712MOL0     C96049   8.678   7.580   3.050 -0.2532  0.0716  0.3101
  712MOL0     C96050   8.703   7.541   2.936  0.6102  0.1695 -0.5058
  712MOL0     C96051   8.509   7.953   3.663  0.9760 -0.0394 -0.4081
  712MOL0     C96052   8.581   7.963   3.787  0.4214  0.7182 -0.0776
  712MOL0     H96053   8.924   8.070   4.104  0.3614 -0.5247 -1.1914
  712MOL0     H96054   9.022   8.041   4.336 -1.2785 -1.2152 -0.0889
  712MOL0     H96055   9.252   7.960   4.427  0.4447  0.4895  1.0100
  712MOL0     H96056   9.128   7.973   4.539  0.6405  1.8365 -0.3290
  712MOL0     H96057   9.255   7.795   4.670  3.4021  0.0358  2.1030
  712MOL0     H96058   9.376   7.791   4.533  0.1168  1.5392  0.1223
  712MOL0     H96059   9.470   7.918   4.729  1.8622  3.4536 -0.6700
  712MOL0     H96060   9.461   8.002   4.587  0.8816  2.3514  1.6369
  712MOL0     H96061   9.237   8.117   4.669  0.0156  1.1844  2.0199
  712MOL0     H96062   9.286   8.054   4.824 -0.5665 -0.9532  0.6114
  712MOL0     H96063   9.506   8.140   4.806 -0.9298 -0.3252  1.3078
  712MOL0     H96064   9.486   8.208   4.645  0.4266 -1.5278  0.4142
  712MOL0     H96065   9.296   8.339   4.716 -3.7865  0.2612  3.5218
  712MOL0     H96066   9.333   8.306   4.888  2.7461  2.5582  1.0877
  712MOL0     H96067   9.552   8.412   4.858  1.9030 -0.8903 -1.7386
  712MOL0     H96068   9.521   8.443   4.686  0.0100  2.6844  0.2171
  712MOL0     H96069   9.473   8.612   4.882  0.2120  0.7823 -0.9346
  712MOL0     H96070   9.311   8.539   4.857  0.6206 -1.4497  0.2450
  712MOL0     H96071   9.257   8.495   4.570 -1.2684  0.1570  0.7762
  712MOL0     H96072   9.173   8.603   4.327  0.2640 -0.2385 -0.8348
  712MOL0     H96073   9.211   8.778   4.339  2.3547  1.9124  3.1827
  712MOL0     H96074   9.372   8.558   4.211  1.3994  0.8426 -0.2007
  712MOL0     H96075   9.456   8.697   4.247  1.5272 -1.2921  0.8544
  712MOL0     H96076   9.328   8.849   4.119 -2.2429  1.4608 -1.8366
  712MOL0     H96077   9.212   8.716   4.077  1.0027 -1.6175  0.1573
  712MOL0     H96078   9.507   8.726   4.023 -0.1951  3.3418  0.9156
  712MOL0     H96079   9.378   8.764   3.908  1.5065  0.6826  0.2235
  712MOL0     H96080   9.360   8.318   3.928  1.7640  2.7720  1.6953
  712MOL0     H96081   9.124   8.115   3.756  0.6158 -1.4711  1.2537
  712MOL0     H96082   9.268   8.111   3.860 -0.0144 -2.4606 -3.7104
  712MOL0     H96083   9.122   8.132   3.934  0.1543  1.4667  0.4455
  712MOL0     H96084   8.634   8.566   3.705 -1.5174  2.5882 -2.3638
  712MOL0     H96085   8.418   8.521   3.601  1.4814  0.8976  0.9336
  712MOL0     H96086   8.247   8.364   3.499  1.8787  0.1423  0.6459
  712MOL0     H96087   8.260   8.519   3.404 -0.0520  0.0903  1.1490
  712MOL0     H96088   8.145   8.427   3.216 -0.3746  1.2188  0.8083
  712MOL0     H96089   8.198   8.263   3.248 -0.2456 -1.2324  1.5104
  712MOL0     H96090   7.983   8.428   3.407  0.2753  0.6658 -0.4413
  712MOL0     H96091   8.003   8.251   3.426  0.1885  1.5691  2.6291
  712MOL0     H96092   7.811   8.346   3.260  0.3640  2.3096 -0.0600
  712MOL0     H96093   7.944   8.387   3.156 -0.8260  2.5344  2.4264
  712MOL0     H96094   7.916   8.114   3.271  0.8124  3.5372  2.2539
  712MOL0     H96095   8.015   8.164   3.128  1.5783 -0.3637  2.5571
  712MOL0     H96096   7.712   8.188   3.084 -0.2612  0.0924  0.4655
  712MOL0     H96097   7.842   8.210   2.982 -0.9108 -0.2106  0.0617
  712MOL0     H96098   7.916   7.966   2.994  1.2730  1.2280  2.1628
  712MOL0     H96099   7.760   8.018   2.925 -1.8018  0.0929  0.5541
  712MOL0     H96100   7.639   7.961   3.134 -1.1110 -0.9616 -0.1817
  712MOL0     H96101   7.785   7.918   3.211  3.0776 -1.4662 -1.1795
  712MOL0     H96102   8.593   8.209   3.371  1.4186  1.4992 -0.9912
  712MOL0     H96103   8.811   8.250   3.470  0.7126  1.4510 -3.7090
  712MOL0     H96104   9.025   8.593   3.695  0.2386  2.3265  0.6180
  712MOL0     H96105   9.205   8.702   3.796 -2.5606 -0.0358  1.2800
  712MOL0     H96106   9.144   7.642   4.226  2.1004  0.4603  0.2907
  712MOL0     H96107   9.041   7.682   3.996  2.0544 -0.8665  1.1578
  712MOL0     H96108   8.878   7.865   3.666  0.0003 -0.0234  1.9688
  712MOL0     H96109   8.748   7.853   3.456  0.1867 -1.6869 -0.6402
  712MOL0     H96110   8.347   7.747   3.519 -0.5877 -0.0794 -1.0713
  712MOL0     H96111   8.339   7.769   3.351 -0.1593  1.0558 -0.2205
  712MOL0     H96112   8.460   7.548   3.425  0.3437  0.4839  1.7798
  712MOL0     H96113   8.595   7.645   3.466 -0.1217 -1.4277 -0.3161
  712MOL0     H96114   8.584   7.759   3.240  2.1921 -1.7586 -1.0567
  712MOL0     H96115   8.454   7.644   3.190 -0.0840  0.9421 -0.3886
  712MOL0     H96116   8.626   7.467   3.223  0.5621  0.0069 -1.7396
  712MOL0     H96117   8.744   7.595   3.243  0.0163 -2.7870  1.4238
  712MOL0     H96118   8.734   7.514   2.837  1.7219 -0.5566  0.0185
  712MOL0     H96119   8.402   7.970   3.666  0.7723 -1.2695  0.7063
  712MOL0     H96120   8.529   7.995   3.877  3.3484  0.1132  1.9562
  713MOL0     O96121  10.004   8.197   2.446  0.3702  0.4479 -0.2329
  713MOL0     C96122  10.044   8.191   2.564  0.6975  0.2262 -0.4676
  713MOL0     O96123  10.131   8.268   2.628 -0.4185 -0.0037  0.0888
  713MOL0     C96124  10.178   8.386   2.573  0.1835 -0.1033  0.0253
  713MOL0     C96125  10.101   8.473   2.489  0.0042  0.1924  0.3589
  713MOL0     C96126  10.168   8.583   2.435 -0.4419  0.1521  0.9114
  713MOL0     C96127  10.297   8.621   2.474  0.5332  0.0787  0.3423
  713MOL0     O96128  10.369   8.730   2.422 -0.6967  0.4569  0.2772
  713MOL0     C96129  10.297   8.836   2.370 -0.2968 -0.4370  0.6091
  713MOL0     C96130  10.379   8.961   2.346  0.3903  0.0916 -0.3613
  713MOL0     C96131  10.275   9.073   2.304 -0.8994 -0.7521 -0.1651
  713MOL0     C96132  10.336   9.208   2.281  0.3819  0.6004 -0.2415
  713MOL0     C96133  10.242   9.281   2.183  0.6383 -0.3255  0.3107
  713MOL0     C96134  10.259   9.432   2.186  0.6802 -0.4368 -0.2241
  713MOL0     C96135  10.161   9.513   2.099 -1.0698  0.1989 -0.4605
  713MOL0     C96136  10.016   9.520   2.147 -0.3652  0.3490  0.3499
  713MOL0     N96137   9.940   9.603   2.053  0.6054  0.0239 -0.2136
  713MOL0     C96138   9.857   9.557   1.959  0.1476  0.2402 -0.5447
  713MOL0     C96139   9.778   9.661   1.921  0.2060  0.4098  0.1858
  713MOL0     C96140   9.689   9.665   1.809  0.1559 -0.2384  0.0251
  713MOL0     C96141   9.617   9.800   1.791  0.6886  0.2492 -0.3618
  713MOL0     C96142   9.711   9.914   1.748 -0.0892 -0.6770 -1.0546
  713MOL0     C96143   9.717   9.930   1.597 -0.0387 -0.2317  0.1771
  713MOL0     O96144   9.584   9.967   1.556  1.1929  0.1268  0.3909
  713MOL0     C96145   9.543  10.097   1.543 -0.0469  0.7800  0.2381
  713MOL0     C96146   9.415  10.109   1.490 -0.4588  0.5782  0.1192
  713MOL0     C96147   9.366  10.237   1.459  0.0432 -0.2830 -0.4675
  713MOL0     C96148   9.223  10.243   1.414  0.9501 -0.9753 -1.1450
  713MOL0     C96149   9.435  10.359   1.494 -1.1351  0.7290  0.9882
  713MOL0     C96150   9.405  10.508   1.464  0.2018  0.0712 -0.1980
  713MOL0     O96151   9.337  10.535   1.356  0.0771  0.2848  0.8738
  713MOL0     C96152   9.294  10.668   1.340 -0.2959  1.1820 -0.0900
  713MOL0     C96153   9.163  10.703   1.334  0.6473 -0.6327 -1.0087
  713MOL0     C96154   9.120  10.828   1.293  0.1975  1.8333  0.5037
  713MOL0     C96155   9.199  10.933   1.274  0.1531 -0.6234  0.0754
  713MOL0     O96156   9.161  11.063   1.234 -0.3224 -0.3689 -0.2472
  713MOL0     C96157   9.103  11.082   1.107  0.1666 -0.2879  0.3968
  713MOL0     C96158   8.950  11.092   1.127 -0.0274  0.2323 -0.3011
  713MOL0     C96159   8.888  11.123   0.989  0.8256 -0.1945  0.4734
  713MOL0     C96160   8.736  11.142   1.006 -0.1973 -0.0886 -0.7463
  713MOL0     C96161   8.672  11.161   0.868 -0.8700  0.2520  0.7235
  713MOL0     C96162   8.551  11.264   0.884  0.5833 -0.1890 -0.4499
  713MOL0     C96163   8.599  11.416   0.869  0.6077  0.7595  0.2579
  713MOL0     C96164   8.484  11.502   0.901 -0.7304 -0.6758  0.1463
  713MOL0    Cl96165   8.536  11.668   0.890 -0.3096 -0.3069  0.3955
  713MOL0     C96166   9.334  10.906   1.288  0.0493 -0.3808  0.4706
  713MOL0     C96167   9.377  10.779   1.311  0.0836  0.5010  0.2946
  713MOL0     O96168   9.428  10.585   1.562 -0.5732  0.1169  0.5019
  713MOL0     C96169   9.561  10.337   1.552  0.4963  0.7796  0.2459
  713MOL0     C96170   9.609  10.206   1.580 -0.8957  0.2277 -0.1382
  713MOL0     N96171   9.827   9.767   1.991 -0.5170 -1.0093  1.3937
  713MOL0     N96172   9.921   9.735   2.073  0.5830  0.2071 -0.0671
  713MOL0     C96173  10.356   8.547   2.572 -0.7220  0.1758 -0.8052
  713MOL0     C96174  10.300   8.430   2.629  0.1918  0.1073  0.5530
  713MOL0     C96175   9.976   8.095   2.660 -0.3523  0.2020 -0.9109
  713MOL0     C96176   9.878   8.006   2.619  0.0156  0.8460  0.1838
  713MOL0     C96177   9.852   7.887   2.695  0.8744 -0.3611  0.0854
  713MOL0     C96178   9.889   7.875   2.825 -0.6749  1.3077 -0.3465
  713MOL0     O96179   9.833   7.776   2.900  0.8411 -0.1794  0.2660
  713MOL0     C96180   9.831   7.803   3.043  0.0414 -0.0517 -0.3449
  713MOL0     C96181   9.746   7.711   3.114 -0.1435  0.9815  0.1043
  713MOL0     C96182   9.765   7.702   3.276 -0.2766  0.7881  0.8569
  713MOL0     C96183   9.745   7.845   3.333 -0.1956 -0.1677  0.3989
  713MOL0     C96184   9.657   7.840   3.448  1.2648 -0.6873  0.4164
  713MOL0     C96185   9.573   7.826   3.538 -0.2315  0.0986 -0.0600
  713MOL0     C96186   9.980   7.971   2.868  0.0504 -0.5420 -0.2853
  713MOL0     C96187  10.036   8.073   2.789 -0.0047 -0.0166  0.0590
  713MOL0     H96188   9.997   8.451   2.463 -0.0318  0.3559  0.3653
  713MOL0     H96189  10.101   8.637   2.368  0.3878  0.7541  0.5520
  713MOL0     H96190  10.260   8.796   2.275  1.7720  0.4662 -0.6326
  713MOL0     H96191  10.211   8.851   2.437 -0.7343 -1.4212  0.2913
  713MOL0     H96192  10.434   8.993   2.434 -0.6751 -0.1917  0.4318
  713MOL0     H96193  10.442   8.925   2.264 -0.5685  0.7040 -1.3993
  713MOL0     H96194  10.231   9.033   2.212 -1.4693 -2.3504  0.7668
  713MOL0     H96195  10.185   9.073   2.366 -2.4394  1.1177 -2.2665
  713MOL0     H96196  10.341   9.270   2.370  0.8115  1.8769 -1.1237
  713MOL0     H96197  10.436   9.206   2.236  0.6888 -0.3040  0.4522
  713MOL0     H96198  10.255   9.235   2.085  0.5408 -1.8221  0.9641
  713MOL0     H96199  10.144   9.256   2.224  0.8557  0.8802  1.6727
  713MOL0     H96200  10.261   9.466   2.290  3.0137 -0.1362 -0.3258
  713MOL0     H96201  10.358   9.461   2.152  0.2777  1.1306 -0.1612
  713MOL0     H96202  10.187   9.617   2.076 -0.0117  0.0158 -0.1562
  713MOL0     H96203  10.170   9.466   2.001  3.0162 -0.8278  0.2056
  713MOL0     H96204  10.024   9.560   2.248  0.9945  0.2275  0.3003
  713MOL0     H96205   9.964   9.424   2.151 -0.2938  0.1443 -1.8906
  713MOL0     H96206   9.852   9.458   1.915  2.2689 -1.7888  3.2744
  713MOL0     H96207   9.747   9.654   1.718  2.2846  2.1530  0.9860
  713MOL0     H96208   9.623   9.577   1.809  1.2946 -1.1195 -0.7903
  713MOL0     H96209   9.574   9.835   1.885 -1.2983 -3.5168  0.3467
  713MOL0     H96210   9.539   9.784   1.716  1.2728 -2.5051 -0.5146
  713MOL0     H96211   9.811   9.912   1.793 -0.7126  1.9411  0.6461
  713MOL0     H96212   9.672  10.011   1.781  0.3303  0.1083 -2.7668
  713MOL0     H96213   9.750   9.832   1.562 -0.6709 -0.7748  1.0695
  713MOL0     H96214   9.791  10.005   1.568 -2.0137  1.9178  0.3957
  713MOL0     H96215   9.357  10.022   1.461  1.1238  0.5682 -3.6522
  713MOL0     H96216   9.154  10.259   1.496  3.3120 -0.0586  0.8027
  713MOL0     H96217   9.194  10.314   1.336 -2.1556 -1.0124 -0.1627
  713MOL0     H96218   9.204  10.147   1.365 -3.3353  1.0271 -4.0086
  713MOL0     H96219   9.087  10.627   1.353 -2.8574  2.6744 -0.6097
  713MOL0     H96220   9.011  10.836   1.288  0.1218  1.1074  0.8979
  713MOL0     H96221   9.133  11.179   1.064  1.4244 -0.1942  1.4214
  713MOL0     H96222   9.125  10.990   1.051 -0.0595 -1.0932  1.5982
  713MOL0     H96223   8.910  10.994   1.152 -1.0114  0.6850 -0.0777
  713MOL0     H96224   8.919  11.163   1.204 -3.0721 -0.0820 -1.1133
  713MOL0     H96225   8.893  11.035   0.924 -0.4786 -0.2340  0.3985
  713MOL0     H96226   8.943  11.200   0.934  2.1212 -0.6851  1.0286
  713MOL0     H96227   8.684  11.061   1.058  0.0802 -0.7879 -1.5395
  713MOL0     H96228   8.722  11.229   1.071 -1.2004 -0.3752 -0.5702
  713MOL0     H96229   8.618  11.069   0.844 -1.2780  0.1655  1.8934
  713MOL0     H96230   8.742  11.180   0.786 -1.2710  1.4189  0.6305
  713MOL0     H96231   8.488  11.258   0.794 -0.0434  0.4656 -0.0645
  713MOL0     H96232   8.483  11.247   0.968 -1.4998  1.5037 -1.6798
  713MOL0     H96233   8.637  11.446   0.771  2.7717 -1.3823  0.3336
  713MOL0     H96234   8.683  11.439   0.936  1.8697  0.1160 -1.0318
  713MOL0     H96235   8.447  11.469   0.998  0.6042 -2.6010  0.0570
  713MOL0     H96236   8.400  11.492   0.831 -0.5078  2.7769 -0.8084
  713MOL0     H96237   9.409  10.983   1.273 -0.7533  0.2316 -0.5325
  713MOL0     H96238   9.486  10.776   1.307  0.0758  0.5538  0.0025
  713MOL0     H96239   9.616  10.426   1.581  1.7680  0.6304 -1.5593
  713MOL0     H96240   9.708  10.199   1.623 -1.1132 -1.7985  0.1229
  713MOL0     H96241  10.444   8.575   2.629 -1.8054 -4.5290  3.9644
  713MOL0     H96242  10.353   8.380   2.709 -1.1420 -3.3707 -0.5080
  713MOL0     H96243   9.829   8.023   2.524  0.2276 -2.1583 -0.5345
  713MOL0     H96244   9.787   7.814   2.648  1.3369 -0.0459 -1.0716
  713MOL0     H96245   9.936   7.808   3.073 -0.6182  1.0433  2.0840
  713MOL0     H96246   9.797   7.906   3.060  1.5947  0.1320  2.1180
  713MOL0     H96247   9.741   7.611   3.072  0.3851  1.0669 -0.1671
  713MOL0     H96248   9.641   7.740   3.100 -0.0729  1.7698  1.0351
  713MOL0     H96249   9.864   7.666   3.308 -0.2196 -0.7492 -0.8489
  713MOL0     H96250   9.694   7.629   3.316  1.6654 -1.9625 -0.4163
  713MOL0     H96251   9.704   7.912   3.256  0.4638 -0.5146 -0.2599
  713MOL0     H96252   9.833   7.888   3.382 -0.3008  0.9821 -0.3748
  713MOL0     H96253   9.496   7.823   3.613 -0.3983 -0.3400 -0.2462
  713MOL0     H96254   9.996   7.975   2.976  1.1718  1.6114 -0.4763
  713MOL0     H96255  10.116   8.135   2.827 -1.0887  1.6456 -0.2465
  714MOL0     O96256   6.697   7.294   3.154  0.3891 -0.6895  0.3288
  714MOL0     C96257   6.661   7.280   3.039  0.4970 -1.3857  0.7734
  714MOL0     O96258   6.576   7.179   2.992 -0.4694 -0.1423 -0.2483
  714MOL0     C96259   6.519   7.096   3.083  0.6988 -0.6913  0.1613
  714MOL0     C96260   6.381   7.071   3.069  0.0339 -0.1623 -0.7481
  714MOL0     C96261   6.306   7.003   3.173 -0.0847  0.1664 -0.0896
  714MOL0     C96262   6.372   6.952   3.289 -0.4608 -0.6289 -0.0427
  714MOL0     O96263   6.303   6.904   3.395 -0.3960 -0.1243 -0.2259
  714MOL0     C96264   6.347   6.948   3.530  1.4174 -0.1179 -0.0666
  714MOL0     C96265   6.251   6.910   3.650 -1.0675  0.1488 -0.2403
  714MOL0     C96266   6.240   6.764   3.685 -0.6211 -0.0186  0.7844
  714MOL0     C96267   6.131   6.734   3.789  0.1655 -0.0195  0.5336
  714MOL0     C96268   6.102   6.583   3.801 -0.2010 -0.7561  0.3294
  714MOL0     C96269   6.044   6.513   3.678 -0.0882 -0.4208  0.4284
  714MOL0     C96270   5.992   6.367   3.723  0.4295  0.2533  0.3731
  714MOL0     C96271   5.906   6.355   3.845  0.4425  0.5427  1.1311
  714MOL0     N96272   5.872   6.213   3.874 -0.7018 -0.1123 -0.0400
  714MOL0     C96273   5.903   6.139   3.990  0.0168 -0.0667 -0.4822
  714MOL0     C96274   5.828   6.026   3.987 -0.1449 -0.8016 -0.0349
  714MOL0     C96275   5.813   5.919   4.092 -0.4150  0.4819  0.7548
  714MOL0     C96276   5.946   5.870   4.117  0.5383  0.7429  0.1725
  714MOL0     C96277   5.944   5.738   4.189  0.5502  0.8209  0.0853
  714MOL0     C96278   6.086   5.688   4.201 -0.2714 -1.0246  0.7851
  714MOL0     O96279   6.078   5.541   4.212  0.1111  0.0274  0.1695
  714MOL0     C96280   6.183   5.459   4.191  0.8552 -0.2812 -0.2269
  714MOL0     C96281   6.156   5.324   4.178  0.1976  0.5273 -0.0674
  714MOL0     C96282   6.253   5.222   4.172 -0.3488  1.2980 -0.2242
  714MOL0     C96283   6.201   5.081   4.148  0.8725  0.8686  0.5934
  714MOL0     C96284   6.390   5.261   4.180 -0.1746 -0.6184  0.9543
  714MOL0     C96285   6.505   5.166   4.169  0.5347  0.1164  0.7168
  714MOL0     O96286   6.622   5.225   4.168 -1.3900 -0.6116 -0.2587
  714MOL0     C96287   6.740   5.149   4.159  0.5709 -0.4298 -0.3031
  714MOL0     C96288   6.756   5.019   4.093 -0.0492 -0.2446 -0.2490
  714MOL0     C96289   6.882   4.962   4.071 -0.3925  0.3317  0.3883
  714MOL0     C96290   6.999   5.013   4.128  0.1950 -0.3892  0.1050
  714MOL0     O96291   7.111   4.949   4.093  0.3112 -0.3824 -0.4120
  714MOL0     C96292   7.234   5.023   4.096 -0.5572 -0.0136  0.2100
  714MOL0     C96293   7.321   4.951   4.008 -0.0403  0.3252 -0.6351
  714MOL0     C96294   7.466   4.986   4.028 -0.0510  0.0775  0.3773
  714MOL0     C96295   7.527   4.889   4.138 -0.8962 -0.8927  0.1348
  714MOL0     C96296   7.574   4.757   4.090  0.6785  0.2215 -0.3504
  714MOL0     C96297   7.593   4.680   4.215  0.2198 -0.6780  0.2885
  714MOL0     C96298   7.629   4.529   4.191  0.1034 -0.6303  0.5178
  714MOL0     C96299   7.659   4.443   4.319  0.0025  0.6136  0.4016
  714MOL0    Cl96300   7.500   4.405   4.403  0.1301 -0.2240  0.2312
  714MOL0     C96301   6.986   5.145   4.182 -0.6204  0.8462  0.1801
  714MOL0     C96302   6.863   5.211   4.203 -0.7948  0.5528 -0.2220
  714MOL0     O96303   6.485   5.043   4.169  0.3703 -0.8431 -0.5973
  714MOL0     C96304   6.420   5.401   4.184  0.4465  0.1268  0.5274
  714MOL0     C96305   6.315   5.498   4.179  0.4831 -0.0609 -0.1207
  714MOL0     N96306   5.751   6.029   3.869 -0.1356 -1.1553 -0.5630
  714MOL0     N96307   5.773   6.140   3.808  0.3415  0.0990  0.7957
  714MOL0     C96308   6.511   6.961   3.287 -0.2677  0.2506  0.5887
  714MOL0     C96309   6.581   7.035   3.192  0.7241  0.0548  0.6914
  714MOL0     C96310   6.692   7.385   2.939 -0.6757 -0.3180 -0.4352
  714MOL0     C96311   6.784   7.480   2.967 -1.4429  0.1738  0.4794
  714MOL0     C96312   6.811   7.588   2.881 -0.3030  0.2275 -0.0186
  714MOL0     C96313   6.741   7.603   2.761  0.3389 -0.1196 -0.2011
  714MOL0     O96314   6.780   7.715   2.689 -0.6981 -0.0212  0.2501
  714MOL0     C96315   6.756   7.729   2.549  0.6684 -0.3692 -0.4170
  714MOL0     C96316   6.861   7.665   2.463  1.0020 -0.1302 -0.2413
  714MOL0     C96317   6.828   7.689   2.314  0.1606 -0.0282  0.2858
  714MOL0     C96318   6.914   7.614   2.215  0.6716 -0.0721  0.6818
  714MOL0     C96319   6.894   7.670   2.084 -0.1312  0.1907 -0.3488
  714MOL0     C96320   6.878   7.730   1.985 -0.9578 -0.5168  0.7071
  714MOL0     C96321   6.660   7.501   2.717  0.0411  0.3058  0.4671
  714MOL0     C96322   6.624   7.397   2.809 -0.8795  0.1536  0.7270
  714MOL0     H96323   6.331   7.098   2.977 -2.2479  0.7345  0.6663
  714MOL0     H96324   6.200   6.991   3.154 -0.5099 -0.1278  2.1586
  714MOL0     H96325   6.439   6.894   3.554  0.5206 -1.8321 -0.3382
  714MOL0     H96326   6.369   7.055   3.530 -1.5343  0.6136  2.3179
  714MOL0     H96327   6.282   6.946   3.748 -1.5453  0.2790 -0.1328
  714MOL0     H96328   6.157   6.958   3.623 -1.6204  0.4609  2.0256
  714MOL0     H96329   6.204   6.704   3.600  0.4723 -0.0444  0.3289
  714MOL0     H96330   6.338   6.742   3.727  1.1705  1.1870 -2.4107
  714MOL0     H96331   6.157   6.767   3.890 -1.8637 -1.1830  1.5034
  714MOL0     H96332   6.035   6.780   3.764 -0.8734 -0.7176  2.9171
  714MOL0     H96333   6.197   6.538   3.829 -0.9658 -3.0803 -0.6198
  714MOL0     H96334   6.026   6.577   3.879 -0.5878  0.8046  0.1244
  714MOL0     H96335   5.965   6.580   3.644  0.0856 -0.0202  0.7920
  714MOL0     H96336   6.117   6.505   3.597  0.7305  2.7514  0.6871
  714MOL0     H96337   5.923   6.328   3.648 -2.1539 -0.8487  3.1347
  714MOL0     H96338   6.081   6.302   3.723  0.0233 -0.3432 -0.7403
  714MOL0     H96339   5.816   6.414   3.830 -1.7501 -2.6563  0.7754
  714MOL0     H96340   5.966   6.383   3.932  0.7259 -1.0781  1.5042
  714MOL0     H96341   5.960   6.164   4.079  0.0559  1.4360 -0.8935
  714MOL0     H96342   5.781   5.954   4.191  1.8021  0.9315  1.3664
  714MOL0     H96343   5.738   5.846   4.063 -0.3382 -0.2593  2.2946
  714MOL0     H96344   5.985   5.945   4.186 -3.1579  0.7720  2.5612
  714MOL0     H96345   6.013   5.875   4.031  0.1886  0.3019 -0.1366
  714MOL0     H96346   5.862   5.682   4.142 -1.2356  2.4112  1.1521
  714MOL0     H96347   5.919   5.758   4.293 -3.6749  3.4517 -1.1855
  714MOL0     H96348   6.130   5.732   4.292  1.5052  1.8567 -1.3025
  714MOL0     H96349   6.149   5.720   4.118  0.4036 -0.8177  1.3620
  714MOL0     H96350   6.051   5.298   4.167 -0.3347  2.7550 -0.8409
  714MOL0     H96351   6.094   5.079   4.124  0.9141  0.8838  0.4040
  714MOL0     H96352   6.249   5.036   4.060 -0.4005  0.9879 -0.1770
  714MOL0     H96353   6.227   5.013   4.230  0.6141 -0.0992 -0.1055
  714MOL0     H96354   6.678   4.962   4.045 -0.8484  0.8575 -0.3029
  714MOL0     H96355   6.886   4.869   4.016 -2.8192 -1.1536  2.4923
  714MOL0     H96356   7.228   5.123   4.052 -2.1316 -1.5873 -3.5969
  714MOL0     H96357   7.270   5.037   4.199 -3.9872 -1.0735  1.6944
  714MOL0     H96358   7.307   4.844   4.023 -0.3285  0.2281 -1.5123
  714MOL0     H96359   7.295   4.972   3.904  0.5340  0.1455 -0.8213
  714MOL0     H96360   7.471   5.095   4.025  1.7903  0.0454 -4.0614
  714MOL0     H96361   7.519   4.950   3.940  0.5128 -2.2220  1.5630
  714MOL0     H96362   7.612   4.944   4.179 -0.3857 -1.0645 -0.6623
  714MOL0     H96363   7.452   4.887   4.217 -2.3627 -1.2712 -1.2258
  714MOL0     H96364   7.662   4.751   4.025 -0.5515 -1.3274 -1.9933
  714MOL0     H96365   7.501   4.704   4.028 -0.1933  1.2256 -0.2024
  714MOL0     H96366   7.670   4.734   4.271  0.4104 -1.2806  0.6243
  714MOL0     H96367   7.502   4.686   4.275  1.3786 -0.6538  2.1415
  714MOL0     H96368   7.718   4.518   4.127 -0.6186 -3.8763 -0.1500
  714MOL0     H96369   7.548   4.487   4.131  1.5841 -0.6698 -1.6032
  714MOL0     H96370   7.725   4.494   4.390  2.0779  0.8817 -1.5968
  714MOL0     H96371   7.711   4.352   4.285 -1.3851  0.3262 -1.0930
  714MOL0     H96372   7.075   5.206   4.200 -1.2956  2.0319 -0.3767
  714MOL0     H96373   6.853   5.316   4.227  0.5595  0.5751  0.3101
  714MOL0     H96374   6.520   5.439   4.164  0.0244  0.0598 -2.1593
  714MOL0     H96375   6.340   5.603   4.189 -0.9254  0.2806 -0.0214
  714MOL0     H96376   6.552   6.886   3.355 -1.7153 -0.7614  0.3679
  714MOL0     H96377   6.690   7.037   3.192  0.7643  0.1052 -1.4048
  714MOL0     H96378   6.851   7.484   3.053  2.8431  0.1230 -2.5442
  714MOL0     H96379   6.891   7.661   2.895 -1.1532  1.4662 -1.2822
  714MOL0     H96380   6.667   7.675   2.515  0.8372  0.8673 -3.0200
  714MOL0     H96381   6.746   7.834   2.520 -0.2375 -0.6076 -1.0189
  714MOL0     H96382   6.856   7.559   2.489 -0.5635 -0.4719 -1.7277
  714MOL0     H96383   6.962   7.695   2.494  0.9550  0.0249 -0.2400
  714MOL0     H96384   6.843   7.797   2.298 -0.4836  0.2177  1.2304
  714MOL0     H96385   6.728   7.656   2.288 -0.4565  2.7054 -1.2204
  714MOL0     H96386   6.885   7.509   2.208 -1.0756  0.3416  1.1606
  714MOL0     H96387   7.021   7.620   2.239  0.8904  0.0270 -0.3030
  714MOL0     H96388   6.870   7.787   1.895 -0.3326  0.8784  1.4950
  714MOL0     H96389   6.606   7.507   2.623  0.4077 -0.1945  0.2220
  714MOL0     H96390   6.542   7.332   2.782 -0.7913  1.3493 -2.9936
  715MOL0     O96391   6.727   6.711   3.056 -0.3362  0.7172 -0.4800
  715MOL0     C96392   6.679   6.602   3.087 -0.7213  0.8466 -0.1703
  715MOL0     O96393   6.752   6.479   3.085 -0.1306 -0.9259 -0.6511
  715MOL0     C96394   6.883   6.485   3.054  0.6416 -0.3198  0.1795
  715MOL0     C96395   6.984   6.531   3.134 -0.5407 -0.3222  0.4570
  715MOL0     C96396   7.122   6.516   3.093 -0.0164 -0.4885 -0.3067
  715MOL0     C96397   7.150   6.453   2.978 -0.3942  0.2349  0.6470
  715MOL0     O96398   7.274   6.429   2.921  0.8410  0.3571 -0.2130
  715MOL0     C96399   7.387   6.492   2.979 -0.5351 -0.1682 -0.0494
  715MOL0     C96400   7.460   6.392   3.076  1.1251 -0.3664 -0.2577
  715MOL0     C96401   7.507   6.266   2.999  0.6428 -0.6833 -0.6651
  715MOL0     C96402   7.618   6.280   2.900  0.3499  0.1269 -0.5346
  715MOL0     C96403   7.759   6.258   2.968  0.9471  0.8983 -0.6341
  715MOL0     C96404   7.872   6.268   2.868  0.4736  0.4983  0.0041
  715MOL0     C96405   8.001   6.222   2.940 -0.1927  0.1247 -0.5208
  715MOL0     C96406   8.078   6.342   2.987  0.3796  0.7761 -1.1635
  715MOL0     N96407   8.221   6.319   3.020 -1.0222 -0.1011  0.2819
  715MOL0     C96408   8.318   6.403   2.959  0.9570 -0.4488  0.1504
  715MOL0     C96409   8.436   6.361   3.011  0.4610  0.8407  0.6293
  715MOL0     C96410   8.572   6.412   2.982 -0.0908  0.0256  0.4677
  715MOL0     C96411   8.626   6.518   3.078 -0.2781 -0.0220 -0.1115
  715MOL0     C96412   8.607   6.491   3.228 -0.6393  0.1933  0.9086
  715MOL0     C96413   8.675   6.368   3.267  0.3899 -0.3778  0.3186
  715MOL0     O96414   8.708   6.389   3.409 -0.3054  1.2267  0.5191
  715MOL0     C96415   8.748   6.285   3.488 -0.0346  0.2399 -0.7922
  715MOL0     C96416   8.772   6.313   3.623  0.0028 -0.5003  0.2179
  715MOL0     C96417   8.840   6.219   3.697  0.5495  0.3763 -0.8919
  715MOL0     C96418   8.876   6.261   3.841  0.1964 -0.6037  0.2122
  715MOL0     C96419   8.885   6.091   3.658 -0.3560 -0.1592 -0.0378
  715MOL0     C96420   8.964   5.991   3.723 -0.5773  0.1845  0.9719
  715MOL0     O96421   9.051   5.917   3.639 -0.0561  0.0127  1.0743
  715MOL0     C96422   9.137   5.834   3.710  0.2719  0.7442 -0.1546
  715MOL0     C96423   9.229   5.865   3.811 -0.8576  0.3626 -0.1385
  715MOL0     C96424   9.311   5.771   3.872 -1.1765 -0.8557  0.2682
  715MOL0     C96425   9.302   5.635   3.837 -0.5483  0.0112 -0.3006
  715MOL0     O96426   9.390   5.544   3.888  0.1225 -0.1804  0.0461
  715MOL0     C96427   9.407   5.411   3.828  0.5944 -0.5268  0.4465
  715MOL0     C96428   9.545   5.390   3.797 -0.4607 -0.0415 -0.1105
  715MOL0     C96429   9.573   5.242   3.778  0.0698  0.1744  0.5636
  715MOL0     C96430   9.713   5.224   3.731  0.6024  0.8469  0.3836
  715MOL0     C96431   9.737   5.086   3.669 -0.2543  0.1337 -0.1222
  715MOL0     C96432   9.885   5.059   3.643 -0.6157 -0.7360 -0.4186
  715MOL0     C96433   9.918   4.915   3.631 -0.6680  0.6484  0.7284
  715MOL0     C96434  10.073   4.891   3.618 -0.0868  0.4301 -0.2042
  715MOL0    Cl96435  10.143   4.760   3.526 -0.1182  0.3960  0.0764
  715MOL0     C96436   9.202   5.600   3.745 -0.3412 -0.5179 -0.2777
  715MOL0     C96437   9.128   5.696   3.675  0.6158 -1.4740  0.1838
  715MOL0     O96438   8.936   5.951   3.838  0.1150 -0.5804  0.0147
  715MOL0     C96439   8.856   6.063   3.518 -0.6220  0.8130 -0.4868
  715MOL0     C96440   8.794   6.160   3.443  0.4511  0.5345  0.0741
  715MOL0     N96441   8.411   6.252   3.110  0.9314  0.1635 -0.0237
  715MOL0     N96442   8.283   6.238   3.119  0.4659  0.1174 -0.0822
  715MOL0     C96443   7.041   6.422   2.888  0.2651  0.5237 -0.3694
  715MOL0     C96444   6.914   6.425   2.936  0.0305  0.0828  0.1176
  715MOL0     C96445   6.538   6.612   3.116  0.1615 -1.1389 -0.4630
  715MOL0     C96446   6.481   6.521   3.211 -0.5188 -0.0900  0.6239
  715MOL0     C96447   6.341   6.512   3.225 -0.1600  1.0938  0.6634
  715MOL0     C96448   6.256   6.607   3.167  1.1364 -0.8353  0.6846
  715MOL0     O96449   6.121   6.612   3.184  0.1560 -0.3088  0.3780
  715MOL0     C96450   6.065   6.633   3.314  0.4492  0.4067  0.0404
  715MOL0     C96451   5.949   6.733   3.314 -0.0305 -0.6896 -0.4372
  715MOL0     C96452   5.885   6.756   3.452 -0.9211  0.5048  0.2968
  715MOL0     C96453   5.793   6.882   3.452  0.5892  0.2144  0.6333
  715MOL0     C96454   5.658   6.849   3.413  0.3626 -1.3031 -0.2565
  715MOL0     C96455   5.544   6.813   3.407 -0.7120  0.2030  0.0067
  715MOL0     C96456   6.310   6.700   3.083  0.3939  0.1842  0.4124
  715MOL0     C96457   6.451   6.699   3.048 -0.2792  0.1127 -0.0457
  715MOL0     H96458   6.959   6.579   3.228 -1.0590  0.7286 -0.1949
  715MOL0     H96459   7.209   6.544   3.152  2.3560 -1.4257 -3.1254
  715MOL0     H96460   7.464   6.511   2.904  0.2737  0.2690  0.8583
  715MOL0     H96461   7.363   6.589   3.023 -2.3198 -1.3655  1.7842
  715MOL0     H96462   7.542   6.442   3.128  1.7551 -0.9970 -0.6372
  715MOL0     H96463   7.384   6.372   3.152  2.0407  3.7608  2.0945
  715MOL0     H96464   7.550   6.193   3.068  1.9562  1.5948  1.0827
  715MOL0     H96465   7.425   6.212   2.951  3.0969 -2.5089 -3.0850
  715MOL0     H96466   7.591   6.204   2.825 -2.0296 -0.4145  0.7942
  715MOL0     H96467   7.622   6.378   2.851 -0.4842  1.2916  1.6355
  715MOL0     H96468   7.772   6.334   3.045  1.8854  0.2715 -0.1613
  715MOL0     H96469   7.764   6.156   3.006  0.4433  0.7428 -0.9765
  715MOL0     H96470   7.847   6.197   2.787  2.6103  1.3843 -1.5403
  715MOL0     H96471   7.888   6.367   2.825  2.0959  1.6157  2.9285
  715MOL0     H96472   7.982   6.155   3.024  1.2471 -3.3425 -2.7519
  715MOL0     H96473   8.067   6.164   2.875 -0.5550  0.9992 -1.6986
  715MOL0     H96474   8.021   6.378   3.074  1.7193  2.1694 -0.8291
  715MOL0     H96475   8.064   6.420   2.912 -1.7372  0.5964 -1.0329
  715MOL0     H96476   8.314   6.487   2.891 -2.1216  0.3514  1.1136
  715MOL0     H96477   8.640   6.326   2.978 -0.1424 -0.1117  1.8867
  715MOL0     H96478   8.582   6.462   2.886  0.3030  3.6700  2.2237
  715MOL0     H96479   8.576   6.613   3.059  0.8245  0.7610  0.8054
  715MOL0     H96480   8.731   6.541   3.055 -0.4704  1.1659  0.1598
  715MOL0     H96481   8.501   6.486   3.255 -0.5099  1.3307  1.7449
  715MOL0     H96482   8.651   6.579   3.277  0.2787  0.7263 -0.8152
  715MOL0     H96483   8.759   6.347   3.200 -0.1127  0.6018 -0.6449
  715MOL0     H96484   8.605   6.284   3.262  1.6127 -1.9077  4.3298
  715MOL0     H96485   8.733   6.411   3.648  0.1232 -0.3558 -0.1443
  715MOL0     H96486   8.825   6.198   3.915 -0.3671  0.6636  0.9330
  715MOL0     H96487   8.984   6.249   3.850  0.6136 -0.9448 -3.6732
  715MOL0     H96488   8.845   6.364   3.863 -0.7533 -1.0033  0.8404
  715MOL0     H96489   9.238   5.970   3.836  2.0034 -0.2155  1.6562
  715MOL0     H96490   9.393   5.795   3.939 -1.9699  1.3650  0.5339
  715MOL0     H96491   9.364   5.338   3.897  1.2807 -0.1316  1.3188
  715MOL0     H96492   9.341   5.392   3.744  0.1086 -0.3559  0.7846
  715MOL0     H96493   9.571   5.452   3.711 -1.7604 -3.4932 -3.2390
  715MOL0     H96494   9.603   5.419   3.885 -2.5537  1.8051  0.7783
  715MOL0     H96495   9.497   5.191   3.717  2.2857 -1.2750 -1.1462
  715MOL0     H96496   9.563   5.183   3.870 -0.8826 -2.2570 -0.9868
  715MOL0     H96497   9.737   5.300   3.656 -1.7587  0.5160 -0.7809
  715MOL0     H96498   9.777   5.240   3.819  2.3241  0.9290 -0.8431
  715MOL0     H96499   9.693   5.076   3.570 -0.7262 -0.9278  0.1775
  715MOL0     H96500   9.711   5.013   3.746  1.7555  2.2359  2.7800
  715MOL0     H96501   9.905   5.117   3.552  0.9881 -0.8283 -0.1490
  715MOL0     H96502   9.937   5.117   3.719 -0.4793 -1.1752 -0.1743
  715MOL0     H96503   9.879   4.873   3.538 -0.9139  3.9824 -0.8123
  715MOL0     H96504   9.871   4.857   3.711  0.7911 -0.3342  0.9146
  715MOL0     H96505  10.116   4.882   3.718  1.5858  0.6226 -0.8686
  715MOL0     H96506  10.117   4.985   3.585  1.2054  0.4078  1.3818
  715MOL0     H96507   9.178   5.496   3.725 -2.8089 -0.4918  1.9667
  715MOL0     H96508   9.059   5.656   3.603 -0.5359  0.3349  0.2237
  715MOL0     H96509   8.874   5.965   3.474 -2.6512 -0.2128  0.7751
  715MOL0     H96510   8.778   6.131   3.340 -2.1630 -1.6991  0.9909
  715MOL0     H96511   7.052   6.375   2.791 -0.1087 -0.6693  0.1397
  715MOL0     H96512   6.828   6.376   2.891  0.9128 -1.3553 -0.0752
  715MOL0     H96513   6.540   6.457   3.276  0.2118 -0.8008 -0.7000
  715MOL0     H96514   6.300   6.436   3.291 -0.8578  0.0564 -0.8934
  715MOL0     H96515   6.034   6.540   3.363 -0.7638  1.4145  1.2689
  715MOL0     H96516   6.141   6.666   3.386 -1.0648  0.4701  1.6725
  715MOL0     H96517   5.880   6.704   3.234  0.7607 -1.9265 -0.6897
  715MOL0     H96518   5.999   6.824   3.279  1.5256 -1.0930  0.6234
  715MOL0     H96519   5.959   6.778   3.529 -1.0842  3.7382 -0.3115
  715MOL0     H96520   5.823   6.670   3.479 -1.7619  0.1830 -2.4171
  715MOL0     H96521   5.826   6.963   3.387 -1.5903  0.2857 -0.4888
  715MOL0     H96522   5.794   6.927   3.552  1.0738 -0.3585  0.8971
  715MOL0     H96523   5.446   6.771   3.398 -0.4217 -0.5158  0.0648
  715MOL0     H96524   6.258   6.764   3.013 -1.0441  0.8143  1.9809
  715MOL0     H96525   6.486   6.775   2.979 -2.5556  1.8989  0.6347
  716MOL0     O96526   2.734   2.715   7.010  0.0184 -0.6217  0.7105
  716MOL0     C96527   2.761   2.731   6.890  0.6985  0.4654 -0.4737
  716MOL0     O96528   2.717   2.637   6.791  0.5437 -0.8019  0.0572
  716MOL0     C96529   2.640   2.531   6.816 -0.8126  0.2314 -0.2229
  716MOL0     C96530   2.579   2.494   6.944 -0.2141 -0.3684  1.1402
  716MOL0     C96531   2.506   2.374   6.955 -0.7568 -0.4642 -0.2383
  716MOL0     C96532   2.482   2.294   6.846  0.0560 -0.0842 -0.0544
  716MOL0     O96533   2.391   2.185   6.850  0.1092 -0.5864  0.0616
  716MOL0     C96534   2.349   2.116   6.959 -0.0832 -0.3650 -0.0061
  716MOL0     C96535   2.228   2.189   7.022 -0.8207  0.1762 -0.6832
  716MOL0     C96536   2.093   2.112   7.002  0.9144 -0.0212 -0.3915
  716MOL0     C96537   1.969   2.180   7.062  0.6580  1.2475 -1.1166
  716MOL0     C96538   1.834   2.104   7.045 -0.3425 -0.4343  0.3825
  716MOL0     C96539   1.823   1.992   7.146 -0.8223  0.4670  0.0743
  716MOL0     C96540   1.696   1.908   7.114  0.7188 -0.6816  0.2036
  716MOL0     C96541   1.630   1.874   7.244  0.7668 -0.9141 -0.7885
  716MOL0     N96542   1.538   1.982   7.302  0.6970  0.0357  0.4004
  716MOL0     C96543   1.502   1.977   7.440  0.2377 -0.6618 -0.5360
  716MOL0     C96544   1.404   2.063   7.451  0.2856 -0.4235 -0.3678
  716MOL0     C96545   1.312   2.091   7.575  0.0271  0.0969 -0.3959
  716MOL0     C96546   1.235   1.973   7.632 -0.7914  0.6279 -0.0967
  716MOL0     C96547   1.085   2.002   7.597 -0.2001 -0.8457 -0.4061
  716MOL0     C96548   0.996   1.880   7.609 -0.6463  0.2943  0.1892
  716MOL0     O96549   0.861   1.901   7.561  0.3942  0.3829 -0.3410
  716MOL0     C96550   0.775   1.975   7.646  0.0246  0.0352  0.7366
  716MOL0     C96551   0.664   2.021   7.573 -0.7119  0.4848 -0.2772
  716MOL0     C96552   0.557   2.098   7.624  0.6077  0.9423  0.0322
  716MOL0     C96553   0.464   2.176   7.536  1.0099 -1.0953  0.8651
  716MOL0     C96554   0.551   2.103   7.760  0.4233  0.1742 -0.1474
  716MOL0     C96555   0.438   2.148   7.837 -0.7909  0.2578  0.0117
  716MOL0     O96556   0.325   2.187   7.770 -0.6728  0.2617  0.5044
  716MOL0     C96557   0.212   2.224   7.842 -0.0020 -0.3004 -0.5253
  716MOL0     C96558   0.143   2.342   7.796  0.7274 -0.7791 -0.5958
  716MOL0     C96559   0.031   2.381   7.864  0.7132  0.1337 -0.2666
  716MOL0     C96560  -0.024   2.312   7.975 -0.0508  0.5803 -0.5679
  716MOL0     O96561  -0.130   2.368   8.039 -0.3747 -0.2575 -0.1977
  716MOL0     C96562  -0.230   2.278   8.090  0.3553  0.5003 -0.0112
  716MOL0     C96563  -0.239   2.276   8.239  0.3857  0.1876  0.0366
  716MOL0     C96564  -0.348   2.168   8.274  0.7763  0.0126 -0.1031
  716MOL0     C96565  -0.450   2.219   8.374 -0.1437 -1.1945 -0.7134
  716MOL0     C96566  -0.560   2.120   8.437 -0.8557 -0.1282  0.0938
  716MOL0     C96567  -0.492   2.047   8.551 -0.4099  0.5357 -0.7962
  716MOL0     C96568  -0.579   1.925   8.605  0.0906  0.2065 -0.6372
  716MOL0     C96569  -0.513   1.854   8.721 -0.3505 -0.1266  0.4797
  716MOL0    Cl96570  -0.365   1.779   8.662  0.3199  0.0922  0.1589
  716MOL0     C96571   0.031   2.186   8.001  0.4093  0.8108 -0.4806
  716MOL0     C96572   0.149   2.140   7.939  0.0277  0.0609 -0.3937
  716MOL0     O96573   0.451   2.154   7.957  0.1011  0.6491  0.6310
  716MOL0     C96574   0.662   2.046   7.832 -0.6949  0.1240 -0.1685
  716MOL0     C96575   0.783   1.996   7.786 -0.0051  0.5779 -0.8066
  716MOL0     N96576   1.391   2.137   7.338 -0.0389  0.4960  0.0244
  716MOL0     N96577   1.463   2.085   7.245 -0.1225 -0.1177  0.3784
  716MOL0     C96578   2.535   2.329   6.727  0.5891 -0.2579 -0.4799
  716MOL0     C96579   2.615   2.437   6.716 -0.1808 -0.7803 -0.6627
  716MOL0     C96580   2.837   2.855   6.848  0.4176  0.5751 -0.0952
  716MOL0     C96581   2.865   2.871   6.703  0.3127  0.4252 -0.3842
  716MOL0     C96582   2.932   2.994   6.661 -0.0132  0.0448 -0.5513
  716MOL0     C96583   2.966   3.083   6.757 -0.7838 -0.3906 -0.1975
  716MOL0     O96584   3.041   3.177   6.706  0.4325  0.1416 -0.6209
  716MOL0     C96585   3.014   3.302   6.763 -0.3338 -0.3006  0.5630
  716MOL0     C96586   3.146   3.330   6.841  0.1490 -0.0270 -0.0597
  716MOL0     C96587   3.135   3.451   6.928  0.5900  0.9280 -0.2251
  716MOL0     C96588   3.148   3.581   6.845  0.3608 -0.2086  0.1310
  716MOL0     C96589   3.283   3.601   6.790  0.3025 -0.0155 -0.1448
  716MOL0     C96590   3.400   3.625   6.769 -0.5316 -0.8090 -0.2181
  716MOL0     C96591   2.942   3.071   6.889  1.1481 -0.6786 -0.6040
  716MOL0     C96592   2.880   2.954   6.936 -0.8094  0.0587  0.2968
  716MOL0     H96593   2.579   2.551   7.036  1.6904  0.4100  0.7149
  716MOL0     H96594   2.465   2.360   7.055 -3.2590  0.9227 -0.9726
  716MOL0     H96595   2.326   2.012   6.932 -1.0106  0.1445 -1.2949
  716MOL0     H96596   2.429   2.115   7.034  0.2874 -1.6303 -0.3881
  716MOL0     H96597   2.258   2.179   7.127  1.7166 -0.5592 -1.3953
  716MOL0     H96598   2.236   2.294   6.995 -0.2727  0.5709  0.8678
  716MOL0     H96599   2.071   2.075   6.901  0.2528  0.0072 -0.2630
  716MOL0     H96600   2.092   2.012   7.047 -2.1636 -0.5972 -1.4681
  716MOL0     H96601   1.988   2.198   7.169 -1.1985 -0.2789 -0.4888
  716MOL0     H96602   1.961   2.276   7.011 -0.2377  3.6579  3.0464
  716MOL0     H96603   1.746   2.166   7.066 -0.0321 -0.3986  1.6776
  716MOL0     H96604   1.829   2.070   6.941  0.5477 -2.8469  1.0490
  716MOL0     H96605   1.909   1.925   7.157 -0.1710  1.1174 -0.8708
  716MOL0     H96606   1.815   2.041   7.243  2.5073 -0.8909  1.1786
  716MOL0     H96607   1.622   1.957   7.051 -0.0598 -1.2159  0.6734
  716MOL0     H96608   1.724   1.822   7.052  0.7069  0.8025 -1.9352
  716MOL0     H96609   1.705   1.847   7.320 -2.4934 -2.3443  2.1775
  716MOL0     H96610   1.564   1.789   7.227 -0.0435 -0.5622  0.4353
  716MOL0     H96611   1.539   1.911   7.518 -0.3533 -0.3399  0.0124
  716MOL0     H96612   1.385   2.104   7.655 -0.2745 -2.1557  0.3201
  716MOL0     H96613   1.249   2.179   7.561  0.3097  0.5425  0.9666
  716MOL0     H96614   1.260   1.968   7.738  0.1830 -2.2438 -0.3877
  716MOL0     H96615   1.270   1.881   7.584 -0.2153  1.7612 -1.9606
  716MOL0     H96616   1.071   2.039   7.495 -0.3201 -0.3216 -0.2025
  716MOL0     H96617   1.057   2.084   7.663 -1.2927  0.4708 -2.3909
  716MOL0     H96618   0.998   1.836   7.709 -1.7354 -0.4880 -0.1096
  716MOL0     H96619   1.034   1.807   7.537  1.6976  3.4154 -2.0374
  716MOL0     H96620   0.675   2.020   7.465  0.0503  1.0258 -0.2063
  716MOL0     H96621   0.370   2.120   7.545 -0.4443  1.0534 -0.2616
  716MOL0     H96622   0.446   2.281   7.558 -1.2636 -0.9519 -1.3478
  716MOL0     H96623   0.494   2.176   7.431  1.0279  0.8287  0.8325
  716MOL0     H96624   0.163   2.407   7.711  1.7736  1.4816  1.2694
  716MOL0     H96625  -0.013   2.472   7.825 -0.2927 -1.4173 -3.0257
  716MOL0     H96626  -0.324   2.325   8.058  2.8811  5.0779 -1.6866
  716MOL0     H96627  -0.214   2.177   8.052 -1.3849 -0.0365  0.5953
  716MOL0     H96628  -0.151   2.238   8.291  0.4331 -0.3899 -0.4624
  716MOL0     H96629  -0.267   2.375   8.278  2.0540  0.4314  0.7077
  716MOL0     H96630  -0.306   2.072   8.306 -0.0911 -0.5149 -0.5023
  716MOL0     H96631  -0.402   2.150   8.181  0.1826  0.1731  0.2072
  716MOL0     H96632  -0.404   2.271   8.458 -4.8424 -0.0597  1.5419
  716MOL0     H96633  -0.514   2.293   8.324  1.2987 -0.8523 -2.1137
  716MOL0     H96634  -0.602   2.049   8.365 -2.1543 -0.2368  0.9215
  716MOL0     H96635  -0.650   2.178   8.462 -0.5148  1.7381 -2.5848
  716MOL0     H96636  -0.409   1.989   8.510 -0.8097 -1.1595  0.6566
  716MOL0     H96637  -0.449   2.122   8.618  0.8846  1.3103 -2.4204
  716MOL0     H96638  -0.599   1.853   8.525  0.4320 -1.1388  0.4516
  716MOL0     H96639  -0.684   1.947   8.627 -0.3429  0.1860 -2.4951
  716MOL0     H96640  -0.579   1.778   8.765 -1.2188  1.1745  1.5127
  716MOL0     H96641  -0.483   1.917   8.806 -0.1922  1.6277 -0.8344
  716MOL0     H96642  -0.016   2.124   8.077  0.1325 -0.2514 -1.4908
  716MOL0     H96643   0.184   2.039   7.955  0.9840  0.4067 -0.2432
  716MOL0     H96644   0.648   2.049   7.940 -1.2796 -1.7519 -0.1596
  716MOL0     H96645   0.870   1.954   7.835  1.0505  2.6285 -0.8731
  716MOL0     H96646   2.506   2.266   6.643 -2.2961  1.5197 -0.9685
  716MOL0     H96647   2.657   2.461   6.618  1.4082 -0.4395  0.0709
  716MOL0     H96648   2.841   2.794   6.631  1.0177  1.2795 -1.5734
  716MOL0     H96649   2.964   3.006   6.558  0.9334  0.4370 -0.2269
  716MOL0     H96650   3.000   3.365   6.674 -0.7000 -2.6825 -1.1668
  716MOL0     H96651   2.933   3.322   6.833  1.2091  2.3152  1.7614
  716MOL0     H96652   3.232   3.346   6.774 -1.1922 -0.5392 -2.0045
  716MOL0     H96653   3.163   3.252   6.915 -0.5628  1.8331  2.1823
  716MOL0     H96654   3.211   3.451   7.006  0.0779  0.9789  0.2866
  716MOL0     H96655   3.042   3.432   6.983 -0.2532  0.0517 -1.8902
  716MOL0     H96656   3.140   3.675   6.902 -0.1324 -0.7879  1.0389
  716MOL0     H96657   3.075   3.582   6.764  0.6464 -1.0014 -0.1461
  716MOL0     H96658   3.498   3.660   6.745 -1.1063  0.2747 -1.1168
  716MOL0     H96659   2.964   3.152   6.958 -2.9629  0.1137  0.0206
  716MOL0     H96660   2.867   2.958   7.043  0.1106  1.0197  0.3922
  717MOL0     O96661   0.839  10.895   9.185  1.0829 -0.1757 -0.4498
  717MOL0     C96662   0.918  10.813   9.237 -0.1039 -0.5324  0.2721
  717MOL0     O96663   1.015  10.744   9.165 -0.2532  0.2515  0.0323
  717MOL0     C96664   1.048  10.787   9.038 -0.4862  0.4389  0.1297
  717MOL0     C96665   1.110  10.914   9.031 -0.7330 -0.2186 -0.2744
  717MOL0     C96666   1.150  10.963   8.906  0.2678 -0.4055  0.0241
  717MOL0     C96667   1.143  10.893   8.791  0.1545  1.2097  0.8532
  717MOL0     O96668   1.192  10.954   8.675  0.1623 -0.0523 -0.0311
  717MOL0     C96669   1.090  11.004   8.589 -0.2057 -0.8164 -0.4672
  717MOL0     C96670   1.059  10.926   8.451  0.8075 -0.7564 -0.8720
  717MOL0     C96671   1.170  10.939   8.346 -0.5498 -0.1935 -0.2153
  717MOL0     C96672   1.247  10.796   8.327  0.8065  0.6912 -0.5540
  717MOL0     C96673   1.329  10.793   8.203 -0.1690  1.1035  0.9221
  717MOL0     C96674   1.445  10.686   8.194 -0.2225  0.2017 -0.2377
  717MOL0     C96675   1.499  10.660   8.049 -0.1524 -0.4131  0.0140
  717MOL0     C96676   1.612  10.560   8.048 -0.3248 -0.2409 -0.8648
  717MOL0     N96677   1.683  10.553   7.916  0.2102 -0.1648  0.1403
  717MOL0     C96678   1.679  10.431   7.838  0.5337 -1.0148 -1.2801
  717MOL0     C96679   1.785  10.457   7.755  0.1404  0.6205  0.2692
  717MOL0     C96680   1.845  10.364   7.648  0.0254 -0.1120 -1.0914
  717MOL0     C96681   1.736  10.348   7.538 -0.3910 -0.1205  0.1155
  717MOL0     C96682   1.811  10.290   7.416 -0.2792 -1.2352 -0.4700
  717MOL0     C96683   1.901  10.177   7.447  0.5182 -0.6506  0.4292
  717MOL0     O96684   1.939  10.120   7.316  0.0566 -0.4729 -0.8120
  717MOL0     C96685   1.898   9.997   7.284 -0.1831  0.5828  0.3554
  717MOL0     C96686   1.854   9.891   7.369 -0.3075 -0.2984 -0.2147
  717MOL0     C96687   1.805   9.774   7.313 -0.4494 -0.5034 -0.2720
  717MOL0     C96688   1.758   9.673   7.410  0.2518  0.0830 -0.3222
  717MOL0     C96689   1.799   9.753   7.172 -0.1228 -0.0601 -0.2555
  717MOL0     C96690   1.759   9.635   7.111  0.0912  0.5204  0.7507
  717MOL0     O96691   1.663   9.648   7.011 -0.5198 -0.0739  0.5903
  717MOL0     C96692   1.668   9.560   6.904 -0.4529 -0.3377 -0.4408
  717MOL0     C96693   1.561   9.486   6.847  0.7243  0.2396  0.4168
  717MOL0     C96694   1.589   9.379   6.765 -0.6963  0.4408 -0.4256
  717MOL0     C96695   1.718   9.354   6.716  0.2436 -0.2662  0.4332
  717MOL0     O96696   1.746   9.252   6.621  0.4371 -0.3446  0.8405
  717MOL0     C96697   1.868   9.235   6.556  0.1556 -1.0255 -0.4290
  717MOL0     C96698   1.866   9.103   6.477  0.4369  0.9680  0.4179
  717MOL0     C96699   1.780   9.111   6.353  1.2833 -0.4352  1.0976
  717MOL0     C96700   1.710   8.977   6.313  0.4972 -0.5242  0.3176
  717MOL0     C96701   1.592   8.927   6.403 -0.2511 -0.0859 -0.1604
  717MOL0     C96702   1.478   9.027   6.410 -1.2041 -0.2189 -0.7205
  717MOL0     C96703   1.376   8.994   6.527  0.1916  0.0806  0.2858
  717MOL0     C96704   1.443   9.011   6.671  0.4471 -0.4030 -0.1563
  717MOL0    Cl96705   1.302   9.045   6.795  0.4267  0.1516 -0.1700
  717MOL0     C96706   1.819   9.443   6.751 -0.5641  0.2986 -0.2180
  717MOL0     C96707   1.795   9.531   6.844 -0.5309 -0.1607  0.4349
  717MOL0     O96708   1.800   9.528   7.151 -0.6910 -0.5800  0.6108
  717MOL0     C96709   1.828   9.861   7.089  0.6419 -0.7051 -0.6169
  717MOL0     C96710   1.882   9.976   7.145  0.8633  0.1735  0.7657
  717MOL0     N96711   1.842  10.575   7.787 -0.0325 -0.1761  0.3635
  717MOL0     N96712   1.784  10.636   7.889 -0.4237  0.1068  0.9511
  717MOL0     C96713   1.095  10.760   8.797 -0.1013 -0.3259  0.0549
  717MOL0     C96714   1.046  10.709   8.920  0.1549  0.1545  0.3163
  717MOL0     C96715   0.907  10.771   9.375  0.1267 -0.2120  0.5644
  717MOL0     C96716   0.996  10.685   9.442 -0.6428  0.4849 -0.2894
  717MOL0     C96717   0.989  10.664   9.580  0.5350 -0.5798  0.5376
  717MOL0     C96718   0.872  10.695   9.654 -0.2805 -0.1959  0.7420
  717MOL0     O96719   0.865  10.666   9.786  1.0859 -0.2142 -0.1440
  717MOL0     C96720   0.727  10.653   9.841  0.3683 -0.2436 -0.1610
  717MOL0     C96721   0.746  10.587   9.981 -0.0854  0.6826  0.5692
  717MOL0     C96722   0.855  10.655  10.077  0.0971 -0.1269 -0.1222
  717MOL0     C96723   0.843  10.601  10.222 -0.1769 -0.0107 -0.8828
  717MOL0     C96724   0.838  10.450  10.230  0.0436  0.2022 -0.0165
  717MOL0     C96725   0.809  10.333  10.234 -0.6578 -0.2898 -0.5287
  717MOL0     C96726   0.780  10.784   9.584 -0.0686  0.3384 -1.3227
  717MOL0     C96727   0.799  10.820   9.450 -0.2576 -0.6817  0.0733
  717MOL0     H96728   1.128  10.981   9.114  0.9759 -0.2294 -0.5882
  717MOL0     H96729   1.194  11.062   8.914 -0.0559 -0.4085  2.4828
  717MOL0     H96730   0.996  11.008   8.645  0.0215 -0.8411 -0.0814
  717MOL0     H96731   1.118  11.110   8.585  0.1001 -0.8897 -0.3069
  717MOL0     H96732   1.030  10.821   8.462 -1.3852 -0.0180  1.2762
  717MOL0     H96733   0.970  10.973   8.409  0.3310 -1.2860 -0.4588
  717MOL0     H96734   1.140  10.982   8.249 -0.1790  0.0991 -0.2007
  717MOL0     H96735   1.229  11.020   8.390 -4.2148  3.2111 -0.9572
  717MOL0     H96736   1.298  10.772   8.421 -1.0953 -0.6801  0.1914
  717MOL0     H96737   1.173  10.716   8.316 -0.3393  1.7477 -0.8025
  717MOL0     H96738   1.278  10.778   8.107  0.4028  0.0033  0.7740
  717MOL0     H96739   1.385  10.886   8.185  0.8767 -0.2812 -6.3197
  717MOL0     H96740   1.527  10.717   8.260 -0.8495  1.9946 -0.2325
  717MOL0     H96741   1.412  10.591   8.236 -2.6065  2.1063  2.6388
  717MOL0     H96742   1.421  10.620   7.985 -0.7491 -2.0052  1.6598
  717MOL0     H96743   1.548  10.743   7.998 -1.1768  0.2166  0.0411
  717MOL0     H96744   1.565  10.467   8.081 -0.1009 -0.0268  0.1028
  717MOL0     H96745   1.679  10.591   8.129 -1.1394  0.8761 -0.5905
  717MOL0     H96746   1.597  10.360   7.851 -1.1949  1.1966  0.6556
  717MOL0     H96747   1.937  10.411   7.612  0.2490 -0.4630 -0.9770
  717MOL0     H96748   1.874  10.268   7.692 -2.2048  0.0720  1.0235
  717MOL0     H96749   1.683  10.440   7.512 -3.7211 -2.3856 -1.8577
  717MOL0     H96750   1.664  10.273   7.574 -0.0910 -0.3897  0.1651
  717MOL0     H96751   1.878  10.368   7.378 -1.1373 -0.4577 -0.4177
  717MOL0     H96752   1.736  10.271   7.339 -1.3337 -3.5920  1.0368
  717MOL0     H96753   1.860  10.113   7.526  0.6564 -0.8453  0.3438
  717MOL0     H96754   1.998  10.206   7.490  1.4646 -3.3562  0.2804
  717MOL0     H96755   1.844   9.899   7.477  1.5421 -1.6578  0.1011
  717MOL0     H96756   1.822   9.584   7.411  1.2222  0.7650  0.2767
  717MOL0     H96757   1.763   9.711   7.513  1.5715 -1.6760  0.3220
  717MOL0     H96758   1.658   9.642   7.380 -0.1718  2.2015 -1.2781
  717MOL0     H96759   1.457   9.495   6.875  0.0130 -3.5078 -0.5436
  717MOL0     H96760   1.506   9.314   6.738  0.8679 -0.5890 -3.2291
  717MOL0     H96761   1.899   9.317   6.489 -2.1776 -0.3475 -0.7766
  717MOL0     H96762   1.957   9.231   6.620 -1.7643 -2.5291  2.2959
  717MOL0     H96763   1.962   9.076   6.434  0.1166  0.3276  0.0918
  717MOL0     H96764   1.834   9.034   6.555  4.4507  1.1075  2.4368
  717MOL0     H96765   1.847   9.140   6.271  0.8537  1.0569  1.2341
  717MOL0     H96766   1.708   9.194   6.356  2.3030  1.0096 -3.8969
  717MOL0     H96767   1.672   8.984   6.210 -1.1982  0.2367  0.9559
  717MOL0     H96768   1.784   8.898   6.294 -2.4678 -3.4293 -0.0670
  717MOL0     H96769   1.628   8.903   6.503  0.1035  3.4286  0.6566
  717MOL0     H96770   1.558   8.837   6.350  1.7195 -0.5876 -0.6520
  717MOL0     H96771   1.518   9.129   6.408 -0.4288 -0.4989  0.1534
  717MOL0     H96772   1.427   9.022   6.313  0.8962  0.4815 -1.9203
  717MOL0     H96773   1.343   8.890   6.518 -0.5941  0.2276  1.2397
  717MOL0     H96774   1.280   9.045   6.521 -0.9036 -1.3992  3.1304
  717MOL0     H96775   1.505   9.101   6.672  0.7331 -0.5329  3.3031
  717MOL0     H96776   1.506   8.928   6.703 -3.5678 -4.4642 -1.7062
  717MOL0     H96777   1.913   9.447   6.697  1.1046  2.5846  2.5903
  717MOL0     H96778   1.874   9.604   6.858  0.0399 -0.7510  0.3018
  717MOL0     H96779   1.813   9.855   6.982  0.4965 -0.0932 -0.6340
  717MOL0     H96780   1.919  10.053   7.078 -2.7222  4.3695  3.0989
  717MOL0     H96781   1.088  10.695   8.710  2.9110 -1.3709  0.4675
  717MOL0     H96782   1.015  10.605   8.925  2.3308 -0.5005  1.6031
  717MOL0     H96783   1.081  10.640   9.392 -0.0941  0.3619  0.7193
  717MOL0     H96784   1.068  10.602   9.621  1.5394 -1.5893 -2.6130
  717MOL0     H96785   0.684  10.751   9.864 -0.8093 -0.5314 -1.0137
  717MOL0     H96786   0.668  10.584   9.780 -1.4075  1.5168 -0.5582
  717MOL0     H96787   0.780  10.485   9.957 -1.1089  0.2603  0.8675
  717MOL0     H96788   0.650  10.570  10.031 -0.3705  1.7268  0.3849
  717MOL0     H96789   0.837  10.763  10.076 -0.3921 -0.2054 -0.6006
  717MOL0     H96790   0.958  10.666  10.045 -0.6978  4.4986 -1.8539
  717MOL0     H96791   0.752  10.639  10.270  2.1438  0.9409  3.1991
  717MOL0     H96792   0.927  10.634  10.283  0.7724  1.5883 -2.9318
  717MOL0     H96793   0.781  10.230  10.246 -1.8590  0.0988  0.1212
  717MOL0     H96794   0.697  10.818   9.645  0.8194  0.4506 -0.1352
  717MOL0     H96795   0.736  10.897   9.407 -0.5012 -2.0757 -2.2408
  718MOL0     O96796   1.102   5.074   8.234 -0.1800 -0.2741  0.1392
  718MOL0     C96797   0.984   5.104   8.219  0.5250  0.5000 -0.0490
  718MOL0     O96798   0.881   5.037   8.279 -0.5426  0.7919  0.0170
  718MOL0     C96799   0.908   4.976   8.389  0.3072  0.2304  0.3104
  718MOL0     C96800   0.879   4.835   8.396  0.3018  0.4455  1.0209
  718MOL0     C96801   0.912   4.760   8.500  1.3731 -0.5876  0.0943
  718MOL0     C96802   0.973   4.812   8.611  1.0571 -0.2483  0.3809
  718MOL0     O96803   1.003   4.727   8.708  0.1331 -0.4533  0.1389
  718MOL0     C96804   1.060   4.599   8.677 -0.6815 -0.4682  0.5143
  718MOL0     C96805   1.138   4.528   8.782 -0.5467 -0.3687  0.1814
  718MOL0     C96806   1.277   4.588   8.812 -0.2255 -0.1051 -0.9430
  718MOL0     C96807   1.373   4.495   8.878  0.2089  0.1032  0.2277
  718MOL0     C96808   1.483   4.562   8.957 -0.3079  0.6695  0.5829
  718MOL0     C96809   1.579   4.470   9.036 -0.1372  0.0180  0.1472
  718MOL0     C96810   1.683   4.545   9.128  0.4449 -0.3845  0.8824
  718MOL0     C96811   1.760   4.447   9.221  0.1540  0.3927 -0.2927
  718MOL0     N96812   1.820   4.520   9.323 -0.0638  0.9106 -0.7410
  718MOL0     C96813   1.953   4.551   9.331 -0.1404  0.9245 -1.1086
  718MOL0     C96814   1.962   4.640   9.441  0.2028  0.2698  0.2848
  718MOL0     C96815   2.094   4.701   9.487 -0.2259  0.0099  0.8224
  718MOL0     C96816   2.115   4.707   9.639 -0.1945  0.5500  0.1562
  718MOL0     C96817   2.140   4.565   9.687  0.9101  0.6415  0.3971
  718MOL0     C96818   2.288   4.513   9.677 -0.1411  0.6662 -0.5039
  718MOL0     O96819   2.375   4.618   9.724  0.2291 -0.5139  0.0517
  718MOL0     C96820   2.496   4.576   9.770  1.0218  0.0044  0.2092
  718MOL0     C96821   2.563   4.458   9.726  0.7804  0.5398  0.2873
  718MOL0     C96822   2.681   4.416   9.776  0.5716 -0.5551  0.3666
  718MOL0     C96823   2.750   4.291   9.720 -0.5211 -0.7748 -0.1913
  718MOL0     C96824   2.750   4.505   9.867 -0.2240  0.3149  0.2421
  718MOL0     C96825   2.883   4.479   9.935  0.1349  0.2988  0.3237
  718MOL0     O96826   2.985   4.438   9.849  0.6613  0.4651 -0.3209
  718MOL0     C96827   3.096   4.369   9.889 -0.0329  0.9175 -0.3203
  718MOL0     C96828   3.182   4.339   9.787 -0.1027 -0.8619  0.4868
  718MOL0     C96829   3.305   4.285   9.816 -0.1546  0.1950 -0.0328
  718MOL0     C96830   3.344   4.252   9.944  0.1445 -0.1148  0.1868
  718MOL0     O96831   3.477   4.206   9.956 -0.1194 -0.5727 -0.7263
  718MOL0     C96832   3.510   4.146  10.080 -0.6679 -0.4270  0.0777
  718MOL0     C96833   3.647   4.076  10.076 -0.3644 -0.2125  0.0835
  718MOL0     C96834   3.692   4.009  10.208 -1.0201  0.7118 -0.3070
  718MOL0     C96835   3.744   4.101  10.314 -0.0533 -0.4157 -0.3461
  718MOL0     C96836   3.768   4.038  10.447 -0.5875 -0.3378 -0.2304
  718MOL0     C96837   3.869   3.924  10.444  0.3379  1.0894  0.7992
  718MOL0     C96838   4.016   3.979  10.446 -0.3018  1.2335 -0.5978
  718MOL0     C96839   4.100   3.868  10.518  0.0414 -0.2704  0.2865
  718MOL0    Cl96840   4.075   3.728  10.416 -0.8468  0.0584 -0.4322
  718MOL0     C96841   3.255   4.274  10.052  0.3802  0.4744  0.2240
  718MOL0     C96842   3.135   4.344  10.026 -0.0987  0.3044 -0.2381
  718MOL0     O96843   2.905   4.523  10.048  0.0784 -0.2018 -0.0795
  718MOL0     C96844   2.689   4.618   9.908 -0.9309 -0.6599  0.2062
  718MOL0     C96845   2.568   4.661   9.854 -1.1813  1.0981 -0.3654
  718MOL0     N96846   1.841   4.660   9.499  0.1420  0.4589  1.1099
  718MOL0     N96847   1.762   4.598   9.420  0.7551 -1.2511  0.4360
  718MOL0     C96848   0.997   4.946   8.610 -0.1070  0.1247  0.9726
  718MOL0     C96849   0.953   5.030   8.500 -0.8569 -0.0996  0.3610
  718MOL0     C96850   0.953   5.227   8.123  0.0513 -0.5327  0.0746
  718MOL0     C96851   0.815   5.283   8.121 -0.1155 -0.4043  0.1795
  718MOL0     C96852   0.798   5.403   8.060  0.4789 -0.1016 -1.3552
  718MOL0     C96853   0.908   5.462   7.988 -0.2855 -0.1515  0.6457
  718MOL0     O96854   0.864   5.576   7.932 -1.0143  0.1149  0.5924
  718MOL0     C96855   0.938   5.625   7.816 -0.8195 -0.4650 -0.1022
  718MOL0     C96856   0.873   5.743   7.747  0.4148 -0.5724 -0.0445
  718MOL0     C96857   0.732   5.733   7.692  0.1041  0.9394 -0.0426
  718MOL0     C96858   0.614   5.716   7.800 -0.0980  1.0238  0.1546
  718MOL0     C96859   0.482   5.733   7.740  0.3519 -0.2567 -0.4313
  718MOL0     C96860   0.366   5.743   7.691  0.2490  0.3931 -0.1109
  718MOL0     C96861   1.046   5.412   7.984  0.3364 -0.0471 -0.7532
  718MOL0     C96862   1.061   5.283   8.054 -0.0546 -1.3251  0.1165
  718MOL0     H96863   0.834   4.778   8.316  3.2031 -2.6841  1.3746
  718MOL0     H96864   0.875   4.658   8.496 -0.8900  0.1902 -2.9848
  718MOL0     H96865   0.979   4.537   8.639  0.0128  1.0770 -4.2116
  718MOL0     H96866   1.124   4.608   8.588 -1.9513 -2.2522 -0.6441
  718MOL0     H96867   1.093   4.522   8.881 -1.7262 -1.0695 -0.3720
  718MOL0     H96868   1.155   4.425   8.748 -0.6731 -0.2555 -0.2293
  718MOL0     H96869   1.313   4.624   8.715 -2.2896  0.6036 -1.4945
  718MOL0     H96870   1.265   4.675   8.876  1.2198 -0.4366 -0.1798
  718MOL0     H96871   1.310   4.431   8.941 -2.4987  1.4091 -0.9820
  718MOL0     H96872   1.424   4.423   8.813 -1.4902 -1.9868  1.0996
  718MOL0     H96873   1.540   4.624   8.886 -1.6184  0.8536 -0.3430
  718MOL0     H96874   1.443   4.632   9.031  1.9430  2.5993  0.0777
  718MOL0     H96875   1.524   4.413   9.112 -1.4235  3.8219  2.2939
  718MOL0     H96876   1.628   4.396   8.972  1.3076 -0.3999  1.6919
  718MOL0     H96877   1.747   4.601   9.059 -1.5739 -2.1193 -2.6087
  718MOL0     H96878   1.627   4.618   9.188 -2.0676 -2.1564  0.8324
  718MOL0     H96879   1.829   4.385   9.163  0.5659  2.0273 -1.6150
  718MOL0     H96880   1.692   4.378   9.272  1.3693 -0.4799  0.1959
  718MOL0     H96881   2.033   4.526   9.262  0.6175  0.9168 -0.2314
  718MOL0     H96882   2.176   4.645   9.442  0.1883 -1.0014  2.7137
  718MOL0     H96883   2.094   4.806   9.455  0.0911  0.2159  1.4906
  718MOL0     H96884   2.021   4.737   9.686 -1.8572 -1.9499 -1.3227
  718MOL0     H96885   2.197   4.777   9.659  1.2829 -1.4212  1.4572
  718MOL0     H96886   2.075   4.489   9.644  1.0164 -0.7800  2.5955
  718MOL0     H96887   2.118   4.583   9.793  1.7893 -2.1796  1.1445
  718MOL0     H96888   2.308   4.476   9.576 -3.1274 -0.6436 -0.7235
  718MOL0     H96889   2.287   4.432   9.751  1.6796  1.1826  0.1320
  718MOL0     H96890   2.521   4.387   9.657 -0.9503  0.7773  1.0546
  718MOL0     H96891   2.752   4.214   9.798  2.3418  1.1820  1.8519
  718MOL0     H96892   2.702   4.252   9.630  2.2134 -0.5080 -1.8699
  718MOL0     H96893   2.851   4.322   9.695 -1.8146  2.9600 -1.5410
  718MOL0     H96894   3.151   4.381   9.692  0.5471 -1.2022  0.1141
  718MOL0     H96895   3.374   4.258   9.737  0.1968  0.7920  0.0708
  718MOL0     H96896   3.531   4.221  10.157  0.6716 -0.3748 -0.3198
  718MOL0     H96897   3.438   4.070  10.111 -0.3537 -1.5905 -1.8826
  718MOL0     H96898   3.650   3.991  10.007  1.9902 -1.1482  1.2116
  718MOL0     H96899   3.735   4.138  10.058 -0.5421  0.4049  1.2128
  718MOL0     H96900   3.774   3.949  10.167  0.7295  0.8492  2.6836
  718MOL0     H96901   3.613   3.943  10.245  1.2880 -3.2215 -1.6988
  718MOL0     H96902   3.830   4.145  10.263  1.8541 -2.5364  0.8762
  718MOL0     H96903   3.659   4.170  10.323  0.3342  0.0198 -0.0102
  718MOL0     H96904   3.670   3.997  10.476 -0.4601 -1.5853 -1.4713
  718MOL0     H96905   3.798   4.113  10.521 -2.0568  0.6718 -0.6111
  718MOL0     H96906   3.846   3.862  10.530  0.8907 -2.1500 -1.2228
  718MOL0     H96907   3.857   3.856  10.359  0.3464 -0.2283  1.8252
  718MOL0     H96908   4.015   4.077  10.496 -2.4859  0.2028  1.5756
  718MOL0     H96909   4.048   3.993  10.342  0.6804  1.2854 -0.3033
  718MOL0     H96910   4.082   3.840  10.622  2.0591  1.7020  1.2516
  718MOL0     H96911   4.206   3.893  10.531 -0.0275  0.2337 -0.1184
  718MOL0     H96912   3.290   4.241  10.150  0.6606  0.2607  0.0538
  718MOL0     H96913   3.071   4.365  10.110  1.5210  3.9526  0.2580
  718MOL0     H96914   2.721   4.694   9.978 -2.4723  0.5072 -0.3023
  718MOL0     H96915   2.526   4.755   9.889  2.1767  2.0437  1.5709
  718MOL0     H96916   1.041   4.975   8.705  2.2354 -0.0742  0.0215
  718MOL0     H96917   0.975   5.136   8.501 -0.9214 -0.0710  1.8178
  718MOL0     H96918   0.734   5.223   8.161  2.1953 -4.4992 -0.7149
  718MOL0     H96919   0.709   5.464   8.072  2.0990  2.2192 -0.3622
  718MOL0     H96920   1.033   5.670   7.847 -2.1169  2.8615 -0.4892
  718MOL0     H96921   0.952   5.538   7.751  0.5690 -0.4037  0.0739
  718MOL0     H96922   0.937   5.775   7.664 -0.5287  4.5318  0.8718
  718MOL0     H96923   0.871   5.822   7.822  2.2264 -0.6126  0.1028
  718MOL0     H96924   0.726   5.645   7.628  1.8002  0.3779  0.5090
  718MOL0     H96925   0.702   5.820   7.634  1.8546  1.6124  0.0199
  718MOL0     H96926   0.631   5.787   7.882  1.0985  1.6756 -0.6277
  718MOL0     H96927   0.626   5.614   7.837  3.8104  1.1194 -0.4700
  718MOL0     H96928   0.277   5.747   7.633 -0.2526  3.5529  0.6721
  718MOL0     H96929   1.127   5.467   7.938 -1.2113  1.8309 -1.3471
  718MOL0     H96930   1.162   5.246   8.064 -0.9213 -3.4698  1.6641
  719MOL0     O96931   9.098   1.780  10.779  0.1576  0.7640  0.4359
  719MOL0     C96932   9.093   1.900  10.796 -0.3765  0.9956 -1.0559
  719MOL0     O96933   9.003   1.968  10.870 -0.5209  0.4585 -0.2848
  719MOL0     C96934   8.893   1.910  10.932  0.1067 -0.3454  0.4842
  719MOL0     C96935   8.832   1.788  10.889 -0.0769 -1.1371 -0.6172
  719MOL0     C96936   8.721   1.739  10.960 -0.1975 -0.2768 -0.1280
  719MOL0     C96937   8.654   1.816  11.060 -0.1872 -0.6216  0.5184
  719MOL0     O96938   8.550   1.752  11.115  0.3880  0.0460  0.8110
  719MOL0     C96939   8.430   1.830  11.131  0.1772 -0.2830 -0.6192
  719MOL0     C96940   8.316   1.762  11.209 -0.9714 -0.0721  0.0122
  719MOL0     C96941   8.364   1.698  11.341  0.4120  0.4814 -0.3358
  719MOL0     C96942   8.229   1.665  11.424 -0.2938 -1.2332 -0.1339
  719MOL0     C96943   8.262   1.697  11.569 -0.1813  0.0207 -1.0225
  719MOL0     C96944   8.159   1.652  11.665  0.4998 -0.1579 -1.2987
  719MOL0     C96945   8.020   1.722  11.637 -0.4606 -0.7019 -0.1594
  719MOL0     C96946   7.916   1.671  11.747 -0.7124  0.1009  0.6085
  719MOL0     N96947   7.913   1.768  11.851 -0.5579  0.0813  0.0124
  719MOL0     C96948   8.012   1.828  11.931  0.6895  0.7774 -0.3502
  719MOL0     C96949   7.954   1.923  12.002 -0.6936  0.2526  0.1883
  719MOL0     C96950   8.019   2.019  12.087 -0.1807 -0.3619 -0.3021
  719MOL0     C96951   7.948   2.164  12.078 -0.0708  0.5956  0.2797
  719MOL0     C96952   8.024   2.272  12.151  0.3594 -0.7717 -0.1717
  719MOL0     C96953   8.155   2.315  12.084  0.3603 -0.0697 -0.4143
  719MOL0     O96954   8.144   2.380  11.961 -0.0029 -0.3353  0.1720
  719MOL0     C96955   8.250   2.395  11.868 -0.3809  0.0968  0.2072
  719MOL0     C96956   8.223   2.433  11.736  0.4668  0.6043 -0.2954
  719MOL0     C96957   8.319   2.438  11.641 -0.2072 -0.4956  0.2358
  719MOL0     C96958   8.273   2.509  11.503 -0.0301  0.4373  1.1228
  719MOL0     C96959   8.461   2.417  11.673  0.4453 -0.9137 -0.1695
  719MOL0     C96960   8.574   2.446  11.578  0.5973  0.9923 -0.1853
  719MOL0     O96961   8.549   2.506  11.465 -0.5115  0.7150  0.4079
  719MOL0     C96962   8.643   2.494  11.368 -0.6578 -0.0491  0.4240
  719MOL0     C96963   8.685   2.613  11.309 -0.1227  0.8147  1.3486
  719MOL0     C96964   8.778   2.615  11.199 -0.0453 -0.1859 -0.7354
  719MOL0     C96965   8.829   2.500  11.149  0.3229  1.0848 -0.4513
  719MOL0     O96966   8.926   2.492  11.045  0.5538  0.0477 -0.7168
  719MOL0     C96967   9.023   2.605  11.048  0.6851  0.2863  1.0390
  719MOL0     C96968   9.112   2.609  10.927 -0.9521  0.3147  0.5092
  719MOL0     C96969   9.191   2.747  10.912  0.3079 -1.0343  1.3108
  719MOL0     C96970   9.308   2.762  11.004 -0.3791 -0.3875 -0.2646
  719MOL0     C96971   9.417   2.658  10.979  0.0423 -0.2033  0.1202
  719MOL0     C96972   9.548   2.670  11.060  1.0349  0.7489 -1.2684
  719MOL0     C96973   9.552   2.739  11.191 -0.1362 -0.6770 -0.4639
  719MOL0     C96974   9.505   2.658  11.315  0.2070  0.1267  0.2413
  719MOL0    Cl96975   9.475   2.775  11.451  0.2966  0.2942 -0.4367
  719MOL0     C96976   8.782   2.376  11.214  0.3751  1.1962  0.2370
  719MOL0     C96977   8.693   2.367  11.328 -0.4300 -0.0629 -0.4340
  719MOL0     O96978   8.689   2.425  11.631  0.9919 -0.0390  0.0723
  719MOL0     C96979   8.482   2.376  11.804 -0.4616  0.7637 -0.2009
  719MOL0     C96980   8.384   2.360  11.900  0.2659  0.5621  0.8759
  719MOL0     N96981   7.826   1.922  11.968  0.1022  0.1565  0.2104
  719MOL0     N96982   7.802   1.843  11.871  0.1635 -0.3868  0.2811
  719MOL0     C96983   8.700   1.944  11.080  0.2413  0.6826 -0.0247
  719MOL0     C96984   8.819   1.988  11.019 -0.0482 -0.4564 -0.9519
  719MOL0     C96985   9.198   1.982  10.719  0.8066 -0.6524  0.0979
  719MOL0     C96986   9.190   2.124  10.714  0.4647  0.2544 -0.3174
  719MOL0     C96987   9.285   2.201  10.641 -0.6696  0.5056  0.3469
  719MOL0     C96988   9.390   2.129  10.574 -0.1387 -0.5983 -0.1193
  719MOL0     O96989   9.492   2.207  10.518  1.1625  0.2640 -0.4221
  719MOL0     C96990   9.597   2.139  10.444  0.5104  0.1015 -0.4982
  719MOL0     C96991   9.705   2.230  10.386 -0.4504 -0.2703  0.6016
  719MOL0     C96992   9.815   2.150  10.317  0.3715 -0.1651  0.0522
  719MOL0     C96993   9.866   2.203  10.181  1.1901 -0.6485 -0.1408
  719MOL0     C96994   9.899   2.347  10.177  0.2972  0.7787  0.1653
  719MOL0     C96995   9.914   2.472  10.176 -0.2900  0.3436  0.2330
  719MOL0     C96996   9.392   1.991  10.568 -0.9665  0.8478 -0.1648
  719MOL0     C96997   9.288   1.920  10.633  0.2033 -0.2626  0.4442
  719MOL0     H96998   8.876   1.731  10.808  4.3211  1.7930 -0.6583
  719MOL0     H96999   8.687   1.641  10.927  1.3706 -1.5847  1.8803
  719MOL0     H97000   8.458   1.916  11.192  1.2167 -1.9005  1.3114
  719MOL0     H97001   8.397   1.865  11.032 -2.6231  2.7531  1.1676
  719MOL0     H97002   8.231   1.829  11.225 -0.0732  0.8374  1.0783
  719MOL0     H97003   8.280   1.684  11.141  2.0368 -0.1601 -1.6402
  719MOL0     H97004   8.418   1.606  11.318  2.4791  1.6126 -0.3331
  719MOL0     H97005   8.443   1.757  11.390  2.2539 -0.2684 -2.2255
  719MOL0     H97006   8.147   1.728  11.389  0.4512  0.4141  0.9986
  719MOL0     H97007   8.188   1.564  11.409 -1.5329 -0.6112 -1.1417
  719MOL0     H97008   8.351   1.636  11.586  0.4476  1.6375  2.2382
  719MOL0     H97009   8.283   1.800  11.598 -0.5897 -0.6263  1.9461
  719MOL0     H97010   8.157   1.543  11.659  1.4382 -0.6943  3.7487
  719MOL0     H97011   8.185   1.655  11.771 -2.6511 -1.3285 -0.3889
  719MOL0     H97012   8.033   1.830  11.646 -1.6380 -0.4051 -1.6603
  719MOL0     H97013   7.981   1.687  11.541  2.1168 -0.2402 -1.4622
  719MOL0     H97014   7.934   1.569  11.781  2.2411  1.1657  2.6319
  719MOL0     H97015   7.813   1.668  11.710 -0.3415  1.6001 -0.7045
  719MOL0     H97016   8.119   1.814  11.919  0.8342  3.0202 -2.3548
  719MOL0     H97017   7.998   1.985  12.189 -2.0893 -0.3227 -0.6436
  719MOL0     H97018   8.127   2.020  12.074  0.0415 -0.2963  1.3017
  719MOL0     H97019   7.850   2.161  12.129  0.2350 -0.0044  0.8507
  719MOL0     H97020   7.919   2.187  11.975 -0.7261 -0.7679  0.1366
  719MOL0     H97021   8.035   2.250  12.258  0.4040  3.9498  1.0325
  719MOL0     H97022   7.966   2.365  12.147  0.7014 -0.4415  1.5760
  719MOL0     H97023   8.217   2.226  12.071  1.4405  0.6358 -0.2482
  719MOL0     H97024   8.192   2.392  12.153 -2.3188  1.2649 -0.3381
  719MOL0     H97025   8.121   2.466  11.725  0.7147  1.2597 -0.7098
  719MOL0     H97026   8.333   2.600  11.512 -0.3627  0.6569  1.1474
  719MOL0     H97027   8.293   2.447  11.415  0.3336  2.7774 -0.5576
  719MOL0     H97028   8.168   2.539  11.511  0.5078  2.1130  2.7967
  719MOL0     H97029   8.649   2.705  11.353 -1.7570  2.6151 -3.1653
  719MOL0     H97030   8.804   2.711  11.155  2.1166 -1.0133 -1.4276
  719MOL0     H97031   8.966   2.698  11.045 -0.9018 -0.6364 -2.8125
  719MOL0     H97032   9.082   2.600  11.140  0.5176 -1.8482  1.0800
  719MOL0     H97033   9.188   2.532  10.947  1.2769  2.7873  2.2966
  719MOL0     H97034   9.051   2.589  10.838 -0.0574  2.9230 -0.7736
  719MOL0     H97035   9.121   2.828  10.931  0.0659 -1.1672  1.0044
  719MOL0     H97036   9.232   2.763  10.811 -0.9132  0.1793  0.9685
  719MOL0     H97037   9.348   2.863  10.990 -0.4927 -0.1347  1.1360
  719MOL0     H97038   9.278   2.757  11.109 -0.0957  2.2382  0.0180
  719MOL0     H97039   9.448   2.673  10.875 -0.0435  0.6061  0.2097
  719MOL0     H97040   9.379   2.556  10.994  0.3188 -0.1243  1.4985
  719MOL0     H97041   9.592   2.570  11.071 -0.1994  0.2754 -0.3523
  719MOL0     H97042   9.612   2.719  10.987  1.5139 -2.2964 -3.0775
  719MOL0     H97043   9.483   2.824  11.189  0.3063 -0.3207 -1.5606
  719MOL0     H97044   9.652   2.779  11.208 -0.3638  0.1601 -1.0274
  719MOL0     H97045   9.571   2.580  11.353  0.6137  0.4143  0.1346
  719MOL0     H97046   9.414   2.600  11.297  2.7158 -4.5714  1.1347
  719MOL0     H97047   8.827   2.287  11.172  2.8140  2.5522 -0.2482
  719MOL0     H97048   8.687   2.280  11.393 -0.9873  0.7150  0.5902
  719MOL0     H97049   8.584   2.348  11.826 -0.3074  1.1796 -0.3835
  719MOL0     H97050   8.397   2.317  11.999 -1.8469  2.3546  2.0263
  719MOL0     H97051   8.635   2.008  11.139  1.1848  1.1006  0.5729
  719MOL0     H97052   8.858   2.085  11.049 -1.5091 -0.5063  1.4312
  719MOL0     H97053   9.110   2.166  10.775  1.5834 -1.8516  2.8757
  719MOL0     H97054   9.285   2.309  10.649 -0.6347  0.9038 -3.3209
  719MOL0     H97055   9.640   2.064  10.511  0.8161 -0.2730 -1.1160
  719MOL0     H97056   9.554   2.091  10.356  0.1237 -0.8375  0.1899
  719MOL0     H97057   9.743   2.284  10.473  3.3199  0.3656 -1.2551
  719MOL0     H97058   9.670   2.311  10.322 -2.5083 -0.6078  1.2291
  719MOL0     H97059   9.793   2.043  10.312 -0.5342  0.0009  0.2696
  719MOL0     H97060   9.896   2.155  10.391 -0.9483 -1.1816  1.6515
  719MOL0     H97061   9.794   2.192  10.100 -1.8225 -3.3980  2.6185
  719MOL0     H97062   9.959   2.153  10.152  0.9767 -0.2180 -1.6343
  719MOL0     H97063   9.918   2.579  10.176 -1.2763  0.3867  0.1493
  719MOL0     H97064   9.461   1.928  10.513 -0.6147 -0.1214  1.3286
  719MOL0     H97065   9.296   1.812  10.630  1.6286 -0.1767  0.0780
  720MOL0     O97066   1.231   5.481  10.114  0.1527 -0.2056 -0.4891
  720MOL0     C97067   1.334   5.413  10.102 -0.3777 -0.0584  0.3492
  720MOL0     O97068   1.395   5.368   9.986  0.0942  0.0119 -0.0701
  720MOL0     C97069   1.333   5.412   9.869  0.1859 -0.0447 -0.0594
  720MOL0     C97070   1.239   5.322   9.813  0.7942 -0.0323  1.4729
  720MOL0     C97071   1.183   5.346   9.681  0.4168  0.6087  0.2296
  720MOL0     C97072   1.236   5.455   9.607 -0.2793  0.2385  0.3093
  720MOL0     O97073   1.197   5.495   9.486 -0.2497 -0.8938 -0.0652
  720MOL0     C97074   1.254   5.436   9.372 -0.1712  0.4040 -0.3173
  720MOL0     C97075   1.386   5.496   9.334 -0.1591 -0.1808  0.1756
  720MOL0     C97076   1.429   5.452   9.191 -0.0079  0.1364  0.4385
  720MOL0     C97077   1.330   5.472   9.078  0.3118  0.9274  0.6870
  720MOL0     C97078   1.365   5.424   8.940  0.0139  0.1258 -0.4754
  720MOL0     C97079   1.252   5.444   8.844  0.1408 -0.5447  0.8255
  720MOL0     C97080   1.265   5.591   8.783 -0.9182 -0.7838 -0.1473
  720MOL0     C97081   1.377   5.608   8.685 -0.0836  0.7887 -0.1561
  720MOL0     N97082   1.355   5.551   8.552  0.5317  1.2429 -0.2663
  720MOL0     C97083   1.424   5.595   8.441  0.1010  0.0017 -0.2863
  720MOL0     C97084   1.392   5.516   8.329 -0.6925 -0.0516 -0.4153
  720MOL0     C97085   1.453   5.530   8.194  0.1251  0.3373 -0.4240
  720MOL0     C97086   1.590   5.450   8.198 -0.2195  0.0102  0.9066
  720MOL0     C97087   1.665   5.457   8.070  0.2690  0.1433  0.0127
  720MOL0     C97088   1.812   5.396   8.061 -0.5870 -0.2733 -0.7906
  720MOL0     O97089   1.898   5.500   8.105  0.0213  0.0973 -0.1942
  720MOL0     C97090   2.033   5.483   8.101  0.6350  0.4707 -0.1661
  720MOL0     C97091   2.098   5.358   8.069  0.8573  0.1989  0.4461
  720MOL0     C97092   2.240   5.343   8.055  0.3024 -0.5356 -0.2748
  720MOL0     C97093   2.305   5.218   8.005  0.5614  0.2397  0.2130
  720MOL0     C97094   2.316   5.462   8.062  0.1352  0.1673  0.2137
  720MOL0     C97095   2.462   5.464   8.029  0.0131  0.8604 -0.2621
  720MOL0     O97096   2.513   5.584   7.986  0.2438 -0.8698 -0.3453
  720MOL0     C97097   2.650   5.608   7.985  0.7932  0.2770 -0.4382
  720MOL0     C97098   2.730   5.607   8.096  0.4145  0.0556 -0.3904
  720MOL0     C97099   2.870   5.610   8.089 -0.0165  0.2173 -0.0149
  720MOL0     C97100   2.934   5.638   7.966  0.0237 -0.2981  0.0814
  720MOL0     O97101   3.072   5.644   7.950  0.1253 -0.1499  0.0831
  720MOL0     C97102   3.159   5.630   8.062 -0.3114 -0.5161 -0.0201
  720MOL0     C97103   3.297   5.670   8.009  0.7535  0.0255  0.9158
  720MOL0     C97104   3.322   5.822   7.973  0.2838 -0.0343  0.5156
  720MOL0     C97105   3.446   5.844   7.885 -0.5170 -0.3046  0.5390
  720MOL0     C97106   3.574   5.822   7.966 -0.2219 -0.1984 -0.5049
  720MOL0     C97107   3.699   5.783   7.878  0.4925  0.0461  0.1756
  720MOL0     C97108   3.794   5.897   7.851  0.7213  0.1748 -0.3346
  720MOL0     C97109   3.751   5.996   7.745  0.3702  0.0794 -0.1497
  720MOL0    Cl97110   3.741   5.906   7.589 -0.2134  0.0350 -0.4414
  720MOL0     C97111   2.847   5.635   7.850 -0.2532 -0.1052 -0.3746
  720MOL0     C97112   2.710   5.621   7.868 -0.0867  0.2869 -0.2100
  720MOL0     O97113   2.525   5.363   8.063 -0.3203 -0.1199  1.1118
  720MOL0     C97114   2.253   5.577   8.098 -0.4478 -0.7526  0.0898
  720MOL0     C97115   2.119   5.587   8.117 -0.3218 -0.3004 -0.5124
  720MOL0     N97116   1.289   5.434   8.377 -0.4126  1.1453  0.7720
  720MOL0     N97117   1.274   5.452   8.505 -0.3038  0.0297 -0.7474
  720MOL0     C97118   1.336   5.539   9.665  0.1105  0.7345 -0.4232
  720MOL0     C97119   1.381   5.520   9.795 -0.0854 -0.0692 -0.5799
  720MOL0     C97120   1.379   5.373  10.230 -1.1402 -0.1586  0.3420
  720MOL0     C97121   1.352   5.450  10.344 -0.1159 -0.6355 -0.3591
  720MOL0     C97122   1.384   5.398  10.468  0.1287  0.7591 -0.8455
  720MOL0     C97123   1.437   5.272  10.482 -1.3530  0.0479 -0.8545
  720MOL0     O97124   1.476   5.206  10.600  0.0691 -0.3890 -0.6372
  720MOL0     C97125   1.488   5.287  10.718  0.7910 -0.1242 -0.0631
  720MOL0     C97126   1.550   5.217  10.837 -0.2957  0.4412  0.8137
  720MOL0     C97127   1.532   5.288  10.970  0.0453  0.0885 -0.7555
  720MOL0     C97128   1.644   5.383  11.021 -1.1052  0.4406 -0.0242
  720MOL0     C97129   1.601   5.516  10.991 -0.2045  0.0884 -0.5286
  720MOL0     C97130   1.552   5.623  10.972 -0.0690 -0.2363  0.0717
  720MOL0     C97131   1.466   5.203  10.377  0.1635 -0.4276  0.6612
  720MOL0     C97132   1.435   5.247  10.242  0.1478  0.9563 -0.4514
  720MOL0     H97133   1.197   5.246   9.877  0.0344 -1.6840 -0.8308
  720MOL0     H97134   1.098   5.289   9.645  0.3354  0.3647  0.8019
  720MOL0     H97135   1.258   5.327   9.380 -4.2130  0.2357  1.4746
  720MOL0     H97136   1.180   5.461   9.296  1.0799 -0.6394 -1.9584
  720MOL0     H97137   1.371   5.604   9.331 -1.3499 -0.3455 -1.8085
  720MOL0     H97138   1.457   5.472   9.413  1.2808 -2.6127 -1.6903
  720MOL0     H97139   1.517   5.508   9.158  1.3525 -1.5244  1.1058
  720MOL0     H97140   1.455   5.347   9.210 -1.7140 -1.0656 -2.9447
  720MOL0     H97141   1.232   5.429   9.104 -0.3106  1.1219 -1.1427
  720MOL0     H97142   1.304   5.578   9.081 -1.3543  0.5882 -0.1202
  720MOL0     H97143   1.458   5.474   8.915 -1.5018  3.3683 -0.0978
  720MOL0     H97144   1.378   5.316   8.932 -1.1208  0.1097 -3.2704
  720MOL0     H97145   1.266   5.380   8.757  0.2495  0.4678  0.0894
  720MOL0     H97146   1.152   5.416   8.880  0.5366 -1.8839  0.9427
  720MOL0     H97147   1.170   5.627   8.743 -0.4211 -0.0745 -0.7239
  720MOL0     H97148   1.291   5.665   8.859  0.6314  0.1573 -1.5174
  720MOL0     H97149   1.469   5.569   8.731  2.1589  4.5058 -1.1051
  720MOL0     H97150   1.399   5.715   8.679  0.0106  1.0385  2.9813
  720MOL0     H97151   1.507   5.664   8.444 -0.0960  0.2586 -0.7460
  720MOL0     H97152   1.397   5.474   8.118  2.2610 -2.0967 -0.3162
  720MOL0     H97153   1.467   5.633   8.160 -1.0173  0.3160 -1.0294
  720MOL0     H97154   1.574   5.346   8.227  3.5917 -0.6958  0.9166
  720MOL0     H97155   1.651   5.499   8.275  1.4708 -1.9567  0.8841
  720MOL0     H97156   1.677   5.559   8.030 -0.2253  1.0687  2.0896
  720MOL0     H97157   1.591   5.425   7.997 -1.3029  0.4905  1.3908
  720MOL0     H97158   1.834   5.370   7.957 -0.8226  0.7009 -1.0984
  720MOL0     H97159   1.820   5.312   8.130  0.8765  1.0718  0.7745
  720MOL0     H97160   2.051   5.262   8.056  2.6482 -0.4164 -2.4398
  720MOL0     H97161   2.240   5.131   7.990  2.2096 -1.2848  1.4219
  720MOL0     H97162   2.343   5.247   7.907 -1.8934  0.0227 -0.9003
  720MOL0     H97163   2.384   5.178   8.068  0.2341 -2.3818 -0.9218
  720MOL0     H97164   2.689   5.588   8.195 -1.8380  1.6275 -0.9520
  720MOL0     H97165   2.929   5.604   8.179  0.8517  0.6352 -0.5488
  720MOL0     H97166   3.127   5.705   8.134  1.2826  4.3057 -3.8274
  720MOL0     H97167   3.165   5.527   8.099 -0.8800 -0.0203  1.5248
  720MOL0     H97168   3.365   5.668   8.095  0.3007  2.1886  1.3824
  720MOL0     H97169   3.329   5.598   7.933  3.0826  1.7121  0.1708
  720MOL0     H97170   3.318   5.888   8.061 -4.9302  1.4639 -0.5032
  720MOL0     H97171   3.236   5.852   7.913 -0.7634 -0.5823  1.6867
  720MOL0     H97172   3.456   5.783   7.794  0.5800 -0.2429  0.6080
  720MOL0     H97173   3.440   5.946   7.844 -0.8436 -1.1352 -1.6613
  720MOL0     H97174   3.549   5.733   8.024 -4.4866  0.7984 -0.5330
  720MOL0     H97175   3.582   5.910   8.030  1.1392 -1.2506  0.8538
  720MOL0     H97176   3.757   5.705   7.928  0.5061 -0.3227 -0.4077
  720MOL0     H97177   3.676   5.750   7.776  2.7362 -0.1305 -0.3146
  720MOL0     H97178   3.889   5.856   7.818 -0.7136 -2.3150 -1.6711
  720MOL0     H97179   3.803   5.947   7.948 -2.4745  1.2711 -0.4765
  720MOL0     H97180   3.820   6.081   7.732  0.9750 -0.2216  0.9408
  720MOL0     H97181   3.655   6.044   7.764  0.1818  0.1203 -1.1490
  720MOL0     H97182   2.899   5.650   7.756  0.4322 -0.4765 -0.0659
  720MOL0     H97183   2.642   5.610   7.784 -0.0020  0.4262 -0.2966
  720MOL0     H97184   2.319   5.662   8.111 -0.5139 -0.9354  1.8087
  720MOL0     H97185   2.070   5.679   8.147  0.2332 -0.3526  0.6377
  720MOL0     H97186   1.382   5.611   9.598  2.6381 -1.0334 -0.7249
  720MOL0     H97187   1.460   5.580   9.839 -0.3455 -1.8072  2.5202
  720MOL0     H97188   1.305   5.547  10.344  1.1506  0.0127  0.3008
  720MOL0     H97189   1.358   5.442  10.564  0.2663 -3.1241  1.1721
  720MOL0     H97190   1.567   5.356  10.688  0.6879  0.3786  0.7927
  720MOL0     H97191   1.396   5.330  10.757  0.4512 -2.2209  1.6260
  720MOL0     H97192   1.656   5.191  10.823  0.5209  2.5249  2.5290
  720MOL0     H97193   1.490   5.128  10.856 -0.8346  0.4852 -0.5669
  720MOL0     H97194   1.524   5.208  11.044 -1.9372  1.2200  0.3597
  720MOL0     H97195   1.433   5.336  10.969 -0.5223 -1.0591 -1.5548
  720MOL0     H97196   1.744   5.366  10.982 -0.1921  0.4204  2.1507
  720MOL0     H97197   1.640   5.356  11.128 -3.2870 -2.3606 -0.6673
  720MOL0     H97198   1.506   5.716  10.945  1.6437  0.1729 -1.6439
  720MOL0     H97199   1.510   5.105  10.393 -2.8136 -2.7978 -3.6830
  720MOL0     H97200   1.462   5.193  10.152  2.8504  2.8603 -0.9032
  721MOL0     O97201   7.264  10.318   4.370 -0.0557  0.1728  0.6485
  721MOL0     C97202   7.345  10.337   4.452 -0.0522 -0.0735 -0.6347
  721MOL0     O97203   7.380  10.252   4.546 -1.0697  0.8534  0.0188
  721MOL0     C97204   7.286  10.156   4.574 -0.4536 -0.1748  0.2438
  721MOL0     C97205   7.255  10.042   4.493 -0.8514  0.3620 -0.7542
  721MOL0     C97206   7.156   9.949   4.532  0.1395  0.3573  0.0261
  721MOL0     C97207   7.079   9.969   4.650 -0.1408 -0.0169  0.3577
  721MOL0     O97208   6.988   9.878   4.695  0.2332 -0.0316  0.1921
  721MOL0     C97209   6.950   9.761   4.622  0.1547  0.6670 -0.5709
  721MOL0     C97210   6.830   9.695   4.691  0.2352 -1.0973  0.4303
  721MOL0     C97211   6.865   9.644   4.835 -1.1524  0.0441  0.0672
  721MOL0     C97212   6.749   9.564   4.905  0.1342 -1.0547  0.1962
  721MOL0     C97213   6.785   9.513   5.048  0.4027 -0.9380  0.7361
  721MOL0     C97214   6.669   9.435   5.106  0.4826 -0.7420 -1.0659
  721MOL0     C97215   6.655   9.434   5.260 -0.3599 -0.4415 -0.1504
  721MOL0     C97216   6.642   9.286   5.305 -0.0218 -0.4193 -0.6905
  721MOL0     N97217   6.777   9.235   5.314 -0.6015  0.0948  0.4324
  721MOL0     C97218   6.816   9.129   5.239 -0.1709  0.6408  0.3796
  721MOL0     C97219   6.940   9.097   5.288 -0.1845 -0.0479 -0.4090
  721MOL0     C97220   7.033   9.008   5.228  0.5511 -0.1108 -0.3595
  721MOL0     C97221   7.117   9.097   5.135  0.6843  0.2252  0.3828
  721MOL0     C97222   7.215   8.999   5.057  0.1419  0.2838  0.0536
  721MOL0     C97223   7.352   8.994   5.120 -0.7188  0.0505 -0.1750
  721MOL0     O97224   7.414   9.119   5.162  0.6530 -0.0568  0.2764
  721MOL0     C97225   7.516   9.096   5.250 -0.3195  0.1040  0.2036
  721MOL0     C97226   7.600   8.985   5.271 -0.8749  0.3468 -0.5397
  721MOL0     C97227   7.689   8.970   5.381  0.6889 -0.9626  0.1918
  721MOL0     C97228   7.779   8.853   5.395 -0.4101 -0.3230 -0.4679
  721MOL0     C97229   7.700   9.080   5.461  0.1281 -1.2752 -0.7685
  721MOL0     C97230   7.806   9.089   5.575 -0.4272  0.6950  0.3101
  721MOL0     O97231   7.890   9.192   5.573 -0.5913 -0.3626 -1.0486
  721MOL0     C97232   7.976   9.201   5.682 -0.2013  0.1558 -0.2632
  721MOL0     C97233   8.070   9.104   5.709 -0.2318 -0.4212  0.6055
  721MOL0     C97234   8.143   9.096   5.828 -0.2318 -0.5589  0.0527
  721MOL0     C97235   8.109   9.196   5.923  0.5991  1.2580 -0.2635
  721MOL0     O97236   8.171   9.209   6.045  0.0076 -0.0295  0.0648
  721MOL0     C97237   8.170   9.100   6.137 -0.5107  0.2666 -0.2904
  721MOL0     C97238   8.033   9.039   6.180  0.2377 -0.7222  0.2028
  721MOL0     C97239   7.926   9.138   6.223 -0.1491 -0.9797 -0.6111
  721MOL0     C97240   7.795   9.056   6.238  0.2254 -0.7370 -0.3153
  721MOL0     C97241   7.685   9.161   6.204 -0.5647  0.1559  0.2169
  721MOL0     C97242   7.531   9.130   6.233 -0.4180 -0.4516 -0.6409
  721MOL0     C97243   7.502   9.110   6.379  0.2420 -0.0244  0.1470
  721MOL0     C97244   7.363   9.136   6.421  0.0326  0.4041 -0.6267
  721MOL0    Cl97245   7.328   9.075   6.587 -0.5684 -0.1274  0.4421
  721MOL0     C97246   8.024   9.298   5.899 -0.0086 -0.2161 -0.8971
  721MOL0     C97247   7.961   9.304   5.777  0.1258  0.4844 -0.5836
  721MOL0     O97248   7.790   9.007   5.662  0.6154 -1.0738 -0.3078
  721MOL0     C97249   7.627   9.200   5.438 -0.0967  0.3806  0.2397
  721MOL0     C97250   7.529   9.206   5.333 -0.2261  0.4480  0.7511
  721MOL0     N97251   6.966   9.179   5.396  0.1732  0.2312 -0.1474
  721MOL0     N97252   6.867   9.257   5.413 -0.8620 -0.0138  0.4422
  721MOL0     C97253   7.107  10.081   4.726  0.3077  1.1516 -0.4256
  721MOL0     C97254   7.205  10.169   4.687  0.9039 -0.4064 -1.1448
  721MOL0     C97255   7.430  10.469   4.433 -0.5212 -0.3431  0.0797
  721MOL0     C97256   7.387  10.580   4.362 -0.7386  1.0626  0.4864
  721MOL0     C97257   7.464  10.689   4.350 -0.1703 -0.5878  1.4226
  721MOL0     C97258   7.591  10.708   4.406  0.1793  0.2289  0.5194
  721MOL0     O97259   7.657  10.828   4.380  0.3748  0.1891  0.6311
  721MOL0     C97260   7.796  10.841   4.390  0.3965  0.3056 -0.3491
  721MOL0     C97261   7.853  10.966   4.318  0.4918 -0.7624 -0.5786
  721MOL0     C97262   7.844  11.091   4.409 -0.1314  0.2751  0.8258
  721MOL0     C97263   7.956  11.202   4.390  0.5460 -0.3632 -0.4910
  721MOL0     C97264   8.096  11.151   4.387 -0.2242 -0.5116  0.3054
  721MOL0     C97265   8.205  11.117   4.370  1.0993  0.7212  0.2794
  721MOL0     C97266   7.632  10.602   4.479 -0.2377  0.4889  0.5273
  721MOL0     C97267   7.554  10.484   4.497 -0.6430 -0.4120 -0.1709
  721MOL0     H97268   7.314  10.025   4.403 -3.1039 -3.0670 -1.7785
  721MOL0     H97269   7.145   9.866   4.463 -1.3394  1.0724 -0.6449
  721MOL0     H97270   6.917   9.795   4.523 -1.9881  2.4541  0.6468
  721MOL0     H97271   7.028   9.687   4.603 -2.8630 -1.9010 -4.6016
  721MOL0     H97272   6.743   9.761   4.700 -0.6782 -2.4457  1.9735
  721MOL0     H97273   6.788   9.609   4.638  0.2543 -0.4342 -0.7022
  721MOL0     H97274   6.948   9.572   4.833 -0.1758  1.1248  0.5929
  721MOL0     H97275   6.896   9.726   4.901  1.1300 -0.8649  0.2505
  721MOL0     H97276   6.659   9.626   4.909  1.8868  1.6656  3.5902
  721MOL0     H97277   6.719   9.481   4.841  1.5718 -1.6105  0.2027
  721MOL0     H97278   6.876   9.453   5.040 -0.0684 -1.5875  0.1157
  721MOL0     H97279   6.815   9.594   5.115 -0.1455 -0.4696  0.4264
  721MOL0     H97280   6.575   9.479   5.072  0.2636  0.2071  0.6984
  721MOL0     H97281   6.682   9.333   5.067 -0.2768 -2.3235  2.4151
  721MOL0     H97282   6.735   9.481   5.318  2.0403 -4.2951  0.0122
  721MOL0     H97283   6.554   9.471   5.283  0.2881  2.9884 -2.1880
  721MOL0     H97284   6.579   9.230   5.235 -0.1466  2.3544 -3.0188
  721MOL0     H97285   6.593   9.284   5.402 -0.9001 -3.0216 -1.1214
  721MOL0     H97286   6.777   9.078   5.151  0.2441  0.4074  0.3274
  721MOL0     H97287   7.085   8.957   5.309 -2.5973 -1.9710  0.6281
  721MOL0     H97288   6.975   8.936   5.169 -1.7129  1.9306 -0.7915
  721MOL0     H97289   7.170   9.175   5.191  1.1991  0.4954 -0.4528
  721MOL0     H97290   7.053   9.156   5.069 -0.7725  1.2383  2.5949
  721MOL0     H97291   7.236   9.034   4.956  4.5294  2.5686  1.4809
  721MOL0     H97292   7.188   8.893   5.047  5.3930 -1.6259  2.5469
  721MOL0     H97293   7.422   8.953   5.048 -0.5123  2.1684 -1.2355
  721MOL0     H97294   7.347   8.933   5.211  0.9361 -0.4026 -0.3625
  721MOL0     H97295   7.606   8.893   5.214  0.4120 -0.2114  0.4548
  721MOL0     H97296   7.739   8.773   5.333  1.1631 -1.9205  0.4807
  721MOL0     H97297   7.883   8.879   5.374 -0.0827 -0.6470  0.6992
  721MOL0     H97298   7.777   8.807   5.494  1.5131 -0.4838 -0.4579
  721MOL0     H97299   8.096   9.030   5.634 -0.1670  0.4878 -0.2991
  721MOL0     H97300   8.221   9.023   5.847 -0.9597 -1.0599  1.2484
  721MOL0     H97301   8.222   9.011   6.099  0.2379 -0.0428  1.3804
  721MOL0     H97302   8.222   9.133   6.227  0.6558 -1.1528 -0.3957
  721MOL0     H97303   8.014   8.985   6.087 -1.7421  0.8581 -0.3935
  721MOL0     H97304   8.042   8.970   6.264 -1.8478  2.0549  2.9466
  721MOL0     H97305   7.928   9.211   6.141  4.3377 -0.4791 -0.3435
  721MOL0     H97306   7.953   9.188   6.316 -1.7423  0.6655 -0.9840
  721MOL0     H97307   7.786   8.973   6.169  0.3624  0.7795 -2.2355
  721MOL0     H97308   7.775   9.020   6.340  0.9820 -0.2968 -0.0031
  721MOL0     H97309   7.709   9.195   6.103  3.0791  1.3416  1.3114
  721MOL0     H97310   7.711   9.248   6.265  2.6912  1.3473 -2.5258
  721MOL0     H97311   7.456   9.202   6.200  0.8001 -0.0066 -2.5925
  721MOL0     H97312   7.504   9.040   6.177 -3.8860  0.4722 -0.6276
  721MOL0     H97313   7.564   9.177   6.439 -1.3187  0.1027  1.7261
  721MOL0     H97314   7.520   9.007   6.413 -1.0593 -0.8997 -1.6783
  721MOL0     H97315   7.304   9.070   6.356  2.8439 -3.3065  0.2332
  721MOL0     H97316   7.329   9.240   6.418 -1.7691  0.0556  2.6991
  721MOL0     H97317   8.005   9.379   5.968  1.6747 -0.2202 -0.4012
  721MOL0     H97318   7.891   9.385   5.759 -0.9342  0.5130  2.9430
  721MOL0     H97319   7.638   9.288   5.500 -0.6296 -1.2472  2.7785
  721MOL0     H97320   7.462   9.288   5.308  2.0427  1.5624 -2.2103
  721MOL0     H97321   7.071  10.086   4.828  2.5396 -1.7058  0.6680
  721MOL0     H97322   7.230  10.240   4.765  3.3397 -0.9275 -1.3599
  721MOL0     H97323   7.297  10.559   4.305 -0.0641 -1.2474  0.1948
  721MOL0     H97324   7.429  10.780   4.303  0.6432  0.0860  2.0748
  721MOL0     H97325   7.825  10.849   4.495 -0.1984  1.6931 -0.2612
  721MOL0     H97326   7.830  10.745   4.350  1.9871  0.6130  0.2107
  721MOL0     H97327   7.796  10.981   4.225 -0.6840  1.6028  0.4342
  721MOL0     H97328   7.958  10.952   4.294  0.5428 -1.1167 -0.1436
  721MOL0     H97329   7.818  11.059   4.511 -0.1520  0.2599  0.8164
  721MOL0     H97330   7.759  11.153   4.380 -0.1906  1.2350  2.8304
  721MOL0     H97331   7.936  11.267   4.475 -2.8443 -1.9526  0.0943
  721MOL0     H97332   7.946  11.258   4.297  2.6657  1.8409  0.5164
  721MOL0     H97333   8.306  11.095   4.343  0.5247  0.2700 -1.6624
  721MOL0     H97334   7.730  10.603   4.525  0.6349  1.1453 -1.2447
  721MOL0     H97335   7.585  10.409   4.568 -2.7084  0.9462  2.3465
  722MOL0     O97336   9.198   0.442   3.981 -0.3066 -1.2318  0.2178
  722MOL0     C97337   9.266   0.368   3.913  0.3311  0.3190  0.5584
  722MOL0     O97338   9.261   0.235   3.902 -0.1542 -0.8892 -0.7088
  722MOL0     C97339   9.137   0.186   3.941 -0.3361  0.5807 -0.9858
  722MOL0     C97340   9.022   0.185   3.862  0.4195 -0.5374 -0.0039
  722MOL0     C97341   8.902   0.136   3.901 -0.9255 -0.2956 -1.3429
  722MOL0     C97342   8.885   0.071   4.032  0.1651  0.9204  0.7053
  722MOL0     O97343   8.757   0.017   4.063  0.1260 -0.3485  0.6745
  722MOL0     C97344   8.744  -0.048   4.186  1.2891 -0.0971 -0.9148
  722MOL0     C97345   8.800  -0.183   4.197  0.2195  0.6949 -0.3113
  722MOL0     C97346   8.725  -0.282   4.107  0.3432  0.2709  0.1221
  722MOL0     C97347   8.803  -0.415   4.103 -0.4841  0.5788  1.0280
  722MOL0     C97348   8.788  -0.489   4.234  0.1486  0.5415  0.3016
  722MOL0     C97349   8.888  -0.601   4.250 -0.0863  0.2648  0.3919
  722MOL0     C97350   9.033  -0.559   4.283  0.0936 -0.1773 -0.1052
  722MOL0     C97351   9.117  -0.675   4.343  0.6751  0.2794 -0.5696
  722MOL0     N97352   9.042  -0.750   4.439 -0.0713  0.6507 -0.0800
  722MOL0     C97353   9.028  -0.712   4.576 -0.9206 -0.2991 -0.9820
  722MOL0     C97354   8.965  -0.812   4.640  1.1141  0.2787  0.7543
  722MOL0     C97355   8.939  -0.821   4.787  0.5660 -0.9586  0.8737
  722MOL0     C97356   8.835  -0.928   4.815 -0.7218 -0.1618  0.5981
  722MOL0     C97357   8.812  -0.947   4.963 -0.2565  0.1690  1.0180
  722MOL0     C97358   8.702  -1.042   5.004 -0.1881  0.2172 -0.6105
  722MOL0     O97359   8.720  -1.178   4.955 -0.5056 -0.6458 -0.0923
  722MOL0     C97360   8.639  -1.279   4.993 -0.4010 -0.2474  0.6107
  722MOL0     C97361   8.534  -1.263   5.087 -0.5669 -0.0935 -0.9201
  722MOL0     C97362   8.464  -1.372   5.130  0.8293 -0.4610 -0.4305
  722MOL0     C97363   8.348  -1.347   5.232 -0.0542 -0.0625 -0.0897
  722MOL0     C97364   8.479  -1.499   5.059 -0.1097 -0.0947 -0.3365
  722MOL0     C97365   8.385  -1.615   5.088  0.8555  0.3954 -0.4194
  722MOL0     O97366   8.365  -1.705   4.987  0.0523  0.4382 -0.0447
  722MOL0     C97367   8.243  -1.768   4.971  0.0983  0.1378 -0.6688
  722MOL0     C97368   8.233  -1.895   4.919 -0.5928 -0.0831 -0.1468
  722MOL0     C97369   8.111  -1.957   4.909  0.2840  0.1549  0.6884
  722MOL0     C97370   7.992  -1.897   4.949 -0.2434  0.0013  1.1133
  722MOL0     O97371   7.877  -1.968   4.935  0.9815 -0.3654 -0.4014
  722MOL0     C97372   7.749  -1.903   4.956  0.0306 -0.5721  1.0592
  722MOL0     C97373   7.718  -1.919   5.098 -0.0086 -0.0923  0.4179
  722MOL0     C97374   7.582  -1.860   5.137  0.4674  0.0589  0.5230
  722MOL0     C97375   7.578  -1.834   5.292 -1.0479 -0.2950 -0.1488
  722MOL0     C97376   7.463  -1.750   5.339  0.3518  0.0115 -0.6155
  722MOL0     C97377   7.474  -1.748   5.491  0.3007 -0.0667  0.2077
  722MOL0     C97378   7.355  -1.682   5.553  0.5867  0.0846 -0.3141
  722MOL0     C97379   7.373  -1.687   5.708  1.5187  0.1494 -0.3267
  722MOL0    Cl97380   7.237  -1.617   5.800 -0.2716  0.7411 -0.0820
  722MOL0     C97381   8.001  -1.770   5.000 -0.3614  0.2835 -0.9918
  722MOL0     C97382   8.124  -1.706   5.021 -0.6498  0.3724 -0.7265
  722MOL0     O97383   8.368  -1.640   5.205 -0.4147  0.8141 -0.6262
  722MOL0     C97384   8.588  -1.517   4.972  0.0481  0.2759  0.0533
  722MOL0     C97385   8.663  -1.401   4.938  0.2655  0.3035  0.5213
  722MOL0     N97386   8.959  -0.914   4.545 -0.5943 -0.0589  0.3636
  722MOL0     N97387   8.986  -0.876   4.428 -0.2935  0.5966 -0.3972
  722MOL0     C97388   9.001   0.056   4.113 -0.4438 -0.3156  0.0847
  722MOL0     C97389   9.120   0.122   4.070 -0.6775 -0.5413 -0.6180
  722MOL0     C97390   9.369   0.431   3.825  0.8727 -0.1705 -0.4050
  722MOL0     C97391   9.365   0.572   3.803  0.2986 -0.1673  0.4437
  722MOL0     C97392   9.458   0.632   3.720  0.0545  0.1943 -0.1474
  722MOL0     C97393   9.558   0.565   3.653 -0.1942  0.0850 -0.0627
  722MOL0     O97394   9.643   0.624   3.561  0.2740 -0.0913  0.2759
  722MOL0     C97395   9.699   0.749   3.586 -1.2196 -0.6794  0.2581
  722MOL0     C97396   9.844   0.759   3.539 -0.0674 -0.0461 -0.3800
  722MOL0     C97397   9.925   0.635   3.606  0.1036 -0.0483 -0.2998
  722MOL0     C97398  10.064   0.664   3.653 -0.0400  0.3783  0.0368
  722MOL0     C97399  10.169   0.692   3.551  0.4279  0.7132  0.5490
  722MOL0     C97400  10.226   0.724   3.447  0.2056  0.7092 -0.4541
  722MOL0     C97401   9.572   0.423   3.676  0.0235  0.2529 -1.2444
  722MOL0     C97402   9.471   0.355   3.758  0.1421 -0.3830  0.2131
  722MOL0     H97403   9.038   0.226   3.763  1.6526 -2.0249 -0.4614
  722MOL0     H97404   8.819   0.148   3.832 -0.3378  1.3122 -1.8169
  722MOL0     H97405   8.771   0.016   4.270 -0.4828  0.1341 -0.4843
  722MOL0     H97406   8.638  -0.055   4.211  1.6951  0.5761  1.1831
  722MOL0     H97407   8.905  -0.182   4.165  1.3680 -0.7973  2.8932
  722MOL0     H97408   8.782  -0.213   4.301  3.0856 -1.2247 -0.2467
  722MOL0     H97409   8.621  -0.292   4.137  0.7205 -2.9420  0.6674
  722MOL0     H97410   8.714  -0.236   4.008 -0.5267  3.2133  1.4703
  722MOL0     H97411   8.770  -0.476   4.018 -1.7433 -0.2281  2.0601
  722MOL0     H97412   8.911  -0.402   4.093 -0.2888  0.2393  2.5070
  722MOL0     H97413   8.801  -0.421   4.319 -0.0102  3.1507 -1.6366
  722MOL0     H97414   8.688  -0.533   4.235 -0.0059  0.6775  3.8540
  722MOL0     H97415   8.840  -0.661   4.328  0.6170 -1.4726 -0.4517
  722MOL0     H97416   8.889  -0.666   4.161 -4.0210  0.7034 -0.1422
  722MOL0     H97417   9.086  -0.522   4.195  0.3909  1.5877  0.7632
  722MOL0     H97418   9.028  -0.474   4.352  1.8010 -0.5787  0.5727
  722MOL0     H97419   9.198  -0.630   4.401  4.2952 -1.6815 -3.6183
  722MOL0     H97420   9.161  -0.727   4.257  1.8742  1.8033 -0.9342
  722MOL0     H97421   9.077  -0.639   4.639  0.0869 -2.0833  0.3884
  722MOL0     H97422   9.032  -0.844   4.840  1.1940 -0.1949  0.1426
  722MOL0     H97423   8.912  -0.717   4.808 -2.9598 -1.9802  1.9488
  722MOL0     H97424   8.867  -1.026   4.777 -0.1621 -0.3054  1.3989
  722MOL0     H97425   8.751  -0.905   4.749 -1.1802 -1.3268  0.7447
  722MOL0     H97426   8.789  -0.845   4.995  0.5946  0.4779  0.6950
  722MOL0     H97427   8.905  -0.975   5.013 -0.9977  0.1468  2.4224
  722MOL0     H97428   8.607  -0.993   4.981 -1.6811 -0.1712  3.7949
  722MOL0     H97429   8.712  -1.040   5.113 -1.0849  1.9143 -0.5123
  722MOL0     H97430   8.507  -1.166   5.126 -3.1542 -0.5342 -1.4565
  722MOL0     H97431   8.252  -1.388   5.200 -1.0881  0.9057  1.6029
  722MOL0     H97432   8.371  -1.383   5.333 -1.4486  2.2554  1.1376
  722MOL0     H97433   8.328  -1.240   5.233 -0.8263 -0.2015  0.9301
  722MOL0     H97434   8.320  -1.946   4.880 -1.1807 -0.1989 -1.3689
  722MOL0     H97435   8.088  -2.054   4.867 -1.8263  0.7939  0.2410
  722MOL0     H97436   7.745  -1.798   4.927 -1.7600 -1.2929 -1.6343
  722MOL0     H97437   7.677  -1.953   4.891  0.6581 -0.3379  0.1614
  722MOL0     H97438   7.726  -2.027   5.108 -0.8132 -0.4436 -2.1107
  722MOL0     H97439   7.794  -1.873   5.161 -1.0225 -0.3098  1.8503
  722MOL0     H97440   7.502  -1.928   5.109 -0.4263  0.7896  1.2503
  722MOL0     H97441   7.562  -1.766   5.084  0.8174 -1.9013 -3.4544
  722MOL0     H97442   7.579  -1.930   5.344  1.2821  0.0300  0.5428
  722MOL0     H97443   7.675  -1.790   5.320 -0.8406 -1.0002  0.2751
  722MOL0     H97444   7.371  -1.803   5.312 -0.7333  2.6777 -2.5882
  722MOL0     H97445   7.452  -1.649   5.297  0.2212 -0.0591 -0.7503
  722MOL0     H97446   7.480  -1.850   5.530 -0.9753  0.2576  1.3348
  722MOL0     H97447   7.556  -1.690   5.536  0.4102 -1.5996  2.1075
  722MOL0     H97448   7.266  -1.734   5.517  1.1634 -2.0053  1.1086
  722MOL0     H97449   7.344  -1.578   5.522 -0.0068 -0.2818 -1.3906
  722MOL0     H97450   7.468  -1.639   5.731  2.9205 -3.0006  1.1603
  722MOL0     H97451   7.379  -1.794   5.733  2.3659  0.2814  0.0627
  722MOL0     H97452   7.920  -1.713   5.045  3.2930  1.1622  5.7620
  722MOL0     H97453   8.111  -1.608   5.064 -1.4651  0.3477 -0.9069
  722MOL0     H97454   8.615  -1.609   4.921  1.4728 -0.3296  1.7831
  722MOL0     H97455   8.724  -1.411   4.849  1.8270  4.4174  0.9116
  722MOL0     H97456   9.012   0.008   4.210  1.9366  2.5998  1.4108
  722MOL0     H97457   9.212   0.109   4.126 -2.0020 -0.4584  1.6747
  722MOL0     H97458   9.280   0.636   3.823  0.5345  0.2442  0.1476
  722MOL0     H97459   9.430   0.734   3.695 -0.7148 -0.0362 -0.2395
  722MOL0     H97460   9.638   0.822   3.531 -1.6945  0.5029  2.2403
  722MOL0     H97461   9.711   0.788   3.688  2.2360  2.3070 -1.0728
  722MOL0     H97462   9.878   0.854   3.582 -0.3748  0.6324 -1.5766
  722MOL0     H97463   9.858   0.758   3.431 -0.4207  0.6681 -0.4394
  722MOL0     H97464   9.928   0.552   3.534  2.6198 -0.4354  0.1469
  722MOL0     H97465   9.869   0.604   3.694 -1.5662 -0.3997 -1.4371
  722MOL0     H97466  10.098   0.583   3.718  2.7815  2.6910  1.7543
  722MOL0     H97467  10.066   0.757   3.711  1.5604  1.1304 -1.1266
  722MOL0     H97468  10.283   0.754   3.362  1.9567  0.2296  0.5071
  722MOL0     H97469   9.656   0.375   3.626  2.0663  1.6047  0.6550
  722MOL0     H97470   9.472   0.247   3.773 -1.9518 -0.5303 -0.3971
  723MOL0     O97471   7.251   7.444   2.642  0.1349  0.3573 -0.2243
  723MOL0     C97472   7.259   7.542   2.567  0.9108 -0.2496  0.0989
  723MOL0     O97473   7.252   7.534   2.427  0.5248 -0.0246 -1.6285
  723MOL0     C97474   7.207   7.419   2.369 -0.2515 -0.3829 -0.6381
  723MOL0     C97475   7.292   7.360   2.275  0.2311 -0.6306  0.7030
  723MOL0     C97476   7.268   7.233   2.211  0.0532 -0.1436 -0.5137
  723MOL0     C97477   7.163   7.162   2.269  0.4448  0.0828  0.1392
  723MOL0     O97478   7.131   7.051   2.210 -0.0780  0.4469  0.6474
  723MOL0     C97479   7.119   7.027   2.066 -0.0263 -0.4176 -0.2552
  723MOL0     C97480   7.143   6.878   2.040  0.5088  0.2395 -0.2459
  723MOL0     C97481   7.296   6.843   2.046 -0.3221 -0.5482  0.5961
  723MOL0     C97482   7.317   6.693   2.022 -0.4850 -0.3927 -0.6984
  723MOL0     C97483   7.234   6.598   2.105  0.5079 -0.4439 -0.6892
  723MOL0     C97484   7.304   6.461   2.113  0.3089  0.0452 -0.4121
  723MOL0     C97485   7.368   6.396   1.991  0.1312 -1.0376  0.5060
  723MOL0     C97486   7.399   6.251   2.029 -0.2215 -0.4917 -0.0521
  723MOL0     N97487   7.409   6.160   1.921 -0.0334  0.0932 -0.0919
  723MOL0     C97488   7.535   6.123   1.877  0.7006 -0.2555 -0.1618
  723MOL0     C97489   7.512   6.018   1.792  0.6082  0.4573 -0.1914
  723MOL0     C97490   7.611   5.952   1.709  0.3126  0.5415 -0.5478
  723MOL0     C97491   7.572   5.890   1.577  0.4947  0.8473  0.0017
  723MOL0     C97492   7.695   5.876   1.491 -0.6051  1.0135  1.0311
  723MOL0     C97493   7.697   5.784   1.361  0.2124  1.1826  0.1401
  723MOL0     O97494   7.686   5.643   1.392 -0.2847 -0.5706 -0.2059
  723MOL0     C97495   7.705   5.549   1.300  0.6212  0.2310  0.2169
  723MOL0     C97496   7.697   5.416   1.337  0.6371  0.2075  1.3408
  723MOL0     C97497   7.720   5.312   1.243 -0.1310  0.0851 -0.7440
  723MOL0     C97498   7.688   5.164   1.291  0.7122 -0.9242 -0.8183
  723MOL0     C97499   7.764   5.343   1.108 -0.2261 -0.6114 -0.8242
  723MOL0     C97500   7.790   5.234   1.009  0.3881 -1.0017  0.3912
  723MOL0     O97501   7.798   5.273   0.876  0.3788  0.3302  0.2443
  723MOL0     C97502   7.813   5.172   0.786  0.3406 -0.2601  0.3158
  723MOL0     C97503   7.697   5.135   0.720  0.3657  0.1650  0.2150
  723MOL0     C97504   7.705   5.040   0.619 -0.0301 -0.5780 -1.0491
  723MOL0     C97505   7.828   4.977   0.587 -0.2606  0.3074 -0.8863
  723MOL0     O97506   7.812   4.847   0.539  0.3550 -0.6001 -0.2796
  723MOL0     C97507   7.807   4.744   0.640  0.2944  0.9765  1.0652
  723MOL0     C97508   7.760   4.604   0.590  0.1057 -0.5758  0.8689
  723MOL0     C97509   7.815   4.553   0.461 -0.6300 -0.0158  0.4562
  723MOL0     C97510   7.956   4.498   0.495  0.5213  0.6311 -0.7509
  723MOL0     C97511   8.037   4.447   0.374  0.3029 -0.6864  0.1602
  723MOL0     C97512   8.164   4.362   0.403 -1.0616 -0.1376 -0.0377
  723MOL0     C97513   8.270   4.452   0.471  0.1746  1.0697  0.0554
  723MOL0     C97514   8.415   4.408   0.472 -0.1535  1.0860 -0.4105
  723MOL0    Cl97515   8.420   4.262   0.573  0.0826 -0.2320 -0.1369
  723MOL0     C97516   7.943   5.009   0.656 -0.1988  0.0188 -0.3163
  723MOL0     C97517   7.939   5.108   0.757  0.1763  0.3077 -1.1515
  723MOL0     O97518   7.816   5.126   1.050 -0.2948 -0.1313 -0.3246
  723MOL0     C97519   7.772   5.482   1.072  0.8213 -1.0095 -0.6455
  723MOL0     C97520   7.735   5.580   1.162  1.1516  0.1351 -0.4351
  723MOL0     N97521   7.372   5.985   1.792 -1.1229  0.1735 -0.3796
  723MOL0     N97522   7.317   6.080   1.872  0.1086  0.6353  0.2894
  723MOL0     C97523   7.080   7.207   2.368 -0.2305 -0.7465  0.2576
  723MOL0     C97524   7.104   7.332   2.425  0.3202  0.1172  0.8157
  723MOL0     C97525   7.302   7.670   2.626 -0.6401 -0.2317  0.2841
  723MOL0     C97526   7.396   7.663   2.732 -0.3211  0.2236 -0.4520
  723MOL0     C97527   7.444   7.778   2.789  0.2672 -0.0142 -0.4690
  723MOL0     C97528   7.403   7.904   2.744  0.1654 -0.1517  0.5475
  723MOL0     O97529   7.443   8.010   2.824 -0.9594 -0.2554  0.4170
  723MOL0     C97530   7.336   8.100   2.864  0.7365 -0.3314  0.2376
  723MOL0     C97531   7.388   8.178   2.983 -0.2904  1.5369  0.0439
  723MOL0     C97532   7.273   8.238   3.070  0.8646  0.2294  0.6101
  723MOL0     C97533   7.320   8.306   3.204  0.5415 -1.1704  0.7434
  723MOL0     C97534   7.427   8.224   3.264 -0.1322 -0.9511 -0.2423
  723MOL0     C97535   7.516   8.158   3.323 -0.3269  0.3076 -0.0362
  723MOL0     C97536   7.313   7.912   2.635 -0.0854 -0.5337 -0.2952
  723MOL0     C97537   7.255   7.797   2.581 -0.8422 -0.3908  0.2114
  723MOL0     H97538   7.372   7.428   2.247  0.5372 -1.5468 -0.7351
  723MOL0     H97539   7.332   7.192   2.134 -1.9300  0.7337 -2.7659
  723MOL0     H97540   7.016   7.047   2.034 -0.2944 -0.7049  0.4006
  723MOL0     H97541   7.199   7.073   2.009  0.8436 -1.5947 -0.0209
  723MOL0     H97542   7.102   6.828   2.128  1.7883  0.3084  0.4074
  723MOL0     H97543   7.105   6.851   1.941  3.7314  0.5081 -1.6956
  723MOL0     H97544   7.337   6.906   1.966 -3.6372 -0.4483 -1.2298
  723MOL0     H97545   7.322   6.877   2.147 -5.4738  0.3725  1.8760
  723MOL0     H97546   7.286   6.664   1.921 -0.2882 -2.3429 -0.2340
  723MOL0     H97547   7.424   6.670   2.026 -0.9885 -3.3668 -1.4879
  723MOL0     H97548   7.225   6.644   2.204  0.8369  0.3902 -1.0354
  723MOL0     H97549   7.135   6.588   2.061 -0.8055  4.3292  0.6128
  723MOL0     H97550   7.391   6.473   2.179  1.4009  2.9647 -2.1939
  723MOL0     H97551   7.226   6.395   2.152 -1.1265  1.4632 -0.7911
  723MOL0     H97552   7.292   6.393   1.913 -2.0730  2.9950  2.1918
  723MOL0     H97553   7.455   6.454   1.961  1.1079 -1.6390  2.0462
  723MOL0     H97554   7.319   6.208   2.091 -0.6741  0.7890  0.2763
  723MOL0     H97555   7.487   6.236   2.092 -0.1368 -1.5508 -0.4026
  723MOL0     H97556   7.623   6.172   1.918  1.2818 -2.0961  0.9515
  723MOL0     H97557   7.690   6.027   1.697  1.4094 -0.7333 -1.6496
  723MOL0     H97558   7.662   5.878   1.772 -0.1113  0.1583 -0.6472
  723MOL0     H97559   7.497   5.961   1.540 -1.1499 -0.5136  0.5667
  723MOL0     H97560   7.527   5.792   1.596  0.6861  0.9852  1.2059
  723MOL0     H97561   7.777   5.846   1.557  1.4414  2.1302 -0.8486
  723MOL0     H97562   7.707   5.976   1.448 -0.0044  0.0233 -1.2453
  723MOL0     H97563   7.785   5.813   1.302 -1.0404  4.1280 -0.4367
  723MOL0     H97564   7.613   5.805   1.295  0.2261 -3.8030 -1.9741
  723MOL0     H97565   7.669   5.385   1.437  0.9111 -2.4674  0.6649
  723MOL0     H97566   7.641   5.102   1.214 -4.4423  1.4349  0.0591
  723MOL0     H97567   7.785   5.124   1.323  1.7225  0.5829 -1.8213
  723MOL0     H97568   7.626   5.170   1.381  3.2599  2.0527  0.9582
  723MOL0     H97569   7.601   5.184   0.737  0.3903 -0.0215  0.9196
  723MOL0     H97570   7.612   5.013   0.570 -0.2928 -1.6429 -0.0039
  723MOL0     H97571   7.913   4.739   0.667  0.2888  1.9105  1.2794
  723MOL0     H97572   7.742   4.773   0.723  0.4178 -0.8971  1.8613
  723MOL0     H97573   7.764   4.533   0.672 -1.2490  1.2122  2.5902
  723MOL0     H97574   7.654   4.630   0.577  0.4464  0.3438 -0.1995
  723MOL0     H97575   7.824   4.632   0.386  2.1929  0.2051  0.9053
  723MOL0     H97576   7.746   4.478   0.422 -1.5948  0.9623  0.2403
  723MOL0     H97577   8.016   4.583   0.529  1.0184  1.5174 -3.5528
  723MOL0     H97578   7.954   4.423   0.575  3.9872 -0.1670 -1.2130
  723MOL0     H97579   8.062   4.522   0.299 -1.4571  1.9425  2.0333
  723MOL0     H97580   7.969   4.374   0.329  0.2943 -0.4941 -0.1355
  723MOL0     H97581   8.136   4.284   0.475 -2.2450 -0.4558 -0.8106
  723MOL0     H97582   8.210   4.320   0.313 -1.2079  1.1025 -0.7082
  723MOL0     H97583   8.242   4.485   0.572  2.7186  3.4198  0.1141
  723MOL0     H97584   8.280   4.544   0.413  1.9870  0.2704 -0.9598
  723MOL0     H97585   8.488   4.485   0.501 -0.3926  1.3269 -0.4375
  723MOL0     H97586   8.452   4.380   0.373  1.4516 -1.6257  0.8596
  723MOL0     H97587   8.038   4.963   0.630  0.3643  2.2116 -2.4863
  723MOL0     H97588   8.027   5.137   0.814  0.1934 -1.2907 -0.3213
  723MOL0     H97589   7.799   5.508   0.970 -0.6629 -0.4839 -0.9359
  723MOL0     H97590   7.736   5.681   1.123 -0.8529 -0.4974 -2.2889
  723MOL0     H97591   6.995   7.153   2.407 -3.0108  0.7041 -3.2331
  723MOL0     H97592   7.045   7.365   2.511 -1.6652  1.2989 -0.8922
  723MOL0     H97593   7.422   7.570   2.781 -0.7127  1.2146  1.7710
  723MOL0     H97594   7.508   7.779   2.877  2.0101  1.3624 -1.6658
  723MOL0     H97595   7.309   8.171   2.785 -2.6927 -2.8581 -1.1272
  723MOL0     H97596   7.242   8.053   2.894 -0.6006  1.7626 -0.4336
  723MOL0     H97597   7.460   8.254   2.951  1.8056 -0.5386 -0.4798
  723MOL0     H97598   7.437   8.098   3.040 -1.3325 -0.1465 -1.3338
  723MOL0     H97599   7.203   8.157   3.090 -0.9019  1.2241 -1.2389
  723MOL0     H97600   7.222   8.314   3.010  0.2408  0.2362  1.1385
  723MOL0     H97601   7.234   8.330   3.267 -0.4802 -1.0262 -0.6553
  723MOL0     H97602   7.348   8.405   3.168 -1.6876 -1.5491 -2.3738
  723MOL0     H97603   7.602   8.097   3.345 -1.8525 -2.8176 -1.9763
  723MOL0     H97604   7.307   8.003   2.576 -1.5795 -0.2159  0.2892
  723MOL0     H97605   7.194   7.800   2.491 -2.0092  1.1880  1.0283
  724MOL0     O97606   9.362   9.003   9.499  0.5462  0.2516  0.2478
  724MOL0     C97607   9.334   8.895   9.552  0.4728  0.4392 -0.1936
  724MOL0     O97608   9.396   8.841   9.658  0.0926  0.0580  1.0162
  724MOL0     C97609   9.526   8.859   9.697 -0.4121  0.2958 -0.4585
  724MOL0     C97610   9.574   8.770   9.803  0.2793  0.2843 -0.6581
  724MOL0     C97611   9.711   8.772   9.837  0.5720  0.5443 -0.0654
  724MOL0     C97612   9.798   8.852   9.764 -0.2637  0.8825  0.1158
  724MOL0     O97613   9.930   8.830   9.807 -0.4023 -1.4337  0.0698
  724MOL0     C97614  10.028   8.905   9.736 -0.1877  0.0479  0.4286
  724MOL0     C97615  10.170   8.857   9.759 -0.8686 -0.2570  0.4476
  724MOL0     C97616  10.256   8.893   9.640  0.3613  0.2386  1.7226
  724MOL0     C97617  10.333   9.023   9.673 -0.5053  0.8264  0.7004
  724MOL0     C97618  10.451   9.036   9.574  0.0505  0.1543 -0.2406
  724MOL0     C97619  10.402   9.102   9.440 -0.6526  1.0119 -0.6166
  724MOL0     C97620  10.523   9.165   9.379  0.1928  0.4363 -0.0576
  724MOL0     C97621  10.506   9.261   9.259  0.1305  0.4459 -1.0392
  724MOL0     N97622  10.627   9.336   9.228 -0.8729 -0.4321 -0.0607
  724MOL0     C97623  10.634   9.474   9.236 -0.0093  0.1546 -0.5519
  724MOL0     C97624  10.765   9.498   9.239 -0.1253  0.6862 -0.3079
  724MOL0     C97625  10.825   9.639   9.219 -0.1492  0.0689 -0.2192
  724MOL0     C97626  10.756   9.694   9.091  0.6438  0.1866 -0.0165
  724MOL0     C97627  10.839   9.650   8.976  0.0016  1.2955 -0.1656
  724MOL0     C97628  10.799   9.702   8.839 -0.4498 -0.0958 -1.2371
  724MOL0     O97629  10.864   9.816   8.801  0.3151 -0.3771  0.5395
  724MOL0     C97630  10.829   9.873   8.684 -0.0721  0.5805 -0.2122
  724MOL0     C97631  10.912   9.981   8.651  0.8588  0.2133  0.3224
  724MOL0     C97632  10.882  10.060   8.545  1.0292  0.3936  0.3945
  724MOL0     C97633  10.962  10.174   8.511  0.6356 -0.2753 -0.6110
  724MOL0     C97634  10.779  10.021   8.466 -0.1076 -0.2929 -0.2429
  724MOL0     C97635  10.724  10.107   8.348 -0.2741 -0.8428  0.3692
  724MOL0     O97636  10.725  10.050   8.228  0.9618 -0.5427 -0.0828
  724MOL0     C97637  10.695  10.106   8.118  0.2648  0.0807  1.5280
  724MOL0     C97638  10.757  10.224   8.081 -0.5395 -0.1411  0.5472
  724MOL0     C97639  10.729  10.274   7.949  1.4301  0.3709  0.4765
  724MOL0     C97640  10.650  10.200   7.865  0.0154 -0.0765 -0.4280
  724MOL0     O97641  10.616  10.239   7.744 -1.1636  0.5400  0.8862
  724MOL0     C97642  10.579  10.373   7.709  0.1997  0.0757 -0.2113
  724MOL0     C97643  10.489  10.351   7.586  0.0815 -0.8432 -0.1673
  724MOL0     C97644  10.478  10.490   7.515  0.5046  1.5438  0.6417
  724MOL0     C97645  10.344  10.561   7.567 -0.4181  0.5989 -0.0665
  724MOL0     C97646  10.360  10.716   7.563 -0.0935 -0.4592 -0.3950
  724MOL0     C97647  10.237  10.792   7.620 -0.3027  0.0042 -0.3183
  724MOL0     C97648  10.229  10.937   7.554 -0.2214  0.2536  0.1416
  724MOL0     C97649  10.117  11.016   7.600 -0.5194 -0.7018 -0.7007
  724MOL0    Cl97650  10.153  11.108   7.743  0.0834  0.0144  0.2735
  724MOL0     C97651  10.583  10.083   7.911 -0.1709 -0.5271 -0.7343
  724MOL0     C97652  10.612  10.034   8.038  0.1753  0.0359  0.9897
  724MOL0     O97653  10.705  10.225   8.382 -0.0819 -0.8489  0.9516
  724MOL0     C97654  10.718   9.897   8.479 -0.3987  0.1209  0.1522
  724MOL0     C97655  10.734   9.825   8.594  0.6002 -0.5025 -0.1161
  724MOL0     N97656  10.839   9.383   9.240  0.5659  0.2478 -0.2669
  724MOL0     N97657  10.752   9.287   9.226 -0.4261  0.8408 -1.2214
  724MOL0     C97658   9.755   8.933   9.655 -0.1585  0.1645 -0.1364
  724MOL0     C97659   9.622   8.941   9.630  0.2301  0.5783  0.0598
  724MOL0     C97660   9.207   8.829   9.521 -0.2574 -0.3415  0.0753
  724MOL0     C97661   9.091   8.891   9.473  0.4127 -0.6317 -0.5880
  724MOL0     C97662   8.965   8.828   9.474  0.1162  0.2040 -0.5941
  724MOL0     C97663   8.952   8.692   9.500 -0.0880  1.3132 -1.0812
  724MOL0     O97664   8.832   8.617   9.484 -0.2597 -0.0578  0.2659
  724MOL0     C97665   8.809   8.475   9.519  0.5482 -0.1872  0.6540
  724MOL0     C97666   8.781   8.458   9.663  0.1185 -0.3810  0.0592
  724MOL0     C97667   8.780   8.304   9.687 -0.4903  0.0608 -0.8570
  724MOL0     C97668   8.781   8.280   9.841 -0.6340 -0.4165  0.9547
  724MOL0     C97669   8.820   8.134   9.854 -0.7131 -0.4542  1.1254
  724MOL0     C97670   8.835   8.019   9.875  0.2081  0.6864  0.2351
  724MOL0     C97671   9.071   8.625   9.539  0.0640  0.1428  0.1152
  724MOL0     C97672   9.193   8.690   9.551 -0.2144  0.2143  0.2583
  724MOL0     H97673   9.500   8.719   9.864  0.3274 -0.4505 -1.2017
  724MOL0     H97674   9.755   8.723   9.923  1.7830  3.8792  1.3904
  724MOL0     H97675  10.014   8.886   9.629  1.8153 -1.4745  0.3851
  724MOL0     H97676  10.030   9.009   9.771 -0.6741 -0.7178  2.9149
  724MOL0     H97677  10.203   8.904   9.852 -1.4427  1.5571 -0.2088
  724MOL0     H97678  10.174   8.750   9.779  2.6363 -0.1398  1.0631
  724MOL0     H97679  10.326   8.811   9.625 -2.2982 -1.5259 -3.2814
  724MOL0     H97680  10.191   8.901   9.553 -0.5710 -1.4897  2.2170
  724MOL0     H97681  10.262   9.104   9.694 -1.6362 -0.0798  0.4901
  724MOL0     H97682  10.387   8.998   9.765  1.2875 -0.9089 -0.7449
  724MOL0     H97683  10.523   9.097   9.629  2.2573 -2.5865  0.1162
  724MOL0     H97684  10.509   8.944   9.565 -0.5028 -0.1774 -0.4561
  724MOL0     H97685  10.369   9.011   9.388  3.5379 -0.0564 -1.7392
  724MOL0     H97686  10.327   9.180   9.452 -3.2189 -1.3418 -0.2531
  724MOL0     H97687  10.576   9.223   9.456  2.0785 -2.0761  0.6468
  724MOL0     H97688  10.598   9.090   9.350 -1.9373 -2.3625  1.2521
  724MOL0     H97689  10.429   9.330   9.295  1.6261  1.3226  0.6390
  724MOL0     H97690  10.473   9.200   9.174  1.1470 -0.4949 -0.7799
  724MOL0     H97691  10.542   9.531   9.230 -1.6893 -2.4456 -1.1252
  724MOL0     H97692  10.800   9.699   9.307 -0.3482  0.5057 -0.5730
  724MOL0     H97693  10.934   9.630   9.208 -0.3393  0.8155 -3.8214
  724MOL0     H97694  10.761   9.803   9.091 -3.7774  0.5716  1.0385
  724MOL0     H97695  10.653   9.660   9.091  2.0067 -4.7197 -1.3416
  724MOL0     H97696  10.836   9.540   8.969  1.0145  1.3267 -5.2961
  724MOL0     H97697  10.946   9.669   8.993 -0.3235  0.1363  4.1941
  724MOL0     H97698  10.694   9.731   8.836 -1.1625 -2.5111 -3.1600
  724MOL0     H97699  10.810   9.617   8.771 -0.0639 -1.7138  0.7495
  724MOL0     H97700  10.999  10.008   8.709 -0.1751 -1.1114  2.6359
  724MOL0     H97701  10.990  10.163   8.406  2.3148  2.2495 -0.5270
  724MOL0     H97702  10.908  10.269   8.516 -1.7853 -1.4247 -2.6855
  724MOL0     H97703  11.047  10.177   8.581  0.5843  2.1480 -0.5823
  724MOL0     H97704  10.846  10.261   8.130 -2.3312  1.7767  2.5912
  724MOL0     H97705  10.764  10.365   7.901 -2.0275  2.0140  0.7241
  724MOL0     H97706  10.534  10.417   7.798 -0.8942 -1.1695 -0.1085
  724MOL0     H97707  10.664  10.430   7.671  1.6141 -2.0517 -0.4131
  724MOL0     H97708  10.528  10.276   7.516 -1.0476 -1.0927 -0.5497
  724MOL0     H97709  10.392  10.317   7.623 -2.1344  0.1219 -4.5027
  724MOL0     H97710  10.479  10.475   7.407 -0.1080 -2.0064  1.0311
  724MOL0     H97711  10.561  10.555   7.544  2.5355 -1.4062  1.8338
  724MOL0     H97712  10.255  10.525   7.515  0.3956 -2.2543  0.3745
  724MOL0     H97713  10.326  10.531   7.671 -0.9697 -0.9147 -0.5782
  724MOL0     H97714  10.375  10.734   7.456 -2.0540 -1.2689 -0.8408
  724MOL0     H97715  10.445  10.745   7.624 -0.1711  1.8275 -1.2667
  724MOL0     H97716  10.147  10.745   7.579 -1.1088  1.4777 -0.3427
  724MOL0     H97717  10.219  10.806   7.727 -2.1250 -0.9904 -0.4667
  724MOL0     H97718  10.198  10.917   7.451 -2.1651  0.0508  0.7049
  724MOL0     H97719  10.325  10.987   7.569 -1.0471  2.4276 -1.3819
  724MOL0     H97720  10.030  10.951   7.617 -0.5497 -0.9856 -1.8283
  724MOL0     H97721  10.080  11.092   7.530 -2.0716 -0.1203  0.6888
  724MOL0     H97722  10.533  10.032   7.829 -0.1994 -0.5969 -0.6734
  724MOL0     H97723  10.578   9.938   8.074  0.3251 -0.1769  0.5819
  724MOL0     H97724  10.661   9.877   8.389  1.7294  0.4368 -1.3685
  724MOL0     H97725  10.675   9.737   8.618  0.5166 -0.2094  0.7700
  724MOL0     H97726   9.838   8.986   9.610  1.1917 -2.7296 -1.3097
  724MOL0     H97727   9.594   9.006   9.547 -1.1039  0.7570  0.6217
  724MOL0     H97728   9.082   8.999   9.474 -1.7977 -0.6575  2.8905
  724MOL0     H97729   8.868   8.877   9.479 -0.5176 -1.0290  3.6353
  724MOL0     H97730   8.727   8.426   9.464 -1.4930 -0.9828  4.0717
  724MOL0     H97731   8.890   8.406   9.492 -0.2468 -1.1897  0.7644
  724MOL0     H97732   8.691   8.503   9.705  0.0246  0.1095 -0.6523
  724MOL0     H97733   8.868   8.495   9.717  1.5775 -1.5924 -1.3568
  724MOL0     H97734   8.859   8.248   9.636 -1.8018 -0.1629 -2.7573
  724MOL0     H97735   8.687   8.260   9.651 -0.2803 -2.6288  1.5409
  724MOL0     H97736   8.683   8.301   9.884 -0.8966 -0.4949  0.4091
  724MOL0     H97737   8.846   8.346   9.899 -0.5498  1.2880 -0.9669
  724MOL0     H97738   8.835   7.921   9.917  0.3462  1.0674  1.1526
  724MOL0     H97739   9.074   8.518   9.553  2.6245  0.0282 -0.8949
  724MOL0     H97740   9.275   8.631   9.589  2.4542  3.3864 -0.1153
  725MOL0     O97741   0.042   7.699   1.348  0.7854  0.0702  0.0735
  725MOL0     C97742   0.036   7.734   1.465 -0.0841 -0.0518  0.8035
  725MOL0     O97743   0.116   7.692   1.569  0.2050  0.1648 -0.4429
  725MOL0     C97744   0.221   7.613   1.544 -0.1731 -0.3063 -0.7581
  725MOL0     C97745   0.196   7.476   1.511 -0.7191  0.3916  0.6414
  725MOL0     C97746   0.302   7.383   1.509  0.2249  0.0353  0.3734
  725MOL0     C97747   0.432   7.423   1.534 -0.3050 -0.0530  0.0191
  725MOL0     O97748   0.522   7.326   1.540  0.4844 -0.0016 -0.4174
  725MOL0     C97749   0.657   7.362   1.543 -0.0204 -0.4053  0.7406
  725MOL0     C97750   0.748   7.240   1.564 -0.2400 -1.3229 -0.8180
  725MOL0     C97751   0.777   7.143   1.447  1.4357  0.3303 -0.2396
  725MOL0     C97752   0.644   7.100   1.389  0.0233  0.3998 -0.0768
  725MOL0     C97753   0.649   7.005   1.263 -0.6053  0.6572  0.0897
  725MOL0     C97754   0.686   6.853   1.283 -0.7177  0.4931 -0.3825
  725MOL0     C97755   0.696   6.771   1.155  0.3291 -0.2656 -1.4076
  725MOL0     C97756   0.825   6.807   1.070  0.3450 -1.3378 -0.5752
  725MOL0     N97757   0.796   6.821   0.927  0.3851 -0.4450 -0.5231
  725MOL0     C97758   0.703   6.911   0.869 -0.4239  0.1788 -0.3093
  725MOL0     C97759   0.692   6.866   0.746 -0.5721 -0.8353 -0.3002
  725MOL0     C97760   0.618   6.941   0.636  0.2575 -0.3172  0.1067
  725MOL0     C97761   0.538   7.072   0.666 -0.7101  0.0213 -0.3485
  725MOL0     C97762   0.431   7.066   0.786  0.0424 -0.0284  0.1388
  725MOL0     C97763   0.348   7.188   0.782  0.2521 -0.1433  0.2979
  725MOL0     O97764   0.285   7.190   0.656 -0.2967  0.1156 -0.2941
  725MOL0     C97765   0.181   7.281   0.630  0.4059  0.2550 -0.4689
  725MOL0     C97766   0.052   7.233   0.594 -0.0165  0.2751 -0.4626
  725MOL0     C97767  -0.061   7.315   0.586  0.0964 -0.3810  0.0316
  725MOL0     C97768  -0.189   7.240   0.545 -0.7868  0.4992 -0.5693
  725MOL0     C97769  -0.051   7.451   0.612 -0.2605  1.0100 -0.0474
  725MOL0     C97770  -0.163   7.548   0.589  0.7606 -0.1443  0.7022
  725MOL0     O97771  -0.116   7.675   0.576  0.5501  0.2293 -0.5521
  725MOL0     C97772  -0.197   7.786   0.587  0.0707  0.6092 -0.0813
  725MOL0     C97773  -0.333   7.794   0.546  0.3080  0.9812 -0.9221
  725MOL0     C97774  -0.401   7.908   0.565 -0.1438  0.1763 -0.4724
  725MOL0     C97775  -0.343   8.026   0.613 -0.0766  0.1318  1.0231
  725MOL0     O97776  -0.408   8.143   0.624 -0.2192 -0.8821 -0.1379
  725MOL0     C97777  -0.529   8.181   0.559 -0.2471  0.0733 -0.0709
  725MOL0     C97778  -0.557   8.326   0.579 -0.2124 -0.1388 -0.7983
  725MOL0     C97779  -0.598   8.359   0.722  0.2880 -0.4652  0.1589
  725MOL0     C97780  -0.660   8.496   0.728  0.3041 -0.5852  0.5284
  725MOL0     C97781  -0.661   8.550   0.875 -0.2170  0.3655 -0.0253
  725MOL0     C97782  -0.731   8.452   0.975 -0.2448  0.4231  0.4235
  725MOL0     C97783  -0.707   8.482   1.126 -0.4212 -0.3393  0.1149
  725MOL0     C97784  -0.782   8.395   1.236  0.8207 -0.4081 -0.0517
  725MOL0    Cl97785  -0.952   8.416   1.203  0.4106 -0.2620 -0.1711
  725MOL0     C97786  -0.211   8.016   0.654 -0.1899 -0.9559 -0.2562
  725MOL0     C97787  -0.138   7.896   0.640  0.1778 -0.6722  0.0577
  725MOL0     O97788  -0.279   7.510   0.609  0.7309  0.3126  0.1933
  725MOL0     C97789   0.080   7.502   0.652 -0.8507  0.6335  0.6622
  725MOL0     C97790   0.199   7.420   0.657  0.0361 -0.6937 -0.2834
  725MOL0     N97791   0.779   6.765   0.722 -0.1081 -0.0668  0.6007
  725MOL0     N97792   0.827   6.729   0.829  0.2007 -0.2330 -0.7989
  725MOL0     C97793   0.456   7.555   1.563 -0.0560 -0.2494  0.5402
  725MOL0     C97794   0.353   7.656   1.558 -0.4027 -0.2814 -0.0511
  725MOL0     C97795  -0.062   7.849   1.502  0.3686  0.9169  0.6098
  725MOL0     C97796  -0.113   7.936   1.403  0.6772  0.3655  0.8510
  725MOL0     C97797  -0.192   8.043   1.435 -0.5270  0.6720  0.2732
  725MOL0     C97798  -0.226   8.073   1.568 -0.1337  0.1122 -0.4451
  725MOL0     O97799  -0.306   8.180   1.575  0.0476  0.0732  0.0429
  725MOL0     C97800  -0.376   8.193   1.697 -0.9292  0.0645 -0.6321
  725MOL0     C97801  -0.457   8.313   1.703 -0.0177  0.0658 -0.2928
  725MOL0     C97802  -0.371   8.440   1.740 -1.1131  0.0699  0.1512
  725MOL0     C97803  -0.396   8.548   1.637  0.0849  0.7533 -0.1461
  725MOL0     C97804  -0.537   8.577   1.626  0.1783  0.0362 -0.4913
  725MOL0     C97805  -0.654   8.608   1.620  0.2837 -0.2927 -0.8061
  725MOL0     C97806  -0.176   7.984   1.666 -0.0361 -0.0182  0.1866
  725MOL0     C97807  -0.095   7.880   1.635 -0.1948  0.1009  0.3541
  725MOL0     H97808   0.091   7.451   1.503 -0.9814  1.4571  0.5925
  725MOL0     H97809   0.276   7.279   1.488  1.4757 -0.3275  0.5459
  725MOL0     H97810   0.676   7.433   1.463  2.1351  1.7599  3.0059
  725MOL0     H97811   0.672   7.421   1.634  0.1754  1.4218 -0.4334
  725MOL0     H97812   0.846   7.283   1.585 -1.1003 -0.1528  1.0174
  725MOL0     H97813   0.706   7.197   1.655  2.2989 -1.5091  0.3451
  725MOL0     H97814   0.835   7.199   1.374 -0.3706  2.0981 -0.4230
  725MOL0     H97815   0.831   7.051   1.468  1.0217 -0.4191 -2.2502
  725MOL0     H97816   0.584   7.038   1.457 -1.9762 -0.9467 -2.8796
  725MOL0     H97817   0.579   7.183   1.362 -1.7213 -1.8106 -3.3233
  725MOL0     H97818   0.549   7.003   1.219 -0.4589 -1.8181 -0.2684
  725MOL0     H97819   0.709   7.050   1.183 -2.0036  0.4821 -1.1051
  725MOL0     H97820   0.781   6.854   1.339 -0.8706 -0.2705 -0.0905
  725MOL0     H97821   0.612   6.805   1.348  0.2623  0.0832  0.4676
  725MOL0     H97822   0.700   6.665   1.178  1.7056  0.1397  0.4930
  725MOL0     H97823   0.607   6.789   1.094 -1.2392  1.4199  1.2006
  725MOL0     H97824   0.905   6.735   1.090  2.0912  0.0035 -2.4033
  725MOL0     H97825   0.847   6.912   1.091 -2.1555 -0.8698  0.0447
  725MOL0     H97826   0.646   6.979   0.931 -0.5406 -1.8841  1.9730
  725MOL0     H97827   0.693   6.967   0.560  0.2873  0.0940  0.2725
  725MOL0     H97828   0.546   6.868   0.599 -0.5221  0.8731 -0.8475
  725MOL0     H97829   0.495   7.111   0.573  1.2684  2.5288 -0.3051
  725MOL0     H97830   0.612   7.146   0.697  0.3688  0.3930 -3.4891
  725MOL0     H97831   0.473   7.056   0.886 -1.3607 -0.2999  0.7135
  725MOL0     H97832   0.364   6.984   0.757 -1.4183  1.6488 -1.4952
  725MOL0     H97833   0.402   7.280   0.802  1.9376 -1.3878  1.8689
  725MOL0     H97834   0.271   7.164   0.856 -1.8456 -0.9740 -2.0233
  725MOL0     H97835   0.046   7.126   0.577  1.2286  0.1444 -0.1934
  725MOL0     H97836  -0.175   7.131   0.541 -2.1620  0.1747  1.6596
  725MOL0     H97837  -0.268   7.261   0.618 -0.1587  0.7562  0.0409
  725MOL0     H97838  -0.227   7.260   0.444 -3.0905 -0.8250 -0.0515
  725MOL0     H97839  -0.394   7.715   0.502 -2.6247  2.0867  0.8727
  725MOL0     H97840  -0.500   7.908   0.521 -1.0354 -0.0135  1.4195
  725MOL0     H97841  -0.501   8.162   0.455  4.2509  2.1315  0.5442
  725MOL0     H97842  -0.618   8.129   0.598 -2.4595  3.0779 -0.7259
  725MOL0     H97843  -0.471   8.384   0.546 -0.4171 -0.0258 -1.1326
  725MOL0     H97844  -0.635   8.340   0.504  0.2179  3.5741 -0.7090
  725MOL0     H97845  -0.511   8.355   0.788 -0.9666  1.9143  2.1085
  725MOL0     H97846  -0.673   8.287   0.754 -0.2636  0.0905  0.1256
  725MOL0     H97847  -0.605   8.567   0.665 -2.6411  4.1456  2.7804
  725MOL0     H97848  -0.758   8.486   0.680  0.9813  2.4572 -1.7821
  725MOL0     H97849  -0.718   8.644   0.873 -0.2339  0.6992  4.8192
  725MOL0     H97850  -0.560   8.563   0.914  0.0523 -1.9820  0.1926
  725MOL0     H97851  -0.837   8.457   0.948  0.2259  3.8707 -1.3906
  725MOL0     H97852  -0.699   8.348   0.965 -0.2251  0.1942  2.3968
  725MOL0     H97853  -0.735   8.586   1.141  1.2626 -0.0106  1.3214
  725MOL0     H97854  -0.600   8.465   1.145 -0.8118 -0.1868  2.8411
  725MOL0     H97855  -0.762   8.434   1.337 -1.5864 -3.3409  1.7564
  725MOL0     H97856  -0.759   8.289   1.228 -1.6804 -1.2113  2.0400
  725MOL0     H97857  -0.161   8.099   0.703 -0.9191 -2.2008  2.7959
  725MOL0     H97858  -0.036   7.910   0.675 -0.9977  0.4795  3.4741
  725MOL0     H97859   0.107   7.603   0.680  1.5958  1.0350 -2.6368
  725MOL0     H97860   0.291   7.472   0.684  0.1505  0.4193 -2.5634
  725MOL0     H97861   0.550   7.598   1.594 -0.5863  0.2398  1.4922
  725MOL0     H97862   0.369   7.758   1.590  1.3845  0.5371 -3.1585
  725MOL0     H97863  -0.101   7.912   1.298 -0.3598  1.0154  0.5728
  725MOL0     H97864  -0.222   8.118   1.363  0.7865  1.1982  0.2558
  725MOL0     H97865  -0.431   8.098   1.704  1.2639 -1.1837  0.7912
  725MOL0     H97866  -0.309   8.192   1.783  0.7887  0.4727 -1.9259
  725MOL0     H97867  -0.545   8.301   1.768 -0.7305  4.1741 -0.2513
  725MOL0     H97868  -0.498   8.335   1.604  2.5800  0.5953 -1.3038
  725MOL0     H97869  -0.266   8.414   1.760 -1.5513 -1.1866  0.9369
  725MOL0     H97870  -0.419   8.485   1.827 -3.0299  2.4798 -1.9788
  725MOL0     H97871  -0.370   8.500   1.542 -0.1067 -0.4512  0.3928
  725MOL0     H97872  -0.323   8.626   1.659  2.8126 -1.7717  0.5315
  725MOL0     H97873  -0.751   8.652   1.605  0.4823  0.3619 -0.2108
  725MOL0     H97874  -0.212   7.988   1.768 -1.1714 -0.2471 -0.1925
  725MOL0     H97875  -0.056   7.822   1.718  1.5107  2.7929  1.5915
  726MOL0     O97876   6.579  10.770   2.974 -0.9653  0.5128 -0.3485
  726MOL0     C97877   6.494  10.698   2.918  0.2957 -0.4338 -0.7043
  726MOL0     O97878   6.454  10.569   2.953 -0.3818 -0.5819 -0.2997
  726MOL0     C97879   6.515  10.514   3.063  0.0242  0.4571 -0.1340
  726MOL0     C97880   6.591  10.396   3.043 -0.2981 -0.8645 -1.0526
  726MOL0     C97881   6.643  10.322   3.157  1.4411  0.2969  0.0630
  726MOL0     C97882   6.609  10.371   3.289  0.8171  0.1219  0.5035
  726MOL0     O97883   6.653  10.286   3.396 -0.5332  0.4649  0.0790
  726MOL0     C97884   6.654  10.337   3.529 -0.0513 -0.3105  0.3865
  726MOL0     C97885   6.762  10.273   3.604 -0.2667 -0.1227 -0.0612
  726MOL0     C97886   6.722  10.285   3.750 -0.5677  0.0449  0.2326
  726MOL0     C97887   6.699  10.433   3.798  0.4123  0.4724 -0.0026
  726MOL0     C97888   6.654  10.435   3.942 -0.0570  0.3104  0.6891
  726MOL0     C97889   6.610  10.578   3.972 -0.2911 -0.2252 -0.2914
  726MOL0     C97890   6.589  10.610   4.129  0.0476  0.4379  0.7602
  726MOL0     C97891   6.462  10.534   4.180  0.0235 -0.0179  0.2239
  726MOL0     N97892   6.427  10.570   4.318  0.2531  1.0161 -0.3275
  726MOL0     C97893   6.505  10.601   4.416 -0.0034 -0.0203 -0.5140
  726MOL0     C97894   6.434  10.615   4.526 -0.4957  0.3687  0.6368
  726MOL0     C97895   6.494  10.646   4.661  0.4545 -0.5956  0.5265
  726MOL0     C97896   6.420  10.744   4.763 -0.3295  0.4948 -0.1951
  726MOL0     C97897   6.470  10.888   4.728 -0.1561  1.3579 -0.2067
  726MOL0     C97898   6.379  10.999   4.782  0.4239  0.3060  0.0482
  726MOL0     O97899   6.371  11.010   4.928  0.9534 -0.5662 -0.3892
  726MOL0     C97900   6.314  11.131   4.963 -0.4387  0.0168 -0.1640
  726MOL0     C97901   6.369  11.193   5.077  0.0742  1.0254  0.1707
  726MOL0     C97902   6.316  11.309   5.130 -0.0805  0.5057 -0.0345
  726MOL0     C97903   6.377  11.364   5.252 -0.0502  0.4944 -0.4387
  726MOL0     C97904   6.203  11.364   5.058  0.9026 -0.1935  0.0588
  726MOL0     C97905   6.136  11.492   5.089 -0.3559 -0.0279 -0.8961
  726MOL0     O97906   6.076  11.558   4.989  0.5809  0.3309 -0.9744
  726MOL0     C97907   6.026  11.682   5.013 -0.7795  0.4185 -0.1280
  726MOL0     C97908   5.915  11.718   5.087  0.1832  1.0507  1.0175
  726MOL0     C97909   5.862  11.850   5.100 -0.5228  0.1923 -0.3347
  726MOL0     C97910   5.931  11.944   5.029 -0.5699 -0.1484 -0.3797
  726MOL0     O97911   5.886  12.071   5.052  0.0945  0.2430 -1.0454
  726MOL0     C97912   5.806  12.119   4.942 -0.5606  0.5393 -0.2562
  726MOL0     C97913   5.715  12.227   5.000  0.3572 -0.0765 -0.3867
  726MOL0     C97914   5.659  12.314   4.879 -0.1591 -0.0496 -0.3273
  726MOL0     C97915   5.751  12.428   4.857 -0.6590  0.0635 -0.9471
  726MOL0     C97916   5.690  12.522   4.755 -0.1761  0.1708 -0.3427
  726MOL0     C97917   5.794  12.620   4.689  0.5859 -0.1154  0.0785
  726MOL0     C97918   5.725  12.742   4.627  0.4087  0.0430  0.2667
  726MOL0     C97919   5.805  12.817   4.518  0.5907 -0.2822 -0.7836
  726MOL0    Cl97920   5.692  12.965   4.490  0.0073 -0.4350 -0.0915
  726MOL0     C97921   6.042  11.921   4.950 -0.4007  1.0483 -0.7368
  726MOL0     C97922   6.087  11.786   4.939 -0.4062  0.6526 -0.8265
  726MOL0     O97923   6.141  11.533   5.208  0.9052  1.0325  0.4394
  726MOL0     C97924   6.143  11.295   4.951 -0.6094 -0.2809 -0.0136
  726MOL0     C97925   6.188  11.178   4.906 -0.6939  0.3339  0.6850
  726MOL0     N97926   6.305  10.586   4.493  0.7125 -0.3048 -0.3606
  726MOL0     N97927   6.305  10.565   4.368  0.1281  0.0562  0.1950
  726MOL0     C97928   6.540  10.494   3.306 -0.8008  0.2507  1.3259
  726MOL0     C97929   6.494  10.565   3.193  0.4982 -0.7680  0.5881
  726MOL0     C97930   6.409  10.762   2.817  0.7078  0.2916  0.8644
  726MOL0     C97931   6.291  10.703   2.769  0.0974 -0.4516 -0.1939
  726MOL0     C97932   6.199  10.767   2.680  0.6013 -0.9713 -0.2911
  726MOL0     C97933   6.231  10.894   2.626  0.2265 -0.2560 -0.7353
  726MOL0     O97934   6.148  10.942   2.529 -0.0960  0.0920  0.1969
  726MOL0     C97935   6.174  11.073   2.482 -0.1534 -0.8958 -0.2546
  726MOL0     C97936   6.104  11.177   2.580 -0.6669  0.8396 -0.1338
  726MOL0     C97937   6.079  11.320   2.525  0.3522 -0.0559  1.1742
  726MOL0     C97938   5.974  11.338   2.405 -0.1532  0.0130 -0.5654
  726MOL0     C97939   5.983  11.472   2.360 -0.3382  0.2824 -0.2413
  726MOL0     C97940   5.990  11.588   2.316 -0.7876  0.2736 -0.2762
  726MOL0     C97941   6.340  10.965   2.685  0.2080 -0.5750  0.3094
  726MOL0     C97942   6.429  10.892   2.769 -0.0884  0.2247  0.0749
  726MOL0     H97943   6.605  10.349   2.947  0.3322 -0.3578 -1.2121
  726MOL0     H97944   6.720  10.248   3.137 -0.7032 -2.7751  2.1858
  726MOL0     H97945   6.673  10.444   3.534  1.0330 -0.4687  0.0093
  726MOL0     H97946   6.550  10.328   3.562 -1.0620  2.7367 -1.6084
  726MOL0     H97947   6.801  10.180   3.561  3.8213  1.0893  0.6219
  726MOL0     H97948   6.851  10.334   3.584 -0.4011  0.1689  0.2201
  726MOL0     H97949   6.637  10.219   3.771 -0.9771  0.0181 -1.3413
  726MOL0     H97950   6.806  10.250   3.810 -1.3140  0.9882  1.8700
  726MOL0     H97951   6.787  10.494   3.774  0.1022  0.0213 -2.5553
  726MOL0     H97952   6.608  10.473   3.753  0.0777 -1.8601 -1.5436
  726MOL0     H97953   6.583  10.357   3.971  2.6450 -1.1851  4.0120
  726MOL0     H97954   6.748  10.418   3.996 -1.3180 -0.8756  2.6175
  726MOL0     H97955   6.679  10.654   3.934 -3.2261  2.9300  0.2066
  726MOL0     H97956   6.523  10.595   3.908 -0.3553  0.9511  0.0912
  726MOL0     H97957   6.678  10.583   4.187  0.1328  0.0214  0.4368
  726MOL0     H97958   6.581  10.719   4.140 -0.5842  0.4651  0.0622
  726MOL0     H97959   6.479  10.426   4.176 -1.0173 -0.2738  2.0040
  726MOL0     H97960   6.374  10.558   4.119  0.1546  1.7326  0.6720
  726MOL0     H97961   6.613  10.616   4.415 -0.2228  1.7843 -0.7987
  726MOL0     H97962   6.507  10.548   4.708  1.0665  0.7847  3.4406
  726MOL0     H97963   6.593  10.689   4.643 -1.2766  2.4443 -3.3764
  726MOL0     H97964   6.441  10.706   4.863 -3.1032  3.7374  1.8363
  726MOL0     H97965   6.313  10.727   4.749 -0.6907  1.1245  1.5805
  726MOL0     H97966   6.490  10.900   4.622 -0.6638  0.8276 -0.3668
  726MOL0     H97967   6.566  10.909   4.776 -0.4738  0.3996  0.8917
  726MOL0     H97968   6.283  10.967   4.741  1.1902 -0.7856 -0.9736
  726MOL0     H97969   6.418  11.091   4.739  1.5638 -1.7057 -3.6775
  726MOL0     H97970   6.453  11.145   5.126 -0.1753 -0.3773 -0.6987
  726MOL0     H97971   6.395  11.471   5.235  1.7668 -0.0067 -2.0125
  726MOL0     H97972   6.315  11.338   5.338 -0.3312  0.3666 -0.6789
  726MOL0     H97973   6.468  11.309   5.278 -1.1118 -0.7548  0.8320
  726MOL0     H97974   5.865  11.642   5.146  1.6960 -0.5989  0.2500
  726MOL0     H97975   5.773  11.882   5.153  0.0996 -2.5207  2.6873
  726MOL0     H97976   5.875  12.163   4.869 -4.1844  1.4392 -3.4583
  726MOL0     H97977   5.737  12.042   4.907 -0.6559  0.4600  0.1021
  726MOL0     H97978   5.633  12.188   5.060 -0.9614  3.1409  0.1179
  726MOL0     H97979   5.782  12.286   5.063  4.7950 -1.4617 -3.3198
  726MOL0     H97980   5.561  12.353   4.905 -0.1176  0.4503 -0.9107
  726MOL0     H97981   5.657  12.255   4.787  2.7585 -3.5901  1.5979
  726MOL0     H97982   5.755  12.486   4.950 -1.0240 -0.7787 -0.3986
  726MOL0     H97983   5.849  12.388   4.832 -0.0756  1.2653 -0.6467
  726MOL0     H97984   5.607  12.567   4.810 -0.7334  1.5789 -2.2579
  726MOL0     H97985   5.637  12.453   4.688  0.5265 -2.6088  1.7267
  726MOL0     H97986   5.867  12.658   4.761  0.9631  3.4299 -1.9286
  726MOL0     H97987   5.845  12.570   4.606 -1.6000  0.8055 -1.9251
  726MOL0     H97988   5.716  12.816   4.707 -2.1251 -2.2391  2.2930
  726MOL0     H97989   5.630  12.704   4.589  1.4386 -0.9548 -1.4268
  726MOL0     H97990   5.797  12.761   4.424  0.4509 -0.3159 -0.7532
  726MOL0     H97991   5.911  12.838   4.535 -0.2369  2.6130  1.5950
  726MOL0     H97992   6.092  12.008   4.909  0.1184  1.3491  0.4897
  726MOL0     H97993   6.166  11.781   4.865  0.6224  2.5750  0.0732
  726MOL0     H97994   6.069  11.347   4.890  0.3582  1.9055  0.5597
  726MOL0     H97995   6.135  11.131   4.823  0.6404  1.5747 -0.9383
  726MOL0     H97996   6.513  10.533   3.404  3.6313  1.3772  2.3237
  726MOL0     H97997   6.434  10.655   3.204  0.0100 -0.9540 -0.4504
  726MOL0     H97998   6.259  10.603   2.797 -0.3733 -0.1979  0.1909
  726MOL0     H97999   6.106  10.733   2.634  0.8627 -0.7154 -1.0291
  726MOL0     H98000   6.278  11.105   2.483  0.8321 -3.8193  1.0792
  726MOL0     H98001   6.132  11.094   2.383 -2.4131 -1.5485  0.5035
  726MOL0     H98002   6.157  11.177   2.676  0.0410 -1.8378 -0.4292
  726MOL0     H98003   6.009  11.133   2.610 -0.4050  0.0855 -0.3623
  726MOL0     H98004   6.172  11.368   2.492  0.8057 -1.4035  0.4214
  726MOL0     H98005   6.049  11.394   2.599  1.4261  2.7086 -0.9860
  726MOL0     H98006   5.873  11.310   2.433 -0.4022  3.0260  2.1277
  726MOL0     H98007   6.016  11.280   2.321  4.8100 -1.1036  2.2490
  726MOL0     H98008   5.984  11.689   2.281 -2.5902  0.4515  0.4388
  726MOL0     H98009   6.358  11.068   2.657 -2.0676 -0.4266 -0.8513
  726MOL0     H98010   6.522  10.938   2.802  0.8648 -1.5298 -0.0487
  727MOL0     O98011   4.700   6.401   3.601 -0.3709  0.1082  0.2403
  727MOL0     C98012   4.614   6.476   3.632 -0.2509 -0.0694 -0.0060
  727MOL0     O98013   4.538   6.466   3.746 -0.0753  0.6053 -0.0602
  727MOL0     C98014   4.561   6.356   3.825 -0.0991  0.1645 -0.6920
  727MOL0     C98015   4.666   6.353   3.922 -0.1134 -1.5000  0.2322
  727MOL0     C98016   4.671   6.256   4.024 -1.1271  0.3845 -0.0175
  727MOL0     C98017   4.558   6.175   4.032  0.0824  0.7507 -1.0134
  727MOL0     O98018   4.567   6.091   4.141 -0.5924  0.2586 -0.4599
  727MOL0     C98019   4.459   6.001   4.159 -0.0283 -0.3706  0.3977
  727MOL0     C98020   4.468   5.935   4.306  0.3072 -1.2427  0.8269
  727MOL0     C98021   4.347   5.976   4.401 -0.3053  0.0490 -0.1854
  727MOL0     C98022   4.290   6.120   4.391  0.0971  0.5885 -0.1120
  727MOL0     C98023   4.216   6.159   4.519 -1.0590  0.6212 -0.4069
  727MOL0     C98024   4.089   6.072   4.542  0.2344 -1.1236  0.6615
  727MOL0     C98025   4.019   6.125   4.673  0.4307  0.3935  0.5383
  727MOL0     C98026   3.889   6.041   4.699 -0.1010  0.2432 -0.4319
  727MOL0     N98027   3.823   6.074   4.834  0.4170  0.1404 -0.2233
  727MOL0     C98028   3.784   5.973   4.923  0.1387 -0.4931 -0.1637
  727MOL0     C98029   3.715   6.042   5.017  0.0385  0.3709  0.0354
  727MOL0     C98030   3.658   5.980   5.138  0.4607  0.0726 -0.7855
  727MOL0     C98031   3.753   5.995   5.257  0.8658  0.1832  0.4912
  727MOL0     C98032   3.820   6.131   5.278 -0.2644  0.2825  0.6253
  727MOL0     C98033   3.729   6.250   5.315  0.5073  0.0519 -0.1948
  727MOL0     O98034   3.707   6.252   5.456  0.6230 -0.1475  0.9756
  727MOL0     C98035   3.608   6.326   5.503  1.0322 -0.6731 -0.2703
  727MOL0     C98036   3.598   6.336   5.644 -0.2243  0.5446  0.6756
  727MOL0     C98037   3.505   6.422   5.701  0.2724 -0.6481  0.4921
  727MOL0     C98038   3.469   6.407   5.846 -0.2359 -0.1162  0.6828
  727MOL0     C98039   3.424   6.511   5.622  0.5183  0.2553  0.2559
  727MOL0     C98040   3.324   6.606   5.676 -0.6630 -0.5011  0.0235
  727MOL0     O98041   3.215   6.630   5.599  0.5127 -0.4170 -0.4694
  727MOL0     C98042   3.102   6.674   5.671  0.3479  0.3314 -0.0122
  727MOL0     C98043   3.042   6.606   5.776 -0.0900 -0.0480  0.2001
  727MOL0     C98044   2.927   6.647   5.843 -0.4143 -0.5075  0.2544
  727MOL0     C98045   2.881   6.778   5.825  0.4052  0.3627  1.1343
  727MOL0     O98046   2.761   6.832   5.868 -0.1932  0.3188  0.4722
  727MOL0     C98047   2.706   6.761   5.975  0.0276 -0.2694  0.3612
  727MOL0     C98048   2.587   6.826   6.041 -0.8888 -0.2488 -0.5772
  727MOL0     C98049   2.563   6.783   6.191  0.3363  0.0996  0.3063
  727MOL0     C98050   2.433   6.852   6.234  0.8999  0.0992  0.0597
  727MOL0     C98051   2.408   6.813   6.380  0.2997  0.0626  0.2709
  727MOL0     C98052   2.273   6.879   6.429  0.9610  0.0377 -0.0962
  727MOL0     C98053   2.279   7.031   6.419  1.3409  0.3950  0.1642
  727MOL0     C98054   2.194   7.103   6.532  0.5759  0.1557  0.4719
  727MOL0    Cl98055   2.023   7.055   6.528 -0.5866 -0.0218 -0.4163
  727MOL0     C98056   2.946   6.847   5.722 -0.0485 -0.5378 -0.2188
  727MOL0     C98057   3.050   6.795   5.648 -0.2392  0.1498 -0.0377
  727MOL0     O98058   3.344   6.658   5.785 -0.1749  0.1630  0.0148
  727MOL0     C98059   3.433   6.495   5.482  0.9673  0.5152 -0.3553
  727MOL0     C98060   3.523   6.398   5.425  0.0662  0.3158  0.4072
  727MOL0     N98061   3.697   6.171   4.980 -0.9954  0.3869 -0.5399
  727MOL0     N98062   3.749   6.188   4.864 -0.0396  0.3033 -0.2545
  727MOL0     C98063   4.466   6.172   3.931 -0.0232 -0.7864 -0.3308
  727MOL0     C98064   4.462   6.262   3.831 -0.5880 -0.2219  0.3816
  727MOL0     C98065   4.584   6.596   3.541 -0.1940  0.6503 -0.0061
  727MOL0     C98066   4.661   6.622   3.431 -0.6924 -0.0448 -0.9627
  727MOL0     C98067   4.641   6.738   3.354 -1.3399 -0.3693 -0.2666
  727MOL0     C98068   4.542   6.823   3.392  0.4272 -0.3431 -0.4143
  727MOL0     O98069   4.512   6.932   3.313 -0.5185  0.5850 -1.2756
  727MOL0     C98070   4.505   6.917   3.173  0.4901  0.8196 -0.7131
  727MOL0     C98071   4.592   7.028   3.115 -0.2666  0.3190  0.2790
  727MOL0     C98072   4.518   7.166   3.105 -0.3030 -0.5413  0.6512
  727MOL0     C98073   4.606   7.281   3.062 -1.2733  0.0652  0.0299
  727MOL0     C98074   4.662   7.268   2.926  0.2492 -1.0079 -0.6720
  727MOL0     C98075   4.697   7.272   2.810 -0.3459 -0.0071  0.2233
  727MOL0     C98076   4.460   6.800   3.497  0.6189 -0.0365  0.2458
  727MOL0     C98077   4.479   6.684   3.567 -0.1827  0.0245 -0.4637
  727MOL0     H98078   4.743   6.430   3.923 -0.7601 -0.8376 -0.1748
  727MOL0     H98079   4.744   6.271   4.103 -1.1479  3.0338 -0.3907
  727MOL0     H98080   4.360   6.040   4.136 -0.6399  0.6560  4.0764
  727MOL0     H98081   4.484   5.915   4.096  1.7312  1.1460 -1.1049
  727MOL0     H98082   4.469   5.826   4.300  0.0274 -1.3569  2.5278
  727MOL0     H98083   4.560   5.959   4.360 -1.6673 -1.5394  4.6592
  727MOL0     H98084   4.263   5.907   4.393 -0.9982  0.9717 -1.1638
  727MOL0     H98085   4.366   5.971   4.509 -0.0980 -1.2862 -0.2747
  727MOL0     H98086   4.377   6.186   4.390  2.4227 -2.2471 -1.7651
  727MOL0     H98087   4.226   6.127   4.303 -2.8081 -1.1389  1.7066
  727MOL0     H98088   4.281   6.154   4.606 -0.7520  0.7795 -0.6245
  727MOL0     H98089   4.185   6.263   4.502  2.6830  2.3776  2.2874
  727MOL0     H98090   4.023   6.084   4.456 -1.2628 -2.3217  1.5911
  727MOL0     H98091   4.110   5.968   4.566  0.6936 -1.2641 -0.3142
  727MOL0     H98092   4.086   6.119   4.758  0.7860  0.8794  0.2990
  727MOL0     H98093   3.996   6.232   4.670 -1.3875  0.1147  2.2145
  727MOL0     H98094   3.909   5.933   4.704  0.6661  0.4194  0.8062
  727MOL0     H98095   3.817   6.066   4.620 -0.0731  4.3165  0.6573
  727MOL0     H98096   3.819   5.871   4.935  1.9616  0.2863  1.6887
  727MOL0     H98097   3.561   6.028   5.155  0.9227  1.5783 -2.1787
  727MOL0     H98098   3.638   5.873   5.127  3.0200 -0.7073  1.2875
  727MOL0     H98099   3.826   5.915   5.247  2.2570  1.2844  1.4038
  727MOL0     H98100   3.706   5.967   5.351  1.8388 -3.1385  0.0945
  727MOL0     H98101   3.865   6.159   5.182 -2.2474  1.2959 -0.0681
  727MOL0     H98102   3.902   6.133   5.349 -0.7748  3.6963  1.2744
  727MOL0     H98103   3.642   6.241   5.251  0.4183  1.7643 -0.3463
  727MOL0     H98104   3.771   6.339   5.268  0.5156  0.6271  0.8643
  727MOL0     H98105   3.658   6.270   5.705 -0.8836 -0.2965  0.4309
  727MOL0     H98106   3.490   6.306   5.884 -3.7524 -1.4431 -0.5233
  727MOL0     H98107   3.520   6.484   5.905 -1.9615  1.4735  0.1903
  727MOL0     H98108   3.360   6.400   5.843 -0.1713 -2.0937 -2.4407
  727MOL0     H98109   3.085   6.511   5.808  0.1290  0.4215  1.3588
  727MOL0     H98110   2.889   6.583   5.922  0.7186  0.9030  2.0455
  727MOL0     H98111   2.669   6.663   5.941 -0.8142 -0.9266  2.9174
  727MOL0     H98112   2.784   6.745   6.051  0.1996 -1.1803  0.0158
  727MOL0     H98113   2.623   6.929   6.033  0.7259 -0.9340 -3.6460
  727MOL0     H98114   2.497   6.817   5.980 -0.5951  0.0415 -1.0566
  727MOL0     H98115   2.647   6.811   6.254 -0.4762 -0.7096  1.8162
  727MOL0     H98116   2.545   6.675   6.204  1.2575  0.1531  2.6246
  727MOL0     H98117   2.440   6.961   6.226 -0.2340  0.2288  0.5621
  727MOL0     H98118   2.360   6.813   6.163  1.2473 -0.2580 -0.1037
  727MOL0     H98119   2.492   6.860   6.432  2.3130  0.2564 -2.8272
  727MOL0     H98120   2.415   6.704   6.394  1.6896 -0.2814 -2.3614
  727MOL0     H98121   2.191   6.843   6.365 -0.0291  1.7722  0.1270
  727MOL0     H98122   2.256   6.855   6.534  0.0173  2.0037  0.2406
  727MOL0     H98123   2.254   7.074   6.321  3.5325  3.1502  0.6954
  727MOL0     H98124   2.381   7.067   6.432  0.8102  1.9033  0.2818
  727MOL0     H98125   2.205   7.211   6.515  1.4445 -0.1599 -1.1639
  727MOL0     H98126   2.234   7.084   6.632  1.7445 -0.9985 -0.1721
  727MOL0     H98127   2.889   6.933   5.688  1.5203  1.3886  1.7753
  727MOL0     H98128   3.094   6.852   5.568 -0.8369  1.2688  0.3996
  727MOL0     H98129   3.362   6.538   5.412 -0.4124  1.5464  1.5719
  727MOL0     H98130   3.523   6.402   5.316  2.3474  1.2911  0.3853
  727MOL0     H98131   4.397   6.088   3.934 -0.3346 -0.5191  0.7507
  727MOL0     H98132   4.379   6.259   3.762  1.1325  2.5359 -2.0461
  727MOL0     H98133   4.745   6.556   3.412 -0.2454  0.4413 -0.7066
  727MOL0     H98134   4.702   6.759   3.266 -2.9067  0.2368 -1.2468
  727MOL0     H98135   4.550   6.827   3.131 -0.1040 -0.5512  1.4526
  727MOL0     H98136   4.404   6.913   3.132  0.5630  0.4899 -0.8629
  727MOL0     H98137   4.619   7.002   3.012  2.0193  0.9394  0.6707
  727MOL0     H98138   4.684   7.039   3.173 -0.4368 -2.8570  1.3215
  727MOL0     H98139   4.470   7.188   3.201 -0.1775  2.6594  0.0984
  727MOL0     H98140   4.439   7.170   3.030  0.6527  3.7057 -0.4310
  727MOL0     H98141   4.686   7.274   3.136 -0.3079  1.2028 -0.8630
  727MOL0     H98142   4.543   7.369   3.076 -1.9065 -0.2706 -0.6464
  727MOL0     H98143   4.752   7.289   2.720 -2.9212 -0.6842 -1.5677
  727MOL0     H98144   4.371   6.857   3.520 -0.1475 -0.7630 -0.8305
  727MOL0     H98145   4.419   6.674   3.657  0.7005  1.6105  0.3313
  728MOL0     O98146   6.177   9.385  10.351 -0.0645  0.0839  0.7008
  728MOL0     C98147   6.281   9.412  10.296  0.1874  0.4386 -0.4270
  728MOL0     O98148   6.352   9.534  10.303  0.1634 -0.0798  0.2161
  728MOL0     C98149   6.283   9.640  10.363 -0.1911 -0.1169 -0.6847
  728MOL0     C98150   6.167   9.707  10.310  1.3780  0.1467 -0.7700
  728MOL0     C98151   6.124   9.830  10.368 -0.7328  0.3003  0.3944
  728MOL0     C98152   6.193   9.884  10.480  0.1809  0.3667 -0.1901
  728MOL0     O98153   6.140  10.001  10.532  0.0256  0.4605  0.4549
  728MOL0     C98154   6.177  10.035  10.669  0.2982  0.3778 -0.2598
  728MOL0     C98155   6.091  10.153  10.719  0.1047  0.9068 -0.6644
  728MOL0     C98156   6.054  10.126  10.863  0.6378 -1.1541  0.8918
  728MOL0     C98157   5.934  10.044  10.859  0.7617 -0.2368 -0.3576
  728MOL0     C98158   5.935   9.946  10.979  0.7953 -0.0564 -1.4103
  728MOL0     C98159   6.033   9.839  10.963 -0.1402  0.2023 -0.0149
  728MOL0     C98160   5.996   9.744  11.067  0.4754  0.5016 -1.1368
  728MOL0     C98161   6.110   9.642  11.093  1.1846  0.2551  0.1139
  728MOL0     N98162   6.116   9.554  10.976 -0.0152 -0.0849 -0.1276
  728MOL0     C98163   6.208   9.548  10.874  0.2932 -0.6143  0.8979
  728MOL0     C98164   6.189   9.430  10.806  0.1001  0.0656 -1.1370
  728MOL0     C98165   6.265   9.382  10.688 -0.6378  0.5795  0.0556
  728MOL0     C98166   6.413   9.375  10.719  0.0617 -0.0645 -0.2427
  728MOL0     C98167   6.493   9.318  10.598  0.0860  0.1417 -1.0799
  728MOL0     C98168   6.644   9.326  10.626 -1.0621  0.7287 -0.0462
  728MOL0     O98169   6.700   9.442  10.691  0.2762 -0.2246 -0.3320
  728MOL0     C98170   6.700   9.567  10.624 -0.7542  0.7069 -0.4628
  728MOL0     C98171   6.708   9.679  10.696  0.3022  0.5635 -1.0092
  728MOL0     C98172   6.717   9.814  10.644  0.1579  0.3579 -0.3839
  728MOL0     C98173   6.725   9.938  10.732  0.0843  1.4878  0.2019
  728MOL0     C98174   6.716   9.818  10.503 -0.4581  0.8625  0.4177
  728MOL0     C98175   6.685   9.943  10.437  0.9317 -0.3387  0.1387
  728MOL0     O98176   6.572  10.007  10.483  0.0326  0.0712 -0.5261
  728MOL0     C98177   6.548  10.134  10.421  0.2207 -0.0768 -0.2986
  728MOL0     C98178   6.634  10.238  10.445 -0.2643 -0.4493  0.3521
  728MOL0     C98179   6.617  10.358  10.371 -0.2895 -0.0469 -0.2801
  728MOL0     C98180   6.515  10.367  10.285  0.6241 -0.5429  0.9027
  728MOL0     O98181   6.520  10.479  10.202  0.1532 -0.2268  0.1206
  728MOL0     C98182   6.403  10.564  10.194  0.6082 -0.2104 -0.7233
  728MOL0     C98183   6.390  10.614  10.059  0.3406 -0.4067 -0.2439
  728MOL0     C98184   6.272  10.712  10.059  0.6667  0.8353 -0.0901
  728MOL0     C98185   6.313  10.843   9.982 -0.5912 -0.0972  0.1083
  728MOL0     C98186   6.197  10.940   9.961  0.3506  0.0445  0.6684
  728MOL0     C98187   6.155  11.009  10.093  0.3215  0.5441  0.2662
  728MOL0     C98188   6.029  11.098  10.070 -0.1776  0.5006 -0.0402
  728MOL0     C98189   5.992  11.166  10.202  0.1193  0.5259 -0.1660
  728MOL0    Cl98190   6.118  11.253  10.297 -0.2558 -0.3909 -0.6655
  728MOL0     C98191   6.414  10.268  10.269 -1.3172 -0.0084 -0.3435
  728MOL0     C98192   6.440  10.144  10.334  0.0864  0.4557  0.4100
  728MOL0     O98193   6.764   9.981  10.353  0.0130 -0.8218 -0.4608
  728MOL0     C98194   6.713   9.705  10.426  0.0002 -0.4550  0.6068
  728MOL0     C98195   6.686   9.581  10.485 -1.0513  0.1954 -0.8194
  728MOL0     N98196   6.098   9.355  10.879  0.2662 -1.1187  0.6863
  728MOL0     N98197   6.054   9.432  10.973  0.2969  0.5317  0.3548
  728MOL0     C98198   6.303   9.808  10.538 -0.5275 -0.4812  0.3965
  728MOL0     C98199   6.351   9.693  10.475  0.3785  0.3288 -1.0713
  728MOL0     C98200   6.366   9.311  10.230 -0.0293  0.9052 -0.7782
  728MOL0     C98201   6.324   9.178  10.213  0.3643  0.6616  0.0232
  728MOL0     C98202   6.406   9.088  10.144 -0.2484 -0.0672  0.0727
  728MOL0     C98203   6.537   9.114  10.091  0.4042 -0.5477 -0.6930
  728MOL0     O98204   6.601   9.026  10.010 -0.8337  0.3803 -0.0396
  728MOL0     C98205   6.526   8.918   9.953 -0.4746 -0.0901 -0.1817
  728MOL0     C98206   6.605   8.852   9.847  0.4455 -0.2003  0.4702
  728MOL0     C98207   6.701   8.747   9.894 -0.0868  0.7029 -0.5309
  728MOL0     C98208   6.762   8.663   9.786 -0.0402  0.9025 -0.6572
  728MOL0     C98209   6.687   8.536   9.756 -0.2903  0.6806 -0.2775
  728MOL0     C98210   6.647   8.423   9.733  0.8765 -1.3150 -0.4149
  728MOL0     C98211   6.574   9.245  10.115 -0.0958 -0.1217  1.5906
  728MOL0     C98212   6.499   9.335  10.188  0.1352 -0.0878  0.2894
  728MOL0     H98213   6.123   9.673  10.217  1.8446 -1.2889 -0.4955
  728MOL0     H98214   6.038   9.881  10.325 -0.5927  0.2104  0.0022
  728MOL0     H98215   6.143   9.954  10.733 -5.6132  2.6564  0.1244
  728MOL0     H98216   6.279  10.067  10.689 -0.5580  1.4819  2.9482
  728MOL0     H98217   6.127  10.256  10.720  0.0225  1.1018  3.8821
  728MOL0     H98218   6.001  10.155  10.657 -0.3183 -1.4338 -0.2140
  728MOL0     H98219   6.150  10.091  10.902  2.4217 -1.5836 -3.3218
  728MOL0     H98220   6.030  10.225  10.904 -0.0721  0.4551 -2.9172
  728MOL0     H98221   5.850  10.114  10.852  1.4843  0.6041 -0.7971
  728MOL0     H98222   5.931   9.983  10.769  2.3453  0.1397 -0.7062
  728MOL0     H98223   5.969  10.004  11.065  0.4164 -1.9890  0.1157
  728MOL0     H98224   5.835   9.906  10.999  0.5395  0.9193 -0.6969
  728MOL0     H98225   6.040   9.788  10.866 -0.6607  0.9523 -0.4590
  728MOL0     H98226   6.131   9.878  10.990 -0.4583  1.7778 -1.0347
  728MOL0     H98227   5.982   9.800  11.160 -1.0167  4.2415 -3.3736
  728MOL0     H98228   5.908   9.681  11.054  3.6137 -4.6427 -0.3706
  728MOL0     H98229   6.099   9.575  11.179  0.4821 -2.9659 -2.2602
  728MOL0     H98230   6.209   9.687  11.106  1.0688  0.3175  0.7936
  728MOL0     H98231   6.279   9.626  10.847 -1.1406  0.6599  0.6452
  728MOL0     H98232   6.231   9.285  10.649  3.7003 -0.1481 -2.6389
  728MOL0     H98233   6.262   9.464  10.615 -0.7725  1.2629  0.8205
  728MOL0     H98234   6.438   9.304  10.799  0.5703  0.4308  0.0472
  728MOL0     H98235   6.446   9.473  10.755  1.1832 -0.9697  1.3399
  728MOL0     H98236   6.482   9.377  10.507  1.4414  1.8787 -0.1686
  728MOL0     H98237   6.468   9.215  10.570  0.7001  0.0344 -1.2339
  728MOL0     H98238   6.699   9.307  10.533 -2.2553  0.3275 -0.6904
  728MOL0     H98239   6.668   9.244  10.695  2.8596  2.6565  1.2278
  728MOL0     H98240   6.724   9.671  10.803 -3.0382  0.9743 -0.3796
  728MOL0     H98241   6.627   9.973  10.765 -0.5743 -0.1570  0.0955
  728MOL0     H98242   6.784   9.917  10.822  1.0995  1.1026 -0.5450
  728MOL0     H98243   6.777  10.015  10.675 -2.3813  1.3271 -2.4738
  728MOL0     H98244   6.724  10.222  10.504 -0.1545 -1.3972 -0.0575
  728MOL0     H98245   6.690  10.438  10.383 -0.0072 -0.2227 -0.8248
  728MOL0     H98246   6.309  10.510  10.208  1.6795 -1.7088  1.3764
  728MOL0     H98247   6.409  10.648  10.264 -1.2160 -0.1072 -0.6648
  728MOL0     H98248   6.477  10.675  10.032 -1.0260  1.2839 -1.0484
  728MOL0     H98249   6.387  10.534   9.984 -0.4660 -0.9462  0.3532
  728MOL0     H98250   6.243  10.739  10.161 -0.8627  0.0770 -0.2839
  728MOL0     H98251   6.190  10.655  10.014  0.8761  2.7386 -3.0940
  728MOL0     H98252   6.382  10.915  10.026 -0.9782  0.6926 -0.5466
  728MOL0     H98253   6.338  10.813   9.880 -0.3889  1.4374 -0.3219
  728MOL0     H98254   6.116  10.884   9.913  1.3044  0.4783 -1.5942
  728MOL0     H98255   6.232  11.006   9.881 -2.6709 -0.3830 -1.1694
  728MOL0     H98256   6.134  10.935  10.170 -0.6187  1.6992  1.1486
  728MOL0     H98257   6.244  11.059  10.133 -0.4577  0.8039  1.7297
  728MOL0     H98258   5.946  11.048  10.019 -0.1751  0.1584  0.2906
  728MOL0     H98259   6.063  11.171   9.995 -0.4713 -0.7384 -1.4222
  728MOL0     H98260   5.933  11.096  10.260 -1.2524  1.1634 -0.7595
  728MOL0     H98261   5.912  11.234  10.173 -0.9041 -1.2358 -1.7015
  728MOL0     H98262   6.325  10.282  10.208 -0.5335  2.0053 -1.1040
  728MOL0     H98263   6.378  10.058  10.313 -0.7417  1.1180  0.0660
  728MOL0     H98264   6.713   9.703  10.317 -1.1712 -2.0801  0.6094
  728MOL0     H98265   6.674   9.494  10.421 -1.2509  0.5514 -1.2748
  728MOL0     H98266   6.370   9.856  10.609  0.4620 -0.9397 -0.2087
  728MOL0     H98267   6.443   9.645  10.506 -0.6134 -1.1707 -0.3296
  728MOL0     H98268   6.231   9.145  10.259 -0.7154 -0.0541 -2.4720
  728MOL0     H98269   6.362   8.989  10.138 -0.7617  0.2197 -1.2696
  728MOL0     H98270   6.500   8.847  10.033 -0.7011  0.0605 -0.1192
  728MOL0     H98271   6.431   8.964   9.924 -0.6809  0.9449  1.9377
  728MOL0     H98272   6.653   8.923   9.779 -2.0782 -1.6895 -3.1994
  728MOL0     H98273   6.530   8.817   9.775 -0.4057  3.6278 -0.7475
  728MOL0     H98274   6.646   8.699   9.976  0.2149  1.0450 -0.1227
  728MOL0     H98275   6.779   8.797   9.953  0.2942 -0.4403 -0.0418
  728MOL0     H98276   6.858   8.634   9.829 -1.0327  0.0679  1.0965
  728MOL0     H98277   6.773   8.719   9.692  1.7287 -0.3528 -1.2520
  728MOL0     H98278   6.599   8.331   9.711 -1.3407 -0.0067 -1.3949
  728MOL0     H98279   6.670   9.271  10.072 -1.7467 -1.4638 -3.6163
  728MOL0     H98280   6.543   9.433  10.205 -0.7153  0.9897 -3.0133
  729MOL0     O98281   7.091   7.893   4.482 -1.0869  0.0403 -0.2177
  729MOL0     C98282   6.991   7.932   4.535  0.7622  0.4931 -0.3157
  729MOL0     O98283   6.986   8.009   4.650  0.2269  0.2103 -0.0745
  729MOL0     C98284   7.094   8.035   4.724 -0.6005 -1.0986 -0.5947
  729MOL0     C98285   7.097   8.160   4.789 -0.1082  0.2514 -0.9928
  729MOL0     C98286   7.203   8.200   4.870  0.7579 -0.2998  0.0799
  729MOL0     C98287   7.324   8.129   4.882  0.3534  0.4588 -0.0821
  729MOL0     O98288   7.434   8.176   4.951 -0.9983 -0.6453  0.3785
  729MOL0     C98289   7.488   8.104   5.058 -0.7188 -0.4503  0.8208
  729MOL0     C98290   7.638   8.124   5.070  1.0316  0.5596 -0.0377
  729MOL0     C98291   7.683   8.272   5.089  0.3590 -0.3473  0.5379
  729MOL0     C98292   7.835   8.290   5.095  0.7157 -1.0510  0.4746
  729MOL0     C98293   7.867   8.444   5.083  0.0938 -0.6673  0.1026
  729MOL0     C98294   8.001   8.476   5.149  0.0084  0.4614  0.7851
  729MOL0     C98295   8.018   8.627   5.156 -0.6388 -0.1595 -0.0291
  729MOL0     C98296   8.148   8.668   5.201 -0.1694 -0.0352  0.1536
  729MOL0     N98297   8.161   8.816   5.222  0.0622  0.7239 -0.0852
  729MOL0     C98298   8.089   8.925   5.184  0.3589  0.6285  0.0912
  729MOL0     C98299   8.147   9.028   5.238  0.8374 -0.4686 -0.3768
  729MOL0     C98300   8.112   9.174   5.239  0.2313  1.1308  0.4317
  729MOL0     C98301   8.033   9.223   5.121  0.6009  0.2946  0.5160
  729MOL0     C98302   7.877   9.193   5.138  0.3472  0.6110  0.2025
  729MOL0     C98303   7.787   9.183   5.007  0.1178 -1.3159 -0.3182
  729MOL0     O98304   7.832   9.056   4.955  0.8829 -0.4369  0.8272
  729MOL0     C98305   7.743   9.002   4.871  0.2795 -0.5972  1.1081
  729MOL0     C98306   7.785   8.879   4.812 -0.6705 -0.6031 -0.5052
  729MOL0     C98307   7.718   8.815   4.710  0.3935 -0.5309 -1.0394
  729MOL0     C98308   7.760   8.685   4.666  0.7242 -0.5674 -0.0750
  729MOL0     C98309   7.585   8.868   4.672 -0.8126  0.5554  1.1057
  729MOL0     C98310   7.494   8.796   4.571 -0.3292 -0.5052  0.4456
  729MOL0     O98311   7.383   8.872   4.535 -0.1471 -0.6165  0.7648
  729MOL0     C98312   7.306   8.850   4.427 -0.3161 -0.5375  0.3735
  729MOL0     C98313   7.366   8.793   4.314  0.7475 -0.7383  0.3186
  729MOL0     C98314   7.291   8.772   4.200 -0.1990 -0.1874  0.3506
  729MOL0     C98315   7.157   8.812   4.191  0.7438  0.6771  0.1633
  729MOL0     O98316   7.077   8.796   4.078 -0.1125 -0.0685  0.8926
  729MOL0     C98317   7.142   8.773   3.948  0.7262 -0.0888 -0.7144
  729MOL0     C98318   7.217   8.896   3.894 -0.2892 -0.9532  0.1694
  729MOL0     C98319   7.134   9.020   3.868  0.3916  0.1966 -0.3588
  729MOL0     C98320   7.085   9.028   3.724  0.2089  0.2384 -0.1110
  729MOL0     C98321   7.179   9.082   3.623  0.6535 -0.6767 -0.5036
  729MOL0     C98322   7.121   9.085   3.483  0.2985  0.6398 -0.2847
  729MOL0     C98323   7.002   9.182   3.478 -0.6540 -0.1011  0.6043
  729MOL0     C98324   6.978   9.226   3.336  0.3672 -0.3944  1.3599
  729MOL0    Cl98325   6.941   9.082   3.214  0.2640 -0.2368  0.1508
  729MOL0     C98326   7.099   8.877   4.302  0.5993  1.0175  0.0482
  729MOL0     C98327   7.173   8.890   4.422  0.7554 -0.6222 -0.8284
  729MOL0     O98328   7.509   8.676   4.550  0.3374 -0.0454 -0.0770
  729MOL0     C98329   7.537   8.985   4.735  0.6844  0.5701 -0.5699
  729MOL0     C98330   7.613   9.052   4.831 -0.6837  0.5333 -0.2101
  729MOL0     N98331   8.258   8.992   5.309  0.2513 -0.8360  0.7423
  729MOL0     N98332   8.265   8.862   5.312  0.5714 -0.5288  0.1739
  729MOL0     C98333   7.328   7.997   4.821  0.6530 -0.5505  0.6737
  729MOL0     C98334   7.214   7.954   4.741 -0.2342 -0.1072 -0.2587
  729MOL0     C98335   6.865   7.907   4.460  1.6844  0.3127 -0.8540
  729MOL0     C98336   6.749   7.985   4.485  0.4052  0.4479 -0.2005
  729MOL0     C98337   6.621   7.949   4.426  0.4953 -0.2648 -0.0983
  729MOL0     C98338   6.617   7.837   4.340  0.7824 -0.2527 -0.5752
  729MOL0     O98339   6.497   7.792   4.274 -0.2031 -0.8122  0.5125
  729MOL0     C98340   6.372   7.860   4.295 -0.1214 -0.2774  0.7916
  729MOL0     C98341   6.260   7.788   4.226  1.2532  0.2213 -0.3642
  729MOL0     C98342   6.272   7.808   4.083  0.4095  1.1727  0.6668
  729MOL0     C98343   6.154   7.741   4.005 -0.5309 -0.5146 -0.1909
  729MOL0     C98344   6.177   7.594   3.999  0.2588  0.1306  0.0072
  729MOL0     C98345   6.184   7.470   3.984  0.1369 -0.1906  0.6524
  729MOL0     C98346   6.737   7.782   4.295  0.2697  0.6465 -0.0286
  729MOL0     C98347   6.856   7.808   4.354 -0.3982  0.2034 -0.8202
  729MOL0     H98348   7.007   8.216   4.764 -0.8058 -0.7471 -0.7861
  729MOL0     H98349   7.199   8.289   4.933  1.7016 -0.2715  0.1184
  729MOL0     H98350   7.437   8.134   5.150 -0.7445  0.8652  0.4091
  729MOL0     H98351   7.459   7.999   5.046 -0.5942 -0.4358  0.3325
  729MOL0     H98352   7.661   8.073   5.164  0.8788 -0.1713 -0.3906
  729MOL0     H98353   7.696   8.083   4.987  2.4176 -0.5801  1.4308
  729MOL0     H98354   7.649   8.331   5.004  0.9778  1.8147  1.6984
  729MOL0     H98355   7.645   8.312   5.184  0.8765  1.2949  0.0908
  729MOL0     H98356   7.862   8.246   5.192 -1.5416 -3.5878  0.0646
  729MOL0     H98357   7.893   8.239   5.017 -0.0685  0.0948 -0.8920
  729MOL0     H98358   7.869   8.472   4.977  0.6853  2.3397  0.8188
  729MOL0     H98359   7.789   8.506   5.129 -1.0143 -1.8248 -0.1631
  729MOL0     H98360   8.015   8.425   5.245 -0.1184  0.6798  0.9182
  729MOL0     H98361   8.081   8.433   5.087 -0.2348 -0.4361  1.0751
  729MOL0     H98362   8.002   8.666   5.055 -0.5894 -0.3137 -0.0958
  729MOL0     H98363   7.945   8.669   5.227 -0.9911 -0.6826 -0.0784
  729MOL0     H98364   8.231   8.645   5.133 -0.7318 -0.6309 -0.3423
  729MOL0     H98365   8.162   8.611   5.294 -0.4677 -1.1333 -0.4661
  729MOL0     H98366   8.002   8.927   5.120  1.3271  0.8235 -1.2574
  729MOL0     H98367   8.056   9.201   5.329 -0.9142  1.8855 -0.4862
  729MOL0     H98368   8.211   9.221   5.235  1.5115 -1.3893 -0.4752
  729MOL0     H98369   8.062   9.164   5.033  0.5959 -0.2421  0.8725
  729MOL0     H98370   8.056   9.329   5.105  2.8240 -0.3161 -0.8115
  729MOL0     H98371   7.840   9.265   5.212  1.8611  1.9729 -0.3164
  729MOL0     H98372   7.866   9.096   5.187  0.8291  1.5740  2.3272
  729MOL0     H98373   7.791   9.267   4.937 -1.2093 -3.1593 -2.8008
  729MOL0     H98374   7.683   9.177   5.041  0.2487  2.3910  1.1650
  729MOL0     H98375   7.876   8.833   4.850 -0.3713  1.4779  1.4936
  729MOL0     H98376   7.779   8.697   4.559  0.1789 -0.0375 -0.1188
  729MOL0     H98377   7.857   8.658   4.710  0.8011  1.0165  0.8264
  729MOL0     H98378   7.684   8.611   4.690 -1.2607  1.8466  1.5095
  729MOL0     H98379   7.466   8.753   4.319  2.8466  3.7032 -0.9278
  729MOL0     H98380   7.338   8.713   4.122 -0.6450 -1.5445  1.0877
  729MOL0     H98381   7.207   8.686   3.962 -0.3088 -0.7131  0.4545
  729MOL0     H98382   7.070   8.739   3.873 -0.9239 -0.6159  1.0128
  729MOL0     H98383   7.300   8.927   3.959 -0.9349  1.2650  0.0099
  729MOL0     H98384   7.266   8.882   3.797  1.5353  3.7207  0.1369
  729MOL0     H98385   7.182   9.116   3.889 -1.1444  1.2126 -1.3059
  729MOL0     H98386   7.045   9.008   3.930 -0.7983 -2.3819 -2.3331
  729MOL0     H98387   7.041   8.935   3.687 -2.7474  1.0373  1.0559
  729MOL0     H98388   7.000   9.098   3.725  0.2297  0.3633  2.6781
  729MOL0     H98389   7.261   9.009   3.619  0.1622 -1.3140  0.5852
  729MOL0     H98390   7.225   9.176   3.653 -1.5235  0.6209 -1.0384
  729MOL0     H98391   7.199   9.111   3.411  1.7736 -1.8588  0.2795
  729MOL0     H98392   7.085   8.983   3.466  2.4687 -0.1801 -0.2899
  729MOL0     H98393   7.022   9.273   3.534  0.5372  0.7682 -1.1445
  729MOL0     H98394   6.921   9.127   3.527  0.4125 -0.1940  2.3433
  729MOL0     H98395   7.075   9.263   3.302  0.7419 -1.4013  1.2965
  729MOL0     H98396   6.900   9.302   3.328 -1.2964 -2.1876 -0.5934
  729MOL0     H98397   6.994   8.903   4.301 -0.2655 -2.1541 -1.7198
  729MOL0     H98398   7.119   8.934   4.505 -2.0382  0.5065 -3.0703
  729MOL0     H98399   7.433   9.011   4.718 -0.0778 -1.8193 -0.0839
  729MOL0     H98400   7.582   9.152   4.859  0.0733  0.4356  1.0522
  729MOL0     H98401   7.418   7.936   4.818  0.5269 -0.6972 -1.2674
  729MOL0     H98402   7.220   7.863   4.681 -3.6788  0.6706 -1.9874
  729MOL0     H98403   6.753   8.085   4.529  1.1610  0.1311  0.4881
  729MOL0     H98404   6.533   8.003   4.460  1.8909  1.8301  0.3978
  729MOL0     H98405   6.354   7.862   4.403 -0.2077  2.2021  0.7703
  729MOL0     H98406   6.382   7.964   4.266 -2.5549 -0.2797 -0.2617
  729MOL0     H98407   6.165   7.838   4.248  0.9491 -0.0302 -1.0639
  729MOL0     H98408   6.248   7.684   4.256 -0.5954  1.1944  2.8436
  729MOL0     H98409   6.366   7.768   4.045  0.1601  2.6839 -1.7301
  729MOL0     H98410   6.283   7.914   4.058  1.2515  0.9904  0.2012
  729MOL0     H98411   6.158   7.785   3.905 -3.4406  3.5349  1.2026
  729MOL0     H98412   6.055   7.768   4.041 -0.9638  1.0869 -2.3400
  729MOL0     H98413   6.206   7.368   3.961  0.2198 -0.5642  2.2670
  729MOL0     H98414   6.739   7.712   4.212  0.4083  2.5746 -1.7250
  729MOL0     H98415   6.948   7.762   4.319 -0.2736 -0.1543 -0.0457
  730MOL0     O98416   8.699   9.314   9.554  0.0808 -0.5553 -0.5282
  730MOL0     C98417   8.718   9.408   9.483  0.0454 -0.5483  0.2041
  730MOL0     O98418   8.837   9.484   9.481 -0.4966 -0.4484  1.2962
  730MOL0     C98419   8.949   9.446   9.550  0.7563  0.1504 -0.7619
  730MOL0     C98420   8.995   9.314   9.585 -0.1265 -0.1205 -1.1809
  730MOL0     C98421   9.111   9.294   9.660  0.1407 -0.6855  0.0772
  730MOL0     C98422   9.188   9.407   9.693 -0.2053  0.1646 -0.5851
  730MOL0     O98423   9.314   9.401   9.754  0.1948 -0.2604  0.5322
  730MOL0     C98424   9.401   9.283   9.763  0.0246 -0.4189  1.6005
  730MOL0     C98425   9.543   9.310   9.781 -0.2048 -0.1825 -0.0388
  730MOL0     C98426   9.579   9.368   9.914 -0.5207  0.3434  0.7454
  730MOL0     C98427   9.730   9.385   9.929 -0.6931 -0.4065 -0.2360
  730MOL0     C98428   9.775   9.401  10.076  0.1472  0.0617 -0.0804
  730MOL0     C98429   9.749   9.540  10.127 -0.6326  0.7587  0.1458
  730MOL0     C98430   9.827   9.546  10.257 -0.3730 -0.2541 -0.5886
  730MOL0     C98431   9.980   9.569  10.228  0.2063  0.5504  0.0657
  730MOL0     N98432  10.004   9.696  10.168 -0.3249 -0.7102 -1.3040
  730MOL0     C98433   9.938   9.814  10.194 -0.2501 -0.9046 -0.6982
  730MOL0     C98434  10.003   9.910  10.122  0.0783 -1.1997 -1.2916
  730MOL0     C98435   9.960  10.052  10.110 -0.2544  0.1274 -0.1883
  730MOL0     C98436  10.060  10.149  10.045 -0.7545 -0.6520 -0.4578
  730MOL0     C98437   9.982  10.269  10.002  0.1714  0.5082 -0.6811
  730MOL0     C98438  10.076  10.383   9.940  0.2981 -0.6000 -0.3681
  730MOL0     O98439  10.121  10.336   9.813 -0.2913 -0.0442  0.1910
  730MOL0     C98440  10.166  10.433   9.723  0.6274 -0.3055 -0.5092
  730MOL0     C98441  10.196  10.562   9.755 -0.2858 -0.1451 -0.3948
  730MOL0     C98442  10.248  10.643   9.654 -0.7820  0.0337  1.0026
  730MOL0     C98443  10.274  10.792   9.686  0.4502 -0.4627  0.1250
  730MOL0     C98444  10.269  10.584   9.525  0.1498  0.5041  0.9284
  730MOL0     C98445  10.305  10.663   9.405 -1.4087  0.5323  0.4656
  730MOL0     O98446  10.268  10.621   9.282  0.5778 -0.2812 -0.5690
  730MOL0     C98447  10.315  10.689   9.177  0.5490 -0.5266 -0.8163
  730MOL0     C98448  10.274  10.823   9.152 -0.3658  0.4446  1.4031
  730MOL0     C98449  10.299  10.884   9.031  0.5438 -0.1161 -0.3943
  730MOL0     C98450  10.370  10.818   8.927  1.1615 -0.4805  0.7577
  730MOL0     O98451  10.380  10.881   8.802 -0.2496  0.3261  0.1956
  730MOL0     C98452  10.437  10.808   8.697 -0.1353  0.0315  0.0093
  730MOL0     C98453  10.342  10.690   8.647  0.3029 -0.7378 -1.2371
  730MOL0     C98454  10.398  10.613   8.522  0.3668 -0.0265 -0.9487
  730MOL0     C98455  10.307  10.529   8.466 -0.2917 -0.0471  0.4176
  730MOL0     C98456  10.366  10.449   8.345  0.2836 -0.1338 -0.2488
  730MOL0     C98457  10.407  10.526   8.220  0.3517 -1.5745 -0.2678
  730MOL0     C98458  10.470  10.419   8.121  0.1535 -0.0682  0.4111
  730MOL0     C98459  10.356  10.347   8.047 -0.2019  0.5023 -0.5125
  730MOL0    Cl98460  10.258  10.464   7.962  0.1769 -0.2417  0.0288
  730MOL0     C98461  10.422  10.692   8.962 -0.0136 -0.1402 -0.2667
  730MOL0     C98462  10.385  10.623   9.081 -0.5586  0.1694 -0.4945
  730MOL0     O98463  10.383  10.759   9.420 -0.1972 -0.5097  0.5033
  730MOL0     C98464  10.235  10.455   9.502  0.2205 -0.0523  0.3521
  730MOL0     C98465  10.173  10.381   9.598  0.0061  0.2674 -0.8263
  730MOL0     N98466  10.098   9.852  10.043 -0.3302 -0.4923 -0.3853
  730MOL0     N98467  10.091   9.720  10.069 -0.2343 -0.1116 -0.3915
  730MOL0     C98468   9.142   9.535   9.649 -0.3440  0.7158 -0.0018
  730MOL0     C98469   9.026   9.552   9.581 -0.4507 -0.5315  0.5679
  730MOL0     C98470   8.607   9.446   9.389  0.3467  0.0116  0.0967
  730MOL0     C98471   8.606   9.567   9.310  0.1231  0.4820 -1.3918
  730MOL0     C98472   8.507   9.591   9.215  0.4332  0.7576 -0.2587
  730MOL0     C98473   8.409   9.497   9.195 -0.2578  0.1239  0.0104
  730MOL0     O98474   8.323   9.527   9.097  0.5497 -0.1272  0.2980
  730MOL0     C98475   8.194   9.469   9.079  0.4562  0.6401  0.3922
  730MOL0     C98476   8.090   9.527   9.175  0.6968 -1.3745  0.3331
  730MOL0     C98477   8.052   9.683   9.162  0.8497 -0.0099  0.2529
  730MOL0     C98478   8.019   9.728   9.017 -0.4466 -0.1243  0.8609
  730MOL0     C98479   7.922   9.653   8.937  0.2705 -1.1534  1.2825
  730MOL0     C98480   7.834   9.610   8.866  0.5563  0.2136 -0.6385
  730MOL0     C98481   8.402   9.382   9.277  0.1145  0.7039 -0.0901
  730MOL0     C98482   8.503   9.357   9.373 -0.6625 -0.1207 -0.5094
  730MOL0     H98483   8.935   9.233   9.545 -1.0550 -0.2033  0.2864
  730MOL0     H98484   9.146   9.194   9.680  0.8348 -0.5567 -0.4477
  730MOL0     H98485   9.365   9.227   9.850 -2.4126 -0.9534  0.3186
  730MOL0     H98486   9.386   9.208   9.686  0.4364  0.1120  0.9942
  730MOL0     H98487   9.601   9.219   9.762 -1.4131 -0.9901  0.0230
  730MOL0     H98488   9.571   9.385   9.707  0.8911  1.2729  1.7586
  730MOL0     H98489   9.533   9.467   9.916 -0.4875  0.3453  1.6634
  730MOL0     H98490   9.534   9.309   9.994 -0.0233 -0.3762  0.5072
  730MOL0     H98491   9.793   9.306   9.889  2.7544  1.1177  1.7552
  730MOL0     H98492   9.757   9.477   9.876  1.7198 -1.9706 -1.8918
  730MOL0     H98493   9.724   9.331  10.141  3.0757 -0.8017  1.4862
  730MOL0     H98494   9.883   9.383  10.087 -0.0076  0.1259  1.8206
  730MOL0     H98495   9.766   9.618  10.053  0.1054 -0.7850 -1.3849
  730MOL0     H98496   9.642   9.543  10.149 -0.7498 -1.6111  0.2529
  730MOL0     H98497   9.782   9.629  10.313 -2.6277 -1.6946 -0.1240
  730MOL0     H98498   9.821   9.464  10.329  0.1813  0.9124  0.8346
  730MOL0     H98499  10.036   9.487  10.181 -1.6569 -1.8220  1.6895
  730MOL0     H98500  10.017   9.573  10.331  0.4066 -1.8233  0.1611
  730MOL0     H98501   9.847   9.823  10.253  0.2579  1.0833 -0.1386
  730MOL0     H98502   9.864  10.052  10.056  0.4212 -1.0921 -1.4508
  730MOL0     H98503   9.941  10.087  10.212 -2.7498 -2.7712  0.5223
  730MOL0     H98504  10.113  10.098   9.964 -1.0087 -2.2779  0.3454
  730MOL0     H98505  10.130  10.187  10.120  0.2160  2.0281 -2.5522
  730MOL0     H98506   9.915  10.305  10.081 -2.7791 -1.1620 -2.2437
  730MOL0     H98507   9.908  10.245   9.925 -0.1634  2.4277 -1.0139
  730MOL0     H98508  10.162  10.396  10.006 -1.2705 -0.7728  1.7940
  730MOL0     H98509  10.017  10.473   9.920 -0.1374 -0.8306 -0.1245
  730MOL0     H98510  10.179  10.606   9.853 -0.0870  1.6945 -1.1421
  730MOL0     H98511  10.226  10.863   9.618 -0.1783 -1.3058 -0.3310
  730MOL0     H98512  10.247  10.822   9.787  3.0273  0.3231  0.6716
  730MOL0     H98513  10.383  10.795   9.675  0.5835 -1.7429  0.8880
  730MOL0     H98514  10.213  10.884   9.218 -0.9186  3.8199 -1.8952
  730MOL0     H98515  10.254  10.981   9.013 -1.3747 -0.6295  1.2248
  730MOL0     H98516  10.468  10.876   8.617  1.2319  1.6858  1.8667
  730MOL0     H98517  10.528  10.759   8.733  0.0376  0.3498  0.0065
  730MOL0     H98518  10.309  10.626   8.729 -0.3818 -1.8716 -2.3730
  730MOL0     H98519  10.254  10.749   8.620  1.9050  1.4206 -1.9651
  730MOL0     H98520  10.473  10.548   8.569 -2.9509 -1.8573  2.3150
  730MOL0     H98521  10.446  10.678   8.448  0.5734 -0.6169 -1.3355
  730MOL0     H98522  10.276  10.455   8.540 -1.1493 -0.8732 -0.7254
  730MOL0     H98523  10.223  10.584   8.425  0.2098  0.2035 -0.2999
  730MOL0     H98524  10.299  10.367   8.319  0.1209  0.6062 -2.3722
  730MOL0     H98525  10.455  10.402   8.386  1.0473  0.7412 -0.8576
  730MOL0     H98526  10.316  10.574   8.185 -0.8621 -2.6203  1.2797
  730MOL0     H98527  10.465  10.616   8.244 -2.1896  0.2050 -0.3721
  730MOL0     H98528  10.529  10.349   8.181  0.4256 -0.7123 -0.5701
  730MOL0     H98529  10.539  10.473   8.056 -0.9068  0.5401 -0.2422
  730MOL0     H98530  10.287  10.292   8.111  1.0524 -2.4919 -1.5583
  730MOL0     H98531  10.380  10.274   7.969 -0.0909  0.4259 -0.4093
  730MOL0     H98532  10.486  10.638   8.892  1.4886 -0.4371  1.2754
  730MOL0     H98533  10.407  10.519   9.104 -0.5986  0.2575 -0.0284
  730MOL0     H98534  10.240  10.417   9.400  2.0671  0.4106  0.2352
  730MOL0     H98535  10.135  10.281   9.578 -1.6279  0.3665  1.4041
  730MOL0     H98536   9.208   9.618   9.672 -0.0161  0.4161  0.1452
  730MOL0     H98537   8.998   9.654   9.556 -2.8010 -0.4525  3.0467
  730MOL0     H98538   8.690   9.630   9.338 -1.1086  0.4298  3.1479
  730MOL0     H98539   8.506   9.678   9.150  0.8956 -0.0052 -1.3243
  730MOL0     H98540   8.172   9.471   8.972  1.4706 -1.6308  0.0845
  730MOL0     H98541   8.191   9.362   9.101 -2.0030  0.4132 -0.7308
  730MOL0     H98542   8.134   9.515   9.274  0.9501 -3.0735  0.0359
  730MOL0     H98543   7.993   9.477   9.175 -2.1654  3.3402 -2.7577
  730MOL0     H98544   8.133   9.748   9.197  0.5523  1.3270 -1.4210
  730MOL0     H98545   7.969   9.704   9.231 -1.3762 -1.2572 -1.9018
  730MOL0     H98546   8.109   9.727   8.955 -3.6898 -0.9984 -4.5317
  730MOL0     H98547   7.986   9.832   9.031 -0.1596  0.1875 -0.5403
  730MOL0     H98548   7.756   9.565   8.807  2.1278 -1.9552 -1.1971
  730MOL0     H98549   8.324   9.309   9.259  0.6734 -0.0108  0.3181
  730MOL0     H98550   8.495   9.262   9.426 -1.2265  0.0851 -0.2266
  731MOL0     O98551   0.857   0.250   2.453  0.6823  0.7050 -0.4337
  731MOL0     C98552   0.884   0.179   2.553  0.0241 -0.0546 -0.5653
  731MOL0     O98553   0.854   0.042   2.574  0.0323  0.1607 -0.0287
  731MOL0     C98554   0.855  -0.048   2.470  0.1166  0.0674  0.7075
  731MOL0     C98555   0.885  -0.015   2.339  0.0082 -1.4684  0.4623
  731MOL0     C98556   0.905  -0.107   2.245 -0.0306 -0.4630  0.0006
  731MOL0     C98557   0.914  -0.246   2.280 -0.3600 -0.2184 -0.4148
  731MOL0     O98558   0.930  -0.348   2.191  0.4166 -0.2671 -0.0952
  731MOL0     C98559   0.997  -0.324   2.066 -0.7072  0.1176 -0.2096
  731MOL0     C98560   1.120  -0.228   2.064  1.1635  0.3199  0.6758
  731MOL0     C98561   1.234  -0.265   2.157 -0.2246 -0.3946  0.2504
  731MOL0     C98562   1.335  -0.152   2.165  0.0846  0.8932 -0.5076
  731MOL0     C98563   1.415  -0.139   2.035 -0.5275  0.0362 -0.7798
  731MOL0     C98564   1.507  -0.014   2.055 -0.3265  1.0615 -0.1378
  731MOL0     C98565   1.585   0.022   1.922  0.8652  1.5575  0.0095
  731MOL0     C98566   1.708   0.097   1.940  0.6386 -0.4437 -0.4687
  731MOL0     N98567   1.759   0.132   1.802 -0.5108 -0.2483  0.1836
  731MOL0     C98568   1.744   0.247   1.719  0.4283  0.0617 -0.2272
  731MOL0     C98569   1.852   0.236   1.630 -0.1469 -0.2892 -0.3808
  731MOL0     C98570   1.898   0.344   1.540  0.5788 -0.4181  0.2340
  731MOL0     C98571   2.053   0.326   1.523 -0.3098 -0.5753 -0.2342
  731MOL0     C98572   2.122   0.434   1.444  0.2012  0.8060  0.3923
  731MOL0     C98573   2.249   0.367   1.385  0.6462  0.5681  0.4666
  731MOL0     O98574   2.345   0.457   1.329  0.6434  0.3654 -0.6550
  731MOL0     C98575   2.453   0.396   1.262  0.1750 -0.3531  1.1733
  731MOL0     C98576   2.481   0.268   1.244  0.6775  0.6750 -0.4539
  731MOL0     C98577   2.591   0.227   1.167 -0.0899  0.4780  0.2931
  731MOL0     C98578   2.608   0.088   1.165 -0.2997  0.3306 -0.3264
  731MOL0     C98579   2.654   0.317   1.083 -0.1440 -0.2068  0.9771
  731MOL0     C98580   2.772   0.288   0.981 -0.1802  0.4088 -0.2952
  731MOL0     O98581   2.857   0.397   0.969  0.0748  0.1147 -0.3905
  731MOL0     C98582   2.936   0.415   0.864 -1.6096 -0.4720  0.0589
  731MOL0     C98583   3.013   0.533   0.871  0.3128  0.1222  0.2676
  731MOL0     C98584   3.126   0.560   0.785  0.7760 -0.6131 -0.7831
  731MOL0     C98585   3.150   0.468   0.684 -1.1396  0.1271 -0.2393
  731MOL0     O98586   3.262   0.481   0.605  0.9915  0.7515  0.6687
  731MOL0     C98587   3.297   0.392   0.506  0.1334 -0.3945 -0.6425
  731MOL0     C98588   3.417   0.459   0.443  0.3657 -0.2672 -0.1034
  731MOL0     C98589   3.499   0.367   0.353  0.1735  0.3911  0.4402
  731MOL0     C98590   3.418   0.272   0.273  0.2960 -0.2584  0.1885
  731MOL0     C98591   3.498   0.229   0.151  0.1177 -0.1948 -0.4623
  731MOL0     C98592   3.592   0.115   0.166  1.0304 -0.2454 -0.0375
  731MOL0     C98593   3.535  -0.027   0.201  0.0695 -0.4239  0.1168
  731MOL0     C98594   3.582  -0.072   0.336 -1.5045  0.6421 -0.2959
  731MOL0    Cl98595   3.709  -0.202   0.327 -0.2253  0.1003 -0.1760
  731MOL0     C98596   3.068   0.349   0.667 -0.0869 -0.0132 -0.1631
  731MOL0     C98597   2.965   0.330   0.756 -0.1070 -0.1941 -0.1152
  731MOL0     O98598   2.782   0.181   0.918  0.0482 -0.9289  0.3773
  731MOL0     C98599   2.631   0.449   1.102 -0.2425  0.2927 -0.6484
  731MOL0     C98600   2.526   0.493   1.184 -0.2750  0.4942 -0.0204
  731MOL0     N98601   1.913   0.112   1.648  0.3995  0.4768  0.1051
  731MOL0     N98602   1.851   0.047   1.751  0.3930 -0.3801 -0.0740
  731MOL0     C98603   0.884  -0.288   2.409  0.5812  0.1290 -0.0407
  731MOL0     C98604   0.853  -0.189   2.500 -0.0623  0.1404 -0.0793
  731MOL0     C98605   0.936   0.257   2.678  0.3947 -0.1668 -0.5955
  731MOL0     C98606   0.923   0.210   2.811 -0.1059 -0.0216  0.2451
  731MOL0     C98607   1.006   0.265   2.916 -0.2409 -0.4872  0.3155
  731MOL0     C98608   1.083   0.381   2.892 -0.9230 -0.5800  1.2075
  731MOL0     O98609   1.167   0.428   3.000  0.4392  0.1039 -0.1523
  731MOL0     C98610   1.241   0.538   2.962  0.5139 -0.2056 -0.3023
  731MOL0     C98611   1.298   0.611   3.082 -0.0280 -0.4305 -0.0572
  731MOL0     C98612   1.388   0.541   3.190 -0.9301  0.6788  0.6852
  731MOL0     C98613   1.485   0.636   3.270 -0.0703  1.3220 -0.0828
  731MOL0     C98614   1.582   0.697   3.177  0.5989 -0.5066  0.3802
  731MOL0     C98615   1.659   0.746   3.095  1.2277  0.7758 -1.1236
  731MOL0     C98616   1.101   0.415   2.758  0.2141 -0.0500  0.3552
  731MOL0     C98617   1.027   0.357   2.654 -0.1703 -0.4683 -0.1672
  731MOL0     H98618   0.867   0.083   2.296 -3.9839 -1.7593  1.0099
  731MOL0     H98619   0.915  -0.079   2.140  1.9245  0.8135  0.4568
  731MOL0     H98620   1.036  -0.417   2.024 -1.2722 -0.5301  0.6635
  731MOL0     H98621   0.923  -0.298   1.990 -2.2561 -2.6098  0.2247
  731MOL0     H98622   1.156  -0.222   1.961  1.2239 -0.3507  0.6562
  731MOL0     H98623   1.091  -0.125   2.089  0.2226  0.0654  0.6320
  731MOL0     H98624   1.200  -0.283   2.259  2.3955 -1.5448  0.9968
  731MOL0     H98625   1.287  -0.354   2.122  2.2658  1.6366 -1.4744
  731MOL0     H98626   1.274  -0.064   2.184  1.1229  1.2704  1.3664
  731MOL0     H98627   1.398  -0.183   2.249 -0.0431 -0.6314 -0.9438
  731MOL0     H98628   1.478  -0.228   2.024  0.9367  0.5037  2.4867
  731MOL0     H98629   1.350  -0.126   1.948  1.8117 -3.7651 -3.4090
  731MOL0     H98630   1.457   0.075   2.094  1.6271  1.3029  2.0229
  731MOL0     H98631   1.584  -0.036   2.130 -0.8924  0.1306  0.1913
  731MOL0     H98632   1.608  -0.074   1.875  2.3120  0.2438  3.0575
  731MOL0     H98633   1.512   0.077   1.862  0.1771  2.5001  1.6436
  731MOL0     H98634   1.776   0.029   1.992 -0.4418 -1.8458 -0.8164
  731MOL0     H98635   1.689   0.183   2.004 -1.4723 -3.2273  3.0024
  731MOL0     H98636   1.671   0.327   1.729 -2.2849 -2.3377  0.7394
  731MOL0     H98637   1.844   0.336   1.445 -0.3279 -5.4397  0.8827
  731MOL0     H98638   1.877   0.438   1.592  2.7568  0.1946  0.1027
  731MOL0     H98639   2.054   0.236   1.461 -2.4231 -0.6309 -0.2476
  731MOL0     H98640   2.103   0.310   1.619 -0.1127  0.0149 -0.2321
  731MOL0     H98641   2.142   0.522   1.506 -2.0307  1.0449  0.8718
  731MOL0     H98642   2.057   0.468   1.363  1.9859  2.4075 -0.4303
  731MOL0     H98643   2.225   0.295   1.306 -0.1960  2.3283 -0.9551
  731MOL0     H98644   2.305   0.298   1.449  2.8813  0.8681 -1.0408
  731MOL0     H98645   2.419   0.196   1.298 -0.7921  2.2014 -0.0342
  731MOL0     H98646   2.566   0.037   1.251 -0.1794  3.1130  1.4880
  731MOL0     H98647   2.561   0.041   1.078 -0.8079 -1.1372  0.6955
  731MOL0     H98648   2.714   0.060   1.158 -0.5368 -0.9410  0.7967
  731MOL0     H98649   3.006   0.598   0.958 -1.6527 -0.3189  0.4891
  731MOL0     H98650   3.182   0.651   0.803 -2.2164  1.6846 -2.0557
  731MOL0     H98651   3.333   0.299   0.552 -0.0446 -0.4654 -0.6447
  731MOL0     H98652   3.222   0.369   0.429  1.1307  0.3016 -1.8610
  731MOL0     H98653   3.376   0.545   0.388 -2.5841  0.4343  2.8849
  731MOL0     H98654   3.482   0.501   0.520  0.3119 -1.2687  0.5119
  731MOL0     H98655   3.579   0.308   0.400  0.8899 -0.9115 -2.2353
  731MOL0     H98656   3.543   0.442   0.287 -1.0349  1.6526  1.0391
  731MOL0     H98657   3.376   0.182   0.319 -2.9394  1.2535  0.4094
  731MOL0     H98658   3.332   0.327   0.234  0.7536  2.3811  2.5251
  731MOL0     H98659   3.556   0.312   0.107 -1.2779  1.3841  0.5424
  731MOL0     H98660   3.419   0.206   0.081  0.2682 -3.5655  0.3322
  731MOL0     H98661   3.649   0.105   0.073  0.3473  1.1566 -0.6306
  731MOL0     H98662   3.655   0.137   0.253 -2.5964  1.4599  2.3514
  731MOL0     H98663   3.548  -0.092   0.114 -6.3196 -0.5698 -1.2352
  731MOL0     H98664   3.426  -0.019   0.201  0.1408  1.1355 -0.6824
  731MOL0     H98665   3.489  -0.119   0.369  0.0550 -1.3866  1.5352
  731MOL0     H98666   3.619   0.009   0.399  0.4695 -0.9115  0.6488
  731MOL0     H98667   3.092   0.271   0.596 -2.1380 -0.8869  0.0128
  731MOL0     H98668   2.907   0.240   0.741  0.4738 -0.1297 -3.4082
  731MOL0     H98669   2.675   0.530   1.044  0.0826  1.3697  1.0152
  731MOL0     H98670   2.500   0.598   1.192  0.1807  0.6458 -0.4619
  731MOL0     H98671   0.873  -0.390   2.444  0.7426  0.5146  1.1682
  731MOL0     H98672   0.851  -0.213   2.606  1.0687  1.3344  0.2419
  731MOL0     H98673   0.869   0.116   2.823  1.1279 -1.5833 -4.4571
  731MOL0     H98674   0.993   0.231   3.018 -0.9965 -2.1540 -0.3048
  731MOL0     H98675   1.323   0.509   2.896  2.5261  1.9840  1.0423
  731MOL0     H98676   1.179   0.601   2.898  0.6545 -0.1863 -0.4202
  731MOL0     H98677   1.214   0.651   3.140  1.5092  2.4990  0.3430
  731MOL0     H98678   1.350   0.697   3.039 -0.3613  0.1219  0.6301
  731MOL0     H98679   1.443   0.466   3.132 -0.4837  1.2738  0.3369
  731MOL0     H98680   1.337   0.478   3.264 -1.5320  0.1675 -0.1358
  731MOL0     H98681   1.539   0.567   3.334  1.4655  2.0985 -0.4919
  731MOL0     H98682   1.437   0.719   3.323  1.6240  1.9639  0.5064
  731MOL0     H98683   1.723   0.800   3.029  2.5788 -1.8803 -2.1416
  731MOL0     H98684   1.167   0.496   2.731  1.0027 -0.3170  1.4409
  731MOL0     H98685   1.037   0.405   2.557 -0.4620 -1.3842 -0.6623
  732MOL0     O98686   4.841   6.772   7.583  0.3219  0.7838 -0.2844
  732MOL0     C98687   4.890   6.790   7.691 -0.1105  0.1813  0.1148
  732MOL0     O98688   4.847   6.761   7.809  0.7735  0.0759 -0.4196
  732MOL0     C98689   4.727   6.694   7.801 -0.0913 -0.5097 -1.2424
  732MOL0     C98690   4.604   6.761   7.834 -0.5215  0.0064  0.3931
  732MOL0     C98691   4.486   6.683   7.843  0.0900 -0.4328 -0.3765
  732MOL0     C98692   4.487   6.550   7.823 -0.3434 -0.9576  0.1661
  732MOL0     O98693   4.389   6.469   7.835 -0.1289 -0.4473  0.0920
  732MOL0     C98694   4.263   6.503   7.783  0.3189 -0.5173  0.6142
  732MOL0     C98695   4.230   6.421   7.657 -0.6634 -0.1996 -0.1131
  732MOL0     C98696   4.113   6.477   7.587 -0.7022  0.6275 -0.2022
  732MOL0     C98697   3.969   6.459   7.640  1.1093  0.5123  0.0667
  732MOL0     C98698   3.934   6.572   7.738  0.2370  0.0202  0.4171
  732MOL0     C98699   3.774   6.589   7.753  0.2254 -1.1097 -0.6113
  732MOL0     C98700   3.738   6.665   7.879  0.1979  0.2840  0.6856
  732MOL0     C98701   3.583   6.645   7.906  0.1165 -0.4542 -0.3263
  732MOL0     N98702   3.525   6.700   8.027 -0.0330 -0.4116  0.4726
  732MOL0     C98703   3.552   6.828   8.077  0.1745  0.7603 -0.0758
  732MOL0     C98704   3.497   6.836   8.199 -0.4036 -0.0426 -0.6187
  732MOL0     C98705   3.531   6.952   8.294  0.8441  0.2613 -0.5285
  732MOL0     C98706   3.636   6.916   8.398 -0.3081  0.4867 -0.1476
  732MOL0     C98707   3.594   6.805   8.489 -0.8428 -0.2771 -0.6134
  732MOL0     C98708   3.682   6.777   8.615 -0.6995 -0.6058 -0.1416
  732MOL0     O98709   3.624   6.683   8.713 -0.5921  0.9760  0.7848
  732MOL0     C98710   3.699   6.643   8.819  0.9849 -0.4369 -0.2501
  732MOL0     C98711   3.838   6.650   8.829  0.0192 -0.6228 -0.0818
  732MOL0     C98712   3.897   6.600   8.937  0.0869  0.1794 -0.8352
  732MOL0     C98713   4.050   6.599   8.936 -0.3183 -0.5750 -1.1735
  732MOL0     C98714   3.827   6.551   9.046  0.2794  0.5249 -0.4396
  732MOL0     C98715   3.904   6.495   9.162 -0.6092  0.0714  1.1008
  732MOL0     O98716   3.995   6.398   9.152 -0.0054 -0.1177  0.2280
  732MOL0     C98717   4.061   6.346   9.260 -0.1969  0.2797  0.7961
  732MOL0     C98718   4.132   6.426   9.355 -0.8549  0.2850  0.4839
  732MOL0     C98719   4.183   6.375   9.472  0.4943  0.4954 -0.8916
  732MOL0     C98720   4.191   6.239   9.481  0.3647  0.6535 -0.2656
  732MOL0     O98721   4.229   6.177   9.595  0.6652 -0.2507 -0.7924
  732MOL0     C98722   4.244   6.238   9.720 -0.3673  0.0972  0.6313
  732MOL0     C98723   4.193   6.145   9.830 -0.6284  0.3955 -0.7304
  732MOL0     C98724   4.191   6.216   9.969 -0.8545  0.1274  0.5255
  732MOL0     C98725   4.168   6.128  10.089 -0.1684 -0.5091  0.1121
  732MOL0     C98726   4.180   6.211  10.214  0.1137 -0.6028  0.1859
  732MOL0     C98727   4.148   6.125  10.337 -0.2696 -0.7686  0.4677
  732MOL0     C98728   4.160   6.205  10.468 -0.4945  0.0153  0.8531
  732MOL0     C98729   4.123   6.111  10.593  1.0482  0.6603  0.2480
  732MOL0    Cl98730   4.253   6.004  10.663 -0.4437  0.0340  0.0033
  732MOL0     C98731   4.123   6.160   9.391 -0.6997 -0.7271 -0.4319
  732MOL0     C98732   4.058   6.209   9.277 -0.0852  0.2038 -0.2416
  732MOL0     O98733   3.877   6.553   9.268 -0.8460  0.1577  0.0886
  732MOL0     C98734   3.688   6.536   9.036  0.0434  0.3466  0.0260
  732MOL0     C98735   3.624   6.580   8.916 -0.0723 -0.1213  0.2228
  732MOL0     N98736   3.417   6.723   8.213 -0.1267 -0.8186 -0.8732
  732MOL0     N98737   3.439   6.638   8.116  0.0898  0.7168 -0.0365
  732MOL0     C98738   4.609   6.485   7.783  0.6104  0.7812  0.6163
  732MOL0     C98739   4.729   6.554   7.770 -0.2297  0.4213  1.4586
  732MOL0     C98740   5.022   6.865   7.690 -0.9241  0.2758 -0.1372
  732MOL0     C98741   5.079   6.913   7.568  0.2018  0.5490 -0.0897
  732MOL0     C98742   5.198   6.980   7.557  0.7376  1.1008  0.1422
  732MOL0     C98743   5.276   6.992   7.668  0.1628  0.1606 -0.5808
  732MOL0     O98744   5.396   7.056   7.690 -0.2769  0.4235  0.1839
  732MOL0     C98745   5.460   7.123   7.584  0.0197  0.4645 -0.3463
  732MOL0     C98746   5.527   7.017   7.485  0.0773 -0.2504 -0.7654
  732MOL0     C98747   5.642   6.953   7.565 -0.1188  0.1791 -0.2399
  732MOL0     C98748   5.745   6.891   7.469 -0.7421  0.5585 -0.0195
  732MOL0     C98749   5.701   6.755   7.441 -0.2830 -0.0951 -0.5450
  732MOL0     C98750   5.656   6.646   7.435 -0.1799 -0.5568  0.9711
  732MOL0     C98751   5.222   6.951   7.793 -0.1081 -0.7889 -0.5539
  732MOL0     C98752   5.100   6.885   7.807 -0.4059  0.9584  0.5906
  732MOL0     H98753   4.599   6.867   7.860 -3.0442 -0.6978  3.4656
  732MOL0     H98754   4.398   6.735   7.881  0.1991 -1.0633  0.7810
  732MOL0     H98755   4.193   6.477   7.863  0.2439  2.7079  1.7205
  732MOL0     H98756   4.250   6.610   7.764  0.1552 -0.2146  2.3313
  732MOL0     H98757   4.317   6.444   7.595 -0.2281  1.8601  1.1903
  732MOL0     H98758   4.211   6.316   7.681 -4.0323  0.2269 -0.4161
  732MOL0     H98759   4.133   6.585   7.583 -1.7583  0.9231  1.3598
  732MOL0     H98760   4.107   6.431   7.489 -1.1027 -0.4670  0.3213
  732MOL0     H98761   3.904   6.465   7.552  1.1262  3.4423  0.1750
  732MOL0     H98762   3.944   6.363   7.686 -0.8915  2.1472  2.6677
  732MOL0     H98763   3.978   6.553   7.836 -0.0588 -0.5258  0.4474
  732MOL0     H98764   3.962   6.667   7.692  0.3102  1.5454  3.4110
  732MOL0     H98765   3.740   6.642   7.663  1.8973  0.4033 -0.4121
  732MOL0     H98766   3.735   6.488   7.766 -3.1986  0.3102  1.5960
  732MOL0     H98767   3.795   6.630   7.965  2.1505  1.5389 -0.0348
  732MOL0     H98768   3.759   6.771   7.860 -1.5620  0.8404  1.6120
  732MOL0     H98769   3.558   6.538   7.911  0.3838 -0.5086  4.2206
  732MOL0     H98770   3.524   6.706   7.837  1.8463  1.6282 -0.0487
  732MOL0     H98771   3.625   6.902   8.046  0.7674  0.4453  0.5284
  732MOL0     H98772   3.562   7.036   8.231  0.4700  2.1703  1.7040
  732MOL0     H98773   3.443   6.989   8.346  1.7086  0.1454  1.0694
  732MOL0     H98774   3.657   7.011   8.447  2.4867  1.1112 -2.3351
  732MOL0     H98775   3.728   6.884   8.349 -0.9814  0.2472 -1.2819
  732MOL0     H98776   3.573   6.717   8.428  0.6001  0.0917 -1.6949
  732MOL0     H98777   3.493   6.834   8.520 -1.0699 -0.1384 -1.4531
  732MOL0     H98778   3.688   6.875   8.662 -1.6078 -0.6916  0.1912
  732MOL0     H98779   3.785   6.762   8.582 -0.5069 -1.3294  0.7436
  732MOL0     H98780   3.896   6.685   8.744  0.2064 -0.3863  0.1419
  732MOL0     H98781   4.090   6.642   8.844 -1.8337 -0.8359 -1.9862
  732MOL0     H98782   4.093   6.653   9.021 -0.0442  3.1796 -3.4357
  732MOL0     H98783   4.071   6.492   8.924 -2.7088 -1.3043  0.4756
  732MOL0     H98784   4.127   6.534   9.352  4.7231  0.8056  1.1113
  732MOL0     H98785   4.228   6.443   9.543  0.4818 -0.9422  0.5536
  732MOL0     H98786   4.352   6.258   9.725 -0.5449  2.8427 -2.7884
  732MOL0     H98787   4.186   6.330   9.722 -5.5767 -2.7098 -1.2384
  732MOL0     H98788   4.093   6.108   9.808 -1.1133 -0.1674  2.1106
  732MOL0     H98789   4.265   6.062   9.833  0.1298  1.0728  1.5178
  732MOL0     H98790   4.122   6.301   9.976 -0.2837  0.5280  1.4401
  732MOL0     H98791   4.291   6.259   9.980 -1.5849  2.0276  0.0914
  732MOL0     H98792   4.068   6.085  10.080 -1.0776  1.7429 -1.8001
  732MOL0     H98793   4.243   6.049  10.099 -1.2478 -1.2757  2.9579
  732MOL0     H98794   4.117   6.299  10.196  2.0648  0.9094  0.4596
  732MOL0     H98795   4.282   6.248  10.223  0.1051 -0.1019 -1.4605
  732MOL0     H98796   4.050   6.083  10.314 -0.9603  1.3389 -0.8014
  732MOL0     H98797   4.222   6.045  10.347 -2.1959 -2.6414  0.4136
  732MOL0     H98798   4.089   6.289  10.464  1.0034  1.4816  3.0342
  732MOL0     H98799   4.257   6.256  10.470 -2.2533  3.6905  0.9945
  732MOL0     H98800   4.032   6.061  10.558  0.7537  3.1290 -3.0001
  732MOL0     H98801   4.095   6.180  10.674 -2.1029  1.8447 -1.6807
  732MOL0     H98802   4.138   6.053   9.397  2.4434 -0.3900 -0.1868
  732MOL0     H98803   4.021   6.140   9.202  0.8870 -1.7453  1.0005
  732MOL0     H98804   3.630   6.480   9.109  0.6807 -0.7954 -0.3131
  732MOL0     H98805   3.516   6.569   8.907 -0.0543  0.1829 -0.4678
  732MOL0     H98806   4.610   6.379   7.760 -3.6748  0.5467  0.5970
  732MOL0     H98807   4.830   6.520   7.746 -1.7330 -4.3462  0.8942
  732MOL0     H98808   5.020   6.887   7.480  0.6981 -2.3850  0.3373
  732MOL0     H98809   5.210   7.039   7.467  0.4604  0.5071 -0.2910
  732MOL0     H98810   5.378   7.168   7.528 -0.8450 -2.2996 -1.4693
  732MOL0     H98811   5.525   7.204   7.619  0.4188  1.3420 -2.9473
  732MOL0     H98812   5.561   7.070   7.396 -0.3734  2.2633  0.4852
  732MOL0     H98813   5.453   6.946   7.446  1.1940 -2.1823  0.4368
  732MOL0     H98814   5.594   6.871   7.618  1.0620 -2.6439 -3.1764
  732MOL0     H98815   5.686   7.037   7.619  0.3912  0.8890 -1.7131
  732MOL0     H98816   5.837   6.893   7.528 -0.7981  1.5007  0.0429
  732MOL0     H98817   5.756   6.947   7.377  1.7437 -0.2051 -0.2696
  732MOL0     H98818   5.610   6.550   7.424  0.9924 -1.0157 -0.3072
  732MOL0     H98819   5.282   6.976   7.880 -0.8219 -0.4330 -0.1610
  732MOL0     H98820   5.057   6.843   7.897 -1.8618 -1.4853 -1.1167
  733MOL0     O98821   4.296   1.174   2.894 -0.1763  0.2513  0.1721
  733MOL0     C98822   4.239   1.174   2.782 -0.1222 -0.0368 -0.0409
  733MOL0     O98823   4.104   1.177   2.769  1.0800  0.3466 -0.7766
  733MOL0     C98824   4.029   1.196   2.886 -0.6468  0.4308 -0.2782
  733MOL0     C98825   4.015   1.090   2.984 -0.4697  1.3836  0.6080
  733MOL0     C98826   3.956   1.119   3.109 -0.3071 -0.4633 -0.2124
  733MOL0     C98827   3.919   1.243   3.153  1.0001  0.2613  0.1081
  733MOL0     O98828   3.862   1.251   3.277 -0.1748 -0.0871  0.5667
  733MOL0     C98829   3.771   1.348   3.303  0.2633  0.3962  1.0166
  733MOL0     C98830   3.709   1.319   3.435 -0.1357 -1.0222 -0.0595
  733MOL0     C98831   3.809   1.304   3.546  0.1308  0.0194  0.7629
  733MOL0     C98832   3.743   1.269   3.678 -0.2317  0.6801  0.7203
  733MOL0     C98833   3.846   1.252   3.795 -0.1957  0.2757 -0.1700
  733MOL0     C98834   3.778   1.270   3.933 -0.8770 -0.7792 -0.7070
  733MOL0     C98835   3.831   1.402   4.004  0.4534 -0.7625  0.3205
  733MOL0     C98836   3.797   1.415   4.150 -0.5256 -0.5094 -0.3636
  733MOL0     N98837   3.661   1.454   4.189  0.1003 -0.6438  0.0016
  733MOL0     C98838   3.596   1.571   4.149  0.8489 -0.2056 -0.6034
  733MOL0     C98839   3.463   1.558   4.187 -0.3389  0.4257 -0.0482
  733MOL0     C98840   3.358   1.654   4.137 -0.2644  0.6534  0.2908
  733MOL0     C98841   3.267   1.731   4.234 -1.1897 -0.6857 -0.1804
  733MOL0     C98842   3.142   1.789   4.174 -0.6406 -0.2296 -0.2261
  733MOL0     C98843   3.035   1.686   4.142  0.8184 -0.4009  0.3705
  733MOL0     O98844   3.009   1.606   4.251  0.4312  0.3532 -0.2002
  733MOL0     C98845   2.928   1.494   4.222 -0.2451  0.2015 -0.6736
  733MOL0     C98846   2.943   1.375   4.295 -0.3433 -0.1178 -0.2847
  733MOL0     C98847   2.884   1.249   4.271  0.7137 -0.8805 -0.3262
  733MOL0     C98848   2.936   1.132   4.344  0.1033  0.2724  0.1992
  733MOL0     C98849   2.783   1.251   4.173 -0.3481  0.5546  0.9530
  733MOL0     C98850   2.695   1.130   4.136 -0.2583 -0.0690 -0.6155
  733MOL0     O98851   2.585   1.148   4.058  0.2334 -1.1068  0.4575
  733MOL0     C98852   2.543   1.049   3.970  1.0250 -0.2906  0.2666
  733MOL0     C98853   2.613   1.012   3.856  0.5383  0.0244  0.7921
  733MOL0     C98854   2.552   0.909   3.780  0.2513 -0.4644  0.0846
  733MOL0     C98855   2.437   0.839   3.815  0.0400 -0.5628 -0.1836
  733MOL0     O98856   2.373   0.719   3.774 -0.5089 -0.3654 -0.0503
  733MOL0     C98857   2.451   0.621   3.709 -0.0043 -0.1344 -0.0336
  733MOL0     C98858   2.359   0.575   3.599  0.4007  0.3701  0.5373
  733MOL0     C98859   2.424   0.463   3.514 -0.3787 -0.1865  0.0707
  733MOL0     C98860   2.353   0.448   3.379 -1.1154 -0.1799  0.5611
  733MOL0     C98861   2.387   0.328   3.293  0.0824 -0.1780  0.2556
  733MOL0     C98862   2.297   0.335   3.168 -0.3326 -0.1634 -0.5790
  733MOL0     C98863   2.297   0.192   3.107  0.6554  1.4505  0.6269
  733MOL0     C98864   2.213   0.159   2.987  1.0033  0.4864  0.0850
  733MOL0    Cl98865   2.230   0.289   2.853  0.3036 -0.1342  0.4723
  733MOL0     C98866   2.369   0.886   3.929  0.6276 -0.0873 -0.8558
  733MOL0     C98867   2.422   0.987   4.006  0.1496 -0.2413  0.4183
  733MOL0     O98868   2.732   1.019   4.167  0.0834  0.8538  0.4458
  733MOL0     C98869   2.752   1.377   4.108 -0.9474  1.1848  0.8700
  733MOL0     C98870   2.824   1.498   4.135  0.0899 -0.2591 -0.2496
  733MOL0     N98871   3.449   1.445   4.254  0.6248 -0.6756 -0.2763
  733MOL0     N98872   3.561   1.382   4.254 -0.4057  0.6342 -0.2563
  733MOL0     C98873   3.933   1.348   3.061  0.0999 -0.7365  0.0632
  733MOL0     C98874   3.976   1.324   2.925  1.0603 -0.0048  0.3004
  733MOL0     C98875   4.323   1.181   2.663  0.0387  0.1383 -0.0575
  733MOL0     C98876   4.275   1.179   2.532 -0.3650 -0.3002  0.0509
  733MOL0     C98877   4.367   1.184   2.422 -0.6821  0.6464  0.1804
  733MOL0     C98878   4.511   1.177   2.448 -0.2600 -0.0598 -0.4591
  733MOL0     O98879   4.606   1.178   2.352 -0.6385 -0.1461  0.0257
  733MOL0     C98880   4.591   1.189   2.206 -0.0671  0.4660  0.0600
  733MOL0     C98881   4.641   1.327   2.162  0.2170 -0.0785  0.0123
  733MOL0     C98882   4.673   1.351   2.020 -0.5160  0.7174 -0.2335
  733MOL0     C98883   4.817   1.336   1.973 -0.6355  0.7986 -0.1464
  733MOL0     C98884   4.885   1.444   2.030  0.5241 -1.0111 -0.5791
  733MOL0     C98885   4.950   1.532   2.077  0.7075 -0.1597  0.1429
  733MOL0     C98886   4.551   1.184   2.580 -1.3133  0.4422 -0.6071
  733MOL0     C98887   4.461   1.175   2.684  0.0156  0.2898 -0.8100
  733MOL0     H98888   4.054   0.995   2.951 -0.9155  1.3647  0.1345
  733MOL0     H98889   3.927   1.046   3.184 -1.4912  1.8274  1.7013
  733MOL0     H98890   3.826   1.443   3.306  4.4667 -1.6288 -1.6592
  733MOL0     H98891   3.692   1.356   3.228  0.2187 -3.0698  0.5204
  733MOL0     H98892   3.643   1.403   3.456 -0.1571 -0.7932 -0.9671
  733MOL0     H98893   3.640   1.234   3.422 -1.0314 -0.1043 -1.7352
  733MOL0     H98894   3.872   1.220   3.515 -3.5892 -2.7669  0.0482
  733MOL0     H98895   3.861   1.400   3.555 -1.5660  1.5557 -3.5902
  733MOL0     H98896   3.677   1.349   3.711 -1.9181 -0.7117  0.8990
  733MOL0     H98897   3.688   1.174   3.672  2.9272 -1.2043 -1.2764
  733MOL0     H98898   3.889   1.152   3.786  2.6743  1.2995  0.9924
  733MOL0     H98899   3.929   1.320   3.776  0.6172 -0.8366 -0.6957
  733MOL0     H98900   3.669   1.265   3.920 -1.0885 -4.5903  1.0560
  733MOL0     H98901   3.810   1.178   3.984  1.9497  1.2525  1.5371
  733MOL0     H98902   3.940   1.403   3.990  0.6744  1.1799  1.6484
  733MOL0     H98903   3.800   1.484   3.938  0.0645 -2.9729 -2.4133
  733MOL0     H98904   3.859   1.495   4.190  2.4321 -3.0596  0.5487
  733MOL0     H98905   3.826   1.327   4.208  0.2830  0.8141  1.3345
  733MOL0     H98906   3.641   1.650   4.090 -1.9203  0.7452 -1.6008
  733MOL0     H98907   3.387   1.720   4.054 -1.4135  2.5176  1.3009
  733MOL0     H98908   3.285   1.588   4.091  0.0994  1.6809 -1.9067
  733MOL0     H98909   3.331   1.805   4.283  0.4900 -2.3103  0.1541
  733MOL0     H98910   3.241   1.658   4.311 -1.3736 -2.3961 -1.7975
  733MOL0     H98911   3.176   1.830   4.078  0.7489 -0.4950  0.1347
  733MOL0     H98912   3.114   1.865   4.247 -1.0296  0.2932 -0.9129
  733MOL0     H98913   3.066   1.626   4.055 -0.2632 -0.5973  0.1114
  733MOL0     H98914   2.945   1.743   4.121  0.5522  0.6924  3.8740
  733MOL0     H98915   3.023   1.373   4.368 -2.1995  1.4102  1.9266
  733MOL0     H98916   3.028   1.151   4.400 -0.1379 -2.7584  1.8203
  733MOL0     H98917   2.864   1.089   4.414  0.6346 -1.8707 -0.4952
  733MOL0     H98918   2.963   1.051   4.276 -2.8912 -1.6253  1.0744
  733MOL0     H98919   2.709   1.055   3.829  0.8592 -1.9330 -1.4883
  733MOL0     H98920   2.609   0.876   3.694  1.2662  1.3870  0.0041
  733MOL0     H98921   2.545   0.656   3.665  0.9211 -1.7383  0.5356
  733MOL0     H98922   2.472   0.538   3.778  0.0649 -1.2907 -1.3901
  733MOL0     H98923   2.259   0.549   3.634  0.3070 -1.2480 -0.8295
  733MOL0     H98924   2.343   0.660   3.532 -0.5681 -0.0070  0.2705
  733MOL0     H98925   2.410   0.373   3.575 -1.3983  0.2250  0.4513
  733MOL0     H98926   2.531   0.477   3.492 -0.8723 -0.7109 -3.2096
  733MOL0     H98927   2.247   0.451   3.407 -2.2552 -1.3401 -3.0303
  733MOL0     H98928   2.384   0.538   3.325 -1.6325 -0.9023 -1.0259
  733MOL0     H98929   2.364   0.236   3.346  2.7456 -0.1578  1.6354
  733MOL0     H98930   2.494   0.324   3.269  0.6183 -3.5250  2.5827
  733MOL0     H98931   2.195   0.363   3.194  0.6594  0.6346  3.2317
  733MOL0     H98932   2.335   0.407   3.094  0.5509 -1.5147 -1.4860
  733MOL0     H98933   2.271   0.123   3.188  0.5656 -0.8033 -1.2473
  733MOL0     H98934   2.400   0.161   3.088 -0.3728 -2.4881  0.6000
  733MOL0     H98935   2.113   0.156   3.029  0.4778 -2.3537 -1.1926
  733MOL0     H98936   2.241   0.061   2.947 -1.2506 -1.0947  2.1335
  733MOL0     H98937   2.289   0.828   3.974 -0.6424  2.0210 -0.2519
  733MOL0     H98938   2.375   1.011   4.102  0.4536 -0.3448  0.5932
  733MOL0     H98939   2.675   1.390   4.033 -0.1715 -0.1946 -0.2266
  733MOL0     H98940   2.796   1.590   4.085  0.0442  0.1738  0.5510
  733MOL0     H98941   3.923   1.454   3.081  1.3353 -0.9134  1.8044
  733MOL0     H98942   3.982   1.396   2.844  3.2486 -1.1531 -0.6572
  733MOL0     H98943   4.168   1.189   2.516 -0.5244 -0.6226  0.8659
  733MOL0     H98944   4.337   1.190   2.318  1.1118 -2.4654 -0.6540
  733MOL0     H98945   4.652   1.110   2.162 -1.0280 -0.7791  0.8914
  733MOL0     H98946   4.489   1.166   2.174  0.0583  1.6652 -1.3257
  733MOL0     H98947   4.730   1.354   2.219  0.1794  0.1290 -0.0284
  733MOL0     H98948   4.561   1.391   2.200  2.6267  0.4396  5.0951
  733MOL0     H98949   4.634   1.450   1.993 -1.2895 -0.2179 -2.9231
  733MOL0     H98950   4.609   1.284   1.961  0.9426  0.4774 -1.6142
  733MOL0     H98951   4.835   1.333   1.865  0.9937  0.9108  0.0962
  733MOL0     H98952   4.852   1.241   2.014 -1.0581  0.7150  0.0213
  733MOL0     H98953   4.989   1.625   2.114  2.5009 -0.9195  0.2489
  733MOL0     H98954   4.656   1.176   2.607 -1.3003  1.2197 -0.3989
  733MOL0     H98955   4.504   1.194   2.782 -1.1419  1.5598 -0.5038
  734MOL0     O98956   1.778   1.689   7.649  0.2068 -0.4937  0.1798
  734MOL0     C98957   1.858   1.635   7.724  0.6770  0.8102 -0.2512
  734MOL0     O98958   1.907   1.507   7.711  0.2852 -0.0823  0.3498
  734MOL0     C98959   1.874   1.427   7.610 -0.3460 -0.3687  0.9342
  734MOL0     C98960   1.740   1.389   7.595  0.0058  0.6921 -0.6127
  734MOL0     C98961   1.697   1.296   7.492  0.0916  0.3537  0.4964
  734MOL0     C98962   1.796   1.256   7.400  0.0592 -0.0979 -0.0363
  734MOL0     O98963   1.776   1.177   7.287 -0.1874  0.0724 -0.0846
  734MOL0     C98964   1.644   1.124   7.269 -0.1204 -0.3132  0.3300
  734MOL0     C98965   1.649   1.048   7.137 -0.9827 -0.7604  0.0567
  734MOL0     C98966   1.528   0.959   7.106 -0.3097  0.3576  0.3227
  734MOL0     C98967   1.399   1.014   7.173  0.6678 -0.0528 -0.5924
  734MOL0     C98968   1.264   0.957   7.137  1.0986 -0.1859 -0.2380
  734MOL0     C98969   1.252   0.811   7.190 -0.5419 -0.0569  0.1580
  734MOL0     C98970   1.140   0.718   7.134 -0.4991 -0.7940  0.4525
  734MOL0     C98971   1.129   0.582   7.215  0.5780  0.1356  0.4347
  734MOL0     N98972   1.053   0.474   7.153  0.9202  0.2917  0.1843
  734MOL0     C98973   0.926   0.445   7.194 -0.1258 -0.3037  0.2858
  734MOL0     C98974   0.889   0.334   7.125 -0.0740  0.4651 -0.2933
  734MOL0     C98975   0.763   0.256   7.145 -0.7488  0.3620  0.4196
  734MOL0     C98976   0.698   0.228   7.013  1.3884  0.3511  0.2692
  734MOL0     C98977   0.594   0.119   7.031  0.5282  0.3124 -0.2980
  734MOL0     C98978   0.660  -0.018   7.042  0.1226  1.3404 -0.6849
  734MOL0     O98979   0.754  -0.033   6.930  0.3962 -0.5534 -0.5495
  734MOL0     C98980   0.704  -0.068   6.808 -0.2261  1.4059 -0.5769
  734MOL0     C98981   0.768  -0.004   6.706 -0.0800 -0.5687  0.7198
  734MOL0     C98982   0.742  -0.043   6.572 -0.1121 -0.4753  0.3210
  734MOL0     C98983   0.817   0.034   6.465 -0.0783  1.1599  0.2056
  734MOL0     C98984   0.643  -0.142   6.546 -0.0509  0.5041  0.3712
  734MOL0     C98985   0.604  -0.164   6.403 -0.1070  0.1741  0.2239
  734MOL0     O98986   0.513  -0.090   6.353 -0.2407 -0.1730 -0.1413
  734MOL0     C98987   0.473  -0.105   6.227 -0.0456  0.2528 -0.4665
  734MOL0     C98988   0.387  -0.209   6.186 -0.8037  0.3382  1.3530
  734MOL0     C98989   0.370  -0.231   6.044  0.4984  0.5522  0.2943
  734MOL0     C98990   0.455  -0.159   5.954 -0.2237 -0.9076  0.1047
  734MOL0     O98991   0.441  -0.183   5.818  0.7605 -0.1225 -0.3518
  734MOL0     C98992   0.520  -0.128   5.707  0.0124 -0.1647 -0.9233
  734MOL0     C98993   0.424  -0.044   5.624 -0.2132 -0.4050 -0.3700
  734MOL0     C98994   0.358   0.079   5.692 -0.1193  0.2409 -0.6351
  734MOL0     C98995   0.222   0.056   5.755 -0.6113  0.1241 -0.3229
  734MOL0     C98996   0.190   0.142   5.886 -0.5426  0.3061 -0.7134
  734MOL0     C98997   0.140   0.063   6.013  0.1001  1.0785 -0.5795
  734MOL0     C98998   0.127   0.148   6.136 -1.0743  0.3841 -0.5209
  734MOL0     C98999   0.258   0.208   6.182 -0.1782 -0.1119 -0.3644
  734MOL0    Cl99000   0.266   0.374   6.115 -0.0888  0.1027 -0.0422
  734MOL0     C99001   0.544  -0.070   6.000 -0.2691 -0.5984 -0.6927
  734MOL0     C99002   0.560  -0.044   6.134 -0.1337  0.1633 -0.2416
  734MOL0     O99003   0.655  -0.254   6.337  0.8056 -0.5202  0.0263
  734MOL0     C99004   0.576  -0.198   6.644  0.7172  0.2009 -0.7164
  734MOL0     C99005   0.606  -0.165   6.779 -0.4350 -0.6703  0.9949
  734MOL0     N99006   0.983   0.310   7.033 -0.2177 -0.2591  0.1573
  734MOL0     N99007   1.084   0.381   7.058 -0.5788 -0.2611 -0.9531
  734MOL0     C99008   1.923   1.291   7.420 -0.1024 -0.0621  0.6070
  734MOL0     C99009   1.967   1.377   7.523  0.2332  0.1703  0.8108
  734MOL0     C99010   1.927   1.713   7.836  0.0044  0.3352  0.5696
  734MOL0     C99011   1.924   1.852   7.835  0.0211  0.2093  1.0006
  734MOL0     C99012   1.999   1.927   7.928  0.4240 -0.0419 -0.0260
  734MOL0     C99013   2.071   1.860   8.023  0.0517  0.5297  0.2376
  734MOL0     O99014   2.130   1.935   8.128  0.5254  1.1043  0.6598
  734MOL0     C99015   2.267   1.916   8.156  0.2638  0.2550  0.1430
  734MOL0     C99016   2.339   2.004   8.055 -0.1162  0.5448 -0.8117
  734MOL0     C99017   2.492   2.007   8.088 -0.2610 -0.0912 -0.1962
  734MOL0     C99018   2.567   1.873   8.077 -0.4028  0.3598 -0.6775
  734MOL0     C99019   2.710   1.883   8.106 -0.8741  0.0023  0.0548
  734MOL0     C99020   2.823   1.900   8.133 -0.7083 -0.5334  0.1301
  734MOL0     C99021   2.075   1.721   8.034  0.4490  0.2181  0.2685
  734MOL0     C99022   2.012   1.645   7.936 -0.4974  0.0671  0.2091
  734MOL0     H99023   1.660   1.431   7.655 -1.8721 -1.5477 -1.3804
  734MOL0     H99024   1.591   1.282   7.477 -0.0074 -1.1948  2.2368
  734MOL0     H99025   1.646   1.049   7.349 -1.8244  0.5508  1.2211
  734MOL0     H99026   1.558   1.189   7.287 -1.2091 -0.7757 -2.6488
  734MOL0     H99027   1.670   1.127   7.065  1.9816 -0.6622  0.9057
  734MOL0     H99028   1.733   0.978   7.136 -1.0061 -0.7971  0.3575
  734MOL0     H99029   1.524   0.947   6.997  0.8558  1.0188  0.1898
  734MOL0     H99030   1.549   0.862   7.152  0.1536  1.3756  2.3709
  734MOL0     H99031   1.416   1.001   7.280  0.2127 -4.5167 -0.8537
  734MOL0     H99032   1.394   1.121   7.149  1.6428 -0.3268 -2.1986
  734MOL0     H99033   1.184   1.016   7.182  1.1095  0.3191 -0.8613
  734MOL0     H99034   1.249   0.966   7.029 -0.8570  2.7070  0.1822
  734MOL0     H99035   1.345   0.766   7.153  0.4160  0.4291  1.8494
  734MOL0     H99036   1.250   0.809   7.300  2.1203  0.5721  0.2944
  734MOL0     H99037   1.044   0.770   7.145 -1.8487 -3.0246 -0.1509
  734MOL0     H99038   1.151   0.701   7.027  0.7646  0.6566  0.3119
  734MOL0     H99039   1.093   0.620   7.310  1.6573  0.4994  0.7192
  734MOL0     H99040   1.229   0.538   7.227 -0.3815 -1.6581  2.4167
  734MOL0     H99041   0.858   0.508   7.250  1.0429  1.4827 -0.2399
  734MOL0     H99042   0.778   0.165   7.202 -1.0404  0.4182  0.5876
  734MOL0     H99043   0.714   0.325   7.214  0.3077 -0.7611  2.3675
  734MOL0     H99044   0.773   0.210   6.936  2.4364  4.8489  0.0216
  734MOL0     H99045   0.641   0.315   6.980 -0.3656 -0.6407  0.5361
  734MOL0     H99046   0.513   0.121   6.958 -1.5659 -0.5823  1.8622
  734MOL0     H99047   0.552   0.134   7.131  1.1435  1.8750 -0.2412
  734MOL0     H99048   0.587  -0.100   7.041  3.8895 -2.5248  2.7131
  734MOL0     H99049   0.706  -0.046   7.136 -0.0867  3.2686  0.0341
  734MOL0     H99050   0.837   0.078   6.727 -0.4764  0.3268 -1.2516
  734MOL0     H99051   0.855  -0.047   6.403  0.8999  1.1860  0.7546
  734MOL0     H99052   0.757   0.103   6.404  0.6455  2.6285  1.1071
  734MOL0     H99053   0.906   0.085   6.503 -1.1492  1.0095  3.2403
  734MOL0     H99054   0.332  -0.259   6.266 -1.6166  1.9857  1.8646
  734MOL0     H99055   0.297  -0.300   6.005  1.6137 -1.3574  1.4286
  734MOL0     H99056   0.613  -0.077   5.732 -1.2147  1.7946 -0.1088
  734MOL0     H99057   0.553  -0.215   5.650  0.5405 -1.3237  1.0744
  734MOL0     H99058   0.488  -0.008   5.542  0.6133 -1.3061 -0.1314
  734MOL0     H99059   0.356  -0.114   5.576 -0.8582 -0.2451  0.2901
  734MOL0     H99060   0.344   0.167   5.628 -0.2117  0.4428 -0.3404
  734MOL0     H99061   0.424   0.101   5.777 -2.4542  1.9426  0.8753
  734MOL0     H99062   0.140   0.080   5.686 -1.3016 -0.8848  0.1211
  734MOL0     H99063   0.233  -0.049   5.784  1.0322 -0.4827 -2.8315
  734MOL0     H99064   0.110   0.212   5.860 -0.0491  1.3439  0.4888
  734MOL0     H99065   0.285   0.190   5.909 -0.6384  0.3000 -0.2942
  734MOL0     H99066   0.051   0.005   5.988  1.7248 -3.1389  2.3145
  734MOL0     H99067   0.220  -0.004   6.048 -2.6425 -1.3949  1.4792
  734MOL0     H99068   0.094   0.097   6.227 -4.0741  1.5380 -0.8356
  734MOL0     H99069   0.050   0.223   6.116 -0.7041  1.1737  0.9169
  734MOL0     H99070   0.346   0.147   6.162  0.9919  0.8128  1.6861
  734MOL0     H99071   0.261   0.223   6.290  3.6935 -0.8576 -0.2152
  734MOL0     H99072   0.606  -0.021   5.926  1.1700 -4.1128 -2.0254
  734MOL0     H99073   0.639   0.021   6.170  0.7600 -0.6810 -0.6510
  734MOL0     H99074   0.497  -0.269   6.623  3.0924 -3.4488  1.4570
  734MOL0     H99075   0.551  -0.206   6.864 -3.0908  0.4958 -0.0487
  734MOL0     H99076   2.001   1.254   7.354  0.8160  2.3136  0.2696
  734MOL0     H99077   2.071   1.408   7.526 -0.8435  5.1164 -1.9254
  734MOL0     H99078   1.877   1.902   7.751  0.2618  1.4080  1.5544
  734MOL0     H99079   2.015   2.034   7.935  1.9895 -0.0234 -2.6886
  734MOL0     H99080   2.292   1.958   8.253 -1.6786  1.1132  0.3091
  734MOL0     H99081   2.296   1.811   8.144 -1.8405 -0.0511 -4.1727
  734MOL0     H99082   2.291   2.102   8.063  1.6296  1.4168 -0.5508
  734MOL0     H99083   2.317   1.966   7.955  0.0971 -1.8405 -0.0175
  734MOL0     H99084   2.504   2.063   8.181 -1.8421  2.8300 -1.6303
  734MOL0     H99085   2.527   2.064   8.002 -1.5682  0.4282 -0.4056
  734MOL0     H99086   2.549   1.827   7.979 -4.2149 -0.7126  0.3549
  734MOL0     H99087   2.526   1.805   8.152  1.6936 -0.6764 -0.3659
  734MOL0     H99088   2.929   1.904   8.154 -0.7124  0.6748  0.0176
  734MOL0     H99089   2.125   1.658   8.106 -0.7678 -1.1438 -0.0268
  734MOL0     H99090   2.016   1.536   7.943 -1.3881  0.0701  0.8354
  735MOL0     O99091   0.530   4.048  11.155 -0.0237 -0.7886 -0.6738
  735MOL0     C99092   0.555   4.151  11.225 -0.2374  0.6157  0.4435
  735MOL0     O99093   0.467   4.251  11.247  0.0899  0.0890  0.5830
  735MOL0     C99094   0.336   4.250  11.210  0.0943 -0.0683  0.1986
  735MOL0     C99095   0.259   4.132  11.228 -0.2378 -0.1210  0.0939
  735MOL0     C99096   0.126   4.141  11.192 -0.4719 -0.6894 -0.6659
  735MOL0     C99097   0.065   4.249  11.148  0.3538 -0.5381 -0.0366
  735MOL0     O99098  -0.063   4.237  11.116 -0.5313  0.7268 -0.2051
  735MOL0     C99099  -0.143   4.348  11.067 -0.7301 -0.2518 -0.2255
  735MOL0     C99100  -0.111   4.362  10.919 -0.1401 -0.8555  0.6733
  735MOL0     C99101  -0.141   4.231  10.838 -0.0724 -0.9212  0.0999
  735MOL0     C99102  -0.132   4.253  10.686 -0.1683  0.1603 -0.0918
  735MOL0     C99103  -0.103   4.120  10.610 -0.1357 -0.5528  0.1991
  735MOL0     C99104  -0.050   4.143  10.465 -0.4774  0.6246 -0.5654
  735MOL0     C99105   0.015   4.006  10.414 -0.1549  0.7591 -0.3691
  735MOL0     C99106  -0.099   3.923  10.351 -0.2120 -0.6360  0.0741
  735MOL0     N99107  -0.035   3.800  10.317 -0.1839  0.7257  1.0601
  735MOL0     C99108   0.041   3.798  10.207  0.9970 -0.1625  0.9804
  735MOL0     C99109   0.061   3.665  10.190 -0.8191  0.4380  0.2035
  735MOL0     C99110   0.140   3.589  10.091  0.2927 -0.0933 -0.1277
  735MOL0     C99111   0.273   3.552  10.151 -0.7261  0.5682 -0.8949
  735MOL0     C99112   0.362   3.490  10.047 -0.3277  0.2766 -0.1448
  735MOL0     C99113   0.507   3.478  10.099  1.1274  1.0586 -0.4122
  735MOL0     O99114   0.497   3.406  10.229  0.9803 -0.1253  0.1177
  735MOL0     C99115   0.597   3.410  10.321 -0.2495 -0.2786 -0.8115
  735MOL0     C99116   0.572   3.361  10.455 -0.4259 -0.1811 -0.4545
  735MOL0     C99117   0.672   3.383  10.553  0.7896  1.1772  0.8057
  735MOL0     C99118   0.643   3.345  10.700 -0.4732 -0.9920 -0.6394
  735MOL0     C99119   0.806   3.408  10.513  0.1958 -1.1865 -0.0789
  735MOL0     C99120   0.915   3.412  10.604  0.0222  0.1738 -0.6567
  735MOL0     O99121   0.899   3.481  10.720 -0.1048 -0.2832 -0.3265
  735MOL0     C99122   1.003   3.514  10.809 -0.7658 -0.9405  0.2679
  735MOL0     C99123   1.131   3.566  10.780  0.3532 -0.1559 -0.3418
  735MOL0     C99124   1.218   3.612  10.879 -0.1013  0.2522  0.2228
  735MOL0     C99125   1.201   3.591  11.019  0.4475  0.1069 -0.1851
  735MOL0     O99126   1.287   3.608  11.118 -0.2434 -0.7857 -0.2080
  735MOL0     C99127   1.434   3.610  11.099  0.7691  0.6919 -0.2284
  735MOL0     C99128   1.492   3.587  11.237  0.2164 -0.3104  0.2407
  735MOL0     C99129   1.639   3.627  11.243 -0.0101 -0.7412 -0.6977
  735MOL0     C99130   1.720   3.509  11.194 -0.2220 -0.3919  0.9126
  735MOL0     C99131   1.734   3.391  11.294 -0.5801  1.4565 -0.0556
  735MOL0     C99132   1.789   3.428  11.423  0.4706  0.4033 -0.7112
  735MOL0     C99133   1.828   3.309  11.519 -0.9115  0.1069 -0.1399
  735MOL0     C99134   1.865   3.348  11.660  0.1421  0.5028 -0.2773
  735MOL0    Cl99135   2.041   3.383  11.667 -0.3139  0.1971  0.6350
  735MOL0     C99136   1.083   3.518  11.054  0.1306  0.5714 -0.2501
  735MOL0     C99137   0.981   3.489  10.953 -0.3548 -0.0989  0.9769
  735MOL0     O99138   1.025   3.387  10.558  0.1156  0.6115 -0.7363
  735MOL0     C99139   0.832   3.456  10.382  0.0932  0.5119  0.8673
  735MOL0     C99140   0.728   3.439  10.288 -0.0603 -0.4362  0.4655
  735MOL0     N99141  -0.011   3.590  10.282  0.0139  0.2549 -0.1212
  735MOL0     N99142  -0.071   3.674  10.347 -0.5165  0.2202  0.2132
  735MOL0     C99143   0.142   4.371  11.127  0.3119 -0.1832 -0.6089
  735MOL0     C99144   0.281   4.366  11.154  0.9874 -0.1592 -0.0904
  735MOL0     C99145   0.680   4.186  11.303 -0.8484  0.2760 -1.4652
  735MOL0     C99146   0.777   4.087  11.329 -0.2943 -0.5513 -0.4821
  735MOL0     C99147   0.900   4.126  11.386 -0.8365  0.4899 -0.3003
  735MOL0     C99148   0.925   4.255  11.441  0.9614 -0.2676  0.1472
  735MOL0     O99149   1.030   4.282  11.521  0.7973 -0.7969  1.2018
  735MOL0     C99150   1.059   4.423  11.565 -0.5799  0.5146 -0.3078
  735MOL0     C99151   1.157   4.424  11.682  0.8111  0.3460  0.4576
  735MOL0     C99152   1.088   4.395  11.809  0.3790  0.0472  0.1420
  735MOL0     C99153   1.058   4.245  11.835  0.1876 -0.3966 -0.1771
  735MOL0     C99154   1.002   4.229  11.968  0.6520 -0.5540 -0.0225
  735MOL0     C99155   0.957   4.222  12.075  0.4162  0.7516 -0.2704
  735MOL0     C99156   0.825   4.361  11.404 -0.1454  0.6604 -0.6099
  735MOL0     C99157   0.714   4.323  11.330  0.4040 -0.8655 -0.8093
  735MOL0     H99158   0.304   4.041  11.267  0.5434  1.0337  1.9754
  735MOL0     H99159   0.069   4.048  11.190 -3.2903  0.9184 -0.6691
  735MOL0     H99160  -0.249   4.332  11.087 -0.8955  0.2982 -0.6684
  735MOL0     H99161  -0.117   4.432  11.132  0.8004 -0.7453 -0.1424
  735MOL0     H99162  -0.186   4.430  10.877 -2.1177 -2.0357  2.1123
  735MOL0     H99163  -0.009   4.396  10.903 -1.3570  2.1124 -1.8957
  735MOL0     H99164  -0.067   4.157  10.871 -0.2141  0.1058  2.9541
  735MOL0     H99165  -0.239   4.186  10.859  0.1774 -2.3353 -1.5183
  735MOL0     H99166  -0.228   4.287  10.644 -0.0874  0.4161 -0.0674
  735MOL0     H99167  -0.049   4.323  10.672  1.1300 -1.4484 -0.7971
  735MOL0     H99168  -0.043   4.061  10.680  0.6722 -0.6282 -0.5332
  735MOL0     H99169  -0.199   4.070  10.599 -1.4502  1.7433  0.5165
  735MOL0     H99170  -0.123   4.182  10.394  0.3783 -2.5181 -3.4536
  735MOL0     H99171   0.025   4.222  10.468 -1.1709  1.3055 -0.9242
  735MOL0     H99172   0.102   4.022  10.350  0.9631  2.7594  1.5236
  735MOL0     H99173   0.048   3.945  10.498 -1.2207  0.0524 -0.4309
  735MOL0     H99174  -0.128   3.976  10.259  0.3411 -1.6282 -0.6809
  735MOL0     H99175  -0.185   3.911  10.418  0.8290 -0.4398  1.4885
  735MOL0     H99176   0.094   3.875  10.151  0.2462 -1.6081 -1.9531
  735MOL0     H99177   0.089   3.497  10.061  1.5231 -0.8606  0.0581
  735MOL0     H99178   0.142   3.658  10.006 -0.4376 -2.2218 -1.9738
  735MOL0     H99179   0.255   3.497  10.244 -0.7830 -1.6109 -2.1169
  735MOL0     H99180   0.325   3.638  10.193 -2.1679 -0.2604  2.9408
  735MOL0     H99181   0.375   3.550   9.956 -1.6584 -1.1381 -1.3189
  735MOL0     H99182   0.335   3.385  10.031 -0.5977  0.2569  0.3950
  735MOL0     H99183   0.553   3.575  10.120  2.5267  0.1390  1.0553
  735MOL0     H99184   0.566   3.423  10.024  0.5712 -0.1311 -0.0060
  735MOL0     H99185   0.478   3.314  10.482  0.8940 -2.5079  0.3767
  735MOL0     H99186   0.591   3.427  10.751 -0.5358 -0.9834 -0.7150
  735MOL0     H99187   0.578   3.257  10.710 -1.0666 -0.2974  3.0605
  735MOL0     H99188   0.725   3.315  10.766 -1.5032  0.6583  1.5507
  735MOL0     H99189   1.148   3.596  10.677  0.2160 -0.7697 -0.5451
  735MOL0     H99190   1.309   3.670  10.864 -0.4462  0.6905 -0.1945
  735MOL0     H99191   1.484   3.534  11.037  1.6075  3.0461 -2.6406
  735MOL0     H99192   1.458   3.711  11.064  0.7496  1.5887  2.1661
  735MOL0     H99193   1.441   3.655  11.306 -2.0761  1.6257 -3.0484
  735MOL0     H99194   1.482   3.481  11.263  1.2116 -0.2553  0.8852
  735MOL0     H99195   1.647   3.655  11.348  0.4262  1.0645 -1.1827
  735MOL0     H99196   1.660   3.714  11.180  1.4927 -0.0500  0.6980
  735MOL0     H99197   1.691   3.474  11.095  0.1940 -2.0947  1.3523
  735MOL0     H99198   1.819   3.547  11.167 -2.0871  1.7891 -4.0343
  735MOL0     H99199   1.798   3.314  11.250  0.6522  1.3636  1.8053
  735MOL0     H99200   1.634   3.348  11.307  0.2709 -0.9151 -0.7539
  735MOL0     H99201   1.879   3.489  11.408 -0.3321  1.5748 -0.9545
  735MOL0     H99202   1.726   3.501  11.476  3.7582  1.7520  1.7446
  735MOL0     H99203   1.894   3.232  11.478 -2.8012 -1.0269 -1.2657
  735MOL0     H99204   1.732   3.257  11.530 -0.0053 -1.3205  1.6893
  735MOL0     H99205   1.832   3.274  11.733 -2.4387 -0.4474 -2.2674
  735MOL0     H99206   1.805   3.438  11.679  1.7834  2.1572 -2.3089
  735MOL0     H99207   1.067   3.491  11.158  1.6035 -0.1527 -0.1884
  735MOL0     H99208   0.887   3.454  10.992  0.4352 -1.6039  1.5937
  735MOL0     H99209   0.933   3.481  10.352 -0.4369 -0.1279 -1.6853
  735MOL0     H99210   0.754   3.456  10.184 -1.2655 -1.3424 -0.0082
  735MOL0     H99211   0.089   4.453  11.080 -0.4935 -0.7535 -0.7386
  735MOL0     H99212   0.330   4.457  11.121 -1.7995  2.0510  1.3983
  735MOL0     H99213   0.755   3.983  11.311  0.0925 -0.6538 -0.3688
  735MOL0     H99214   0.977   4.050  11.397  0.1479  1.0465 -2.7103
  735MOL0     H99215   1.104   4.481  11.484  0.9665 -1.3690 -0.8835
  735MOL0     H99216   0.966   4.478  11.583 -1.7256 -1.6031  0.6551
  735MOL0     H99217   1.203   4.522  11.697  0.9904 -0.1367  3.7751
  735MOL0     H99218   1.232   4.346  11.666 -0.1061 -0.8372  1.6509
  735MOL0     H99219   0.996   4.450  11.831 -0.5287 -1.3084 -0.1611
  735MOL0     H99220   1.148   4.434  11.892 -0.3177  0.7823  0.3158
  735MOL0     H99221   1.156   4.197  11.837 -0.2792 -1.4018 -0.6305
  735MOL0     H99222   0.999   4.188  11.762  4.1623 -3.7706 -1.1623
  735MOL0     H99223   0.904   4.204  12.167 -2.6407 -1.1150 -2.2090
  735MOL0     H99224   0.843   4.465  11.428 -2.1698  0.7929  0.4944
  735MOL0     H99225   0.648   4.406  11.309  0.6650 -0.8280 -1.4857
  736MOL0     O99226   2.391   7.029   9.024 -0.3529 -0.2578 -0.6693
  736MOL0     C99227   2.379   6.941   8.940  1.1632  0.4371  0.1299
  736MOL0     O99228   2.399   6.957   8.803 -0.3126  0.6434 -0.1144
  736MOL0     C99229   2.400   7.090   8.760 -0.0298  0.1564 -0.0304
  736MOL0     C99230   2.496   7.179   8.800  0.4209 -0.5522 -0.4422
  736MOL0     C99231   2.529   7.293   8.714 -0.4718  0.6253 -0.1108
  736MOL0     C99232   2.435   7.329   8.615 -1.0432  0.0464 -0.9149
  736MOL0     O99233   2.466   7.448   8.553 -0.2974  0.5312  0.5410
  736MOL0     C99234   2.351   7.516   8.503 -0.3506 -0.6526 -0.3244
  736MOL0     C99235   2.378   7.670   8.483  1.0873  0.3007 -0.1519
  736MOL0     C99236   2.254   7.732   8.433  0.2724 -1.4641 -0.5912
  736MOL0     C99237   2.277   7.880   8.368 -0.5953 -0.1839  0.5054
  736MOL0     C99238   2.159   7.948   8.304  0.2090  0.2233 -0.3894
  736MOL0     C99239   2.052   7.847   8.266  0.3030  0.5128  1.2122
  736MOL0     C99240   1.931   7.925   8.207 -0.0564  0.0812 -0.2166
  736MOL0     C99241   1.950   7.984   8.068 -0.1605  0.3351 -0.0811
  736MOL0     N99242   1.965   7.881   7.961 -0.9219  0.8895  0.9418
  736MOL0     C99243   1.883   7.773   7.937  0.9103 -0.6411 -0.1838
  736MOL0     C99244   1.958   7.698   7.849  0.5218  0.4751 -0.6578
  736MOL0     C99245   1.914   7.577   7.788  0.7455  1.1011 -0.4937
  736MOL0     C99246   1.910   7.451   7.883 -0.9340  0.0162 -0.2120
  736MOL0     C99247   2.048   7.419   7.952  0.0870 -0.5127  0.1010
  736MOL0     C99248   2.047   7.324   8.067  0.0168 -0.2305 -0.9827
  736MOL0     O99249   1.965   7.387   8.170 -0.1969 -0.7218  0.4143
  736MOL0     C99250   1.955   7.323   8.289 -0.5084  0.5943 -1.2127
  736MOL0     C99251   1.989   7.191   8.319  1.0129  0.0205 -0.2697
  736MOL0     C99252   1.978   7.137   8.447  0.6615  0.2331  0.5003
  736MOL0     C99253   2.025   6.995   8.466 -0.0402  0.7268  0.2468
  736MOL0     C99254   1.930   7.220   8.553 -0.5683  0.3804 -0.0903
  736MOL0     C99255   1.918   7.179   8.694 -0.2642 -0.0582  0.2095
  736MOL0     O99256   1.940   7.282   8.781 -0.0344  0.7993 -0.8041
  736MOL0     C99257   1.924   7.261   8.912  0.3847 -0.4573 -0.2386
  736MOL0     C99258   2.031   7.229   8.988 -0.4948  0.2722 -0.9096
  736MOL0     C99259   2.018   7.215   9.130 -0.8855 -0.1010  0.9083
  736MOL0     C99260   1.892   7.244   9.188  0.0673 -0.0525  0.6224
  736MOL0     O99261   1.869   7.240   9.321  0.1896  0.2146 -0.7370
  736MOL0     C99262   1.756   7.308   9.379  1.0367 -0.6785 -0.1153
  736MOL0     C99263   1.768   7.337   9.526  0.9276 -0.6600 -0.4814
  736MOL0     C99264   1.710   7.477   9.562 -0.2494  1.1427 -0.7746
  736MOL0     C99265   1.715   7.490   9.713 -0.0565  0.2210 -0.5198
  736MOL0     C99266   1.640   7.613   9.771  0.6323  0.3800  0.4913
  736MOL0     C99267   1.673   7.630   9.918 -0.2106 -0.0000  0.2587
  736MOL0     C99268   1.622   7.523  10.011 -0.3673  0.4653 -0.4591
  736MOL0     C99269   1.677   7.567  10.154 -0.2648  0.3365 -0.4414
  736MOL0    Cl99270   1.664   7.446  10.274 -0.0714 -0.0325  0.0684
  736MOL0     C99271   1.783   7.273   9.114  0.7463  0.2530  0.7948
  736MOL0     C99272   1.796   7.281   8.975 -0.1154  0.4020  0.4201
  736MOL0     O99273   1.875   7.067   8.720  0.4908 -0.2855  0.0136
  736MOL0     C99274   1.907   7.357   8.528 -0.2633  0.3877  0.0710
  736MOL0     C99275   1.911   7.398   8.397  0.3845 -1.0973  0.7016
  736MOL0     N99276   2.080   7.761   7.832  0.9317 -0.3160  0.0611
  736MOL0     N99277   2.092   7.862   7.911 -0.5526 -0.4395 -0.5979
  736MOL0     C99278   2.325   7.249   8.590  0.9832  0.9281 -0.0682
  736MOL0     C99279   2.315   7.132   8.662  0.0225  0.3090 -0.9504
  736MOL0     C99280   2.324   6.808   8.992  0.4398 -0.4355  0.6272
  736MOL0     C99281   2.256   6.715   8.908 -0.4121  0.1116  0.8550
  736MOL0     C99282   2.212   6.597   8.961  0.2354 -0.1449  0.2692
  736MOL0     C99283   2.221   6.567   9.094 -0.4092  0.0811 -0.3599
  736MOL0     O99284   2.177   6.445   9.139 -1.1514  0.2699 -0.3785
  736MOL0     C99285   2.207   6.412   9.274 -0.0627  0.2226 -0.1202
  736MOL0     C99286   2.166   6.268   9.294 -0.8864 -0.8025 -0.0520
  736MOL0     C99287   2.163   6.226   9.446  0.1444  0.2755  0.6236
  736MOL0     C99288   2.115   6.084   9.472 -0.1305  0.4501  0.2035
  736MOL0     C99289   2.106   6.065   9.614  0.5850 -0.4213 -0.4505
  736MOL0     C99290   2.112   6.058   9.733  0.5229  0.2913 -0.0421
  736MOL0     C99291   2.276   6.668   9.177 -0.0696  0.3117 -0.7202
  736MOL0     C99292   2.331   6.785   9.132  0.1310  0.5110  0.0235
  736MOL0     H99293   2.575   7.150   8.868 -1.7113 -4.1783  0.7912
  736MOL0     H99294   2.607   7.362   8.745  0.4364 -0.3681 -0.1078
  736MOL0     H99295   2.325   7.468   8.409 -3.1126 -3.8848  1.8503
  736MOL0     H99296   2.268   7.497   8.571  1.8587 -3.1342  1.9289
  736MOL0     H99297   2.405   7.715   8.579  0.5534  1.6255 -0.5993
  736MOL0     H99298   2.462   7.679   8.413  0.2663  1.8886 -0.9972
  736MOL0     H99299   2.226   7.671   8.347  0.7135  0.5725 -2.2556
  736MOL0     H99300   2.188   7.722   8.520  0.2676 -2.9769 -0.7360
  736MOL0     H99301   2.314   7.949   8.444 -1.4991  2.4559 -1.2817
  736MOL0     H99302   2.349   7.870   8.286 -1.6164 -3.9850 -0.1138
  736MOL0     H99303   2.112   8.022   8.370  2.3261  2.1261 -0.9096
  736MOL0     H99304   2.202   7.994   8.215 -2.7606 -0.4104 -2.2953
  736MOL0     H99305   2.075   7.769   8.192  3.9430  3.5545 -1.2583
  736MOL0     H99306   2.010   7.797   8.353  0.6086 -1.8848  0.0666
  736MOL0     H99307   1.854   7.849   8.194  3.1808 -3.2384 -1.5485
  736MOL0     H99308   1.900   7.998   8.283  0.6572  1.1630 -0.9386
  736MOL0     H99309   2.034   8.051   8.085  1.0724 -1.4080  1.0472
  736MOL0     H99310   1.860   8.042   8.047  0.2994  1.5948  1.2599
  736MOL0     H99311   1.789   7.756   7.987 -1.3293  1.1368 -3.4517
  736MOL0     H99312   1.812   7.595   7.752 -0.7446 -0.7546  2.3631
  736MOL0     H99313   1.979   7.555   7.703  1.2104  0.7961 -0.0615
  736MOL0     H99314   1.901   7.369   7.812  0.2213 -0.0792 -0.2618
  736MOL0     H99315   1.832   7.460   7.959 -0.3514  2.5007  0.1897
  736MOL0     H99316   2.093   7.508   7.997 -2.6558  0.3379  1.3400
  736MOL0     H99317   2.118   7.381   7.877 -0.6761  0.1362 -0.9702
  736MOL0     H99318   2.152   7.312   8.095  0.4503  2.9529 -0.8629
  736MOL0     H99319   1.995   7.232   8.037 -1.4743  0.5354 -0.8375
  736MOL0     H99320   2.016   7.126   8.237  2.7580  0.1039  0.2041
  736MOL0     H99321   2.104   6.962   8.398  1.6744  2.5492  1.2537
  736MOL0     H99322   2.071   6.981   8.564  0.0436  5.4858  1.1222
  736MOL0     H99323   1.941   6.928   8.446 -0.6258  2.0008 -1.8064
  736MOL0     H99324   2.122   7.201   8.936 -1.4844 -3.0872 -1.0717
  736MOL0     H99325   2.104   7.198   9.194  1.4360  2.7455 -1.2011
  736MOL0     H99326   1.743   7.400   9.321  0.2615 -2.6988 -3.4148
  736MOL0     H99327   1.658   7.259   9.380 -1.9834  4.6121  0.2792
  736MOL0     H99328   1.721   7.264   9.594  3.1261 -0.3174  1.5428
  736MOL0     H99329   1.874   7.334   9.554  1.3090  0.0667 -1.7720
  736MOL0     H99330   1.606   7.490   9.531 -0.6740  2.2667  0.9815
  736MOL0     H99331   1.774   7.559   9.526 -0.1315  0.2842 -2.6599
  736MOL0     H99332   1.667   7.403   9.759 -0.7300 -0.8002 -2.9995
  736MOL0     H99333   1.822   7.494   9.736 -0.2602 -2.0569  1.2327
  736MOL0     H99334   1.532   7.608   9.755  0.5968  1.0201  0.4829
  736MOL0     H99335   1.676   7.707   9.727  2.6565  1.0950  3.3876
  736MOL0     H99336   1.781   7.643   9.928 -0.0109 -1.4401  0.1059
  736MOL0     H99337   1.627   7.727   9.942 -0.0494  0.5458 -1.5147
  736MOL0     H99338   1.669   7.428   9.985  1.7331  0.0531  3.9124
  736MOL0     H99339   1.513   7.523  10.006 -0.3199  1.3627 -2.4871
  736MOL0     H99340   1.628   7.659  10.188 -1.4140  0.5666 -2.5530
  736MOL0     H99341   1.778   7.607  10.148 -0.1129  0.1608  0.6024
  736MOL0     H99342   1.685   7.303   9.152  1.9636  1.3283  3.3182
  736MOL0     H99343   1.703   7.281   8.918  0.8198  0.4800 -1.1678
  736MOL0     H99344   1.886   7.436   8.600  2.3284  1.0388  0.2154
  736MOL0     H99345   1.888   7.502   8.379  2.3007 -0.7763 -0.0919
  736MOL0     H99346   2.260   7.279   8.508  2.2318  3.5327 -0.2238
  736MOL0     H99347   2.231   7.065   8.677  1.9645 -1.9185  0.7358
  736MOL0     H99348   2.263   6.716   8.799  0.7701 -2.4605  0.8342
  736MOL0     H99349   2.166   6.523   8.896  1.2959 -1.5024  1.0104
  736MOL0     H99350   2.312   6.414   9.304 -0.1565  1.2894  0.1918
  736MOL0     H99351   2.162   6.485   9.342  1.3115  0.3657  0.6554
  736MOL0     H99352   2.233   6.202   9.237  0.1749 -0.2642  0.5361
  736MOL0     H99353   2.065   6.256   9.254 -0.4247 -1.8316 -0.9835
  736MOL0     H99354   2.102   6.298   9.502 -0.8624  0.0609 -0.1491
  736MOL0     H99355   2.261   6.232   9.494  0.1941  1.5884  0.3902
  736MOL0     H99356   2.190   6.016   9.430 -1.9791  0.7370 -4.0643
  736MOL0     H99357   2.022   6.056   9.422  0.5825  0.3442 -1.1086
  736MOL0     H99358   2.107   6.062   9.840 -0.0915  0.2810 -0.0701
  736MOL0     H99359   2.278   6.645   9.283 -2.7912 -1.2968 -0.9264
  736MOL0     H99360   2.372   6.836   9.219  3.0937 -4.1893  1.7855
  737MOL0     O99361   4.220   9.336   7.114 -0.7333 -0.0995  0.3001
  737MOL0     C99362   4.128   9.397   7.161  0.5021  0.0797 -0.3257
  737MOL0     O99363   4.121   9.446   7.285 -0.2703 -0.0945 -0.6417
  737MOL0     C99364   4.227   9.447   7.371  0.2264  0.5979  0.0193
  737MOL0     C99365   4.367   9.471   7.346  0.4044  0.5316  0.8715
  737MOL0     C99366   4.464   9.461   7.445  0.1660 -0.4017 -0.0299
  737MOL0     C99367   4.424   9.427   7.578 -0.7386 -0.4232 -1.0210
  737MOL0     O99368   4.512   9.421   7.692 -0.2131 -0.0099 -0.5167
  737MOL0     C99369   4.646   9.470   7.661 -0.4125  0.2055 -0.0335
  737MOL0     C99370   4.750   9.485   7.779  0.0087 -0.4461  0.6154
  737MOL0     C99371   4.805   9.339   7.812  0.2805 -0.6690 -0.5112
  737MOL0     C99372   4.898   9.329   7.931 -1.2253 -0.5474  0.1467
  737MOL0     C99373   5.028   9.395   7.923  0.4349 -0.0887  1.1042
  737MOL0     C99374   5.090   9.391   7.785 -0.5397 -0.4707  0.5357
  737MOL0     C99375   5.218   9.479   7.786 -0.2814  0.8363  0.3621
  737MOL0     C99376   5.296   9.471   7.658  0.4949 -0.5330  0.4070
  737MOL0     N99377   5.357   9.339   7.624  0.2671  0.1121  0.1426
  737MOL0     C99378   5.374   9.222   7.700 -0.0548 -1.4133  0.8609
  737MOL0     C99379   5.418   9.133   7.612 -0.3502  0.5654  0.5944
  737MOL0     C99380   5.454   8.989   7.650 -0.8681 -0.1044  0.8172
  737MOL0     C99381   5.600   8.964   7.594  0.1673  0.1958  0.6178
  737MOL0     C99382   5.653   8.829   7.653 -0.0272 -0.5816 -0.1825
  737MOL0     C99383   5.769   8.767   7.582  0.4818  0.4126  0.0723
  737MOL0     O99384   5.885   8.841   7.611 -0.8963  0.4413  0.2183
  737MOL0     C99385   6.002   8.805   7.545 -0.5315  0.6007 -0.7544
  737MOL0     C99386   6.026   8.687   7.468  0.3168 -0.0385 -0.3422
  737MOL0     C99387   6.140   8.655   7.399 -0.4398 -0.3327  0.4110
  737MOL0     C99388   6.144   8.535   7.306  0.3607  0.5013 -0.9576
  737MOL0     C99389   6.238   8.759   7.394  0.2971  0.0844  0.4497
  737MOL0     C99390   6.365   8.757   7.315  0.3014 -0.4441  0.6305
  737MOL0     O99391   6.392   8.874   7.248  0.0604  0.3363 -0.6340
  737MOL0     C99392   6.463   8.877   7.132 -0.2262 -0.2350 -0.5215
  737MOL0     C99393   6.556   8.986   7.112  0.7453 -0.5865 -0.6306
  737MOL0     C99394   6.627   8.989   6.987  0.2870 -0.5317 -0.8057
  737MOL0     C99395   6.605   8.886   6.893 -1.2308 -0.0314 -0.5017
  737MOL0     O99396   6.664   8.879   6.770  0.5112 -0.0780  0.2830
  737MOL0     C99397   6.782   8.966   6.745  0.6622  0.0169 -1.0273
  737MOL0     C99398   6.795   8.969   6.587 -0.0494  0.9447 -0.3129
  737MOL0     C99399   6.812   8.821   6.538 -0.7407  0.2239  0.5832
  737MOL0     C99400   6.929   8.742   6.590 -0.9662  0.3018  0.3385
  737MOL0     C99401   7.060   8.782   6.520  0.2683  0.4994 -0.2800
  737MOL0     C99402   7.082   8.728   6.371  0.0391  0.8822  0.1877
  737MOL0     C99403   7.220   8.759   6.319  0.1991 -0.2617  0.1527
  737MOL0     C99404   7.219   8.711   6.175  0.3779 -0.2264 -0.0166
  737MOL0    Cl99405   7.390   8.760   6.112  0.7146 -0.1258 -0.3847
  737MOL0     C99406   6.524   8.776   6.918  0.3230 -1.2172  0.7631
  737MOL0     C99407   6.439   8.779   7.031 -0.8699 -0.5145  0.3229
  737MOL0     O99408   6.416   8.653   7.288  0.3889 -0.4023 -0.6167
  737MOL0     C99409   6.214   8.890   7.449  0.2238  0.1274  0.6928
  737MOL0     C99410   6.094   8.911   7.523  0.6764  0.5031 -0.3309
  737MOL0     N99411   5.427   9.181   7.482  0.2904 -0.5416  0.5517
  737MOL0     N99412   5.398   9.311   7.490 -0.3980 -0.4061 -0.4474
  737MOL0     C99413   4.287   9.421   7.604  0.5943 -1.0763  0.1363
  737MOL0     C99414   4.187   9.421   7.507  0.2758  0.6389 -0.4936
  737MOL0     C99415   4.024   9.457   7.073  0.2340  0.5268 -0.4181
  737MOL0     C99416   4.025   9.428   6.937  0.3255  0.2702 -0.5717
  737MOL0     C99417   3.917   9.468   6.858  0.2018 -1.1419 -0.3260
  737MOL0     C99418   3.815   9.562   6.904 -0.6194  0.1723  0.9111
  737MOL0     O99419   3.716   9.604   6.814  0.1680  0.7804 -0.0414
  737MOL0     C99420   3.597   9.665   6.861 -0.1758 -0.1418 -1.2708
  737MOL0     C99421   3.472   9.636   6.770 -0.9414 -0.1839  0.2588
  737MOL0     C99422   3.326   9.686   6.813  0.1558 -0.2318 -0.2774
  737MOL0     C99423   3.268   9.620   6.938 -0.1272  0.3558 -0.7287
  737MOL0     C99424   3.121   9.613   6.943 -0.3508 -0.3296 -0.4863
  737MOL0     C99425   3.007   9.594   6.953  0.5145 -0.3668  0.9720
  737MOL0     C99426   3.818   9.602   7.037  0.3136 -0.3781 -0.1782
  737MOL0     C99427   3.921   9.540   7.123 -0.4891 -0.2406 -0.2929
  737MOL0     H99428   4.389   9.491   7.242 -2.0004 -1.6619 -0.1533
  737MOL0     H99429   4.561   9.489   7.407  0.5349 -3.6398 -1.8555
  737MOL0     H99430   4.695   9.404   7.589  0.5093  1.1648 -0.3061
  737MOL0     H99431   4.642   9.566   7.609 -0.5603 -0.9796 -2.3329
  737MOL0     H99432   4.824   9.563   7.758  1.6909 -1.4440  2.3950
  737MOL0     H99433   4.687   9.507   7.866 -2.4705 -0.3300 -1.1077
  737MOL0     H99434   4.724   9.268   7.831  1.0700 -0.9263  2.5779
  737MOL0     H99435   4.843   9.292   7.722 -1.0042 -1.6920 -0.5429
  737MOL0     H99436   4.854   9.382   8.016  1.3161 -1.3294  2.0798
  737MOL0     H99437   4.901   9.222   7.949  3.0292 -0.8512 -1.0917
  737MOL0     H99438   5.006   9.500   7.945  0.6712  0.6085 -1.5618
  737MOL0     H99439   5.099   9.356   7.996  0.1959  2.7236  2.9859
  737MOL0     H99440   5.105   9.284   7.766 -1.5627 -0.2939 -1.5796
  737MOL0     H99441   5.030   9.430   7.702  0.8330  0.1812 -0.1860
  737MOL0     H99442   5.203   9.585   7.805  1.2480  1.0961  0.2470
  737MOL0     H99443   5.284   9.457   7.871  1.4040  1.7111 -0.6693
  737MOL0     H99444   5.379   9.542   7.663  0.9146 -1.0360  0.6592
  737MOL0     H99445   5.234   9.498   7.571 -0.5724 -1.6793  0.7816
  737MOL0     H99446   5.341   9.210   7.803  0.1338 -1.5956  0.9003
  737MOL0     H99447   5.461   8.983   7.759 -2.2894  1.2252  1.0125
  737MOL0     H99448   5.395   8.911   7.600  1.1281 -2.6553  2.1940
  737MOL0     H99449   5.665   9.045   7.631  0.9591 -0.2239  0.1818
  737MOL0     H99450   5.602   8.976   7.486  0.1365  1.1471  0.7163
  737MOL0     H99451   5.574   8.755   7.644  1.7867 -2.3830 -2.4149
  737MOL0     H99452   5.675   8.828   7.761  0.6119 -0.0951 -0.3015
  737MOL0     H99453   5.733   8.761   7.479  0.1750  3.1952 -0.0521
  737MOL0     H99454   5.784   8.663   7.615  0.7939 -0.0716 -1.5080
  737MOL0     H99455   5.951   8.609   7.466 -0.3269  0.5836 -1.8296
  737MOL0     H99456   6.186   8.442   7.346  3.9975  2.7751  1.0348
  737MOL0     H99457   6.050   8.505   7.258 -1.7720  3.8198  0.8257
  737MOL0     H99458   6.212   8.559   7.223  2.7410 -2.4349 -0.0488
  737MOL0     H99459   6.573   9.066   7.183  0.6356 -2.3846  1.5504
  737MOL0     H99460   6.710   9.059   6.983  2.0541 -2.2055  2.2323
  737MOL0     H99461   6.766   9.071   6.772 -0.2051 -0.1494 -0.8496
  737MOL0     H99462   6.864   8.929   6.807  1.3534  0.8512 -1.4213
  737MOL0     H99463   6.706   9.022   6.551 -0.0612  0.7186 -0.6279
  737MOL0     H99464   6.884   9.019   6.549 -0.7255  0.5057 -2.6585
  737MOL0     H99465   6.820   8.824   6.429  2.4344  0.6289  0.7273
  737MOL0     H99466   6.711   8.781   6.553 -1.4761  0.9418 -1.9871
  737MOL0     H99467   6.938   8.751   6.699 -0.0807  2.4397  0.1323
  737MOL0     H99468   6.915   8.637   6.564 -4.5474  0.4473  1.1615
  737MOL0     H99469   7.146   8.751   6.581  0.8941  1.7934 -0.4641
  737MOL0     H99470   7.070   8.891   6.522  3.0145  0.3161 -0.0920
  737MOL0     H99471   7.060   8.621   6.366 -3.7773  1.5410 -0.0001
  737MOL0     H99472   7.013   8.783   6.307 -1.2667  4.8650  4.4385
  737MOL0     H99473   7.294   8.709   6.383 -0.4145 -0.4277  0.7486
  737MOL0     H99474   7.248   8.864   6.330  0.4298 -0.3614  0.5473
  737MOL0     H99475   7.142   8.749   6.108  0.5823  1.8845  0.8425
  737MOL0     H99476   7.207   8.604   6.190  1.4103 -0.4510 -0.6532
  737MOL0     H99477   6.528   8.698   6.842 -4.4186  1.0078 -2.2510
  737MOL0     H99478   6.376   8.696   7.061  0.9256 -1.6551  1.1089
  737MOL0     H99479   6.286   8.970   7.441  0.8930 -0.6170 -1.0210
  737MOL0     H99480   6.085   9.009   7.567  0.4923  0.2319  0.2455
  737MOL0     H99481   4.254   9.396   7.705 -0.2001 -0.6664 -0.0142
  737MOL0     H99482   4.082   9.408   7.530  0.6711 -0.2174  0.9690
  737MOL0     H99483   4.094   9.356   6.894 -0.5826 -0.3921 -0.9438
  737MOL0     H99484   3.915   9.445   6.752  1.8296  3.9273 -1.7848
  737MOL0     H99485   3.572   9.624   6.959  3.3304 -0.4788 -0.3573
  737MOL0     H99486   3.618   9.771   6.880 -1.7723  0.1560 -1.0968
  737MOL0     H99487   3.453   9.529   6.758 -1.9865 -0.0432  0.5569
  737MOL0     H99488   3.490   9.665   6.666 -2.7326  0.0665 -0.0051
  737MOL0     H99489   3.267   9.654   6.727  0.2568  0.5358 -0.6338
  737MOL0     H99490   3.316   9.795   6.817 -1.8327 -0.4106  1.2991
  737MOL0     H99491   3.304   9.671   7.028 -2.4224 -1.2631  1.2367
  737MOL0     H99492   3.294   9.514   6.944 -1.6770 -0.0638 -0.8536
  737MOL0     H99493   2.900   9.583   6.958  0.5650 -0.8097  1.1716
  737MOL0     H99494   3.738   9.666   7.072  1.3897  0.4195  0.9185
  737MOL0     H99495   3.920   9.567   7.228  3.4257  0.9003 -0.3804
  738MOL0     O99496   7.005   5.361   2.367 -0.2539 -0.0237  0.0321
  738MOL0     C99497   6.900   5.291   2.375  0.3903  0.2842  0.2609
  738MOL0     O99498   6.770   5.340   2.395  0.5069  0.2759  0.6757
  738MOL0     C99499   6.766   5.478   2.397  0.3360 -0.4817  0.4697
  738MOL0     C99500   6.831   5.571   2.482 -0.9267 -0.3354 -0.8160
  738MOL0     C99501   6.833   5.716   2.457  0.6068  0.7245  0.0151
  738MOL0     C99502   6.756   5.763   2.355 -0.7311 -0.5594  0.7883
  738MOL0     O99503   6.752   5.899   2.341  1.0168 -0.6902 -0.5374
  738MOL0     C99504   6.638   5.952   2.272  0.1946  0.8301  0.7655
  738MOL0     C99505   6.634   6.097   2.274  0.3021 -0.8247 -0.1283
  738MOL0     C99506   6.508   6.160   2.214 -0.6714  0.1270 -0.0082
  738MOL0     C99507   6.534   6.310   2.226 -0.0616  0.7780  0.1835
  738MOL0     C99508   6.409   6.394   2.173 -0.7201 -0.4766  0.0418
  738MOL0     C99509   6.392   6.368   2.021 -0.0261  0.4432  0.1737
  738MOL0     C99510   6.278   6.467   1.979 -0.2917 -0.8774  0.0871
  738MOL0     C99511   6.239   6.476   1.834  1.6843  0.8444  0.2764
  738MOL0     N99512   6.364   6.512   1.756  0.5558  0.3520 -0.8905
  738MOL0     C99513   6.446   6.619   1.790 -0.0658 -0.9545  0.3028
  738MOL0     C99514   6.547   6.624   1.695  1.5169  1.1292 -0.5571
  738MOL0     C99515   6.654   6.718   1.679 -0.0042 -0.7802 -0.7210
  738MOL0     C99516   6.749   6.741   1.799  0.6004 -1.1536 -0.8293
  738MOL0     C99517   6.815   6.886   1.780  0.1936 -0.1901 -0.0316
  738MOL0     C99518   6.912   6.893   1.670  0.4060  0.7536  0.3792
  738MOL0     O99519   7.042   6.918   1.706 -0.4726  0.1127 -0.1320
  738MOL0     C99520   7.143   6.919   1.617  0.2519 -0.1956  0.2999
  738MOL0     C99521   7.264   6.877   1.664 -0.5833  0.6291 -0.3660
  738MOL0     C99522   7.374   6.891   1.578  0.5413 -0.8502  0.5588
  738MOL0     C99523   7.512   6.873   1.637 -0.8345 -0.2631  0.1323
  738MOL0     C99524   7.356   6.910   1.435  0.6953 -0.3276 -0.5880
  738MOL0     C99525   7.456   6.900   1.335 -0.9894  0.1153  0.3791
  738MOL0     O99526   7.465   6.992   1.230  0.0821  0.2858 -0.1246
  738MOL0     C99527   7.573   6.983   1.132  0.5422 -0.6280  0.3939
  738MOL0     C99528   7.622   6.857   1.075  0.5544  0.4080  0.1015
  738MOL0     C99529   7.719   6.852   0.977 -0.5691  0.4672  0.6237
  738MOL0     C99530   7.796   6.976   0.955 -0.1165 -0.5088 -0.3585
  738MOL0     O99531   7.913   6.979   0.878  0.2911 -0.3014  0.2012
  738MOL0     C99532   7.989   6.859   0.859 -0.5593  1.0600 -0.7449
  738MOL0     C99533   7.975   6.823   0.711  0.3324  1.3714  0.4843
  738MOL0     C99534   8.100   6.749   0.670  1.0064 -0.8557  0.9018
  738MOL0     C99535   8.080   6.695   0.519 -0.0000 -0.2905 -0.1344
  738MOL0     C99536   7.988   6.575   0.488 -0.3708  0.3304 -0.8825
  738MOL0     C99537   8.058   6.439   0.509  0.1185  0.1749  0.3623
  738MOL0     C99538   8.171   6.399   0.411  0.3227 -0.0240 -1.1439
  738MOL0     C99539   8.267   6.290   0.463 -0.3910 -0.7297 -0.6983
  738MOL0    Cl99540   8.409   6.284   0.347 -0.0354 -0.5489  0.0748
  738MOL0     C99541   7.752   7.093   1.018  0.3161  0.3312  0.5820
  738MOL0     C99542   7.639   7.107   1.098 -0.2261  1.0127  0.6170
  738MOL0     O99543   7.543   6.815   1.355  0.4711 -0.2855  0.6011
  738MOL0     C99544   7.224   6.938   1.390 -1.0847 -0.6114  0.4296
  738MOL0     C99545   7.122   6.946   1.478  0.6003  0.2937 -0.0473
  738MOL0     N99546   6.523   6.518   1.602 -0.1666 -0.3978 -0.2878
  738MOL0     N99547   6.414   6.463   1.638  0.6706 -0.5045  0.3812
  738MOL0     C99548   6.687   5.670   2.274 -0.7855 -0.3600 -0.5729
  738MOL0     C99549   6.688   5.530   2.294 -0.7600 -0.3827  0.1989
  738MOL0     C99550   6.909   5.143   2.335  0.4469 -0.8259 -0.2381
  738MOL0     C99551   6.790   5.068   2.321 -0.1936 -0.0664  0.8449
  738MOL0     C99552   6.817   4.937   2.274  0.0030  0.7754 -0.0285
  738MOL0     C99553   6.933   4.865   2.261  0.7955 -0.8165  1.1055
  738MOL0     O99554   6.937   4.737   2.226  0.2022  0.3933 -0.4309
  738MOL0     C99555   7.036   4.665   2.288 -0.1362 -1.1958 -0.1250
  738MOL0     C99556   6.991   4.611   2.421 -0.3967 -0.9876  0.5637
  738MOL0     C99557   6.865   4.517   2.402  1.2203  0.6099  0.1623
  738MOL0     C99558   6.868   4.387   2.488 -0.4004 -0.1069 -1.0269
  738MOL0     C99559   6.977   4.305   2.433  0.5316 -0.2619 -0.2648
  738MOL0     C99560   7.062   4.233   2.386  0.9933  0.1704  0.0262
  738MOL0     C99561   7.044   4.948   2.271 -0.1496 -0.1063 -0.5706
  738MOL0     C99562   7.035   5.087   2.314 -0.7305  0.8906  0.6297
  738MOL0     H99563   6.884   5.537   2.571 -0.5743 -0.9563 -1.2580
  738MOL0     H99564   6.894   5.778   2.521 -0.2453  0.4955  1.0700
  738MOL0     H99565   6.651   5.939   2.164  0.5899 -0.8717  0.9879
  738MOL0     H99566   6.541   5.914   2.307 -0.0458  2.3814  1.8457
  738MOL0     H99567   6.633   6.131   2.378 -1.3713  1.9881 -0.9771
  738MOL0     H99568   6.732   6.136   2.246  0.0861  0.9694  1.4151
  738MOL0     H99569   6.473   6.124   2.117 -2.5991 -1.0783  1.0537
  738MOL0     H99570   6.418   6.144   2.275 -2.0855  0.4503 -1.9160
  738MOL0     H99571   6.563   6.337   2.328  0.5693  1.8808 -0.2684
  738MOL0     H99572   6.623   6.330   2.165 -0.7642  1.0920 -0.7651
  738MOL0     H99573   6.319   6.372   2.231  0.4579 -0.0440  2.1395
  738MOL0     H99574   6.423   6.501   2.192 -4.6095  0.2083 -0.2149
  738MOL0     H99575   6.484   6.391   1.966 -1.8411  2.8648 -2.0848
  738MOL0     H99576   6.356   6.268   1.997  1.2198  0.4814 -2.1853
  738MOL0     H99577   6.179   6.446   2.021 -0.5843  1.4431  0.6803
  738MOL0     H99578   6.308   6.565   2.017 -1.9229 -0.7389  1.1084
  738MOL0     H99579   6.163   6.552   1.818 -0.3974 -1.2929 -0.6030
  738MOL0     H99580   6.203   6.376   1.808  0.7557  0.7636  1.7810
  738MOL0     H99581   6.432   6.691   1.869 -0.2915 -2.5601  1.7720
  738MOL0     H99582   6.706   6.687   1.587 -1.5766  0.9579 -2.2876
  738MOL0     H99583   6.602   6.811   1.657  0.4156  0.3296  2.4978
  738MOL0     H99584   6.829   6.671   1.825  2.1624  0.5854 -0.7809
  738MOL0     H99585   6.687   6.750   1.889  4.6528  1.1870  2.0650
  738MOL0     H99586   6.869   6.923   1.869  1.3775  4.5699 -2.3697
  738MOL0     H99587   6.733   6.956   1.763  0.9069  0.9513  0.9997
  738MOL0     H99588   6.875   6.968   1.600  0.8793  0.5672 -0.0741
  738MOL0     H99589   6.923   6.792   1.630  2.2598 -0.6363  4.0386
  738MOL0     H99590   7.279   6.841   1.765 -2.6394 -0.5919 -0.4317
  738MOL0     H99591   7.517   6.944   1.720 -0.2615  0.9311 -0.8860
  738MOL0     H99592   7.528   6.771   1.675  0.2499  0.1149  0.7310
  738MOL0     H99593   7.586   6.902   1.562 -1.3933 -1.4396 -0.9002
  738MOL0     H99594   7.576   6.767   1.115  0.5525  0.7046  0.7863
  738MOL0     H99595   7.751   6.762   0.926  1.0744  1.4022 -0.1034
  738MOL0     H99596   8.091   6.878   0.893 -0.1625  0.2655 -1.4541
  738MOL0     H99597   7.956   6.779   0.925  1.4288  1.1446  0.4330
  738MOL0     H99598   7.876   6.778   0.701 -0.9562  4.1895 -0.6456
  738MOL0     H99599   7.987   6.919   0.659  0.1811  0.6857 -0.8323
  738MOL0     H99600   8.133   6.669   0.737  0.8793 -1.2960  0.4481
  738MOL0     H99601   8.183   6.819   0.658 -0.1012  0.3236 -0.1225
  738MOL0     H99602   8.036   6.779   0.465  1.2637  2.2058  2.4503
  738MOL0     H99603   8.181   6.679   0.481 -0.4362 -1.2027 -0.9804
  738MOL0     H99604   7.950   6.579   0.385 -0.8250  2.2626 -0.6891
  738MOL0     H99605   7.897   6.592   0.546 -1.6043  0.6150 -2.7833
  738MOL0     H99606   8.100   6.437   0.610  2.1217  2.5199 -0.3349
  738MOL0     H99607   7.979   6.363   0.502 -0.2594  0.6680 -1.1610
  738MOL0     H99608   8.235   6.487   0.397 -1.0831  1.7428  2.3053
  738MOL0     H99609   8.121   6.365   0.320  0.7227  0.7904 -1.6800
  738MOL0     H99610   8.223   6.189   0.463  0.0982 -0.9470 -0.1327
  738MOL0     H99611   8.290   6.314   0.567 -1.4196  1.3306 -0.9013
  738MOL0     H99612   7.816   7.177   0.990  1.2722 -0.5814 -0.0652
  738MOL0     H99613   7.606   7.202   1.138 -0.0732  0.8516  1.1412
  738MOL0     H99614   7.211   6.952   1.283  2.0767 -0.3610 -0.0306
  738MOL0     H99615   7.019   6.972   1.454  0.6474  0.0687 -0.4931
  738MOL0     H99616   6.619   5.709   2.200  2.7342  3.1915 -2.3149
  738MOL0     H99617   6.632   5.466   2.227 -1.9181 -1.1040  1.7765
  738MOL0     H99618   6.691   5.102   2.349  0.4151  0.5847  2.2957
  738MOL0     H99619   6.731   4.871   2.266 -1.5949  2.8967 -1.5991
  738MOL0     H99620   7.038   4.565   2.243  1.0369 -2.5131  2.5571
  738MOL0     H99621   7.139   4.702   2.296 -0.9841  1.1133  1.1186
  738MOL0     H99622   6.968   4.698   2.483  0.3259  0.0621 -0.5767
  738MOL0     H99623   7.079   4.566   2.467 -0.1839 -0.2231  0.9249
  738MOL0     H99624   6.847   4.483   2.299 -1.5029 -1.2782  1.1331
  738MOL0     H99625   6.777   4.579   2.422  1.5252  1.5476 -1.2484
  738MOL0     H99626   6.775   4.331   2.482  1.4526 -3.3895 -1.6547
  738MOL0     H99627   6.883   4.411   2.594  0.1029  1.3338 -1.3972
  738MOL0     H99628   7.134   4.164   2.348  0.2561 -0.4763 -0.2203
  738MOL0     H99629   7.144   4.913   2.246  0.4379  1.4940 -0.5760
  738MOL0     H99630   7.124   5.145   2.333  0.8782 -0.9970 -0.6522
  739MOL0     O99631   9.170   7.059   6.918 -0.0557 -0.0984 -1.0446
  739MOL0     C99632   9.234   7.166   6.935 -0.0431  0.3464  0.5514
  739MOL0     O99633   9.235   7.274   6.851 -0.4260  0.1805 -0.7406
  739MOL0     C99634   9.148   7.291   6.743  0.0514  0.2169 -0.3087
  739MOL0     C99635   9.187   7.394   6.663  0.5226  0.9673 -0.3912
  739MOL0     C99636   9.128   7.427   6.544  1.0594  0.6865  0.5503
  739MOL0     C99637   9.014   7.354   6.504 -0.1906  0.1738  0.3952
  739MOL0     O99638   8.956   7.399   6.390 -0.9312 -0.1546  0.9320
  739MOL0     C99639   8.890   7.290   6.303 -1.4682 -0.3358 -0.6511
  739MOL0     C99640   8.821   7.364   6.184 -0.3520  0.3918 -0.6496
  739MOL0     C99641   8.926   7.437   6.103  0.8867  0.5148  0.8444
  739MOL0     C99642   8.886   7.456   5.960  0.2437 -1.0731  0.0434
  739MOL0     C99643   8.768   7.547   5.947  0.6440  0.4196 -0.7709
  739MOL0     C99644   8.732   7.600   5.806  0.5815 -0.3419  0.1060
  739MOL0     C99645   8.596   7.672   5.806 -0.7007 -0.0160  0.1398
  739MOL0     C99646   8.556   7.708   5.674  0.7969 -0.5632  1.0290
  739MOL0     N99647   8.581   7.852   5.646  0.4529  0.2091  0.2382
  739MOL0     C99648   8.700   7.911   5.668  0.3757 -0.8347 -0.3156
  739MOL0     C99649   8.673   8.038   5.614 -0.1410  0.4899 -0.2050
  739MOL0     C99650   8.780   8.144   5.617 -0.9845 -0.0253 -1.0959
  739MOL0     C99651   8.726   8.292   5.600  0.4527 -0.9807  0.8492
  739MOL0     C99652   8.818   8.398   5.669 -0.4976  0.2351  1.1572
  739MOL0     C99653   8.948   8.425   5.593  0.6663 -0.2165 -0.8151
  739MOL0     O99654   9.024   8.515   5.672 -0.3732 -0.3924 -0.0725
  739MOL0     C99655   9.146   8.543   5.618  0.7259 -0.6883  0.0955
  739MOL0     C99656   9.202   8.500   5.499 -0.1036 -0.5269  0.6014
  739MOL0     C99657   9.327   8.549   5.452  0.2895 -0.4380 -0.7199
  739MOL0     C99658   9.396   8.485   5.327 -0.5855  0.0786  1.1535
  739MOL0     C99659   9.397   8.647   5.536  0.8473  0.0407  0.6329
  739MOL0     C99660   9.527   8.713   5.499  0.4331  0.5921  0.8006
  739MOL0     O99661   9.598   8.756   5.600 -0.3588 -0.1280 -1.3100
  739MOL0     C99662   9.705   8.843   5.588 -0.7747 -0.0337  1.4289
  739MOL0     C99663   9.804   8.820   5.493  0.1980 -0.1148  0.3970
  739MOL0     C99664   9.922   8.904   5.498 -1.3901  0.3086 -0.2212
  739MOL0     C99665   9.920   9.016   5.586 -0.0561  0.2479  0.3044
  739MOL0     O99666  10.029   9.098   5.606 -0.0682  0.3973 -0.0082
  739MOL0     C99667  10.139   9.120   5.508 -0.0297  0.0651 -0.8592
  739MOL0     C99668  10.247   9.223   5.553  0.4885 -0.1491  0.3846
  739MOL0     C99669  10.271   9.341   5.454 -0.1185  0.7473 -0.9489
  739MOL0     C99670  10.156   9.432   5.435  0.2768  0.5932 -0.5060
  739MOL0     C99671  10.174   9.528   5.322 -0.2689 -0.1953 -0.9967
  739MOL0     C99672  10.052   9.611   5.300 -0.3093 -0.6257 -0.4541
  739MOL0     C99673  10.041   9.667   5.155 -0.3757 -0.9479 -0.4676
  739MOL0     C99674  10.166   9.753   5.117 -0.3014 -0.2888  0.1312
  739MOL0    Cl99675  10.154   9.925   5.173 -0.3532  0.0318 -0.8517
  739MOL0     C99676   9.810   9.044   5.663  0.0016 -1.0588 -0.1754
  739MOL0     C99677   9.707   8.958   5.663 -0.8677  0.4067 -0.2386
  739MOL0     O99678   9.551   8.735   5.382  0.2037  0.1899 -0.5560
  739MOL0     C99679   9.335   8.688   5.656 -0.7190 -0.1177  0.5539
  739MOL0     C99680   9.211   8.645   5.692  0.3356  1.3859 -0.6704
  739MOL0     N99681   8.546   8.049   5.578  0.0446  0.3185 -0.0056
  739MOL0     N99682   8.488   7.932   5.597 -0.6549 -0.3749  0.5242
  739MOL0     C99683   8.979   7.241   6.578  0.1274 -0.8958  1.1273
  739MOL0     C99684   9.046   7.216   6.696  0.4791 -0.3582 -0.1216
  739MOL0     C99685   9.317   7.187   7.058 -0.6826 -0.2700  0.5791
  739MOL0     C99686   9.365   7.324   7.081 -1.0616  0.2763 -0.8480
  739MOL0     C99687   9.422   7.345   7.209 -1.4330 -0.0247 -0.3825
  739MOL0     C99688   9.460   7.234   7.295  0.3922  0.0496  0.2865
  739MOL0     O99689   9.536   7.257   7.408  0.4817  0.3741  0.0404
  739MOL0     C99690   9.459   7.296   7.529  0.4557  0.0013  0.6651
  739MOL0     C99691   9.543   7.370   7.625 -0.0608 -0.2689  0.3038
  739MOL0     C99692   9.631   7.273   7.704 -0.1275 -1.6129 -0.4268
  739MOL0     C99693   9.731   7.359   7.782  0.6671  0.2304 -0.8360
  739MOL0     C99694   9.649   7.409   7.896  0.2709 -0.0010 -0.3257
  739MOL0     C99695   9.589   7.442   7.998  0.0112  0.3138 -0.2817
  739MOL0     C99696   9.419   7.101   7.270  0.0024  0.0452  0.1396
  739MOL0     C99697   9.347   7.076   7.148  0.0935 -0.7579 -0.3447
  739MOL0     H99698   9.274   7.452   6.693  2.1278  0.4740 -3.6761
  739MOL0     H99699   9.164   7.512   6.487 -0.1400  1.0170  0.2648
  739MOL0     H99700   8.963   7.218   6.265  0.3897  0.1251  1.8063
  739MOL0     H99701   8.816   7.233   6.360  2.1715 -3.6052  1.2437
  739MOL0     H99702   8.763   7.296   6.121  0.6493 -1.0914 -0.0329
  739MOL0     H99703   8.745   7.429   6.229 -1.1528 -1.0624  0.1865
  739MOL0     H99704   8.950   7.531   6.153 -0.7006  0.3120  2.0671
  739MOL0     H99705   9.018   7.378   6.096  2.2882  2.5957  0.8287
  739MOL0     H99706   8.969   7.510   5.914  0.1492 -0.0184  1.0410
  739MOL0     H99707   8.885   7.358   5.912 -1.5214 -1.3589  0.5770
  739MOL0     H99708   8.683   7.486   5.978  0.6624 -0.3901 -2.2273
  739MOL0     H99709   8.789   7.634   6.010 -2.0658  1.5086 -1.2339
  739MOL0     H99710   8.808   7.670   5.769  0.5693 -2.1121 -3.8083
  739MOL0     H99711   8.722   7.524   5.728 -2.2488  1.3249 -1.2834
  739MOL0     H99712   8.519   7.611   5.852 -1.6632  1.6198  0.7908
  739MOL0     H99713   8.604   7.761   5.871 -0.5070 -1.2877  1.9314
  739MOL0     H99714   8.450   7.682   5.663  1.0468 -1.2489  0.1455
  739MOL0     H99715   8.603   7.651   5.593 -1.6101 -1.2257 -0.0106
  739MOL0     H99716   8.790   7.890   5.724 -0.5141  1.5070  2.1970
  739MOL0     H99717   8.852   8.136   5.698  1.5118  5.1360 -2.3344
  739MOL0     H99718   8.838   8.123   5.526  0.1558 -1.3555 -0.0950
  739MOL0     H99719   8.628   8.309   5.648  0.5864 -1.1222  1.1794
  739MOL0     H99720   8.714   8.309   5.493 -1.5737  0.4392  1.2347
  739MOL0     H99721   8.821   8.376   5.776 -1.1524 -1.7409  0.8137
  739MOL0     H99722   8.777   8.499   5.659  1.1593  0.7024 -1.8385
  739MOL0     H99723   8.933   8.463   5.491 -0.5821  0.2056 -0.4897
  739MOL0     H99724   9.000   8.329   5.589  2.8789  0.8906 -0.4515
  739MOL0     H99725   9.154   8.414   5.453 -3.3493  0.8725  1.0907
  739MOL0     H99726   9.329   8.406   5.293 -1.7092  1.4868 -0.0523
  739MOL0     H99727   9.413   8.557   5.246 -0.1886 -2.0451 -0.7470
  739MOL0     H99728   9.494   8.446   5.355 -0.6397 -1.3493 -0.5525
  739MOL0     H99729   9.791   8.750   5.412 -1.9614 -1.9329  2.1681
  739MOL0     H99730  10.011   8.868   5.447  0.4755 -1.6432  3.9744
  739MOL0     H99731  10.179   9.021   5.486 -0.7043 -0.9780  2.0935
  739MOL0     H99732  10.105   9.152   5.409  0.6668 -0.1833 -1.1830
  739MOL0     H99733  10.214   9.279   5.641 -0.9716 -1.1736  0.5191
  739MOL0     H99734  10.338   9.172   5.586  1.8876  1.7109 -0.4141
  739MOL0     H99735  10.305   9.297   5.359  4.6116 -0.5258  1.0764
  739MOL0     H99736  10.358   9.401   5.482  0.8858 -0.7697 -0.7038
  739MOL0     H99737  10.058   9.382   5.437 -0.2527  1.6169  0.5381
  739MOL0     H99738  10.143   9.497   5.522  3.2723  1.2631 -0.4687
  739MOL0     H99739  10.194   9.478   5.227 -1.3299 -2.4079 -0.1218
  739MOL0     H99740  10.258   9.592   5.351  0.5851 -2.1886  1.2757
  739MOL0     H99741   9.961   9.551   5.312 -0.7740  0.3255  1.0882
  739MOL0     H99742  10.042   9.683   5.383  2.1325 -1.3049  0.5083
  739MOL0     H99743   9.962   9.743   5.155  1.5825  1.3372  2.8892
  739MOL0     H99744  10.019   9.585   5.087  0.7474 -1.2985 -0.4163
  739MOL0     H99745  10.167   9.765   5.008 -2.6636  0.8122  0.1557
  739MOL0     H99746  10.263   9.714   5.150  0.4292  1.9478  0.8206
  739MOL0     H99747   9.801   9.131   5.727 -1.1147 -1.7827  0.7042
  739MOL0     H99748   9.617   8.977   5.721 -0.1711  1.0265  0.6655
  739MOL0     H99749   9.385   8.767   5.710 -3.0020  0.1808  2.4017
  739MOL0     H99750   9.174   8.670   5.791  0.0031 -1.3171 -0.0356
  739MOL0     H99751   8.899   7.177   6.542 -0.2405  0.4253 -0.5492
  739MOL0     H99752   9.010   7.129   6.751 -0.3418 -1.8988 -2.9209
  739MOL0     H99753   9.354   7.407   7.012  0.2482  3.1606  2.1613
  739MOL0     H99754   9.469   7.442   7.224 -3.7483  1.2548 -0.8309
  739MOL0     H99755   9.370   7.353   7.500  0.5872  0.0969  0.4492
  739MOL0     H99756   9.420   7.210   7.585 -2.4570 -1.1183 -2.6661
  739MOL0     H99757   9.473   7.412   7.697 -0.3602 -2.5669  1.4439
  739MOL0     H99758   9.598   7.447   7.569 -0.3700  2.1049  3.0281
  739MOL0     H99759   9.693   7.221   7.631 -1.3958 -1.1505 -1.8747
  739MOL0     H99760   9.571   7.195   7.752  0.2083 -1.8100 -0.3206
  739MOL0     H99761   9.779   7.436   7.721  6.5581  0.2066  2.9434
  739MOL0     H99762   9.817   7.297   7.809 -0.7118 -1.2979  0.2517
  739MOL0     H99763   9.523   7.443   8.082  2.2975 -0.0545  1.6305
  739MOL0     H99764   9.466   7.031   7.339  2.4812  0.4606 -1.0089
  739MOL0     H99765   9.313   6.975   7.128  0.6382 -0.9202 -0.4488
  740MOL0     O99766   9.549   8.029   6.169 -0.2473 -0.3873 -0.7440
  740MOL0     C99767   9.442   8.079   6.206 -0.4913 -0.2367 -0.0041
  740MOL0     O99768   9.319   8.023   6.197 -0.0476 -0.0602  0.1705
  740MOL0     C99769   9.300   7.929   6.106 -0.3042  1.1254  0.7807
  740MOL0     C99770   9.208   7.829   6.129  0.0699  0.7180 -0.4475
  740MOL0     C99771   9.190   7.716   6.053  0.1248  0.0276  0.0039
  740MOL0     C99772   9.260   7.698   5.931  1.0148  0.5462  0.8449
  740MOL0     O99773   9.243   7.588   5.852  0.0600 -0.1108 -0.1295
  740MOL0     C99774   9.230   7.604   5.707 -0.1563  0.7440  0.6401
  740MOL0     C99775   9.193   7.466   5.653  0.3584 -1.4094  0.3629
  740MOL0     C99776   9.206   7.478   5.498 -0.4842  0.7039 -0.1195
  740MOL0     C99777   9.205   7.344   5.422 -0.1198 -0.2206  0.1460
  740MOL0     C99778   9.189   7.365   5.271 -0.1315  0.4137 -0.7631
  740MOL0     C99779   9.130   7.236   5.207  0.0400  0.1237  0.4902
  740MOL0     C99780   9.182   7.230   5.059  1.1771  0.9433 -0.4984
  740MOL0     C99781   9.097   7.327   4.982 -0.4019 -0.4235  0.0046
  740MOL0     N99782   9.130   7.332   4.840 -0.0699  0.5961 -0.1760
  740MOL0     C99783   9.069   7.418   4.753 -0.4218  0.5570  0.2989
  740MOL0     C99784   9.135   7.393   4.636  0.0817 -0.4355 -0.7635
  740MOL0     C99785   9.105   7.471   4.516 -0.1528 -0.0762  0.2442
  740MOL0     C99786   8.974   7.421   4.439 -0.2401  0.3224 -0.1785
  740MOL0     C99787   8.847   7.508   4.466  0.0168 -0.4109 -0.9248
  740MOL0     C99788   8.747   7.485   4.367 -0.1458 -0.8837 -0.2857
  740MOL0     O99789   8.684   7.361   4.405 -0.0820 -0.8598 -0.1145
  740MOL0     C99790   8.572   7.315   4.337 -0.7924 -1.5739 -0.3339
  740MOL0     C99791   8.589   7.231   4.228  0.2922 -0.6665 -0.3216
  740MOL0     C99792   8.472   7.186   4.155  0.9334  0.2473 -0.3956
  740MOL0     C99793   8.507   7.084   4.045 -0.6435  0.5105 -0.4243
  740MOL0     C99794   8.343   7.227   4.195  0.2253 -0.8331 -0.1133
  740MOL0     C99795   8.215   7.185   4.143  0.8520 -1.2703  0.2866
  740MOL0     O99796   8.130   7.291   4.105  0.6702  0.4818  0.3582
  740MOL0     C99797   8.015   7.271   4.032  0.5970  0.4648 -0.1594
  740MOL0     C99798   8.023   7.189   3.912 -0.1061  0.3733 -0.6716
  740MOL0     C99799   7.905   7.170   3.844 -0.0015  0.2623  0.1625
  740MOL0     C99800   7.779   7.233   3.885  0.4917  0.1911 -0.5269
  740MOL0     O99801   7.658   7.211   3.831 -0.0177  0.2531 -0.3844
  740MOL0     C99802   7.665   7.222   3.688 -0.4430 -0.8701  0.3765
  740MOL0     C99803   7.647   7.379   3.659  0.0500  0.5851 -0.5247
  740MOL0     C99804   7.494   7.431   3.644 -0.5098 -0.9331  0.2177
  740MOL0     C99805   7.420   7.442   3.778 -0.4066 -0.0310 -0.0487
  740MOL0     C99806   7.278   7.497   3.766  0.6863 -0.5896  0.3496
  740MOL0     C99807   7.249   7.651   3.793 -0.4152  1.2200 -0.3852
  740MOL0     C99808   7.121   7.704   3.730  0.3654 -0.9261  0.2067
  740MOL0     C99809   6.995   7.664   3.811  0.2436 -0.3525  0.5293
  740MOL0    Cl99810   6.969   7.728   3.978 -0.8413  0.0616 -0.0831
  740MOL0     C99811   7.774   7.315   4.000 -0.3624  0.4252  0.6974
  740MOL0     C99812   7.893   7.337   4.067 -0.1189 -0.1672 -0.0620
  740MOL0     O99813   8.196   7.064   4.122  0.1745 -0.0850 -0.2569
  740MOL0     C99814   8.337   7.324   4.291 -0.9042  0.1340  0.8659
  740MOL0     C99815   8.454   7.369   4.358  0.7278 -0.4527 -0.3230
  740MOL0     N99816   9.246   7.311   4.655 -0.2797 -0.1559 -0.2377
  740MOL0     N99817   9.234   7.268   4.775 -0.6655  0.6026  0.0340
  740MOL0     C99818   9.341   7.801   5.896  1.1617 -0.0223 -0.0687
  740MOL0     C99819   9.356   7.914   5.980  0.0777 -0.5383 -0.1243
  740MOL0     C99820   9.445   8.218   6.264 -0.1142  0.0678  0.4122
  740MOL0     C99821   9.342   8.259   6.347  0.3466 -0.3529  0.4940
  740MOL0     C99822   9.348   8.377   6.425  0.3052  0.1829  0.4172
  740MOL0     C99823   9.454   8.471   6.408  0.1945  0.5312  0.6241
  740MOL0     O99824   9.453   8.578   6.486 -0.1150 -0.1753  0.6546
  740MOL0     C99825   9.372   8.683   6.431 -0.8439  0.1319  0.4483
  740MOL0     C99826   9.326   8.773   6.548 -0.4458  0.5149 -0.1011
  740MOL0     C99827   9.221   8.864   6.505 -0.0945 -0.5571  0.4637
  740MOL0     C99828   9.165   8.942   6.630  0.4396  0.3292 -0.5637
  740MOL0     C99829   9.062   8.863   6.706 -0.2097 -0.6027 -0.4734
  740MOL0     C99830   8.966   8.830   6.772  0.2268  0.6771  0.5374
  740MOL0     C99831   9.546   8.441   6.303 -0.7138 -0.5781  0.1566
  740MOL0     C99832   9.551   8.312   6.239 -0.5535 -1.1208 -0.5097
  740MOL0     H99833   9.152   7.825   6.222  0.1936 -0.8671 -0.4179
  740MOL0     H99834   9.118   7.638   6.074  1.8937 -1.4085  1.0390
  740MOL0     H99835   9.149   7.675   5.688  0.0453  2.2004  4.3724
  740MOL0     H99836   9.327   7.634   5.667  1.4316 -2.2980  1.8748
  740MOL0     H99837   9.257   7.390   5.698  2.2462  1.1393  2.3304
  740MOL0     H99838   9.089   7.472   5.687  1.0161  1.3785  2.2187
  740MOL0     H99839   9.119   7.538   5.469 -1.9476  0.2148  2.8530
  740MOL0     H99840   9.308   7.517   5.486 -0.7752  2.4822  2.4077
  740MOL0     H99841   9.284   7.271   5.445  1.7183  0.6489 -2.8311
  740MOL0     H99842   9.117   7.284   5.447  1.0230 -2.5766 -1.0573
  740MOL0     H99843   9.128   7.453   5.247 -0.9266 -0.1937 -1.0208
  740MOL0     H99844   9.289   7.383   5.229  0.2201 -0.1476 -0.1724
  740MOL0     H99845   9.170   7.148   5.258 -2.0832 -1.5953 -0.6455
  740MOL0     H99846   9.021   7.231   5.218 -0.2342  2.8413 -0.1040
  740MOL0     H99847   9.291   7.237   5.054  1.5109 -2.2698  0.2262
  740MOL0     H99848   9.158   7.125   5.041 -0.6143  0.6919  2.6191
  740MOL0     H99849   9.099   7.426   5.030 -3.3778 -1.0685  1.6949
  740MOL0     H99850   8.990   7.310   4.988 -0.9777  2.7051  0.4518
  740MOL0     H99851   8.984   7.483   4.774  0.9586  2.9601 -1.1185
  740MOL0     H99852   9.095   7.577   4.543  0.0419  0.6361 -2.2687
  740MOL0     H99853   9.192   7.465   4.450 -0.0616 -2.1311  0.4984
  740MOL0     H99854   8.948   7.319   4.469  3.3181 -0.7117 -0.2539
  740MOL0     H99855   8.988   7.428   4.331 -1.7322 -0.4110 -0.4479
  740MOL0     H99856   8.870   7.614   4.460 -0.0751 -0.0180  3.1212
  740MOL0     H99857   8.818   7.473   4.566  3.9387 -2.0048 -0.1600
  740MOL0     H99858   8.789   7.472   4.267  0.1322 -0.8177 -0.1788
  740MOL0     H99859   8.672   7.565   4.361  0.5806 -0.3224 -2.8010
  740MOL0     H99860   8.693   7.202   4.218  0.4773  0.5656 -2.6582
  740MOL0     H99861   8.541   6.990   4.091  3.6957  2.4634  0.9623
  740MOL0     H99862   8.422   7.069   3.978 -0.6175  1.0389 -0.5747
  740MOL0     H99863   8.597   7.126   3.998  1.6188  3.4954  5.5047
  740MOL0     H99864   8.115   7.132   3.898 -0.1493 -0.8394  2.8390
  740MOL0     H99865   7.915   7.104   3.758 -0.0486  1.2745 -0.6499
  740MOL0     H99866   7.756   7.184   3.642 -0.6457 -2.6485  1.3478
  740MOL0     H99867   7.578   7.174   3.641 -1.6625  3.3919 -2.3418
  740MOL0     H99868   7.709   7.433   3.732  1.4101  1.6151 -2.3451
  740MOL0     H99869   7.696   7.404   3.564  2.7332  2.9473  1.2962
  740MOL0     H99870   7.446   7.365   3.571  3.0268 -3.8297  0.2021
  740MOL0     H99871   7.498   7.531   3.600 -3.5973 -1.2604 -1.1131
  740MOL0     H99872   7.405   7.338   3.810  2.1901 -0.1744  0.8914
  740MOL0     H99873   7.481   7.499   3.849  0.2108  2.1470 -2.2094
  740MOL0     H99874   7.213   7.436   3.829 -0.8286 -1.3133 -1.7724
  740MOL0     H99875   7.242   7.477   3.664  2.1943 -1.0736 -0.1171
  740MOL0     H99876   7.249   7.672   3.900 -0.4057 -1.3667  0.1908
  740MOL0     H99877   7.333   7.699   3.744  1.2613 -0.8926  0.2318
  740MOL0     H99878   7.110   7.667   3.627  0.6279  1.9437 -0.9435
  740MOL0     H99879   7.120   7.813   3.737  0.8020 -0.9621  0.9447
  740MOL0     H99880   6.988   7.555   3.816 -2.6760 -0.4136 -1.9616
  740MOL0     H99881   6.904   7.698   3.761 -0.6770 -3.1022  0.2103
  740MOL0     H99882   7.675   7.347   4.033 -0.7034  0.6806 -0.5082
  740MOL0     H99883   7.906   7.380   4.166  0.2032 -1.5117  0.5023
  740MOL0     H99884   8.244   7.367   4.326  0.9174  4.5498  0.9055
  740MOL0     H99885   8.450   7.452   4.427 -1.1148 -1.2513  0.6088
  740MOL0     H99886   9.406   7.808   5.809 -0.6846 -2.3230 -1.7682
  740MOL0     H99887   9.410   7.999   5.937  0.7467 -0.4140  0.9368
  740MOL0     H99888   9.259   8.194   6.375 -0.7353 -0.0698 -1.8695
  740MOL0     H99889   9.270   8.399   6.496 -1.3991 -0.8136 -1.0690
  740MOL0     H99890   9.414   8.723   6.339 -2.5390 -1.1761 -0.9696
  740MOL0     H99891   9.280   8.630   6.405 -0.5975 -0.2914  0.4213
  740MOL0     H99892   9.412   8.823   6.593  0.7773 -0.7090 -0.9892
  740MOL0     H99893   9.286   8.706   6.624 -1.5662  2.4067  1.0575
  740MOL0     H99894   9.134   8.813   6.464 -0.6088  1.4536 -1.1013
  740MOL0     H99895   9.256   8.943   6.438 -1.8143  0.7046  0.9867
  740MOL0     H99896   9.117   9.032   6.591 -0.6355 -0.8785 -2.1947
  740MOL0     H99897   9.242   8.968   6.703 -0.0472  0.8256 -0.2247
  740MOL0     H99898   8.898   8.810   6.852  0.3189  0.6725  0.6149
  740MOL0     H99899   9.634   8.504   6.297 -2.9880  2.8268 -0.2248
  740MOL0     H99900   9.621   8.288   6.160  0.4569 -1.7846  0.5464
  741MOL0     O99901   8.309  10.374   0.431  0.0878 -0.5748  0.5618
  741MOL0     C99902   8.284  10.453   0.339 -1.7182  0.2201 -0.2133
  741MOL0     O99903   8.202  10.434   0.232 -0.9048  0.0519 -1.1276
  741MOL0     C99904   8.157  10.304   0.209  0.3592 -0.0681  0.1385
  741MOL0     C99905   8.026  10.263   0.246 -0.1388  0.7252 -0.1798
  741MOL0     C99906   7.987  10.127   0.224  0.9219  0.8764 -0.2934
  741MOL0     C99907   8.063  10.039   0.149 -0.9767  0.7389 -0.3164
  741MOL0     O99908   8.020   9.918   0.103 -0.0014 -0.4438  0.5486
  741MOL0     C99909   8.097   9.810   0.163  0.8766 -0.4068 -0.2461
  741MOL0     C99910   8.044   9.670   0.138  0.2270 -0.4305 -0.1764
  741MOL0     C99911   8.070   9.630  -0.003  0.0809  0.3970  0.3171
  741MOL0     C99912   8.044   9.487  -0.015  0.0291 -0.2174  0.4239
  741MOL0     C99913   8.066   9.442  -0.161  0.1309 -0.2363  0.0650
  741MOL0     C99914   7.978   9.524  -0.259  0.0648  0.0277  0.2683
  741MOL0     C99915   7.950   9.441  -0.394  0.6667  0.2988  0.4485
  741MOL0     C99916   8.068   9.481  -0.496  0.5303 -0.8877  0.2788
  741MOL0     N99917   8.105   9.383  -0.590  0.3878 -0.9745  0.4045
  741MOL0     C99918   8.028   9.328  -0.694 -0.3164  0.0094 -1.0395
  741MOL0     C99919   8.114   9.245  -0.757  0.6457  0.0839  0.0466
  741MOL0     C99920   8.084   9.177  -0.884 -0.2702 -0.0479  0.6711
  741MOL0     C99921   8.032   9.031  -0.863  0.6350  0.7461 -0.5732
  741MOL0     C99922   7.889   9.008  -0.796  0.1927 -0.7569 -0.0404
  741MOL0     C99923   7.889   8.987  -0.649  0.0820  0.3282 -0.0642
  741MOL0     O99924   7.983   8.892  -0.608  0.1353 -0.0854  0.4093
  741MOL0     C99925   8.034   8.912  -0.484  0.3247  0.2245  0.2922
  741MOL0     C99926   8.149   8.990  -0.453 -0.6190 -0.3300 -0.0412
  741MOL0     C99927   8.212   8.986  -0.327 -0.4687  0.0063  0.2367
  741MOL0     C99928   8.339   9.060  -0.305  0.4456 -1.2621  0.6191
  741MOL0     C99929   8.152   8.899  -0.228 -0.2361 -0.0090 -0.2891
  741MOL0     C99930   8.208   8.875  -0.098 -0.0242 -0.0110 -0.1116
  741MOL0     O99931   8.167   8.758  -0.035  0.3159  0.4715 -0.0811
  741MOL0     C99932   8.246   8.719   0.067  0.1742  1.1888  0.3354
  741MOL0     C99933   8.347   8.625   0.046 -1.4240  1.1172  0.7225
  741MOL0     C99934   8.442   8.576   0.138 -0.5305 -0.7012  0.9328
  741MOL0     C99935   8.435   8.622   0.269 -0.7794  0.8131 -0.4704
  741MOL0     O99936   8.529   8.565   0.349  0.0262 -0.5217  0.6505
  741MOL0     C99937   8.516   8.582   0.491  0.5827 -0.3549  0.1101
  741MOL0     C99938   8.620   8.496   0.557 -0.6122 -0.7835  0.4452
  741MOL0     C99939   8.583   8.350   0.563 -0.6151 -0.2423  0.3087
  741MOL0     C99940   8.707   8.271   0.603  0.3262 -0.1598  0.0930
  741MOL0     C99941   8.789   8.227   0.479 -1.3453 -0.6316  0.3695
  741MOL0     C99942   8.870   8.098   0.502  0.1919 -0.4561  0.4937
  741MOL0     C99943   8.988   8.130   0.592 -0.0228  0.1301  0.0778
  741MOL0     C99944   9.115   8.171   0.515  0.6553  0.7681  0.0202
  741MOL0    Cl99945   9.258   8.082   0.553  0.1453  0.2332  0.2909
  741MOL0     C99946   8.318   8.701   0.301  0.3355 -0.0701 -0.2044
  741MOL0     C99947   8.224   8.738   0.205 -0.5356  0.4209 -0.6639
  741MOL0     O99948   8.286   8.964  -0.047  0.1124  0.0476  0.6850
  741MOL0     C99949   8.036   8.825  -0.260 -0.8643 -0.7502  1.1746
  741MOL0     C99950   7.984   8.828  -0.388 -0.3935 -0.8704 -0.3207
  741MOL0     N99951   8.237   9.259  -0.702  0.4420  0.5885  0.8672
  741MOL0     N99952   8.235   9.343  -0.607  0.0614 -0.6777  0.2562
  741MOL0     C99953   8.194  10.085   0.117 -0.1836 -0.0525  0.7895
  741MOL0     C99954   8.238  10.211   0.142  0.2442 -0.7992 -0.4761
  741MOL0     C99955   8.348  10.588   0.354 -0.1763 -0.0739  0.1305
  741MOL0     C99956   8.416  10.625   0.465 -0.3800  0.2466 -0.3300
  741MOL0     C99957   8.483  10.741   0.475 -0.0321 -0.1327  0.0711
  741MOL0     C99958   8.467  10.836   0.372  1.2595 -1.5953  0.0139
  741MOL0     O99959   8.531  10.953   0.381  0.8148 -0.7006 -0.5182
  741MOL0     C99960   8.633  10.975   0.284 -0.8489 -0.0784  0.8883
  741MOL0     C99961   8.672  11.118   0.268  0.5791  0.8943  0.1760
  741MOL0     C99962   8.747  11.157   0.396  0.1787 -0.7979 -0.6758
  741MOL0     C99963   8.876  11.236   0.384 -0.5907 -0.6090 -0.7394
  741MOL0     C99964   8.922  11.302   0.518 -0.3254  1.1864 -0.1765
  741MOL0     C99965   8.948  11.346   0.626  0.4218 -0.1041  0.1413
  741MOL0     C99966   8.396  10.804   0.258 -0.5975 -0.8732 -0.6816
  741MOL0     C99967   8.338  10.682   0.247  0.0954  0.1162 -0.5753
  741MOL0     H99968   7.965  10.332   0.304 -1.3610  0.2403 -0.8556
  741MOL0     H99969   7.889  10.097   0.260  0.7486  1.4319 -0.2914
  741MOL0     H99970   8.204   9.811   0.142  1.1389  0.8459  1.0123
  741MOL0     H99971   8.074   9.828   0.268 -2.9472  0.9165 -1.1353
  741MOL0     H99972   8.098   9.600   0.202  0.7233 -1.0898 -1.2695
  741MOL0     H99973   7.937   9.667   0.160  0.5307  2.4304  2.3162
  741MOL0     H99974   8.008   9.687  -0.073 -0.1741  0.3354  0.4950
  741MOL0     H99975   8.176   9.645  -0.028  0.0549 -1.7717 -1.3912
  741MOL0     H99976   8.095   9.425   0.059  0.1358 -5.0268 -3.1619
  741MOL0     H99977   7.937   9.470  -0.000  0.1916 -1.0920  0.6700
  741MOL0     H99978   8.172   9.436  -0.189  0.1238 -0.8952  0.1524
  741MOL0     H99979   8.032   9.338  -0.166 -2.3957  0.5696 -1.5803
  741MOL0     H99980   7.876   9.532  -0.222 -0.4354 -0.8110 -0.8874
  741MOL0     H99981   8.008   9.629  -0.269  2.9980 -0.6168  1.3685
  741MOL0     H99982   7.961   9.333  -0.379  1.4159  0.0699 -1.4515
  741MOL0     H99983   7.853   9.467  -0.436  0.5698  1.4348  1.3042
  741MOL0     H99984   8.153   9.513  -0.435  0.0264  1.3243 -0.0991
  741MOL0     H99985   8.041   9.573  -0.549  2.9996  0.2885  0.9161
  741MOL0     H99986   7.928   9.345  -0.733 -0.6625 -2.4661 -1.3561
  741MOL0     H99987   8.008   9.226  -0.945 -3.1523 -4.8928 -0.1336
  741MOL0     H99988   8.179   9.175  -0.939  0.0144 -0.5102  1.1655
  741MOL0     H99989   8.106   8.984  -0.797  0.1073  1.1578  0.3290
  741MOL0     H99990   8.030   8.988  -0.964 -4.0327 -0.6702 -0.0927
  741MOL0     H99991   7.838   8.927  -0.850  3.6199 -3.3348  0.2500
  741MOL0     H99992   7.828   9.097  -0.813  2.2975  0.2603 -2.8948
  741MOL0     H99993   7.793   8.944  -0.619  0.9013 -0.0169  2.3218
  741MOL0     H99994   7.900   9.080  -0.591 -1.9783  0.9459 -0.5628
  741MOL0     H99995   8.197   9.047  -0.532  0.8668 -1.8263 -0.2673
  741MOL0     H99996   8.361   9.117  -0.396  0.1201 -1.6143  0.3197
  741MOL0     H99997   8.326   9.120  -0.215 -1.3067 -3.0177  1.6151
  741MOL0     H99998   8.420   8.987  -0.298  1.0913 -0.5023  1.2379
  741MOL0     H99999   8.348   8.598  -0.060  0.8324  2.5321  0.3035
  741MOL0     H    0   8.512   8.500   0.104 -4.0303 -2.9721 -1.9960
  741MOL0     H    1   8.528   8.687   0.519  0.9034  0.3892 -2.5963
  741MOL0     H    2   8.423   8.534   0.523  1.8250 -1.8578  1.6874
  741MOL0     H    3   8.712   8.515   0.501 -1.8495  1.2160 -1.0309
  741MOL0     H    4   8.630   8.532   0.660 -0.6070  1.7489 -0.3807
  741MOL0     H    5   8.551   8.309   0.467 -1.4045 -0.0461  0.4792
  741MOL0     H    6   8.510   8.331   0.642 -1.0170 -0.3781 -0.0917
  741MOL0     H    7   8.776   8.323   0.671 -1.1876  0.1216  1.4617
  741MOL0     H    8   8.678   8.180   0.656  0.6533 -1.0488 -1.1933
  741MOL0     H    9   8.854   8.306   0.440 -1.7177 -1.7405 -2.7343
  741MOL0     H   10   8.723   8.220   0.392  0.8874 -0.2662 -1.4458
  741MOL0     H   11   8.807   8.025   0.554  1.4581 -0.8236  1.5656
  741MOL0     H   12   8.906   8.063   0.405  2.5098  1.1343  0.6880
  741MOL0     H   13   9.020   8.031   0.626 -1.1041 -0.7456 -1.3235
  741MOL0     H   14   8.979   8.197   0.678  1.9742  0.6064 -0.0446
  741MOL0     H   15   9.135   8.275   0.539 -0.1207  1.8935 -3.6288
  741MOL0     H   16   9.104   8.142   0.410  4.0800 -1.1548  0.0241
  741MOL0     H   17   8.313   8.722   0.407  3.0339  0.4634 -0.1111
  741MOL0     H   18   8.133   8.787   0.240  1.3640  2.4797  1.7163
  741MOL0     H   19   7.977   8.774  -0.185 -0.8739  1.6133  2.8640
  741MOL0     H   20   7.901   8.771  -0.428 -1.6895 -0.4898  1.6479
  741MOL0     H   21   8.247  10.013   0.056  0.6958  1.3480 -0.1596
  741MOL0     H   22   8.340  10.239   0.117  1.1728  1.4203  4.4984
  741MOL0     H   23   8.420  10.560   0.552  3.2527 -1.6141 -1.6461
  741MOL0     H   24   8.526  10.767   0.571 -1.3839 -0.7780  0.8814
  741MOL0     H   25   8.723  10.918   0.308 -1.7869 -2.2984 -0.5537
  741MOL0     H   26   8.604  10.941   0.184  1.5599  2.0478 -0.6769
  741MOL0     H   27   8.582  11.180   0.259  1.0627  2.0857  2.7351
  741MOL0     H   28   8.743  11.123   0.184  0.2418 -0.5541 -0.2108
  741MOL0     H   29   8.775  11.067   0.453  0.4526 -1.7312 -2.2198
  741MOL0     H   30   8.680  11.222   0.453  1.8735  0.5300 -0.1496
  741MOL0     H   31   8.852  11.328   0.330 -1.8493  0.1158  0.9630
  741MOL0     H   32   8.947  11.177   0.326  1.1060  0.7335 -0.1333
  741MOL0     H   33   8.953  11.391   0.723 -0.3078 -0.4707  0.3616
  741MOL0     H   34   8.384  10.885   0.187  4.8765  2.7076  1.8291
  741MOL0     H   35   8.274  10.668   0.160 -3.8371 -0.1109  2.1049
  742MOL0     O   36   8.596   2.088   4.212  0.3399  1.2824  0.6139
  742MOL0     C   37   8.494   2.122   4.267  0.1401 -0.5120 -0.0308
  742MOL0     O   38   8.409   2.039   4.336  0.2864 -0.8815 -0.1335
  742MOL0     C   39   8.433   1.910   4.378  0.3210  0.3818 -0.2220
  742MOL0     C   40   8.559   1.851   4.410  0.6167 -0.6696 -0.2535
  742MOL0     C   41   8.576   1.718   4.440  0.4513  1.0341 -0.7049
  742MOL0     C   42   8.460   1.631   4.438 -0.8752 -0.6791  0.0697
  742MOL0     O   43   8.470   1.507   4.494 -0.5244  0.0898  0.8582
  742MOL0     C   44   8.351   1.432   4.534  0.0930 -0.1578  0.3573
  742MOL0     C   45   8.383   1.297   4.604  0.2098  0.1181  1.0160
  742MOL0     C   46   8.472   1.204   4.526 -0.1561 -0.2525 -0.5050
  742MOL0     C   47   8.527   1.108   4.635 -0.1492  0.6495 -0.3430
  742MOL0     C   48   8.617   0.990   4.584  0.0321 -0.7467 -0.9752
  742MOL0     C   49   8.561   0.841   4.597  0.1947  1.0199  0.4801
  742MOL0     C   50   8.436   0.813   4.511  0.2064  0.0733  0.0150
  742MOL0     C   51   8.369   0.674   4.518  0.5174 -0.0658  0.2051
  742MOL0     N   52   8.452   0.571   4.456 -0.0917 -0.4380  0.5349
  742MOL0     C   53   8.511   0.588   4.334 -0.4345  0.3448  0.2777
  742MOL0     C   54   8.594   0.471   4.336 -0.4784  0.1385  0.7089
  742MOL0     C   55   8.686   0.448   4.211  0.6135 -0.6949 -0.0528
  742MOL0     C   56   8.825   0.514   4.227 -0.1998 -0.9873 -0.5956
  742MOL0     C   57   8.897   0.469   4.352  0.8700  0.0872 -0.6180
  742MOL0     C   58   8.933   0.316   4.360 -0.6955 -0.3694 -0.0906
  742MOL0     O   59   9.037   0.296   4.459  0.6862 -0.6591  0.6743
  742MOL0     C   60   9.169   0.303   4.424 -0.5067  0.4058 -0.1356
  742MOL0     C   61   9.272   0.253   4.510  0.0432 -0.0320  0.9133
  742MOL0     C   62   9.412   0.251   4.487  0.1935 -0.6694  0.3999
  742MOL0     C   63   9.495   0.196   4.593 -0.4548 -0.1414 -0.8792
  742MOL0     C   64   9.453   0.317   4.362 -0.2577  0.1499 -0.2986
  742MOL0     C   65   9.596   0.352   4.324 -0.0856 -0.0336 -0.5815
  742MOL0     O   66   9.613   0.448   4.220  0.0006  0.0312 -0.6716
  742MOL0     C   67   9.736   0.472   4.168  0.5564  0.5932  1.1464
  742MOL0     C   68   9.777   0.436   4.035  0.4970  0.1974  0.0810
  742MOL0     C   69   9.904   0.467   3.981 -0.0779 -0.0969 -0.1935
  742MOL0     C   70  10.000   0.525   4.065  1.0040 -0.4159  0.4417
  742MOL0     O   71  10.124   0.557   4.016  0.4988 -0.7774 -0.3259
  742MOL0     C   72  10.157   0.692   4.002 -0.6557  0.1623  0.0138
  742MOL0     C   73  10.296   0.706   3.938 -0.1914 -0.0084 -0.6382
  742MOL0     C   74  10.315   0.847   3.876 -0.5470  0.2824 -0.3878
  742MOL0     C   75  10.436   0.838   3.770  0.4199  0.0063 -0.0951
  742MOL0     C   76  10.459   0.982   3.707 -0.3721  0.2872  0.5572
  742MOL0     C   77  10.585   0.973   3.612  0.6960 -0.0662 -0.4952
  742MOL0     C   78  10.604   1.109   3.555  0.9688  0.7718 -0.1709
  742MOL0     C   79  10.495   1.132   3.453 -0.6869 -0.0620  0.2036
  742MOL0    Cl   80  10.543   1.262   3.356 -0.2387  0.4172 -0.1681
  742MOL0     C   81   9.963   0.565   4.205  0.0106  0.1612 -0.6467
  742MOL0     C   82   9.835   0.521   4.253  0.4413 -0.6990  0.1983
  742MOL0     O   83   9.687   0.295   4.379  0.0439  0.5158  0.5065
  742MOL0     C   84   9.349   0.365   4.275 -0.2051  0.5247  0.0387
  742MOL0     C   85   9.212   0.349   4.303 -0.4747 -0.3520  0.1356
  742MOL0     N   86   8.562   0.386   4.442  1.1142 -0.5284  0.0854
  742MOL0     N   87   8.487   0.452   4.514 -0.4046  0.3879  0.0310
  742MOL0     C   88   8.339   1.683   4.397  0.4220 -0.0600 -0.0492
  742MOL0     C   89   8.330   1.823   4.363  1.5619  0.6380 -0.0362
  742MOL0     C   90   8.471   2.269   4.280  1.4768 -0.1045 -0.2978
  742MOL0     C   91   8.562   2.366   4.245  0.5543 -0.4028 -0.0857
  742MOL0     C   92   8.527   2.503   4.236  0.2551 -0.2422  0.7917
  742MOL0     C   93   8.394   2.543   4.256 -0.0932 -0.2640  0.2000
  742MOL0     O   94   8.379   2.683   4.249  0.6690 -0.1758  0.8412
  742MOL0     C   95   8.242   2.712   4.249  0.2505 -0.0372 -0.2240
  742MOL0     C   96   8.201   2.853   4.219 -0.2543 -0.2933  0.0183
  742MOL0     C   97   8.300   2.953   4.293 -0.2370 -0.1708  0.0867
  742MOL0     C   98   8.352   3.059   4.187  0.2690 -0.2178  0.6263
  742MOL0     C   99   8.415   3.175   4.256 -0.0217 -0.6285  0.1084
  742MOL0     C  100   8.485   3.275   4.278 -1.1098 -0.6524 -0.0485
  742MOL0     C  101   8.297   2.452   4.288 -0.0219  0.5932  1.2833
  742MOL0     C  102   8.332   2.312   4.297  0.5872  0.2899  0.5496
  742MOL0     H  103   8.642   1.920   4.414 -0.5617  0.7006  2.0030
  742MOL0     H  104   8.675   1.681   4.464  1.1898  3.7079  0.8124
  742MOL0     H  105   8.285   1.490   4.600 -0.6891  0.5197 -0.9938
  742MOL0     H  106   8.300   1.420   4.439  3.9975 -0.6436 -1.8782
  742MOL0     H  107   8.438   1.321   4.695  0.1622  0.1724  1.0300
  742MOL0     H  108   8.297   1.233   4.627 -0.2269 -0.0336 -0.8147
  742MOL0     H  109   8.427   1.156   4.439  1.0637  0.3277 -1.4903
  742MOL0     H  110   8.565   1.245   4.486  0.9050 -2.0042  0.0707
  742MOL0     H  111   8.583   1.168   4.707 -1.7899  0.5975  1.0440
  742MOL0     H  112   8.454   1.057   4.699  0.0090  1.1006  0.2029
  742MOL0     H  113   8.639   1.005   4.478  0.5000 -0.5812 -0.8563
  742MOL0     H  114   8.706   0.996   4.647 -0.1476  1.3266 -0.8358
  742MOL0     H  115   8.648   0.778   4.575  0.0909 -0.2978  3.4127
  742MOL0     H  116   8.544   0.832   4.704  0.7436  2.3597  0.6974
  742MOL0     H  117   8.364   0.885   4.549 -1.3925 -1.0683 -0.7111
  742MOL0     H  118   8.450   0.833   4.405  2.5735  3.4432  0.8007
  742MOL0     H  119   8.279   0.676   4.455  1.4763  2.6741 -1.2541
  742MOL0     H  120   8.353   0.647   4.622  0.6858  2.0748  0.8332
  742MOL0     H  121   8.507   0.671   4.264  0.3832  0.2136  0.0629
  742MOL0     H  122   8.685   0.339   4.205 -0.9918 -0.7557  0.9395
  742MOL0     H  123   8.630   0.487   4.125 -1.7399 -0.8480  1.3250
  742MOL0     H  124   8.797   0.620   4.230  0.9042 -0.6872 -0.4537
  742MOL0     H  125   8.884   0.499   4.136  2.9539  1.8485  0.7596
  742MOL0     H  126   8.846   0.498   4.444  1.5523 -1.6591  0.3817
  742MOL0     H  127   8.985   0.534   4.358  0.3697  0.6717  0.8986
  742MOL0     H  128   8.967   0.283   4.262 -0.0437  0.8163 -0.2876
  742MOL0     H  129   8.837   0.275   4.390 -0.8968  0.4553  0.4555
  742MOL0     H  130   9.235   0.214   4.604  0.1419 -1.1410  0.4997
  742MOL0     H  131   9.575   0.127   4.566 -0.1083  0.0091 -0.2397
  742MOL0     H  132   9.546   0.284   4.632  1.6958 -1.6383 -0.1137
  742MOL0     H  133   9.430   0.140   4.661 -2.5426  1.6179 -1.3023
  742MOL0     H  134   9.706   0.388   3.968  1.4842  0.7099 -1.3647
  742MOL0     H  135   9.919   0.466   3.873  1.4698  0.3375 -0.0115
  742MOL0     H  136  10.082   0.738   3.937 -1.3346  1.4396  1.6395
  742MOL0     H  137  10.145   0.737   4.101 -1.5851 -3.7706  1.9228
  742MOL0     H  138  10.369   0.686   4.017 -2.6195 -3.1387  1.0262
  742MOL0     H  139  10.315   0.631   3.861  2.3543  0.1589 -0.2714
  742MOL0     H  140  10.356   0.913   3.953  4.7157 -3.1359  0.2620
  742MOL0     H  141  10.215   0.882   3.849 -1.2878 -1.3643  0.0600
  742MOL0     H  142  10.524   0.811   3.829 -0.0970  0.0403  0.7106
  742MOL0     H  143  10.415   0.759   3.697  2.5570  1.6397 -2.6617
  742MOL0     H  144  10.484   1.055   3.784  1.6814  2.6540 -2.1390
  742MOL0     H  145  10.363   1.007   3.661 -0.4684 -1.4315 -0.2739
  742MOL0     H  146  10.673   0.930   3.659 -0.9353 -2.4453  0.6250
  742MOL0     H  147  10.560   0.893   3.541  2.8916 -2.8337  1.6253
  742MOL0     H  148  10.698   1.113   3.499  1.8168 -1.7484  0.9767
  742MOL0     H  149  10.586   1.188   3.629 -1.8055 -0.4459  0.5665
  742MOL0     H  150  10.401   1.164   3.498  0.0474  0.4895  1.3905
  742MOL0     H  151  10.485   1.039   3.396  1.8674 -0.4335  0.2334
  742MOL0     H  152  10.032   0.612   4.273  1.9141 -1.1604 -1.5784
  742MOL0     H  153   9.819   0.564   4.352  0.2539  1.7842 -0.8221
  742MOL0     H  154   9.367   0.419   4.182 -1.4604  0.1382 -0.4508
  742MOL0     H  155   9.151   0.388   4.222 -1.0987  0.8050  1.1239
  742MOL0     H  156   8.250   1.622   4.396 -0.1901  0.7797  0.7064
  742MOL0     H  157   8.237   1.875   4.342  0.2315 -2.5146 -2.8160
  742MOL0     H  158   8.661   2.337   4.212  0.9992  1.0366 -0.0829
  742MOL0     H  159   8.605   2.566   4.195 -0.6794  0.0247 -0.6356
  742MOL0     H  160   8.187   2.651   4.177  0.8404 -0.7126 -0.1081
  742MOL0     H  161   8.199   2.690   4.348 -1.2717  0.1525 -0.8064
  742MOL0     H  162   8.102   2.875   4.261  0.3156 -0.6741  1.6494
  742MOL0     H  163   8.208   2.857   4.110  2.1821  1.6640  0.1605
  742MOL0     H  164   8.383   2.900   4.340 -1.6783 -3.3247 -0.6532
  742MOL0     H  165   8.241   3.009   4.366 -2.5966  1.7533 -3.0441
  742MOL0     H  166   8.269   3.094   4.125  1.5409 -1.8360 -2.2013
  742MOL0     H  167   8.425   3.014   4.119  0.8901  1.1570  0.3619
  742MOL0     H  168   8.553   3.354   4.302  0.8153 -2.0854 -0.5986
  742MOL0     H  169   8.191   2.472   4.298 -0.0665  0.1040  1.9601
  742MOL0     H  170   8.251   2.241   4.307  1.1258 -0.3037  0.7675
  743MOL0     O  171   6.131   4.902   1.750  0.4709 -0.8664  0.2364
  743MOL0     C  172   6.012   4.906   1.740  0.6103  0.6358  0.1758
  743MOL0     O  173   5.932   4.823   1.660  0.1538 -0.3501 -0.0274
  743MOL0     C  174   5.983   4.706   1.613  0.6455  0.9301  0.7118
  743MOL0     C  175   6.049   4.616   1.696  0.2471 -0.0217 -0.0878
  743MOL0     C  176   6.092   4.492   1.652 -0.0487 -0.1962 -0.0844
  743MOL0     C  177   6.050   4.448   1.536  0.3719  0.7029  0.0508
  743MOL0     O  178   6.092   4.323   1.502 -0.1102  0.1757 -0.2150
  743MOL0     C  179   6.069   4.271   1.365  0.5709  0.3682  0.0307
  743MOL0     C  180   6.171   4.341   1.279  0.4705 -0.9835 -0.8811
  743MOL0     C  181   6.152   4.313   1.129  0.1921 -0.2247  1.2968
  743MOL0     C  182   6.263   4.379   1.045  0.3146  0.9126 -0.5641
  743MOL0     C  183   6.268   4.541   1.036  0.0741  0.6721 -0.5820
  743MOL0     C  184   6.403   4.597   0.998  0.3315 -0.8083  0.1499
  743MOL0     C  185   6.471   4.542   0.877  0.1626  0.4947  0.2953
  743MOL0     C  186   6.393   4.571   0.743 -0.4682 -0.4956  0.4638
  743MOL0     N  187   6.452   4.485   0.647  0.6476 -0.2833 -1.0409
  743MOL0     C  188   6.564   4.515   0.573  1.0066 -0.3207 -0.3591
  743MOL0     C  189   6.594   4.403   0.505 -0.5333  0.9218 -0.6189
  743MOL0     C  190   6.717   4.396   0.428  0.0236  0.1647 -0.7693
  743MOL0     C  191   6.697   4.433   0.281  0.9402 -0.4124 -0.5486
  743MOL0     C  192   6.824   4.459   0.197  0.5095  0.3911 -1.0081
  743MOL0     C  193   6.810   4.443   0.044  0.0665 -0.8456 -0.1042
  743MOL0     O  194   6.735   4.543  -0.010 -0.2360  0.5042  0.7571
  743MOL0     C  195   6.750   4.569  -0.141  0.6501 -0.3516  0.3737
  743MOL0     C  196   6.874   4.620  -0.186 -0.5821  0.1811  0.4404
  743MOL0     C  197   6.900   4.654  -0.324 -1.0876  0.2404 -0.3639
  743MOL0     C  198   7.036   4.705  -0.369  0.0508 -0.6870 -0.7173
  743MOL0     C  199   6.794   4.627  -0.411  0.8572  0.1897 -0.2003
  743MOL0     C  200   6.800   4.658  -0.559 -0.2875  0.4414  0.6214
  743MOL0     O  201   6.741   4.551  -0.628 -0.0429  0.5084  0.2090
  743MOL0     C  202   6.720   4.554  -0.767  0.5664 -0.5242 -0.4903
  743MOL0     C  203   6.687   4.672  -0.832  0.4306  0.0012 -0.1765
  743MOL0     C  204   6.692   4.675  -0.971 -0.3245 -0.5755 -1.0567
  743MOL0     C  205   6.706   4.555  -1.046  0.0344 -0.9639  0.1945
  743MOL0     O  206   6.709   4.561  -1.183 -0.3574  0.5932  0.1186
  743MOL0     C  207   6.624   4.475  -1.258 -0.1973  0.1692  0.5406
  743MOL0     C  208   6.481   4.530  -1.257  0.7592  0.4775  1.1487
  743MOL0     C  209   6.462   4.670  -1.325  0.2958  0.3482 -0.1233
  743MOL0     C  210   6.324   4.729  -1.279 -1.0737 -1.3208 -0.2677
  743MOL0     C  211   6.311   4.779  -1.134 -0.6042 -0.0002 -0.0937
  743MOL0     C  212   6.372   4.918  -1.101  0.4084  0.1216  0.1825
  743MOL0     C  213   6.322   4.985  -0.974 -0.2160  0.7475 -0.1764
  743MOL0     C  214   6.414   5.093  -0.917  0.3174 -0.3774  0.9417
  743MOL0    Cl  215   6.580   5.029  -0.899  0.1877  0.1749  0.2796
  743MOL0     C  216   6.717   4.434  -0.976 -0.0927  0.7187  1.3348
  743MOL0     C  217   6.726   4.434  -0.839 -0.1188  0.6059  0.1253
  743MOL0     O  218   6.875   4.743  -0.609  0.0217 -0.0908 -0.2003
  743MOL0     C  219   6.666   4.585  -0.367 -0.1634  0.6457 -0.1757
  743MOL0     C  220   6.643   4.560  -0.229  0.0585  0.6312 -0.7927
  743MOL0     N  221   6.498   4.306   0.541 -0.0755 -0.7121  0.1514
  743MOL0     N  222   6.404   4.361   0.625  0.1367  0.8008  0.4456
  743MOL0     C  223   5.992   4.542   1.447 -0.6874  0.4913  1.3658
  743MOL0     C  224   5.960   4.672   1.482  0.0756  0.8065 -0.1439
  743MOL0     C  225   5.934   4.984   1.836  0.2673  0.7062 -0.2574
  743MOL0     C  226   5.792   4.980   1.838  0.5284 -0.1717  0.2951
  743MOL0     C  227   5.722   5.061   1.930  0.8096 -0.8000 -0.1651
  743MOL0     C  228   5.789   5.134   2.029  0.1787 -0.0123 -0.2111
  743MOL0     O  229   5.726   5.202   2.133 -0.0376  0.4244  0.5929
  743MOL0     C  230   5.620   5.296   2.099 -1.1351  0.3608  0.4714
  743MOL0     C  231   5.619   5.406   2.209  0.3116 -1.1810 -0.6260
  743MOL0     C  232   5.753   5.482   2.215 -0.6994  0.4160 -0.1886
  743MOL0     C  233   5.808   5.562   2.093  0.2673  0.4908 -0.0125
  743MOL0     C  234   5.688   5.637   2.040 -0.0462  0.8195 -0.3950
  743MOL0     C  235   5.590   5.698   2.000  0.2957 -0.1774 -1.0708
  743MOL0     C  236   5.928   5.132   2.028 -0.4444  0.3740 -0.2797
  743MOL0     C  237   6.003   5.061   1.938 -0.1131  0.1137  1.0748
  743MOL0     H  238   6.073   4.643   1.798 -0.2006 -0.4255  0.1237
  743MOL0     H  239   6.137   4.426   1.726  1.7899  1.2426  0.1528
  743MOL0     H  240   6.097   4.165   1.374  0.3738  0.4168  1.4213
  743MOL0     H  241   5.969   4.279   1.322  1.3881  0.9140 -1.8912
  743MOL0     H  242   6.162   4.448   1.296 -0.8072 -0.8047 -2.4813
  743MOL0     H  243   6.271   4.313   1.315 -0.7528  0.7033  4.6558
  743MOL0     H  244   6.152   4.204   1.119  1.6468 -0.2790  1.5975
  743MOL0     H  245   6.053   4.350   1.103  0.4153  0.2948  1.1759
  743MOL0     H  246   6.357   4.352   1.092 -0.0639  0.5000 -0.0293
  743MOL0     H  247   6.251   4.335   0.945 -2.5141 -1.7428  0.7821
  743MOL0     H  248   6.192   4.570   0.963 -1.5543  0.8146  1.0951
  743MOL0     H  249   6.229   4.582   1.129 -0.5820  1.7939 -1.3323
  743MOL0     H  250   6.388   4.704   0.979 -0.5517 -1.1199 -1.0196
  743MOL0     H  251   6.469   4.579   1.083 -1.5426 -0.4138  1.7938
  743MOL0     H  252   6.567   4.595   0.886  0.4586  0.6299 -2.6437
  743MOL0     H  253   6.477   4.435   0.899 -1.8324  0.8081  2.8834
  743MOL0     H  254   6.400   4.672   0.702 -0.3096 -0.5047  0.4678
  743MOL0     H  255   6.287   4.558   0.769 -0.5577  2.7893  2.2818
  743MOL0     H  256   6.620   4.607   0.561  0.5101 -0.2703 -2.8882
  743MOL0     H  257   6.792   4.467   0.464 -0.2640  0.9377 -1.6633
  743MOL0     H  258   6.760   4.295   0.424  0.4460  0.3717 -1.7139
  743MOL0     H  259   6.634   4.523   0.274 -2.2173 -2.4784 -0.8163
  743MOL0     H  260   6.642   4.349   0.238 -0.9543  1.6698 -2.4597
  743MOL0     H  261   6.898   4.382   0.220  1.6509  1.1749 -1.9152
  743MOL0     H  262   6.862   4.559   0.222  3.6557 -1.1832  1.2444
  743MOL0     H  263   6.763   4.348   0.017  2.5739 -3.3322  3.2831
  743MOL0     H  264   6.909   4.431  -0.002 -0.6819 -0.4072 -1.9048
  743MOL0     H  265   6.949   4.638  -0.110 -0.0509  1.2724 -0.3118
  743MOL0     H  266   7.103   4.669  -0.290  0.7108 -3.5611 -2.4573
  743MOL0     H  267   7.067   4.665  -0.466  2.1999 -1.7644  0.3495
  743MOL0     H  268   7.029   4.814  -0.363 -0.5773 -0.7333 -0.4277
  743MOL0     H  269   6.655   4.758  -0.774 -3.5426 -1.2003 -0.3026
  743MOL0     H  270   6.683   4.771  -1.022 -0.3325  0.2478  0.4330
  743MOL0     H  271   6.673   4.469  -1.356  1.5525 -0.1540  1.3954
  743MOL0     H  272   6.625   4.372  -1.222  1.9643  0.2021  0.7480
  743MOL0     H  273   6.414   4.469  -1.318  1.0123  0.1272  1.2226
  743MOL0     H  274   6.450   4.526  -1.152 -1.1147 -1.4286  0.5757
  743MOL0     H  275   6.468   4.655  -1.434  3.7261 -0.9484  0.1430
  743MOL0     H  276   6.544   4.738  -1.304  0.4477  0.2964 -0.5382
  743MOL0     H  277   6.302   4.811  -1.348  0.9458 -2.1385 -1.9918
  743MOL0     H  278   6.248   4.656  -1.305 -1.7536  0.5321 -4.2008
  743MOL0     H  279   6.334   4.711  -1.051  0.3233  1.7670  1.1535
  743MOL0     H  280   6.202   4.787  -1.131 -0.5430  0.9154 -0.2077
  743MOL0     H  281   6.477   4.888  -1.090  0.1197 -1.7550 -1.6625
  743MOL0     H  282   6.360   4.967  -1.198 -0.3082 -2.1588 -0.9434
  743MOL0     H  283   6.308   4.906  -0.899  2.2597 -0.8450 -1.2541
  743MOL0     H  284   6.228   5.034  -1.000  0.2117  1.8387  0.3034
  743MOL0     H  285   6.378   5.130  -0.820  1.6373  0.8679  1.0039
  743MOL0     H  286   6.410   5.179  -0.985  2.7739  0.2446  1.4666
  743MOL0     H  287   6.739   4.351  -1.043  0.6357  1.1623  1.0115
  743MOL0     H  288   6.746   4.345  -0.780 -1.7684  0.8218  1.0769
  743MOL0     H  289   6.580   4.577  -0.432 -2.1425  1.2303  2.2504
  743MOL0     H  290   6.544   4.544  -0.189  1.1272 -1.0245  1.3728
  743MOL0     H  291   5.968   4.510   1.346  4.4290  3.1196 -1.0463
  743MOL0     H  292   5.920   4.740   1.407  1.2745  0.2748 -1.3230
  743MOL0     H  293   5.726   4.929   1.769 -1.0465  1.2643  0.6727
  743MOL0     H  294   5.614   5.060   1.939  0.8925 -2.4432  1.2384
  743MOL0     H  295   5.623   5.333   1.996 -0.6011  0.7748  0.6274
  743MOL0     H  296   5.529   5.236   2.102 -1.2806  0.5497 -0.0322
  743MOL0     H  297   5.596   5.367   2.308 -2.7708  0.0590 -0.7562
  743MOL0     H  298   5.538   5.478   2.194  1.3442  0.9509  2.8608
  743MOL0     H  299   5.839   5.430   2.257 -0.4371  0.9452 -0.0712
  743MOL0     H  300   5.729   5.553   2.294  0.6691 -2.7136  3.3543
  743MOL0     H  301   5.857   5.507   2.013 -1.9493  0.5549 -1.5095
  743MOL0     H  302   5.876   5.640   2.131  0.6185 -0.7040  1.9538
  743MOL0     H  303   5.504   5.752   1.966 -2.4631 -3.9505 -0.6716
  743MOL0     H  304   5.975   5.184   2.111 -0.4241  2.7412 -1.6884
  743MOL0     H  305   6.111   5.068   1.941 -0.2115  1.9336  2.8700
  744MOL0     O  306   6.568   3.887   7.277 -0.2235  0.7593  0.0045
  744MOL0     C  307   6.495   3.928   7.196 -0.1484 -0.1081 -0.3334
  744MOL0     O  308   6.453   3.875   7.081 -0.6996  0.4049 -0.2599
  744MOL0     C  309   6.515   3.774   7.018 -0.9544  0.0589 -0.0445
  744MOL0     C  310   6.631   3.712   7.045 -0.0680  0.2546 -0.2548
  744MOL0     C  311   6.692   3.617   6.957  0.1658  0.1763  1.1924
  744MOL0     C  312   6.633   3.589   6.834  0.6972  0.4381 -0.9910
  744MOL0     O  313   6.663   3.504   6.736 -0.0649 -1.0601  0.2579
  744MOL0     C  314   6.806   3.521   6.700  0.1335 -0.0809 -0.0775
  744MOL0     C  315   6.824   3.660   6.626  0.0225 -0.8122 -0.6268
  744MOL0     C  316   6.779   3.655   6.485 -0.5855  0.4924  0.2395
  744MOL0     C  317   6.795   3.785   6.417 -0.5209 -0.2631 -0.1628
  744MOL0     C  318   6.730   3.791   6.284  0.1553 -0.6435  0.1130
  744MOL0     C  319   6.750   3.928   6.216  1.2712 -0.2730 -0.4842
  744MOL0     C  320   6.700   3.931   6.073 -0.5122 -0.4341  0.1294
  744MOL0     C  321   6.540   3.934   6.075  0.3210 -0.0024 -0.3821
  744MOL0     N  322   6.485   3.952   5.946  0.4822  0.0676  0.5942
  744MOL0     C  323   6.503   4.060   5.865  0.0994 -0.6549  0.7479
  744MOL0     C  324   6.406   4.059   5.768 -0.2656  0.1143 -0.3550
  744MOL0     C  325   6.401   4.165   5.657 -0.5522  0.1094 -0.4163
  744MOL0     C  326   6.268   4.175   5.588  0.8041  0.3555 -0.1646
  744MOL0     C  327   6.252   4.305   5.502  0.0024  0.4928 -0.8521
  744MOL0     C  328   6.116   4.312   5.426 -1.4648  0.6183 -0.5005
  744MOL0     O  329   6.028   4.321   5.535  1.0423  0.1876  0.8317
  744MOL0     C  330   5.894   4.365   5.522  0.4476 -0.0493  0.7178
  744MOL0     C  331   5.803   4.341   5.619  0.2223  0.7427 -0.1409
  744MOL0     C  332   5.672   4.376   5.619  1.1790 -0.0085  0.9597
  744MOL0     C  333   5.575   4.341   5.730 -0.6281  1.3330  0.4610
  744MOL0     C  334   5.620   4.444   5.506 -0.2389 -0.4268 -0.6987
  744MOL0     C  335   5.480   4.492   5.487 -0.5362  0.6298 -0.3981
  744MOL0     O  336   5.423   4.560   5.582  0.0904 -0.1336 -1.0551
  744MOL0     C  337   5.293   4.613   5.556  0.7486  0.1385  0.2771
  744MOL0     C  338   5.187   4.522   5.588  0.5600 -0.5209 -0.1968
  744MOL0     C  339   5.047   4.564   5.593 -0.8405 -0.8446  0.2248
  744MOL0     C  340   5.016   4.690   5.534 -0.2413  0.4263  0.3501
  744MOL0     O  341   4.890   4.726   5.490  0.1660 -0.3261 -0.1419
  744MOL0     C  342   4.781   4.639   5.493 -0.1769  0.4826 -0.1197
  744MOL0     C  343   4.659   4.717   5.546 -0.1387 -0.3213 -0.4054
  744MOL0     C  344   4.686   4.739   5.695  0.5787 -0.1587  0.1507
  744MOL0     C  345   4.550   4.789   5.758  0.6249  1.5728  0.4344
  744MOL0     C  346   4.512   4.938   5.755 -0.3772 -0.0726 -0.0193
  744MOL0     C  347   4.385   4.975   5.839 -0.0723 -0.3695  0.0520
  744MOL0     C  348   4.314   5.110   5.813  0.1991 -0.9059 -0.2115
  744MOL0     C  349   4.378   5.218   5.888 -0.0992  0.1476  0.4673
  744MOL0    Cl  350   4.308   5.232   6.058  0.3560 -0.0065  0.5745
  744MOL0     C  351   5.120   4.778   5.508 -0.2697  0.5808  0.2977
  744MOL0     C  352   5.257   4.743   5.517  1.1255  0.1001 -1.3282
  744MOL0     O  353   5.425   4.434   5.389 -0.4413  0.7270 -0.2467
  744MOL0     C  354   5.708   4.459   5.403  0.0358  0.2761  0.1300
  744MOL0     C  355   5.847   4.430   5.407  0.5225  0.1531  0.1269
  744MOL0     N  356   6.334   3.950   5.796  0.5386  0.5064  0.2622
  744MOL0     N  357   6.388   3.877   5.897  0.5342  0.0413  0.3567
  744MOL0     C  358   6.508   3.650   6.811 -0.0820 -0.0771 -0.3453
  744MOL0     C  359   6.452   3.737   6.901 -0.8061 -0.7659  0.3451
  744MOL0     C  360   6.431   4.058   7.232  0.1440 -0.1052 -0.7252
  744MOL0     C  361   6.489   4.152   7.320  0.2217 -0.3584  0.6636
  744MOL0     C  362   6.430   4.275   7.359 -0.3714  0.5699  0.2423
  744MOL0     C  363   6.312   4.302   7.287 -0.0596  0.5272  0.0257
  744MOL0     O  364   6.236   4.405   7.327  0.8381  0.2151 -0.2090
  744MOL0     C  365   6.113   4.391   7.405 -0.2412  1.0981  0.9476
  744MOL0     C  366   6.010   4.501   7.363 -0.3384  0.0579  0.9709
  744MOL0     C  367   5.956   4.467   7.225  0.0879  0.2569  0.2273
  744MOL0     C  368   5.870   4.579   7.159  0.4823 -0.3215  1.2034
  744MOL0     C  369   5.750   4.626   7.217  0.0469 -0.0826 -0.0914
  744MOL0     C  370   5.640   4.658   7.269  0.3661 -0.4366 -0.1937
  744MOL0     C  371   6.259   4.225   7.186  0.1071  0.1122 -0.5678
  744MOL0     C  372   6.317   4.101   7.162  0.2090 -0.1503 -0.1393
  744MOL0     H  373   6.696   3.731   7.130  0.4648  0.3570 -0.6803
  744MOL0     H  374   6.776   3.567   7.005  0.3021 -1.8308 -0.9711
  744MOL0     H  375   6.869   3.513   6.789 -1.2073 -0.3854  0.8607
  744MOL0     H  376   6.855   3.448   6.634  0.4767  0.0766 -0.0007
  744MOL0     H  377   6.782   3.743   6.684  1.4387  0.8656 -1.8805
  744MOL0     H  378   6.933   3.669   6.624  0.3705 -3.9807 -1.7544
  744MOL0     H  379   6.840   3.582   6.432 -1.5035 -0.2526  0.1746
  744MOL0     H  380   6.678   3.612   6.486 -0.7065  0.7633 -0.1714
  744MOL0     H  381   6.750   3.867   6.474  1.3230 -0.2029  1.3257
  744MOL0     H  382   6.902   3.808   6.415 -0.2507 -0.1210  4.9057
  744MOL0     H  383   6.754   3.714   6.211  0.4402  1.5850 -2.2810
  744MOL0     H  384   6.623   3.777   6.304 -0.1352  1.6888  0.4686
  744MOL0     H  385   6.703   4.008   6.274  0.1030 -0.1056 -1.6275
  744MOL0     H  386   6.855   3.960   6.218  1.1264  0.1722  0.7770
  744MOL0     H  387   6.740   4.026   6.036  0.8374 -0.5637  1.1661
  744MOL0     H  388   6.756   3.859   6.012 -1.5789  0.6641 -2.3115
  744MOL0     H  389   6.503   4.011   6.144 -2.4044 -0.1263 -1.5450
  744MOL0     H  390   6.503   3.842   6.122 -2.3356  2.4027  2.7191
  744MOL0     H  391   6.576   4.137   5.886  0.5221 -0.8651  0.0789
  744MOL0     H  392   6.419   4.263   5.700  0.5172 -1.1113  2.1394
  744MOL0     H  393   6.471   4.135   5.578 -0.1319 -2.9119  0.9403
  744MOL0     H  394   6.185   4.161   5.658  1.4323 -1.3197  0.2825
  744MOL0     H  395   6.266   4.096   5.512  1.2348  0.7369 -0.5867
  744MOL0     H  396   6.333   4.291   5.430 -0.3152 -7.1170 -0.4989
  744MOL0     H  397   6.269   4.389   5.571 -0.7308 -2.0909  2.7647
  744MOL0     H  398   6.086   4.218   5.378 -0.1296 -2.4277  3.9804
  744MOL0     H  399   6.107   4.405   5.369  2.5689  1.5712  0.1654
  744MOL0     H  400   5.841   4.295   5.709 -0.7402  1.4708  0.6561
  744MOL0     H  401   5.547   4.427   5.791  1.7008  2.3694  0.2006
  744MOL0     H  402   5.486   4.287   5.698  0.9241 -1.4912  0.6051
  744MOL0     H  403   5.623   4.262   5.788  0.9314  1.4503 -0.6099
  744MOL0     H  404   5.212   4.419   5.612  2.7648  0.0682  0.3272
  744MOL0     H  405   4.969   4.495   5.625  0.2872 -1.0045  2.7989
  744MOL0     H  406   4.765   4.618   5.387  3.5108 -2.8940 -0.2307
  744MOL0     H  407   4.773   4.551   5.558  1.1966 -0.6178 -1.3761
  744MOL0     H  408   4.655   4.811   5.489 -2.0460 -0.6855 -0.9619
  744MOL0     H  409   4.561   4.670   5.532 -2.7456  4.5706 -1.0240
  744MOL0     H  410   4.763   4.815   5.708  0.8174 -0.6465  1.8224
  744MOL0     H  411   4.726   4.642   5.725  1.1801 -0.3625 -1.2378
  744MOL0     H  412   4.467   4.729   5.721  2.7940 -0.5580 -1.3606
  744MOL0     H  413   4.565   4.768   5.864  2.4529  0.3029 -0.0140
  744MOL0     H  414   4.487   4.957   5.651  1.3451 -1.6794 -0.7768
  744MOL0     H  415   4.594   5.002   5.789 -0.0745  1.1089 -2.7342
  744MOL0     H  416   4.303   4.907   5.815 -0.7282 -0.4757  2.4271
  744MOL0     H  417   4.394   4.955   5.946  0.9169  2.3129  0.5360
  744MOL0     H  418   4.210   5.089   5.840  0.2929 -0.7954  0.2580
  744MOL0     H  419   4.317   5.135   5.707  1.9760 -1.2991 -0.2943
  744MOL0     H  420   4.351   5.308   5.830 -0.0491 -0.8495 -1.1692
  744MOL0     H  421   4.483   5.189   5.883 -0.8811 -2.9931  0.0835
  744MOL0     H  422   5.087   4.878   5.483 -0.9039  1.7168  4.8573
  744MOL0     H  423   5.322   4.829   5.503  0.5475  1.6135  3.5185
  744MOL0     H  424   5.664   4.492   5.310 -1.1430 -0.8594  0.2540
  744MOL0     H  425   5.909   4.445   5.319 -1.6522 -0.4191 -1.5787
  744MOL0     H  426   6.453   3.620   6.722  0.6255  0.2463 -0.9052
  744MOL0     H  427   6.358   3.788   6.883 -0.0221 -0.0184 -2.1044
  744MOL0     H  428   6.582   4.127   7.372  2.8832  3.5336 -1.6727
  744MOL0     H  429   6.476   4.313   7.450 -1.4063 -1.9671  1.9599
  744MOL0     H  430   6.071   4.294   7.377 -0.9938  1.5989  0.2613
  744MOL0     H  431   6.145   4.406   7.508  2.4229  2.9947 -0.0454
  744MOL0     H  432   6.067   4.594   7.355 -2.1752  1.1149 -3.9215
  744MOL0     H  433   5.924   4.507   7.430 -1.5859  1.4390 -0.6718
  744MOL0     H  434   5.897   4.375   7.233 -0.0670  0.4065  0.8073
  744MOL0     H  435   6.034   4.448   7.151 -1.1275 -0.8365 -0.8113
  744MOL0     H  436   5.841   4.534   7.064 -1.9965  0.5380  1.4902
  744MOL0     H  437   5.929   4.670   7.146 -0.3440 -0.0350 -0.8272
  744MOL0     H  438   5.563   4.680   7.339 -0.2857  1.8746 -1.5497
  744MOL0     H  439   6.170   4.264   7.138 -0.9080  0.2890  1.3548
  744MOL0     H  440   6.262   4.036   7.094 -0.8817  2.3854 -1.8232
  745MOL0     O  441  10.257   5.836   5.434 -0.1344  0.1743 -0.0825
  745MOL0     C  442  10.194   5.891   5.357 -0.0095 -0.8317 -0.3401
  745MOL0     O  443  10.227   6.018   5.307  1.1483  0.1426 -0.2609
  745MOL0     C  444  10.350   6.073   5.329 -0.1144 -0.3426 -0.6835
  745MOL0     C  445  10.359   6.193   5.263 -0.5204  0.4529  0.1560
  745MOL0     C  446  10.476   6.272   5.272  0.0282 -0.1666  0.6519
  745MOL0     C  447  10.576   6.239   5.358 -1.0160  0.8383  0.1502
  745MOL0     O  448  10.689   6.331   5.360 -0.3455 -0.0688  0.3292
  745MOL0     C  449  10.820   6.271   5.386 -0.5365  0.3183 -0.7650
  745MOL0     C  450  10.933   6.353   5.338  0.4555  0.8989  0.2837
  745MOL0     C  451  10.958   6.473   5.428  1.1738  0.0412  0.1439
  745MOL0     C  452  11.074   6.563   5.379  0.4163 -0.3839  0.6724
  745MOL0     C  453  11.069   6.670   5.493  0.1515 -0.5832  0.3664
  745MOL0     C  454  11.182   6.763   5.487 -0.5898 -0.3204 -0.2073
  745MOL0     C  455  11.205   6.832   5.625 -0.3660 -0.3702 -0.2027
  745MOL0     C  456  11.250   6.982   5.626  0.2598 -0.6091 -0.6892
  745MOL0     N  457  11.392   7.014   5.587  1.0048  0.0256  0.6444
  745MOL0     C  458  11.444   6.998   5.462 -0.0424 -0.5027 -1.1634
  745MOL0     C  459  11.568   7.035   5.462 -0.7243  0.1536 -0.3351
  745MOL0     C  460  11.663   7.042   5.342  0.0514 -0.5673 -1.1542
  745MOL0     C  461  11.657   6.917   5.254 -0.1318 -0.2482  1.1302
  745MOL0     C  462  11.730   6.929   5.111 -0.4249 -0.5862  0.4023
  745MOL0     C  463  11.881   6.980   5.123  0.1023  0.4609 -0.0482
  745MOL0     O  464  11.950   6.966   5.000 -0.3520 -0.0974  0.8620
  745MOL0     C  465  12.084   7.002   5.007  0.1308 -0.3496  0.6695
  745MOL0     C  466  12.162   6.951   4.904 -0.2249  0.6752 -0.0020
  745MOL0     C  467  12.301   6.959   4.901 -0.0292  0.4165 -0.1171
  745MOL0     C  468  12.373   6.887   4.787 -0.5677  0.3197  0.0823
  745MOL0     C  469  12.374   7.020   5.008 -0.2866 -0.0099  0.6736
  745MOL0     C  470  12.528   7.035   5.014  1.0752  1.0095 -0.4088
  745MOL0     O  471  12.613   6.941   4.957  0.3689 -0.4558 -0.4588
  745MOL0     C  472  12.744   6.974   4.915  0.3322  0.8634 -0.0306
  745MOL0     C  473  12.828   6.867   4.894 -0.1486  0.7832  0.4253
  745MOL0     C  474  12.958   6.886   4.851 -0.4496  0.0628 -0.5487
  745MOL0     C  475  13.005   7.017   4.824 -0.5232  0.6510 -0.5089
  745MOL0     O  476  13.127   7.032   4.757 -0.4842  0.4140 -0.3046
  745MOL0     C  477  13.231   6.932   4.765  0.2224  0.3007 -0.3570
  745MOL0     C  478  13.284   6.901   4.907  0.4799 -0.0620  0.0878
  745MOL0     C  479  13.340   7.008   4.993 -0.1210 -0.1139  0.3286
  745MOL0     C  480  13.321   6.997   5.145 -1.4776  0.1645  0.6962
  745MOL0     C  481  13.417   7.092   5.222  0.5841 -0.5422 -1.2748
  745MOL0     C  482  13.359   7.103   5.372 -0.0427  0.4793  0.3026
  745MOL0     C  483  13.450   7.190   5.467  0.1901  0.0265 -0.1613
  745MOL0     C  484  13.582   7.117   5.493  1.0351 -0.3977 -0.6268
  745MOL0    Cl  485  13.538   6.963   5.583  0.1873 -0.1627 -0.5364
  745MOL0     C  486  12.916   7.118   4.841  0.0198  0.1058  0.5308
  745MOL0     C  487  12.789   7.100   4.892 -0.0992  0.1774  1.2491
  745MOL0     O  488  12.570   7.140   5.069  0.2662  0.7909  0.0572
  745MOL0     C  489  12.297   7.072   5.112  0.8715  0.1244 -0.9310
  745MOL0     C  490  12.154   7.059   5.119 -0.3693 -1.0432 -0.3871
  745MOL0     N  491  11.600   7.061   5.592 -0.1658  0.3318  0.3150
  745MOL0     N  492  11.493   7.055   5.666 -0.1841 -0.8928 -0.5414
  745MOL0     C  493  10.562   6.119   5.436 -0.5392 -0.0227 -0.2821
  745MOL0     C  494  10.449   6.038   5.423 -0.6148 -0.2876  0.2962
  745MOL0     C  495  10.065   5.842   5.313 -0.7695 -0.1719  0.0256
  745MOL0     C  496  10.027   5.707   5.311  0.0933 -0.8717 -0.6726
  745MOL0     C  497   9.895   5.666   5.290 -0.2858  0.2597 -0.4476
  745MOL0     C  498   9.793   5.768   5.260 -0.4436  0.6172 -0.4575
  745MOL0     O  499   9.665   5.722   5.249 -0.7038 -0.9093 -0.0760
  745MOL0     C  500   9.565   5.790   5.315 -0.7576  0.1363 -0.5826
  745MOL0     C  501   9.435   5.809   5.231  0.7586  0.0409 -0.5306
  745MOL0     C  502   9.475   5.882   5.099 -1.6688 -0.0037 -0.8965
  745MOL0     C  503   9.375   5.856   4.991  0.1543  0.0980 -0.2225
  745MOL0     C  504   9.397   5.953   4.877  0.2773  0.0583 -0.1764
  745MOL0     C  505   9.406   6.040   4.794  0.3862  0.8907 -0.9139
  745MOL0     C  506   9.833   5.900   5.250 -0.1915  0.8111  0.3065
  745MOL0     C  507   9.968   5.936   5.269 -0.1306 -0.0408 -1.0801
  745MOL0     H  508  10.280   6.232   5.199  0.5875  0.1569 -1.4648
  745MOL0     H  509  10.484   6.364   5.215 -2.7379 -0.7464 -0.8178
  745MOL0     H  510  10.835   6.270   5.494 -0.3692 -0.1580 -0.7911
  745MOL0     H  511  10.826   6.169   5.347  0.7453 -0.1749  0.6548
  745MOL0     H  512  11.025   6.293   5.335 -2.1605 -3.5316 -1.2035
  745MOL0     H  513  10.899   6.380   5.238 -1.2703  1.7234  1.0506
  745MOL0     H  514  10.864   6.529   5.436  0.8994 -0.3091 -0.5678
  745MOL0     H  515  10.992   6.438   5.525  0.2236 -0.5889  0.2678
  745MOL0     H  516  11.174   6.519   5.375  0.5016 -0.1922  0.6605
  745MOL0     H  517  11.063   6.610   5.281 -1.0622  1.7879  1.7965
  745MOL0     H  518  10.978   6.730   5.482 -2.2462 -3.6531  1.8631
  745MOL0     H  519  11.073   6.618   5.589 -1.6123  0.1934  0.9049
  745MOL0     H  520  11.273   6.708   5.460  0.2210  1.8986 -2.4130
  745MOL0     H  521  11.166   6.843   5.414 -1.1670  0.8562  1.1644
  745MOL0     H  522  11.131   6.805   5.701 -0.3660  0.6631  0.1869
  745MOL0     H  523  11.295   6.785   5.665  0.1963  2.9765  3.0129
  745MOL0     H  524  11.234   7.023   5.727  2.1019 -1.6231  0.0637
  745MOL0     H  525  11.186   7.029   5.551  0.4361 -2.7269 -2.2608
  745MOL0     H  526  11.384   6.975   5.374 -1.0375 -2.8381  0.0245
  745MOL0     H  527  11.629   7.129   5.285  2.8951  1.3685 -0.1453
  745MOL0     H  528  11.764   7.062   5.378 -1.4021  1.6265  2.2147
  745MOL0     H  529  11.557   6.876   5.235 -0.5177  0.8008  0.7630
  745MOL0     H  530  11.708   6.835   5.305  0.9082 -0.1761  0.2519
  745MOL0     H  531  11.667   6.995   5.049  1.0406  0.8423  0.3600
  745MOL0     H  532  11.733   6.830   5.066 -0.8507 -0.3738 -0.1096
  745MOL0     H  533  11.935   6.922   5.198 -1.5226 -0.7393  0.2465
  745MOL0     H  534  11.880   7.083   5.162  0.6602  0.8716 -1.0907
  745MOL0     H  535  12.107   6.894   4.830 -0.9907  2.1579 -0.6139
  745MOL0     H  536  12.329   6.798   4.741  3.2333 -0.9125 -1.6049
  745MOL0     H  537  12.391   6.959   4.707  1.5235  0.1114  0.3106
  745MOL0     H  538  12.463   6.839   4.825 -1.5458 -0.9457  0.8996
  745MOL0     H  539  12.804   6.766   4.924 -1.5451  1.0937  0.4352
  745MOL0     H  540  13.025   6.802   4.837 -3.4448 -3.0125  1.6841
  745MOL0     H  541  13.199   6.838   4.718 -1.5124  0.0705  1.1729
  745MOL0     H  542  13.317   6.971   4.710  0.5061  3.0318  1.8288
  745MOL0     H  543  13.203   6.870   4.974  0.2526  1.0239  0.3301
  745MOL0     H  544  13.357   6.822   4.889  0.6549  0.5100 -2.0295
  745MOL0     H  545  13.295   7.102   4.961 -1.0216 -1.4163 -2.5820
  745MOL0     H  546  13.448   7.009   4.977 -0.2064 -1.3810 -0.4293
  745MOL0     H  547  13.215   7.014   5.160 -1.6669  0.6833 -0.9835
  745MOL0     H  548  13.339   6.892   5.171  0.3369 -0.3530 -2.1641
  745MOL0     H  549  13.415   7.197   5.191  2.3222  0.3113  1.1938
  745MOL0     H  550  13.517   7.050   5.214  1.1922  1.0078 -2.2646
  745MOL0     H  551  13.257   7.142   5.376 -1.2360 -2.3320  0.3281
  745MOL0     H  552  13.353   7.002   5.415  2.3428 -1.4519 -3.3900
  745MOL0     H  553  13.391   7.212   5.557 -0.3930 -2.0019  0.0003
  745MOL0     H  554  13.458   7.284   5.413 -4.4017  0.8326  0.1209
  745MOL0     H  555  13.643   7.183   5.555 -0.1271  1.1342 -1.0365
  745MOL0     H  556  13.629   7.104   5.396 -1.7096  3.0860 -2.6891
  745MOL0     H  557  12.948   7.217   4.809 -0.5581  0.0525 -0.2622
  745MOL0     H  558  12.721   7.183   4.907  1.8068  2.4847 -1.6458
  745MOL0     H  559  12.332   7.122   5.202 -1.6527  2.0060 -0.8720
  745MOL0     H  560  12.093   7.091   5.204 -1.3486  1.0684 -1.7994
  745MOL0     H  561  10.642   6.098   5.505 -1.7484  0.4247  1.3153
  745MOL0     H  562  10.444   5.954   5.492  2.1811 -0.4761  0.4193
  745MOL0     H  563  10.095   5.626   5.338  0.7512 -0.6005 -1.4705
  745MOL0     H  564   9.868   5.561   5.293  2.4789 -0.5045 -0.2604
  745MOL0     H  565   9.541   5.735   5.406 -0.7268  0.0325 -0.6364
  745MOL0     H  566   9.596   5.884   5.362  0.0561 -0.7729  0.7465
  745MOL0     H  567   9.364   5.866   5.291  2.1060 -0.9134  2.1136
  745MOL0     H  568   9.386   5.719   5.194 -2.0180  2.3799 -3.1135
  745MOL0     H  569   9.573   5.850   5.062 -0.7474  2.7738 -1.0947
  745MOL0     H  570   9.497   5.986   5.124  1.7146 -0.7297 -0.4082
  745MOL0     H  571   9.272   5.861   5.026  0.8848 -1.6848  2.3992
  745MOL0     H  572   9.393   5.755   4.953  2.0905  0.8676 -1.4885
  745MOL0     H  573   9.417   6.119   4.723  4.7937  0.6642 -0.7582
  745MOL0     H  574   9.769   5.988   5.240 -2.1793 -0.5083  0.7288
  745MOL0     H  575   9.983   6.043   5.270  1.4661 -0.2396  0.0346
  746MOL0     O  576  11.394   9.150   6.992 -0.3386 -0.1421  0.5469
  746MOL0     C  577  11.441   9.255   7.027 -0.6379 -0.0398 -0.5266
  746MOL0     O  578  11.367   9.357   7.062  0.2759 -0.4156  0.1100
  746MOL0     C  579  11.230   9.344   7.063  0.0355  0.0782  1.0985
  746MOL0     C  580  11.166   9.272   7.162 -0.7134  0.2795 -0.4295
  746MOL0     C  581  11.028   9.260   7.177 -0.3791 -0.2659 -0.1872
  746MOL0     C  582  10.951   9.300   7.062  0.1047  0.2144  0.2174
  746MOL0     O  583  10.819   9.273   7.053 -0.2603  0.0052 -0.4222
  746MOL0     C  584  10.741   9.346   6.958  0.6584 -0.0536 -0.1078
  746MOL0     C  585  10.601   9.357   7.031  0.3134  0.7801  0.5660
  746MOL0     C  586  10.517   9.461   6.963 -0.1242  0.4900 -0.0257
  746MOL0     C  587  10.396   9.483   7.054  0.4553 -0.3311  0.4916
  746MOL0     C  588  10.272   9.535   6.990 -0.2265 -0.3925 -0.0898
  746MOL0     C  589  10.184   9.605   7.099 -0.0639  0.0547  0.0623
  746MOL0     C  590  10.093   9.710   7.030 -0.5054  0.6571 -0.4270
  746MOL0     C  591  10.158   9.849   7.033  1.2319 -0.3222  0.1741
  746MOL0     N  592  10.259   9.874   6.929 -1.5969 -0.1428 -0.3584
  746MOL0     C  593  10.234   9.885   6.792  0.0569 -0.1570  0.0069
  746MOL0     C  594  10.360   9.913   6.730  0.8734  0.0409 -0.7384
  746MOL0     C  595  10.384   9.927   6.585 -0.1102  0.1132  0.1957
  746MOL0     C  596  10.363  10.069   6.540  0.5313  0.2906 -0.1884
  746MOL0     C  597  10.297  10.081   6.398  0.3827 -0.1363 -0.0596
  746MOL0     C  598  10.223  10.220   6.373 -0.0727  0.7138 -0.8979
  746MOL0     O  599  10.294  10.326   6.439  0.6282  0.3742  0.0899
  746MOL0     C  600  10.365  10.398   6.346  0.7222 -0.1093 -0.8493
  746MOL0     C  601  10.498  10.425   6.382  0.4332  0.4648  0.1601
  746MOL0     C  602  10.587  10.497   6.299  0.0578  0.8240 -0.3082
  746MOL0     C  603  10.737  10.506   6.335  0.2141  0.4895 -0.1418
  746MOL0     C  604  10.531  10.559   6.184 -0.0478  0.1013  0.5445
  746MOL0     C  605  10.607  10.635   6.094 -0.2611 -0.7045  0.9012
  746MOL0     O  606  10.573  10.636   5.962 -0.6079 -0.2568 -0.5039
  746MOL0     C  607  10.650  10.672   5.858 -0.3550 -0.7574  0.3632
  746MOL0     C  608  10.788  10.675   5.861 -0.3435  0.2047 -0.1452
  746MOL0     C  609  10.862  10.719   5.749 -0.6123  0.1793 -0.7823
  746MOL0     C  610  10.799  10.745   5.627 -0.3855 -0.1351  0.2022
  746MOL0     O  611  10.880  10.781   5.526 -0.1526 -0.5320 -0.0168
  746MOL0     C  612  10.810  10.811   5.407 -0.0218 -1.0313  0.5764
  746MOL0     C  613  10.907  10.825   5.291 -0.3173  0.4309 -0.9919
  746MOL0     C  614  11.001  10.943   5.287  0.1042  0.7320 -0.4979
  746MOL0     C  615  11.098  10.937   5.162 -0.8407 -0.1017 -0.3569
  746MOL0     C  616  11.230  11.024   5.172 -0.2388  0.5488 -0.3831
  746MOL0     C  617  11.195  11.161   5.133 -0.3061  0.5991 -0.3594
  746MOL0     C  618  11.315  11.256   5.127  0.4871 -0.0033 -0.6992
  746MOL0     C  619  11.438  11.215   5.046  1.0151  0.2892 -0.2324
  746MOL0    Cl  620  11.391  11.203   4.870 -0.1073 -0.0815  0.4959
  746MOL0     C  621  10.659  10.737   5.625 -0.2859  0.0053  0.5523
  746MOL0     C  622  10.587  10.701   5.736 -0.5828 -0.6612  0.4822
  746MOL0     O  623  10.690  10.711   6.144 -0.0259 -0.8105  0.5683
  746MOL0     C  624  10.400  10.540   6.152 -0.2439 -0.7164  0.3801
  746MOL0     C  625  10.317  10.462   6.233  0.4143 -0.0731  0.3152
  746MOL0     N  626  10.447   9.921   6.836 -0.1984  0.6926 -0.2578
  746MOL0     N  627  10.391   9.896   6.952  0.4954 -0.2344  0.2617
  746MOL0     C  628  11.021   9.346   6.946  1.2450  0.4097 -0.2742
  746MOL0     C  629  11.159   9.372   6.950 -0.0242  0.2616 -0.3892
  746MOL0     C  630  11.583   9.278   7.016 -1.2670 -0.0663  0.5426
  746MOL0     C  631  11.648   9.409   7.012  0.9352  0.5331  0.3290
  746MOL0     C  632  11.786   9.419   7.014  0.4540 -0.1867 -0.5410
  746MOL0     C  633  11.869   9.307   7.022 -0.5246  0.3400 -0.2331
  746MOL0     O  634  12.001   9.320   7.038 -0.8254  0.2449 -0.2665
  746MOL0     C  635  12.060   9.432   7.096  0.4221  0.7227 -0.6698
  746MOL0     C  636  12.213   9.397   7.125  0.0392  0.3985 -0.4452
  746MOL0     C  637  12.295   9.342   7.008  0.2958 -0.4520 -0.6495
  746MOL0     C  638  12.445   9.377   7.024  0.1220 -0.5324  0.8395
  746MOL0     C  639  12.524   9.359   6.902  0.1293 -0.4309  0.4635
  746MOL0     C  640  12.590   9.329   6.804 -0.2429  0.6292 -0.0509
  746MOL0     C  641  11.809   9.182   7.013 -0.0625  0.3550  0.2873
  746MOL0     C  642  11.670   9.166   7.016  1.0727  0.9679  0.0824
  746MOL0     H  643  11.223   9.221   7.239 -2.5233 -0.7251  0.3018
  746MOL0     H  644  10.981   9.203   7.257 -0.6177 -1.8234 -1.4012
  746MOL0     H  645  10.784   9.446   6.945 -3.0980  1.9028  1.2048
  746MOL0     H  646  10.733   9.298   6.860 -0.6489 -0.3952  0.1583
  746MOL0     H  647  10.553   9.259   7.030  3.5539 -0.9745 -1.4554
  746MOL0     H  648  10.609   9.387   7.136 -2.0434  2.4485  0.3569
  746MOL0     H  649  10.564   9.560   6.951  1.3340 -0.1056  0.4832
  746MOL0     H  650  10.492   9.420   6.865  0.0589 -0.6384  0.3800
  746MOL0     H  651  10.376   9.390   7.108  1.5567 -0.3402  0.9178
  746MOL0     H  652  10.426   9.552   7.134 -2.6128 -0.0781  1.5486
  746MOL0     H  653  10.305   9.613   6.921 -1.1955  1.0645  1.0057
  746MOL0     H  654  10.233   9.451   6.932 -1.8628  1.2682 -1.5247
  746MOL0     H  655  10.121   9.532   7.152  0.0800  0.7979  1.2928
  746MOL0     H  656  10.245   9.647   7.180 -1.3348  0.4025  0.8750
  746MOL0     H  657  10.075   9.681   6.926  2.7681 -3.8102 -0.0729
  746MOL0     H  658   9.993   9.710   7.073 -1.5933 -1.2707 -2.7504
  746MOL0     H  659  10.203   9.864   7.131 -0.7320  2.1659  0.7980
  746MOL0     H  660  10.079   9.924   7.030  2.3199  1.1165  3.4261
  746MOL0     H  661  10.133   9.873   6.752 -0.6853  0.8503  1.4949
  746MOL0     H  662  10.485   9.891   6.566 -0.5571  0.2905 -2.9835
  746MOL0     H  663  10.315   9.862   6.531 -0.7421  3.4244 -3.3884
  746MOL0     H  664  10.465  10.110   6.534  0.2896  0.8963 -0.2424
  746MOL0     H  665  10.303  10.125   6.612  1.7801 -0.0821  1.1846
  746MOL0     H  666  10.228  10.003   6.367  0.0109  0.9438 -2.1498
  746MOL0     H  667  10.376  10.065   6.324 -0.7597 -0.2891 -1.2875
  746MOL0     H  668  10.126  10.210   6.422  0.3990  2.1640  0.4111
  746MOL0     H  669  10.219  10.235   6.264  2.2550  1.6110 -0.9284
  746MOL0     H  670  10.540  10.397   6.478  2.5559 -0.7206 -1.0557
  746MOL0     H  671  10.740  10.587   6.408 -1.5660  4.9822 -4.4758
  746MOL0     H  672  10.774  10.412   6.376  1.8055  0.2372 -2.0360
  746MOL0     H  673  10.807  10.524   6.253 -0.6519  3.7582 -0.3042
  746MOL0     H  674  10.845  10.652   5.951 -1.1338 -0.5485  0.1702
  746MOL0     H  675  10.970  10.726   5.752 -0.6323  0.4912 -0.7843
  746MOL0     H  676  10.729  10.743   5.380 -0.0039 -0.1240 -2.1164
  746MOL0     H  677  10.761  10.907   5.426  0.1300 -0.9331  0.4811
  746MOL0     H  678  10.965  10.732   5.301 -1.8234 -0.4259  0.3474
  746MOL0     H  679  10.853  10.823   5.196  1.1709  0.7913 -1.8761
  746MOL0     H  680  11.063  10.961   5.375  0.5724 -0.8858 -0.4636
  746MOL0     H  681  10.949  11.038   5.269  1.1343  1.5493  0.7065
  746MOL0     H  682  11.129  10.833   5.164 -0.0162  0.1378  1.6359
  746MOL0     H  683  11.058  10.963   5.063  1.4979 -0.6721 -1.5283
  746MOL0     H  684  11.296  10.966   5.107  1.2642  1.7102  0.0410
  746MOL0     H  685  11.274  11.028   5.272 -2.6649  0.0755  0.7736
  746MOL0     H  686  11.161  11.152   5.029 -0.5807 -0.0550 -0.2201
  746MOL0     H  687  11.112  11.196   5.196 -1.1468  0.8899 -1.5872
  746MOL0     H  688  11.353  11.265   5.229 -0.7103 -0.0470 -0.2449
  746MOL0     H  689  11.286  11.357   5.095  0.4773  1.1094  2.4750
  746MOL0     H  690  11.466  11.112   5.069 -1.2808 -0.1313  0.8887
  746MOL0     H  691  11.515  11.292   5.060  1.2295  0.4384 -1.9884
  746MOL0     H  692  10.592  10.767   5.545  1.8463 -0.4317 -1.5166
  746MOL0     H  693  10.479  10.691   5.727 -0.7407 -0.2843  1.8067
  746MOL0     H  694  10.352  10.572   6.059 -0.4825 -0.0793  0.7160
  746MOL0     H  695  10.212  10.441   6.220  0.0912  0.6256  1.6119
  746MOL0     H  696  10.972   9.354   6.850  2.6989 -1.3694 -1.2356
  746MOL0     H  697  11.213   9.415   6.866  0.1221  2.8326  0.9203
  746MOL0     H  698  11.582   9.495   7.014 -2.4782 -1.8915  1.7723
  746MOL0     H  699  11.829   9.519   7.014  2.8297 -1.1170 -1.9434
  746MOL0     H  700  12.052   9.516   7.027  2.5743 -0.3439 -2.3588
  746MOL0     H  701  12.001   9.470   7.179 -0.5724 -0.5235 -0.7707
  746MOL0     H  702  12.222   9.317   7.199 -0.1213 -2.0086 -2.8847
  746MOL0     H  703  12.257   9.492   7.159  2.5940 -1.5055  2.0615
  746MOL0     H  704  12.257   9.382   6.914  0.8518  0.6474 -0.4206
  746MOL0     H  705  12.277   9.234   7.008 -0.9093 -0.2954  0.8597
  746MOL0     H  706  12.484   9.313   7.103  0.4070  0.5325  1.5849
  746MOL0     H  707  12.446   9.481   7.059 -1.4121  0.5939 -2.0534
  746MOL0     H  708  12.669   9.302   6.737  2.0248  1.8004  1.9877
  746MOL0     H  709  11.879   9.101   7.030 -1.1966 -0.4996  0.9528
  746MOL0     H  710  11.626   9.067   7.005  0.5553  1.4651 -4.0419
  747MOL0     O  711   1.471  11.390   3.361  0.1678 -0.7125  0.6046
  747MOL0     C  712   1.440  11.327   3.460 -0.0042  0.5516  0.8406
  747MOL0     O  713   1.464  11.360   3.594 -0.0085 -0.7216 -0.2074
  747MOL0     C  714   1.560  11.453   3.619 -0.1643 -0.6022  0.3959
  747MOL0     C  715   1.563  11.574   3.552  0.5671  1.2099  0.8692
  747MOL0     C  716   1.678  11.654   3.553 -0.1378 -0.0068 -0.6742
  747MOL0     C  717   1.773  11.639   3.651  0.0586  0.3702 -0.2858
  747MOL0     O  718   1.867  11.740   3.662  0.2081  0.3132  0.2361
  747MOL0     C  719   2.002  11.692   3.646 -0.1458 -0.4857  0.1708
  747MOL0     C  720   2.097  11.800   3.694 -0.4169 -0.0161 -0.1905
  747MOL0     C  721   2.088  11.803   3.842  0.0290  0.2296  0.2650
  747MOL0     C  722   2.187  11.889   3.910 -1.3703 -0.4872 -0.8060
  747MOL0     C  723   2.194  11.889   4.065 -0.0386  0.6488  0.5954
  747MOL0     C  724   2.259  12.013   4.116 -0.3168 -0.1478  0.3087
  747MOL0     C  725   2.236  12.034   4.260  0.0643 -0.0183 -0.7241
  747MOL0     C  726   2.289  11.920   4.341 -0.0492  0.2374 -0.3398
  747MOL0     N  727   2.252  11.918   4.479  0.2729 -0.2414 -0.0202
  747MOL0     C  728   2.286  12.026   4.562  0.4549 -0.5111  0.1975
  747MOL0     C  729   2.222  12.000   4.683  0.0032 -0.1208 -0.6669
  747MOL0     C  730   2.213  12.078   4.807  0.7072  1.3039  0.2806
  747MOL0     C  731   2.287  12.201   4.784  0.5928  0.1137  0.0990
  747MOL0     C  732   2.303  12.274   4.919  0.5343  0.6699 -0.8421
  747MOL0     C  733   2.365  12.409   4.883 -0.4610 -0.3034 -0.5176
  747MOL0     O  734   2.494  12.390   4.832  0.5181  0.1013 -0.3369
  747MOL0     C  735   2.599  12.471   4.856 -0.3285  0.0687 -0.3167
  747MOL0     C  736   2.717  12.449   4.784 -0.7330 -0.0902  0.5138
  747MOL0     C  737   2.839  12.510   4.803 -1.4294  0.0157  1.1517
  747MOL0     C  738   2.967  12.453   4.741 -0.5165 -1.0146  0.6111
  747MOL0     C  739   2.839  12.614   4.905 -0.1465 -0.2393  1.3359
  747MOL0     C  740   2.962  12.684   4.946 -0.7860 -0.2668  0.3715
  747MOL0     O  741   2.949  12.746   5.073  0.2300  0.5444  0.3308
  747MOL0     C  742   3.041  12.830   5.119  0.0165 -1.1050  0.2716
  747MOL0     C  743   3.007  12.961   5.144 -0.5947 -0.2939  0.3904
  747MOL0     C  744   3.101  13.038   5.211 -0.2288  0.2659 -0.9084
  747MOL0     C  745   3.219  12.974   5.265 -0.0399 -0.5762 -0.0587
  747MOL0     O  746   3.319  13.032   5.338 -0.6409  0.9797  0.2216
  747MOL0     C  747   3.294  13.153   5.411 -0.4724 -1.2147 -0.0140
  747MOL0     C  748   3.430  13.215   5.441  0.1502 -0.0219  0.4632
  747MOL0     C  749   3.433  13.346   5.517 -0.1831  0.7831  0.6481
  747MOL0     C  750   3.580  13.396   5.522 -0.4033 -0.1843 -0.2958
  747MOL0     C  751   3.596  13.485   5.641  0.4137 -0.3473 -1.4935
  747MOL0     C  752   3.602  13.395   5.767  0.2346  0.0417 -0.2031
  747MOL0     C  753   3.657  13.479   5.885 -0.1762 -0.6596 -0.5611
  747MOL0     C  754   3.664  13.397   6.013 -0.7873 -0.7148  0.3432
  747MOL0    Cl  755   3.506  13.365   6.088  0.2374  0.4754 -0.1162
  747MOL0     C  756   3.241  12.841   5.235 -0.4570 -0.1268  0.7680
  747MOL0     C  757   3.150  12.772   5.161  0.6790  0.1638  0.4789
  747MOL0     O  758   3.064  12.691   4.877  0.4681  0.4678  0.5881
  747MOL0     C  759   2.719  12.647   4.969 -0.3212  0.4689 -0.3980
  747MOL0     C  760   2.598  12.584   4.940  0.0354 -0.3003  0.6051
  747MOL0     N  761   2.141  11.889   4.659  0.0732 -0.9179 -0.0860
  747MOL0     N  762   2.152  11.847   4.533 -0.4547 -0.2553  0.4135
  747MOL0     C  763   1.761  11.533   3.751  0.9687 -0.4515 -0.0407
  747MOL0     C  764   1.661  11.438   3.724  0.1489 -0.6405 -0.0834
  747MOL0     C  765   1.365  11.206   3.423  0.3961  1.4527 -0.3908
  747MOL0     C  766   1.316  11.169   3.291  0.4377  0.1187  0.5054
  747MOL0     C  767   1.267  11.043   3.262 -0.5935 -0.3292 -0.4009
  747MOL0     C  768   1.260  10.949   3.363  0.7320  0.1532 -1.1755
  747MOL0     O  769   1.199  10.827   3.353  0.0108 -0.4610  0.6887
  747MOL0     C  770   1.273  10.709   3.377  0.7201  0.4449  0.6050
  747MOL0     C  771   1.393  10.688   3.272 -0.4448  0.8316  0.0420
  747MOL0     C  772   1.342  10.645   3.132 -0.9768  0.1668 -0.7793
  747MOL0     C  773   1.309  10.492   3.139 -0.0333  0.8314 -0.3782
  747MOL0     C  774   1.159  10.465   3.155 -0.7274  0.9187 -0.0504
  747MOL0     C  775   1.042  10.433   3.162  0.8863 -0.1493 -0.5444
  747MOL0     C  776   1.295  10.983   3.499  0.0613 -0.2971 -0.2848
  747MOL0     C  777   1.349  11.109   3.519 -0.3105  0.2092 -0.3943
  747MOL0     H  778   1.489  11.595   3.476  1.4586 -0.8200 -0.6458
  747MOL0     H  779   1.680  11.750   3.503 -3.2032  1.8260  2.2989
  747MOL0     H  780   2.015  11.594   3.694 -0.7194 -1.9393 -2.4718
  747MOL0     H  781   2.023  11.687   3.539 -2.1144  1.7047 -0.3909
  747MOL0     H  782   2.196  11.775   3.654  0.2437  0.7290  0.9247
  747MOL0     H  783   2.066  11.898   3.656  1.3737  1.1824  1.2410
  747MOL0     H  784   1.991  11.840   3.877  1.0748  1.7949  1.6737
  747MOL0     H  785   2.104  11.701   3.876  1.7016  0.8197  1.4060
  747MOL0     H  786   2.288  11.869   3.871 -1.1046 -2.3170  0.6945
  747MOL0     H  787   2.152  11.992   3.898 -1.3035  0.3975  4.3869
  747MOL0     H  788   2.087  11.899   4.087  0.1660 -2.0893  3.5572
  747MOL0     H  789   2.249  11.802   4.101  2.7744  1.9835 -0.2035
  747MOL0     H  790   2.367  12.005   4.103 -0.1386  0.8239  1.1359
  747MOL0     H  791   2.220  12.105   4.071 -0.6279  0.2632  1.3858
  747MOL0     H  792   2.287  12.125   4.289 -1.6029  1.0862 -1.1119
  747MOL0     H  793   2.129  12.041   4.285  0.4990 -3.3488  3.1386
  747MOL0     H  794   2.397  11.927   4.328 -0.2719 -0.0213 -2.7312
  747MOL0     H  795   2.271  11.821   4.299 -0.3992 -1.9511  4.3824
  747MOL0     H  796   2.340  12.110   4.520  2.0102 -1.3136  0.5167
  747MOL0     H  797   2.111  12.101   4.841 -0.8286 -1.3948 -2.0587
  747MOL0     H  798   2.253  12.018   4.889 -1.4797 -0.7271 -0.0096
  747MOL0     H  799   2.233  12.267   4.715  1.1745  0.4188 -0.0755
  747MOL0     H  800   2.387  12.178   4.748 -0.4018  1.2699 -3.8341
  747MOL0     H  801   2.369  12.211   4.979  0.3430  0.0515 -1.2730
  747MOL0     H  802   2.213  12.283   4.982  2.6265 -3.8353  3.4700
  747MOL0     H  803   2.355  12.481   4.965 -1.7698  0.7719 -1.5782
  747MOL0     H  804   2.306  12.455   4.803  1.2486  1.7098 -0.7259
  747MOL0     H  805   2.726  12.376   4.704 -2.8775  1.0473 -0.8474
  747MOL0     H  806   2.960  12.360   4.684 -1.4188  1.6460 -4.1202
  747MOL0     H  807   3.006  12.532   4.676 -1.6393 -2.2748 -1.6945
  747MOL0     H  808   3.039  12.448   4.823  1.0451  2.0787 -0.3851
  747MOL0     H  809   2.911  12.998   5.108 -0.4413 -1.2227 -1.0644
  747MOL0     H  810   3.077  13.137   5.248 -2.4995 -0.6046  0.1595
  747MOL0     H  811   3.244  13.229   5.350  1.8091 -0.1127 -0.5957
  747MOL0     H  812   3.227  13.137   5.497 -1.9132  1.0169 -0.6317
  747MOL0     H  813   3.492  13.137   5.485 -1.8886  0.1935  4.0693
  747MOL0     H  814   3.476  13.233   5.343 -0.4365 -2.0931 -0.2527
  747MOL0     H  815   3.393  13.329   5.618  1.2924 -0.5082  1.0498
  747MOL0     H  816   3.384  13.425   5.459 -2.4047  0.2715  1.7012
  747MOL0     H  817   3.660  13.321   5.529  2.3667  2.2577 -2.7802
  747MOL0     H  818   3.618  13.445   5.432  3.8523  1.1679  1.9455
  747MOL0     H  819   3.506  13.547   5.646 -1.0358 -2.3913 -1.0788
  747MOL0     H  820   3.693  13.535   5.637  0.7697 -0.5578  1.6455
  747MOL0     H  821   3.506  13.350   5.794  0.4596 -0.7672 -0.7295
  747MOL0     H  822   3.663  13.306   5.749 -0.3235  0.1987 -3.4589
  747MOL0     H  823   3.590  13.564   5.902 -0.8455 -1.4229  0.8099
  747MOL0     H  824   3.753  13.526   5.863 -0.2347 -0.7922 -1.1105
  747MOL0     H  825   3.724  13.444   6.091  1.3672  0.2431 -1.7865
  747MOL0     H  826   3.711  13.304   5.980  1.5365  0.5211 -0.0026
  747MOL0     H  827   3.338  12.801   5.263  0.7327  1.5882 -0.7208
  747MOL0     H  828   3.167  12.670   5.129  0.6527  1.0694 -2.7723
  747MOL0     H  829   2.716  12.716   5.053 -2.2185 -0.9856  0.8313
  747MOL0     H  830   2.504  12.613   4.986 -0.1716 -3.4341  2.4975
  747MOL0     H  831   1.827  11.534   3.837 -2.3631  3.2218  2.8843
  747MOL0     H  832   1.645  11.354   3.791 -1.3307 -0.5098 -0.2372
  747MOL0     H  833   1.294  11.249   3.221 -0.8401 -0.9039 -0.3203
  747MOL0     H  834   1.224  11.029   3.163  0.7411  2.7535 -1.5528
  747MOL0     H  835   1.306  10.693   3.480 -0.6020 -2.2554  0.6986
  747MOL0     H  836   1.199  10.630   3.367  1.6205 -0.2169 -1.2223
  747MOL0     H  837   1.474  10.622   3.304 -0.4457 -0.0293 -1.6009
  747MOL0     H  838   1.443  10.785   3.258 -3.1315  2.1122 -1.7089
  747MOL0     H  839   1.429  10.648   3.066 -3.6794 -0.8514 -4.8061
  747MOL0     H  840   1.258  10.709   3.103  0.0027  1.6721 -0.3625
  747MOL0     H  841   1.376  10.451   3.215  1.6755  0.9516 -1.7562
  747MOL0     H  842   1.351  10.458   3.044 -0.2145  0.3347 -0.2804
  747MOL0     H  843   0.937  10.413   3.171  0.4608  2.4993  2.8385
  747MOL0     H  844   1.297  10.904   3.574 -0.9184  1.4202  1.6423
  747MOL0     H  845   1.395  11.141   3.612 -1.3935  2.7522 -0.6390
  748MOL0     O  846   7.982   3.492   6.386  0.4529  0.4295 -0.7546
  748MOL0     C  847   8.003   3.569   6.295 -1.8912  0.4513  0.2546
  748MOL0     O  848   7.998   3.703   6.289  1.0057 -0.0231  0.3950
  748MOL0     C  849   7.958   3.769   6.409  0.3332 -0.6602  0.2543
  748MOL0     C  850   8.035   3.762   6.519  0.3599 -0.6470 -0.8709
  748MOL0     C  851   8.008   3.835   6.630 -0.1923 -0.6536 -0.2581
  748MOL0     C  852   7.896   3.926   6.634 -0.3094  0.5822 -0.2973
  748MOL0     O  853   7.877   3.996   6.756  0.8413  0.3539  0.3740
  748MOL0     C  854   7.784   3.927   6.853  0.2371 -1.2157 -0.4970
  748MOL0     C  855   7.813   3.970   6.999 -0.3714 -0.2466 -0.5156
  748MOL0     C  856   7.958   3.954   7.040 -0.2700 -0.6019  0.5866
  748MOL0     C  857   8.036   4.083   7.020  0.1384  0.0394 -0.3977
  748MOL0     C  858   8.176   4.069   7.082  0.3593  0.5140  0.5529
  748MOL0     C  859   8.268   3.961   7.012 -1.2104 -0.3850 -0.3426
  748MOL0     C  860   8.313   4.022   6.878 -0.2685  0.8839  0.0616
  748MOL0     C  861   8.436   3.951   6.817  0.2712 -0.3190 -0.6341
  748MOL0     N  862   8.418   3.802   6.802  1.0382 -0.2608 -0.0183
  748MOL0     C  863   8.469   3.705   6.875 -0.1985 -0.6274  0.2952
  748MOL0     C  864   8.420   3.588   6.838  0.5029  0.2432  0.0545
  748MOL0     C  865   8.472   3.449   6.889 -0.3814 -0.3766  0.6552
  748MOL0     C  866   8.457   3.443   7.034  0.2202  0.9405 -0.9312
  748MOL0     C  867   8.308   3.468   7.078  0.3366 -0.1052  0.3181
  748MOL0     C  868   8.279   3.434   7.224  0.3639 -0.5113  0.0880
  748MOL0     O  869   8.326   3.295   7.242 -0.4627 -0.0597  0.1757
  748MOL0     C  870   8.260   3.230   7.338  0.0104  0.0642 -0.2533
  748MOL0     C  871   8.310   3.214   7.469 -0.2355  0.4457  0.2738
  748MOL0     C  872   8.236   3.145   7.568 -0.5207 -0.8726  0.6676
  748MOL0     C  873   8.292   3.136   7.702 -0.9163  0.1492 -1.1639
  748MOL0     C  874   8.107   3.099   7.531 -0.1812 -0.3389  0.0672
  748MOL0     C  875   8.012   3.029   7.624  0.5546  0.8270  0.9632
  748MOL0     O  876   7.885   3.016   7.580  0.5133 -0.1770  0.4985
  748MOL0     C  877   7.793   2.943   7.643 -0.4696 -0.4176 -0.4656
  748MOL0     C  878   7.709   2.864   7.568 -0.4566  0.8564 -0.0697
  748MOL0     C  879   7.610   2.787   7.630  0.1570 -0.3509 -0.0625
  748MOL0     C  880   7.578   2.797   7.764  0.6289 -1.2116  0.6701
  748MOL0     O  881   7.476   2.713   7.806 -0.1250 -1.1127 -0.2570
  748MOL0     C  882   7.486   2.632   7.928 -0.2157 -0.1716 -0.8800
  748MOL0     C  883   7.387   2.513   7.910 -0.4549 -0.0800  0.4014
  748MOL0     C  884   7.239   2.544   7.924  0.8845 -0.5105 -0.1898
  748MOL0     C  885   7.195   2.605   8.060 -0.3812 -0.6704  0.3446
  748MOL0     C  886   7.045   2.617   8.066 -0.4844  0.0029 -0.5425
  748MOL0     C  887   6.987   2.691   8.180  0.1903  0.0891  0.4870
  748MOL0     C  888   6.841   2.735   8.166  0.3828 -0.4437  0.1369
  748MOL0     C  889   6.799   2.835   8.274 -0.0572 -0.2245  0.0031
  748MOL0    Cl  890   6.890   2.988   8.269 -0.1809  0.0345  0.1171
  748MOL0     C  891   7.662   2.882   7.834  1.0594 -0.2369 -0.3911
  748MOL0     C  892   7.764   2.962   7.777  0.6715 -0.6956  0.6539
  748MOL0     O  893   8.058   2.974   7.715  0.1858 -0.2479 -0.0852
  748MOL0     C  894   8.056   3.105   7.401  0.1939  0.9031  0.1561
  748MOL0     C  895   8.136   3.173   7.308  0.3230 -0.7005  0.3059
  748MOL0     N  896   8.324   3.618   6.744 -0.2114 -0.5112 -0.0782
  748MOL0     N  897   8.327   3.739   6.719  0.1369 -0.6413 -0.1375
  748MOL0     C  898   7.826   3.947   6.517 -0.1043 -0.2285  0.0939
  748MOL0     C  899   7.852   3.863   6.410  0.9764 -0.1605  0.2997
  748MOL0     C  900   8.037   3.501   6.172  0.1781  0.0480  0.2153
  748MOL0     C  901   8.028   3.356   6.149  0.1824  0.3818 -0.3682
  748MOL0     C  902   8.058   3.294   6.026 -0.2328 -0.0745  1.0686
  748MOL0     C  903   8.109   3.367   5.922  0.8451  0.6768  0.3513
  748MOL0     O  904   8.157   3.288   5.825  0.8652 -0.0996  0.2841
  748MOL0     C  905   8.235   3.329   5.713  0.6184 -0.5445 -0.6772
  748MOL0     C  906   8.309   3.213   5.642  0.1632  0.9106 -0.6393
  748MOL0     C  907   8.225   3.148   5.534 -0.3165  0.2638  0.2287
  748MOL0     C  908   8.297   3.074   5.428  0.1913  0.4503  0.2938
  748MOL0     C  909   8.344   2.936   5.461 -0.7946 -0.0258 -0.2876
  748MOL0     C  910   8.368   2.824   5.506  0.0918 -0.2974 -0.0997
  748MOL0     C  911   8.120   3.504   5.933 -0.6944 -0.2246 -0.0885
  748MOL0     C  912   8.090   3.565   6.059  0.1252 -0.1568 -1.1099
  748MOL0     H  913   8.117   3.691   6.526  1.6369  0.9059  0.7130
  748MOL0     H  914   8.070   3.822   6.717 -0.6893 -0.0505  0.1983
  748MOL0     H  915   7.678   3.954   6.848  0.2960 -1.1285 -1.4795
  748MOL0     H  916   7.799   3.819   6.846 -1.1966 -1.4336 -0.4909
  748MOL0     H  917   7.784   4.074   7.011  0.2976 -0.2369  1.3526
  748MOL0     H  918   7.756   3.912   7.074 -0.1911  0.6185  0.3095
  748MOL0     H  919   7.956   3.947   7.149 -2.2199  0.8223  0.7019
  748MOL0     H  920   8.001   3.862   6.999 -0.2975  0.2770 -1.5638
  748MOL0     H  921   8.026   4.112   6.916 -1.7201  1.0556  0.0317
  748MOL0     H  922   7.993   4.166   7.076 -1.2813  0.8058 -2.5115
  748MOL0     H  923   8.230   4.163   7.068  3.2719 -0.9364  1.2122
  748MOL0     H  924   8.155   4.047   7.187  0.0653  0.4941  0.4920
  748MOL0     H  925   8.345   3.942   7.087  0.2794 -2.7266 -2.3204
  748MOL0     H  926   8.233   3.859   6.997 -1.3660 -0.0651 -2.6283
  748MOL0     H  927   8.235   4.002   6.804 -0.4967  1.0348  0.2573
  748MOL0     H  928   8.326   4.131   6.883 -0.7905  0.9098  1.2094
  748MOL0     H  929   8.518   3.972   6.886  0.0756 -1.9202  0.1273
  748MOL0     H  930   8.455   3.995   6.718  1.2403 -3.7713 -2.1316
  748MOL0     H  931   8.557   3.708   6.939 -1.1456 -3.8544  1.9702
  748MOL0     H  932   8.417   3.368   6.840 -1.6853  2.2982 -2.7615
  748MOL0     H  933   8.579   3.435   6.867 -0.5053 -0.3310 -0.0063
  748MOL0     H  934   8.521   3.514   7.087 -0.5964 -1.8409  4.4505
  748MOL0     H  935   8.485   3.341   7.064  2.0553  1.3225 -1.2113
  748MOL0     H  936   8.239   3.416   7.012  1.9456  0.0674 -1.5778
  748MOL0     H  937   8.293   3.576   7.068 -4.6674 -0.7109 -1.2888
  748MOL0     H  938   8.173   3.451   7.245  0.2388  0.6827 -1.3221
  748MOL0     H  939   8.345   3.497   7.283 -1.4337  2.1651 -0.5824
  748MOL0     H  940   8.409   3.255   7.483 -0.0241  0.0750 -0.1045
  748MOL0     H  941   8.332   3.035   7.719  4.5026  1.9709 -1.0495
  748MOL0     H  942   8.372   3.211   7.709  1.7915 -2.6995  2.5460
  748MOL0     H  943   8.219   3.151   7.782 -1.7138  0.1571 -1.8773
  748MOL0     H  944   7.712   2.855   7.459 -3.0245  1.3343 -0.2282
  748MOL0     H  945   7.543   2.737   7.562  0.4372  0.9799 -1.3513
  748MOL0     H  946   7.588   2.596   7.943 -0.7797 -0.9305  1.7704
  748MOL0     H  947   7.458   2.688   8.018  1.5929  0.0729 -0.4181
  748MOL0     H  948   7.392   2.480   7.806 -0.4614 -1.1002  0.7150
  748MOL0     H  949   7.413   2.425   7.970 -0.5837 -1.2507 -1.2095
  748MOL0     H  950   7.180   2.453   7.915 -1.6701  0.9209  1.1965
  748MOL0     H  951   7.201   2.613   7.848 -0.7860  1.2064  2.0616
  748MOL0     H  952   7.222   2.534   8.139  2.1488 -1.0351 -0.7413
  748MOL0     H  953   7.232   2.705   8.084  2.0425 -1.1720 -0.9427
  748MOL0     H  954   6.987   2.526   8.046 -1.0799  0.4037 -0.7095
  748MOL0     H  955   7.043   2.688   7.982  1.5663  2.7285  1.5338
  748MOL0     H  956   7.004   2.628   8.268  2.5694 -1.0318 -0.6891
  748MOL0     H  957   7.045   2.783   8.186  1.9588 -0.6761 -2.8509
  748MOL0     H  958   6.775   2.648   8.168 -1.4557  0.7574 -2.1930
  748MOL0     H  959   6.824   2.789   8.072  2.0525 -0.7610 -0.3797
  748MOL0     H  960   6.827   2.806   8.376  3.4150  1.0740 -0.4289
  748MOL0     H  961   6.691   2.850   8.264 -0.0270 -1.1077 -2.1783
  748MOL0     H  962   7.653   2.882   7.942 -0.6230 -0.3234 -0.5076
  748MOL0     H  963   7.822   3.023   7.845 -1.1569  1.6891  0.2110
  748MOL0     H  964   7.961   3.056   7.382 -0.7492  2.5793  0.3560
  748MOL0     H  965   8.104   3.183   7.205 -2.6452 -1.5551  1.0395
  748MOL0     H  966   7.737   4.007   6.503 -0.4673 -0.6571  0.5126
  748MOL0     H  967   7.788   3.860   6.322  0.8611  1.2715  0.3200
  748MOL0     H  968   8.003   3.287   6.229  0.6350 -0.8798 -1.2768
  748MOL0     H  969   8.078   3.188   6.036  1.4915  0.1198 -0.0456
  748MOL0     H  970   8.178   3.386   5.640  1.8021  1.4228 -0.1348
  748MOL0     H  971   8.315   3.388   5.758 -0.4717 -0.2779  1.0394
  748MOL0     H  972   8.332   3.135   5.715 -0.6922  0.3854 -0.9209
  748MOL0     H  973   8.402   3.258   5.606  1.0623 -1.0251 -0.8802
  748MOL0     H  974   8.161   3.227   5.494 -0.8647  0.6900  1.9018
  748MOL0     H  975   8.157   3.072   5.572  0.4689  1.1183  3.7036
  748MOL0     H  976   8.391   3.121   5.397  0.4929 -0.6774 -0.5838
  748MOL0     H  977   8.230   3.063   5.343  1.2488  2.2975 -0.8363
  748MOL0     H  978   8.395   2.726   5.539  1.0380  0.3382  1.0907
  748MOL0     H  979   8.173   3.569   5.864 -1.8330 -1.8252 -2.5906
  748MOL0     H  980   8.112   3.669   6.081 -3.9316  0.6968 -0.2020
  749MOL0     O  981   3.181   2.751   8.878 -0.0192  0.4105  0.4825
  749MOL0     C  982   3.107   2.846   8.912 -0.5438  0.3249 -0.1012
  749MOL0     O  983   3.118   2.922   9.023  0.1984  0.0348  0.4696
  749MOL0     C  984   3.213   2.874   9.110  0.1733  0.4266  0.0041
  749MOL0     C  985   3.215   2.740   9.159  0.6801  0.2152  0.7124
  749MOL0     C  986   3.322   2.699   9.248  0.9297 -0.7330  0.7473
  749MOL0     C  987   3.414   2.795   9.291 -0.2505 -0.1646  0.4909
  749MOL0     O  988   3.501   2.751   9.387  0.3058  0.0849 -0.5249
  749MOL0     C  989   3.588   2.849   9.451  0.5508  0.1625  0.6109
  749MOL0     C  990   3.700   2.781   9.513  0.8039  0.9717 -0.6240
  749MOL0     C  991   3.765   2.870   9.629  0.4337 -0.1454  0.5405
  749MOL0     C  992   3.893   2.797   9.681  0.1746 -0.1666 -0.3655
  749MOL0     C  993   3.954   2.876   9.802 -0.3421  0.0382 -0.3436
  749MOL0     C  994   4.038   2.997   9.773  0.6040  0.4723  0.3483
  749MOL0     C  995   4.116   3.046   9.900  1.0386  0.6821 -0.2448
  749MOL0     C  996   4.189   3.177   9.867  0.1155  0.1546 -0.0072
  749MOL0     N  997   4.260   3.174   9.740 -0.4217 -0.0503  0.3929
  749MOL0     C  998   4.349   3.076   9.702 -0.5430  0.1226  0.5298
  749MOL0     C  999   4.400   3.116   9.586 -0.0704  0.1606 -0.0775
  749MOL0     C 1000   4.493   3.043   9.494 -0.4048  0.6207  0.1206
  749MOL0     C 1001   4.408   2.975   9.384 -0.7097 -0.1384  0.3308
  749MOL0     C 1002   4.485   2.866   9.302 -1.0091  0.0237  0.2366
  749MOL0     C 1003   4.401   2.828   9.188  0.4599 -0.0530  0.0720
  749MOL0     O 1004   4.451   2.709   9.134 -0.3304 -0.1900  0.2820
  749MOL0     C 1005   4.524   2.720   9.016  0.3635  0.3973 -0.1480
  749MOL0     C 1006   4.524   2.603   8.946  0.5400  0.6367  0.6478
  749MOL0     C 1007   4.586   2.593   8.822 -0.2619 -0.7104  0.3621
  749MOL0     C 1008   4.591   2.454   8.763  0.4433 -0.3386  0.2587
  749MOL0     C 1009   4.657   2.705   8.769 -0.7997  0.5734  0.3486
  749MOL0     C 1010   4.721   2.708   8.624 -0.3563 -0.2861 -0.3732
  749MOL0     O 1011   4.771   2.834   8.585  0.3656  0.2540  0.8269
  749MOL0     C 1012   4.828   2.851   8.459  0.4192 -0.1530 -0.6407
  749MOL0     C 1013   4.961   2.879   8.448 -0.5490  0.8257  0.3555
  749MOL0     C 1014   5.029   2.892   8.321  0.3857 -0.0274  0.0761
  749MOL0     C 1015   4.947   2.883   8.205  0.9046 -0.0601 -0.0832
  749MOL0     O 1016   4.992   2.872   8.080  0.0004  0.5396 -1.0089
  749MOL0     C 1017   5.108   2.963   8.061 -0.2654  0.3244  0.4167
  749MOL0     C 1018   5.123   2.992   7.910 -0.4497 -0.0458  0.0918
  749MOL0     C 1019   5.150   2.867   7.828  0.4031 -1.2873 -0.3880
  749MOL0     C 1020   5.200   2.903   7.690  0.7631  0.0525 -1.0032
  749MOL0     C 1021   5.215   2.781   7.606  0.8063  0.1829 -0.4974
  749MOL0     C 1022   5.318   2.678   7.666 -0.6360  0.1102 -0.2602
  749MOL0     C 1023   5.374   2.572   7.566 -0.7634 -0.7708  0.4775
  749MOL0     C 1024   5.269   2.486   7.491  0.2423 -0.8030 -0.7003
  749MOL0    Cl 1025   5.298   2.454   7.323 -0.0391  0.2690  0.3191
  749MOL0     C 1026   4.811   2.855   8.220  0.7697 -0.1064  0.0559
  749MOL0     C 1027   4.753   2.836   8.344  0.4239 -0.4489  0.4085
  749MOL0     O 1028   4.711   2.613   8.552  0.1279 -0.0060 -0.1781
  749MOL0     C 1029   4.670   2.821   8.845 -0.8136 -0.9820 -0.0142
  749MOL0     C 1030   4.600   2.825   8.973 -0.0909  0.3291  0.3678
  749MOL0     N 1031   4.342   3.229   9.539  0.5655 -0.3654 -0.4749
  749MOL0     N 1032   4.257   3.262   9.635  0.3303  0.4243 -0.2599
  749MOL0     C 1033   3.388   2.927   9.263  0.6310 -0.9211 -0.0702
  749MOL0     C 1034   3.288   2.969   9.181  0.2117  0.1548  0.5973
  749MOL0     C 1035   3.006   2.900   8.812 -1.0250  0.6233 -0.1734
  749MOL0     C 1036   2.912   2.989   8.855  0.8279 -0.1423 -0.5594
  749MOL0     C 1037   2.806   3.036   8.774  0.1323  1.0324 -0.0234
  749MOL0     C 1038   2.790   2.989   8.640 -0.4810 -0.4563 -1.1126
  749MOL0     O 1039   2.694   3.028   8.552  0.1683 -0.3005  0.2317
  749MOL0     C 1040   2.575   3.085   8.605 -0.0759 -0.5558 -0.4453
  749MOL0     C 1041   2.475   3.074   8.490  1.1073  0.2363  0.7083
  749MOL0     C 1042   2.355   3.170   8.491  0.1915 -0.4679  0.5646
  749MOL0     C 1043   2.390   3.321   8.481  0.2435 -0.4391  1.5125
  749MOL0     C 1044   2.436   3.351   8.347 -0.5130 -0.0855  0.3683
  749MOL0     C 1045   2.481   3.366   8.235 -0.3732  0.0749 -0.1180
  749MOL0     C 1046   2.884   2.899   8.597  0.3861  0.2565 -0.5944
  749MOL0     C 1047   2.994   2.854   8.680  0.7973  0.1901 -0.8228
  749MOL0     H 1048   3.129   2.680   9.133  0.2929  0.0339  2.3322
  749MOL0     H 1049   3.317   2.598   9.286 -0.3719 -1.0776 -0.2501
  749MOL0     H 1050   3.629   2.929   9.388 -1.7676  0.9841  0.0522
  749MOL0     H 1051   3.523   2.893   9.527 -3.0322 -0.5065 -1.8002
  749MOL0     H 1052   3.656   2.692   9.561  0.4107  2.8720  2.9285
  749MOL0     H 1053   3.776   2.744   9.443 -1.7160 -1.5272 -2.2368
  749MOL0     H 1054   3.800   2.962   9.581 -0.7002 -0.4296 -0.8773
  749MOL0     H 1055   3.687   2.881   9.704 -0.1659  1.1018 -0.2448
  749MOL0     H 1056   3.867   2.696   9.715  2.0449 -0.0567  1.6236
  749MOL0     H 1057   3.977   2.796   9.612  0.6728  0.0279  0.2246
  749MOL0     H 1058   3.875   2.901   9.873  0.1640  0.4647  0.0842
  749MOL0     H 1059   4.019   2.804   9.854 -1.3247  0.5743  1.7606
  749MOL0     H 1060   4.105   2.977   9.689  0.7877 -0.2035  0.6453
  749MOL0     H 1061   3.965   3.069   9.735  0.9402 -1.1178 -3.8673
  749MOL0     H 1062   4.048   3.063   9.984  3.1134  2.1385  1.2575
  749MOL0     H 1063   4.192   2.970   9.920  0.0507 -0.1353  0.4821
  749MOL0     H 1064   4.269   3.209   9.935 -0.9769  4.9893 -0.6289
  749MOL0     H 1065   4.115   3.257   9.872 -0.3859 -0.3714  1.5152
  749MOL0     H 1066   4.384   2.987   9.752  0.5352  0.4340  0.3531
  749MOL0     H 1067   4.567   3.112   9.452  1.2348  0.2315  2.2142
  749MOL0     H 1068   4.545   2.962   9.547 -3.1818 -0.8322  0.8105
  749MOL0     H 1069   4.379   3.053   9.313 -0.9595 -0.7337 -0.2259
  749MOL0     H 1070   4.320   2.928   9.427  1.4298 -5.1168  0.0095
  749MOL0     H 1071   4.514   2.787   9.372  2.8258  1.3537  0.3747
  749MOL0     H 1072   4.579   2.900   9.260 -2.5680  3.2355 -0.9712
  749MOL0     H 1073   4.413   2.911   9.118 -1.2188  1.7695  1.8489
  749MOL0     H 1074   4.292   2.822   9.199  0.3247 -0.0890 -1.1030
  749MOL0     H 1075   4.473   2.518   8.988 -1.3597 -0.5019 -3.4876
  749MOL0     H 1076   4.518   2.443   8.683  0.1528  2.2608  0.0993
  749MOL0     H 1077   4.689   2.422   8.725 -0.5547 -2.4852 -0.6978
  749MOL0     H 1078   4.570   2.382   8.843 -1.0225 -0.8780 -0.5874
  749MOL0     H 1079   5.017   2.892   8.540  0.2607  4.7049 -0.5258
  749MOL0     H 1080   5.137   2.893   8.324  0.4875  0.0424  5.2644
  749MOL0     H 1081   5.094   3.052   8.123 -1.5156  0.2900  0.2232
  749MOL0     H 1082   5.199   2.910   8.088  0.1239  0.5820 -0.3617
  749MOL0     H 1083   5.035   3.048   7.877 -1.6905 -1.6073  0.6620
  749MOL0     H 1084   5.213   3.056   7.904  0.8368 -1.7314  0.7607
  749MOL0     H 1085   5.068   2.794   7.821 -1.4222  0.7784 -2.6167
  749MOL0     H 1086   5.233   2.818   7.879  1.3592  0.4443 -0.2158
  749MOL0     H 1087   5.132   2.975   7.643  1.9369  2.1285  0.3015
  749MOL0     H 1088   5.300   2.946   7.693  1.0867 -0.7189  0.4588
  749MOL0     H 1089   5.234   2.811   7.503 -0.3192 -3.6779 -2.0296
  749MOL0     H 1090   5.114   2.739   7.597 -0.1920  2.7899 -3.1709
  749MOL0     H 1091   5.406   2.733   7.699 -0.1055 -1.2864  0.7637
  749MOL0     H 1092   5.271   2.623   7.748 -2.3792 -2.2689 -2.6526
  749MOL0     H 1093   5.447   2.501   7.605 -1.1708 -2.2012 -1.2337
  749MOL0     H 1094   5.426   2.633   7.492 -0.2817  3.0851  3.6577
  749MOL0     H 1095   5.176   2.544   7.494  2.2005  2.5865  2.5256
  749MOL0     H 1096   5.268   2.395   7.551  2.7364 -1.3381 -1.3518
  749MOL0     H 1097   4.750   2.832   8.133  3.6477 -0.8745 -1.9027
  749MOL0     H 1098   4.646   2.819   8.348  0.2466  0.8112  2.0956
  749MOL0     H 1099   4.734   2.906   8.821  2.2535 -3.0647  0.1531
  749MOL0     H 1100   4.621   2.913   9.033  1.7863  1.2764 -1.5018
  749MOL0     H 1101   3.446   3.009   9.303 -1.6667  1.1563 -0.7954
  749MOL0     H 1102   3.282   3.077   9.174  1.0898  0.1041 -4.5133
  749MOL0     H 1103   2.901   3.015   8.960 -0.8955  0.9446 -0.9768
  749MOL0     H 1104   2.743   3.113   8.816  0.8839  1.4335  0.3814
  749MOL0     H 1105   2.539   3.038   8.697 -1.0030 -0.8313 -0.9374
  749MOL0     H 1106   2.590   3.193   8.620  0.3275 -0.4485 -1.5330
  749MOL0     H 1107   2.437   2.972   8.491  1.9114 -0.1093  3.3135
  749MOL0     H 1108   2.527   3.090   8.396  3.9752  0.9454  2.2983
  749MOL0     H 1109   2.298   3.164   8.584  2.8077  0.3054  2.3425
  749MOL0     H 1110   2.284   3.133   8.416  2.1325 -0.8034 -1.2338
  749MOL0     H 1111   2.476   3.348   8.542 -0.0288  2.0944  0.8656
  749MOL0     H 1112   2.303   3.381   8.509  1.2363  2.0923 -0.4523
  749MOL0     H 1113   2.530   3.367   8.140 -0.3365 -2.2735 -0.1589
  749MOL0     H 1114   2.869   2.846   8.504 -2.9386 -0.9167  0.4561
  749MOL0     H 1115   3.065   2.783   8.641  0.9476  1.6484 -3.4090
  750MOL0     O 1116  11.171   1.536   0.504  0.4050  0.2330  0.3358
  750MOL0     C 1117  11.196   1.633   0.432 -0.0486 -0.3203 -0.4296
  750MOL0     O 1118  11.112   1.723   0.381 -0.1366  0.2083  0.1708
  750MOL0     C 1119  10.979   1.697   0.374  0.2857  0.1094  0.0350
  750MOL0     C 1120  10.924   1.706   0.247 -0.2204 -0.4241  0.6941
  750MOL0     C 1121  10.784   1.669   0.227  0.1977 -0.2845 -0.5722
  750MOL0     C 1122  10.707   1.632   0.333  0.3487 -0.4121  0.3222
  750MOL0     O 1123  10.570   1.618   0.327 -0.1272  0.1160 -0.0674
  750MOL0     C 1124  10.503   1.660   0.203 -0.3560 -0.4043 -0.7703
  750MOL0     C 1125  10.493   1.550   0.101 -0.5629  0.0476  0.3601
  750MOL0     C 1126  10.438   1.432   0.171  0.0406  1.1981 -0.1314
  750MOL0     C 1127  10.416   1.322   0.069 -0.0850 -0.1052  0.4128
  750MOL0     C 1128  10.333   1.202   0.127 -0.2705  0.4813 -0.1417
  750MOL0     C 1129  10.288   1.118   0.014 -0.4380  0.0442  0.1194
  750MOL0     C 1130  10.190   1.004   0.057 -0.7427 -0.5135 -0.4126
  750MOL0     C 1131  10.166   0.926  -0.079  0.2061 -0.0557 -0.1481
  750MOL0     N 1132  10.052   0.836  -0.062  0.2984 -0.3432 -0.0988
  750MOL0     C 1133   9.965   0.802  -0.164  0.1699 -0.2231 -0.0158
  750MOL0     C 1134   9.911   0.689  -0.120  0.5491 -0.1796 -0.8059
  750MOL0     C 1135   9.808   0.619  -0.213  0.2782  0.1561 -0.7293
  750MOL0     C 1136   9.682   0.709  -0.226  1.2395 -0.2093 -0.7468
  750MOL0     C 1137   9.586   0.682  -0.099 -0.1282  0.9200 -0.0763
  750MOL0     C 1138   9.447   0.750  -0.139 -0.6912 -0.4435  0.2698
  750MOL0     O 1139   9.465   0.899  -0.133  0.0159  0.0342 -0.0024
  750MOL0     C 1140   9.355   0.967  -0.102  0.5515 -0.6930  0.6241
  750MOL0     C 1141   9.225   0.921  -0.155 -0.1914 -0.1794 -0.5111
  750MOL0     C 1142   9.110   0.990  -0.130  0.0694 -0.9866  0.3226
  750MOL0     C 1143   8.989   0.936  -0.207 -0.2626 -0.0075 -0.4681
  750MOL0     C 1144   9.115   1.107  -0.046 -0.1904 -0.3735 -0.2030
  750MOL0     C 1145   8.997   1.189  -0.025 -1.0085 -0.1996  0.1382
  750MOL0     O 1146   8.891   1.144   0.044  0.9527 -0.0180  0.2626
  750MOL0     C 1147   8.777   1.216   0.036  0.5068 -0.0422  0.5076
  750MOL0     C 1148   8.714   1.280  -0.080 -0.7506  0.6551  1.0502
  750MOL0     C 1149   8.579   1.317  -0.072 -0.0465 -0.5017  0.1761
  750MOL0     C 1150   8.500   1.289   0.036  0.2733  0.3667 -0.0234
  750MOL0     O 1151   8.368   1.309   0.023 -0.2438  0.2932  0.2847
  750MOL0     C 1152   8.277   1.257   0.116 -0.4938  0.1811 -0.4815
  750MOL0     C 1153   8.135   1.267   0.041 -0.2219  0.6988  0.2928
  750MOL0     C 1154   8.008   1.255   0.137 -0.5636  0.2368 -0.2816
  750MOL0     C 1155   8.004   1.132   0.233  0.2749 -0.2468 -0.6362
  750MOL0     C 1156   7.862   1.099   0.284 -0.1544 -0.2256 -0.1417
  750MOL0     C 1157   7.799   1.203   0.364  0.8823  0.6445 -0.6039
  750MOL0     C 1158   7.722   1.300   0.280  0.3687  0.1156 -0.4588
  750MOL0     C 1159   7.581   1.313   0.336  0.1223 -0.0720 -0.3179
  750MOL0    Cl 1160   7.583   1.418   0.485 -0.2611 -0.1491 -0.8269
  750MOL0     C 1161   8.565   1.234   0.152  0.2747  0.2355 -0.0858
  750MOL0     C 1162   8.707   1.204   0.154  1.1245 -0.4205 -0.7480
  750MOL0     O 1163   9.010   1.305  -0.070 -0.4599 -0.3795  0.0126
  750MOL0     C 1164   9.237   1.152   0.001 -1.0707 -0.0094 -0.7468
  750MOL0     C 1165   9.356   1.081  -0.024  0.4055  0.5220 -0.4928
  750MOL0     N 1166   9.944   0.659   0.008 -0.2838 -0.2393  0.6033
  750MOL0     N 1167  10.034   0.754   0.042 -0.0462 -0.0042 -0.2994
  750MOL0     C 1168  10.761   1.629   0.462 -0.6371 -0.3592 -0.4920
  750MOL0     C 1169  10.893   1.665   0.484 -0.0750 -0.5826 -0.0451
  750MOL0     C 1170  11.329   1.685   0.420  0.1529  0.1245  0.2136
  750MOL0     C 1171  11.368   1.784   0.323  0.3336 -0.9221  0.2601
  750MOL0     C 1172  11.506   1.826   0.323 -0.2031  0.2746  0.0446
  750MOL0     C 1173  11.592   1.782   0.422 -0.6307 -0.3406 -0.4105
  750MOL0     O 1174  11.731   1.810   0.423  0.6133 -0.1366 -0.2039
  750MOL0     C 1175  11.792   1.899   0.334  0.1284  0.4235  0.4636
  750MOL0     C 1176  11.931   1.928   0.381  0.1292  0.3653 -0.2466
  750MOL0     C 1177  12.011   1.792   0.415 -0.1329  0.1833  0.8479
  750MOL0     C 1178  12.157   1.827   0.457  0.4089  0.6290 -0.3435
  750MOL0     C 1179  12.241   1.893   0.356  0.2689  0.4028 -0.0823
  750MOL0     C 1180  12.317   1.941   0.275 -0.0966 -1.1937 -0.0622
  750MOL0     C 1181  11.547   1.691   0.523  1.1371  0.8045 -0.1832
  750MOL0     C 1182  11.417   1.639   0.513  0.3534 -0.7253 -0.9857
  750MOL0     H 1183  10.961   1.755   0.157 -0.3638  1.6160  1.6790
  750MOL0     H 1184  10.740   1.685   0.129 -4.5614  0.6836  1.4144
  750MOL0     H 1185  10.403   1.683   0.241 -0.7939  0.2603 -2.2589
  750MOL0     H 1186  10.536   1.757   0.166 -0.3632 -0.5507 -1.1587
  750MOL0     H 1187  10.417   1.584   0.030 -0.8082 -0.6742  0.2719
  750MOL0     H 1188  10.579   1.535   0.035  0.5146 -1.2009  1.9640
  750MOL0     H 1189  10.518   1.385   0.230  0.6083  0.2738 -1.5944
  750MOL0     H 1190  10.349   1.448   0.233  2.4188 -0.0200  4.0558
  750MOL0     H 1191  10.360   1.365  -0.015  2.0114  2.1290  0.0649
  750MOL0     H 1192  10.510   1.284   0.028 -0.2792 -0.2824  0.1181
  750MOL0     H 1193  10.392   1.155   0.207 -1.6227 -1.0417  0.0008
  750MOL0     H 1194  10.240   1.232   0.177 -0.0672  0.9839 -0.0560
  750MOL0     H 1195  10.255   1.183  -0.068  0.4519  2.0899  1.3150
  750MOL0     H 1196  10.383   1.074  -0.020  1.2826  1.5191  2.6911
  750MOL0     H 1197  10.231   0.945   0.139 -1.9885 -0.6100  0.1606
  750MOL0     H 1198  10.096   1.048   0.094  0.2838  0.9163  0.5930
  750MOL0     H 1199  10.254   0.864  -0.100  0.5771  0.4105  0.0195
  750MOL0     H 1200  10.155   0.994  -0.164  0.3650  3.9069  2.7238
  750MOL0     H 1201   9.934   0.858  -0.251  0.4554  1.4303  0.9135
  750MOL0     H 1202   9.844   0.602  -0.315 -3.5770  0.2120 -2.3047
  750MOL0     H 1203   9.794   0.517  -0.176  1.1869 -0.2492 -1.4732
  750MOL0     H 1204   9.629   0.676  -0.316  0.1547 -0.9874  0.1392
  750MOL0     H 1205   9.707   0.814  -0.239  3.6528 -0.5884  0.3176
  750MOL0     H 1206   9.617   0.711   0.001 -0.2921 -3.8551  1.5980
  750MOL0     H 1207   9.578   0.574  -0.089  0.9855  0.5570 -2.4329
  750MOL0     H 1208   9.378   0.719  -0.060  0.5707 -0.9144  1.2233
  750MOL0     H 1209   9.426   0.704  -0.236 -1.5192  0.5673 -0.0484
  750MOL0     H 1210   9.215   0.831  -0.216  1.9378 -0.6786 -0.2189
  750MOL0     H 1211   9.015   0.843  -0.258  1.7647  0.2986 -0.0737
  750MOL0     H 1212   8.916   0.900  -0.133 -0.0087  0.8390  0.2163
  750MOL0     H 1213   8.958   1.019  -0.271  2.3316  0.5257 -1.1437
  750MOL0     H 1214   8.762   1.291  -0.177  1.9319  1.2618  2.3430
  750MOL0     H 1215   8.531   1.368  -0.154 -0.8052 -0.5498  0.5770
  750MOL0     H 1216   8.284   1.156   0.157 -3.4718 -0.9531 -2.3770
  750MOL0     H 1217   8.277   1.324   0.203 -1.3427  1.2227 -1.2410
  750MOL0     H 1218   8.127   1.359  -0.018  0.5826  0.8066  0.3357
  750MOL0     H 1219   8.129   1.185  -0.032 -2.9757  1.8387 -0.8875
  750MOL0     H 1220   7.927   1.239   0.066 -1.2329  0.3361  0.4472
  750MOL0     H 1221   8.010   1.351   0.190 -0.3914 -0.3488  0.8086
  750MOL0     H 1222   8.057   1.047   0.188 -0.6635  0.1779 -2.6781
  750MOL0     H 1223   8.059   1.169   0.320 -0.3380  1.1503 -0.8048
  750MOL0     H 1224   7.869   1.005   0.339 -3.6581 -0.9198 -0.6440
  750MOL0     H 1225   7.796   1.065   0.203 -1.7010  0.5554  0.7508
  750MOL0     H 1226   7.734   1.143   0.429  3.4651  0.7283  2.3412
  750MOL0     H 1227   7.869   1.248   0.436  0.6944 -0.8712  0.5967
  750MOL0     H 1228   7.714   1.258   0.179 -2.9080  0.0275 -0.2623
  750MOL0     H 1229   7.791   1.385   0.272  3.2994 -2.0879 -0.1200
  750MOL0     H 1230   7.538   1.213   0.343 -1.6058  0.5626 -1.3965
  750MOL0     H 1231   7.524   1.355   0.253  0.3466 -1.1012 -1.0298
  750MOL0     H 1232   8.504   1.217   0.241  1.2746 -2.0948  0.2217
  750MOL0     H 1233   8.750   1.166   0.246 -0.2247  1.1991  0.6271
  750MOL0     H 1234   9.242   1.241   0.063 -0.7623  0.4690 -1.4484
  750MOL0     H 1235   9.445   1.116   0.028  1.1470 -0.8162 -0.8018
  750MOL0     H 1236  10.706   1.592   0.548  2.1737 -0.7566  1.2597
  750MOL0     H 1237  10.932   1.649   0.584 -2.9155  2.4274  1.7669
  750MOL0     H 1238  11.301   1.806   0.239 -3.5101 -0.6800  3.1035
  750MOL0     H 1239  11.532   1.895   0.244  0.7522 -3.2542 -3.0181
  750MOL0     H 1240  11.797   1.860   0.232  1.2827  1.9370 -0.1127
  750MOL0     H 1241  11.725   1.984   0.314 -1.9644 -1.3744 -0.5126
  750MOL0     H 1242  11.912   1.980   0.476  1.7095  1.2273 -0.3727
  750MOL0     H 1243  11.985   2.003   0.323  1.3987  0.7399  1.3375
  750MOL0     H 1244  11.997   1.739   0.321 -4.8155  3.5985 -0.8009
  750MOL0     H 1245  11.961   1.726   0.486 -2.8313 -0.4285 -1.4526
  750MOL0     H 1246  12.204   1.741   0.506 -4.2027 -2.2953 -0.4323
  750MOL0     H 1247  12.144   1.891   0.545 -2.3892  2.4018 -1.8706
  750MOL0     H 1248  12.381   1.984   0.200  0.3729 -0.6419  0.6496
  750MOL0     H 1249  11.613   1.664   0.605  0.7629 -0.0009 -0.1371
  750MOL0     H 1250  11.384   1.563   0.583 -1.8078 -0.0474 -1.1984
  751MOL0     O 1251  10.056  10.234   5.809  0.6604 -0.5670  0.4645
  751MOL0     C 1252  10.032  10.338   5.750 -0.5064  0.6024  0.2203
  751MOL0     O 1253  10.007  10.456   5.808  0.1159 -0.4480 -0.0985
  751MOL0     C 1254   9.988  10.472   5.948 -0.2898  1.1384  0.5791
  751MOL0     C 1255   9.920  10.381   6.034  0.5169 -0.0682 -0.6483
  751MOL0     C 1256   9.901  10.420   6.173  0.0206 -0.1706 -1.5765
  751MOL0     C 1257   9.938  10.541   6.221  0.7771  0.0676 -0.3322
  751MOL0     O 1258   9.883  10.585   6.334 -1.0434  0.3026  0.3129
  751MOL0     C 1259   9.798  10.704   6.320 -0.1149 -0.1664 -0.4001
  751MOL0     C 1260   9.712  10.737   6.443  0.5326  0.1741 -0.8328
  751MOL0     C 1261   9.794  10.747   6.573  0.5167  0.2569  0.2191
  751MOL0     C 1262   9.696  10.743   6.685  0.3974 -0.0256 -0.1148
  751MOL0     C 1263   9.763  10.702   6.812 -0.4079 -0.0055  0.0278
  751MOL0     C 1264   9.694  10.764   6.938 -0.0088 -0.5159 -0.0959
  751MOL0     C 1265   9.537  10.769   6.950 -0.1355  0.3651 -0.2645
  751MOL0     C 1266   9.494  10.830   7.075  0.4837 -0.3797 -0.9013
  751MOL0     N 1267   9.497  10.722   7.175 -0.1488  0.3704 -0.6050
  751MOL0     C 1268   9.405  10.621   7.184 -0.9269 -0.0743 -0.0978
  751MOL0     C 1269   9.465  10.530   7.268 -0.4919  0.2622  0.0460
  751MOL0     C 1270   9.402  10.405   7.307 -0.6905 -0.1135  0.8482
  751MOL0     C 1271   9.417  10.362   7.445  0.4542 -0.3266 -0.4116
  751MOL0     C 1272   9.330  10.449   7.542  0.0311 -0.2241 -0.8471
  751MOL0     C 1273   9.328  10.393   7.693  0.7961  0.2185 -0.1814
  751MOL0     O 1274   9.226  10.482   7.759  0.1921  0.4913  0.0055
  751MOL0     C 1275   9.193  10.460   7.889  0.7231  0.7442  0.1755
  751MOL0     C 1276   9.186  10.337   7.959 -0.0725  0.0585 -0.0035
  751MOL0     C 1277   9.175  10.326   8.096  0.0840 -0.1638  0.3843
  751MOL0     C 1278   9.183  10.183   8.154  0.5582  0.6093 -0.0174
  751MOL0     C 1279   9.142  10.442   8.163  0.3902  0.0735 -0.3015
  751MOL0     C 1280   9.120  10.450   8.315  0.4406 -0.2300  0.0186
  751MOL0     O 1281   9.098  10.575   8.365  0.5357 -0.3115  0.1270
  751MOL0     C 1282   9.096  10.606   8.496  0.2926 -0.1165 -1.3709
  751MOL0     C 1283   9.042  10.725   8.529 -0.3358  0.2459  0.2760
  751MOL0     C 1284   9.024  10.767   8.662 -0.5585 -0.0072  0.5613
  751MOL0     C 1285   9.073  10.689   8.771  0.6211  0.4192  1.0082
  751MOL0     O 1286   9.042  10.722   8.891 -0.0720 -0.3992 -0.2565
  751MOL0     C 1287   9.143  10.815   8.948 -0.8858  0.3872 -0.2455
  751MOL0     C 1288   9.069  10.945   8.975 -1.1797 -0.6356  0.0547
  751MOL0     C 1289   8.985  10.965   9.098  0.9471  0.2597  0.1849
  751MOL0     C 1290   9.071  11.007   9.222  0.5853 -0.8316 -0.1872
  751MOL0     C 1291   8.956  11.056   9.321 -0.7513  0.4018 -0.0439
  751MOL0     C 1292   8.978  11.033   9.467  0.0079  0.3711 -0.4074
  751MOL0     C 1293   9.092  11.103   9.530  0.3642 -0.0781  0.1599
  751MOL0     C 1294   9.056  11.252   9.553  0.5855  0.0178 -0.6630
  751MOL0    Cl 1295   9.076  11.367   9.405  0.4380  0.2165  0.0217
  751MOL0     C 1296   9.132  10.566   8.742 -0.6124  0.8580 -0.3432
  751MOL0     C 1297   9.146  10.527   8.603 -0.8311  0.1005 -0.0864
  751MOL0     O 1298   9.137  10.351   8.384 -0.2503  0.6255  0.5194
  751MOL0     C 1299   9.138  10.567   8.095  0.0679  0.0110  0.5188
  751MOL0     C 1300   9.169  10.572   7.960 -0.6339  0.2315 -0.2276
  751MOL0     N 1301   9.589  10.584   7.321  0.0263  0.4364  0.7728
  751MOL0     N 1302   9.603  10.693   7.254 -0.5759 -0.1681 -0.1637
  751MOL0     C 1303  10.011  10.620   6.133  0.0051 -0.5832 -0.6506
  751MOL0     C 1304  10.039  10.591   6.001 -0.2790  0.9073 -0.1169
  751MOL0     C 1305  10.054  10.346   5.603 -0.1654 -0.2320 -0.7552
  751MOL0     C 1306  10.057  10.230   5.525  0.2111  1.1239 -0.7932
  751MOL0     C 1307  10.057  10.243   5.384 -0.0490  0.6326 -0.1423
  751MOL0     C 1308  10.054  10.368   5.321  0.8972  0.4895 -0.0457
  751MOL0     O 1309  10.035  10.361   5.188  0.3781 -0.0420  0.2559
  751MOL0     C 1310  10.152  10.362   5.109  1.4126  0.1455 -0.2621
  751MOL0     C 1311  10.120  10.343   4.963  0.4217  0.5787  0.3679
  751MOL0     C 1312  10.118  10.196   4.920  1.5448 -0.0047  0.6711
  751MOL0     C 1313  10.255  10.124   4.935 -0.2112  0.2336 -0.5079
  751MOL0     C 1314  10.360  10.195   4.860  1.4827 -0.6113 -0.4320
  751MOL0     C 1315  10.427  10.256   4.781  0.0297  0.4172  0.4957
  751MOL0     C 1316  10.048  10.485   5.394  0.5482 -0.3209 -0.8109
  751MOL0     C 1317  10.047  10.477   5.539  0.7921  0.1806  0.4652
  751MOL0     H 1318   9.888  10.281   6.005 -0.8198  0.0141  0.4649
  751MOL0     H 1319   9.847  10.352   6.238 -1.0083  1.7292 -0.3545
  751MOL0     H 1320   9.858  10.794   6.300 -1.2322  0.8842  0.8057
  751MOL0     H 1321   9.728  10.680   6.240 -1.1932  0.9043  0.1939
  751MOL0     H 1322   9.645  10.821   6.426 -0.7075 -0.7965 -0.9441
  751MOL0     H 1323   9.639  10.656   6.450  2.0095 -1.1878 -0.5975
  751MOL0     H 1324   9.858  10.661   6.590  1.9095  1.7607  3.4031
  751MOL0     H 1325   9.856  10.837   6.567 -1.0822  1.3117 -2.5982
  751MOL0     H 1326   9.643  10.839   6.693  2.9342  1.7046 -2.3268
  751MOL0     H 1327   9.618  10.668   6.668 -0.8163  0.6068  2.2096
  751MOL0     H 1328   9.777  10.596   6.832  0.1821  0.0805  0.0927
  751MOL0     H 1329   9.864  10.745   6.815 -1.7988  3.6236  0.8021
  751MOL0     H 1330   9.722  10.706   7.027  0.3904 -1.2303 -0.6780
  751MOL0     H 1331   9.731  10.867   6.938 -1.4667  0.0302 -0.9343
  751MOL0     H 1332   9.498  10.841   6.878  0.2163  0.5723 -0.2535
  751MOL0     H 1333   9.500  10.668   6.932  0.6351 -0.1252  0.7675
  751MOL0     H 1334   9.389  10.861   7.068  1.0066  1.8982  0.2734
  751MOL0     H 1335   9.559  10.916   7.094  0.1831  0.1224 -2.0524
  751MOL0     H 1336   9.313  10.619   7.126  0.0531  4.5923 -2.3680
  751MOL0     H 1337   9.295  10.415   7.283 -0.1723 -1.2946 -2.6829
  751MOL0     H 1338   9.439  10.325   7.241 -1.3244 -0.0718  0.4279
  751MOL0     H 1339   9.519  10.381   7.481 -0.4718 -0.2228  2.3482
  751MOL0     H 1340   9.376  10.261   7.450  1.0845 -0.6599 -1.5224
  751MOL0     H 1341   9.227  10.434   7.507  0.3865 -0.2462 -1.9148
  751MOL0     H 1342   9.358  10.554   7.547  0.3878 -0.3593  2.9241
  751MOL0     H 1343   9.428  10.413   7.730  0.7241  0.9910 -0.3877
  751MOL0     H 1344   9.298  10.288   7.695 -0.2630  0.4825 -0.9540
  751MOL0     H 1345   9.200  10.250   7.896  1.4683  1.3334 -1.5185
  751MOL0     H 1346   9.102  10.170   8.227  2.2533  0.9456  2.0247
  751MOL0     H 1347   9.152  10.109   8.080 -3.5577  2.1262 -0.0585
  751MOL0     H 1348   9.279  10.154   8.198  1.4154  3.7193  0.4026
  751MOL0     H 1349   9.011  10.795   8.452 -4.3740 -0.1964  1.2783
  751MOL0     H 1350   8.986  10.862   8.700  0.7369  1.1566 -0.9051
  751MOL0     H 1351   9.200  10.768   9.029  2.4414  0.7011 -2.2080
  751MOL0     H 1352   9.223  10.838   8.877 -0.6686  0.5523  0.0518
  751MOL0     H 1353   9.144  11.025   8.976 -2.5046  0.6405  1.0509
  751MOL0     H 1354   9.013  10.962   8.882  0.7419  2.5951 -0.6764
  751MOL0     H 1355   8.931  10.871   9.114  2.2564 -0.5494  0.0165
  751MOL0     H 1356   8.904  11.038   9.088 -0.2648 -0.9951  0.5233
  751MOL0     H 1357   9.119  10.916   9.259  0.9307 -1.4374 -2.0280
  751MOL0     H 1358   9.145  11.085   9.200  1.9514 -1.8398  0.6751
  751MOL0     H 1359   8.867  11.005   9.284  0.0511 -0.2326 -1.1462
  751MOL0     H 1360   8.960  11.165   9.308  2.0271  0.3440 -0.3643
  751MOL0     H 1361   8.879  11.052   9.510 -0.3756 -1.5862 -0.3397
  751MOL0     H 1362   8.985  10.924   9.476 -4.5723 -0.0158  1.6709
  751MOL0     H 1363   9.186  11.102   9.475 -0.5395 -0.1043 -1.4415
  751MOL0     H 1364   9.112  11.049   9.623 -0.1619 -2.9138 -1.2715
  751MOL0     H 1365   9.111  11.306   9.631 -3.2640  3.4403  0.0331
  751MOL0     H 1366   8.953  11.248   9.591  0.8992  0.5004  0.2569
  751MOL0     H 1367   9.168  10.510   8.829 -1.1338  2.9787  1.3135
  751MOL0     H 1368   9.199  10.433   8.593 -2.0181 -0.3430 -3.2073
  751MOL0     H 1369   9.105  10.661   8.139  1.2193  1.6963 -1.9950
  751MOL0     H 1370   9.162  10.669   7.912 -0.6463  0.8956  1.0739
  751MOL0     H 1371  10.031  10.722   6.166  2.3491 -1.1526 -0.1115
  751MOL0     H 1372  10.080  10.676   5.948 -2.0136  1.6272 -0.3897
  751MOL0     H 1373  10.064  10.133   5.572  1.5523  1.1248 -0.9561
  751MOL0     H 1374  10.035  10.161   5.317  0.2940  1.6212 -1.5208
  751MOL0     H 1375  10.202  10.457   5.131 -0.7482  0.8249  2.1371
  751MOL0     H 1376  10.219  10.293   5.161  3.9334  3.1362  0.8145
  751MOL0     H 1377  10.206  10.387   4.912 -3.2260  4.5865 -3.2435
  751MOL0     H 1378  10.036  10.397   4.917  1.2076 -0.1799 -2.0988
  751MOL0     H 1379  10.092  10.204   4.814  1.3321 -0.9465  0.6482
  751MOL0     H 1380  10.039  10.141   4.970 -0.2416  1.6324 -0.2232
  751MOL0     H 1381  10.250  10.027   4.885 -4.2196 -1.2149  2.2758
  751MOL0     H 1382  10.278  10.109   5.041 -2.0427 -1.8161 -0.3450
  751MOL0     H 1383  10.476  10.326   4.717  1.6251 -0.6516  0.4895
  751MOL0     H 1384  10.045  10.579   5.339 -0.3586  1.8463  2.6147
  751MOL0     H 1385  10.047  10.572   5.592  1.7428  0.7423 -0.5013
  752MOL0     O 1386   9.865  10.873   2.289 -0.2103  0.2917  0.7755
  752MOL0     C 1387   9.947  10.791   2.246 -0.3306 -0.0686 -0.1007
  752MOL0     O 1388   9.963  10.655   2.289 -0.0444  0.4448 -0.5083
  752MOL0     C 1389   9.891  10.621   2.402  0.1892 -0.2703  0.2062
  752MOL0     C 1390   9.793  10.516   2.400  0.0290  1.2736 -0.0645
  752MOL0     C 1391   9.727  10.487   2.518  0.3345 -1.1568 -0.1893
  752MOL0     C 1392   9.754  10.556   2.634 -0.1284 -0.0787 -0.2700
  752MOL0     O 1393   9.688  10.526   2.749  0.1025 -0.2239 -0.1698
  752MOL0     C 1394   9.609  10.402   2.750  0.2877 -0.3789  0.4062
  752MOL0     C 1395   9.584  10.366   2.896 -0.3552 -0.0909 -0.2525
  752MOL0     C 1396   9.686  10.271   2.967 -0.0296 -0.7275  0.1510
  752MOL0     C 1397   9.616  10.188   3.074  0.2996 -0.2563 -0.5562
  752MOL0     C 1398   9.719  10.102   3.141 -0.0075  0.6111 -0.0725
  752MOL0     C 1399   9.721   9.951   3.094 -0.1191 -0.5839  0.3387
  752MOL0     C 1400   9.839   9.880   3.164 -0.2515 -0.7195  0.4567
  752MOL0     C 1401   9.981   9.914   3.106 -0.1001  0.4095 -0.4746
  752MOL0     N 1402  10.083   9.860   3.196  0.0214  0.5522 -0.2204
  752MOL0     C 1403  10.122   9.733   3.191  0.2526 -1.2023 -0.2081
  752MOL0     C 1404  10.188   9.706   3.312  0.1054 -0.4969 -0.7776
  752MOL0     C 1405  10.234   9.567   3.352  0.4868  0.4545 -0.7796
  752MOL0     C 1406  10.243   9.461   3.235 -0.7711  0.1966 -0.0633
  752MOL0     C 1407  10.113   9.395   3.210 -0.2500  0.0733  0.1658
  752MOL0     C 1408  10.115   9.300   3.091 -0.1241  0.1498 -0.6719
  752MOL0     O 1409  10.201   9.352   2.991 -0.1115 -0.7885  1.4578
  752MOL0     C 1410  10.154   9.452   2.911  0.7676  1.0592  0.2851
  752MOL0     C 1411  10.235   9.525   2.833 -1.2510  0.0913 -0.4791
  752MOL0     C 1412  10.208   9.640   2.766  0.2205 -0.7299  0.0897
  752MOL0     C 1413  10.332   9.707   2.704  0.5643 -0.2963  0.1156
  752MOL0     C 1414  10.065   9.670   2.755  0.0004 -0.0386  0.7256
  752MOL0     C 1415  10.013   9.771   2.654 -0.5817  0.2654  1.0509
  752MOL0     O 1416   9.877   9.785   2.652 -0.2901  0.4529 -0.0758
  752MOL0     C 1417   9.824   9.871   2.562  0.0155  0.2571  0.0210
  752MOL0     C 1418   9.834  10.010   2.582 -0.6156  0.5020 -0.3657
  752MOL0     C 1419   9.784  10.090   2.489  0.6744 -0.2448 -0.3419
  752MOL0     C 1420   9.752  10.048   2.364 -0.0956  0.2530 -0.1866
  752MOL0     O 1421   9.730  10.138   2.263  0.5737  0.5056 -0.1917
  752MOL0     C 1422   9.789  10.109   2.133 -0.2982  0.4044  0.2377
  752MOL0     C 1423   9.833  10.241   2.071 -0.6540  0.5196 -0.4753
  752MOL0     C 1424   9.874  10.218   1.925 -0.6969 -0.2990 -0.1150
  752MOL0     C 1425   9.971  10.330   1.877  0.2118 -1.1585 -0.6906
  752MOL0     C 1426  10.002  10.318   1.725 -0.6075 -0.7815 -0.0918
  752MOL0     C 1427  10.086  10.186   1.684 -0.3804 -0.5143  0.1176
  752MOL0     C 1428  10.170  10.202   1.552 -0.6883 -0.5813  0.5560
  752MOL0     C 1429  10.091  10.242   1.426 -0.4703 -0.4128 -1.1880
  752MOL0    Cl 1430  10.079  10.421   1.431  0.0215  0.1740  0.4278
  752MOL0     C 1431   9.747   9.912   2.343  0.1148 -0.1582 -0.0443
  752MOL0     C 1432   9.762   9.823   2.452  0.0097  0.1520 -0.0248
  752MOL0     O 1433  10.093   9.832   2.577  0.8144 -0.5211 -0.6614
  752MOL0     C 1434   9.979   9.602   2.842 -0.1099 -0.0748  0.2181
  752MOL0     C 1435  10.019   9.500   2.915  0.0069 -0.3454  0.7317
  752MOL0     N 1436  10.192   9.823   3.388  0.8245 -0.8146 -1.3803
  752MOL0     N 1437  10.138   9.916   3.310  0.0558 -0.3828 -0.0038
  752MOL0     C 1438   9.863  10.642   2.646  1.1722 -0.1096  0.7883
  752MOL0     C 1439   9.924  10.679   2.524 -0.1710  0.2221  0.4492
  752MOL0     C 1440  10.034  10.845   2.136  0.7012  0.4184 -0.5634
  752MOL0     C 1441   9.992  10.965   2.073  0.1760  0.3604  0.1908
  752MOL0     C 1442  10.046  10.991   1.945 -1.0371  0.2091 -0.2132
  752MOL0     C 1443  10.142  10.907   1.888 -0.8517 -0.5004  0.9267
  752MOL0     O 1444  10.180  10.946   1.761  0.0983 -0.5225  0.2436
  752MOL0     C 1445  10.277  10.879   1.693 -0.7382  1.2662 -0.2282
  752MOL0     C 1446  10.293  10.936   1.543  0.1009 -0.1276  0.4303
  752MOL0     C 1447  10.173  10.883   1.465  0.4949  0.2577  0.6578
  752MOL0     C 1448  10.170  10.927   1.322 -0.0284 -0.9498  0.1799
  752MOL0     C 1449  10.040  10.906   1.255 -0.4563  0.3382 -1.4209
  752MOL0     C 1450   9.945  10.886   1.183 -0.8136  0.9621 -0.6522
  752MOL0     C 1451  10.205  10.812   1.965 -0.9796  0.0981  1.0073
  752MOL0     C 1452  10.137  10.769   2.076  0.2637  0.5612  0.3494
  752MOL0     H 1453   9.768  10.468   2.306 -2.0292  0.7514  0.6986
  752MOL0     H 1454   9.657  10.404   2.510 -1.4282  0.0278  1.7702
  752MOL0     H 1455   9.514  10.421   2.700  1.5142  0.9768 -1.5767
  752MOL0     H 1456   9.660  10.314   2.710 -1.8452 -0.5961 -2.0857
  752MOL0     H 1457   9.568  10.459   2.952  1.7654  0.7746 -0.9553
  752MOL0     H 1458   9.500  10.296   2.902 -0.6897  0.3688  0.5373
  752MOL0     H 1459   9.729  10.209   2.887  2.2119  2.3471 -1.2482
  752MOL0     H 1460   9.769  10.320   3.019 -2.1684 -0.4913  3.6519
  752MOL0     H 1461   9.578  10.261   3.146  0.1715  0.3379 -1.2154
  752MOL0     H 1462   9.536  10.127   3.031  0.1576  1.4697 -2.9430
  752MOL0     H 1463   9.819  10.144   3.123  0.4692 -0.2008  0.5835
  752MOL0     H 1464   9.685  10.101   3.245  0.1344 -0.9260 -0.0174
  752MOL0     H 1465   9.624   9.915   3.129 -0.4722  0.4113  0.3988
  752MOL0     H 1466   9.732   9.944   2.986  2.1500  2.4719  0.2414
  752MOL0     H 1467   9.845   9.914   3.268  2.1846  0.2640  0.0481
  752MOL0     H 1468   9.825   9.772   3.157  2.7936 -1.0930 -3.1221
  752MOL0     H 1469   9.993  10.023   3.107  0.7605  0.3939 -2.5831
  752MOL0     H 1470   9.990   9.874   3.005  0.4255  0.6340 -0.5181
  752MOL0     H 1471  10.105   9.667   3.106  0.7577  0.7078 -1.8608
  752MOL0     H 1472  10.331   9.593   3.396 -1.3227  1.8878  2.8235
  752MOL0     H 1473  10.178   9.518   3.433  2.1068 -1.6245 -0.8532
  752MOL0     H 1474  10.313   9.379   3.257  3.0834  3.2282  0.2097
  752MOL0     H 1475  10.277   9.518   3.148 -2.5861 -0.8354 -1.5133
  752MOL0     H 1476  10.038   9.474   3.199  1.6149  2.0078  0.6535
  752MOL0     H 1477  10.087   9.333   3.296 -1.3606 -1.4823 -1.2293
  752MOL0     H 1478  10.016   9.273   3.055  0.4641 -1.2687 -1.3013
  752MOL0     H 1479  10.152   9.201   3.119  1.1184  1.4452  2.7455
  752MOL0     H 1480  10.342   9.509   2.830 -0.8891  2.0283  0.3878
  752MOL0     H 1481  10.420   9.707   2.769  0.8810 -0.2064 -0.3069
  752MOL0     H 1482  10.349   9.662   2.606 -3.3894 -2.7480  0.3402
  752MOL0     H 1483  10.299   9.811   2.705 -0.3513 -0.4253  4.8824
  752MOL0     H 1484   9.863  10.050   2.679  0.6873  1.1944 -1.0051
  752MOL0     H 1485   9.789  10.196   2.515 -0.8010  0.1296 -1.4712
  752MOL0     H 1486   9.870  10.035   2.131 -2.0778 -1.6183 -0.3501
  752MOL0     H 1487   9.710  10.069   2.069  0.7929 -0.5189 -0.5835
  752MOL0     H 1488   9.742  10.300   2.081 -2.1271 -1.7192 -0.0564
  752MOL0     H 1489   9.915  10.300   2.114 -0.8788  2.4382 -2.4906
  752MOL0     H 1490   9.787  10.220   1.858  0.9306  2.5168 -2.4110
  752MOL0     H 1491   9.924  10.122   1.911  0.1524 -0.0857  1.3236
  752MOL0     H 1492   9.917  10.421   1.903 -0.7001 -2.2260  1.3461
  752MOL0     H 1493  10.064  10.316   1.932  0.8530 -0.1302 -1.4691
  752MOL0     H 1494  10.064  10.405   1.698 -1.4174  0.3080  1.3894
  752MOL0     H 1495   9.912  10.327   1.664  0.8393  0.6565 -2.1614
  752MOL0     H 1496  10.152  10.154   1.765  1.5701 -1.8475 -1.8702
  752MOL0     H 1497  10.010  10.109   1.666 -1.2317  0.4274 -0.3603
  752MOL0     H 1498  10.209  10.102   1.529  0.2656  0.2658 -1.9274
  752MOL0     H 1499  10.262  10.261   1.560 -0.4283 -0.7145 -1.0902
  752MOL0     H 1500   9.987  10.209   1.429 -0.4206 -0.8258 -2.9762
  752MOL0     H 1501  10.135  10.209   1.331  1.6250  1.5388 -0.9682
  752MOL0     H 1502   9.723   9.871   2.245 -0.5011  2.8224 -1.2447
  752MOL0     H 1503   9.730   9.723   2.425  2.7413  0.0694 -3.6400
  752MOL0     H 1504   9.871   9.614   2.844 -0.1514  0.1247 -1.3857
  752MOL0     H 1505   9.940   9.457   2.975 -1.0928  0.7644  0.1146
  752MOL0     H 1506   9.902  10.678   2.741  3.7892 -0.2395 -0.1394
  752MOL0     H 1507  10.001  10.756   2.529 -4.1693  4.6312  2.9018
  752MOL0     H 1508   9.911  11.027   2.109 -1.2826 -0.3262 -1.7037
  752MOL0     H 1509  10.016  11.086   1.902 -1.3007 -0.6279 -1.9361
  752MOL0     H 1510  10.369  10.885   1.752 -0.1616 -2.0898 -0.5701
  752MOL0     H 1511  10.235  10.778   1.693 -0.6185  1.2093  0.9332
  752MOL0     H 1512  10.386  10.928   1.486 -0.3161  1.2204 -0.5144
  752MOL0     H 1513  10.278  11.043   1.564 -1.3730 -0.6849  2.5119
  752MOL0     H 1514  10.094  10.931   1.523  0.2988 -0.4517  0.9805
  752MOL0     H 1515  10.165  10.774   1.469  4.9051 -0.2350  3.6580
  752MOL0     H 1516  10.245  10.870   1.266  1.4182  1.2210 -0.2148
  752MOL0     H 1517  10.180  11.036   1.325 -0.9751 -0.8304  4.2300
  752MOL0     H 1518   9.863  10.861   1.119 -1.5375 -0.3931  0.7384
  752MOL0     H 1519  10.295  10.773   1.918  0.0077  2.3360  0.9168
  752MOL0     H 1520  10.175  10.686   2.135  2.3260  3.8042  4.0730
  753MOL0     O 1521   7.141   2.238   6.406 -0.2273 -0.5438 -0.5718
  753MOL0     C 1522   7.079   2.293   6.322 -0.3721  0.0487  0.2137
  753MOL0     O 1523   7.036   2.240   6.201  0.5593 -0.8517  0.6139
  753MOL0     C 1524   7.067   2.110   6.183 -2.1800  0.0534  0.1002
  753MOL0     C 1525   6.990   1.990   6.214 -0.1835 -1.4698  0.1662
  753MOL0     C 1526   7.048   1.865   6.192  1.1504  0.4307 -0.0324
  753MOL0     C 1527   7.174   1.847   6.133  0.2253 -0.4394 -0.3785
  753MOL0     O 1528   7.227   1.717   6.121 -0.6855 -0.3426  0.4806
  753MOL0     C 1529   7.367   1.699   6.103 -0.1037  0.4267 -0.7588
  753MOL0     C 1530   7.404   1.556   6.095  0.5307 -0.0461 -1.0900
  753MOL0     C 1531   7.332   1.471   5.983 -1.0408  1.0170 -0.4425
  753MOL0     C 1532   7.346   1.319   6.004 -0.2677 -0.3918  0.6367
  753MOL0     C 1533   7.246   1.239   5.920  0.5081 -0.3069  0.1225
  753MOL0     C 1534   7.270   1.090   5.946  0.0810 -0.2658  0.6315
  753MOL0     C 1535   7.157   1.001   5.878  0.1163  0.1037 -0.3597
  753MOL0     C 1536   7.060   0.971   5.995  0.3422 -0.7025 -0.6623
  753MOL0     N 1537   6.988   1.082   6.051 -0.8445  0.9327 -0.6775
  753MOL0     C 1538   6.886   1.146   6.005 -0.3229 -0.8145 -0.7627
  753MOL0     C 1539   6.858   1.251   6.088 -0.3882  0.2991  1.1381
  753MOL0     C 1540   6.752   1.357   6.077  0.2562  0.5339  0.3269
  753MOL0     C 1541   6.815   1.485   6.027 -0.8245  1.1502 -0.4354
  753MOL0     C 1542   6.843   1.485   5.875  0.5196 -0.0133  0.2434
  753MOL0     C 1543   6.927   1.605   5.841 -0.8213  0.3217  0.4926
  753MOL0     O 1544   6.893   1.730   5.915  0.2610 -0.0935  0.4089
  753MOL0     C 1545   6.837   1.837   5.852 -0.5429 -0.1998  0.5450
  753MOL0     C 1546   6.918   1.951   5.847 -0.1932  0.2191  0.2447
  753MOL0     C 1547   6.878   2.081   5.819  1.2905  1.2600 -0.2043
  753MOL0     C 1548   6.978   2.195   5.838  0.2041  0.4325 -0.5640
  753MOL0     C 1549   6.744   2.095   5.777  0.0751 -0.2560  0.3691
  753MOL0     C 1550   6.677   2.222   5.729  0.8273  0.6004  0.0658
  753MOL0     O 1551   6.543   2.222   5.697 -0.2687 -0.7138 -0.8806
  753MOL0     C 1552   6.472   2.335   5.672 -0.0519  0.1361  0.0206
  753MOL0     C 1553   6.345   2.347   5.723  0.5711 -0.0980  0.2458
  753MOL0     C 1554   6.284   2.474   5.722  0.6133 -0.7674  0.0355
  753MOL0     C 1555   6.341   2.588   5.658 -0.8911 -0.7864  0.1242
  753MOL0     O 1556   6.291   2.715   5.624  0.0032  0.7346  0.0315
  753MOL0     C 1557   6.157   2.739   5.663  0.4998 -0.8472 -0.1777
  753MOL0     C 1558   6.105   2.856   5.570 -0.5368  0.2491 -0.6491
  753MOL0     C 1559   6.089   2.837   5.413  0.2013 -0.0197  0.1714
  753MOL0     C 1560   6.212   2.896   5.338 -0.2423  0.3600  0.4252
  753MOL0     C 1561   6.175   2.924   5.193  0.4772 -0.1673 -0.3500
  753MOL0     C 1562   6.297   2.953   5.100  0.6850  0.0319 -0.9247
  753MOL0     C 1563   6.373   2.830   5.047  0.1883  0.7760  0.0207
  753MOL0     C 1564   6.486   2.874   4.951 -0.0486  0.9836 -0.4166
  753MOL0    Cl 1565   6.584   2.732   4.899  0.4864 -0.4105 -0.8922
  753MOL0     C 1566   6.459   2.562   5.583 -0.7819 -0.0397 -0.5974
  753MOL0     C 1567   6.519   2.436   5.588 -0.5673 -1.5326  0.5809
  753MOL0     O 1568   6.755   2.313   5.717 -0.2041 -0.1231  0.7571
  753MOL0     C 1569   6.655   1.978   5.784 -0.3545  0.0146  0.7303
  753MOL0     C 1570   6.704   1.856   5.825 -0.7782  0.6473  0.0669
  753MOL0     N 1571   6.962   1.256   6.189  0.5229  0.5146  0.4829
  753MOL0     N 1572   7.035   1.148   6.160  0.4670  0.3340  0.7871
  753MOL0     C 1573   7.243   1.963   6.094  0.7329  0.0619  0.5851
  753MOL0     C 1574   7.192   2.086   6.121 -0.9387 -0.7697  1.0915
  753MOL0     C 1575   7.056   2.436   6.341 -0.2753  0.1732  0.7562
  753MOL0     C 1576   7.025   2.480   6.473 -0.4980  0.7658  0.0953
  753MOL0     C 1577   6.990   2.614   6.500 -0.0238 -0.2787  0.4121
  753MOL0     C 1578   6.972   2.702   6.396  1.2614 -0.4979 -0.2692
  753MOL0     O 1579   6.930   2.832   6.426  0.5770  0.4945  0.0617
  753MOL0     C 1580   6.800   2.862   6.377 -1.0442  0.7318 -0.4178
  753MOL0     C 1581   6.733   2.968   6.461 -0.1591  0.2768 -0.0588
  753MOL0     C 1582   6.799   3.109   6.469 -0.6362 -0.0344  0.9988
  753MOL0     C 1583   6.706   3.200   6.554 -0.0057 -1.0996 -0.2101
  753MOL0     C 1584   6.739   3.175   6.697 -0.5380 -0.0685 -0.9064
  753MOL0     C 1585   6.759   3.158   6.816  0.2138 -0.1819 -1.1126
  753MOL0     C 1586   6.981   2.651   6.267 -0.6966 -0.4580  0.6056
  753MOL0     C 1587   7.031   2.522   6.237 -0.3907  0.2254 -0.3181
  753MOL0     H 1588   6.889   1.995   6.254 -1.8713 -0.6387 -3.7053
  753MOL0     H 1589   6.981   1.783   6.214  1.1051 -0.0897 -1.8995
  753MOL0     H 1590   7.405   1.742   6.010  2.0805 -1.1168 -0.6626
  753MOL0     H 1591   7.429   1.742   6.183 -0.8799 -0.9415  0.6314
  753MOL0     H 1592   7.513   1.549   6.088  0.9353 -0.1645  2.9928
  753MOL0     H 1593   7.382   1.520   6.196  1.8965  1.3699 -0.2459
  753MOL0     H 1594   7.224   1.491   5.985 -1.3125 -0.3183  1.9286
  753MOL0     H 1595   7.364   1.500   5.882 -0.6415 -1.1804 -0.9897
  753MOL0     H 1596   7.448   1.285   5.986  0.3185  0.5853  1.9246
  753MOL0     H 1597   7.325   1.299   6.110  0.1596  0.1167  0.8185
  753MOL0     H 1598   7.144   1.268   5.947  0.2762 -1.3755  0.4543
  753MOL0     H 1599   7.251   1.263   5.813  3.4691  0.0674  0.2695
  753MOL0     H 1600   7.363   1.059   5.897 -0.2716 -0.9660  0.3949
  753MOL0     H 1601   7.285   1.076   6.054  3.7016 -3.0972 -0.0055
  753MOL0     H 1602   7.128   1.049   5.785  2.5494 -0.4411 -1.4679
  753MOL0     H 1603   7.209   0.913   5.839  3.9974  2.6886 -1.6324
  753MOL0     H 1604   7.123   0.929   6.074  0.6263 -3.4450 -2.2428
  753MOL0     H 1605   6.995   0.890   5.962 -1.6363  0.6291 -0.2084
  753MOL0     H 1606   6.835   1.107   5.918  1.7997 -3.6341 -0.9020
  753MOL0     H 1607   6.670   1.338   6.008  1.7534 -0.5096 -1.2577
  753MOL0     H 1608   6.706   1.358   6.176  0.3576 -0.4615  0.3972
  753MOL0     H 1609   6.900   1.518   6.086 -0.4072  2.8550 -1.8907
  753MOL0     H 1610   6.742   1.563   6.051  1.0986  3.2921 -1.2822
  753MOL0     H 1611   6.746   1.485   5.824  0.5809  0.2895  0.1254
  753MOL0     H 1612   6.900   1.398   5.842  1.4428  0.4677  0.5357
  753MOL0     H 1613   6.932   1.625   5.733  0.1516  3.1155  0.9691
  753MOL0     H 1614   7.029   1.591   5.879 -1.3539 -1.8527  1.2226
  753MOL0     H 1615   7.024   1.938   5.870 -0.7392  0.3900  3.2269
  753MOL0     H 1616   7.068   2.150   5.881 -1.8089 -3.1346  0.3005
  753MOL0     H 1617   7.001   2.255   5.750  1.4898 -0.5418 -0.9260
  753MOL0     H 1618   6.928   2.263   5.908 -1.3147  1.1125 -2.2436
  753MOL0     H 1619   6.303   2.272   5.790  0.4346  0.4797  0.8165
  753MOL0     H 1620   6.186   2.468   5.768  0.8594 -2.5534  0.3958
  753MOL0     H 1621   6.086   2.655   5.659 -0.9382  0.3718 -2.4034
  753MOL0     H 1622   6.161   2.761   5.770 -1.3527 -2.2844  0.2510
  753MOL0     H 1623   6.014   2.897   5.615 -0.6276 -0.3648 -0.2612
  753MOL0     H 1624   6.176   2.938   5.586  0.5485 -0.6191 -0.9048
  753MOL0     H 1625   5.994   2.882   5.384  1.0212  1.7910  0.1569
  753MOL0     H 1626   6.074   2.733   5.383  0.1979  0.4414 -1.5096
  753MOL0     H 1627   6.239   2.985   5.395 -1.1359 -0.1078  1.5983
  753MOL0     H 1628   6.299   2.829   5.337 -0.3064  0.0632 -3.6614
  753MOL0     H 1629   6.113   3.014   5.186  0.3473 -0.3814 -2.9460
  753MOL0     H 1630   6.111   2.840   5.164 -2.5666  0.8791  2.6088
  753MOL0     H 1631   6.255   3.011   5.017  2.2106  4.6557  1.2070
  753MOL0     H 1632   6.366   3.018   5.154  0.8465  1.0319 -2.2783
  753MOL0     H 1633   6.310   2.768   4.983  1.9403 -0.5269 -0.5438
  753MOL0     H 1634   6.416   2.761   5.121  0.8285  1.2102  0.0592
  753MOL0     H 1635   6.558   2.936   5.006  1.6416 -0.4205 -0.9678
  753MOL0     H 1636   6.454   2.931   4.863 -2.2075 -0.2217 -0.4741
  753MOL0     H 1637   6.504   2.641   5.524 -3.2925  1.0086 -1.1952
  753MOL0     H 1638   6.609   2.412   5.532 -0.9652 -1.2166 -0.2111
  753MOL0     H 1639   6.548   1.977   5.768 -0.3525 -0.7445  0.7307
  753MOL0     H 1640   6.634   1.776   5.845 -1.4743  1.6939  2.0589
  753MOL0     H 1641   7.331   1.967   6.030 -1.3436  1.5421 -2.4127
  753MOL0     H 1642   7.268   2.159   6.095 -2.9033  0.2274 -2.5045
  753MOL0     H 1643   7.049   2.406   6.549  1.3125  0.8367 -0.3645
  753MOL0     H 1644   6.982   2.656   6.600  0.9437 -1.5903  1.0725
  753MOL0     H 1645   6.801   2.893   6.272 -4.0663  5.0369  0.5652
  753MOL0     H 1646   6.739   2.771   6.384  0.1636 -0.0238  0.5840
  753MOL0     H 1647   6.730   2.933   6.565  0.2306  3.2758  1.0564
  753MOL0     H 1648   6.631   2.976   6.423 -0.2728 -1.6514 -0.2723
  753MOL0     H 1649   6.814   3.149   6.368 -0.9705  1.5584  1.5431
  753MOL0     H 1650   6.899   3.097   6.511 -1.1697 -0.1233  2.3018
  753MOL0     H 1651   6.603   3.185   6.520  0.5201  0.4749 -2.7880
  753MOL0     H 1652   6.711   3.309   6.548 -3.9541 -0.4840  3.1931
  753MOL0     H 1653   6.771   3.132   6.919  1.5513  1.8328 -0.6990
  753MOL0     H 1654   6.948   2.718   6.189 -1.6771 -0.3065  1.1219
  753MOL0     H 1655   7.029   2.479   6.137 -2.0827  0.8201 -0.5745
  754MOL0     O 1656   9.242   9.218  10.127 -0.0660  0.1569  0.1550
  754MOL0     C 1657   9.139   9.194  10.071 -0.2687 -1.1013  0.4059
  754MOL0     O 1658   9.041   9.283  10.041 -0.2325  0.7431  0.5646
  754MOL0     C 1659   9.054   9.404  10.104  0.1342  0.1598  0.2906
  754MOL0     C 1660   9.152   9.500  10.076 -0.5412 -0.9772 -0.1904
  754MOL0     C 1661   9.140   9.627  10.142  0.9207  0.4171  0.3136
  754MOL0     C 1662   9.025   9.652  10.221 -0.1631 -0.2721  0.8536
  754MOL0     O 1663   9.015   9.773  10.284  0.0961  0.7778  0.1965
  754MOL0     C 1664   9.102   9.781  10.400 -0.4638 -0.0641  0.9872
  754MOL0     C 1665   9.030   9.904  10.468 -0.4242 -0.2160 -0.5006
  754MOL0     C 1666   9.093   9.927  10.608 -0.1490 -0.3490 -0.2971
  754MOL0     C 1667   9.076  10.063  10.669  1.0730 -0.8934  0.0059
  754MOL0     C 1668   9.142  10.076  10.807 -0.8031 -0.0142  0.5697
  754MOL0     C 1669   9.195  10.208  10.825 -1.0251 -0.8377  1.1760
  754MOL0     C 1670   9.252  10.226  10.967  0.0525 -0.6936 -0.5607
  754MOL0     C 1671   9.368  10.137  11.011 -0.0827  0.4693 -0.5374
  754MOL0     N 1672   9.486  10.162  10.925  0.1172  0.3594 -0.2603
  754MOL0     C 1673   9.535  10.286  10.919 -0.4351 -0.7420 -0.2694
  754MOL0     C 1674   9.631  10.280  10.828  0.0769 -0.9376 -0.3931
  754MOL0     C 1675   9.699  10.387  10.746  0.1987  0.1559 -0.1051
  754MOL0     C 1676   9.847  10.352  10.732  0.6567 -0.1448 -0.0528
  754MOL0     C 1677   9.917  10.489  10.700  0.6050  0.1003  0.2322
  754MOL0     C 1678  10.067  10.469  10.728  0.3546  0.2568  0.0316
  754MOL0     O 1679  10.158  10.561  10.658 -0.1676  0.6061 -0.0600
  754MOL0     C 1680  10.200  10.681  10.708 -0.3119 -0.0761 -0.5876
  754MOL0     C 1681  10.305  10.750  10.649  0.4224  0.6163  0.4039
  754MOL0     C 1682  10.360  10.876  10.693 -0.8451 -0.8200  0.0494
  754MOL0     C 1683  10.477  10.941  10.619 -0.5849  0.1314  0.2258
  754MOL0     C 1684  10.299  10.935  10.807 -0.3845  0.1002  0.4476
  754MOL0     C 1685  10.343  11.069  10.867 -0.1825  0.7505 -0.9738
  754MOL0     O 1686  10.286  11.107  10.989 -0.3195 -0.1901  0.1836
  754MOL0     C 1687  10.337  11.203  11.068 -0.2285  0.1620 -0.1428
  754MOL0     C 1688  10.299  11.192  11.205 -0.5427  0.5194 -0.1385
  754MOL0     C 1689  10.316  11.293  11.294 -0.0158  0.0959 -0.3738
  754MOL0     C 1690  10.385  11.407  11.244  0.0902  0.4923 -0.1472
  754MOL0     O 1691  10.411  11.504  11.334 -0.6644 -0.4507 -0.3701
  754MOL0     C 1692  10.541  11.510  11.390 -0.4324  0.3172  0.2124
  754MOL0     C 1693  10.556  11.434  11.520  1.1973  0.0110  0.3064
  754MOL0     C 1694  10.629  11.304  11.515 -0.0544  0.7114  0.2211
  754MOL0     C 1695  10.777  11.328  11.477 -0.8239  0.3759 -0.3909
  754MOL0     C 1696  10.874  11.232  11.564 -0.0952 -0.1634  0.7151
  754MOL0     C 1697  10.878  11.282  11.704 -0.1026 -0.4090 -0.0045
  754MOL0     C 1698  10.933  11.177  11.796 -0.7838  0.1776  0.3810
  754MOL0     C 1699  10.937  11.226  11.942 -0.0095 -0.4650 -0.7210
  754MOL0    Cl 1700  10.993  11.389  11.958 -0.0101  0.0899 -0.1968
  754MOL0     C 1701  10.420  11.417  11.108  0.9364 -0.2815  0.0414
  754MOL0     C 1702  10.382  11.319  11.019  0.5066  0.0957  0.1446
  754MOL0     O 1703  10.426  11.129  10.812 -0.1434 -0.4648  0.5390
  754MOL0     C 1704  10.197  10.864  10.872 -0.1775 -0.2474  0.0125
  754MOL0     C 1705  10.142  10.744  10.826 -0.1476 -0.8356  0.2087
  754MOL0     N 1706   9.649  10.148  10.791  0.5082  0.6063  0.4210
  754MOL0     N 1707   9.561  10.071  10.850  0.5901  0.0153  0.4520
  754MOL0     C 1708   8.923   9.559  10.238  0.5484  1.1259  1.3832
  754MOL0     C 1709   8.936   9.432  10.177 -0.1163 -0.2118  0.7000
  754MOL0     C 1710   9.129   9.056  10.040 -0.2750  0.8494  0.2181
  754MOL0     C 1711   9.051   9.013   9.931  0.6216 -0.9030 -0.2399
  754MOL0     C 1712   9.020   8.883   9.899  0.5081 -0.2860 -0.4489
  754MOL0     C 1713   9.073   8.786   9.980 -0.5975 -0.2162 -0.3042
  754MOL0     O 1714   9.035   8.655   9.941  0.2119  0.6771  0.3974
  754MOL0     C 1715   9.113   8.538   9.987  0.2345  0.2057  0.3104
  754MOL0     C 1716   9.194   8.496   9.864  0.0865 -0.1367 -0.0603
  754MOL0     C 1717   9.293   8.379   9.882  0.5489 -1.0752 -1.2897
  754MOL0     C 1718   9.308   8.299   9.754  0.3067  0.7498 -0.2143
  754MOL0     C 1719   9.196   8.209   9.718 -0.1842 -0.1744  0.0245
  754MOL0     C 1720   9.114   8.139   9.670 -0.2141 -1.0210  0.0586
  754MOL0     C 1721   9.162   8.820  10.086 -0.1703  0.2686 -1.0178
  754MOL0     C 1722   9.191   8.952  10.114 -0.4830 -0.7870  0.2381
  754MOL0     H 1723   9.221   9.477   9.996 -2.5781 -1.8166 -1.8106
  754MOL0     H 1724   9.207   9.712  10.128  1.5599 -0.4003 -2.0075
  754MOL0     H 1725   9.099   9.683  10.449 -1.4524  0.3958  1.8883
  754MOL0     H 1726   9.205   9.798  10.368 -0.2933  0.8015  1.9560
  754MOL0     H 1727   9.042   9.998  10.414  1.1645  0.9434  1.6813
  754MOL0     H 1728   8.924   9.879  10.474 -0.6258 -0.2329 -3.2325
  754MOL0     H 1729   9.050   9.850  10.673  2.5071 -0.0227  2.0291
  754MOL0     H 1730   9.201   9.908  10.611  0.3482  2.1204 -0.2533
  754MOL0     H 1731   9.116  10.134  10.595  0.2357 -0.5921 -0.1768
  754MOL0     H 1732   8.968  10.080  10.675  1.4515  1.2135  3.2566
  754MOL0     H 1733   9.070  10.056  10.887  1.5388  0.3257  2.9233
  754MOL0     H 1734   9.223  10.002  10.812  0.0286  0.8454  0.1752
  754MOL0     H 1735   9.275  10.228  10.753 -1.6600  1.2991  0.9834
  754MOL0     H 1736   9.117  10.283  10.807 -0.1148  0.1047  1.0694
  754MOL0     H 1737   9.292  10.328  10.977  0.2570 -0.9196  1.2959
  754MOL0     H 1738   9.173  10.218  11.042  2.1362  3.7196  2.6119
  754MOL0     H 1739   9.335  10.033  11.017 -0.3995  0.5871 -0.1112
  754MOL0     H 1740   9.397  10.155  11.115 -0.1952 -2.7621  0.1406
  754MOL0     H 1741   9.508  10.376  10.973 -2.9949 -1.4539 -0.2259
  754MOL0     H 1742   9.653  10.390  10.647 -3.4586  1.4421  1.4820
  754MOL0     H 1743   9.684  10.485  10.791 -0.6068 -0.5525  1.2264
  754MOL0     H 1744   9.857  10.286  10.646  1.0928  1.1884 -1.0601
  754MOL0     H 1745   9.884  10.320  10.830  3.4482 -0.1435 -1.0152
  754MOL0     H 1746   9.873  10.572  10.756 -2.4831 -0.5195 -1.1214
  754MOL0     H 1747   9.909  10.516  10.595  0.1193 -4.4541 -1.0872
  754MOL0     H 1748  10.102  10.371  10.693 -0.9603  0.2977 -1.4826
  754MOL0     H 1749  10.087  10.461  10.836 -1.1834  1.3764  0.4258
  754MOL0     H 1750  10.342  10.717  10.553  2.2462  2.9730  0.1971
  754MOL0     H 1751  10.560  10.968  10.685 -0.3393  0.5472 -0.2463
  754MOL0     H 1752  10.509  10.881  10.533  0.2901 -2.9100  2.5262
  754MOL0     H 1753  10.450  11.037  10.574  3.0583  1.1654 -0.1308
  754MOL0     H 1754  10.253  11.098  11.234  0.7458 -0.2230 -0.4249
  754MOL0     H 1755  10.296  11.304  11.400  2.4432  0.8693  0.0670
  754MOL0     H 1756  10.610  11.481  11.310 -1.3334 -0.5138 -0.2875
  754MOL0     H 1757  10.560  11.614  11.416 -2.4719  0.7621  0.0748
  754MOL0     H 1758  10.607  11.499  11.592  3.7734 -1.4533 -0.1046
  754MOL0     H 1759  10.456  11.422  11.564  0.9421  0.2940 -0.1826
  754MOL0     H 1760  10.586  11.229  11.448  0.2001  0.2863  0.5197
  754MOL0     H 1761  10.623  11.253  11.612 -0.3383  1.9879  0.8964
  754MOL0     H 1762  10.794  11.305  11.372  1.1362  0.1540 -0.0590
  754MOL0     H 1763  10.800  11.434  11.495 -0.9017  1.1474 -4.0009
  754MOL0     H 1764  10.972  11.210  11.522 -0.3323  1.0935 -0.5457
  754MOL0     H 1765  10.830  11.132  11.562  0.9880 -0.6881 -2.3990
  754MOL0     H 1766  10.942  11.370  11.708 -1.3283  0.4562  1.9882
  754MOL0     H 1767  10.779  11.315  11.739 -0.6015 -0.7978 -0.9944
  754MOL0     H 1768  11.037  11.167  11.764 -0.1399  4.2073  0.6747
  754MOL0     H 1769  10.884  11.079  11.799  2.2768 -1.4758  0.6893
  754MOL0     H 1770  11.004  11.160  11.998 -2.8084 -0.9347  2.4153
  754MOL0     H 1771  10.842  11.207  11.994 -0.1647 -0.7171 -1.0948
  754MOL0     H 1772  10.453  11.512  11.068  2.1015 -0.0021  1.5557
  754MOL0     H 1773  10.395  11.346  10.915  0.7612 -0.0637  0.1331
  754MOL0     H 1774  10.144  10.904  10.959  1.9272  0.5351  0.9973
  754MOL0     H 1775  10.068  10.687  10.881  0.3763  0.2627  2.1301
  754MOL0     H 1776   8.834   9.582  10.296 -0.6349 -2.2111  1.0997
  754MOL0     H 1777   8.859   9.355  10.182  2.4085 -2.9017  0.7737
  754MOL0     H 1778   9.006   9.097   9.878 -0.1935  0.4944  2.4640
  754MOL0     H 1779   8.961   8.852   9.813 -0.0107 -2.2670  0.5532
  754MOL0     H 1780   9.171   8.554  10.079 -0.0262 -1.1077  0.7229
  754MOL0     H 1781   9.044   8.459  10.018  0.0743  0.6712  1.1755
  754MOL0     H 1782   9.244   8.579   9.812 -0.9644 -1.0050 -2.6631
  754MOL0     H 1783   9.116   8.461   9.795 -0.2981  3.7433 -1.8499
  754MOL0     H 1784   9.266   8.305   9.958  0.6504 -1.9692 -2.1036
  754MOL0     H 1785   9.387   8.425   9.913 -0.4568 -0.8655  1.7405
  754MOL0     H 1786   9.395   8.233   9.761 -1.0384 -0.9481  1.5014
  754MOL0     H 1787   9.336   8.361   9.668 -0.3501 -1.2036 -1.9119
  754MOL0     H 1788   9.036   8.084   9.621 -0.1381  0.6264 -2.0508
  754MOL0     H 1789   9.208   8.748  10.154  0.1738  2.3658  1.0723
  754MOL0     H 1790   9.264   8.960  10.194  2.2449 -1.9784 -1.9743
  755MOL0     O 1791   5.636   5.538   9.011  0.3064 -0.4569 -0.0249
  755MOL0     C 1792   5.566   5.479   9.092  0.0113  0.6588  0.1578
  755MOL0     O 1793   5.603   5.465   9.223  0.3588 -0.1526 -0.7306
  755MOL0     C 1794   5.727   5.485   9.269  0.2767 -0.5003  0.8905
  755MOL0     C 1795   5.844   5.430   9.214  0.1974 -0.4356  0.9827
  755MOL0     C 1796   5.968   5.455   9.270  0.0242 -0.8141  1.1452
  755MOL0     C 1797   5.979   5.535   9.388  0.7481 -0.2995  0.5067
  755MOL0     O 1798   6.093   5.534   9.448  0.2275 -0.2065  0.0241
  755MOL0     C 1799   6.124   5.584   9.578  0.2555  0.5740 -1.1061
  755MOL0     C 1800   6.270   5.550   9.602  0.4507 -0.1281 -0.7943
  755MOL0     C 1801   6.319   5.605   9.742  0.5105 -0.1411  0.0192
  755MOL0     C 1802   6.467   5.595   9.766  0.1327 -0.5062  0.1463
  755MOL0     C 1803   6.513   5.639   9.908  0.0733  0.4523 -0.5603
  755MOL0     C 1804   6.498   5.547  10.029  0.2847 -0.2584  0.5584
  755MOL0     C 1805   6.550   5.622  10.156  0.0111  0.0420  0.3966
  755MOL0     C 1806   6.587   5.528  10.269  0.0514 -0.0873  0.4204
  755MOL0     N 1807   6.641   5.599  10.393 -0.7513  0.3356  0.8339
  755MOL0     C 1808   6.675   5.543  10.514 -0.7087  0.5571  0.0107
  755MOL0     C 1809   6.733   5.641  10.585  0.2888 -0.0214 -0.1910
  755MOL0     C 1810   6.776   5.633  10.729 -0.0596  0.9455 -0.0634
  755MOL0     C 1811   6.657   5.659  10.829 -0.9654 -0.0833 -0.6242
  755MOL0     C 1812   6.691   5.627  10.975 -0.3401  0.5573  0.1002
  755MOL0     C 1813   6.562   5.647  11.073  0.7037  0.6461  0.5283
  755MOL0     O 1814   6.450   5.576  11.017 -0.6337 -0.2427  0.3292
  755MOL0     C 1815   6.364   5.512  11.108  0.5571  0.3790 -0.2817
  755MOL0     C 1816   6.314   5.386  11.074 -0.2779  0.6216 -0.2491
  755MOL0     C 1817   6.219   5.325  11.160 -0.0537 -0.0446 -1.0102
  755MOL0     C 1818   6.143   5.204  11.118  0.2761 -0.1132 -0.4980
  755MOL0     C 1819   6.186   5.384  11.286  0.4337 -0.6353 -0.4147
  755MOL0     C 1820   6.104   5.320  11.388 -0.4125 -0.0666  0.5571
  755MOL0     O 1821   6.050   5.402  11.482 -0.1914 -0.0348  0.9132
  755MOL0     C 1822   5.978   5.351  11.585  0.0789  0.6208  0.2985
  755MOL0     C 1823   6.041   5.314  11.704  0.4560 -0.0941 -0.0868
  755MOL0     C 1824   5.976   5.259  11.814 -0.6622  0.5014  0.6218
  755MOL0     C 1825   5.836   5.235  11.801  0.4504 -0.2993 -0.7860
  755MOL0     O 1826   5.758   5.181  11.904 -0.5981  0.0809  0.3066
  755MOL0     C 1827   5.818   5.060  11.963 -0.5138 -0.3707  0.0986
  755MOL0     C 1828   5.704   4.969  12.016  0.1888 -0.4558 -0.2793
  755MOL0     C 1829   5.577   4.968  11.916  0.1710 -0.3634 -1.1647
  755MOL0     C 1830   5.460   4.882  11.972 -0.3157 -0.2547  0.4458
  755MOL0     C 1831   5.351   4.869  11.862  0.0011  0.2667 -0.2484
  755MOL0     C 1832   5.244   4.784  11.924 -0.5792  0.7378  1.1963
  755MOL0     C 1833   5.120   4.792  11.832 -0.1506  0.2020  0.2956
  755MOL0     C 1834   5.011   4.894  11.885  0.3179  0.7131  0.1361
  755MOL0    Cl 1835   5.077   5.058  11.841 -0.0018 -0.2715  0.3627
  755MOL0     C 1836   5.771   5.280  11.688 -0.2285 -0.0242  0.1306
  755MOL0     C 1837   5.839   5.333  11.582 -0.9903  0.3711  1.0182
  755MOL0     O 1838   6.079   5.204  11.388  0.1812 -0.2761  1.2267
  755MOL0     C 1839   6.245   5.508  11.320 -0.2483 -0.0818 -1.1037
  755MOL0     C 1840   6.340   5.567  11.232  0.5866 -0.4582  0.4408
  755MOL0     N 1841   6.728   5.756  10.506 -0.5701 -0.6360 -0.3650
  755MOL0     N 1842   6.677   5.728  10.390  0.5042 -0.7105  0.3586
  755MOL0     C 1843   5.867   5.600   9.437  0.0039  1.1199 -0.3686
  755MOL0     C 1844   5.744   5.577   9.374  0.0548  0.2602  0.0731
  755MOL0     C 1845   5.431   5.434   9.054 -0.8192  0.1583 -0.3082
  755MOL0     C 1846   5.386   5.455   8.924 -0.8052 -0.2329 -0.9745
  755MOL0     C 1847   5.275   5.390   8.890  0.7977  0.2920 -0.9244
  755MOL0     C 1848   5.194   5.313   8.973 -0.8880  0.5236 -0.0903
  755MOL0     O 1849   5.074   5.278   8.927  0.9967 -0.3228 -0.3074
  755MOL0     C 1850   4.968   5.231   9.018  0.2525  0.4152  0.4232
  755MOL0     C 1851   4.895   5.340   9.089 -0.3083 -0.1163  0.0903
  755MOL0     C 1852   4.766   5.289   9.145  0.1747 -0.1709  0.4623
  755MOL0     C 1853   4.675   5.413   9.180 -0.1153  1.0871  0.3282
  755MOL0     C 1854   4.533   5.373   9.196 -0.6412 -0.2361 -1.1526
  755MOL0     C 1855   4.418   5.342   9.211  0.2474 -1.2851  0.6792
  755MOL0     C 1856   5.233   5.311   9.102 -0.2934 -0.1513 -1.1854
  755MOL0     C 1857   5.353   5.371   9.146 -0.3913  0.3870 -0.6932
  755MOL0     H 1858   5.822   5.367   9.129 -1.6058  2.0041 -0.5152
  755MOL0     H 1859   6.055   5.408   9.225  1.2803  1.5269  0.9398
  755MOL0     H 1860   6.103   5.692   9.586  0.1776  0.6968 -2.7855
  755MOL0     H 1861   6.063   5.520   9.642  2.9873 -0.6251  0.4738
  755MOL0     H 1862   6.274   5.441   9.601 -2.1482 -0.3411 -3.4549
  755MOL0     H 1863   6.329   5.587   9.517  1.1216  0.0951 -0.2421
  755MOL0     H 1864   6.298   5.712   9.747 -2.1908 -0.5926 -0.2199
  755MOL0     H 1865   6.265   5.562   9.827  1.7086  0.5090  1.1371
  755MOL0     H 1866   6.508   5.496   9.745  1.2177 -0.0803  0.2031
  755MOL0     H 1867   6.507   5.664   9.691 -1.2232  1.5296  1.1832
  755MOL0     H 1868   6.618   5.668   9.899  0.1021  0.2280 -0.9448
  755MOL0     H 1869   6.453   5.726   9.937 -0.2058 -0.1460  0.7222
  755MOL0     H 1870   6.393   5.530  10.052  0.8202  0.6806  4.2933
  755MOL0     H 1871   6.549   5.450  10.016 -2.1315 -1.5326  0.0859
  755MOL0     H 1872   6.638   5.680  10.128 -1.3181  1.6759 -0.6454
  755MOL0     H 1873   6.467   5.686  10.187 -2.0958 -0.7436 -3.0461
  755MOL0     H 1874   6.662   5.461  10.228  2.3497  2.4849  0.1123
  755MOL0     H 1875   6.496   5.471  10.293 -1.5621  1.7783 -0.9049
  755MOL0     H 1876   6.666   5.444  10.558  2.5918  0.2687  0.2885
  755MOL0     H 1877   6.823   5.536  10.745 -0.3225  1.0546  1.4264
  755MOL0     H 1878   6.846   5.715  10.746  0.9457 -0.4926  3.6391
  755MOL0     H 1879   6.578   5.589  10.798  0.5203 -1.6566 -1.0168
  755MOL0     H 1880   6.626   5.763  10.816  0.4703  0.2839 -1.2396
  755MOL0     H 1881   6.774   5.690  11.010  2.2361 -1.2577 -2.2894
  755MOL0     H 1882   6.727   5.524  10.972  0.0985  0.7280 -0.8426
  755MOL0     H 1883   6.539   5.750  11.102  0.2416  0.1014  2.2649
  755MOL0     H 1884   6.595   5.604  11.169  3.1468 -1.2769 -1.0479
  755MOL0     H 1885   6.343   5.348  10.977 -0.6470  1.1347 -0.5639
  755MOL0     H 1886   6.038   5.199  11.150  0.8142 -2.4035  1.2358
  755MOL0     H 1887   6.152   5.191  11.010 -2.4694 -2.9738 -0.5433
  755MOL0     H 1888   6.187   5.117  11.168 -1.1522  0.6820  2.4103
  755MOL0     H 1889   6.147   5.337  11.708 -0.2933  4.2219  0.3711
  755MOL0     H 1890   6.029   5.244  11.908  0.1024  0.6766  0.2298
  755MOL0     H 1891   5.873   5.010  11.883  0.1493 -0.6400  0.7100
  755MOL0     H 1892   5.888   5.087  12.042  1.6582 -2.3157 -1.0244
  755MOL0     H 1893   5.732   4.866  12.042 -2.3272 -0.5524  2.7081
  755MOL0     H 1894   5.665   4.998  12.114  2.5487 -0.3757  0.7032
  755MOL0     H 1895   5.618   4.956  11.815  2.2271  1.6176 -0.6362
  755MOL0     H 1896   5.533   5.068  11.912  1.6318  0.2769 -2.8089
  755MOL0     H 1897   5.494   4.782  12.004 -4.0094 -1.6869  0.3796
  755MOL0     H 1898   5.423   4.930  12.063  3.8893  4.2857  0.1971
  755MOL0     H 1899   5.396   4.816  11.777  2.8282  2.1047 -0.0244
  755MOL0     H 1900   5.301   4.962  11.834 -0.6552 -0.6344 -2.1929
  755MOL0     H 1901   5.288   4.685  11.907  1.2074  1.6084  0.6506
  755MOL0     H 1902   5.211   4.798  12.028 -3.8218  2.1010  0.1318
  755MOL0     H 1903   5.070   4.695  11.826 -1.2081  0.8003 -3.1435
  755MOL0     H 1904   5.157   4.805  11.730  0.8646 -1.6131  0.3834
  755MOL0     H 1905   5.007   4.870  11.992  1.0658 -2.3408 -0.4316
  755MOL0     H 1906   4.914   4.876  11.837  0.6291 -0.3392 -0.1137
  755MOL0     H 1907   5.662   5.281  11.686 -0.2251  1.1562 -1.7705
  755MOL0     H 1908   5.788   5.354  11.489 -0.2929  1.6563  0.8983
  755MOL0     H 1909   6.211   5.552  11.413 -1.1488 -0.8679 -1.0443
  755MOL0     H 1910   6.383   5.662  11.263  0.4652 -0.3766  0.3590
  755MOL0     H 1911   5.869   5.665   9.524 -0.4867  0.8720 -0.1693
  755MOL0     H 1912   5.657   5.626   9.416 -0.1335 -0.6814  0.8164
  755MOL0     H 1913   5.458   5.508   8.862  4.1470 -2.7353  1.9357
  755MOL0     H 1914   5.217   5.412   8.801 -1.1646 -1.3595 -0.1277
  755MOL0     H 1915   4.897   5.175   8.956  2.1884 -0.2181 -1.3344
  755MOL0     H 1916   5.016   5.172   9.097 -2.3468  1.1759  2.7219
  755MOL0     H 1917   4.884   5.417   9.013  0.3379 -1.3731 -1.3423
  755MOL0     H 1918   4.953   5.382   9.172 -3.0899  0.9698  1.6312
  755MOL0     H 1919   4.785   5.231   9.236 -1.1203 -2.2637 -0.5410
  755MOL0     H 1920   4.729   5.221   9.069  1.3189 -1.0892  0.7047
  755MOL0     H 1921   4.687   5.484   9.098 -0.0094 -2.7024 -3.2943
  755MOL0     H 1922   4.718   5.460   9.268  0.4464  1.3028 -0.0532
  755MOL0     H 1923   4.312   5.333   9.220 -0.0721  0.4036 -0.7811
  755MOL0     H 1924   5.175   5.273   9.186 -0.3404  1.2096 -0.5629
  755MOL0     H 1925   5.380   5.371   9.251  0.6885  1.7210 -0.9275
  756MOL0     O 1926   1.427  10.949  10.441 -0.3828  0.3400  0.0777
  756MOL0     C 1927   1.471  10.883  10.537 -0.3255 -0.1906  0.5391
  756MOL0     O 1928   1.536  10.933  10.640 -0.8115 -0.8635  0.0447
  756MOL0     C 1929   1.554  11.068  10.632 -0.3636 -0.0038 -0.4543
  756MOL0     C 1930   1.678  11.119  10.592  0.4684 -0.2799 -1.0601
  756MOL0     C 1931   1.703  11.256  10.603 -0.0918 -0.7794 -0.6983
  756MOL0     C 1932   1.609  11.344  10.656  0.2537 -0.3581  0.2064
  756MOL0     O 1933   1.646  11.471  10.668  0.0281  0.1124  0.4552
  756MOL0     C 1934   1.545  11.570  10.664  0.4248 -0.2915  0.5818
  756MOL0     C 1935   1.617  11.711  10.639  0.7427  0.0010  0.4624
  756MOL0     C 1936   1.678  11.725  10.499  0.3652 -0.3288 -0.4736
  756MOL0     C 1937   1.784  11.841  10.497  1.2468  0.7523  0.1874
  756MOL0     C 1938   1.843  11.861  10.361  0.1642 -0.2659  0.3099
  756MOL0     C 1939   1.930  11.982  10.349  0.0136  0.1111 -1.2023
  756MOL0     C 1940   1.974  12.019  10.204  0.0077 -0.7689 -0.4681
  756MOL0     C 1941   2.057  11.913  10.130 -0.2369 -0.4730 -0.5971
  756MOL0     N 1942   2.195  11.915  10.180 -0.6028  0.2007 -0.4611
  756MOL0     C 1943   2.224  11.866  10.299  0.3926 -0.1516 -0.6334
  756MOL0     C 1944   2.351  11.902  10.309 -0.8051 -0.0102  0.5590
  756MOL0     C 1945   2.442  11.882  10.427 -0.6374 -1.5926  0.5518
  756MOL0     C 1946   2.381  11.898  10.562 -0.3061 -0.0994  0.3203
  756MOL0     C 1947   2.400  11.762  10.628  0.0099 -0.3769 -0.8605
  756MOL0     C 1948   2.332  11.765  10.762 -0.5953 -0.2864  0.5583
  756MOL0     O 1949   2.393  11.858  10.853  0.7609  0.5919  0.3662
  756MOL0     C 1950   2.371  11.843  10.986 -0.0571  0.2896 -0.5396
  756MOL0     C 1951   2.451  11.925  11.067  0.4828  0.6119 -0.2278
  756MOL0     C 1952   2.460  11.907  11.209 -0.2626  0.3088  1.0066
  756MOL0     C 1953   2.565  11.988  11.267 -0.6524 -0.1265  0.0891
  756MOL0     C 1954   2.381  11.802  11.270 -0.0623 -0.2083 -0.2178
  756MOL0     C 1955   2.389  11.754  11.414  0.4660 -0.1544 -0.6960
  756MOL0     O 1956   2.313  11.651  11.448  0.2266  0.0667 -0.3400
  756MOL0     C 1957   2.323  11.581  11.566  0.8773  0.1313  0.1990
  756MOL0     C 1958   2.443  11.551  11.619 -1.3261  0.3343 -0.4447
  756MOL0     C 1959   2.449  11.486  11.737 -0.1790  0.0760 -0.9337
  756MOL0     C 1960   2.333  11.449  11.812  0.1865  0.9149  0.3803
  756MOL0     O 1961   2.356  11.383  11.930 -0.0315  0.0826 -0.0608
  756MOL0     C 1962   2.247  11.341  12.015 -0.3642  0.8017  0.4697
  756MOL0     C 1963   2.327  11.268  12.129  0.4656 -0.9710  0.3486
  756MOL0     C 1964   2.233  11.218  12.242 -0.9964 -1.4667 -0.4613
  756MOL0     C 1965   2.314  11.176  12.366  0.4564  0.2271  0.1401
  756MOL0     C 1966   2.219  11.110  12.462  0.6692  0.4464  0.7262
  756MOL0     C 1967   2.299  11.084  12.594  0.4106  0.0633  0.3305
  756MOL0     C 1968   2.394  10.987  12.586 -0.2370 -0.0269 -0.0382
  756MOL0     C 1969   2.409  10.903  12.712  0.0887  1.1299 -0.2388
  756MOL0    Cl 1970   2.463  11.000  12.845  0.1680 -0.2921  0.2880
  756MOL0     C 1971   2.204  11.468  11.751 -0.9158 -0.2167  0.1290
  756MOL0     C 1972   2.207  11.532  11.626  0.0715  0.1996 -0.4702
  756MOL0     O 1973   2.476  11.807  11.491 -0.2478  0.3582  0.2308
  756MOL0     C 1974   2.287  11.739  11.187  0.8780 -0.1840  0.1085
  756MOL0     C 1975   2.279  11.759  11.046  0.0550 -0.2051  0.4293
  756MOL0     N 1976   2.409  11.950  10.197 -0.4726 -0.5641 -0.3721
  756MOL0     N 1977   2.306  11.955  10.117  0.5600  0.1385  0.9576
  756MOL0     C 1978   1.486  11.296  10.705 -0.3942  0.6423 -0.0829
  756MOL0     C 1979   1.464  11.159  10.689  0.9125 -0.5154  0.7545
  756MOL0     C 1980   1.439  10.738  10.543  0.5489  0.0197 -0.0375
  756MOL0     C 1981   1.373  10.672  10.434  0.7098  0.1725 -0.5830
  756MOL0     C 1982   1.352  10.531  10.429  0.2696  0.5785  0.6492
  756MOL0     C 1983   1.395  10.449  10.548  0.8921  0.4044  0.6211
  756MOL0     O 1984   1.348  10.323  10.582  0.4207  0.0185 -0.5722
  756MOL0     C 1985   1.236  10.274  10.505 -0.0034  0.1433 -0.3676
  756MOL0     C 1986   1.193  10.135  10.548  0.0324 -0.1497  1.1284
  756MOL0     C 1987   1.115  10.150  10.674  0.8300 -0.8697 -1.3293
  756MOL0     C 1988   1.034  10.024  10.716 -1.2717  0.6889  0.1805
  756MOL0     C 1989   1.116   9.898  10.693  0.8690 -0.2517 -0.4364
  756MOL0     C 1990   1.191   9.804  10.686  0.2455 -0.6537  0.3248
  756MOL0     C 1991   1.456  10.521  10.655  0.2544  0.5340  0.1872
  756MOL0     C 1992   1.489  10.656  10.648 -0.1659  1.0360  1.0518
  756MOL0     H 1993   1.757  11.053  10.556  3.4413  2.2882  0.3356
  756MOL0     H 1994   1.791  11.305  10.563 -1.1768  0.8610 -1.1997
  756MOL0     H 1995   1.487  11.543  10.576 -0.9801  0.1618  1.3399
  756MOL0     H 1996   1.476  11.565  10.749 -0.0187 -2.0724  0.1515
  756MOL0     H 1997   1.554  11.799  10.652  0.0209 -0.1443 -1.6448
  756MOL0     H 1998   1.699  11.707  10.711  3.5076  2.1830 -2.2639
  756MOL0     H 1999   1.732  11.634  10.474 -1.7824 -2.3111  1.6284
  756MOL0     H 2000   1.606  11.745  10.419  0.8644 -1.3056 -1.1816
  756MOL0     H 2001   1.720  11.927  10.519 -0.5769 -0.1949 -1.1359
  756MOL0     H 2002   1.865  11.825  10.568  0.1435 -1.5745  1.0311
  756MOL0     H 2003   1.902  11.773  10.330 -0.2997 -1.2922  2.1661
  756MOL0     H 2004   1.763  11.874  10.287 -0.0835  1.0136  0.7804
  756MOL0     H 2005   1.898  12.074  10.400 -1.4947  0.6553 -3.0212
  756MOL0     H 2006   2.019  11.963  10.409 -1.1379 -0.5735  0.3573
  756MOL0     H 2007   1.885  12.045  10.147 -0.2462 -1.5503 -0.4396
  756MOL0     H 2008   2.028  12.114  10.218 -0.8026 -0.1856 -1.2161
  756MOL0     H 2009   2.050  11.928  10.022 -0.6513  0.1199 -0.4949
  756MOL0     H 2010   2.010  11.816  10.146 -1.7257 -0.0947 -2.3527
  756MOL0     H 2011   2.173  11.816  10.380  2.2025 -1.5250 -0.2866
  756MOL0     H 2012   2.486  11.782  10.422  0.8246 -0.9216 -1.0498
  756MOL0     H 2013   2.527  11.952  10.419  0.0942 -2.5608 -0.5186
  756MOL0     H 2014   2.274  11.910  10.548 -0.5044 -1.8251  0.2428
  756MOL0     H 2015   2.434  11.971  10.625  1.4255 -0.0349 -1.1371
  756MOL0     H 2016   2.505  11.737  10.645 -0.4390 -1.9050 -0.1389
  756MOL0     H 2017   2.355  11.679  10.573 -0.7048 -2.6026  2.7009
  756MOL0     H 2018   2.334  11.663  10.800 -1.9819 -0.5518 -0.0231
  756MOL0     H 2019   2.227  11.789  10.747  0.1245  1.7898 -2.1596
  756MOL0     H 2020   2.519  11.994  11.018  0.5308  0.2413 -0.6960
  756MOL0     H 2021   2.536  12.011  11.370 -1.6431  3.1551 -0.7978
  756MOL0     H 2022   2.662  11.938  11.260 -1.0369 -1.1227  1.4325
  756MOL0     H 2023   2.573  12.089  11.226  1.7939  0.6701  2.2689
  756MOL0     H 2024   2.528  11.575  11.557 -1.2176 -0.8752 -0.7897
  756MOL0     H 2025   2.551  11.474  11.770 -1.2608 -1.2231  2.2976
  756MOL0     H 2026   2.190  11.424  12.057 -1.1236  0.0667  0.9213
  756MOL0     H 2027   2.179  11.270  11.966 -0.8563 -0.9732  3.4514
  756MOL0     H 2028   2.387  11.186  12.088 -2.0980 -3.0323  0.4806
  756MOL0     H 2029   2.396  11.341  12.174 -1.5637  2.0854 -1.1233
  756MOL0     H 2030   2.177  11.129  12.210  0.1311 -2.0544 -0.8501
  756MOL0     H 2031   2.159  11.295  12.264 -0.5552 -1.5435  1.5007
  756MOL0     H 2032   2.397  11.112  12.335 -1.2813 -1.8624 -0.4344
  756MOL0     H 2033   2.358  11.266  12.411  0.8732  1.7059 -2.9404
  756MOL0     H 2034   2.177  11.020  12.417 -1.7267  2.0249 -0.4776
  756MOL0     H 2035   2.136  11.178  12.487 -0.2441  1.1967 -3.5928
  756MOL0     H 2036   2.360  11.170  12.623  0.0390  0.2186  0.6631
  756MOL0     H 2037   2.221  11.051  12.663 -0.1275 -0.1191 -0.3522
  756MOL0     H 2038   2.492  11.032  12.567 -1.0001  1.2052 -1.1951
  756MOL0     H 2039   2.370  10.926  12.498  0.1216 -0.1924 -0.0242
  756MOL0     H 2040   2.485  10.826  12.696  1.7501  2.1988  2.1325
  756MOL0     H 2041   2.317  10.844  12.723  0.9306 -0.3327 -0.6586
  756MOL0     H 2042   2.123  11.414  11.799  0.3230 -1.2968  1.0949
  756MOL0     H 2043   2.115  11.545  11.570 -0.1565  0.0178 -0.1376
  756MOL0     H 2044   2.208  11.679  11.232  1.3275  0.0620  1.2705
  756MOL0     H 2045   2.213  11.711  10.975  0.2031  1.8982 -1.2547
  756MOL0     H 2046   1.407  11.362  10.738  0.6419  1.6946  0.3671
  756MOL0     H 2047   1.370  11.125  10.730 -0.8543 -1.9006 -3.7630
  756MOL0     H 2048   1.328  10.735  10.359 -0.6352  2.8975  2.2983
  756MOL0     H 2049   1.302  10.478  10.348 -1.7953 -0.7446  2.6473
  756MOL0     H 2050   1.147  10.337  10.510 -0.9058 -1.0529 -0.7874
  756MOL0     H 2051   1.272  10.262  10.402  1.5427  0.4898  0.1184
  756MOL0     H 2052   1.278  10.067  10.555 -1.4356 -2.1988  0.0150
  756MOL0     H 2053   1.133  10.088  10.470 -0.7261 -1.0789  2.2317
  756MOL0     H 2054   1.049  10.236  10.666 -0.6480 -1.4736  2.2366
  756MOL0     H 2055   1.193  10.169  10.749  0.0712 -0.4778 -0.6274
  756MOL0     H 2056   0.939  10.027  10.663 -1.5730  1.9410  0.7720
  756MOL0     H 2057   1.000  10.028  10.819  1.1336 -1.5271  1.1941
  756MOL0     H 2058   1.270   9.732  10.673  0.3546 -0.5189  0.2355
  756MOL0     H 2059   1.476  10.458  10.741 -1.0326  0.9581  0.8312
  756MOL0     H 2060   1.537  10.707  10.732 -2.9553  2.4614  1.8993
  757MOL0     O 2061   4.765   0.320   2.668  0.3984 -0.2596  0.9848
  757MOL0     C 2062   4.694   0.357   2.757 -0.3092  0.9983 -0.7481
  757MOL0     O 2063   4.731   0.420   2.872  0.5618 -0.2418 -0.2872
  757MOL0     C 2064   4.866   0.437   2.896  0.1257  0.3649 -0.3389
  757MOL0     C 2065   4.915   0.567   2.888 -0.7191 -1.3893 -0.7250
  757MOL0     C 2066   5.058   0.584   2.893  0.7986  0.6624 -0.0015
  757MOL0     C 2067   5.140   0.479   2.945 -0.2547 -1.2721 -0.0163
  757MOL0     O 2068   5.276   0.472   2.961 -0.1502 -0.5293 -0.0192
  757MOL0     C 2069   5.361   0.587   2.950 -0.1625  0.0496 -0.7419
  757MOL0     C 2070   5.507   0.552   2.982  0.3865  0.5970 -0.1869
  757MOL0     C 2071   5.580   0.675   2.990  0.0310  0.9044  0.3281
  757MOL0     C 2072   5.729   0.656   2.985 -0.3718  0.0134  0.7286
  757MOL0     C 2073   5.799   0.791   2.978  0.1965  0.5536  0.0411
  757MOL0     C 2074   5.949   0.793   2.968  0.0762 -0.1410 -0.7929
  757MOL0     C 2075   6.001   0.915   3.048 -0.5059  0.1424  0.3981
  757MOL0     C 2076   6.154   0.934   3.033 -0.0378 -1.0215  0.4833
  757MOL0     N 2077   6.187   0.995   2.906 -0.9104  0.4341  1.1781
  757MOL0     C 2078   6.211   0.927   2.792 -0.1992  1.0489  0.7317
  757MOL0     C 2079   6.277   1.017   2.709  0.1025  0.8305  0.1119
  757MOL0     C 2080   6.334   1.002   2.564  0.0631  0.9580  0.1001
  757MOL0     C 2081   6.225   0.944   2.464 -0.3700 -0.1723  0.7157
  757MOL0     C 2082   6.277   0.959   2.315 -0.0859 -0.1365  0.5036
  757MOL0     C 2083   6.202   0.856   2.227 -0.1932 -0.7216  0.6718
  757MOL0     O 2084   6.256   0.851   2.098  0.4613 -0.3892  0.2400
  757MOL0     C 2085   6.263   0.957   2.010  0.1046 -0.9715 -0.8045
  757MOL0     C 2086   6.196   1.084   2.028 -0.0656  0.0888  0.8207
  757MOL0     C 2087   6.202   1.196   1.938 -0.4067 -0.3526  1.2628
  757MOL0     C 2088   6.128   1.325   1.968 -0.0564  0.4419 -0.3237
  757MOL0     C 2089   6.293   1.169   1.824  0.6895 -0.8643  0.4749
  757MOL0     C 2090   6.322   1.274   1.720  0.2114  0.3772  1.0821
  757MOL0     O 2091   6.354   1.237   1.589 -0.3353  0.6529 -0.6757
  757MOL0     C 2092   6.381   1.326   1.494 -0.7339 -0.5048  0.1753
  757MOL0     C 2093   6.311   1.339   1.377 -0.5013  0.0736 -0.6951
  757MOL0     C 2094   6.345   1.436   1.287  0.1249  0.0756  0.3203
  757MOL0     C 2095   6.452   1.524   1.307 -0.5886 -0.0326  0.3232
  757MOL0     O 2096   6.483   1.640   1.230 -0.6178  0.1103  0.3012
  757MOL0     C 2097   6.428   1.671   1.106  0.2115 -0.0707 -0.5670
  757MOL0     C 2098   6.510   1.782   1.038  1.0326 -0.2732 -0.6482
  757MOL0     C 2099   6.634   1.734   0.957  0.1440  0.0814  0.2113
  757MOL0     C 2100   6.679   1.837   0.857  0.2220 -1.0357 -0.1588
  757MOL0     C 2101   6.813   1.806   0.798 -0.9507  0.7275  0.6965
  757MOL0     C 2102   6.838   1.675   0.710 -0.3452  0.0016  0.8877
  757MOL0     C 2103   6.983   1.651   0.677  0.4598  0.0708  0.1460
  757MOL0     C 2104   7.006   1.515   0.607 -0.1038 -0.1341  0.5810
  757MOL0    Cl 2105   6.963   1.364   0.698 -0.2132  0.5413  0.1700
  757MOL0     C 2106   6.533   1.503   1.421  0.6434 -0.0671  0.0480
  757MOL0     C 2107   6.500   1.406   1.511  0.3536 -0.0544 -0.9394
  757MOL0     O 2108   6.334   1.388   1.763  0.5557 -0.4926  0.0350
  757MOL0     C 2109   6.348   1.044   1.801  0.6336  0.0127 -0.0451
  757MOL0     C 2110   6.341   0.945   1.899 -0.4543 -0.0376 -0.0658
  757MOL0     N 2111   6.284   1.140   2.767  0.1170 -0.2336  0.4321
  757MOL0     N 2112   6.228   1.126   2.885 -0.5484  0.5403 -0.0587
  757MOL0     C 2113   5.079   0.353   2.954  0.9550 -0.0249 -0.0718
  757MOL0     C 2114   4.943   0.320   2.932 -0.7060 -0.0879  0.4912
  757MOL0     C 2115   4.551   0.332   2.744  0.1592 -0.3250 -0.2248
  757MOL0     C 2116   4.461   0.333   2.845 -0.3978 -0.3126 -0.4478
  757MOL0     C 2117   4.323   0.321   2.820  0.4033  0.8623 -0.4461
  757MOL0     C 2118   4.273   0.289   2.693 -0.0635 -0.8066 -0.4994
  757MOL0     O 2119   4.138   0.280   2.675  0.3764 -0.0993  0.3087
  757MOL0     C 2120   4.094   0.226   2.545  1.3917  0.8027  0.0158
  757MOL0     C 2121   3.936   0.207   2.548 -0.0013  0.0576  0.2650
  757MOL0     C 2122   3.854   0.335   2.586  0.5412  0.1520  0.0082
  757MOL0     C 2123   3.703   0.322   2.575 -0.2544 -0.1455  0.1047
  757MOL0     C 2124   3.628   0.421   2.644 -0.1195 -0.6385 -1.0656
  757MOL0     C 2125   3.549   0.496   2.707 -0.2893  0.2312 -0.4693
  757MOL0     C 2126   4.374   0.275   2.596 -0.3952 -1.1852 -0.0528
  757MOL0     C 2127   4.505   0.296   2.616  0.2491  0.2649  0.1840
  757MOL0     H 2128   4.852   0.655   2.881 -0.0879 -0.6235  1.9712
  757MOL0     H 2129   5.098   0.683   2.875  0.2453  0.9356  0.2413
  757MOL0     H 2130   5.350   0.636   2.853  3.2509  2.2408 -0.2394
  757MOL0     H 2131   5.323   0.669   3.011  0.6119  0.8573 -1.3031
  757MOL0     H 2132   5.511   0.499   3.078  3.0377  0.1725 -0.4603
  757MOL0     H 2133   5.552   0.487   2.907 -0.9734 -0.9791  0.3031
  757MOL0     H 2134   5.547   0.736   2.906  2.8418  0.3224 -1.3301
  757MOL0     H 2135   5.550   0.711   3.089 -1.4064 -2.4334  1.2636
  757MOL0     H 2136   5.760   0.598   3.072 -2.2863 -0.2528  1.2784
  757MOL0     H 2137   5.753   0.590   2.901 -2.1812 -3.2378  2.5548
  757MOL0     H 2138   5.766   0.845   2.888  0.9519 -2.5693 -2.2784
  757MOL0     H 2139   5.762   0.834   3.071 -0.7987 -4.3319  2.1965
  757MOL0     H 2140   5.994   0.706   3.019 -0.8399 -0.4848 -0.5579
  757MOL0     H 2141   5.981   0.799   2.864  0.1250 -3.5765 -1.1100
  757MOL0     H 2142   5.951   1.008   3.018  2.4712  0.9870 -2.5155
  757MOL0     H 2143   5.977   0.898   3.153  1.7925  1.2600  1.1591
  757MOL0     H 2144   6.209   0.845   3.062  2.8433  0.9425  1.5138
  757MOL0     H 2145   6.173   1.004   3.116  1.9991 -0.3485 -0.4948
  757MOL0     H 2146   6.173   0.828   2.768 -1.1210  1.9872 -2.1807
  757MOL0     H 2147   6.371   1.099   2.530  3.3481 -1.2097 -3.1823
  757MOL0     H 2148   6.424   0.941   2.574  0.6152  1.7429  0.0275
  757MOL0     H 2149   6.133   1.002   2.477 -0.3544 -0.6388  3.5984
  757MOL0     H 2150   6.209   0.838   2.486 -3.1011 -0.3433 -1.5682
  757MOL0     H 2151   6.383   0.936   2.312 -0.0096 -0.3176  2.6339
  757MOL0     H 2152   6.271   1.061   2.276 -1.1557 -0.3822 -0.0217
  757MOL0     H 2153   6.093   0.867   2.227 -0.5245 -2.6081 -2.5220
  757MOL0     H 2154   6.228   0.756   2.263 -2.5583 -2.6374 -2.3585
  757MOL0     H 2155   6.126   1.088   2.111 -0.9783  0.4097  0.0427
  757MOL0     H 2156   6.200   1.408   1.965  1.7576 -1.0803 -0.8216
  757MOL0     H 2157   6.035   1.345   1.913 -1.1277  0.8564  1.5597
  757MOL0     H 2158   6.104   1.317   2.074 -1.8259 -2.5767 -0.8415
  757MOL0     H 2159   6.220   1.280   1.371 -2.1783  2.5882 -1.7359
  757MOL0     H 2160   6.284   1.472   1.205 -2.6408  0.6418  2.4776
  757MOL0     H 2161   6.425   1.583   1.041 -0.1781 -0.0430 -0.5914
  757MOL0     H 2162   6.323   1.700   1.122 -0.7667 -2.6402 -1.7694
  757MOL0     H 2163   6.432   1.822   0.973 -0.3857 -2.1484 -0.1818
  757MOL0     H 2164   6.537   1.854   1.115 -3.3181 -0.3507  1.2676
  757MOL0     H 2165   6.608   1.643   0.901  1.0133 -1.4531  2.1871
  757MOL0     H 2166   6.715   1.694   1.019  0.0521 -0.4507  0.0001
  757MOL0     H 2167   6.605   1.840   0.776 -1.4453  1.5646  1.2928
  757MOL0     H 2168   6.685   1.936   0.905 -0.6664 -0.9839 -0.1382
  757MOL0     H 2169   6.881   1.813   0.884 -2.1057  3.8673  1.5111
  757MOL0     H 2170   6.835   1.879   0.720  0.0714  0.4551  0.7164
  757MOL0     H 2171   6.802   1.580   0.749  0.3965  0.4460  2.7972
  757MOL0     H 2172   6.781   1.699   0.620 -0.5228  0.9704  1.2401
  757MOL0     H 2173   7.046   1.663   0.765  0.7256  0.8019 -0.1338
  757MOL0     H 2174   7.027   1.734   0.620  3.2706  1.4907  3.9455
  757MOL0     H 2175   7.109   1.504   0.573  0.3261 -0.4244  1.8880
  757MOL0     H 2176   6.932   1.516   0.526 -0.0634  1.1394  0.5406
  757MOL0     H 2177   6.628   1.552   1.444  1.2817 -2.0336  1.9250
  757MOL0     H 2178   6.560   1.381   1.598 -0.0730 -2.7587 -1.3298
  757MOL0     H 2179   6.412   1.030   1.715  0.7739  0.4443 -0.0148
  757MOL0     H 2180   6.407   0.863   1.872  2.0173  1.5609  0.8186
  757MOL0     H 2181   5.142   0.268   2.978 -0.8639 -2.2661 -2.6368
  757MOL0     H 2182   4.909   0.217   2.939 -2.5422  0.6049  4.0749
  757MOL0     H 2183   4.489   0.360   2.947 -1.8873  0.3726 -0.2045
  757MOL0     H 2184   4.249   0.339   2.898  0.8307  2.0473 -0.2815
  757MOL0     H 2185   4.115   0.295   2.463 -1.2724  1.7765  0.0419
  757MOL0     H 2186   4.146   0.131   2.529 -2.1431 -1.2813 -0.1219
  757MOL0     H 2187   3.911   0.134   2.625 -0.9064  1.3169  1.2051
  757MOL0     H 2188   3.902   0.167   2.452 -1.0853 -1.0992  1.0979
  757MOL0     H 2189   3.890   0.423   2.533  0.3853 -0.5743 -1.3493
  757MOL0     H 2190   3.874   0.365   2.689 -0.0793 -1.2703  0.5731
  757MOL0     H 2191   3.686   0.219   2.608  0.0388 -0.6492 -1.2594
  757MOL0     H 2192   3.682   0.317   2.468  0.0505 -1.0975  0.0759
  757MOL0     H 2193   3.497   0.581   2.747 -0.1641  0.8354 -1.5588
  757MOL0     H 2194   4.347   0.256   2.493 -0.7047 -1.9144  0.1557
  757MOL0     H 2195   4.568   0.284   2.529  1.5236  0.9015  0.9936
  758MOL0     O 2196   6.097   1.802   0.945  0.7472 -0.4459 -0.0861
  758MOL0     C 2197   5.978   1.791   0.963 -0.0009 -1.6128  1.1859
  758MOL0     O 2198   5.915   1.673   1.008  0.1461 -0.2234 -0.0520
  758MOL0     C 2199   5.992   1.559   1.033  0.4806  0.1810  0.0347
  758MOL0     C 2200   5.949   1.465   1.124 -0.0501  0.4881  0.2337
  758MOL0     C 2201   6.008   1.338   1.142 -0.3283 -1.2320  0.1592
  758MOL0     C 2202   6.125   1.309   1.070 -0.1064 -0.4472 -0.4219
  758MOL0     O 2203   6.182   1.185   1.093  0.4485  0.3606  0.3801
  758MOL0     C 2204   6.318   1.149   1.056 -0.2929  0.2945 -0.2506
  758MOL0     C 2205   6.357   1.018   1.131  0.3556  0.1428 -0.7220
  758MOL0     C 2206   6.275   0.901   1.076  0.0847 -0.6541 -0.0246
  758MOL0     C 2207   6.269   0.892   0.921 -0.0333 -1.3736  0.9974
  758MOL0     C 2208   6.201   0.769   0.854  0.1281  0.3798  0.2614
  758MOL0     C 2209   6.277   0.713   0.721 -0.1233 -0.6603 -1.2030
  758MOL0     C 2210   6.218   0.572   0.687  0.0684  0.1124  0.6763
  758MOL0     C 2211   6.330   0.472   0.686 -0.4143 -1.1420  0.3575
  758MOL0     N 2212   6.453   0.505   0.600  0.5880 -0.8879 -0.7112
  758MOL0     C 2213   6.573   0.464   0.628 -0.0357  1.1318  0.0912
  758MOL0     C 2214   6.654   0.509   0.537 -0.3239  0.1565 -0.4340
  758MOL0     C 2215   6.799   0.473   0.524  0.5492  0.5750  0.5638
  758MOL0     C 2216   6.827   0.333   0.472  0.1077  0.7095  0.0473
  758MOL0     C 2217   6.815   0.329   0.317 -0.6798  0.1715  0.0189
  758MOL0     C 2218   6.837   0.174   0.274  1.0938 -0.1483  0.1857
  758MOL0     O 2219   6.835   0.179   0.125  0.6562  0.9650  0.4030
  758MOL0     C 2220   6.712   0.152   0.069 -0.6531  0.1867 -0.5639
  758MOL0     C 2221   6.583   0.190   0.119 -0.3053 -0.6217  0.0083
  758MOL0     C 2222   6.463   0.166   0.046 -0.0578 -0.0535  0.5528
  758MOL0     C 2223   6.335   0.219   0.093  0.7431  0.5557  0.2048
  758MOL0     C 2224   6.469   0.110  -0.083  0.3728 -0.7808 -0.6200
  758MOL0     C 2225   6.366   0.090  -0.187 -0.9176 -0.6302 -0.1321
  758MOL0     O 2226   6.402   0.018  -0.300  0.1265  0.1376  0.0220
  758MOL0     C 2227   6.321   0.008  -0.413 -0.3822 -0.4923  0.0639
  758MOL0     C 2228   6.363  -0.094  -0.500 -0.1373 -0.7582  0.6675
  758MOL0     C 2229   6.308  -0.101  -0.629 -0.2991 -0.3392 -0.6935
  758MOL0     C 2230   6.210  -0.017  -0.675  0.1006  0.8585 -0.1387
  758MOL0     O 2231   6.158  -0.033  -0.806 -1.3291 -0.6894  0.4702
  758MOL0     C 2232   6.018  -0.010  -0.820  0.1984  0.4809 -0.3682
  758MOL0     C 2233   5.939  -0.126  -0.749  0.7936  0.3576  0.3099
  758MOL0     C 2234   5.951  -0.262  -0.826  0.3231  0.4603  0.0403
  758MOL0     C 2235   5.871  -0.383  -0.758 -0.0996 -0.3871  0.7696
  758MOL0     C 2236   5.870  -0.515  -0.849  0.5727 -0.5691 -0.4636
  758MOL0     C 2237   6.013  -0.584  -0.865 -0.1569 -0.8351 -0.2551
  758MOL0     C 2238   5.993  -0.712  -0.954  0.8086 -0.3521 -0.5164
  758MOL0     C 2239   6.117  -0.798  -0.945 -0.0553  0.5999  0.7988
  758MOL0    Cl 2240   6.089  -0.942  -1.057  0.2309  0.2684 -0.3466
  758MOL0     C 2241   6.161   0.076  -0.579 -0.0047  0.3048  0.5257
  758MOL0     C 2242   6.221   0.087  -0.458  0.9616 -1.2646 -0.4599
  758MOL0     O 2243   6.257   0.124  -0.156  0.4040  0.4318  0.5239
  758MOL0     C 2244   6.596   0.071  -0.114 -0.4670  0.0986 -0.4024
  758MOL0     C 2245   6.712   0.090  -0.046  0.2683 -0.1832 -0.1576
  758MOL0     N 2246   6.589   0.602   0.466 -0.3371 -0.0417  0.4057
  758MOL0     N 2247   6.462   0.593   0.499  0.1025  0.0867  0.2755
  758MOL0     C 2248   6.166   1.404   0.976 -0.1167 -0.1563 -0.0566
  758MOL0     C 2249   6.098   1.523   0.954  0.6301 -0.6738 -0.3716
  758MOL0     C 2250   5.886   1.899   0.927 -0.7787 -0.1501 -0.3100
  758MOL0     C 2251   5.768   1.928   0.991 -0.6143 -0.1412  0.2088
  758MOL0     C 2252   5.694   2.041   0.965  0.3606  0.3840  0.3516
  758MOL0     C 2253   5.732   2.128   0.855  0.6321  0.9228 -0.3461
  758MOL0     O 2254   5.672   2.239   0.821  0.2410 -0.9579 -0.5720
  758MOL0     C 2255   5.543   2.279   0.880  0.6587  0.3299  0.2829
  758MOL0     C 2256   5.503   2.422   0.847  0.6582 -0.7446  0.3026
  758MOL0     C 2257   5.363   2.471   0.904 -0.0688  0.2726  0.3683
  758MOL0     C 2258   5.340   2.615   0.890  1.0516 -0.8967 -1.1724
  758MOL0     C 2259   5.192   2.642   0.914  0.2046  0.8010  1.0076
  758MOL0     C 2260   5.073   2.668   0.923  0.4082 -0.3194 -1.0038
  758MOL0     C 2261   5.845   2.089   0.781  0.3422  0.2048  0.7602
  758MOL0     C 2262   5.914   1.980   0.821  0.0982 -0.1356  0.4949
  758MOL0     H 2263   5.865   1.502   1.183 -0.1628  0.2177  0.2430
  758MOL0     H 2264   5.972   1.265   1.214 -1.7333  0.1555  0.9362
  758MOL0     H 2265   6.341   1.137   0.950 -1.1543  1.0795 -0.5312
  758MOL0     H 2266   6.380   1.232   1.092 -0.4856  1.9015 -3.2959
  758MOL0     H 2267   6.464   1.000   1.120  0.2574 -1.5046  0.6919
  758MOL0     H 2268   6.346   1.019   1.239 -1.7887  1.9591 -0.8772
  758MOL0     H 2269   6.329   0.814   1.115 -0.9132 -1.5063 -0.4886
  758MOL0     H 2270   6.173   0.900   1.115  0.7656  1.7923  2.1184
  758MOL0     H 2271   6.213   0.983   0.896 -0.3474 -1.4026  1.5711
  758MOL0     H 2272   6.368   0.901   0.875 -0.1629 -0.2161  0.9256
  758MOL0     H 2273   6.209   0.693   0.932 -1.6739  1.6030  1.7524
  758MOL0     H 2274   6.093   0.782   0.840 -0.1306  1.2012  2.5152
  758MOL0     H 2275   6.254   0.791   0.648 -0.9856  1.4964  1.1788
  758MOL0     H 2276   6.386   0.718   0.727  0.0176  5.6177 -1.6922
  758MOL0     H 2277   6.142   0.555   0.764  0.3939 -1.5840  0.6517
  758MOL0     H 2278   6.174   0.562   0.587  3.0657 -1.2838 -0.6147
  758MOL0     H 2279   6.286   0.376   0.657  1.5778 -1.8411 -0.5512
  758MOL0     H 2280   6.370   0.460   0.786  1.3703  0.6486 -0.0755
  758MOL0     H 2281   6.600   0.390   0.703  1.4995  3.2106  1.7012
  758MOL0     H 2282   6.849   0.539   0.454  1.8613 -1.4845 -0.5350
  758MOL0     H 2283   6.844   0.490   0.622 -0.1571  0.3581  0.9375
  758MOL0     H 2284   6.751   0.270   0.520  1.5766 -1.6784 -0.6086
  758MOL0     H 2285   6.923   0.305   0.516  1.0445  4.0624  0.3559
  758MOL0     H 2286   6.883   0.401   0.271 -3.2517  1.8736 -1.3491
  758MOL0     H 2287   6.713   0.354   0.287 -1.0585  0.3586  1.3768
  758MOL0     H 2288   6.750   0.129   0.324  0.8372  0.3557  0.2069
  758MOL0     H 2289   6.932   0.133   0.310 -0.1122 -2.6902  0.7123
  758MOL0     H 2290   6.568   0.239   0.215 -1.6556  1.2094 -1.0866
  758MOL0     H 2291   6.303   0.297   0.024  0.0932 -0.2577 -0.4431
  758MOL0     H 2292   6.253   0.147   0.086 -0.1553  1.7213 -1.9517
  758MOL0     H 2293   6.341   0.264   0.193  1.5105  1.6233 -0.3056
  758MOL0     H 2294   6.445  -0.156  -0.465 -0.3102 -0.1864  2.1509
  758MOL0     H 2295   6.350  -0.171  -0.701  1.0199 -0.8845  0.5524
  758MOL0     H 2296   5.972   0.082  -0.783 -3.6957 -1.1118 -0.7100
  758MOL0     H 2297   5.990  -0.009  -0.925 -0.9225 -2.1811 -0.1750
  758MOL0     H 2298   5.966  -0.135  -0.643  0.2991  3.8720  0.8490
  758MOL0     H 2299   5.840  -0.079  -0.760  2.1956  3.2456 -0.9781
  758MOL0     H 2300   6.059  -0.278  -0.823  0.5096  1.4795 -0.9191
  758MOL0     H 2301   5.916  -0.249  -0.929 -1.8242  1.3151  0.8222
  758MOL0     H 2302   5.924  -0.415  -0.667  0.1856 -1.7181  0.1604
  758MOL0     H 2303   5.771  -0.347  -0.733 -1.3116 -0.8154 -2.8477
  758MOL0     H 2304   5.835  -0.493  -0.950 -1.3704  2.6589  0.7789
  758MOL0     H 2305   5.798  -0.576  -0.795 -0.4012  1.6732  0.8894
  758MOL0     H 2306   6.075  -0.512  -0.918  0.8195 -0.7436  0.9631
  758MOL0     H 2307   6.045  -0.610  -0.763 -1.7824 -1.1339  0.2138
  758MOL0     H 2308   5.956  -0.699  -1.056 -3.3004  3.3158  1.1060
  758MOL0     H 2309   5.915  -0.775  -0.910 -1.2925  0.9254 -2.2066
  758MOL0     H 2310   6.124  -0.846  -0.848  0.6844 -2.7014 -0.7587
  758MOL0     H 2311   6.201  -0.732  -0.970 -0.5519  0.1157 -2.6954
  758MOL0     H 2312   6.074   0.138  -0.596 -0.0833 -0.1775 -1.0264
  758MOL0     H 2313   6.178   0.167  -0.399 -1.4562 -2.3190 -0.6861
  758MOL0     H 2314   6.605   0.019  -0.209 -1.9145  4.0047 -2.9461
  758MOL0     H 2315   6.808   0.075  -0.095  1.3574  1.2623  1.4216
  758MOL0     H 2316   6.253   1.379   0.916  0.4011  1.9956 -0.2657
  758MOL0     H 2317   6.133   1.583   0.871 -1.7171  0.6836 -0.4530
  758MOL0     H 2318   5.733   1.858   1.066 -2.5574  0.9351  0.3621
  758MOL0     H 2319   5.600   2.075   1.006  0.2674  2.3379 -1.3105
  758MOL0     H 2320   5.464   2.214   0.843 -0.0420  0.3564  1.6534
  758MOL0     H 2321   5.552   2.282   0.989 -0.8762  0.7547  0.4179
  758MOL0     H 2322   5.498   2.431   0.738  3.0660 -0.4042  0.1691
  758MOL0     H 2323   5.577   2.495   0.879 -0.4133  2.0753 -3.0275
  758MOL0     H 2324   5.355   2.451   1.011 -1.8564  0.0002  0.2147
  758MOL0     H 2325   5.283   2.419   0.850  1.8549 -1.6618 -0.7662
  758MOL0     H 2326   5.379   2.649   0.794 -0.5609 -0.9009 -1.8486
  758MOL0     H 2327   5.387   2.675   0.969  1.6888 -1.7490 -0.8851
  758MOL0     H 2328   4.970   2.697   0.928  0.0292 -0.9583 -3.5233
  758MOL0     H 2329   5.880   2.150   0.698  4.0345  1.1435  2.8025
  758MOL0     H 2330   5.998   1.946   0.760  0.3467 -1.8339  1.7294
  759MOL0     O 2331   9.993   2.763   4.712  0.1470  0.7364  0.4078
  759MOL0     C 2332   9.879   2.727   4.738  0.6505 -0.1616  0.1677
  759MOL0     O 2333   9.835   2.685   4.858 -0.3950 -0.4042 -0.2801
  759MOL0     C 2334   9.846   2.783   4.956  0.2783 -0.0761  0.3814
  759MOL0     C 2335   9.863   2.922   4.934  0.5916  1.0645  0.3972
  759MOL0     C 2336   9.881   3.004   5.039 -0.6412 -0.8652 -0.0509
  759MOL0     C 2337   9.884   2.969   5.169 -0.2782 -0.4921 -0.1862
  759MOL0     O 2338   9.890   3.050   5.277  0.0704 -0.1927 -0.7019
  759MOL0     C 2339   9.953   3.175   5.269 -0.5114 -0.5102 -0.3268
  759MOL0     C 2340   9.972   3.218   5.413 -1.0227 -0.3978 -0.8560
  759MOL0     C 2341   9.841   3.249   5.487  0.7417 -0.2839 -0.4467
  759MOL0     C 2342   9.726   3.307   5.405 -0.0552 -0.1250  1.2009
  759MOL0     C 2343   9.601   3.330   5.498  1.0382  0.4410  0.1359
  759MOL0     C 2344   9.491   3.402   5.428  0.0293  0.1401  0.7919
  759MOL0     C 2345   9.526   3.546   5.388 -0.8917  0.2148 -0.1071
  759MOL0     C 2346   9.496   3.643   5.506 -0.3419 -0.4210 -0.3742
  759MOL0     N 2347   9.347   3.663   5.524 -0.7501  0.2879  0.1112
  759MOL0     C 2348   9.254   3.709   5.434 -0.8365  0.6266  0.8181
  759MOL0     C 2349   9.138   3.721   5.498 -0.4998 -0.7472  0.1089
  759MOL0     C 2350   9.018   3.780   5.436 -1.4539 -0.3764 -0.5416
  759MOL0     C 2351   9.012   3.933   5.461  0.1272 -0.1160 -0.4540
  759MOL0     C 2352   9.020   3.977   5.613  0.0150  0.4291 -0.1549
  759MOL0     C 2353   8.946   4.110   5.625 -0.0859 -0.4848 -0.0996
  759MOL0     O 2354   8.803   4.088   5.609  0.2119 -0.2679  0.6465
  759MOL0     C 2355   8.724   4.203   5.626  0.0820  0.7895 -0.0506
  759MOL0     C 2356   8.589   4.183   5.599  0.4952 -0.8171  0.1278
  759MOL0     C 2357   8.497   4.289   5.592  0.1934  0.0040  0.3346
  759MOL0     C 2358   8.352   4.259   5.577 -0.9883  0.3535  0.6503
  759MOL0     C 2359   8.534   4.427   5.626 -0.8246 -0.5759 -0.4627
  759MOL0     C 2360   8.453   4.551   5.626 -0.4421 -0.4524  0.1625
  759MOL0     O 2361   8.513   4.673   5.595  0.0582  0.6296  0.4107
  759MOL0     C 2362   8.432   4.781   5.607  0.6644 -0.2139  0.0787
  759MOL0     C 2363   8.465   4.876   5.706  0.2872 -0.6662 -0.8046
  759MOL0     C 2364   8.377   4.984   5.722 -0.3091  0.0952 -0.1804
  759MOL0     C 2365   8.272   5.011   5.636 -0.5499 -0.1433  0.0752
  759MOL0     O 2366   8.197   5.117   5.661 -1.0952 -0.1384 -0.1215
  759MOL0     C 2367   8.153   5.193   5.555  0.4779 -0.6780  0.7022
  759MOL0     C 2368   8.265   5.281   5.509 -1.0981  0.2221 -1.0438
  759MOL0     C 2369   8.221   5.417   5.465  0.2409  0.5268  0.0987
  759MOL0     C 2370   8.339   5.508   5.441 -0.0938 -0.1698  0.6249
  759MOL0     C 2371   8.300   5.627   5.361  0.1544 -0.5054 -0.9260
  759MOL0     C 2372   8.403   5.733   5.340  0.1049  0.0061  0.3516
  759MOL0     C 2373   8.420   5.829   5.459  1.0029  0.5171  0.4205
  759MOL0     C 2374   8.540   5.917   5.432 -0.2981  0.3936 -0.3557
  759MOL0    Cl 2375   8.570   6.018   5.580  0.2178  0.2259  0.1412
  759MOL0     C 2376   8.255   4.925   5.517 -0.1209 -0.9043 -1.3000
  759MOL0     C 2377   8.325   4.804   5.510  0.6325 -0.1903  0.0134
  759MOL0     O 2378   8.329   4.538   5.654  1.1962 -0.1121 -0.2984
  759MOL0     C 2379   8.676   4.443   5.658 -0.5184 -0.6231  0.1911
  759MOL0     C 2380   8.766   4.331   5.657 -0.3099 -0.9334  0.6680
  759MOL0     N 2381   9.160   3.667   5.628  0.9785 -0.3845  0.5369
  759MOL0     N 2382   9.282   3.639   5.634  0.0105  0.5253  0.7851
  759MOL0     C 2383   9.857   2.838   5.195 -0.7755  0.2356  0.3818
  759MOL0     C 2384   9.826   2.744   5.088 -0.3494  0.0317 -0.5331
  759MOL0     C 2385   9.785   2.699   4.626  0.2682 -0.5956  1.1344
  759MOL0     C 2386   9.679   2.600   4.640  0.7574  0.2608 -1.3041
  759MOL0     C 2387   9.609   2.562   4.523  0.7085  0.4318 -0.1291
  759MOL0     C 2388   9.648   2.601   4.395  0.6302  0.0950 -0.5490
  759MOL0     O 2389   9.581   2.546   4.287 -0.0364 -0.1784 -0.7740
  759MOL0     C 2390   9.621   2.583   4.155  0.5753  0.6347  0.2391
  759MOL0     C 2391   9.507   2.573   4.055  0.1999  0.6351 -0.2580
  759MOL0     C 2392   9.448   2.432   4.034 -0.3579 -0.4806  0.2059
  759MOL0     C 2393   9.386   2.357   4.151  0.4256  0.0807  1.0022
  759MOL0     C 2394   9.291   2.248   4.108 -0.1296  0.3805 -0.2448
  759MOL0     C 2395   9.233   2.148   4.079  0.5448 -0.1364  0.0331
  759MOL0     C 2396   9.748   2.705   4.388  0.2091  0.8816  1.3694
  759MOL0     C 2397   9.811   2.752   4.499  0.9400  0.6656  0.3523
  759MOL0     H 2398   9.877   2.968   4.836 -2.9212 -2.1922 -1.9327
  759MOL0     H 2399   9.909   3.105   5.012 -0.3559 -1.1459 -0.8394
  759MOL0     H 2400  10.048   3.169   5.215 -0.1020 -0.7271  0.4045
  759MOL0     H 2401   9.891   3.248   5.216  0.1638  0.1939 -0.1784
  759MOL0     H 2402  10.032   3.151   5.475 -2.1530 -1.3404 -0.7324
  759MOL0     H 2403  10.027   3.311   5.401 -0.6668  0.0640  3.0365
  759MOL0     H 2404   9.812   3.162   5.547 -0.8328  0.8656  0.5482
  759MOL0     H 2405   9.863   3.335   5.551 -0.6630  1.7187 -2.5207
  759MOL0     H 2406   9.745   3.397   5.345 -3.2471 -0.3463 -0.3499
  759MOL0     H 2407   9.708   3.237   5.322 -2.2015 -2.1958  3.2911
  759MOL0     H 2408   9.561   3.234   5.532 -2.8994  1.6893 -0.5726
  759MOL0     H 2409   9.623   3.393   5.585 -0.4953  0.5705  0.4453
  759MOL0     H 2410   9.462   3.338   5.344  1.3825  0.9825 -0.3561
  759MOL0     H 2411   9.404   3.408   5.495  0.7600  2.2413  1.6430
  759MOL0     H 2412   9.629   3.542   5.349 -0.0135 -4.0237  2.0099
  759MOL0     H 2413   9.463   3.577   5.304 -2.7292 -1.4403  0.5809
  759MOL0     H 2414   9.536   3.739   5.473  0.2008 -0.1490  1.0103
  759MOL0     H 2415   9.541   3.609   5.600  0.7698 -0.6575 -0.9764
  759MOL0     H 2416   9.271   3.742   5.332  0.6378 -1.2317  0.3934
  759MOL0     H 2417   9.017   3.761   5.328 -2.1596  0.2306 -0.6508
  759MOL0     H 2418   8.928   3.738   5.481  0.5549  0.5621  5.0696
  759MOL0     H 2419   8.926   3.974   5.407 -0.3421 -2.3161 -1.5024
  759MOL0     H 2420   9.086   3.988   5.402 -0.7547  2.9163  1.0374
  759MOL0     H 2421   9.122   3.977   5.653 -0.3152  3.7168  0.9840
  759MOL0     H 2422   8.963   3.915   5.682  0.4944 -2.7022 -2.3231
  759MOL0     H 2423   8.986   4.188   5.560  2.9252 -3.0565 -1.5850
  759MOL0     H 2424   8.949   4.137   5.731  0.6991 -0.1605 -0.1980
  759MOL0     H 2425   8.557   4.081   5.581  0.6562 -0.3426 -3.5810
  759MOL0     H 2426   8.288   4.341   5.543 -0.0481  0.6647 -0.4124
  759MOL0     H 2427   8.348   4.175   5.508  1.9187 -2.1942  3.2580
  759MOL0     H 2428   8.309   4.216   5.668 -0.1341 -0.9768  0.4490
  759MOL0     H 2429   8.557   4.857   5.760 -0.3658 -0.7239  0.3125
  759MOL0     H 2430   8.389   5.056   5.803 -3.7939  0.9851 -0.2805
  759MOL0     H 2431   8.108   5.137   5.473  0.0078  0.7182 -0.0108
  759MOL0     H 2432   8.079   5.264   5.593  1.7530  1.2295 -0.2168
  759MOL0     H 2433   8.334   5.289   5.593  0.5461  2.7832 -2.4991
  759MOL0     H 2434   8.320   5.228   5.430 -0.5887  0.7004 -1.0169
  759MOL0     H 2435   8.149   5.474   5.526 -2.4396  0.5182 -2.8132
  759MOL0     H 2436   8.166   5.410   5.371 -1.0507  2.4777  0.6418
  759MOL0     H 2437   8.382   5.537   5.537 -0.1663  3.0317 -0.2011
  759MOL0     H 2438   8.410   5.446   5.386  0.8686  0.5679  1.0115
  759MOL0     H 2439   8.209   5.674   5.400  2.7348  4.2993  0.1189
  759MOL0     H 2440   8.259   5.595   5.265 -1.7118  1.8733 -1.0389
  759MOL0     H 2441   8.494   5.676   5.319  0.9417  1.8301 -1.3710
  759MOL0     H 2442   8.379   5.794   5.253 -0.7431  0.6519  1.0254
  759MOL0     H 2443   8.406   5.769   5.550 -3.9273  0.0597 -0.3854
  759MOL0     H 2444   8.331   5.891   5.451 -0.4990 -1.6916 -1.0486
  759MOL0     H 2445   8.531   5.985   5.346  1.6133  0.3912 -0.6097
  759MOL0     H 2446   8.629   5.857   5.410  0.1320  0.5991  0.7931
  759MOL0     H 2447   8.188   4.955   5.437  0.5847  2.0253 -0.9288
  759MOL0     H 2448   8.299   4.731   5.434 -2.6386  0.0705  0.7517
  759MOL0     H 2449   8.707   4.542   5.691  1.4404 -0.0985 -2.8597
  759MOL0     H 2450   8.868   4.345   5.691 -0.9395  1.5148  1.8197
  759MOL0     H 2451   9.851   2.801   5.297 -2.3355 -0.0630  0.2081
  759MOL0     H 2452   9.810   2.637   5.105 -0.8806  0.3026  0.7958
  759MOL0     H 2453   9.660   2.570   4.743 -1.3410  3.6581 -0.5832
  759MOL0     H 2454   9.540   2.477   4.529  0.8156  0.4340  3.3934
  759MOL0     H 2455   9.663   2.684   4.142 -2.5969  1.6695 -4.2847
  759MOL0     H 2456   9.697   2.508   4.127 -1.2861 -0.9927 -0.6862
  759MOL0     H 2457   9.527   2.618   3.957 -1.1238  0.2147 -0.7501
  759MOL0     H 2458   9.416   2.612   4.102 -1.1837 -0.4607 -1.8698
  759MOL0     H 2459   9.530   2.369   3.999  0.1678 -1.2008  2.5155
  759MOL0     H 2460   9.370   2.441   3.958 -1.5141  0.1326  1.4268
  759MOL0     H 2461   9.326   2.423   4.213  0.0002 -1.8189  2.7442
  759MOL0     H 2462   9.463   2.329   4.225  1.1849 -2.1161 -0.5118
  759MOL0     H 2463   9.164   2.069   4.059 -0.1042  0.8014 -1.6087
  759MOL0     H 2464   9.784   2.731   4.289 -1.9281  0.5373  0.4429
  759MOL0     H 2465   9.891   2.820   4.474  1.0851  0.1163 -0.7092
  760MOL0     O 2466   3.271   7.591   3.594 -0.5633  0.9325  0.3459
  760MOL0     C 2467   3.370   7.522   3.570 -0.9578 -0.3851  1.1513
  760MOL0     O 2468   3.491   7.567   3.540  0.0135  0.0773  0.0906
  760MOL0     C 2469   3.515   7.702   3.531 -1.6909  0.4982 -0.0818
  760MOL0     C 2470   3.632   7.730   3.444 -0.1460  0.5044 -0.1975
  760MOL0     C 2471   3.671   7.863   3.422 -0.4438 -0.3069  0.5482
  760MOL0     C 2472   3.601   7.964   3.492 -1.0538  0.4538 -0.3272
  760MOL0     O 2473   3.622   8.103   3.484 -0.4195 -0.5866  0.1321
  760MOL0     C 2474   3.694   8.147   3.372 -0.7115 -0.3554 -0.7327
  760MOL0     C 2475   3.672   8.305   3.350 -0.3813  0.9830 -0.6264
  760MOL0     C 2476   3.530   8.350   3.371 -0.2023  0.5585 -0.5268
  760MOL0     C 2477   3.514   8.505   3.369  0.2042 -0.2874 -0.1131
  760MOL0     C 2478   3.366   8.543   3.395  0.2632  0.2247 -0.1482
  760MOL0     C 2479   3.276   8.533   3.268  0.6265  0.4397  0.8668
  760MOL0     C 2480   3.130   8.536   3.308 -0.6219 -0.3066  0.5013
  760MOL0     C 2481   3.091   8.672   3.379 -0.4565  0.2866  0.0212
  760MOL0     N 2482   3.031   8.768   3.296  1.0641  0.3831  0.2357
  760MOL0     C 2483   3.078   8.847   3.199 -0.0043  0.1950  0.5895
  760MOL0     C 2484   2.972   8.912   3.141  0.9785 -0.0852  0.1404
  760MOL0     C 2485   2.978   9.006   3.020 -0.5514  0.3301  0.5600
  760MOL0     C 2486   2.856   9.099   3.016  0.7498  0.1234 -1.6510
  760MOL0     C 2487   2.894   9.229   2.947 -0.0950  0.0738 -0.2294
  760MOL0     C 2488   2.904   9.210   2.801 -0.0259  0.3600 -0.4258
  760MOL0     O 2489   2.860   9.336   2.751  0.4076 -0.7574  0.3861
  760MOL0     C 2490   2.899   9.379   2.629 -0.2242 -0.5055  0.1532
  760MOL0     C 2491   2.801   9.407   2.533  0.1547 -0.4762  0.3655
  760MOL0     C 2492   2.830   9.448   2.400 -0.4839 -0.2127 -0.2727
  760MOL0     C 2493   2.719   9.465   2.302  0.4528 -0.4520  0.8544
  760MOL0     C 2494   2.965   9.468   2.367 -0.5943  0.5502  0.4477
  760MOL0     C 2495   3.019   9.493   2.229  0.0469  0.1383 -0.2482
  760MOL0     O 2496   3.157   9.483   2.212  0.6377 -0.3241 -0.3172
  760MOL0     C 2497   3.210   9.439   2.097  0.0053 -0.1555 -1.0926
  760MOL0     C 2498   3.336   9.485   2.073  0.2614  0.9035 -0.0463
  760MOL0     C 2499   3.404   9.432   1.964 -0.1426  0.3895  0.2029
  760MOL0     C 2500   3.348   9.332   1.887 -0.0522 -0.5767  0.5226
  760MOL0     O 2501   3.416   9.298   1.772  0.1448 -0.3558  0.2494
  760MOL0     C 2502   3.378   9.168   1.713 -0.8359 -0.3955 -0.5567
  760MOL0     C 2503   3.493   9.096   1.645  0.2178  0.8234 -0.5125
  760MOL0     C 2504   3.605   9.043   1.733 -0.3979  0.1147  0.6911
  760MOL0     C 2505   3.715   8.956   1.646  0.3383 -0.7439  0.4082
  760MOL0     C 2506   3.797   8.872   1.741 -0.0844 -0.4328 -0.4215
  760MOL0     C 2507   3.905   8.797   1.656 -0.6880  0.4636  0.4901
  760MOL0     C 2508   3.836   8.660   1.610 -0.5026 -0.9088 -0.0143
  760MOL0     C 2509   3.943   8.601   1.503  0.8209  0.5656  0.0738
  760MOL0    Cl 2510   4.074   8.543   1.605 -0.1778  0.0526  0.1925
  760MOL0     C 2511   3.214   9.298   1.907 -0.2227  0.1055  0.8533
  760MOL0     C 2512   3.145   9.347   2.007  0.0179  0.0906  0.0255
  760MOL0     O 2513   2.937   9.504   2.137 -0.4024  0.6476  0.2314
  760MOL0     C 2514   3.055   9.462   2.468  0.8171  0.0027  0.0261
  760MOL0     C 2515   3.032   9.420   2.600  0.3476  0.1474  0.9756
  760MOL0     N 2516   2.859   8.872   3.209  0.4184 -0.2815 -0.6156
  760MOL0     N 2517   2.893   8.784   3.297 -0.5206 -0.3671  0.4460
  760MOL0     C 2518   3.496   7.932   3.583 -0.1529  0.1191  0.4062
  760MOL0     C 2519   3.459   7.805   3.601  0.9646  0.8579  0.6045
  760MOL0     C 2520   3.365   7.376   3.582  0.5870 -0.3122  0.0330
  760MOL0     C 2521   3.480   7.292   3.586 -0.0518 -0.5606  0.0466
  760MOL0     C 2522   3.467   7.155   3.605 -0.6368  0.5517 -0.3724
  760MOL0     C 2523   3.340   7.109   3.634  0.9608 -0.5966 -0.0171
  760MOL0     O 2524   3.314   6.977   3.647 -0.4403  0.1836  0.6413
  760MOL0     C 2525   3.274   6.928   3.775 -0.5132 -0.6271 -0.1848
  760MOL0     C 2526   3.295   6.779   3.776 -0.3834  0.3140 -1.1655
  760MOL0     C 2527   3.268   6.719   3.925  0.0854 -0.0167 -0.9542
  760MOL0     C 2528   3.261   6.566   3.929 -0.7603 -0.7940  0.0792
  760MOL0     C 2529   3.392   6.497   3.942 -0.1492 -0.9681  0.2597
  760MOL0     C 2530   3.501   6.458   3.956  0.3937 -0.4483 -0.8986
  760MOL0     C 2531   3.226   7.193   3.653  0.1955  0.2864 -0.2068
  760MOL0     C 2532   3.238   7.325   3.624 -0.5773  0.4160  0.3605
  760MOL0     H 2533   3.678   7.644   3.396 -0.8618  0.1235 -0.2114
  760MOL0     H 2534   3.755   7.883   3.356 -0.9248  1.1533  0.3433
  760MOL0     H 2535   3.802   8.155   3.390 -0.9521  3.6591 -0.1182
  760MOL0     H 2536   3.678   8.093   3.278  4.1535  0.3961 -2.2725
  760MOL0     H 2537   3.728   8.352   3.432  1.0819 -1.5107 -0.1015
  760MOL0     H 2538   3.707   8.333   3.250 -0.9547 -1.2405 -1.5113
  760MOL0     H 2539   3.462   8.311   3.295 -2.0410  1.9906  0.2950
  760MOL0     H 2540   3.495   8.299   3.462 -0.8653  1.1846 -0.4217
  760MOL0     H 2541   3.576   8.549   3.447 -0.4852  1.6757 -0.6248
  760MOL0     H 2542   3.540   8.540   3.269  1.5236  1.3930  0.7758
  760MOL0     H 2543   3.321   8.496   3.483 -3.1375  2.1430 -0.7093
  760MOL0     H 2544   3.377   8.649   3.421  2.1669 -0.2035  0.9642
  760MOL0     H 2545   3.305   8.607   3.193  2.3421 -0.6534  0.3837
  760MOL0     H 2546   3.282   8.432   3.225 -0.6278 -0.2683  2.2765
  760MOL0     H 2547   3.064   8.505   3.226 -1.3716  2.7104 -0.1426
  760MOL0     H 2548   3.127   8.466   3.392  2.5276  1.4108  2.2198
  760MOL0     H 2549   3.181   8.712   3.427 -0.5627  0.7145 -0.1385
  760MOL0     H 2550   3.016   8.643   3.453  2.2590 -1.2755  2.3788
  760MOL0     H 2551   3.181   8.874   3.177 -0.7885  0.6394 -3.2831
  760MOL0     H 2552   3.073   9.059   3.021  0.6401 -1.6110 -0.9450
  760MOL0     H 2553   2.981   8.940   2.932 -0.3500 -3.2439  3.0048
  760MOL0     H 2554   2.839   9.132   3.119  2.6126  0.4106 -1.3951
  760MOL0     H 2555   2.768   9.052   2.972  0.0822  1.7195 -2.0797
  760MOL0     H 2556   2.985   9.270   2.993  0.5067  0.4191 -1.6897
  760MOL0     H 2557   2.809   9.298   2.955 -0.5741 -0.5135 -0.1925
  760MOL0     H 2558   2.834   9.132   2.770  0.9887 -0.0287 -1.8233
  760MOL0     H 2559   3.002   9.189   2.757 -0.6989  0.2210 -1.9069
  760MOL0     H 2560   2.694   9.410   2.550 -0.0534 -0.3076 -0.8685
  760MOL0     H 2561   2.619   9.450   2.344 -0.0996 -2.1764 -0.9224
  760MOL0     H 2562   2.719   9.568   2.265 -1.9124 -0.2660  1.1896
  760MOL0     H 2563   2.725   9.397   2.217 -0.6488  1.5526 -0.9209
  760MOL0     H 2564   3.386   9.563   2.130  0.5637 -0.1984  1.2542
  760MOL0     H 2565   3.504   9.467   1.943 -0.7186  1.4026 -0.9928
  760MOL0     H 2566   3.343   9.100   1.791  0.8052  0.0567  0.6439
  760MOL0     H 2567   3.298   9.176   1.639 -1.8084 -1.2086  0.3772
  760MOL0     H 2568   3.456   8.999   1.610  0.4976  0.8228 -0.8100
  760MOL0     H 2569   3.535   9.151   1.561  1.2127  1.1927  0.1937
  760MOL0     H 2570   3.559   8.975   1.805 -1.1093 -0.3092 -0.1426
  760MOL0     H 2571   3.659   9.125   1.782  2.2173  0.8329 -3.0033
  760MOL0     H 2572   3.670   8.899   1.565  1.7515  0.2548 -1.1349
  760MOL0     H 2573   3.776   9.036   1.603  0.3562 -0.3970  1.0555
  760MOL0     H 2574   3.730   8.803   1.792 -0.2206  1.7817  2.6495
  760MOL0     H 2575   3.845   8.937   1.814  1.0191  0.0812 -1.5506
  760MOL0     H 2576   3.941   8.861   1.574  4.7262 -0.2641  1.9430
  760MOL0     H 2577   4.000   8.774   1.705  1.0632 -1.8420 -3.4758
  760MOL0     H 2578   3.738   8.675   1.565 -0.3688 -0.9604 -0.3241
  760MOL0     H 2579   3.824   8.588   1.692  0.9781  0.1173  1.1735
  760MOL0     H 2580   3.985   8.683   1.445 -1.3760  1.3730 -0.4538
  760MOL0     H 2581   3.895   8.523   1.443  2.6902 -0.3569 -0.3114
  760MOL0     H 2582   3.161   9.231   1.840  0.3280  1.3013 -0.8588
  760MOL0     H 2583   3.042   9.316   2.022  0.5824 -1.5580  0.8463
  760MOL0     H 2584   3.161   9.481   2.452  1.3851 -2.0677  0.9238
  760MOL0     H 2585   3.115   9.408   2.668  1.6690 -0.6693 -0.7060
  760MOL0     H 2586   3.455   8.018   3.636  0.7120  0.5183  0.4612
  760MOL0     H 2587   3.374   7.789   3.667 -1.1051 -0.2634 -2.1297
  760MOL0     H 2588   3.583   7.323   3.577  0.2246 -1.5358 -0.2808
  760MOL0     H 2589   3.549   7.084   3.603 -1.7951 -0.8218 -2.8109
  760MOL0     H 2590   3.339   6.970   3.852 -1.9460 -1.8183  1.7543
  760MOL0     H 2591   3.169   6.941   3.804  0.3800  1.2993  2.6407
  760MOL0     H 2592   3.396   6.751   3.745  0.4196 -0.7836  2.0875
  760MOL0     H 2593   3.225   6.720   3.715 -0.5549 -2.2417  1.3465
  760MOL0     H 2594   3.169   6.752   3.959 -1.2415 -2.6257 -2.0017
  760MOL0     H 2595   3.339   6.754   4.001 -3.3977 -2.5220  4.0926
  760MOL0     H 2596   3.206   6.544   3.837  1.9771 -0.1890 -1.8266
  760MOL0     H 2597   3.197   6.533   4.011 -2.4201 -1.7344 -1.5201
  760MOL0     H 2598   3.600   6.420   3.974  0.8217  2.1187  4.1558
  760MOL0     H 2599   3.132   7.153   3.692  1.4598 -1.3332  1.3639
  760MOL0     H 2600   3.151   7.388   3.642 -4.1753 -4.1471  0.6278
  761MOL0     O 2601   1.213   7.877   3.189 -0.8793 -0.1405  0.0194
  761MOL0     C 2602   1.263   7.761   3.178  0.4128  0.1171 -0.1482
  761MOL0     O 2603   1.261   7.664   3.278  0.1264 -0.2404 -0.8875
  761MOL0     C 2604   1.194   7.663   3.396 -1.0456  0.0563  0.6169
  761MOL0     C 2605   1.230   7.569   3.493  0.0569  0.5550 -0.2266
  761MOL0     C 2606   1.170   7.574   3.621  0.7755  0.0828  0.6532
  761MOL0     C 2607   1.062   7.657   3.642  0.3748 -0.1647 -0.1358
  761MOL0     O 2608   1.005   7.643   3.765 -0.2001  0.0506  0.2770
  761MOL0     C 2609   0.971   7.759   3.838  1.0024 -0.3826  0.0794
  761MOL0     C 2610   0.828   7.727   3.888 -0.1585 -0.7550 -0.0139
  761MOL0     C 2611   0.749   7.837   3.957 -0.2492  0.1563 -0.1116
  761MOL0     C 2612   0.593   7.799   3.986 -0.0475  0.1778  0.4811
  761MOL0     C 2613   0.513   7.827   3.848 -0.1189  0.1246  0.0515
  761MOL0     C 2614   0.430   7.960   3.846 -1.0340 -0.0729  0.2287
  761MOL0     C 2615   0.318   7.952   3.957  0.0849 -0.7538 -0.5651
  761MOL0     C 2616   0.186   8.034   3.920  0.4104  0.6933 -0.3142
  761MOL0     N 2617   0.109   7.969   3.813  0.1709 -0.3135  1.0217
  761MOL0     C 2618  -0.021   8.012   3.791  0.1676 -0.2415 -0.1070
  761MOL0     C 2619  -0.087   7.923   3.718 -0.6058  0.2594  1.1616
  761MOL0     C 2620  -0.230   7.916   3.663  0.0371  1.4380  0.2699
  761MOL0     C 2621  -0.321   8.041   3.694  0.1200  0.1743  0.2143
  761MOL0     C 2622  -0.471   8.006   3.661 -1.7099 -1.2365 -0.1098
  761MOL0     C 2623  -0.566   8.112   3.708  0.2017 -0.1726  0.6698
  761MOL0     O 2624  -0.702   8.056   3.698 -0.2019  0.3893 -0.5752
  761MOL0     C 2625  -0.763   8.027   3.815 -0.6071  0.3268 -0.0411
  761MOL0     C 2626  -0.909   8.020   3.817 -0.7180  0.6259  0.1294
  761MOL0     C 2627  -0.975   7.954   3.928  0.6128  0.4343  0.6644
  761MOL0     C 2628  -1.135   7.958   3.921 -0.7788  0.0696  0.5496
  761MOL0     C 2629  -0.905   7.892   4.026  0.4375 -0.0112  0.0522
  761MOL0     C 2630  -0.977   7.803   4.117  0.1111 -0.2065  0.3402
  761MOL0     O 2631  -1.051   7.707   4.058 -0.4305 -0.5789  0.1175
  761MOL0     C 2632  -1.142   7.633   4.134 -0.1176 -0.7574  0.6620
  761MOL0     C 2633  -1.096   7.522   4.194  0.9008 -0.3683 -0.2590
  761MOL0     C 2634  -1.180   7.432   4.261  0.2537 -0.6778  0.8437
  761MOL0     C 2635  -1.317   7.465   4.265 -0.5726  0.1795 -0.1758
  761MOL0     O 2636  -1.412   7.381   4.318 -0.3386  0.0100 -0.3188
  761MOL0     C 2637  -1.388   7.336   4.450  0.3040  0.2333 -0.7882
  761MOL0     C 2638  -1.528   7.301   4.520 -0.6008 -0.6107 -0.8083
  761MOL0     C 2639  -1.602   7.428   4.562  0.5213  0.7800 -0.7852
  761MOL0     C 2640  -1.722   7.406   4.659  0.0656 -0.2486  0.9387
  761MOL0     C 2641  -1.802   7.532   4.676  0.8313  0.5621  0.0989
  761MOL0     C 2642  -1.926   7.489   4.766 -0.7247  0.2678  0.1952
  761MOL0     C 2643  -2.008   7.611   4.816 -0.1639 -0.7018 -0.3713
  761MOL0     C 2644  -2.085   7.593   4.950 -0.8865 -0.8619  1.4731
  761MOL0    Cl 2645  -2.167   7.747   4.999  0.0594  0.3403 -0.2477
  761MOL0     C 2646  -1.367   7.578   4.210  0.0820  0.0954  0.0038
  761MOL0     C 2647  -1.279   7.663   4.144 -0.4001 -0.4983  0.3622
  761MOL0     O 2648  -0.972   7.835   4.236  0.1697  0.2476  0.9250
  761MOL0     C 2649  -0.764   7.908   4.041  1.0016 -0.1686  0.3431
  761MOL0     C 2650  -0.696   7.981   3.936  0.3789  0.3210 -0.5754
  761MOL0     N 2651   0.007   7.815   3.705  0.3891  0.2463  0.3951
  761MOL0     N 2652   0.120   7.848   3.746 -0.2355  0.3256 -0.4942
  761MOL0     C 2653   1.016   7.754   3.543  0.1699  0.1227  1.1812
  761MOL0     C 2654   1.085   7.745   3.418  0.7044  0.2578 -0.1457
  761MOL0     C 2655   1.337   7.745   3.053  0.6598  0.0585 -0.3178
  761MOL0     C 2656   1.403   7.618   3.032  1.0792 -0.0781  0.4091
  761MOL0     C 2657   1.483   7.598   2.924 -0.2869  0.3210 -0.1092
  761MOL0     C 2658   1.498   7.694   2.827 -0.5961  0.6995  0.7878
  761MOL0     O 2659   1.565   7.653   2.711  0.8313 -0.1228 -0.8817
  761MOL0     C 2660   1.485   7.559   2.637  0.1823 -0.0082 -0.3411
  761MOL0     C 2661   1.524   7.575   2.483  0.3432 -0.5906  0.0033
  761MOL0     C 2662   1.408   7.523   2.389  0.1834 -0.4372 -0.2956
  761MOL0     C 2663   1.471   7.486   2.260 -0.1079 -0.0362  0.6020
  761MOL0     C 2664   1.494   7.611   2.193  0.4448  0.1721 -0.4202
  761MOL0     C 2665   1.517   7.710   2.131 -0.3372 -1.0746 -0.5974
  761MOL0     C 2666   1.428   7.819   2.836  0.0795 -1.0168 -0.0248
  761MOL0     C 2667   1.357   7.845   2.956  0.5732 -0.4296  0.3656
  761MOL0     H 2668   1.316   7.506   3.474 -1.2205 -2.1414  2.2498
  761MOL0     H 2669   1.202   7.506   3.700  0.4027 -0.2919  0.4811
  761MOL0     H 2670   1.049   7.769   3.913  1.7070 -0.8724 -0.5725
  761MOL0     H 2671   0.971   7.852   3.780 -1.1703  0.0435  0.6649
  761MOL0     H 2672   0.771   7.695   3.801 -0.2932 -2.3258  0.6229
  761MOL0     H 2673   0.822   7.640   3.954 -1.8129 -0.7601 -0.1436
  761MOL0     H 2674   0.788   7.852   4.058 -0.4945  1.6907 -0.2190
  761MOL0     H 2675   0.770   7.932   3.906 -0.4532  0.1360 -0.2356
  761MOL0     H 2676   0.590   7.692   4.008 -4.3013 -0.4134 -1.7984
  761MOL0     H 2677   0.547   7.856   4.067 -2.7828 -2.1240  0.6884
  761MOL0     H 2678   0.575   7.861   3.765 -0.9179 -0.8807 -1.0061
  761MOL0     H 2679   0.447   7.743   3.821  0.4734  0.0432 -1.2375
  761MOL0     H 2680   0.505   8.030   3.885 -2.0778  0.2726  1.7401
  761MOL0     H 2681   0.383   7.983   3.750 -2.6174 -1.4532  0.6378
  761MOL0     H 2682   0.294   7.850   3.988  2.3499 -0.0575  4.6180
  761MOL0     H 2683   0.361   7.985   4.053 -0.2468 -1.3898 -0.1888
  761MOL0     H 2684   0.212   8.130   3.875  1.2078  0.8915  0.5373
  761MOL0     H 2685   0.120   8.048   4.006 -0.4763  0.9487 -1.0217
  761MOL0     H 2686  -0.064   8.105   3.826  0.8762 -0.0975  0.4007
  761MOL0     H 2687  -0.218   7.898   3.556  1.2782  1.5790  0.3769
  761MOL0     H 2688  -0.273   7.826   3.708  0.3322  1.5617  0.8135
  761MOL0     H 2689  -0.275   8.125   3.641 -2.5123  0.5401 -1.6985
  761MOL0     H 2690  -0.319   8.068   3.800  0.9042 -1.6102  0.6864
  761MOL0     H 2691  -0.498   7.916   3.718 -0.8962  0.1717  2.6903
  761MOL0     H 2692  -0.482   7.993   3.553 -1.8329  1.9017 -0.5798
  761MOL0     H 2693  -0.547   8.190   3.634  2.4774 -0.4787  0.8527
  761MOL0     H 2694  -0.539   8.142   3.809  1.7764 -5.1536  2.0172
  761MOL0     H 2695  -0.966   8.033   3.726  2.0377 -1.7133 -2.1706
  761MOL0     H 2696  -1.171   8.061   3.909 -0.3414  0.5082  2.6223
  761MOL0     H 2697  -1.172   7.892   3.842 -0.1352  1.8492 -1.3558
  761MOL0     H 2698  -1.172   7.922   4.017  0.5027 -1.8913  0.3633
  761MOL0     H 2699  -0.990   7.498   4.197  2.1335  4.2012 -0.0401
  761MOL0     H 2700  -1.137   7.344   4.306  0.4878 -0.6296  0.7136
  761MOL0     H 2701  -1.324   7.247   4.455  0.2251  0.2156  2.6130
  761MOL0     H 2702  -1.344   7.413   4.514 -0.3298  2.2737 -2.6921
  761MOL0     H 2703  -1.590   7.244   4.451 -0.5118  0.6450 -1.9612
  761MOL0     H 2704  -1.512   7.242   4.611  0.0535 -0.3416 -0.7394
  761MOL0     H 2705  -1.642   7.469   4.469 -3.0258 -1.8885 -0.6208
  761MOL0     H 2706  -1.522   7.477   4.619  1.2513 -3.7642  2.6770
  761MOL0     H 2707  -1.786   7.323   4.628  0.8991 -0.0388 -1.5406
  761MOL0     H 2708  -1.686   7.380   4.759 -3.1723  0.4179  2.4122
  761MOL0     H 2709  -1.840   7.574   4.582 -3.9970  1.9725  2.3439
  761MOL0     H 2710  -1.738   7.607   4.724  1.5897  2.5077 -3.5103
  761MOL0     H 2711  -1.995   7.432   4.703  0.7365 -1.0586 -0.2784
  761MOL0     H 2712  -1.886   7.430   4.849 -2.0073 -0.4103  0.3607
  761MOL0     H 2713  -2.079   7.634   4.736  2.5114  2.0695 -2.1110
  761MOL0     H 2714  -1.930   7.685   4.833 -2.1008  1.2912  0.3842
  761MOL0     H 2715  -2.021   7.567   5.034  0.3035 -1.0697  0.5391
  761MOL0     H 2716  -2.160   7.515   4.937 -1.9098  0.1712  0.9928
  761MOL0     H 2717  -1.467   7.614   4.234 -1.8095 -4.3743 -0.1112
  761MOL0     H 2718  -1.326   7.744   4.089 -3.0387 -0.8270  1.9341
  761MOL0     H 2719  -0.708   7.859   4.120  1.0027 -1.8646 -0.6775
  761MOL0     H 2720  -0.591   8.003   3.952  0.7494  0.8443 -3.2683
  761MOL0     H 2721   0.945   7.833   3.565  1.4567  1.5556  0.3982
  761MOL0     H 2722   1.042   7.808   3.341 -0.8599 -0.3525  0.2078
  761MOL0     H 2723   1.412   7.538   3.105  2.3601  0.0213  0.3795
  761MOL0     H 2724   1.547   7.511   2.914  1.0245  1.3196 -0.7127
  761MOL0     H 2725   1.512   7.460   2.674  0.4182  0.4226  0.6755
  761MOL0     H 2726   1.376   7.571   2.638  0.3061  1.1835  0.1294
  761MOL0     H 2727   1.612   7.518   2.454 -0.8197 -1.4385 -2.1318
  761MOL0     H 2728   1.537   7.681   2.460 -3.1096 -0.5328 -2.4904
  761MOL0     H 2729   1.317   7.582   2.389  1.1769  1.1708  0.5989
  761MOL0     H 2730   1.381   7.423   2.424 -0.6840 -1.3299 -3.2240
  761MOL0     H 2731   1.413   7.415   2.200 -0.9828  0.2128  1.1327
  761MOL0     H 2732   1.562   7.430   2.282 -0.0562 -0.3005 -0.2307
  761MOL0     H 2733   1.520   7.802   2.075  1.8860 -2.2259 -2.5312
  761MOL0     H 2734   1.438   7.877   2.745  1.2722  1.2568  1.4604
  761MOL0     H 2735   1.312   7.943   2.971  2.4747  1.6309 -4.8513
  762MOL0     O 2736  11.290  11.275   8.891  0.1401  0.9568 -0.5048
  762MOL0     C 2737  11.272  11.389   8.938  0.0540 -0.4915  0.6720
  762MOL0     O 2738  11.321  11.507   8.877 -0.1462  0.1466 -0.2907
  762MOL0     C 2739  11.379  11.523   8.752  0.0270 -0.2462  0.1777
  762MOL0     C 2740  11.326  11.489   8.634  1.1278  0.2411  0.3435
  762MOL0     C 2741  11.392  11.534   8.515  0.4320 -0.4580  0.2458
  762MOL0     C 2742  11.524  11.589   8.513 -0.3683  0.0490 -0.0597
  762MOL0     O 2743  11.609  11.634   8.413 -0.4359 -0.1066 -0.3703
  762MOL0     C 2744  11.541  11.659   8.292 -0.5895  0.3604  0.4108
  762MOL0     C 2745  11.642  11.748   8.221 -0.0010  0.1242  0.6515
  762MOL0     C 2746  11.604  11.764   8.072 -0.4879  0.0176  0.2793
  762MOL0     C 2747  11.709  11.846   8.002  0.0227 -0.2571  0.0555
  762MOL0     C 2748  11.678  11.827   7.851  0.3453 -0.1550 -0.2885
  762MOL0     C 2749  11.764  11.926   7.777 -0.6073 -0.7218  0.3722
  762MOL0     C 2750  11.741  11.917   7.626  0.4805 -0.4076 -0.4519
  762MOL0     C 2751  11.822  12.032   7.555 -0.2886  0.1401  0.3533
  762MOL0     N 2752  11.848  11.984   7.417 -0.2017  0.1260  0.3589
  762MOL0     C 2753  11.749  11.962   7.332  0.0616  0.2834  1.1359
  762MOL0     C 2754  11.807  11.908   7.229 -0.1776  0.3038 -0.4241
  762MOL0     C 2755  11.742  11.875   7.099 -0.5535 -0.0117  0.1400
  762MOL0     C 2756  11.748  11.983   6.990 -0.3840  1.1313 -0.1735
  762MOL0     C 2757  11.616  12.020   6.926  1.1833 -0.1141  0.0122
  762MOL0     C 2758  11.637  12.114   6.806 -0.3429 -0.0625  0.1286
  762MOL0     O 2759  11.504  12.164   6.780  0.4573  0.4900  0.2243
  762MOL0     C 2760  11.484  12.248   6.678 -0.0304  1.0359 -0.0886
  762MOL0     C 2761  11.357  12.280   6.631  0.5885  0.1004  0.3910
  762MOL0     C 2762  11.336  12.362   6.518 -0.5175  0.6427  0.6839
  762MOL0     C 2763  11.199  12.388   6.471 -0.4377  0.2495  0.1004
  762MOL0     C 2764  11.446  12.401   6.436  0.8112  0.1568 -0.2846
  762MOL0     C 2765  11.429  12.487   6.314 -0.2490 -0.1417 -0.4291
  762MOL0     O 2766  11.333  12.578   6.312  0.0459  0.5510  0.4730
  762MOL0     C 2767  11.318  12.656   6.201 -1.2193 -0.4142  0.8631
  762MOL0     C 2768  11.191  12.670   6.152  1.3573  0.4774 -0.3501
  762MOL0     C 2769  11.177  12.746   6.032 -0.5979 -0.2976 -0.0597
  762MOL0     C 2770  11.285  12.806   5.961 -0.5357 -0.6357  0.3881
  762MOL0     O 2771  11.285  12.884   5.845 -0.3270 -0.2040  0.6738
  762MOL0     C 2772  11.165  12.924   5.783  0.6098  0.7033  0.1266
  762MOL0     C 2773  11.197  12.977   5.646  0.2264 -0.0925  0.6166
  762MOL0     C 2774  11.080  13.045   5.555 -1.4200  0.6582 -0.1077
  762MOL0     C 2775  11.050  13.181   5.613 -0.0188 -0.8197 -0.8060
  762MOL0     C 2776  10.960  13.250   5.514  0.7624  0.0263  0.6197
  762MOL0     C 2777  10.863  13.340   5.577 -0.2519  0.3503 -0.0243
  762MOL0     C 2778  10.773  13.412   5.478 -1.3433 -0.8667 -0.4594
  762MOL0     C 2779  10.845  13.524   5.398 -0.4644  1.4158  0.7394
  762MOL0    Cl 2780  10.888  13.660   5.493 -0.3309 -0.1889  0.4001
  762MOL0     C 2781  11.413  12.788   6.015  0.5767  0.4227 -0.7863
  762MOL0     C 2782  11.431  12.707   6.132  0.6189  0.2191  0.5434
  762MOL0     O 2783  11.522  12.467   6.236 -0.2719  0.3267 -0.2522
  762MOL0     C 2784  11.571  12.373   6.487  0.1651 -1.3859 -0.0117
  762MOL0     C 2785  11.590  12.306   6.612  0.1752  0.4142  0.2577
  762MOL0     N 2786  11.938  11.888   7.257 -1.1395 -0.0421  0.3694
  762MOL0     N 2787  11.964  11.948   7.368 -0.6251 -0.1365 -0.0324
  762MOL0     C 2788  11.574  11.597   8.641 -0.5406 -0.0710 -0.2511
  762MOL0     C 2789  11.509  11.574   8.761  0.9939  0.2439  0.0321
  762MOL0     C 2790  11.227  11.405   9.074  0.1310 -0.1474 -0.3000
  762MOL0     C 2791  11.189  11.300   9.162  0.2943 -0.2858  0.1783
  762MOL0     C 2792  11.158  11.314   9.298  0.4499 -0.6596  0.4962
  762MOL0     C 2793  11.141  11.443   9.345 -0.4093 -0.4244 -0.0638
  762MOL0     O 2794  11.093  11.455   9.468 -0.1634 -0.4258 -0.6849
  762MOL0     C 2795  11.018  11.571   9.498  0.2916 -0.2030 -0.6466
  762MOL0     C 2796  10.932  11.549   9.621 -0.6225  0.8109  0.4884
  762MOL0     C 2797  11.015  11.553   9.750  1.6612 -0.3410 -0.4010
  762MOL0     C 2798  10.933  11.530   9.874  0.0303 -0.9560 -0.2201
  762MOL0     C 2799  10.998  11.554  10.001 -0.6375  0.5017  0.2714
  762MOL0     C 2800  11.070  11.582  10.092 -0.6805  0.4204 -0.1368
  762MOL0     C 2801  11.177  11.553   9.259 -0.3288  0.1751 -0.4478
  762MOL0     C 2802  11.216  11.532   9.127  0.5230  0.6255 -0.0670
  762MOL0     H 2803  11.232  11.436   8.641  2.1427 -1.5425  1.1490
  762MOL0     H 2804  11.331  11.525   8.426 -1.1158  2.5334  0.8609
  762MOL0     H 2805  11.503  11.574   8.234 -0.6035  1.2409 -0.9084
  762MOL0     H 2806  11.448  11.713   8.308  0.0377  0.9606  2.2375
  762MOL0     H 2807  11.643  11.844   8.273  0.6965  0.7882 -0.5597
  762MOL0     H 2808  11.743  11.706   8.234  0.3957  0.0624 -2.0415
  762MOL0     H 2809  11.595  11.665   8.027 -1.2275 -0.2293  0.9498
  762MOL0     H 2810  11.506  11.810   8.060 -0.0577  0.5267 -1.6503
  762MOL0     H 2811  11.716  11.950   8.035  1.0127 -0.1796 -0.3477
  762MOL0     H 2812  11.811  11.811   8.023  0.5265 -0.8734 -2.9303
  762MOL0     H 2813  11.695  11.725   7.815  2.0218  0.3948 -1.1815
  762MOL0     H 2814  11.578  11.870   7.839  1.1622  2.8571  2.4120
  762MOL0     H 2815  11.725  12.027   7.798 -2.0579 -1.0661 -0.4725
  762MOL0     H 2816  11.867  11.926   7.811  0.0158  0.2577 -1.3438
  762MOL0     H 2817  11.787  11.823   7.597  0.6367 -0.0153 -1.5158
  762MOL0     H 2818  11.634  11.919   7.601  0.6965  1.8401 -1.4520
  762MOL0     H 2819  11.916  12.048   7.608  0.6301 -1.6884 -0.6038
  762MOL0     H 2820  11.760  12.122   7.549  1.7238  1.5041 -1.5347
  762MOL0     H 2821  11.641  11.969   7.345 -0.1706  1.3959 -0.8610
  762MOL0     H 2822  11.786  11.783   7.059  0.4445 -0.0092  1.1958
  762MOL0     H 2823  11.636  11.852   7.114 -0.6035 -0.9472 -1.3986
  762MOL0     H 2824  11.804  11.936   6.909  0.7598 -0.0226  1.2292
  762MOL0     H 2825  11.805  12.073   7.015 -0.5529  0.9104  1.0440
  762MOL0     H 2826  11.569  12.073   7.009  0.7775 -1.3351  0.5703
  762MOL0     H 2827  11.554  11.933   6.905 -1.3522  1.4741  0.5391
  762MOL0     H 2828  11.674  12.064   6.716  0.2065 -0.7618  0.7226
  762MOL0     H 2829  11.695  12.201   6.839 -0.4363  0.9627 -2.2364
  762MOL0     H 2830  11.276  12.244   6.693  1.0474 -2.1621 -0.2190
  762MOL0     H 2831  11.171  12.493   6.482  5.3540  2.3046 -1.0632
  762MOL0     H 2832  11.184  12.364   6.365  1.8496  0.2337 -0.2702
  762MOL0     H 2833  11.134  12.326   6.533  1.1894 -2.0910 -0.3880
  762MOL0     H 2834  11.107  12.628   6.206  3.6334 -2.0209  1.5311
  762MOL0     H 2835  11.077  12.759   5.993 -0.1972  3.1405 -0.2532
  762MOL0     H 2836  11.103  12.834   5.785  0.1253  1.0356  0.9131
  762MOL0     H 2837  11.118  13.008   5.836  2.1590  1.1342  0.8723
  762MOL0     H 2838  11.285  13.043   5.652 -1.6111  2.3893  2.3279
  762MOL0     H 2839  11.223  12.887   5.589  0.4483 -1.0733  2.2071
  762MOL0     H 2840  10.985  12.989   5.549 -1.3794  0.1437  2.5057
  762MOL0     H 2841  11.112  13.048   5.451 -1.3639  0.8789 -0.0827
  762MOL0     H 2842  10.995  13.169   5.707  0.3420  3.2695  0.1189
  762MOL0     H 2843  11.135  13.246   5.634  0.7176 -1.7739 -0.7706
  762MOL0     H 2844  10.898  13.178   5.459 -0.5328  2.3778 -1.1539
  762MOL0     H 2845  11.021  13.321   5.458  2.5402  0.0408  2.4501
  762MOL0     H 2846  10.815  13.277   5.652 -0.8835  1.1397  0.2466
  762MOL0     H 2847  10.917  13.421   5.628  1.4864 -0.6660 -0.1832
  762MOL0     H 2848  10.691  13.457   5.535 -0.6374 -0.0717 -0.0659
  762MOL0     H 2849  10.724  13.338   5.414 -0.3194 -1.3868 -0.6602
  762MOL0     H 2850  10.782  13.562   5.317  1.6690 -2.3421 -3.0437
  762MOL0     H 2851  10.935  13.490   5.347 -1.3074 -0.5741  0.4660
  762MOL0     H 2852  11.496  12.833   5.961 -1.6064  4.4370 -1.1529
  762MOL0     H 2853  11.534  12.689   6.162  0.1197 -3.7955  0.4449
  762MOL0     H 2854  11.657  12.413   6.435  0.7553 -1.8177  0.6107
  762MOL0     H 2855  11.694  12.283   6.636  0.5548  2.2728  0.5499
  762MOL0     H 2856  11.671  11.645   8.653 -0.5531 -0.1737  0.2793
  762MOL0     H 2857  11.567  11.600   8.849  0.6904  1.0003  0.0184
  762MOL0     H 2858  11.212  11.196   9.141  1.6551 -0.4511  2.1841
  762MOL0     H 2859  11.144  11.225   9.359 -1.7009 -0.6824  0.0546
  762MOL0     H 2860  11.084  11.658   9.508 -1.0008  1.2428 -3.5732
  762MOL0     H 2861  10.948  11.605   9.422  0.9702  2.0384 -0.3655
  762MOL0     H 2862  10.882  11.455   9.594  0.1182  0.5723 -0.0981
  762MOL0     H 2863  10.861  11.632   9.627  0.9952  2.2647  0.4336
  762MOL0     H 2864  11.061  11.652   9.746  2.3003 -0.6481 -0.7290
  762MOL0     H 2865  11.091  11.475   9.753  0.1003 -1.8850  0.8082
  762MOL0     H 2866  10.887  11.430   9.867 -2.5245  0.2353 -3.2090
  762MOL0     H 2867  10.855  11.606   9.874  2.5558  1.8524  1.6399
  762MOL0     H 2868  11.125  11.612  10.179  0.5881 -2.3830  0.1438
  762MOL0     H 2869  11.175  11.654   9.300 -2.7130 -1.0170  2.8610
  762MOL0     H 2870  11.228  11.621   9.066 -1.4193 -0.1604 -1.7250
  763MOL0     O 2871  10.455   3.770   4.775  0.0227 -0.4759 -0.9514
  763MOL0     C 2872  10.550   3.824   4.712  0.8663 -0.7624  0.2708
  763MOL0     O 2873  10.683   3.795   4.729 -0.4530  0.9395 -0.7330
  763MOL0     C 2874  10.722   3.696   4.818 -0.2467 -0.0878  0.0478
  763MOL0     C 2875  10.669   3.566   4.838 -0.0190  0.6458 -0.0369
  763MOL0     C 2876  10.735   3.473   4.921  0.3939 -0.0482 -0.3891
  763MOL0     C 2877  10.848   3.514   4.989 -1.1645 -0.4834 -0.2230
  763MOL0     O 2878  10.912   3.422   5.069 -0.0398  0.6044 -0.5956
  763MOL0     C 2879  10.874   3.413   5.209  0.8756  0.5790 -0.4504
  763MOL0     C 2880  10.882   3.279   5.272 -0.2457  0.8149 -0.1555
  763MOL0     C 2881  11.018   3.205   5.286  0.1253  0.5012  0.5643
  763MOL0     C 2882  11.060   3.132   5.160 -0.1012  0.0249 -0.2209
  763MOL0     C 2883  11.187   3.048   5.173 -0.3097  0.4810  0.3365
  763MOL0     C 2884  11.253   3.003   5.037  0.6706  0.4101 -0.8564
  763MOL0     C 2885  11.372   2.918   5.053 -0.0510  0.7123  0.1092
  763MOL0     C 2886  11.352   2.799   5.145 -0.2825 -0.2586  0.5780
  763MOL0     N 2887  11.486   2.748   5.197 -0.1329  0.2815 -0.0151
  763MOL0     C 2888  11.517   2.701   5.325  0.4491  0.8066  0.6941
  763MOL0     C 2889  11.652   2.672   5.325 -0.4170  0.8923  0.3239
  763MOL0     C 2890  11.734   2.617   5.434  0.2430 -0.0983  0.5155
  763MOL0     C 2891  11.718   2.459   5.422  0.1435  0.1267 -0.4027
  763MOL0     C 2892  11.787   2.401   5.298  0.0111  0.0285  0.4516
  763MOL0     C 2893  11.785   2.245   5.298  0.0734  1.1666  0.3655
  763MOL0     O 2894  11.662   2.196   5.356  0.1460  0.7024 -0.5257
  763MOL0     C 2895  11.679   2.071   5.422 -0.2451 -0.1538  0.3035
  763MOL0     C 2896  11.563   2.026   5.490 -0.3610 -0.1717 -0.9212
  763MOL0     C 2897  11.553   1.906   5.563  0.3981 -0.4938 -0.2822
  763MOL0     C 2898  11.424   1.885   5.636 -0.9013  0.1425 -0.4554
  763MOL0     C 2899  11.659   1.808   5.553 -0.3214  0.5456 -0.3819
  763MOL0     C 2900  11.667   1.686   5.637 -0.1269 -0.0632  0.3075
  763MOL0     O 2901  11.732   1.576   5.577 -0.4249 -0.0125 -0.2479
  763MOL0     C 2902  11.744   1.451   5.629  0.1901 -0.6447  0.5776
  763MOL0     C 2903  11.641   1.374   5.670 -0.0432 -0.3167  0.1449
  763MOL0     C 2904  11.678   1.252   5.735 -0.4011  0.5787  0.1077
  763MOL0     C 2905  11.808   1.205   5.738  0.0766 -0.0945 -0.0365
  763MOL0     O 2906  11.857   1.087   5.796 -0.0888  0.0467 -0.8825
  763MOL0     C 2907  11.793   1.044   5.918  0.3947 -1.0749 -0.2538
  763MOL0     C 2908  11.859   0.916   5.967  0.0002 -0.3918  0.9267
  763MOL0     C 2909  11.829   0.805   5.863 -0.0672 -0.1584 -0.2873
  763MOL0     C 2910  11.893   0.674   5.909  0.0298 -0.9800 -1.0582
  763MOL0     C 2911  11.944   0.598   5.790 -0.3809 -1.2746 -0.9624
  763MOL0     C 2912  12.040   0.485   5.839  0.4779  0.6784 -0.2338
  763MOL0     C 2913  12.055   0.377   5.726 -0.1068 -0.3726  0.7659
  763MOL0     C 2914  12.154   0.265   5.763 -0.6855  0.6276 -0.0501
  763MOL0    Cl 2915  12.203   0.136   5.639 -0.1960  0.5895 -0.1536
  763MOL0     C 2916  11.901   1.279   5.674  0.6444 -0.7548  0.0551
  763MOL0     C 2917  11.870   1.409   5.622 -0.9564 -0.8720 -0.6324
  763MOL0     O 2918  11.614   1.684   5.748 -0.0701  0.2360  0.2216
  763MOL0     C 2919  11.768   1.848   5.465 -0.1744  1.1428  0.8132
  763MOL0     C 2920  11.782   1.984   5.415 -0.4191  0.3274 -0.2255
  763MOL0     N 2921  11.695   2.689   5.195  0.1926 -0.4192 -0.2888
  763MOL0     N 2922  11.601   2.736   5.123  0.0611  0.3018 -0.1684
  763MOL0     C 2923  10.900   3.641   4.969 -0.7752 -0.5185 -0.1194
  763MOL0     C 2924  10.840   3.731   4.885  0.3782 -0.0392 -0.1570
  763MOL0     C 2925  10.518   3.938   4.627  0.1078 -0.2147  0.1739
  763MOL0     C 2926  10.385   3.990   4.621 -0.6711  0.4444  0.5357
  763MOL0     C 2927  10.364   4.102   4.548  0.6650 -0.3481 -0.8741
  763MOL0     C 2928  10.468   4.169   4.481  0.9880  0.0531  0.7413
  763MOL0     O 2929  10.438   4.291   4.414 -0.3098  0.3602 -0.0576
  763MOL0     C 2930  10.521   4.403   4.445  0.0335 -0.5575  0.0126
  763MOL0     C 2931  10.425   4.521   4.471 -0.0711 -0.3669  0.3604
  763MOL0     C 2932  10.337   4.567   4.357 -0.0527  0.5778  0.1432
  763MOL0     C 2933  10.218   4.462   4.334 -0.0533  0.0299  0.2513
  763MOL0     C 2934  10.140   4.432   4.451  0.3365  0.3055  0.5734
  763MOL0     C 2935  10.073   4.399   4.540 -0.0025  0.5362 -1.1066
  763MOL0     C 2936  10.594   4.114   4.471 -0.6647  0.4939 -1.0709
  763MOL0     C 2937  10.614   3.992   4.539  0.1938  0.7123  0.3437
  763MOL0     H 2938  10.584   3.532   4.780 -0.6598  0.7127  0.8556
  763MOL0     H 2939  10.710   3.370   4.942  3.5032 -0.8126  0.1003
  763MOL0     H 2940  10.938   3.480   5.267 -2.0910  2.1597  1.2172
  763MOL0     H 2941  10.775   3.459   5.215  0.6967  0.1261  0.0827
  763MOL0     H 2942  10.834   3.283   5.370  0.5306 -1.2101  0.3644
  763MOL0     H 2943  10.821   3.213   5.210 -2.0824  1.0323  1.3214
  763MOL0     H 2944  11.103   3.269   5.310  0.0325  2.1831 -2.8884
  763MOL0     H 2945  11.007   3.124   5.359 -4.8475 -1.0051 -1.4184
  763MOL0     H 2946  10.978   3.066   5.132  2.2491 -3.5333  0.5601
  763MOL0     H 2947  11.072   3.199   5.074 -0.2472  3.1832  2.0588
  763MOL0     H 2948  11.258   3.105   5.232  0.3464  0.2141 -0.1763
  763MOL0     H 2949  11.156   2.958   5.227 -0.8152  1.4303  1.6558
  763MOL0     H 2950  11.178   2.943   4.986  1.7481 -2.2438  0.4947
  763MOL0     H 2951  11.283   3.099   4.994 -0.6024  2.0268  1.6444
  763MOL0     H 2952  11.387   2.883   4.950 -2.5805 -1.4478  0.3645
  763MOL0     H 2953  11.462   2.972   5.083  0.8479  0.3160 -1.7032
  763MOL0     H 2954  11.299   2.717   5.096  1.1911 -0.0706 -1.4810
  763MOL0     H 2955  11.287   2.817   5.231  0.2830 -0.4043  1.0431
  763MOL0     H 2956  11.451   2.689   5.410  1.1607 -1.5667  0.9732
  763MOL0     H 2957  11.837   2.653   5.439 -0.1002  0.8277  1.5064
  763MOL0     H 2958  11.677   2.653   5.521 -1.0844  4.0867 -1.7902
  763MOL0     H 2959  11.611   2.438   5.433 -0.2001  1.6710 -0.5546
  763MOL0     H 2960  11.765   2.416   5.511 -2.0691  1.3762  1.5011
  763MOL0     H 2961  11.886   2.446   5.289  1.1522 -2.2160  0.9400
  763MOL0     H 2962  11.734   2.438   5.209  0.1326 -1.9529 -0.5078
  763MOL0     H 2963  11.878   2.230   5.353 -0.7233  0.7880  1.6562
  763MOL0     H 2964  11.787   2.201   5.197  1.8407  0.5751  0.6286
  763MOL0     H 2965  11.490   2.105   5.477 -1.1410 -1.1173 -2.6691
  763MOL0     H 2966  11.439   1.838   5.734  0.6087  0.5536 -0.4600
  763MOL0     H 2967  11.398   1.987   5.663  1.4768  0.8763 -0.6669
  763MOL0     H 2968  11.342   1.835   5.584 -3.1225  1.7908  1.2604
  763MOL0     H 2969  11.548   1.427   5.689  1.3410  1.9592  0.9561
  763MOL0     H 2970  11.592   1.206   5.783 -0.0464 -1.5398 -1.1637
  763MOL0     H 2971  11.815   1.120   5.994  2.8331 -0.5340 -1.4085
  763MOL0     H 2972  11.685   1.028   5.907  0.3959 -0.4588 -1.3056
  763MOL0     H 2973  11.966   0.925   5.989  0.4710  0.2655 -1.3790
  763MOL0     H 2974  11.807   0.896   6.061 -1.0470  3.0516  1.2157
  763MOL0     H 2975  11.869   0.840   5.767  0.6084  0.4816  0.2119
  763MOL0     H 2976  11.722   0.805   5.840 -0.1438  0.4211  0.0447
  763MOL0     H 2977  11.971   0.692   5.984 -2.7045 -1.0017  2.0334
  763MOL0     H 2978  11.817   0.622   5.969  0.9030 -1.2233 -0.1363
  763MOL0     H 2979  12.004   0.663   5.726 -2.1797 -1.7010 -3.1858
  763MOL0     H 2980  11.859   0.561   5.732 -1.4676 -0.6526  0.1981
  763MOL0     H 2981  12.135   0.532   5.867  0.3536  1.4417 -1.0186
  763MOL0     H 2982  11.994   0.436   5.925 -1.1247  0.7208 -1.0311
  763MOL0     H 2983  12.093   0.433   5.641 -1.7053 -1.0149 -0.4179
  763MOL0     H 2984  11.955   0.340   5.701  0.6641 -1.3116 -1.0852
  763MOL0     H 2985  12.106   0.224   5.853 -3.1998  2.0424 -0.6566
  763MOL0     H 2986  12.250   0.315   5.779  1.0384 -2.0083 -1.2862
  763MOL0     H 2987  12.005   1.250   5.670  0.1425 -3.4427  2.7459
  763MOL0     H 2988  11.949   1.474   5.585 -1.9784  0.5430 -0.4200
  763MOL0     H 2989  11.848   1.776   5.478 -1.4553 -0.3569  0.7053
  763MOL0     H 2990  11.876   2.006   5.366  2.0850 -0.9835  3.5124
  763MOL0     H 2991  10.994   3.679   5.009 -1.2211 -0.7956  1.2710
  763MOL0     H 2992  10.873   3.833   4.866 -0.6963  0.2082 -0.7614
  763MOL0     H 2993  10.303   3.956   4.683 -1.4980  1.9764  0.3322
  763MOL0     H 2994  10.272   4.159   4.552  1.3741  0.7815  0.0903
  763MOL0     H 2995  10.582   4.372   4.531 -0.8249 -0.0346  0.8251
  763MOL0     H 2996  10.586   4.427   4.361  0.4445 -0.1107  0.4556
  763MOL0     H 2997  10.498   4.598   4.498 -2.2992  1.1332  2.5491
  763MOL0     H 2998  10.367   4.485   4.556  0.8168  3.1666  2.6620
  763MOL0     H 2999  10.391   4.583   4.263 -1.0225 -1.9607 -0.9301
  763MOL0     H 3000  10.291   4.663   4.380  0.3050  0.3673  1.8787
  763MOL0     H 3001  10.255   4.365   4.298  2.4964  0.4438  1.5705
  763MOL0     H 3002  10.152   4.504   4.258 -3.2918 -2.9827  1.1348
  763MOL0     H 3003  10.015   4.377   4.627 -0.8839 -0.3956 -1.9019
  763MOL0     H 3004  10.677   4.166   4.424 -2.1886  3.0357 -1.1305
  763MOL0     H 3005  10.720   3.968   4.540  0.3149  1.1487  2.0840
  764MOL0     O 3006   9.813   6.115   7.615  0.2918 -0.0339 -0.0014
  764MOL0     C 3007   9.867   6.225   7.600  0.7675 -0.0585 -0.8872
  764MOL0     O 3008   9.865   6.298   7.483 -0.3899  0.4948  0.4600
  764MOL0     C 3009   9.785   6.266   7.368  0.1647  0.9165 -0.4873
  764MOL0     C 3010   9.791   6.355   7.256 -0.7081 -0.6826  0.0637
  764MOL0     C 3011   9.713   6.336   7.140  0.9947 -0.7717  0.0594
  764MOL0     C 3012   9.628   6.224   7.127 -0.3463 -0.2184 -0.0711
  764MOL0     O 3013   9.559   6.211   7.001  0.2204  0.6905 -1.1020
  764MOL0     C 3014   9.441   6.128   7.017 -0.0333 -0.8507 -0.4257
  764MOL0     C 3015   9.350   6.166   6.896  0.0319 -0.0947  0.0457
  764MOL0     C 3016   9.262   6.285   6.917  0.1229 -0.0409 -0.5612
  764MOL0     C 3017   9.212   6.327   6.778  0.2187  0.2989  0.3193
  764MOL0     C 3018   9.064   6.371   6.789  0.2325  0.1355  0.1470
  764MOL0     C 3019   8.989   6.416   6.664  0.4375 -0.2245  0.2058
  764MOL0     C 3020   8.840   6.446   6.704  0.2854 -0.3517  0.2416
  764MOL0     C 3021   8.749   6.476   6.583 -0.5705 -0.1198 -0.0057
  764MOL0     N 3022   8.618   6.513   6.634  0.5061  0.5462  0.2089
  764MOL0     C 3023   8.574   6.638   6.659  0.1504  0.1262  0.3459
  764MOL0     C 3024   8.442   6.633   6.654 -0.1873 -0.1675 -0.3760
  764MOL0     C 3025   8.353   6.756   6.683  0.0649  0.3182 -0.2148
  764MOL0     C 3026   8.252   6.781   6.573 -0.2162 -0.4322 -0.2496
  764MOL0     C 3027   8.111   6.796   6.632 -0.5283  0.2714 -0.5741
  764MOL0     C 3028   8.014   6.832   6.524 -0.0076  0.3766  0.0883
  764MOL0     O 3029   7.895   6.861   6.597 -0.0480 -0.0768  0.0931
  764MOL0     C 3030   7.809   6.757   6.630  1.0289  0.3689  0.4085
  764MOL0     C 3031   7.713   6.773   6.736  1.0822 -0.2188 -0.0483
  764MOL0     C 3032   7.632   6.668   6.778  0.7230 -0.1890 -0.8928
  764MOL0     C 3033   7.543   6.703   6.897  0.4017  0.0405 -0.0979
  764MOL0     C 3034   7.645   6.540   6.720  0.6077  0.8230  0.5325
  764MOL0     C 3035   7.563   6.420   6.775 -1.0467 -0.5199  0.1559
  764MOL0     O 3036   7.454   6.442   6.851  0.1747  0.3329 -0.3494
  764MOL0     C 3037   7.409   6.335   6.928 -0.6990  0.2680 -1.1545
  764MOL0     C 3038   7.433   6.327   7.075 -0.1385  0.0593 -0.3578
  764MOL0     C 3039   7.378   6.220   7.147 -0.6068  0.0736 -0.2423
  764MOL0     C 3040   7.311   6.119   7.078 -1.0616  0.3444  0.2334
  764MOL0     O 3041   7.273   5.999   7.136  0.3329 -0.2388 -0.7475
  764MOL0     C 3042   7.230   6.004   7.274 -0.0848  0.6296 -0.0494
  764MOL0     C 3043   7.086   6.056   7.270 -0.5896 -0.2173  0.3745
  764MOL0     C 3044   7.023   6.061   7.401 -0.2370  0.1037  0.9179
  764MOL0     C 3045   6.873   6.107   7.382  0.5927 -0.3180  0.8682
  764MOL0     C 3046   6.810   6.158   7.516 -0.0838 -0.2592 -0.7297
  764MOL0     C 3047   6.823   6.312   7.531  0.1466  1.0733  0.2020
  764MOL0     C 3048   6.738   6.354   7.658  0.1320  0.3847 -0.9843
  764MOL0     C 3049   6.782   6.304   7.790  0.2522  0.3889  0.6555
  764MOL0    Cl 3050   6.659   6.367   7.916  0.4430  0.9396 -0.1899
  764MOL0     C 3051   7.295   6.132   6.935 -0.9152 -0.5554 -0.7359
  764MOL0     C 3052   7.340   6.250   6.864  0.0058 -0.9127 -0.1957
  764MOL0     O 3053   7.617   6.311   6.750 -0.3526  0.1175 -0.4509
  764MOL0     C 3054   7.722   6.525   6.601  0.2888 -0.7314  0.2575
  764MOL0     C 3055   7.799   6.632   6.564  0.3939 -0.8748 -0.5444
  764MOL0     N 3056   8.403   6.502   6.646  0.0081 -0.5405 -0.1106
  764MOL0     N 3057   8.511   6.431   6.629  0.4144 -0.3001 -0.1255
  764MOL0     C 3058   9.621   6.135   7.236  0.5556  0.8174  0.0420
  764MOL0     C 3059   9.693   6.157   7.353 -0.6100 -0.3851  0.2014
  764MOL0     C 3060   9.939   6.276   7.716 -0.0019 -0.1251 -1.5059
  764MOL0     C 3061   9.985   6.405   7.716  0.8423 -0.6835 -0.0684
  764MOL0     C 3062  10.058   6.464   7.821  0.5298 -0.6604  0.9232
  764MOL0     C 3063  10.086   6.381   7.929  0.5333  0.9399 -0.8767
  764MOL0     O 3064  10.181   6.429   8.009  0.1379 -0.7155  0.2685
  764MOL0     C 3065  10.248   6.347   8.107  1.1081 -0.2002 -0.3436
  764MOL0     C 3066  10.360   6.418   8.167 -0.2631  0.0851 -0.5581
  764MOL0     C 3067  10.478   6.419   8.070 -0.3498  0.9363  0.4217
  764MOL0     C 3068  10.574   6.539   8.105  0.0943  0.8968 -0.1916
  764MOL0     C 3069  10.610   6.531   8.244  0.1610  0.1102 -0.1525
  764MOL0     C 3070  10.671   6.545   8.355 -0.7321 -0.0742  0.2108
  764MOL0     C 3071  10.036   6.247   7.926 -0.4829 -0.3980 -0.5663
  764MOL0     C 3072   9.960   6.189   7.827 -0.2168 -0.2207  0.4755
  764MOL0     H 3073   9.852   6.444   7.268 -1.1287 -0.3609 -0.1701
  764MOL0     H 3074   9.725   6.412   7.064  1.5447  0.5830  1.4441
  764MOL0     H 3075   9.473   6.024   7.006  2.5375 -0.2157  0.5184
  764MOL0     H 3076   9.382   6.135   7.109 -0.1444  1.2174 -0.6109
  764MOL0     H 3077   9.420   6.173   6.813  1.2219 -1.6297  0.8566
  764MOL0     H 3078   9.278   6.084   6.880 -2.6387  1.9311  1.0050
  764MOL0     H 3079   9.183   6.267   6.990  1.9027 -0.0912  1.4577
  764MOL0     H 3080   9.327   6.360   6.964 -0.0697  0.7867 -1.5632
  764MOL0     H 3081   9.264   6.409   6.728 -1.5976  0.7191 -0.9996
  764MOL0     H 3082   9.232   6.241   6.712  0.5290 -2.6809  3.9796
  764MOL0     H 3083   9.003   6.290   6.829  1.0635  0.1359  1.4738
  764MOL0     H 3084   9.063   6.450   6.865 -1.6372  1.4722 -1.1583
  764MOL0     H 3085   9.040   6.499   6.615 -2.3127  1.1279 -0.5642
  764MOL0     H 3086   8.994   6.341   6.584  0.7066  1.7076 -1.6591
  764MOL0     H 3087   8.801   6.356   6.754  0.5189 -0.8343 -0.4226
  764MOL0     H 3088   8.842   6.521   6.783 -2.9830 -1.9768  2.0994
  764MOL0     H 3089   8.736   6.384   6.525 -2.4492 -0.1576  0.4104
  764MOL0     H 3090   8.796   6.561   6.533  1.3589  0.3197  2.3515
  764MOL0     H 3091   8.641   6.722   6.678  0.9261 -0.6350  1.0416
  764MOL0     H 3092   8.294   6.738   6.773  0.3226 -0.1061 -0.1264
  764MOL0     H 3093   8.411   6.848   6.675 -1.1515  0.9545 -3.4469
  764MOL0     H 3094   8.251   6.687   6.517 -0.2357 -2.0411  2.3148
  764MOL0     H 3095   8.287   6.857   6.502 -0.6646 -2.3028 -2.6058
  764MOL0     H 3096   8.098   6.874   6.708 -4.6878  1.3350 -2.1037
  764MOL0     H 3097   8.080   6.701   6.677  0.7342  0.0096 -0.2116
  764MOL0     H 3098   8.004   6.753   6.449  1.8606 -0.4294  0.6065
  764MOL0     H 3099   8.062   6.916   6.474  0.6391 -1.5898 -2.8833
  764MOL0     H 3100   7.724   6.860   6.799 -1.0248  0.3838 -0.4140
  764MOL0     H 3101   7.554   6.807   6.929 -1.1841 -0.3353  1.9262
  764MOL0     H 3102   7.441   6.680   6.865  0.7720 -2.7961  0.4364
  764MOL0     H 3103   7.557   6.644   6.988  2.5103 -1.1572 -1.1240
  764MOL0     H 3104   7.497   6.394   7.132  2.3096 -1.7137 -0.8411
  764MOL0     H 3105   7.401   6.218   7.254  0.4874 -0.7936 -0.4749
  764MOL0     H 3106   7.240   5.901   7.309 -2.7924 -0.6204 -2.5136
  764MOL0     H 3107   7.288   6.064   7.345  0.0591  2.7879 -1.8448
  764MOL0     H 3108   7.073   6.155   7.227  0.0809 -0.0771  0.4810
  764MOL0     H 3109   7.032   5.989   7.202  0.7831 -0.7921 -0.1786
  764MOL0     H 3110   7.060   6.136   7.472 -0.0896  0.2453  0.6929
  764MOL0     H 3111   7.034   5.965   7.452 -1.1239 -0.2989  0.3839
  764MOL0     H 3112   6.865   6.192   7.313 -0.8460 -1.3355 -0.2750
  764MOL0     H 3113   6.813   6.026   7.339  1.8692  1.1304 -4.2962
  764MOL0     H 3114   6.864   6.111   7.599  0.4415  0.0477 -0.8925
  764MOL0     H 3115   6.703   6.143   7.501 -0.1962  1.1307 -1.5312
  764MOL0     H 3116   6.925   6.350   7.538  2.0512 -3.3036 -0.1019
  764MOL0     H 3117   6.778   6.360   7.444 -0.6976  0.5771  0.3504
  764MOL0     H 3118   6.636   6.321   7.633 -0.2467 -2.2201  3.1941
  764MOL0     H 3119   6.754   6.462   7.649  5.5443 -0.0181  0.3214
  764MOL0     H 3120   6.875   6.359   7.809  0.3780  0.6109 -0.5154
  764MOL0     H 3121   6.794   6.195   7.788 -3.0821 -0.1372 -2.9025
  764MOL0     H 3122   7.238   6.054   6.885 -0.2215 -1.7866  0.3176
  764MOL0     H 3123   7.315   6.249   6.759  0.4663 -0.9546 -0.3081
  764MOL0     H 3124   7.749   6.427   6.563  2.4582  0.6646 -2.0530
  764MOL0     H 3125   7.865   6.612   6.481 -0.1106 -2.4889 -0.5804
  764MOL0     H 3126   9.547   6.055   7.230 -0.2138  1.5543 -0.5273
  764MOL0     H 3127   9.668   6.107   7.446  2.4933  3.5398  3.5690
  764MOL0     H 3128   9.967   6.474   7.634  4.4745  3.6248  2.2348
  764MOL0     H 3129  10.101   6.562   7.799  0.4734 -0.8692 -0.1975
  764MOL0     H 3130  10.170   6.332   8.182 -0.8102  0.7419 -2.0444
  764MOL0     H 3131  10.295   6.256   8.070  0.3575 -1.0494  0.7163
  764MOL0     H 3132  10.388   6.369   8.261 -3.5372  0.4249  0.6988
  764MOL0     H 3133  10.316   6.514   8.194 -0.4266  0.1684 -1.1172
  764MOL0     H 3134  10.446   6.427   7.966  1.0119 -3.2639 -0.5069
  764MOL0     H 3135  10.528   6.321   8.072 -2.2492 -0.0672  1.2127
  764MOL0     H 3136  10.521   6.634   8.097  1.3579  1.4811 -2.6337
  764MOL0     H 3137  10.658   6.530   8.035 -0.0612  0.0033 -0.2839
  764MOL0     H 3138  10.727   6.562   8.445 -0.6069 -2.0161  0.5581
  764MOL0     H 3139  10.066   6.188   8.012 -0.5064  0.3239 -0.0532
  764MOL0     H 3140   9.920   6.089   7.824  1.2144 -0.8110  0.1235
  765MOL0     O 3141   5.378   3.865   5.732 -0.7261 -0.2759  0.0955
  765MOL0     C 3142   5.355   3.982   5.709  0.1282  0.1933  0.1226
  765MOL0     O 3143   5.368   4.092   5.798 -0.6176  0.7132 -0.4632
  765MOL0     C 3144   5.435   4.064   5.918 -0.2591 -1.0597  0.5585
  765MOL0     C 3145   5.385   4.110   6.042 -0.1365 -1.0611 -0.2350
  765MOL0     C 3146   5.461   4.112   6.164 -0.4594  0.3293 -1.1845
  765MOL0     C 3147   5.593   4.055   6.156  0.1798  0.3883  0.4316
  765MOL0     O 3148   5.657   4.043   6.271  0.1172 -0.2247  0.2256
  765MOL0     C 3149   5.760   3.944   6.295 -0.4958 -0.3860  0.4740
  765MOL0     C 3150   5.793   3.927   6.443  0.3087 -0.0515  1.0486
  765MOL0     C 3151   5.790   3.768   6.463 -0.7149 -0.1195 -1.4691
  765MOL0     C 3152   5.653   3.718   6.468 -0.0936 -1.5083  0.7178
  765MOL0     C 3153   5.625   3.589   6.546 -0.6809 -0.1916 -0.7804
  765MOL0     C 3154   5.703   3.459   6.496  0.4010 -0.2339 -0.1416
  765MOL0     C 3155   5.717   3.353   6.597 -0.1477 -0.2808  0.1733
  765MOL0     C 3156   5.577   3.293   6.621  0.2468 -0.6901 -0.1842
  765MOL0     N 3157   5.574   3.158   6.686 -0.7350  0.0506  0.5527
  765MOL0     C 3158   5.607   3.036   6.633  0.3082 -0.3987 -0.4056
  765MOL0     C 3159   5.571   2.947   6.728 -0.0667  0.1917 -0.3569
  765MOL0     C 3160   5.589   2.799   6.710 -0.3067  0.0844 -0.3424
  765MOL0     C 3161   5.483   2.730   6.635 -0.3078 -0.6430  0.2457
  765MOL0     C 3162   5.473   2.578   6.656  0.4118 -0.5887  0.6203
  765MOL0     C 3163   5.346   2.523   6.593  1.0489  0.3136  0.0935
  765MOL0     O 3164   5.381   2.412   6.511  0.1336  0.1943  0.4063
  765MOL0     C 3165   5.288   2.313   6.481  0.3248 -0.3178 -0.3724
  765MOL0     C 3166   5.322   2.229   6.375 -0.2114 -0.2923 -0.9203
  765MOL0     C 3167   5.238   2.123   6.330 -0.0615 -0.0839  0.4984
  765MOL0     C 3168   5.294   2.036   6.218  0.3678 -0.3465  0.4551
  765MOL0     C 3169   5.116   2.101   6.400 -0.8888 -0.1986 -0.0933
  765MOL0     C 3170   5.007   2.001   6.365  0.0114 -1.5548 -0.2487
  765MOL0     O 3171   4.885   2.003   6.440 -0.2869  0.1633  0.0842
  765MOL0     C 3172   4.792   1.914   6.385  0.2742 -0.7770 -0.8706
  765MOL0     C 3173   4.738   1.827   6.477 -0.6506  0.1648  0.2359
  765MOL0     C 3174   4.637   1.742   6.436  0.7312 -0.5262  0.1886
  765MOL0     C 3175   4.587   1.750   6.307  0.0256 -0.7132  0.6748
  765MOL0     O 3176   4.476   1.683   6.274 -0.7684 -0.3537  0.5156
  765MOL0     C 3177   4.515   1.548   6.263  0.2368  0.6648  0.3800
  765MOL0     C 3178   4.436   1.459   6.181  0.0991 -0.3123 -0.6981
  765MOL0     C 3179   4.496   1.322   6.166  0.4240 -0.3285 -0.2323
  765MOL0     C 3180   4.369   1.224   6.155 -0.4911  0.6127 -1.4993
  765MOL0     C 3181   4.418   1.090   6.105 -0.9881 -0.5620 -0.2863
  765MOL0     C 3182   4.307   0.987   6.107  0.5758  0.0838 -0.2747
  765MOL0     C 3183   4.360   0.847   6.083 -0.4095  0.8439 -0.3821
  765MOL0     C 3184   4.410   0.770   6.204  0.1159 -0.3684 -0.1487
  765MOL0    Cl 3185   4.287   0.782   6.343  0.0404 -0.0709 -0.0113
  765MOL0     C 3186   4.625   1.855   6.214  0.0861  0.4043 -0.6581
  765MOL0     C 3187   4.737   1.922   6.255 -0.1005  0.2394 -0.5542
  765MOL0     O 3188   5.038   1.940   6.274 -0.0957 -0.2657  0.9609
  765MOL0     C 3189   5.079   2.192   6.500  0.2777 -0.2196  0.3212
  765MOL0     C 3190   5.159   2.295   6.542  0.3075 -0.9428 -0.0602
  765MOL0     N 3191   5.514   3.009   6.839  0.2288  0.0718 -0.1155
  765MOL0     N 3192   5.519   3.131   6.809  0.0641  0.2384  0.9627
  765MOL0     C 3193   5.651   4.008   6.034 -0.1028  0.4964  0.6494
  765MOL0     C 3194   5.569   4.032   5.916 -0.0313 -0.1014  0.6203
  765MOL0     C 3195   5.285   4.011   5.579  0.1624  0.5513  0.7049
  765MOL0     C 3196   5.284   4.139   5.527  0.3622 -0.3960  1.1396
  765MOL0     C 3197   5.218   4.171   5.404 -0.1599  0.0112 -0.6693
  765MOL0     C 3198   5.164   4.061   5.332  0.8267 -0.0907  0.0364
  765MOL0     O 3199   5.110   4.067   5.210  0.7754  0.0624  0.2504
  765MOL0     C 3200   5.085   4.201   5.147 -0.0428 -1.1013 -0.5853
  765MOL0     C 3201   4.962   4.182   5.045  0.3062  0.8594  0.1462
  765MOL0     C 3202   4.917   4.310   4.961  0.1730 -0.9570 -0.0396
  765MOL0     C 3203   4.870   4.432   5.049  0.1968  0.9492 -0.5324
  765MOL0     C 3204   4.808   4.530   4.965 -0.0189  0.0416  0.2854
  765MOL0     C 3205   4.751   4.583   4.883  0.1113  0.1594  0.9089
  765MOL0     C 3206   5.165   3.931   5.385  0.0148 -0.1905 -0.4876
  765MOL0     C 3207   5.227   3.907   5.504 -0.8125  0.2348 -0.0138
  765MOL0     H 3208   5.292   4.166   6.037  1.4044  1.5646 -2.5046
  765MOL0     H 3209   5.426   4.132   6.265 -0.7476  0.3343 -1.2833
  765MOL0     H 3210   5.723   3.849   6.256 -0.8503  0.2962 -0.9411
  765MOL0     H 3211   5.857   3.963   6.248  0.4472 -3.4747  0.9365
  765MOL0     H 3212   5.894   3.961   6.468  0.7794 -0.6186 -0.0191
  765MOL0     H 3213   5.715   3.982   6.497  1.7214  1.1144  1.9723
  765MOL0     H 3214   5.855   3.716   6.392 -1.1000 -2.1837 -0.3676
  765MOL0     H 3215   5.832   3.746   6.561  0.3755  2.9776 -1.1270
  765MOL0     H 3216   5.586   3.792   6.512 -1.8376 -1.3789 -1.9457
  765MOL0     H 3217   5.625   3.692   6.366 -1.7811  1.2090  0.3908
  765MOL0     H 3218   5.637   3.609   6.653 -0.4908  0.1768 -0.8702
  765MOL0     H 3219   5.517   3.570   6.546 -0.8387 -1.4627  5.4294
  765MOL0     H 3220   5.656   3.420   6.406  2.6822  0.8503 -1.9096
  765MOL0     H 3221   5.805   3.481   6.463 -0.9986 -0.6716 -5.6621
  765MOL0     H 3222   5.782   3.274   6.560 -1.8514 -1.1923 -0.9842
  765MOL0     H 3223   5.764   3.397   6.686 -2.0809 -3.2642  2.8800
  765MOL0     H 3224   5.514   3.287   6.531 -1.3188 -2.5072  0.9541
  765MOL0     H 3225   5.526   3.363   6.688 -1.9828 -2.0428 -0.3431
  765MOL0     H 3226   5.662   3.025   6.540  2.0389  2.5057  0.1405
  765MOL0     H 3227   5.685   2.769   6.666  0.4128 -1.0237  1.8416
  765MOL0     H 3228   5.592   2.753   6.809  0.8014  0.7002 -0.0822
  765MOL0     H 3229   5.494   2.741   6.526  0.8503 -2.6286  0.1245
  765MOL0     H 3230   5.385   2.778   6.637  0.0606  0.1133  0.3373
  765MOL0     H 3231   5.472   2.545   6.761 -1.1644 -0.7652  0.5720
  765MOL0     H 3232   5.560   2.548   6.596 -0.1684 -0.8328 -0.1126
  765MOL0     H 3233   5.302   2.592   6.521  0.3794 -1.9688 -1.8388
  765MOL0     H 3234   5.277   2.497   6.674 -2.3189  4.5142 -1.0819
  765MOL0     H 3235   5.413   2.253   6.322  1.6076 -1.2435  1.5734
  765MOL0     H 3236   5.237   2.047   6.126  1.2340  2.1755  0.1240
  765MOL0     H 3237   5.399   2.060   6.200  1.4357 -2.7820  2.6727
  765MOL0     H 3238   5.286   1.932   6.250  1.2951 -1.2087 -1.8685
  765MOL0     H 3239   4.760   1.819   6.583 -0.1881  0.4893  0.1678
  765MOL0     H 3240   4.582   1.684   6.509  0.3818 -0.2518  0.1468
  765MOL0     H 3241   4.618   1.539   6.226  0.5694 -0.7223  1.5557
  765MOL0     H 3242   4.514   1.512   6.366 -0.8578  0.9486  0.4802
  765MOL0     H 3243   4.338   1.457   6.229  0.0544 -2.0417 -0.7859
  765MOL0     H 3244   4.426   1.500   6.080 -0.6597 -0.6033 -0.7422
  765MOL0     H 3245   4.566   1.287   6.242  2.2952 -0.2885 -1.8421
  765MOL0     H 3246   4.552   1.313   6.072 -0.4154 -0.6503 -0.7058
  765MOL0     H 3247   4.321   1.222   6.253 -2.0281  0.9187 -2.2231
  765MOL0     H 3248   4.292   1.264   6.088 -0.4102  2.6800 -0.4481
  765MOL0     H 3249   4.499   1.047   6.165 -0.2210  0.2275 -0.7212
  765MOL0     H 3250   4.461   1.111   6.006  0.1338 -0.4725  0.1979
  765MOL0     H 3251   4.262   0.994   6.207 -1.0898  0.4844 -1.0253
  765MOL0     H 3252   4.238   0.998   6.023 -3.6053 -0.3469  2.7214
  765MOL0     H 3253   4.440   0.856   6.008 -0.4963  3.1446 -0.2866
  765MOL0     H 3254   4.275   0.786   6.051 -0.4516  0.1718  0.9532
  765MOL0     H 3255   4.505   0.814   6.235  0.2700 -1.3587  0.8691
  765MOL0     H 3256   4.425   0.665   6.178 -1.6347 -0.5114 -0.7177
  765MOL0     H 3257   4.573   1.867   6.119 -0.5245 -0.9163 -0.5237
  765MOL0     H 3258   4.792   1.985   6.185  0.0773 -1.3743 -1.9673
  765MOL0     H 3259   4.985   2.174   6.552  1.2581 -2.3156  1.5032
  765MOL0     H 3260   5.116   2.354   6.622  0.2792 -2.2122  0.9010
  765MOL0     H 3261   5.747   3.958   6.026 -0.5381 -0.2726  0.0475
  765MOL0     H 3262   5.616   4.025   5.818  1.1123  3.0452  0.8361
  765MOL0     H 3263   5.324   4.227   5.576  0.0032 -1.5096  3.5696
  765MOL0     H 3264   5.211   4.274   5.372 -2.6707  0.7768  1.9575
  765MOL0     H 3265   5.066   4.274   5.226  1.9181 -2.3219  1.0922
  765MOL0     H 3266   5.175   4.220   5.088  1.9889 -3.1273  1.6544
  765MOL0     H 3267   4.875   4.160   5.107  0.7390 -1.5241 -0.0074
  765MOL0     H 3268   4.971   4.090   4.986  2.3295  0.1547  1.4623
  765MOL0     H 3269   4.828   4.281   4.904 -0.2141  1.8009 -0.9641
  765MOL0     H 3270   4.990   4.339   4.885  0.5322 -2.9936 -0.5252
  765MOL0     H 3271   4.959   4.473   5.099 -0.3716  3.1521 -1.2570
  765MOL0     H 3272   4.798   4.401   5.125  2.9586  1.4686  2.5233
  765MOL0     H 3273   4.696   4.635   4.807 -0.4942 -2.2444 -0.4309
  765MOL0     H 3274   5.134   3.837   5.340  1.6914 -2.1266  2.0519
  765MOL0     H 3275   5.241   3.804   5.535 -2.9734  0.0941  0.6620
  766MOL0     O 3276   6.286   4.693   9.259 -0.0702 -0.7348  0.3660
  766MOL0     C 3277   6.284   4.667   9.134 -0.4465 -0.1552  1.3666
  766MOL0     O 3278   6.386   4.682   9.035 -0.2833 -0.1135 -1.5043
  766MOL0     C 3279   6.503   4.706   9.103 -0.1323 -0.1679 -0.3153
  766MOL0     C 3280   6.599   4.607   9.096  0.9602  0.1282 -1.0827
  766MOL0     C 3281   6.727   4.630   9.147 -0.1917 -0.0160 -0.1279
  766MOL0     C 3282   6.772   4.762   9.188 -0.6735 -0.5389  0.0208
  766MOL0     O 3283   6.899   4.809   9.231  0.4227  0.1357 -0.8016
  766MOL0     C 3284   6.977   4.724   9.315 -1.2760 -0.2189  0.6830
  766MOL0     C 3285   7.114   4.794   9.355  0.7012  0.0285  0.6603
  766MOL0     C 3286   7.208   4.688   9.411  0.5935 -0.6324  0.2991
  766MOL0     C 3287   7.338   4.757   9.458 -0.0409  0.2330 -0.2429
  766MOL0     C 3288   7.430   4.650   9.519  1.7238  0.8274  0.3502
  766MOL0     C 3289   7.533   4.723   9.611  0.3231  1.0306  0.8238
  766MOL0     C 3290   7.626   4.625   9.671 -0.4521 -0.3424 -0.3922
  766MOL0     C 3291   7.744   4.708   9.730 -1.1733  0.1532  0.7334
  766MOL0     N 3292   7.851   4.618   9.775 -0.4758 -0.4721 -1.1307
  766MOL0     C 3293   7.835   4.505   9.856  0.1078 -0.2261 -0.2853
  766MOL0     C 3294   7.960   4.478   9.893  0.0107  0.0324  0.6034
  766MOL0     C 3295   8.000   4.378   9.999 -0.2339  0.6067  0.1412
  766MOL0     C 3296   8.010   4.239   9.935 -0.4863 -0.2870  0.4541
  766MOL0     C 3297   8.044   4.138  10.048  0.0616  0.2477  0.3319
  766MOL0     C 3298   7.939   4.122  10.156  0.0536  0.1036 -0.2309
  766MOL0     O 3299   7.981   4.015  10.244 -0.5865  0.0792 -0.0286
  766MOL0     C 3300   7.889   3.971  10.337  0.0606 -0.6549  0.2582
  766MOL0     C 3301   7.770   4.038  10.382  0.0556  0.4834  0.0961
  766MOL0     C 3302   7.684   3.988  10.477 -0.0026 -0.7915  0.4538
  766MOL0     C 3303   7.567   4.084  10.517 -1.1226  1.0228 -0.1201
  766MOL0     C 3304   7.708   3.862  10.533  0.0471  0.8144  0.3811
  766MOL0     C 3305   7.641   3.805  10.645  0.2770  0.2227 -0.2661
  766MOL0     O 3306   7.660   3.673  10.669 -0.3441  0.2757 -1.5343
  766MOL0     C 3307   7.589   3.611  10.769 -1.0997 -0.6877  0.9475
  766MOL0     C 3308   7.469   3.553  10.726  0.7677  0.7340 -0.2974
  766MOL0     C 3309   7.387   3.496  10.830  0.2316  0.1578  0.2723
  766MOL0     C 3310   7.424   3.504  10.965  0.1254  0.6852  0.1787
  766MOL0     O 3311   7.351   3.454  11.069 -0.1793  0.4544  0.1375
  766MOL0     C 3312   7.241   3.366  11.038 -1.0023 -1.1016  0.3652
  766MOL0     C 3313   7.172   3.311  11.168  0.2312 -0.1017  0.5883
  766MOL0     C 3314   7.134   3.420  11.272  0.0946  0.6974 -0.1616
  766MOL0     C 3315   7.063   3.350  11.394  0.1950  0.6384 -0.4941
  766MOL0     C 3316   7.034   3.456  11.495 -1.0053  0.5013  0.4047
  766MOL0     C 3317   6.930   3.421  11.609 -0.6922  0.2493  1.1254
  766MOL0     C 3318   6.979   3.320  11.716  0.8788 -0.2361 -0.3240
  766MOL0     C 3319   6.856   3.233  11.758  0.1704 -0.0661 -0.5356
  766MOL0    Cl 3320   6.722   3.339  11.831  0.0674  0.1213  0.0449
  766MOL0     C 3321   7.548   3.551  11.000 -1.2561  0.5567  0.5065
  766MOL0     C 3322   7.630   3.616  10.901 -0.7912 -0.4523 -0.0363
  766MOL0     O 3323   7.558   3.883  10.707 -1.0421 -0.0009  0.2113
  766MOL0     C 3324   7.826   3.794  10.486 -0.0653  0.7768  0.7265
  766MOL0     C 3325   7.912   3.841  10.385  0.3813 -0.2520 -0.8323
  766MOL0     N 3326   8.055   4.554   9.825  0.1559  0.2364 -0.3948
  766MOL0     N 3327   7.984   4.631   9.743  0.3494 -0.2425  1.2517
  766MOL0     C 3328   6.670   4.856   9.190  0.5195 -0.1277 -1.0067
  766MOL0     C 3329   6.538   4.833   9.141 -0.9339 -0.4458 -0.8354
  766MOL0     C 3330   6.159   4.640   9.061  0.4055  0.6986 -0.2768
  766MOL0     C 3331   6.156   4.660   8.921  0.8404 -0.4171  0.5913
  766MOL0     C 3332   6.033   4.668   8.857 -0.1128  0.7515  0.5340
  766MOL0     C 3333   5.912   4.637   8.930 -0.4951 -0.4607 -0.4876
  766MOL0     O 3334   5.786   4.628   8.871 -0.1191  0.1853 -0.2954
  766MOL0     C 3335   5.779   4.643   8.728  0.5381 -0.1582 -1.0940
  766MOL0     C 3336   5.632   4.618   8.684  0.2008 -0.7865 -0.0592
  766MOL0     C 3337   5.589   4.471   8.693 -0.1033 -0.2524  0.0716
  766MOL0     C 3338   5.696   4.378   8.627 -0.0806  0.1680  0.2257
  766MOL0     C 3339   5.629   4.251   8.604  0.6843  0.4463  1.0356
  766MOL0     C 3340   5.564   4.157   8.579  0.9978 -0.4229 -0.4506
  766MOL0     C 3341   5.920   4.619   9.068  0.0892 -0.5353 -0.8378
  766MOL0     C 3342   6.044   4.609   9.130 -0.5280 -0.4776  0.2723
  766MOL0     H 3343   6.585   4.505   9.063  2.9399 -0.3227 -0.6740
  766MOL0     H 3344   6.794   4.544   9.151 -2.8736 -2.2093  0.2200
  766MOL0     H 3345   6.923   4.710   9.409 -2.0244  2.8512  0.8076
  766MOL0     H 3346   6.970   4.625   9.268 -1.4309  0.6878 -1.3281
  766MOL0     H 3347   7.158   4.848   9.270 -1.0534  0.8313  0.2102
  766MOL0     H 3348   7.086   4.872   9.426 -3.0114  2.3114 -2.8767
  766MOL0     H 3349   7.174   4.626   9.493  2.2431  0.9586  2.2979
  766MOL0     H 3350   7.231   4.625   9.325 -0.8340 -0.4800 -0.2222
  766MOL0     H 3351   7.385   4.818   9.380  0.4251  2.7481  1.8691
  766MOL0     H 3352   7.329   4.835   9.534  0.0189  0.1387 -0.1385
  766MOL0     H 3353   7.372   4.592   9.592  1.9513  1.0310  0.6913
  766MOL0     H 3354   7.474   4.573   9.454  1.8077  0.2636  1.0699
  766MOL0     H 3355   7.589   4.798   9.554 -2.7747  3.0089  0.1469
  766MOL0     H 3356   7.477   4.762   9.696 -5.2640 -0.4660 -1.7037
  766MOL0     H 3357   7.572   4.572   9.750  0.8232 -1.9339 -0.5412
  766MOL0     H 3358   7.660   4.557   9.592  0.7730  0.9767 -1.0530
  766MOL0     H 3359   7.709   4.770   9.813  1.4157  0.1910  1.8805
  766MOL0     H 3360   7.798   4.776   9.662  2.3144 -0.8922  2.2346
  766MOL0     H 3361   7.744   4.469   9.902  2.4276 -1.1489  4.1147
  766MOL0     H 3362   8.101   4.396  10.035 -0.0938 -3.2100  2.1162
  766MOL0     H 3363   7.932   4.404  10.081  1.4953  0.1034  1.8031
  766MOL0     H 3364   8.087   4.241   9.858 -0.9201  0.1247  0.0250
  766MOL0     H 3365   7.917   4.205   9.890 -0.2763  0.4796 -0.5949
  766MOL0     H 3366   8.145   4.131  10.092  0.8596 -0.7204 -1.5331
  766MOL0     H 3367   8.041   4.041   9.997 -0.7399  0.6718 -0.4416
  766MOL0     H 3368   7.844   4.107  10.103  2.2221 -2.2872 -3.8632
  766MOL0     H 3369   7.934   4.213  10.217  0.8704  0.1602 -0.2352
  766MOL0     H 3370   7.751   4.131  10.329 -1.0690 -1.0341 -2.3648
  766MOL0     H 3371   7.473   4.030  10.510 -0.6637  0.3859 -1.5930
  766MOL0     H 3372   7.583   4.129  10.616  1.5689 -0.0905  0.0337
  766MOL0     H 3373   7.561   4.161  10.440  1.6856 -1.2816 -2.9069
  766MOL0     H 3374   7.448   3.548  10.620  0.6228 -0.7834 -0.2198
  766MOL0     H 3375   7.290   3.450  10.812 -0.9866  1.8127  2.2599
  766MOL0     H 3376   7.165   3.425  10.985 -0.8402 -1.8193 -0.6987
  766MOL0     H 3377   7.274   3.293  10.963 -1.2925  0.5812 -1.4888
  766MOL0     H 3378   7.081   3.268  11.125  0.0162  0.2764  0.6581
  766MOL0     H 3379   7.244   3.240  11.208  1.9569  1.0803 -0.2791
  766MOL0     H 3380   7.085   3.505  11.225 -1.3854 -0.7102 -1.2580
  766MOL0     H 3381   7.234   3.453  11.304  1.3990 -4.1969  1.7435
  766MOL0     H 3382   6.968   3.306  11.360  1.2582 -3.1494  0.9373
  766MOL0     H 3383   7.133   3.281  11.443  0.5326  3.0586  2.7982
  766MOL0     H 3384   7.005   3.543  11.436  0.4730 -1.5040 -3.6682
  766MOL0     H 3385   7.131   3.479  11.541  0.8924  1.0194 -3.4551
  766MOL0     H 3386   6.899   3.518  11.649  0.8484  0.4292  1.9531
  766MOL0     H 3387   6.842   3.373  11.566 -0.6423 -0.3268  1.6424
  766MOL0     H 3388   7.017   3.381  11.799 -0.5678 -0.1458  0.2933
  766MOL0     H 3389   7.054   3.252  11.673 -0.4327 -0.5691 -2.2054
  766MOL0     H 3390   6.883   3.159  11.833 -0.5609  1.6470  1.5166
  766MOL0     H 3391   6.797   3.184  11.679 -2.7701  2.8436 -0.3878
  766MOL0     H 3392   7.579   3.537  11.103  0.4783  0.4426  0.0028
  766MOL0     H 3393   7.728   3.660  10.916 -0.3533 -0.8366 -1.5928
  766MOL0     H 3394   7.857   3.700  10.528 -3.5739 -1.6861 -1.6451
  766MOL0     H 3395   8.005   3.793  10.356  2.4386  0.5592  3.6550
  766MOL0     H 3396   6.692   4.950   9.239  0.7923 -1.6536  2.0598
  766MOL0     H 3397   6.469   4.917   9.133 -0.1663  0.1176 -1.8275
  766MOL0     H 3398   6.238   4.677   8.852 -0.8979  1.9206 -1.0580
  766MOL0     H 3399   6.038   4.691   8.751 -1.0406 -1.2957 -0.0054
  766MOL0     H 3400   5.806   4.742   8.689 -1.1829 -0.1860 -2.5095
  766MOL0     H 3401   5.838   4.565   8.680  0.0675 -1.8456  0.9384
  766MOL0     H 3402   5.622   4.651   8.580 -1.7858 -1.3028 -0.0656
  766MOL0     H 3403   5.571   4.676   8.754  0.0615 -0.0121 -0.8020
  766MOL0     H 3404   5.483   4.455   8.672 -0.3847  1.0994  0.3962
  766MOL0     H 3405   5.587   4.452   8.801 -1.8557 -4.2346 -0.4769
  766MOL0     H 3406   5.780   4.366   8.697 -0.2310  1.5901  0.6774
  766MOL0     H 3407   5.729   4.415   8.530 -1.3973 -1.1094 -0.7497
  766MOL0     H 3408   5.486   4.084   8.567 -0.6108  1.3067 -1.0831
  766MOL0     H 3409   5.833   4.600   9.130  0.6717 -1.0531 -0.1487
  766MOL0     H 3410   6.047   4.611   9.239 -0.4032  0.2927  0.2555
  767MOL0     O 3411   7.855   4.337   1.141 -0.0960  0.8626  0.4772
  767MOL0     C 3412   7.973   4.306   1.122 -0.1457 -0.2595 -0.2907
  767MOL0     O 3413   8.077   4.343   1.204 -0.6546 -0.7032 -0.1082
  767MOL0     C 3414   8.049   4.394   1.329 -0.4673 -0.2579  1.0600
  767MOL0     C 3415   7.992   4.316   1.429  0.1979 -0.6175 -0.0902
  767MOL0     C 3416   7.965   4.367   1.557  1.0098 -0.6647  1.0288
  767MOL0     C 3417   7.981   4.500   1.585 -0.3093  0.3099 -0.5133
  767MOL0     O 3418   7.937   4.563   1.697  1.5047  0.7118 -0.0274
  767MOL0     C 3419   7.955   4.485   1.824  0.1714 -0.7712 -0.5448
  767MOL0     C 3420   7.875   4.563   1.927  0.8117 -0.1614 -0.1309
  767MOL0     C 3421   7.887   4.720   1.938  0.8946 -0.0495 -0.1394
  767MOL0     C 3422   8.028   4.759   1.977 -0.2077  0.4091  0.1563
  767MOL0     C 3423   8.067   4.730   2.116  0.9353 -0.6057 -1.5384
  767MOL0     C 3424   8.193   4.796   2.171  0.3455 -0.3454  0.1789
  767MOL0     C 3425   8.223   4.769   2.319  0.3553 -0.6552 -0.2213
  767MOL0     C 3426   8.228   4.615   2.350  0.6447 -0.4388 -0.3947
  767MOL0     N 3427   8.358   4.560   2.314  0.3456  0.0326 -0.5839
  767MOL0     C 3428   8.381   4.507   2.192  0.4787 -0.5080  0.2014
  767MOL0     C 3429   8.505   4.453   2.193  0.2868 -0.2328  1.3410
  767MOL0     C 3430   8.584   4.406   2.074  0.5081 -0.1220 -0.4024
  767MOL0     C 3431   8.560   4.256   2.066 -0.1824 -0.3667 -0.0996
  767MOL0     C 3432   8.634   4.197   1.942 -0.2725  0.3051  0.4120
  767MOL0     C 3433   8.600   4.045   1.904  0.2852  0.5667 -0.9054
  767MOL0     O 3434   8.498   3.992   1.999  0.0555  0.6331 -0.1872
  767MOL0     C 3435   8.471   3.857   2.002  0.0806  0.1527 -0.1741
  767MOL0     C 3436   8.573   3.757   1.993 -0.1424 -0.1062 -0.3660
  767MOL0     C 3437   8.543   3.620   1.984  0.3182  0.2944 -0.5732
  767MOL0     C 3438   8.669   3.530   1.979  0.2270  0.2422 -0.1143
  767MOL0     C 3439   8.406   3.582   1.986 -0.0322  0.5195  0.4601
  767MOL0     C 3440   8.354   3.438   1.986  0.3760  0.8354  0.6288
  767MOL0     O 3441   8.224   3.409   1.969 -0.3392  0.3957  0.4598
  767MOL0     C 3442   8.196   3.276   1.954  0.7837 -0.4495  0.4582
  767MOL0     C 3443   8.223   3.183   2.053  0.2149  0.3016 -0.1803
  767MOL0     C 3444   8.180   3.057   2.037  0.0896  0.3274  0.0402
  767MOL0     C 3445   8.105   3.011   1.928  0.5475 -0.3389  0.2859
  767MOL0     O 3446   8.079   2.880   1.889 -0.3888 -0.0657  1.0600
  767MOL0     C 3447   8.191   2.791   1.917 -0.3207  0.5848  0.4940
  767MOL0     C 3448   8.162   2.644   1.888 -0.5711  0.3133 -1.1234
  767MOL0     C 3449   8.090   2.577   2.001 -0.2273  0.4083 -0.7248
  767MOL0     C 3450   7.939   2.571   1.963 -0.4380 -1.0162  0.4492
  767MOL0     C 3451   7.851   2.490   2.064  0.2459  0.0198 -0.4669
  767MOL0     C 3452   7.776   2.578   2.163  0.5189 -0.4437  1.0036
  767MOL0     C 3453   7.859   2.661   2.262  0.6042  0.1054 -1.1612
  767MOL0     C 3454   7.754   2.747   2.349  0.0809  0.0289  0.4712
  767MOL0    Cl 3455   7.844   2.838   2.465  0.1137  0.2036  0.1176
  767MOL0     C 3456   8.065   3.109   1.833 -0.6791 -0.6052 -0.4608
  767MOL0     C 3457   8.110   3.242   1.849 -0.8063  0.0488 -0.6733
  767MOL0     O 3458   8.450   3.352   1.993  0.1659 -0.4129 -0.5584
  767MOL0     C 3459   8.306   3.682   2.008 -0.2796  0.3206 -0.7707
  767MOL0     C 3460   8.339   3.817   2.018  0.3430  0.6747  0.5433
  767MOL0     N 3461   8.549   4.473   2.317  0.2054  0.2574 -0.2772
  767MOL0     N 3462   8.462   4.531   2.389 -0.0423  0.2495 -0.3239
  767MOL0     C 3463   8.047   4.578   1.488 -0.0893 -0.3811 -1.1989
  767MOL0     C 3464   8.083   4.527   1.364  0.3558  0.2253  1.0666
  767MOL0     C 3465   8.006   4.234   0.989 -0.2590  1.2235  0.9285
  767MOL0     C 3466   7.919   4.191   0.887  0.1125  0.8067 -0.4496
  767MOL0     C 3467   7.960   4.134   0.765  0.2690 -0.4868 -0.0150
  767MOL0     C 3468   8.095   4.104   0.752 -0.2993 -0.4300  0.7443
  767MOL0     O 3469   8.144   4.037   0.635 -0.6626  0.7543 -0.1787
  767MOL0     C 3470   8.069   3.941   0.569 -0.6836  0.0335 -0.4038
  767MOL0     C 3471   8.048   3.991   0.433 -1.1655  0.1050 -0.3444
  767MOL0     C 3472   8.186   3.978   0.359  1.0478  0.5929  1.5026
  767MOL0     C 3473   8.177   3.993   0.205 -0.5804  0.9790  0.1805
  767MOL0     C 3474   8.309   4.015   0.136 -0.5741 -0.3656  0.1871
  767MOL0     C 3475   8.412   4.043   0.077 -1.3710  0.2073  0.3671
  767MOL0     C 3476   8.191   4.147   0.841  0.5580 -0.0835 -0.1679
  767MOL0     C 3477   8.145   4.207   0.962  0.0230  0.0252  0.6816
  767MOL0     H 3478   7.972   4.211   1.411 -1.0083 -0.4584  0.2578
  767MOL0     H 3479   7.914   4.291   1.615 -1.7812  0.8875  0.7985
  767MOL0     H 3480   7.904   4.389   1.813 -0.4244 -0.5814  0.4748
  767MOL0     H 3481   8.061   4.472   1.847  0.5813 -5.1493 -3.6743
  767MOL0     H 3482   7.768   4.544   1.914  0.1944  1.1423  2.3808
  767MOL0     H 3483   7.907   4.514   2.020  1.5753 -0.1066 -0.3522
  767MOL0     H 3484   7.864   4.761   1.839 -0.4207  3.5387  1.5016
  767MOL0     H 3485   7.820   4.750   2.019  1.1999 -3.1153  1.4120
  767MOL0     H 3486   8.097   4.721   1.901  2.0405 -2.3499  3.2886
  767MOL0     H 3487   8.033   4.868   1.973  2.0541  0.3730  0.7225
  767MOL0     H 3488   8.000   4.777   2.189  0.2237 -0.5658 -2.2106
  767MOL0     H 3489   8.073   4.625   2.146  2.3523  0.3326  2.0462
  767MOL0     H 3490   8.280   4.767   2.112  1.3832  2.0020  0.4220
  767MOL0     H 3491   8.178   4.905   2.168 -2.6506 -0.7092 -0.4700
  767MOL0     H 3492   8.315   4.826   2.332 -1.6397  2.9323 -0.3883
  767MOL0     H 3493   8.149   4.819   2.383  0.8088 -0.9206  0.5238
  767MOL0     H 3494   8.141   4.555   2.324  0.5543 -0.2062 -0.6211
  767MOL0     H 3495   8.225   4.593   2.457 -0.6967  0.8305 -0.1514
  767MOL0     H 3496   8.312   4.519   2.109 -0.5690 -0.2723  1.1006
  767MOL0     H 3497   8.559   4.479   1.996 -0.2387  2.6647  2.2385
  767MOL0     H 3498   8.691   4.429   2.077  0.3944  0.7421 -1.8192
  767MOL0     H 3499   8.453   4.235   2.062 -0.3005  0.4136 -1.6788
  767MOL0     H 3500   8.612   4.211   2.151  2.7260  2.2222 -0.3486
  767MOL0     H 3501   8.742   4.194   1.959  0.0957 -2.5774 -1.7040
  767MOL0     H 3502   8.604   4.264   1.861 -0.5686  1.0455  1.1128
  767MOL0     H 3503   8.689   3.987   1.881 -0.1545 -1.1289  1.3773
  767MOL0     H 3504   8.537   4.041   1.814 -0.7561  2.3225 -0.3128
  767MOL0     H 3505   8.673   3.797   1.977 -0.6498  1.1408 -0.4723
  767MOL0     H 3506   8.660   3.446   1.908  2.4926  0.1678 -0.3782
  767MOL0     H 3507   8.768   3.575   1.969  0.7092 -1.0053 -1.4257
  767MOL0     H 3508   8.668   3.480   2.076  2.0683 -0.3343 -0.3674
  767MOL0     H 3509   8.278   3.212   2.142 -2.0687  1.5314  0.9379
  767MOL0     H 3510   8.212   2.979   2.106  1.5965  2.0453  1.3762
  767MOL0     H 3511   8.276   2.814   1.851  0.8352  0.1896  1.8016
  767MOL0     H 3512   8.233   2.795   2.018  1.1355 -5.6396  0.5246
  767MOL0     H 3513   8.096   2.651   1.801 -1.0570  0.1420 -0.7682
  767MOL0     H 3514   8.252   2.591   1.853 -0.0881 -0.8682  1.6361
  767MOL0     H 3515   8.108   2.619   2.101 -1.3381  2.3063 -1.2757
  767MOL0     H 3516   8.134   2.477   2.005 -1.1261 -0.0346 -1.4765
  767MOL0     H 3517   7.890   2.669   1.954  0.2091 -0.8062 -1.2136
  767MOL0     H 3518   7.930   2.526   1.864  2.9111 -2.1474  0.5164
  767MOL0     H 3519   7.922   2.422   2.113  0.7121  0.0964 -1.0282
  767MOL0     H 3520   7.776   2.423   2.020 -1.6239  1.2948  0.6528
  767MOL0     H 3521   7.718   2.651   2.106 -0.2582 -0.8043  1.3179
  767MOL0     H 3522   7.714   2.509   2.221 -1.0161  0.1328  0.0913
  767MOL0     H 3523   7.922   2.734   2.210  0.7238  0.1116 -1.0067
  767MOL0     H 3524   7.913   2.588   2.322 -3.5040 -1.2422  1.3195
  767MOL0     H 3525   7.680   2.685   2.402  0.7355  0.6365  2.1573
  767MOL0     H 3526   7.694   2.804   2.278 -1.0537 -2.1232 -0.3830
  767MOL0     H 3527   8.006   3.074   1.749  0.2347 -3.3258 -0.0588
  767MOL0     H 3528   8.070   3.318   1.783  3.0602  2.2661 -0.7787
  767MOL0     H 3529   8.199   3.667   2.014 -0.1061 -0.6411  0.5165
  767MOL0     H 3530   8.266   3.896   2.029 -0.7554 -0.2581  0.0770
  767MOL0     H 3531   8.076   4.682   1.497  1.4259 -0.7380 -1.5197
  767MOL0     H 3532   8.121   4.589   1.284  1.2457  0.9037  1.9768
  767MOL0     H 3533   7.813   4.211   0.901  0.2060  0.4225  0.9265
  767MOL0     H 3534   7.900   4.103   0.680  3.6129  0.5943 -3.0637
  767MOL0     H 3535   8.114   3.841   0.574 -0.0309  0.3645  1.4500
  767MOL0     H 3536   7.967   3.935   0.608 -1.9305  0.4522 -3.3886
  767MOL0     H 3537   7.995   4.086   0.435 -1.6754 -0.1811  0.1201
  767MOL0     H 3538   7.977   3.930   0.376 -0.5395 -1.0145  0.0401
  767MOL0     H 3539   8.239   3.886   0.384  2.1219 -0.6426 -3.9567
  767MOL0     H 3540   8.250   4.062   0.390  0.6206  1.7108 -0.4936
  767MOL0     H 3541   8.099   4.067   0.183 -1.7378 -0.9811 -3.1891
  767MOL0     H 3542   8.124   3.905   0.167  0.3869 -0.9620  3.0085
  767MOL0     H 3543   8.497   4.078   0.021 -1.7874  2.1423  0.8598
  767MOL0     H 3544   8.298   4.137   0.831  0.6510  0.8442 -0.1853
  767MOL0     H 3545   8.221   4.239   1.032  0.4339  0.1410  0.1862
  768MOL0     O 3546   0.426   1.538   5.170 -0.1486 -0.0533  0.3393
  768MOL0     C 3547   0.466   1.440   5.106  0.2925  0.1714  0.8045
  768MOL0     O 3548   0.539   1.448   4.991 -0.1647 -0.5051  0.8812
  768MOL0     C 3549   0.550   1.570   4.921  0.6119 -0.9652  0.2178
  768MOL0     C 3550   0.446   1.660   4.907  0.7446 -0.9526 -0.2668
  768MOL0     C 3551   0.458   1.770   4.822  0.1831 -1.2863 -1.1860
  768MOL0     C 3552   0.573   1.817   4.774 -0.1916  0.0175 -0.0775
  768MOL0     O 3553   0.554   1.935   4.713 -0.0111 -0.3465 -0.4475
  768MOL0     C 3554   0.675   1.979   4.652 -0.9915  0.4985  0.1123
  768MOL0     C 3555   0.659   2.112   4.574 -0.3198 -0.7025  0.2983
  768MOL0     C 3556   0.542   2.118   4.472  0.5724 -0.3407  0.9897
  768MOL0     C 3557   0.585   2.075   4.339 -0.0044 -0.0284  0.0246
  768MOL0     C 3558   0.473   2.069   4.227  0.0147 -0.1524  0.7873
  768MOL0     C 3559   0.344   1.998   4.266  0.1135  0.4762 -0.7948
  768MOL0     C 3560   0.241   2.030   4.162 -0.1996  1.5562  0.2211
  768MOL0     C 3561   0.109   1.978   4.217  0.7799 -0.3510 -0.0609
  768MOL0     N 3562  -0.008   1.994   4.117 -0.2192  0.0206 -0.6568
  768MOL0     C 3563  -0.137   2.018   4.153  0.6075  0.1756  0.5927
  768MOL0     C 3564  -0.204   2.033   4.041  0.3432  0.3944  0.7162
  768MOL0     C 3565  -0.356   2.052   4.033 -0.0797  0.6591  0.2849
  768MOL0     C 3566  -0.407   1.951   3.924 -1.0043 -0.2699  0.1489
  768MOL0     C 3567  -0.393   1.798   3.962  0.4176  0.2317 -0.6447
  768MOL0     C 3568  -0.502   1.750   4.056  0.1011  0.0948 -0.1227
  768MOL0     O 3569  -0.520   1.610   4.053 -0.6023 -0.0023 -0.7066
  768MOL0     C 3570  -0.630   1.554   4.111  0.0331 -0.3361  0.6485
  768MOL0     C 3571  -0.655   1.576   4.243 -0.5395 -0.0136 -0.5712
  768MOL0     C 3572  -0.757   1.512   4.319  0.0508 -0.8423  0.1479
  768MOL0     C 3573  -0.759   1.537   4.471 -0.2908  0.7407 -0.1146
  768MOL0     C 3574  -0.848   1.426   4.247  0.2690 -0.0551 -0.0931
  768MOL0     C 3575  -0.950   1.340   4.304  0.5292  0.3978 -0.0716
  768MOL0     O 3576  -1.047   1.303   4.218  0.2152 -0.2691 -0.0849
  768MOL0     C 3577  -1.163   1.231   4.259 -1.0675 -0.0437 -0.3387
  768MOL0     C 3578  -1.223   1.181   4.144 -0.1668  0.7896 -0.1216
  768MOL0     C 3579  -1.344   1.116   4.158  0.5100  0.3516  0.4273
  768MOL0     C 3580  -1.399   1.089   4.277 -0.8867  0.8012 -0.2917
  768MOL0     O 3581  -1.509   1.019   4.281  0.2544 -0.0231 -0.5622
  768MOL0     C 3582  -1.567   0.963   4.404 -0.6182 -0.5502  0.3279
  768MOL0     C 3583  -1.703   0.909   4.381  0.9155 -0.1500  0.0920
  768MOL0     C 3584  -1.753   0.856   4.517  0.7161  0.0598  0.2632
  768MOL0     C 3585  -1.892   0.801   4.499  0.5212  0.6271 -0.9120
  768MOL0     C 3586  -1.943   0.782   4.632  0.3111 -0.7567 -0.3408
  768MOL0     C 3587  -2.074   0.706   4.618 -0.1732  0.8056 -0.1892
  768MOL0     C 3588  -2.130   0.653   4.742  0.3395 -0.7918 -1.1266
  768MOL0     C 3589  -2.271   0.582   4.717  0.0019 -0.4480 -0.2253
  768MOL0    Cl 3590  -2.392   0.690   4.628  0.4783  0.3549 -0.2590
  768MOL0     C 3591  -1.337   1.136   4.388 -0.7830 -0.1727 -0.4868
  768MOL0     C 3592  -1.225   1.217   4.383 -0.7759  0.0376  0.1420
  768MOL0     O 3593  -0.938   1.298   4.418  0.4099 -0.9265 -0.0284
  768MOL0     C 3594  -0.814   1.404   4.108  0.4138  0.8100  0.2193
  768MOL0     C 3595  -0.707   1.455   4.040  0.2440 -0.6189 -0.3512
  768MOL0     N 3596  -0.118   2.016   3.939 -0.4674 -0.9828  0.0600
  768MOL0     N 3597   0.004   2.012   3.984 -0.3501  0.0647 -0.5389
  768MOL0     C 3598   0.687   1.741   4.800  0.1026 -0.0161 -0.3038
  768MOL0     C 3599   0.674   1.621   4.875  0.1318  0.1295 -0.6199
  768MOL0     C 3600   0.458   1.298   5.153  0.4323 -0.1472  0.7685
  768MOL0     C 3601   0.512   1.188   5.085 -0.8278 -0.0081  0.2022
  768MOL0     C 3602   0.499   1.060   5.134 -0.4584 -0.7365 -0.1885
  768MOL0     C 3603   0.443   1.032   5.257 -0.4968  0.0308  0.6309
  768MOL0     O 3604   0.446   0.900   5.296  1.0449  0.2711  0.0209
  768MOL0     C 3605   0.399   0.860   5.419  0.8614  0.6456  0.1676
  768MOL0     C 3606   0.432   0.708   5.438  0.2510 -0.8318 -0.6065
  768MOL0     C 3607   0.388   0.628   5.323  0.3858  0.0927 -0.5486
  768MOL0     C 3608   0.365   0.485   5.379 -0.5436  0.1131 -0.0663
  768MOL0     C 3609   0.479   0.393   5.380 -0.3922 -0.2825  0.0766
  768MOL0     C 3610   0.563   0.312   5.368  0.4162  0.7591 -0.0051
  768MOL0     C 3611   0.394   1.139   5.329  0.0697 -0.1964  0.0962
  768MOL0     C 3612   0.391   1.266   5.278 -0.2734  0.8237 -0.0020
  768MOL0     H 3613   0.346   1.640   4.944  0.2940 -0.0186 -0.9196
  768MOL0     H 3614   0.371   1.831   4.799  1.3629  0.1155 -2.1186
  768MOL0     H 3615   0.751   1.973   4.731 -2.4686 -1.5785  1.4975
  768MOL0     H 3616   0.695   1.912   4.568  0.7736  3.0279 -1.6058
  768MOL0     H 3617   0.619   2.186   4.645  0.1349 -0.6259  0.4718
  768MOL0     H 3618   0.746   2.152   4.522 -2.2457  3.5388 -0.1088
  768MOL0     H 3619   0.460   2.054   4.506  0.7588 -1.3184 -0.3382
  768MOL0     H 3620   0.504   2.220   4.472 -1.5930 -1.0368 -1.4650
  768MOL0     H 3621   0.662   2.145   4.306  1.1848 -1.2873  0.0570
  768MOL0     H 3622   0.625   1.975   4.358 -1.8718 -0.9973 -0.8474
  768MOL0     H 3623   0.455   2.169   4.187  1.5234  0.3319  1.2357
  768MOL0     H 3624   0.521   2.010   4.149 -1.0523 -0.3453  0.2587
  768MOL0     H 3625   0.357   1.891   4.285  1.8455  0.8750  0.5644
  768MOL0     H 3626   0.318   2.052   4.357 -0.7549  1.1832 -1.4508
  768MOL0     H 3627   0.235   2.137   4.142 -2.9420  1.4959  0.3617
  768MOL0     H 3628   0.264   1.976   4.070 -0.1119 -2.0594  2.1507
  768MOL0     H 3629   0.081   2.041   4.302 -2.0087 -0.7355 -0.5724
  768MOL0     H 3630   0.121   1.877   4.256 -0.0600 -0.6619 -0.5849
  768MOL0     H 3631  -0.175   2.033   4.254 -0.1954  0.6030  0.2437
  768MOL0     H 3632  -0.398   2.042   4.134 -0.3382  1.7945  0.3101
  768MOL0     H 3633  -0.384   2.156   4.012 -1.1225  0.2939 -0.1783
  768MOL0     H 3634  -0.354   1.971   3.830 -2.0831 -1.2174 -0.6891
  768MOL0     H 3635  -0.512   1.968   3.901 -0.7363 -1.3532 -2.1346
  768MOL0     H 3636  -0.294   1.777   4.005  0.6939 -0.7321 -1.7103
  768MOL0     H 3637  -0.403   1.740   3.870 -2.9528  1.3000 -1.0575
  768MOL0     H 3638  -0.598   1.793   4.028  0.5266  0.1871 -1.5134
  768MOL0     H 3639  -0.484   1.783   4.159  3.2098  3.8201 -1.5775
  768MOL0     H 3640  -0.589   1.633   4.308 -2.5418 -0.5674  2.1243
  768MOL0     H 3641  -0.657   1.540   4.510 -0.7679  1.3040  1.1627
  768MOL0     H 3642  -0.821   1.626   4.487 -0.5306  0.9586 -2.0261
  768MOL0     H 3643  -0.812   1.462   4.530 -2.0697  2.7010  0.9308
  768MOL0     H 3644  -1.195   1.209   4.042 -3.2131  1.3200 -0.8995
  768MOL0     H 3645  -1.394   1.079   4.069 -0.3028  0.7484  0.7122
  768MOL0     H 3646  -1.511   0.876   4.440  0.2150  0.2691  1.0694
  768MOL0     H 3647  -1.578   1.043   4.478  2.2844  1.9059 -1.6492
  768MOL0     H 3648  -1.766   0.989   4.343 -1.4884 -2.5776 -1.3657
  768MOL0     H 3649  -1.696   0.826   4.310  1.9374  0.6836 -0.8341
  768MOL0     H 3650  -1.751   0.922   4.604 -0.3452 -1.8823  1.8318
  768MOL0     H 3651  -1.679   0.783   4.551  2.7623  1.2203 -1.4818
  768MOL0     H 3652  -1.969   0.860   4.450 -2.7211 -3.0738 -0.7297
  768MOL0     H 3653  -1.882   0.704   4.448  4.0984  1.0508 -1.3342
  768MOL0     H 3654  -1.956   0.871   4.694 -4.1001 -0.7444 -0.9483
  768MOL0     H 3655  -1.870   0.722   4.686  1.1517  1.9396  1.7340
  768MOL0     H 3656  -2.142   0.776   4.569  2.0660  3.1083 -0.1649
  768MOL0     H 3657  -2.074   0.622   4.548 -3.8949  2.9369 -3.1444
  768MOL0     H 3658  -2.144   0.734   4.814  3.8767 -2.4647  1.7700
  768MOL0     H 3659  -2.057   0.588   4.791  0.5029 -0.6026 -1.1143
  768MOL0     H 3660  -2.314   0.537   4.806 -1.6116  0.5239 -0.4722
  768MOL0     H 3661  -2.247   0.497   4.653 -1.1561 -1.0981  0.1793
  768MOL0     H 3662  -1.385   1.133   4.485 -1.3038  0.5772 -0.7128
  768MOL0     H 3663  -1.177   1.250   4.474  0.1537 -0.7766 -0.0432
  768MOL0     H 3664  -0.882   1.339   4.053 -0.7717  2.7619 -0.7291
  768MOL0     H 3665  -0.688   1.436   3.935 -0.3474  2.8815 -1.2391
  768MOL0     H 3666   0.790   1.761   4.774  0.7067 -0.1366  1.7977
  768MOL0     H 3667   0.764   1.562   4.890  1.5093  1.7005 -2.2589
  768MOL0     H 3668   0.561   1.211   4.991  1.6803  2.4184  1.9570
  768MOL0     H 3669   0.522   0.980   5.064 -1.2297  0.3821 -1.7822
  768MOL0     H 3670   0.440   0.932   5.490 -1.9474  2.6277 -0.0554
  768MOL0     H 3671   0.292   0.877   5.431  0.9982  1.3141  0.4530
  768MOL0     H 3672   0.392   0.674   5.534  2.7038 -1.5021  0.2497
  768MOL0     H 3673   0.541   0.700   5.437  0.5287  0.7217  2.8211
  768MOL0     H 3674   0.456   0.641   5.239  0.0509  0.0739 -0.8273
  768MOL0     H 3675   0.289   0.656   5.285  0.1803  0.7642  0.4398
  768MOL0     H 3676   0.297   0.449   5.301  2.1713 -2.0899 -1.5693
  768MOL0     H 3677   0.309   0.487   5.472 -1.1037  0.3483 -0.3993
  768MOL0     H 3678   0.647   0.245   5.356  1.3444  1.8749  0.1044
  768MOL0     H 3679   0.345   1.132   5.426 -0.8644  0.5541 -0.3153
  768MOL0     H 3680   0.349   1.345   5.339 -1.3055 -0.9175  1.6365
  769MOL0     O 3681   3.345   8.213   1.781  0.3811  0.6853  0.3664
  769MOL0     C 3682   3.397   8.302   1.707  0.0019 -0.4235 -0.3536
  769MOL0     O 3683   3.444   8.279   1.585  0.8875  0.1714 -0.4562
  769MOL0     C 3684   3.446   8.146   1.544  0.5587  0.1031 -0.0836
  769MOL0     C 3685   3.572   8.076   1.540 -0.2240  1.4212  0.8946
  769MOL0     C 3686   3.569   7.948   1.485 -1.6706  0.2744 -0.5584
  769MOL0     C 3687   3.457   7.884   1.450  0.6642  0.2118 -0.1528
  769MOL0     O 3688   3.471   7.754   1.409  0.2973  0.6545 -0.5794
  769MOL0     C 3689   3.386   7.661   1.478  0.8329  1.0667  0.6586
  769MOL0     C 3690   3.444   7.523   1.488  0.0729  0.8473  0.1841
  769MOL0     C 3691   3.561   7.521   1.582 -1.1058 -0.2448 -0.3204
  769MOL0     C 3692   3.527   7.490   1.727 -0.3428 -0.6815  0.4956
  769MOL0     C 3693   3.643   7.484   1.821 -0.0345 -0.5950  0.7451
  769MOL0     C 3694   3.762   7.393   1.769 -0.3454 -0.3136  0.3108
  769MOL0     C 3695   3.833   7.313   1.881  0.3484  0.8205  0.2677
  769MOL0     C 3696   3.755   7.198   1.940  0.4332 -0.0930  1.0120
  769MOL0     N 3697   3.696   7.109   1.839  0.0236 -0.7347 -0.0862
  769MOL0     C 3698   3.569   7.102   1.799  0.6598 -0.5994  0.2382
  769MOL0     C 3699   3.578   7.013   1.701  0.3197 -0.1341 -0.0631
  769MOL0     C 3700   3.457   6.973   1.622 -0.3148 -0.8327 -0.1009
  769MOL0     C 3701   3.364   6.860   1.677  0.5895 -0.6323 -0.6559
  769MOL0     C 3702   3.297   6.909   1.805  1.0122 -0.1094 -0.1933
  769MOL0     C 3703   3.187   6.806   1.836 -0.3373  0.7996 -1.3669
  769MOL0     O 3704   3.110   6.865   1.944  0.5614 -0.5188  0.0050
  769MOL0     C 3705   3.003   6.788   1.980 -0.3912  0.2874 -1.0495
  769MOL0     C 3706   2.995   6.647   1.959 -0.0470 -0.3786  0.1098
  769MOL0     C 3707   2.881   6.587   1.994  1.0809  0.7610 -0.0157
  769MOL0     C 3708   2.878   6.448   1.942 -0.0375  0.3325 -0.1673
  769MOL0     C 3709   2.772   6.655   2.060  0.4593 -0.3582 -0.1847
  769MOL0     C 3710   2.630   6.607   2.092 -0.2452 -0.3479 -0.9629
  769MOL0     O 3711   2.526   6.697   2.115 -0.2607 -1.1852  0.4444
  769MOL0     C 3712   2.389   6.671   2.095 -0.2524 -0.7689 -0.7239
  769MOL0     C 3713   2.291   6.729   2.192 -0.1757  0.1835 -0.0021
  769MOL0     C 3714   2.157   6.697   2.168  0.3419 -0.2054  0.9417
  769MOL0     C 3715   2.116   6.610   2.064  0.2280 -0.4442 -0.1786
  769MOL0     O 3716   1.989   6.556   2.045  0.5906 -0.8570  0.7942
  769MOL0     C 3717   1.909   6.545   2.160 -0.2403  0.5446 -0.2013
  769MOL0     C 3718   1.789   6.451   2.155  0.1129 -0.9811  0.6922
  769MOL0     C 3719   1.843   6.309   2.153 -0.4180  0.6603  0.0028
  769MOL0     C 3720   1.731   6.208   2.179 -0.3856 -0.4312 -0.2481
  769MOL0     C 3721   1.767   6.065   2.150 -0.4232  0.2884  0.1259
  769MOL0     C 3722   1.880   6.016   2.242 -0.3883  0.7359  1.0629
  769MOL0     C 3723   1.913   5.864   2.224 -0.3022 -0.4228  0.2104
  769MOL0     C 3724   2.024   5.814   2.315  0.2696  0.6184  1.1649
  769MOL0    Cl 3725   2.103   5.680   2.225 -0.1208  0.1544 -0.3821
  769MOL0     C 3726   2.210   6.566   1.971  0.3971 -1.0360 -0.3848
  769MOL0     C 3727   2.351   6.598   1.989  0.3944  0.9468 -0.0299
  769MOL0     O 3728   2.618   6.491   2.104  0.2182  0.4197  0.2443
  769MOL0     C 3729   2.796   6.787   2.093  0.5091  0.4361 -0.5363
  769MOL0     C 3730   2.907   6.856   2.053  0.5077 -0.7352  0.1685
  769MOL0     N 3731   3.709   6.967   1.693  0.3259  0.6722 -0.0038
  769MOL0     N 3732   3.778   7.026   1.770 -0.0947 -0.5429 -0.2466
  769MOL0     C 3733   3.333   7.955   1.457  0.5545  0.1826  0.3095
  769MOL0     C 3734   3.328   8.085   1.506 -0.7787  0.1449  1.2565
  769MOL0     C 3735   3.396   8.441   1.759 -0.2582 -0.2191  0.0466
  769MOL0     C 3736   3.337   8.475   1.880 -0.0528 -0.0894 -0.3075
  769MOL0     C 3737   3.338   8.599   1.942  1.4571  0.5497  0.0122
  769MOL0     C 3738   3.394   8.699   1.875 -0.7624 -1.0618  1.3025
  769MOL0     O 3739   3.388   8.829   1.925 -0.2684  0.0224 -0.0789
  769MOL0     C 3740   3.332   8.844   2.061 -0.7484  1.0548  0.2276
  769MOL0     C 3741   3.313   8.993   2.085  0.4585 -1.0385 -0.1898
  769MOL0     C 3742   3.246   9.028   2.219 -0.1320  0.8087  0.7064
  769MOL0     C 3743   3.093   9.014   2.215  0.4287 -0.3712 -0.6543
  769MOL0     C 3744   3.033   9.088   2.321 -0.8169  0.1205 -0.1188
  769MOL0     C 3745   2.974   9.134   2.415 -0.4353 -0.6291  0.4102
  769MOL0     C 3746   3.453   8.679   1.750  1.1420 -0.0030 -0.5026
  769MOL0     C 3747   3.452   8.550   1.689 -0.2064 -0.5229  1.2873
  769MOL0     H 3748   3.664   8.120   1.576 -1.3216  2.4150  2.5966
  769MOL0     H 3749   3.658   7.887   1.476 -0.0264  2.7102 -1.8408
  769MOL0     H 3750   3.354   7.706   1.573  2.6463  1.4817  1.1092
  769MOL0     H 3751   3.301   7.641   1.412  1.3151 -3.2985  1.0477
  769MOL0     H 3752   3.373   7.448   1.526  3.4056 -2.4550  0.4894
  769MOL0     H 3753   3.473   7.484   1.390  1.8644 -1.9642  1.6779
  769MOL0     H 3754   3.625   7.446   1.534  1.0818  1.1348  0.3182
  769MOL0     H 3755   3.632   7.604   1.573  0.0809 -1.1070  0.6774
  769MOL0     H 3756   3.451   7.564   1.752  1.0978  0.3707  2.0192
  769MOL0     H 3757   3.491   7.387   1.726  1.4833 -1.4885  3.7387
  769MOL0     H 3758   3.675   7.588   1.832 -3.5945  1.1518 -2.9532
  769MOL0     H 3759   3.600   7.445   1.913 -3.0117  1.8814  0.5644
  769MOL0     H 3760   3.731   7.327   1.687  0.7405 -0.2044 -0.2008
  769MOL0     H 3761   3.822   7.468   1.717 -1.7754  1.1600  0.7026
  769MOL0     H 3762   3.928   7.271   1.848 -0.1928  1.3721 -2.1639
  769MOL0     H 3763   3.855   7.377   1.967 -0.3042  2.5378 -0.7923
  769MOL0     H 3764   3.669   7.240   1.992  0.1201  0.2171  0.2572
  769MOL0     H 3765   3.828   7.149   2.005  0.2125  0.0121  1.3420
  769MOL0     H 3766   3.487   7.169   1.820  2.7388  3.1730 -2.4949
  769MOL0     H 3767   3.391   7.057   1.597  0.1738 -0.5866 -0.5758
  769MOL0     H 3768   3.498   6.947   1.524  2.2697  3.0249 -0.2369
  769MOL0     H 3769   3.404   6.760   1.700  0.7612 -1.1745 -3.0728
  769MOL0     H 3770   3.284   6.859   1.603  0.1022  1.3814 -0.2230
  769MOL0     H 3771   3.266   7.013   1.796  0.1369 -0.5001 -2.1172
  769MOL0     H 3772   3.365   6.916   1.891 -0.5269  0.5612  1.0282
  769MOL0     H 3773   3.231   6.713   1.874 -0.0680  1.5265  0.1457
  769MOL0     H 3774   3.120   6.786   1.752 -3.6479 -0.9004  1.4039
  769MOL0     H 3775   3.070   6.581   1.917 -1.7533 -2.0339 -0.4308
  769MOL0     H 3776   2.775   6.413   1.927  0.0152  0.9406 -2.2820
  769MOL0     H 3777   2.940   6.431   1.854  0.8377  0.3962  0.4204
  769MOL0     H 3778   2.915   6.374   2.014 -1.3023 -1.0876 -0.9103
  769MOL0     H 3779   2.315   6.802   2.268  0.8372 -1.7863  1.6698
  769MOL0     H 3780   2.076   6.735   2.229  1.0036 -2.7077  3.5721
  769MOL0     H 3781   1.965   6.514   2.249 -0.6786  0.5865  0.0888
  769MOL0     H 3782   1.860   6.642   2.171  1.8768  1.3692  3.5415
  769MOL0     H 3783   1.732   6.473   2.245 -2.5851  2.0456 -1.5355
  769MOL0     H 3784   1.722   6.483   2.075  1.4130  1.5819  0.5293
  769MOL0     H 3785   1.913   6.287   2.234  2.3680  2.7360 -1.6605
  769MOL0     H 3786   1.884   6.279   2.056  1.2685  2.0476  0.2415
  769MOL0     H 3787   1.699   6.223   2.282  1.6410  0.5516  0.2932
  769MOL0     H 3788   1.642   6.235   2.122  0.0665  3.5659  0.6475
  769MOL0     H 3789   1.803   6.062   2.046 -0.4051 -2.0198  0.1586
  769MOL0     H 3790   1.679   6.001   2.164 -1.0541  1.0929 -0.0508
  769MOL0     H 3791   1.965   6.076   2.207 -1.5608  1.7999 -0.0729
  769MOL0     H 3792   1.845   6.039   2.343 -0.4986  3.0512  0.5573
  769MOL0     H 3793   1.941   5.858   2.118 -1.5506 -4.2913 -0.0362
  769MOL0     H 3794   1.828   5.798   2.241 -0.2613 -1.1938 -2.1178
  769MOL0     H 3795   1.981   5.783   2.411  0.0672 -1.2765  0.4990
  769MOL0     H 3796   2.101   5.891   2.325  0.9280  0.0518  0.6019
  769MOL0     H 3797   2.184   6.509   1.884  0.4966  0.4126 -1.4076
  769MOL0     H 3798   2.428   6.560   1.922 -0.3870 -2.3178  0.7125
  769MOL0     H 3799   2.713   6.842   2.137  0.0484  0.5685 -1.5555
  769MOL0     H 3800   2.906   6.958   2.089 -2.1614 -0.2868 -0.9249
  769MOL0     H 3801   3.240   7.917   1.418  0.6760  1.2784 -1.1235
  769MOL0     H 3802   3.231   8.134   1.513 -0.3604  1.1235  0.3965
  769MOL0     H 3803   3.282   8.399   1.935 -2.8145  1.4567 -0.7728
  769MOL0     H 3804   3.293   8.606   2.040  0.0054  2.0909 -0.7107
  769MOL0     H 3805   3.242   8.783   2.071 -0.5331  0.8864  1.2309
  769MOL0     H 3806   3.396   8.811   2.144 -0.5889 -1.6858 -0.8733
  769MOL0     H 3807   3.252   9.034   2.005  1.3349  1.9628  0.5361
  769MOL0     H 3808   3.411   9.038   2.071 -0.2968  0.7245 -0.0969
  769MOL0     H 3809   3.283   9.128   2.243  2.4521  0.7323 -2.4022
  769MOL0     H 3810   3.276   8.948   2.287  0.2178 -1.1347 -1.6055
  769MOL0     H 3811   3.069   8.908   2.216 -1.9514  0.0944  0.9423
  769MOL0     H 3812   3.059   9.057   2.119  2.2309 -1.0592 -1.6365
  769MOL0     H 3813   2.935   9.177   2.505  1.4182  2.7131 -0.2274
  769MOL0     H 3814   3.494   8.770   1.709  1.0849  0.7124  0.9561
  769MOL0     H 3815   3.507   8.540   1.596 -0.8095 -1.3639  1.0109
  770MOL0     O 3816   3.493   0.619   6.547  0.0456 -1.1742  0.2555
  770MOL0     C 3817   3.566   0.519   6.541 -0.1927  0.0132 -0.8259
  770MOL0     O 3818   3.570   0.414   6.448 -0.4884  0.0522 -1.0007
  770MOL0     C 3819   3.493   0.430   6.340 -0.8489 -0.3993  0.2282
  770MOL0     C 3820   3.364   0.387   6.344 -0.0311  0.7328  0.2024
  770MOL0     C 3821   3.280   0.407   6.235  0.1977 -0.0706  1.1017
  770MOL0     C 3822   3.322   0.476   6.120  0.2547  0.5578 -0.7320
  770MOL0     O 3823   3.252   0.519   6.015  0.4612  0.4279  0.9053
  770MOL0     C 3824   3.107   0.526   6.024  0.6570 -0.2315 -0.2564
  770MOL0     C 3825   3.078   0.606   5.900 -0.7447  0.7034 -0.6779
  770MOL0     C 3826   3.082   0.517   5.772 -1.2802 -0.6357 -0.0715
  770MOL0     C 3827   2.989   0.393   5.775 -0.8571 -0.7284 -0.9752
  770MOL0     C 3828   2.989   0.336   5.640  0.7687 -0.0732 -0.6419
  770MOL0     C 3829   3.096   0.235   5.613 -1.6218 -0.3502 -0.1926
  770MOL0     C 3830   3.070   0.161   5.487 -1.0665  0.7993 -1.1821
  770MOL0     C 3831   3.050   0.247   5.366 -0.1354 -0.6572  0.0482
  770MOL0     N 3832   3.041   0.158   5.244 -0.9921 -0.1255 -0.6649
  770MOL0     C 3833   2.980   0.201   5.134 -0.1691 -0.6090 -0.3435
  770MOL0     C 3834   2.997   0.100   5.045 -0.2626  0.2797 -0.6385
  770MOL0     C 3835   2.950   0.114   4.905  1.0520 -0.2142  0.3670
  770MOL0     C 3836   3.009   0.003   4.816  0.4095 -0.4815 -0.4901
  770MOL0     C 3837   2.952   0.018   4.672  0.5054 -0.5000 -0.6454
  770MOL0     C 3838   2.805  -0.034   4.650  0.2095  0.7089 -0.8612
  770MOL0     O 3839   2.816  -0.176   4.686 -0.1614 -0.1345 -0.3764
  770MOL0     C 3840   2.714  -0.268   4.651 -0.8811 -0.0447  0.3681
  770MOL0     C 3841   2.628  -0.247   4.534 -0.2713  0.1856  0.5059
  770MOL0     C 3842   2.527  -0.338   4.499  0.4287  0.7111 -0.6146
  770MOL0     C 3843   2.438  -0.303   4.387  1.0032  0.3863 -0.2987
  770MOL0     C 3844   2.524  -0.461   4.577 -0.2156  0.4830  0.2388
  770MOL0     C 3845   2.424  -0.572   4.543 -0.5868 -1.0655 -0.2990
  770MOL0     O 3846   2.470  -0.694   4.572  0.4025 -0.0458 -0.5781
  770MOL0     C 3847   2.414  -0.815   4.565 -0.0786  0.2115  0.4908
  770MOL0     C 3848   2.484  -0.922   4.616  0.4631 -0.6739  0.0196
  770MOL0     C 3849   2.434  -1.051   4.596  0.8660 -0.9428 -0.3089
  770MOL0     C 3850   2.310  -1.067   4.518 -0.9915  0.2039 -0.1378
  770MOL0     O 3851   2.249  -1.191   4.516 -0.3448  0.2890 -0.4338
  770MOL0     C 3852   2.174  -1.214   4.634  0.1369  0.5999 -0.5813
  770MOL0     C 3853   2.105  -1.359   4.617  0.5875  0.2070 -0.2684
  770MOL0     C 3854   2.007  -1.352   4.505  1.1994 -0.3365 -0.4272
  770MOL0     C 3855   1.875  -1.273   4.548 -0.2150 -0.9067 -0.0945
  770MOL0     C 3856   1.799  -1.202   4.429  0.8912 -0.5323 -0.2710
  770MOL0     C 3857   1.682  -1.109   4.479 -1.3410  0.2713  0.9640
  770MOL0     C 3858   1.571  -1.181   4.562  0.4560  0.2155 -0.7029
  770MOL0     C 3859   1.454  -1.090   4.585  0.1592 -0.0870 -0.1720
  770MOL0    Cl 3860   1.367  -1.043   4.431  0.4948  0.4976  0.1767
  770MOL0     C 3861   2.254  -0.955   4.457  0.9585  0.1562  0.2242
  770MOL0     C 3862   2.306  -0.833   4.477  0.0029 -0.2561  0.1379
  770MOL0     O 3863   2.317  -0.541   4.492  0.4809 -0.4679  0.3889
  770MOL0     C 3864   2.621  -0.486   4.672 -0.7506  0.3915 -0.2008
  770MOL0     C 3865   2.719  -0.393   4.708 -0.1251 -0.6483 -0.3319
  770MOL0     N 3866   3.082   0.008   5.106  1.4090 -0.3939 -0.4813
  770MOL0     N 3867   3.096   0.039   5.230  0.5052  0.5510 -0.0077
  770MOL0     C 3868   3.462   0.507   6.119 -0.1964  0.5533  0.2424
  770MOL0     C 3869   3.554   0.483   6.219 -0.6253 -0.1268 -0.0235
  770MOL0     C 3870   3.675   0.505   6.646 -0.9462 -0.7286 -0.0729
  770MOL0     C 3871   3.696   0.603   6.741  0.1372  0.1402 -1.0566
  770MOL0     C 3872   3.781   0.586   6.852  0.7403  0.0971 -0.2259
  770MOL0     C 3873   3.881   0.488   6.847  1.1895  0.4912  0.2899
  770MOL0     O 3874   3.968   0.487   6.955 -0.4698  0.3308  0.1875
  770MOL0     C 3875   4.049   0.368   6.980  0.1246 -0.4399  0.7252
  770MOL0     C 3876   4.196   0.396   6.934  0.4967 -1.2904  0.2905
  770MOL0     C 3877   4.289   0.283   6.959  0.3177  0.1131 -0.0806
  770MOL0     C 3878   4.429   0.318   6.931  0.9915  0.2190 -0.2604
  770MOL0     C 3879   4.520   0.202   6.922 -0.2237  0.2525  0.0508
  770MOL0     C 3880   4.592   0.100   6.929 -0.2293 -0.4322 -0.2764
  770MOL0     C 3881   3.875   0.398   6.738 -0.0459 -0.0983 -0.5284
  770MOL0     C 3882   3.774   0.411   6.638  0.4119  0.0263  0.3969
  770MOL0     H 3883   3.328   0.345   6.437 -1.5699  1.1542 -0.1733
  770MOL0     H 3884   3.181   0.366   6.254  0.7313 -1.2770  1.4263
  770MOL0     H 3885   3.050   0.432   6.024 -2.6582  1.4586 -4.4042
  770MOL0     H 3886   3.064   0.567   6.115  0.2081 -3.9939  1.4321
  770MOL0     H 3887   2.976   0.639   5.921 -1.6204 -2.3235  0.3523
  770MOL0     H 3888   3.139   0.696   5.890  2.4253 -0.8310  2.6647
  770MOL0     H 3889   3.078   0.583   5.685  5.6360  0.8038  0.1788
  770MOL0     H 3890   3.181   0.471   5.766 -1.7058 -1.6797  0.5556
  770MOL0     H 3891   3.008   0.322   5.856 -5.4339 -1.7005 -0.4405
  770MOL0     H 3892   2.885   0.421   5.795  0.4369  3.8440  0.4665
  770MOL0     H 3893   2.898   0.276   5.642 -0.0061  1.0765 -0.8384
  770MOL0     H 3894   2.971   0.416   5.569 -0.7453  1.2246  1.1166
  770MOL0     H 3895   3.188   0.288   5.584  1.0585 -1.7991  4.6462
  770MOL0     H 3896   3.116   0.175   5.702  0.3925  2.2227  1.2366
  770MOL0     H 3897   3.158   0.100   5.465 -0.6597  1.1441 -0.5023
  770MOL0     H 3898   2.981   0.099   5.504 -0.8715  0.9981  0.7431
  770MOL0     H 3899   3.136   0.310   5.343  1.5798 -2.9818 -0.2648
  770MOL0     H 3900   2.960   0.309   5.363  0.8651  0.8384 -2.6508
  770MOL0     H 3901   2.930   0.293   5.105  0.4621 -1.3316 -4.3989
  770MOL0     H 3902   2.842   0.135   4.909  1.1366  0.0887  1.5893
  770MOL0     H 3903   2.999   0.206   4.871  1.8674 -1.6766 -2.7083
  770MOL0     H 3904   2.996  -0.095   4.862 -3.2401 -0.6888 -1.6390
  770MOL0     H 3905   3.115   0.031   4.810  0.2704 -0.1571 -2.2723
  770MOL0     H 3906   3.022  -0.042   4.614  0.5759 -0.4914 -0.5683
  770MOL0     H 3907   2.955   0.121   4.634 -0.2271 -1.1185 -2.4698
  770MOL0     H 3908   2.784  -0.021   4.543  0.2018  0.4360 -0.8934
  770MOL0     H 3909   2.723   0.017   4.701 -1.6040 -0.4757 -2.4455
  770MOL0     H 3910   2.632  -0.148   4.488  0.2965  1.2190  2.6776
  770MOL0     H 3911   2.340  -0.296   4.436 -1.4158 -4.1475 -3.7249
  770MOL0     H 3912   2.469  -0.206   4.347 -0.6426  2.0449  2.1229
  770MOL0     H 3913   2.432  -0.362   4.295  0.7151  2.0735 -1.3993
  770MOL0     H 3914   2.572  -0.911   4.679 -0.2913 -2.0717  1.3610
  770MOL0     H 3915   2.478  -1.141   4.639  3.5541 -0.9231 -2.7953
  770MOL0     H 3916   2.229  -1.205   4.728  0.6891  1.8745 -1.0045
  770MOL0     H 3917   2.093  -1.141   4.646  1.4953  2.1961 -0.9171
  770MOL0     H 3918   2.184  -1.433   4.601  0.3221 -0.0173 -0.5561
  770MOL0     H 3919   2.043  -1.382   4.705  0.1943 -0.9479 -0.8284
  770MOL0     H 3920   1.983  -1.450   4.464  4.0154 -0.7802 -1.2778
  770MOL0     H 3921   2.041  -1.295   4.418  2.8082 -0.0934  0.3096
  770MOL0     H 3922   1.812  -1.335   4.612 -1.1491  0.9920  0.9332
  770MOL0     H 3923   1.907  -1.193   4.615 -2.8235  1.1068 -1.0432
  770MOL0     H 3924   1.762  -1.283   4.365 -0.7929 -1.1340  1.3925
  770MOL0     H 3925   1.873  -1.147   4.369  1.1335  1.8060  1.9853
  770MOL0     H 3926   1.737  -1.036   4.538  2.3447  0.1448 -1.9202
  770MOL0     H 3927   1.643  -1.050   4.395  1.4712  0.3726 -0.3998
  770MOL0     H 3928   1.611  -1.205   4.661  2.4861  1.8443 -1.0355
  770MOL0     H 3929   1.540  -1.273   4.513 -0.4377 -0.0787  0.3735
  770MOL0     H 3930   1.475  -1.005   4.651 -2.3452 -1.1052  2.1325
  770MOL0     H 3931   1.387  -1.149   4.647  1.2665  0.2684  1.4047
  770MOL0     H 3932   2.163  -0.979   4.403  0.1691  1.4576  0.9365
  770MOL0     H 3933   2.255  -0.754   4.423 -2.0952  0.3179  2.7442
  770MOL0     H 3934   2.628  -0.581   4.724  0.2225  0.0688 -0.8936
  770MOL0     H 3935   2.781  -0.413   4.794  2.5150  1.3509 -1.6413
  770MOL0     H 3936   3.499   0.544   6.024  1.5864 -1.6349  0.0134
  770MOL0     H 3937   3.660   0.505   6.211 -1.0594  3.3653  1.9419
  770MOL0     H 3938   3.626   0.685   6.732  0.9256  0.7043 -2.4285
  770MOL0     H 3939   3.784   0.656   6.935  6.1163 -0.4346  0.3787
  770MOL0     H 3940   4.043   0.356   7.088  2.1106 -0.2385  0.8842
  770MOL0     H 3941   4.017   0.276   6.929  2.8116 -0.3417 -1.3420
  770MOL0     H 3942   4.226   0.478   7.000 -0.7476  1.4516 -2.3241
  770MOL0     H 3943   4.207   0.427   6.830  1.3209  1.4640  1.1026
  770MOL0     H 3944   4.255   0.190   6.913  1.3691 -0.5578  0.4454
  770MOL0     H 3945   4.279   0.255   7.064  2.1396 -0.0881  0.0836
  770MOL0     H 3946   4.454   0.394   7.005  0.7111  1.8244 -1.7621
  770MOL0     H 3947   4.439   0.370   6.836 -0.0861  0.8880 -0.0253
  770MOL0     H 3948   4.644   0.007   6.919  1.6740  0.5976 -0.4327
  770MOL0     H 3949   3.954   0.325   6.722 -1.0310 -1.4633  0.6128
  770MOL0     H 3950   3.781   0.358   6.543  0.2668  2.0781 -0.8088
  771MOL0     O 3951   3.485   4.292  11.324 -0.0739 -0.3068  0.1098
  771MOL0     C 3952   3.411   4.207  11.374 -0.1192  0.6257 -0.2618
  771MOL0     O 3953   3.298   4.165  11.309 -0.3483 -0.6953 -0.1642
  771MOL0     C 3954   3.274   4.192  11.176 -0.4766 -0.1256 -0.7124
  771MOL0     C 3955   3.362   4.150  11.073  0.2865 -0.0640  0.1039
  771MOL0     C 3956   3.341   4.177  10.939  0.3653 -0.1187  0.5816
  771MOL0     C 3957   3.232   4.247  10.901 -0.1555  0.6023  1.0345
  771MOL0     O 3958   3.206   4.246  10.768 -0.0787  0.6401 -0.3549
  771MOL0     C 3959   3.165   4.369  10.709 -0.3166  0.9406 -0.2754
  771MOL0     C 3960   3.070   4.344  10.598  0.8199 -0.0957 -0.1825
  771MOL0     C 3961   3.007   4.483  10.558 -0.2361 -0.3065  1.0171
  771MOL0     C 3962   2.951   4.484  10.414 -0.5332  0.0090  0.2568
  771MOL0     C 3963   2.871   4.607  10.366  0.1845  0.5519 -0.0141
  771MOL0     C 3964   2.938   4.745  10.379 -0.9195 -0.7553  0.2378
  771MOL0     C 3965   2.867   4.856  10.309 -0.1765  0.0596 -0.0189
  771MOL0     C 3966   2.717   4.869  10.334  0.1669  0.4487 -0.1494
  771MOL0     N 3967   2.657   4.974  10.257 -0.4208 -0.0981  0.6142
  771MOL0     C 3968   2.677   5.108  10.271 -0.4595 -0.4334  0.1967
  771MOL0     C 3969   2.596   5.174  10.182 -0.1079  0.0192 -0.6431
  771MOL0     C 3970   2.587   5.325  10.162  0.3706  0.6675  0.1173
  771MOL0     C 3971   2.686   5.370  10.060  0.3238  0.2358 -0.5981
  771MOL0     C 3972   2.830   5.353  10.100 -0.7786 -0.2403 -0.2647
  771MOL0     C 3973   2.933   5.428  10.015 -0.0081  0.1717  0.7411
  771MOL0     O 3974   2.907   5.563  10.022  0.2135  0.3769 -0.1172
  771MOL0     C 3975   2.959   5.643  10.125 -0.1864  0.2755  0.4407
  771MOL0     C 3976   2.877   5.719  10.208 -0.4311  0.9209 -0.8843
  771MOL0     C 3977   2.929   5.798  10.307  0.6523 -1.1250 -0.3559
  771MOL0     C 3978   2.833   5.845  10.412 -0.1898 -1.1163 -0.3324
  771MOL0     C 3979   3.070   5.806  10.331  0.3780  0.1227 -0.4510
  771MOL0     C 3980   3.130   5.895  10.430  0.3001 -0.7384 -0.6179
  771MOL0     O 3981   3.062   5.997  10.483 -0.2428 -0.3074  0.1312
  771MOL0     C 3982   3.119   6.090  10.566 -0.3111  0.2058 -0.0079
  771MOL0     C 3983   3.066   6.104  10.692  0.3504 -0.1753 -0.3789
  771MOL0     C 3984   3.096   6.212  10.783  0.3053  0.4062 -0.4068
  771MOL0     C 3985   3.186   6.308  10.741 -0.6406 -0.2627  0.3946
  771MOL0     O 3986   3.218   6.419  10.816  0.4036  0.4234 -0.5913
  771MOL0     C 3987   3.188   6.418  10.964  0.0277  0.2660  1.4371
  771MOL0     C 3988   3.291   6.492  11.042  0.8418  0.0878  0.2895
  771MOL0     C 3989   3.293   6.648  11.021 -0.0640 -0.5623 -1.2508
  771MOL0     C 3990   3.412   6.715  11.091  0.3693  0.4955  0.3648
  771MOL0     C 3991   3.406   6.705  11.245 -0.1550 -0.3842  0.4083
  771MOL0     C 3992   3.538   6.752  11.303 -0.2496 -0.0571 -0.9974
  771MOL0     C 3993   3.522   6.780  11.446  0.3205 -0.8980  1.1547
  771MOL0     C 3994   3.661   6.854  11.501  1.0470  0.2198 -0.7533
  771MOL0    Cl 3995   3.620   6.931  11.658 -0.0876 -0.1791 -0.3846
  771MOL0     C 3996   3.239   6.291  10.609 -1.0064 -0.3709  0.0293
  771MOL0     C 3997   3.205   6.185  10.524 -0.1847 -0.3623  0.1782
  771MOL0     O 3998   3.242   5.862  10.463 -0.2088 -0.0625  0.2823
  771MOL0     C 3999   3.155   5.739  10.242  0.4671  0.7776 -0.3926
  771MOL0     C 4000   3.096   5.648  10.152 -0.1602 -0.4471  0.5370
  771MOL0     N 4001   2.526   5.081  10.118 -1.0398  0.9184  0.5615
  771MOL0     N 4002   2.558   4.960  10.168  0.7249 -0.3886 -0.3936
  771MOL0     C 4003   3.146   4.303  11.001 -0.0260  0.6862 -0.0654
  771MOL0     C 4004   3.177   4.282  11.137  0.7899  0.3766  0.1726
  771MOL0     C 4005   3.452   4.135  11.497 -0.3319 -0.1502 -0.6362
  771MOL0     C 4006   3.580   4.147  11.556  1.6036  0.8813  0.0229
  771MOL0     C 4007   3.618   4.098  11.680  1.6982 -0.1372  0.1747
  771MOL0     C 4008   3.527   4.010  11.744  0.2787  0.2020 -0.1835
  771MOL0     O 4009   3.565   3.943  11.857 -0.6107  0.2612 -0.1721
  771MOL0     C 4010   3.564   4.002  11.989 -0.3632 -0.1113 -0.7415
  771MOL0     C 4011   3.699   4.070  12.014 -0.4565  0.1051  0.5230
  771MOL0     C 4012   3.713   4.141  12.150  0.1505  0.6631 -0.0704
  771MOL0     C 4013   3.849   4.202  12.169  0.5938  0.0240  0.6133
  771MOL0     C 4014   3.933   4.083  12.208 -0.9818  0.4102 -0.2665
  771MOL0     C 4015   4.011   3.983  12.242  0.0372  0.3281 -1.5299
  771MOL0     C 4016   3.398   3.999  11.690  1.3159 -0.7659 -1.8826
  771MOL0     C 4017   3.360   4.049  11.566 -0.5263 -0.1899 -0.3680
  771MOL0     H 4018   3.454   4.100  11.100  1.0893  1.2854  0.0093
  771MOL0     H 4019   3.407   4.142  10.860  0.3619  0.1289  0.4694
  771MOL0     H 4020   3.115   4.426  10.788  1.1250 -0.7238  1.9608
  771MOL0     H 4021   3.255   4.423  10.677  1.0588 -0.2736  1.3705
  771MOL0     H 4022   3.127   4.302  10.514  1.8649 -3.8781  2.1558
  771MOL0     H 4023   2.997   4.266  10.621 -0.1648  0.7965 -0.1919
  771MOL0     H 4024   2.923   4.497  10.626  0.0803  0.4200  1.2648
  771MOL0     H 4025   3.069   4.573  10.570 -1.5550  1.2108 -2.3302
  771MOL0     H 4026   3.031   4.470  10.340 -0.2311 -2.9740  1.0029
  771MOL0     H 4027   2.886   4.396  10.406 -0.8508  0.0996  1.6457
  771MOL0     H 4028   2.849   4.600  10.260  3.0921  1.3396 -0.7705
  771MOL0     H 4029   2.776   4.611  10.421  1.7029  0.1767  2.8511
  771MOL0     H 4030   2.943   4.774  10.484  2.7023  1.4586 -0.3232
  771MOL0     H 4031   3.042   4.744  10.345 -1.5056  0.3360 -1.7508
  771MOL0     H 4032   2.915   4.945  10.350 -0.0436 -2.0923  5.1866
  771MOL0     H 4033   2.874   4.835  10.201 -0.8000  0.1531 -0.0836
  771MOL0     H 4034   2.718   4.890  10.442  2.1382 -0.4808  0.0435
  771MOL0     H 4035   2.658   4.778  10.318  0.3633  0.1088  0.9682
  771MOL0     H 4036   2.736   5.162  10.345 -1.5005  1.8835 -0.5774
  771MOL0     H 4037   2.482   5.344  10.137  0.4003 -2.0543 -2.5707
  771MOL0     H 4038   2.609   5.379  10.254 -0.6133  1.9091 -0.3372
  771MOL0     H 4039   2.677   5.478  10.047 -0.6288  0.4106  1.2891
  771MOL0     H 4040   2.676   5.322   9.962 -0.5786  2.9198 -1.9319
  771MOL0     H 4041   2.860   5.249  10.110 -0.4584 -0.1126  0.1163
  771MOL0     H 4042   2.847   5.402  10.197  1.2978  0.3328 -0.8783
  771MOL0     H 4043   2.922   5.388   9.913 -0.1927 -0.6393  1.0701
  771MOL0     H 4044   3.033   5.403  10.051  0.4130  1.6297  0.6441
  771MOL0     H 4045   2.772   5.707  10.183 -0.6853 -2.4226  1.2060
  771MOL0     H 4046   2.844   5.951  10.433  1.3120 -1.5404  1.2179
  771MOL0     H 4047   2.734   5.845  10.365 -0.2396  0.1061 -0.2537
  771MOL0     H 4048   2.832   5.788  10.506  0.5317  3.7040  2.9465
  771MOL0     H 4049   2.983   6.048  10.734  0.5571  0.5347  1.0538
  771MOL0     H 4050   3.035   6.210  10.873 -0.5716  0.2074 -0.9844
  771MOL0     H 4051   3.090   6.464  10.978 -0.6169 -0.5929  0.0117
  771MOL0     H 4052   3.186   6.318  11.009 -0.8422  0.8741  2.8110
  771MOL0     H 4053   3.265   6.470  11.145 -2.7133  0.0113 -0.4856
  771MOL0     H 4054   3.388   6.451  11.012 -0.4241 -0.6426 -3.4158
  771MOL0     H 4055   3.205   6.700  11.060  1.9999  2.2595 -0.1099
  771MOL0     H 4056   3.296   6.659  10.912  0.5730 -5.7006 -2.0055
  771MOL0     H 4057   3.502   6.670  11.048  0.4164  2.0189 -1.2755
  771MOL0     H 4058   3.414   6.817  11.052  1.3816  0.5443  0.5258
  771MOL0     H 4059   3.392   6.599  11.268 -0.7085 -1.1203 -2.7329
  771MOL0     H 4060   3.314   6.752  11.279 -0.0553  0.7317 -0.7637
  771MOL0     H 4061   3.608   6.669  11.294 -1.6022 -1.1899 -1.6018
  771MOL0     H 4062   3.577   6.840  11.252 -0.6627  0.9538  0.3767
  771MOL0     H 4063   3.499   6.692  11.507  2.3832 -0.6721  2.3714
  771MOL0     H 4064   3.446   6.858  11.458  0.3353 -0.6045 -0.4905
  771MOL0     H 4065   3.712   6.929  11.439  1.2832 -0.5512 -1.5041
  771MOL0     H 4066   3.738   6.777  11.511  2.8453  1.7090 -2.2916
  771MOL0     H 4067   3.314   6.364  10.578 -0.6090  0.4033  2.5873
  771MOL0     H 4068   3.237   6.189  10.420 -1.5793 -1.6098 -0.3448
  771MOL0     H 4069   3.260   5.764  10.247  1.0169 -1.3697 -0.0029
  771MOL0     H 4070   3.161   5.599  10.080  0.4752 -0.5302  1.1590
  771MOL0     H 4071   3.060   4.366  10.984  0.0656  1.1414  1.0562
  771MOL0     H 4072   3.130   4.328  11.224  4.4326  1.5219  1.7297
  771MOL0     H 4073   3.655   4.196  11.496  0.3609  0.4408 -1.9923
  771MOL0     H 4074   3.714   4.118  11.725  1.0519  0.6293  1.2527
  771MOL0     H 4075   3.480   4.072  11.988 -0.7432 -0.5039 -2.8762
  771MOL0     H 4076   3.552   3.919  12.059  0.0079  2.1737  2.2002
  771MOL0     H 4077   3.708   4.149  11.938  0.5991 -0.5692 -0.0904
  771MOL0     H 4078   3.777   3.997  11.988 -1.9230 -0.8054 -1.6353
  771MOL0     H 4079   3.688   4.093  12.245 -0.8908  0.7379 -0.3035
  771MOL0     H 4080   3.643   4.224  12.147 -0.7877 -0.0151  1.4620
  771MOL0     H 4081   3.836   4.281  12.244 -3.3078  1.7871 -1.5717
  771MOL0     H 4082   3.889   4.252  12.080 -0.3355 -3.1198 -1.7279
  771MOL0     H 4083   4.056   3.887  12.258 -1.2150 -0.5978 -3.1797
  771MOL0     H 4084   3.325   3.939  11.745 -1.6778  3.4797 -0.7066
  771MOL0     H 4085   3.256   4.053  11.533  0.0226  1.5611 -2.0321
  772MOL0     O 4086   8.949   6.948   1.201  0.2291  0.1804  0.0337
  772MOL0     C 4087   8.908   6.847   1.259  0.0153 -0.4689  0.1508
  772MOL0     O 4088   8.896   6.829   1.393 -0.5132 -0.1551 -0.3259
  772MOL0     C 4089   8.902   6.943   1.470  0.3389  0.2178 -0.0505
  772MOL0     C 4090   9.025   6.984   1.502 -0.5494 -0.2979  0.6007
  772MOL0     C 4091   9.041   7.095   1.585 -0.0427 -0.3514  0.4617
  772MOL0     C 4092   8.929   7.162   1.637 -1.4143  0.7900  0.1034
  772MOL0     O 4093   8.937   7.278   1.713  0.3878 -0.0107  0.8150
  772MOL0     C 4094   9.052   7.331   1.771 -0.5606 -0.9191 -0.0680
  772MOL0     C 4095   9.063   7.477   1.732  0.7284  0.3620 -0.9147
  772MOL0     C 4096   8.945   7.569   1.788 -0.4062 -0.0564 -0.5038
  772MOL0     C 4097   8.968   7.719   1.758 -0.5665 -0.2941  0.1297
  772MOL0     C 4098   8.836   7.794   1.748 -0.5814  0.2666 -0.2880
  772MOL0     C 4099   8.765   7.811   1.882  0.1898  0.7406  0.2277
  772MOL0     C 4100   8.653   7.919   1.888 -0.4220  0.4189  1.1085
  772MOL0     C 4101   8.717   8.058   1.874  0.9366  0.8398 -0.6672
  772MOL0     N 4102   8.635   8.163   1.935 -0.2424  0.3787 -0.7634
  772MOL0     C 4103   8.523   8.228   1.891  0.2495  0.0589  0.3115
  772MOL0     C 4104   8.514   8.344   1.953  0.3392 -0.6266 -0.1230
  772MOL0     C 4105   8.429   8.467   1.921 -1.0450  0.1274  0.2485
  772MOL0     C 4106   8.515   8.590   1.872  0.1188 -0.5371  0.9467
  772MOL0     C 4107   8.425   8.714   1.846 -0.5897 -0.2063  0.9606
  772MOL0     C 4108   8.386   8.799   1.973  0.6388 -0.4247 -0.3416
  772MOL0     O 4109   8.316   8.920   1.937  0.2630  0.1297 -0.7244
  772MOL0     C 4110   8.177   8.918   1.912  0.0955  0.1792  0.1039
  772MOL0     C 4111   8.092   8.814   1.961  0.6672  0.3223  0.3550
  772MOL0     C 4112   7.956   8.812   1.923 -0.7739  0.3952  0.0651
  772MOL0     C 4113   7.892   8.685   1.961  0.5453 -0.0971 -0.1051
  772MOL0     C 4114   7.902   8.913   1.837 -0.5425  0.9741 -0.7746
  772MOL0     C 4115   7.769   8.910   1.786 -0.1483 -0.1088  0.7754
  772MOL0     O 4116   7.720   9.021   1.727 -0.3453  0.7779  0.1692
  772MOL0     C 4117   7.597   9.025   1.676 -0.7701  0.3243 -0.0384
  772MOL0     C 4118   7.484   8.977   1.740 -0.8668  0.5348 -0.6366
  772MOL0     C 4119   7.364   8.991   1.674 -0.0957 -0.5980 -1.4625
  772MOL0     C 4120   7.352   9.030   1.542  0.1590 -0.3626 -0.0856
  772MOL0     O 4121   7.229   9.032   1.475  0.6291  0.2240 -0.6830
  772MOL0     C 4122   7.107   9.035   1.557 -0.0978 -0.2060  0.4571
  772MOL0     C 4123   6.991   9.070   1.467  0.0879  0.0146 -0.6860
  772MOL0     C 4124   6.848   9.039   1.528 -0.2846 -0.4130 -0.5392
  772MOL0     C 4125   6.729   9.053   1.437  0.2626  0.2744 -0.1415
  772MOL0     C 4126   6.685   9.210   1.427 -0.3291  0.2921 -0.3493
  772MOL0     C 4127   6.582   9.210   1.317  0.9765 -0.3313  0.8753
  772MOL0     C 4128   6.630   9.213   1.172  0.0762  0.3292  0.4406
  772MOL0     C 4129   6.511   9.207   1.071  0.3495  0.3999  0.2141
  772MOL0    Cl 4130   6.426   9.049   1.076  0.3859 -0.1092 -0.5068
  772MOL0     C 4131   7.459   9.078   1.474 -0.7477 -0.0538  0.2637
  772MOL0     C 4132   7.585   9.065   1.542  0.0364 -0.3353 -0.1515
  772MOL0     O 4133   7.707   8.801   1.795 -0.0617  0.0458 -0.8114
  772MOL0     C 4134   7.994   9.002   1.787 -0.3232 -0.2167 -0.1909
  772MOL0     C 4135   8.124   9.009   1.824 -0.1305 -0.4202  0.0887
  772MOL0     N 4136   8.617   8.342   2.044  0.7046  1.4901  0.4313
  772MOL0     N 4137   8.685   8.237   2.038 -0.2350  0.2795 -0.0208
  772MOL0     C 4138   8.809   7.115   1.599  0.5577 -0.1324 -0.1913
  772MOL0     C 4139   8.781   7.010   1.516  0.0410  0.3551 -0.8771
  772MOL0     C 4140   8.864   6.731   1.168  0.0900 -0.3181 -0.7099
  772MOL0     C 4141   8.805   6.617   1.221 -0.3052  0.0617 -0.1589
  772MOL0     C 4142   8.796   6.497   1.143  0.1395  0.3203  0.0461
  772MOL0     C 4143   8.858   6.488   1.016  0.7157  0.7767 -0.1851
  772MOL0     O 4144   8.860   6.378   0.942 -0.1357  0.9729  0.2795
  772MOL0     C 4145   8.891   6.249   1.002 -0.0870  0.2520  0.1930
  772MOL0     C 4146   8.960   6.174   0.892  0.6255  0.2235  0.3506
  772MOL0     C 4147   9.107   6.214   0.860  0.6630  0.6122  0.5295
  772MOL0     C 4148   9.216   6.112   0.820 -0.4645  0.2028  0.1182
  772MOL0     C 4149   9.341   6.186   0.778 -0.2915 -0.4179  0.1078
  772MOL0     C 4150   9.441   6.246   0.742  0.6728  0.5321  1.2041
  772MOL0     C 4151   8.901   6.609   0.960  0.2976  0.1153 -0.9160
  772MOL0     C 4152   8.905   6.729   1.035 -0.0454  0.3713 -0.3943
  772MOL0     H 4153   9.116   6.932   1.474  1.3593  3.9711 -2.1860
  772MOL0     H 4154   9.142   7.127   1.606 -0.0274 -0.0249 -0.0673
  772MOL0     H 4155   9.043   7.341   1.880  1.6462  1.3679 -0.0056
  772MOL0     H 4156   9.140   7.268   1.757 -2.4546 -3.5259 -1.1391
  772MOL0     H 4157   9.150   7.503   1.792  0.8513 -0.7193 -0.5995
  772MOL0     H 4158   9.064   7.483   1.622 -3.1272  1.6841 -1.0474
  772MOL0     H 4159   8.845   7.535   1.760 -0.0656 -1.4626 -0.0882
  772MOL0     H 4160   8.951   7.566   1.897  4.3984 -0.2571 -0.5706
  772MOL0     H 4161   9.024   7.767   1.839 -0.2114 -1.1961  0.4248
  772MOL0     H 4162   9.030   7.728   1.669 -0.8761 -0.3936 -0.0950
  772MOL0     H 4163   8.848   7.890   1.697  0.8839 -2.1400 -5.0714
  772MOL0     H 4164   8.777   7.726   1.686  0.0022  0.4942 -1.1111
  772MOL0     H 4165   8.728   7.709   1.896 -1.4769  1.1038 -1.1652
  772MOL0     H 4166   8.833   7.837   1.964 -0.4143  0.3364  0.8631
  772MOL0     H 4167   8.575   7.913   1.811  0.9950  0.6380 -0.4019
  772MOL0     H 4168   8.596   7.906   1.981 -0.3530 -1.9763  0.8844
  772MOL0     H 4169   8.746   8.083   1.771  1.7383  2.7517 -0.0337
  772MOL0     H 4170   8.817   8.062   1.916  0.9730 -3.9606  0.1836
  772MOL0     H 4171   8.458   8.197   1.809 -0.6575  4.4525 -0.8593
  772MOL0     H 4172   8.349   8.440   1.850 -2.0316  1.6737  0.7071
  772MOL0     H 4173   8.374   8.488   2.013 -1.5464  2.5125 -0.5117
  772MOL0     H 4174   8.549   8.553   1.774 -0.6580  0.3121  0.3460
  772MOL0     H 4175   8.600   8.606   1.940  2.1801  3.0437 -2.0777
  772MOL0     H 4176   8.334   8.671   1.803 -1.6417  1.0566  1.8224
  772MOL0     H 4177   8.466   8.782   1.771 -2.6004  0.5565  0.5010
  772MOL0     H 4178   8.477   8.836   2.021  1.1385 -0.2903 -1.3598
  772MOL0     H 4179   8.329   8.740   2.045 -2.3458  1.7765 -0.7236
  772MOL0     H 4180   8.131   8.743   2.034 -1.1585 -1.4455 -0.3147
  772MOL0     H 4181   7.948   8.617   2.027 -0.1624 -0.5500  0.0423
  772MOL0     H 4182   7.812   8.703   2.033  0.3185 -2.0542  0.2089
  772MOL0     H 4183   7.857   8.626   1.875  0.5657 -2.3728  1.3417
  772MOL0     H 4184   7.494   8.948   1.844 -0.8265 -3.3125 -1.5601
  772MOL0     H 4185   7.275   8.956   1.726  2.0119 -4.2228  0.1509
  772MOL0     H 4186   7.080   8.943   1.609 -1.8606 -1.2429 -2.0977
  772MOL0     H 4187   7.114   9.118   1.627  0.0686  1.2271 -1.1825
  772MOL0     H 4188   6.992   9.174   1.432  1.0710  0.6508  1.0802
  772MOL0     H 4189   7.018   9.005   1.384  2.0701 -0.6834  0.4330
  772MOL0     H 4190   6.828   9.095   1.620 -2.8208 -3.5257  1.0317
  772MOL0     H 4191   6.844   8.933   1.558  0.0034 -0.1215  0.6016
  772MOL0     H 4192   6.755   9.007   1.342  1.9389  0.7045  0.0822
  772MOL0     H 4193   6.641   8.999   1.474 -1.1450  2.3252 -0.3229
  772MOL0     H 4194   6.772   9.269   1.396  0.9919 -0.0430  2.4262
  772MOL0     H 4195   6.650   9.244   1.525 -0.3373 -0.4906 -0.0746
  772MOL0     H 4196   6.509   9.131   1.339 -1.2109  1.8480  2.0024
  772MOL0     H 4197   6.518   9.297   1.336  2.4738  0.7951  0.8816
  772MOL0     H 4198   6.698   9.130   1.153 -1.6556 -0.4513 -3.1095
  772MOL0     H 4199   6.688   9.300   1.139 -0.5375  0.0184 -1.5943
  772MOL0     H 4200   6.557   9.214   0.973  3.2512 -4.1827  0.9445
  772MOL0     H 4201   6.440   9.284   1.102  1.1145 -0.0071  3.3312
  772MOL0     H 4202   7.454   9.109   1.370  3.8303  0.5890  0.0519
  772MOL0     H 4203   7.679   9.084   1.492  0.5880 -2.9045 -0.2388
  772MOL0     H 4204   7.957   9.069   1.710 -3.2091 -0.8499  0.5101
  772MOL0     H 4205   8.185   9.084   1.775  1.1426 -2.7390 -2.1301
  772MOL0     H 4206   8.727   7.179   1.632  0.3471 -0.0498 -0.8546
  772MOL0     H 4207   8.677   6.988   1.494 -0.4749  3.2151 -1.7292
  772MOL0     H 4208   8.764   6.623   1.322 -0.7283 -0.6882 -0.2808
  772MOL0     H 4209   8.747   6.405   1.175  0.4974  0.1221  0.0256
  772MOL0     H 4210   8.969   6.241   1.079 -0.8574 -3.1072  0.7629
  772MOL0     H 4211   8.801   6.191   1.021  0.7399 -1.5172 -1.0614
  772MOL0     H 4212   8.900   6.187   0.802  0.2682  3.6218  0.9195
  772MOL0     H 4213   8.953   6.071   0.926 -0.1103  0.8567  2.2577
  772MOL0     H 4214   9.148   6.274   0.941  1.2793 -0.2513  0.8754
  772MOL0     H 4215   9.100   6.279   0.772  0.0276  0.8154  0.7218
  772MOL0     H 4216   9.191   6.053   0.731  2.6783 -1.7200  0.3697
  772MOL0     H 4217   9.237   6.042   0.901 -1.0592  1.4415  1.3782
  772MOL0     H 4218   9.514   6.307   0.692 -0.4242 -1.0563 -2.5979
  772MOL0     H 4219   8.936   6.625   0.859 -1.0599  0.3415 -1.3697
  772MOL0     H 4220   8.964   6.817   1.011  2.5178 -1.3904 -0.9867
  773MOL0     O 4221   0.798   1.419   0.824  0.3270 -0.1219  0.1186
  773MOL0     C 4222   0.901   1.454   0.776  0.3125  0.3004  1.2661
  773MOL0     O 4223   1.025   1.478   0.850 -0.3689  0.2222  0.6209
  773MOL0     C 4224   1.033   1.470   0.991  0.2928  0.9986  0.3084
  773MOL0     C 4225   1.151   1.436   1.050 -0.3448  0.0564  0.1811
  773MOL0     C 4226   1.157   1.410   1.185 -0.4029 -0.4440 -0.6467
  773MOL0     C 4227   1.044   1.426   1.270  0.7658  0.1002 -0.4531
  773MOL0     O 4228   1.052   1.380   1.401  0.1251  0.0400 -0.8745
  773MOL0     C 4229   0.944   1.334   1.493  0.4019 -1.0085 -0.1325
  773MOL0     C 4230   0.880   1.202   1.464 -0.5479 -0.1206  0.0846
  773MOL0     C 4231   0.968   1.088   1.426  0.6666 -0.0742 -0.6107
  773MOL0     C 4232   0.883   0.960   1.412 -0.1743 -1.1549  0.2600
  773MOL0     C 4233   0.965   0.843   1.352 -0.3493  0.2795 -0.7584
  773MOL0     C 4234   0.996   0.844   1.202 -0.1989 -0.0611  0.1708
  773MOL0     C 4235   1.060   0.713   1.159  0.7150  0.5052  0.6607
  773MOL0     C 4236   1.197   0.679   1.215 -0.2758  0.2948 -0.1329
  773MOL0     N 4237   1.228   0.539   1.180  0.0482 -0.0692 -0.0112
  773MOL0     C 4238   1.262   0.502   1.055  0.9028 -0.0202  0.0238
  773MOL0     C 4239   1.270   0.366   1.071 -0.5450 -0.1646  0.6028
  773MOL0     C 4240   1.269   0.268   0.951 -0.1971  0.6221 -0.1245
  773MOL0     C 4241   1.297   0.123   0.995  0.0306  0.7510  0.3521
  773MOL0     C 4242   1.321   0.033   0.873  0.0503  0.6710 -0.9726
  773MOL0     C 4243   1.326  -0.113   0.904 -0.9227 -0.9691  0.0893
  773MOL0     O 4244   1.431  -0.134   1.000 -0.1347  0.4484 -0.0676
  773MOL0     C 4245   1.446  -0.269   1.014  0.4272  0.3068 -0.0794
  773MOL0     C 4246   1.400  -0.330   1.129  0.0674  0.0413  0.0022
  773MOL0     C 4247   1.389  -0.473   1.135  0.9645 -0.4141 -0.5623
  773MOL0     C 4248   1.343  -0.530   1.275 -0.0959  0.2736 -0.0051
  773MOL0     C 4249   1.445  -0.551   1.037 -0.1093  0.0988  0.2662
  773MOL0     C 4250   1.447  -0.705   1.040  0.6933 -0.1540  0.6480
  773MOL0     O 4251   1.535  -0.770   0.941  0.1058 -0.4775  0.0017
  773MOL0     C 4252   1.567  -0.899   0.943  0.4906  0.0892 -0.7305
  773MOL0     C 4253   1.496  -1.010   0.995 -0.3990 -0.3802  0.0081
  773MOL0     C 4254   1.546  -1.136   0.973  0.9847  0.2461 -0.0394
  773MOL0     C 4255   1.672  -1.157   0.917 -0.4899 -0.4109  0.3108
  773MOL0     O 4256   1.718  -1.287   0.930 -0.1612  0.2615 -0.2289
  773MOL0     C 4257   1.835  -1.336   0.863  0.2954  0.3006 -0.7542
  773MOL0     C 4258   1.827  -1.333   0.713  0.0588 -0.0949 -1.1038
  773MOL0     C 4259   1.943  -1.399   0.648 -0.4044 -0.0264  1.1194
  773MOL0     C 4260   1.974  -1.550   0.682  0.0470 -0.7195  0.6895
  773MOL0     C 4261   2.116  -1.602   0.636  0.7616  0.7024 -0.0740
  773MOL0     C 4262   2.135  -1.753   0.667 -0.0299  1.3119 -0.6981
  773MOL0     C 4263   2.265  -1.771   0.758  0.2909  0.7175  0.4812
  773MOL0     C 4264   2.300  -1.917   0.777 -1.2051 -0.0604  0.3884
  773MOL0    Cl 4265   2.182  -1.982   0.890  0.2812 -0.0667  0.1404
  773MOL0     C 4266   1.744  -1.048   0.860  0.7123 -0.7006 -0.5202
  773MOL0     C 4267   1.694  -0.918   0.881  0.7976  0.8015 -0.1907
  773MOL0     O 4268   1.364  -0.765   1.107 -0.0884  0.4213  0.9949
  773MOL0     C 4269   1.495  -0.482   0.926 -0.6276 -0.0797 -0.4185
  773MOL0     C 4270   1.513  -0.341   0.918  0.4334 -0.4255 -0.5751
  773MOL0     N 4271   1.258   0.336   1.205 -0.0709 -0.0425  0.4242
  773MOL0     N 4272   1.235   0.440   1.269 -0.2649 -0.5250  0.2795
  773MOL0     C 4273   0.916   1.472   1.214  0.0157  0.1441  0.2413
  773MOL0     C 4274   0.920   1.499   1.076  0.2895 -0.5496  0.2642
  773MOL0     C 4275   0.897   1.466   0.627 -0.7855 -0.0126  0.4833
  773MOL0     C 4276   0.974   1.571   0.561  0.5787  0.9419 -0.1819
  773MOL0     C 4277   0.967   1.587   0.420 -0.6030  0.3334  0.6448
  773MOL0     C 4278   0.888   1.507   0.344 -0.0074  0.1007 -1.1251
  773MOL0     O 4279   0.892   1.514   0.211 -0.3553 -0.1787 -0.1116
  773MOL0     C 4280   0.995   1.585   0.137 -0.4423  0.5712 -0.5465
  773MOL0     C 4281   0.972   1.561  -0.018 -0.1454 -0.1770  1.1130
  773MOL0     C 4282   0.829   1.586  -0.064 -0.9170 -0.0344 -1.2993
  773MOL0     C 4283   0.767   1.717  -0.011  0.5750 -1.1064  0.3638
  773MOL0     C 4284   0.827   1.841  -0.072 -0.4699 -0.0520 -0.9995
  773MOL0     C 4285   0.870   1.950  -0.111 -0.4183  0.5960 -0.4822
  773MOL0     C 4286   0.809   1.411   0.405 -0.1236 -0.8835 -0.1473
  773MOL0     C 4287   0.813   1.390   0.544  0.1236 -0.1635 -1.1680
  773MOL0     H 4288   1.242   1.422   0.992 -0.2366  0.3455  0.2798
  773MOL0     H 4289   1.243   1.366   1.234 -1.0089  2.0579  3.1463
  773MOL0     H 4290   0.996   1.318   1.588 -1.7741 -0.0781  1.2939
  773MOL0     H 4291   0.878   1.421   1.498  0.8814 -0.4339 -2.4678
  773MOL0     H 4292   0.814   1.173   1.547 -0.6071  0.1760  0.1439
  773MOL0     H 4293   0.821   1.224   1.374 -0.5306 -1.2383 -0.2158
  773MOL0     H 4294   1.027   1.114   1.337  1.6508  1.1946  0.3681
  773MOL0     H 4295   1.042   1.069   1.505  0.4431 -0.8459 -0.5775
  773MOL0     H 4296   0.840   0.938   1.510 -2.6524 -1.0496 -0.7181
  773MOL0     H 4297   0.797   0.980   1.347  0.4814  2.7280  0.3823
  773MOL0     H 4298   1.063   0.842   1.400  0.0176  0.5680 -1.4898
  773MOL0     H 4299   0.903   0.753   1.365  0.3206 -0.0224  0.4739
  773MOL0     H 4300   0.904   0.863   1.147 -0.2818 -1.5964 -0.2575
  773MOL0     H 4301   1.074   0.918   1.179 -1.0756  0.3985 -1.4309
  773MOL0     H 4302   1.001   0.622   1.177  4.3708 -3.0085 -2.8900
  773MOL0     H 4303   1.065   0.703   1.050  1.1592 -3.5705  0.8734
  773MOL0     H 4304   1.192   0.673   1.324  1.2211  1.7556  0.0562
  773MOL0     H 4305   1.268   0.757   1.184  0.0142 -0.8419 -2.5219
  773MOL0     H 4306   1.272   0.557   0.961 -0.5766  2.7992  1.3861
  773MOL0     H 4307   1.177   0.264   0.893 -1.4852 -1.3250  1.8795
  773MOL0     H 4308   1.353   0.286   0.883  2.0629 -1.3359  1.9449
  773MOL0     H 4309   1.224   0.088   1.068  2.2398  1.1841  2.9409
  773MOL0     H 4310   1.390   0.116   1.052  0.1698  0.8332  0.1373
  773MOL0     H 4311   1.409   0.073   0.820  0.9259  4.8312  2.9737
  773MOL0     H 4312   1.231   0.039   0.811 -1.7086 -1.6896  1.1595
  773MOL0     H 4313   1.350  -0.159   0.808 -1.3884 -0.1639 -0.4176
  773MOL0     H 4314   1.232  -0.150   0.944 -2.1381 -2.1978 -3.5364
  773MOL0     H 4315   1.359  -0.266   1.207 -0.7115  0.5904 -0.8328
  773MOL0     H 4316   1.273  -0.613   1.262  0.7974 -0.2730 -1.6625
  773MOL0     H 4317   1.430  -0.573   1.326 -0.1216 -0.4105 -0.5177
  773MOL0     H 4318   1.307  -0.456   1.347 -1.1229  0.0110 -0.2345
  773MOL0     H 4319   1.397  -1.010   1.040 -0.1340  1.3513  0.6724
  773MOL0     H 4320   1.496  -1.218   1.023  2.7731 -0.9725 -0.1612
  773MOL0     H 4321   1.921  -1.283   0.905 -1.4745  2.4356  0.3815
  773MOL0     H 4322   1.836  -1.439   0.901 -1.6654  1.0087  1.4105
  773MOL0     H 4323   1.746  -1.407   0.701 -0.0707  0.1599 -1.8289
  773MOL0     H 4324   1.805  -1.238   0.663  1.8484  0.2059 -1.3607
  773MOL0     H 4325   2.037  -1.346   0.669  1.6221 -2.7577 -0.4341
  773MOL0     H 4326   1.924  -1.396   0.540  0.1535  1.4310  1.0322
  773MOL0     H 4327   1.978  -1.570   0.789  1.7041  1.4136  1.0988
  773MOL0     H 4328   1.896  -1.614   0.640 -0.1798 -0.0698  0.1082
  773MOL0     H 4329   2.200  -1.546   0.681  1.5146 -2.0038  2.1723
  773MOL0     H 4330   2.129  -1.589   0.529 -0.5755  1.4793 -0.1629
  773MOL0     H 4331   2.050  -1.784   0.728  0.7682  0.3814 -0.0315
  773MOL0     H 4332   2.147  -1.815   0.578 -1.6288 -1.7371  1.0804
  773MOL0     H 4333   2.248  -1.719   0.853  3.3971  1.9493  0.4784
  773MOL0     H 4334   2.340  -1.713   0.704 -1.6270  2.5283 -0.3612
  773MOL0     H 4335   2.399  -1.918   0.824 -0.1342 -2.2510 -1.6739
  773MOL0     H 4336   2.309  -1.971   0.682 -0.6511  0.6861 -0.0004
  773MOL0     H 4337   1.839  -1.055   0.808 -0.1866 -2.3458 -2.0268
  773MOL0     H 4338   1.750  -0.835   0.840  4.0197 -1.8418 -1.6586
  773MOL0     H 4339   1.548  -0.528   0.843  1.6811 -1.3072  1.6000
  773MOL0     H 4340   1.561  -0.293   0.833  0.1916 -0.5160 -0.7625
  773MOL0     H 4341   0.823   1.484   1.268 -1.7176  0.7096 -2.6290
  773MOL0     H 4342   0.825   1.542   1.042  1.3265  2.3694  0.7198
  773MOL0     H 4343   1.043   1.626   0.625 -2.5913  1.5038  3.0569
  773MOL0     H 4344   1.025   1.667   0.376  0.7240 -1.3983 -0.9474
  773MOL0     H 4345   1.003   1.692   0.155 -0.5125  0.6635 -1.0584
  773MOL0     H 4346   1.094   1.547   0.163 -0.4658  1.3296  0.7492
  773MOL0     H 4347   1.009   1.462  -0.049 -0.5089 -0.8506  2.7319
  773MOL0     H 4348   1.049   1.615  -0.074  1.7815 -2.1284  1.7171
  773MOL0     H 4349   0.774   1.500  -0.025  1.1205  0.2589  2.7030
  773MOL0     H 4350   0.833   1.569  -0.172  3.0054  1.2103 -1.5040
  773MOL0     H 4351   0.772   1.726   0.098 -1.8084 -1.5944  0.5695
  773MOL0     H 4352   0.662   1.724  -0.040  0.4809 -2.9228  0.1673
  773MOL0     H 4353   0.920   2.038  -0.147  2.6249 -0.6721  0.2910
  773MOL0     H 4354   0.737   1.364   0.338  0.5822  2.9731 -4.0598
  773MOL0     H 4355   0.751   1.319   0.598  1.0403  1.1516  1.8068
  774MOL0     O 4356   4.426  10.427   0.374 -0.8217 -0.2820  0.0219
  774MOL0     C 4357   4.449  10.539   0.423  0.3961 -0.1789 -0.8302
  774MOL0     O 4358   4.414  10.658   0.377  0.9690  0.5566  0.0837
  774MOL0     C 4359   4.306  10.649   0.288 -0.2256 -0.5045  0.8576
  774MOL0     C 4360   4.311  10.721   0.165  0.2702  0.6998 -0.2009
  774MOL0     C 4361   4.211  10.728   0.074  0.0725  0.3019  0.4973
  774MOL0     C 4362   4.089  10.652   0.101  0.1034 -0.4158  1.2232
  774MOL0     O 4363   3.987  10.651   0.013 -0.5551  0.1517  0.7228
  774MOL0     C 4364   3.900  10.537  -0.002  0.1275 -0.2982 -0.2047
  774MOL0     C 4365   3.780  10.566  -0.093 -0.9445 -0.6829 -0.1960
  774MOL0     C 4366   3.659  10.466  -0.061 -0.3967 -0.7043 -0.0223
  774MOL0     C 4367   3.584  10.437  -0.191 -0.3820 -0.3290  0.1586
  774MOL0     C 4368   3.449  10.501  -0.186 -0.0744 -0.4297  0.5229
  774MOL0     C 4369   3.454  10.656  -0.197 -0.3720  0.1948 -0.0896
  774MOL0     C 4370   3.317  10.704  -0.169  0.4615  0.7531  0.4402
  774MOL0     C 4371   3.320  10.854  -0.137  0.3847 -0.0124  0.0005
  774MOL0     N 4372   3.189  10.893  -0.086  0.6739  0.3874 -0.9622
  774MOL0     C 4373   3.086  10.932  -0.167  0.1438  0.4565 -0.4607
  774MOL0     C 4374   2.995  10.981  -0.082 -0.8156  0.4748 -0.2410
  774MOL0     C 4375   2.865  11.050  -0.111 -0.3280 -0.3788  0.6988
  774MOL0     C 4376   2.889  11.209  -0.138 -0.2438  0.0400 -0.0895
  774MOL0     C 4377   2.905  11.238  -0.286 -0.5661 -0.8804 -0.1910
  774MOL0     C 4378   2.912  11.386  -0.298  0.2452  0.1568  0.1746
  774MOL0     O 4379   3.052  11.428  -0.311 -0.0638 -0.3737  0.7613
  774MOL0     C 4380   3.095  11.409  -0.436 -0.5879  0.6735  0.0567
  774MOL0     C 4381   3.185  11.313  -0.453 -0.9197  0.5934  0.5873
  774MOL0     C 4382   3.246  11.270  -0.569 -0.4834  0.2116  0.4452
  774MOL0     C 4383   3.353  11.158  -0.563 -0.1391  0.2094  0.1370
  774MOL0     C 4384   3.223  11.362  -0.680 -0.1572 -0.2378  0.3225
  774MOL0     C 4385   3.298  11.333  -0.800  0.0453 -0.0266  0.2762
  774MOL0     O 4386   3.229  11.317  -0.912 -0.4035 -1.4616  0.1974
  774MOL0     C 4387   3.297  11.285  -1.034 -0.4826 -0.9585  0.2555
  774MOL0     C 4388   3.419  11.355  -1.077  0.4622 -0.0426  0.0027
  774MOL0     C 4389   3.473  11.320  -1.200 -0.3659  0.1559 -0.1585
  774MOL0     C 4390   3.417  11.214  -1.276  0.8072 -0.2845  0.0260
  774MOL0     O 4391   3.486  11.193  -1.390 -0.6640  0.3154 -0.1384
  774MOL0     C 4392   3.432  11.122  -1.501 -0.3006 -0.4112  0.6022
  774MOL0     C 4393   3.367  11.221  -1.604  0.1082  0.3023 -0.2228
  774MOL0     C 4394   3.338  11.158  -1.735 -0.7886 -0.1569 -0.4620
  774MOL0     C 4395   3.459  11.125  -1.824  0.4742  0.6784 -0.5780
  774MOL0     C 4396   3.410  11.057  -1.946  0.2517 -0.9809  0.1479
  774MOL0     C 4397   3.528  11.017  -2.033 -0.3197  0.5302 -0.1636
  774MOL0     C 4398   3.469  10.943  -2.148 -0.8827  0.0139  0.1824
  774MOL0     C 4399   3.376  11.025  -2.236 -0.1475 -0.3558  0.1960
  774MOL0    Cl 4400   3.420  10.984  -2.412  0.4739  0.1578  0.3081
  774MOL0     C 4401   3.303  11.146  -1.236  0.8575  0.0370 -0.9078
  774MOL0     C 4402   3.246  11.183  -1.114  0.0104 -0.3527  0.0302
  774MOL0     O 4403   3.420  11.321  -0.796 -0.3984 -0.7404  0.1741
  774MOL0     C 4404   3.132  11.463  -0.669 -0.3694 -0.0595 -0.7640
  774MOL0     C 4405   3.075  11.502  -0.539  0.1024  0.9917 -0.3912
  774MOL0     N 4406   3.041  10.972   0.051  0.2761 -0.1383  0.9269
  774MOL0     N 4407   3.154  10.929   0.041 -0.0592  0.4464  0.0506
  774MOL0     C 4408   4.077  10.595   0.232  0.2204 -0.4541  0.7148
  774MOL0     C 4409   4.185  10.586   0.317  0.3231 -0.2964 -0.1701
  774MOL0     C 4410   4.543  10.542   0.534  0.1216  0.2732 -0.0386
  774MOL0     C 4411   4.590  10.418   0.586  0.3295 -0.3374  0.3465
  774MOL0     C 4412   4.675  10.429   0.697 -0.0780  0.6267 -0.5176
  774MOL0     C 4413   4.722  10.557   0.746 -0.2167 -0.3196  0.1400
  774MOL0     O 4414   4.817  10.562   0.847 -0.6735 -0.6465 -0.3786
  774MOL0     C 4415   4.833  10.690   0.923 -0.2319 -0.1902  0.3106
  774MOL0     C 4416   4.806  10.674   1.071 -0.1203  0.3989  0.9574
  774MOL0     C 4417   4.885  10.551   1.140 -0.1209 -0.5306  0.4873
  774MOL0     C 4418   4.893  10.572   1.295 -0.4311  0.3718  0.6766
  774MOL0     C 4419   4.989  10.476   1.354 -0.2659  0.2446  0.6761
  774MOL0     C 4420   5.066  10.389   1.387  0.1622  0.9394  1.1981
  774MOL0     C 4421   4.684  10.668   0.681 -0.3842  0.0986 -0.0728
  774MOL0     C 4422   4.585  10.664   0.589  0.0135  0.3898  0.1022
  774MOL0     H 4423   4.399  10.781   0.145 -1.1283  3.5131  1.3822
  774MOL0     H 4424   4.201  10.789  -0.015 -3.4086  0.9718  1.1753
  774MOL0     H 4425   3.957  10.450  -0.037  1.4576 -0.8385  2.9329
  774MOL0     H 4426   3.854  10.522   0.096  0.5166 -0.1494  0.0034
  774MOL0     H 4427   3.747  10.668  -0.071  1.0499 -0.5261  2.6279
  774MOL0     H 4428   3.813  10.559  -0.197 -0.0492 -0.4624  0.0624
  774MOL0     H 4429   3.695  10.371  -0.021  0.4015 -1.2145 -1.8273
  774MOL0     H 4430   3.587  10.511   0.007 -2.4138 -1.4953 -1.5463
  774MOL0     H 4431   3.643  10.484  -0.270  2.5589  2.7035  3.7756
  774MOL0     H 4432   3.572  10.329  -0.203  2.5539 -0.7308  0.0066
  774MOL0     H 4433   3.407  10.462  -0.279 -0.6573  0.9486  0.1796
  774MOL0     H 4434   3.380  10.464  -0.110 -0.3414  0.5586  0.7728
  774MOL0     H 4435   3.528  10.699  -0.129 -0.0588 -0.6306  0.1019
  774MOL0     H 4436   3.493  10.677  -0.297 -1.4736 -1.1432 -0.8246
  774MOL0     H 4437   3.243  10.676  -0.244  0.4557 -1.5968  1.2426
  774MOL0     H 4438   3.280  10.658  -0.077 -1.6363  1.9969  0.2930
  774MOL0     H 4439   3.339  10.912  -0.228  3.1018 -0.0247  0.5039
  774MOL0     H 4440   3.390  10.885  -0.060  0.7751  1.0674 -0.7714
  774MOL0     H 4441   3.093  10.937  -0.275  2.1602 -0.5680 -0.4317
  774MOL0     H 4442   2.821  11.016  -0.205 -0.7641  1.6237  0.1249
  774MOL0     H 4443   2.788  11.029  -0.036  1.1265 -2.4019  1.7115
  774MOL0     H 4444   2.984  11.235  -0.089 -0.3441 -1.0318  0.7122
  774MOL0     H 4445   2.800  11.258  -0.097  0.1822 -0.3227  1.3149
  774MOL0     H 4446   2.822  11.207  -0.349 -1.5773 -0.4808  0.8942
  774MOL0     H 4447   2.980  11.189  -0.348  0.4686  1.4502 -0.9226
  774MOL0     H 4448   2.872  11.442  -0.213 -0.5950  1.4883 -1.0608
  774MOL0     H 4449   2.850  11.404  -0.386 -1.1790  0.1533  1.1335
  774MOL0     H 4450   3.214  11.250  -0.369  3.5468  1.2174 -0.2472
  774MOL0     H 4451   3.354  11.117  -0.462  1.8819  0.5343  0.2891
  774MOL0     H 4452   3.337  11.072  -0.629  1.4920 -0.5273  0.6437
  774MOL0     H 4453   3.452  11.198  -0.585  1.2698 -1.6540  2.5894
  774MOL0     H 4454   3.470  11.442  -1.037  3.2480  0.5060 -4.0708
  774MOL0     H 4455   3.559  11.377  -1.231 -0.4910  0.6089  0.3153
  774MOL0     H 4456   3.513  11.067  -1.549  0.7879  0.9870  0.7795
  774MOL0     H 4457   3.369  11.037  -1.473 -3.1270  1.0784 -0.7817
  774MOL0     H 4458   3.280  11.260  -1.550  0.8558  1.4581  0.1857
  774MOL0     H 4459   3.436  11.304  -1.623 -0.2948  1.5144  2.9885
  774MOL0     H 4460   3.271  11.219  -1.797 -0.7349  1.9684  1.4287
  774MOL0     H 4461   3.287  11.063  -1.717 -2.5672 -0.2135 -4.5733
  774MOL0     H 4462   3.511  11.219  -1.841 -1.3409  1.9982  0.8660
  774MOL0     H 4463   3.534  11.061  -1.775  1.1640  1.4899 -0.5607
  774MOL0     H 4464   3.337  11.127  -1.988  3.9703 -0.0306 -6.0324
  774MOL0     H 4465   3.353  10.967  -1.922  0.2983 -0.3425  2.9670
  774MOL0     H 4466   3.596  11.094  -2.071  5.0820 -3.0200  1.0875
  774MOL0     H 4467   3.595  10.945  -1.984 -0.7816 -0.1203 -0.4635
  774MOL0     H 4468   3.422  10.849  -2.120 -0.9594 -0.1124 -0.3662
  774MOL0     H 4469   3.552  10.917  -2.214 -0.4931  1.6568 -0.0275
  774MOL0     H 4470   3.384  11.133  -2.219 -1.2207  0.5492 -3.9411
  774MOL0     H 4471   3.270  11.003  -2.220 -0.2256  0.5863  1.0279
  774MOL0     H 4472   3.261  11.065  -1.295 -0.1185  0.8327 -1.3258
  774MOL0     H 4473   3.161  11.137  -1.066  1.1560 -1.0766  1.4499
  774MOL0     H 4474   3.128  11.531  -0.753  1.7508  1.8032  0.5498
  774MOL0     H 4475   3.055  11.605  -0.512  1.5074  0.9528  0.8754
  774MOL0     H 4476   3.980  10.555   0.261 -0.8323  0.6381 -1.1062
  774MOL0     H 4477   4.165  10.520   0.401  0.1847 -1.0052 -0.7493
  774MOL0     H 4478   4.575  10.323   0.536  0.8162 -0.6077  0.7015
  774MOL0     H 4479   4.723  10.347   0.748 -3.8956 -0.2725  1.9950
  774MOL0     H 4480   4.934  10.727   0.901 -0.2346 -1.0620 -1.3560
  774MOL0     H 4481   4.770  10.771   0.887  2.6219  2.0861  0.0807
  774MOL0     H 4482   4.702  10.641   1.081 -0.6203  1.4946 -0.2416
  774MOL0     H 4483   4.826  10.771   1.116  2.6019  0.3764 -0.0061
  774MOL0     H 4484   4.989  10.549   1.103 -0.1953  2.3012 -0.0688
  774MOL0     H 4485   4.838  10.460   1.100  0.9802 -0.4456 -1.1216
  774MOL0     H 4486   4.792  10.548   1.328  0.5858 -0.9098  3.1264
  774MOL0     H 4487   4.934  10.670   1.321 -0.1084  0.2363  0.6863
  774MOL0     H 4488   5.138  10.325   1.434 -1.3973  0.5730  3.2436
  774MOL0     H 4489   4.723  10.770   0.682  2.4059 -0.8196  2.4704
  774MOL0     H 4490   4.549  10.755   0.542 -0.4509  1.0281  1.6263
  775MOL0     O 4491  11.391   5.581   4.547 -0.1859  0.7238  0.3451
  775MOL0     C 4492  11.459   5.539   4.638 -0.3677 -1.0802  0.4072
  775MOL0     O 4493  11.588   5.580   4.661  0.1526 -0.1017  0.4792
  775MOL0     C 4494  11.645   5.690   4.594  0.0703  0.7426  0.0231
  775MOL0     C 4495  11.782   5.698   4.594 -1.4147  0.2229 -0.7450
  775MOL0     C 4496  11.847   5.812   4.549 -1.0266 -0.4306 -0.3172
  775MOL0     C 4497  11.778   5.923   4.501 -0.2397 -0.6961 -0.4757
  775MOL0     O 4498  11.840   6.041   4.460  0.2933 -0.4515  0.1772
  775MOL0     C 4499  11.979   6.041   4.432  0.0919 -0.0162  0.1075
  775MOL0     C 4500  12.007   6.155   4.341 -0.1533 -0.4612  0.0282
  775MOL0     C 4501  12.156   6.179   4.326 -0.6662  0.0803 -0.2014
  775MOL0     C 4502  12.181   6.273   4.205 -0.2444  0.4016 -0.0115
  775MOL0     C 4503  12.317   6.251   4.146  0.3526 -0.5609  0.4180
  775MOL0     C 4504  12.361   6.351   4.036  0.7440 -0.9239 -0.1811
  775MOL0     C 4505  12.286   6.343   3.914 -0.2930  0.0975  1.7404
  775MOL0     C 4506  12.306   6.212   3.835  0.0918  0.6889  0.5364
  775MOL0     N 4507  12.446   6.177   3.800  0.4843  0.2043 -0.2925
  775MOL0     C 4508  12.497   6.189   3.670 -0.1587  0.2759  0.4766
  775MOL0     C 4509  12.626   6.134   3.671 -0.1964  0.6769 -0.1127
  775MOL0     C 4510  12.722   6.108   3.557  0.5804  0.0626 -0.8200
  775MOL0     C 4511  12.672   5.997   3.450 -0.1553 -1.1115 -0.0120
  775MOL0     C 4512  12.639   5.859   3.501 -0.4744  0.4761 -0.4318
  775MOL0     C 4513  12.753   5.791   3.581 -0.1604 -0.9154 -0.9906
  775MOL0     O 4514  12.735   5.654   3.610 -0.2870 -0.0860  0.0779
  775MOL0     C 4515  12.662   5.616   3.722 -0.1779  0.5601 -0.3390
  775MOL0     C 4516  12.583   5.693   3.806 -0.1906 -0.3301 -0.8496
  775MOL0     C 4517  12.502   5.648   3.914 -0.5527  0.1430 -0.0432
  775MOL0     C 4518  12.434   5.760   3.999 -0.7534  0.0856 -1.2230
  775MOL0     C 4519  12.493   5.506   3.933  0.0553  1.2849 -0.5813
  775MOL0     C 4520  12.415   5.441   4.039  1.0149  1.3574  0.2155
  775MOL0     O 4521  12.384   5.311   4.017  0.3122 -0.4178 -0.4143
  775MOL0     C 4522  12.365   5.207   4.109 -0.2101  0.1427 -0.5383
  775MOL0     C 4523  12.361   5.222   4.251  0.0882  0.3724  0.4195
  775MOL0     C 4524  12.341   5.114   4.332  0.4260  0.0879 -0.1626
  775MOL0     C 4525  12.313   4.991   4.279 -0.4708 -0.3235  0.1601
  775MOL0     O 4526  12.252   4.902   4.356 -0.3553 -0.0857 -0.4725
  775MOL0     C 4527  12.323   4.772   4.361  0.5724  0.4239  0.2306
  775MOL0     C 4528  12.206   4.669   4.389 -0.4107 -0.3105 -0.9007
  775MOL0     C 4529  12.258   4.532   4.357 -0.1617 -0.3121 -0.1830
  775MOL0     C 4530  12.183   4.408   4.414 -0.3578  0.1753  0.1342
  775MOL0     C 4531  12.252   4.277   4.383 -0.2411  0.0891 -0.2717
  775MOL0     C 4532  12.168   4.156   4.430  0.4348 -0.5594 -0.3608
  775MOL0     C 4533  12.210   4.028   4.354 -0.0477  0.1404  0.0257
  775MOL0     C 4534  12.347   3.991   4.401  0.4381  0.4240 -0.7922
  775MOL0    Cl 4535  12.423   3.871   4.293 -0.0208  0.2464  0.1740
  775MOL0     C 4536  12.319   4.970   4.140  0.3461  0.0895  0.4519
  775MOL0     C 4537  12.359   5.072   4.056  0.7770  1.0095  1.1733
  775MOL0     O 4538  12.397   5.504   4.140  0.2312 -0.0431  0.6963
  775MOL0     C 4539  12.576   5.421   3.858 -1.3177 -0.3385  0.0499
  775MOL0     C 4540  12.654   5.481   3.753  0.5010  1.0379 -0.4760
  775MOL0     N 4541  12.649   6.089   3.800 -0.5710 -0.4235  0.3065
  775MOL0     N 4542  12.537   6.109   3.872 -0.4452 -0.2845  0.1491
  775MOL0     C 4543  11.645   5.934   4.527 -0.6035  0.2857  0.6169
  775MOL0     C 4544  11.583   5.817   4.575 -0.3405  0.5839  0.1849
  775MOL0     C 4545  11.413   5.421   4.704  0.0789  0.4357  0.8001
  775MOL0     C 4546  11.494   5.334   4.782  0.0266  0.1066  0.7177
  775MOL0     C 4547  11.447   5.235   4.862 -0.7017 -0.7849  0.2680
  775MOL0     C 4548  11.316   5.209   4.869 -0.2170 -0.4535 -0.0834
  775MOL0     O 4549  11.257   5.099   4.927 -0.2099  0.2579  0.1992
  775MOL0     C 4550  11.327   5.025   5.026  0.4868  0.4961  0.1523
  775MOL0     C 4551  11.396   4.911   4.946 -0.6813 -0.3453 -1.0798
  775MOL0     C 4552  11.484   4.835   5.039 -0.0344  1.0096  0.1032
  775MOL0     C 4553  11.633   4.890   5.036  0.9867  0.6718  0.1022
  775MOL0     C 4554  11.701   4.852   5.161 -0.0880  0.1269  0.2206
  775MOL0     C 4555  11.756   4.813   5.261 -0.2129 -0.3890  0.1770
  775MOL0     C 4556  11.230   5.295   4.788 -0.3012 -0.6451  0.5069
  775MOL0     C 4557  11.275   5.401   4.714  0.2848  0.8141  0.1025
  775MOL0     H 4558  11.822   5.614   4.651 -1.3631  1.1309  0.6023
  775MOL0     H 4559  11.955   5.814   4.551 -1.0494  0.1830  1.7423
  775MOL0     H 4560  12.035   6.056   4.525  1.6477 -0.2890 -0.7604
  775MOL0     H 4561  12.010   5.950   4.381 -1.7362  0.1458 -1.3904
  775MOL0     H 4562  11.966   6.124   4.244 -0.0258 -2.3098  0.5207
  775MOL0     H 4563  11.958   6.236   4.396 -2.1859 -2.5062  1.3868
  775MOL0     H 4564  12.190   6.218   4.422 -1.5081  0.7554 -0.1641
  775MOL0     H 4565  12.210   6.088   4.299  1.9014  2.7205 -5.4240
  775MOL0     H 4566  12.110   6.263   4.123  0.4116  3.1744 -1.0150
  775MOL0     H 4567  12.178   6.375   4.244  2.9094  1.1563 -1.3425
  775MOL0     H 4568  12.399   6.250   4.219  1.1381  0.5498 -0.4214
  775MOL0     H 4569  12.317   6.154   4.096  1.1120  0.3407 -1.4520
  775MOL0     H 4570  12.352   6.454   4.073 -0.6453 -0.9207 -0.4994
  775MOL0     H 4571  12.466   6.327   4.015  0.8448 -3.3982  2.4589
  775MOL0     H 4572  12.180   6.367   3.923 -0.5647  1.9393 -3.0702
  775MOL0     H 4573  12.319   6.422   3.845 -3.1393  1.8103  2.1674
  775MOL0     H 4574  12.241   6.211   3.747 -2.1972 -3.2716  1.9659
  775MOL0     H 4575  12.259   6.132   3.894  2.5469 -2.7891 -1.8147
  775MOL0     H 4576  12.453   6.228   3.579 -1.5050  1.1084  1.4514
  775MOL0     H 4577  12.734   6.197   3.495  1.3664 -0.7670 -1.9047
  775MOL0     H 4578  12.819   6.077   3.598  0.0596 -1.9320 -1.0213
  775MOL0     H 4579  12.742   5.990   3.366 -0.2084  0.9263 -0.2915
  775MOL0     H 4580  12.577   6.035   3.411 -0.2360 -1.6323 -0.3238
  775MOL0     H 4581  12.606   5.792   3.421 -0.3607 -1.0926  0.8100
  775MOL0     H 4582  12.561   5.870   3.576  3.0729 -0.7020  3.8328
  775MOL0     H 4583  12.776   5.857   3.665 -1.6195  0.7154 -1.7869
  775MOL0     H 4584  12.845   5.797   3.521  1.1852 -0.3629  1.0221
  775MOL0     H 4585  12.588   5.800   3.786 -1.1488 -0.1638 -0.2458
  775MOL0     H 4586  12.474   5.766   4.101 -2.2165 -1.9775 -0.4557
  775MOL0     H 4587  12.433   5.859   3.953  1.3888  1.0015  0.4842
  775MOL0     H 4588  12.328   5.735   4.012 -0.6430  0.6348  1.3184
  775MOL0     H 4589  12.370   5.319   4.298  0.2940 -0.5123  2.2941
  775MOL0     H 4590  12.329   5.130   4.439 -0.7614 -1.4164 -0.0325
  775MOL0     H 4591  12.381   4.748   4.272  2.1892  1.1120  1.0630
  775MOL0     H 4592  12.396   4.775   4.442  1.0709 -1.3261 -0.1093
  775MOL0     H 4593  12.180   4.668   4.495  2.9064  1.2820  0.0469
  775MOL0     H 4594  12.119   4.674   4.322  0.9684 -0.6549 -2.8171
  775MOL0     H 4595  12.358   4.538   4.399 -0.7133  0.7262  1.0604
  775MOL0     H 4596  12.275   4.518   4.249 -1.4187  1.6960 -0.7043
  775MOL0     H 4597  12.170   4.428   4.521 -0.5266 -0.6538  0.2749
  775MOL0     H 4598  12.079   4.407   4.380 -0.6130  2.0024  0.7511
  775MOL0     H 4599  12.347   4.272   4.437 -0.9620  1.4344  1.2007
  775MOL0     H 4600  12.285   4.260   4.280 -1.4728  0.4210 -0.7354
  775MOL0     H 4601  12.164   4.139   4.538 -4.2962  1.5954  0.0389
  775MOL0     H 4602  12.067   4.181   4.397 -0.2327 -0.4583  1.6600
  775MOL0     H 4603  12.228   4.063   4.252  4.3220  1.2386  0.9896
  775MOL0     H 4604  12.139   3.944   4.349  1.1599 -0.8491 -1.3722
  775MOL0     H 4605  12.339   3.946   4.500 -1.7579 -1.5819 -1.8004
  775MOL0     H 4606  12.418   4.074   4.413 -2.3370  2.8756  0.0306
  775MOL0     H 4607  12.284   4.877   4.095 -4.4101  1.2626  1.1788
  775MOL0     H 4608  12.375   5.063   3.949 -0.0412 -0.0706  1.1272
  775MOL0     H 4609  12.591   5.313   3.868  0.0750 -0.5397 -2.9825
  775MOL0     H 4610  12.714   5.407   3.701 -1.6055 -1.5626  0.5946
  775MOL0     H 4611  11.587   6.021   4.497  0.4961  1.6323  2.2046
  775MOL0     H 4612  11.477   5.835   4.592 -0.0738  3.0108 -0.3512
  775MOL0     H 4613  11.600   5.358   4.793  0.1621  2.7478 -3.7090
  775MOL0     H 4614  11.526   5.190   4.922 -0.2029  2.4655  2.3013
  775MOL0     H 4615  11.406   5.083   5.073 -0.4961  3.1003 -1.2096
  775MOL0     H 4616  11.247   4.995   5.095  0.9322  1.0583  0.9166
  775MOL0     H 4617  11.449   4.944   4.856  0.1420 -0.9817 -0.8381
  775MOL0     H 4618  11.318   4.841   4.913  2.1343 -4.3402  0.0061
  775MOL0     H 4619  11.481   4.730   5.008 -3.7706  0.7781  0.7859
  775MOL0     H 4620  11.453   4.843   5.144 -1.7248  1.4380 -0.3975
  775MOL0     H 4621  11.640   4.997   5.018 -2.2355  1.2369  1.5877
  775MOL0     H 4622  11.685   4.849   4.949 -1.4713 -4.1909  0.5756
  775MOL0     H 4623  11.811   4.783   5.348 -0.6425 -1.8163 -0.0224
  775MOL0     H 4624  11.128   5.264   4.768 -0.3431 -1.6522  2.0646
  775MOL0     H 4625  11.205   5.458   4.653 -2.0112 -4.0137 -2.3414
  776MOL0     O 4626   2.428   8.946   8.155 -0.8365 -0.1571  0.5962
  776MOL0     C 4627   2.345   8.955   8.240  0.4529 -0.8156  0.5637
  776MOL0     O 4628   2.321   8.854   8.326 -0.2995 -1.0017 -0.1612
  776MOL0     C 4629   2.391   8.737   8.335 -0.0660  0.6606 -0.7420
  776MOL0     C 4630   2.462   8.678   8.237  0.5420 -0.0711 -0.1542
  776MOL0     C 4631   2.535   8.561   8.273 -0.6714 -0.3191 -0.5707
  776MOL0     C 4632   2.539   8.500   8.400 -0.1178 -0.2501 -0.3313
  776MOL0     O 4633   2.594   8.378   8.421  0.1595  0.3715  0.6675
  776MOL0     C 4634   2.722   8.400   8.484  0.4562 -0.8023  0.5027
  776MOL0     C 4635   2.805   8.271   8.492 -0.0588 -0.6329  0.0951
  776MOL0     C 4636   2.772   8.167   8.606  0.9223 -0.3840  0.4357
  776MOL0     C 4637   2.652   8.078   8.574  0.8016  0.5327  0.0695
  776MOL0     C 4638   2.644   7.953   8.665 -0.2208  0.1233  0.4870
  776MOL0     C 4639   2.715   7.837   8.593 -0.7544 -0.9956  0.5264
  776MOL0     C 4640   2.707   7.704   8.675  1.1297 -0.2298  0.0115
  776MOL0     C 4641   2.777   7.593   8.590 -0.2216 -0.4982 -0.1817
  776MOL0     N 4642   2.928   7.613   8.604 -0.4587 -1.0033  0.6214
  776MOL0     C 4643   2.998   7.617   8.726 -0.1828  0.3737  0.4051
  776MOL0     C 4644   3.131   7.621   8.681  0.2219 -0.4561 -0.2773
  776MOL0     C 4645   3.248   7.620   8.771 -0.5082  0.1915  0.1923
  776MOL0     C 4646   3.261   7.755   8.847 -0.4861  0.3035  0.6528
  776MOL0     C 4647   3.297   7.886   8.760  0.2382  0.1702 -0.2944
  776MOL0     C 4648   3.180   7.977   8.757 -0.5920 -0.3609 -0.5766
  776MOL0     O 4649   3.218   8.089   8.674 -0.2925 -0.2863 -0.8090
  776MOL0     C 4650   3.166   8.214   8.688  0.7153  0.7864 -0.1356
  776MOL0     C 4651   3.178   8.294   8.577 -0.9867  0.5550 -0.9556
  776MOL0     C 4652   3.120   8.425   8.565 -0.1953 -0.3104 -0.9252
  776MOL0     C 4653   3.145   8.504   8.441 -0.1575  0.1012  0.4411
  776MOL0     C 4654   3.052   8.474   8.678 -1.0798 -0.2379  0.4180
  776MOL0     C 4655   3.020   8.617   8.684 -0.3862  0.2665  0.1163
  776MOL0     O 4656   2.946   8.664   8.580 -0.3368 -0.1001  0.2045
  776MOL0     C 4657   2.914   8.794   8.563 -0.0469 -0.0167 -1.0955
  776MOL0     C 4658   2.808   8.813   8.483  0.3088  0.6221  0.3368
  776MOL0     C 4659   2.762   8.941   8.442  0.4294 -0.3567 -1.6828
  776MOL0     C 4660   2.844   9.052   8.476  0.1188 -0.4881  0.6717
  776MOL0     O 4661   2.817   9.185   8.446 -0.4435 -0.7264  0.0862
  776MOL0     C 4662   2.694   9.241   8.422 -0.2054 -0.3127  0.0840
  776MOL0     C 4663   2.692   9.395   8.430  0.6683  0.4886  0.8648
  776MOL0     C 4664   2.728   9.436   8.570 -0.1961  0.2378  0.0261
  776MOL0     C 4665   2.745   9.588   8.574 -0.0721 -0.0713  1.0954
  776MOL0     C 4666   2.734   9.656   8.716  0.0918  0.3868 -0.0782
  776MOL0     C 4667   2.850   9.613   8.805 -0.2655  0.4034  0.8292
  776MOL0     C 4668   2.845   9.690   8.926  0.1392  1.0904 -0.5326
  776MOL0     C 4669   2.885   9.607   9.046  0.3780  0.2852 -0.7711
  776MOL0    Cl 4670   2.771   9.466   9.069 -0.3777  0.6218  0.5612
  776MOL0     C 4671   2.954   9.031   8.567  0.1137  0.5229 -0.2033
  776MOL0     C 4672   2.986   8.908   8.610  0.8115  0.7308 -1.3506
  776MOL0     O 4673   3.068   8.682   8.784  0.1038  0.2686 -0.1545
  776MOL0     C 4674   3.045   8.387   8.794  0.6471 -0.4025  0.5575
  776MOL0     C 4675   3.099   8.264   8.797 -0.3891  0.2295 -0.5303
  776MOL0     N 4676   3.134   7.643   8.549 -0.2014 -0.5492 -0.8577
  776MOL0     N 4677   3.017   7.645   8.510  0.2319  0.1901 -0.3266
  776MOL0     C 4678   2.482   8.565   8.491  1.0768  0.1600  0.1827
  776MOL0     C 4679   2.406   8.678   8.460 -0.7559  0.4701 -0.0474
  776MOL0     C 4680   2.260   9.074   8.232  0.5857 -0.1185  0.3839
  776MOL0     C 4681   2.293   9.189   8.151  0.2008  0.8511  0.2191
  776MOL0     C 4682   2.197   9.283   8.120  0.1709 -0.4303  0.9592
  776MOL0     C 4683   2.070   9.284   8.176 -0.0675  0.2896  0.1973
  776MOL0     O 4684   1.969   9.361   8.127 -1.0907 -0.1258 -0.6570
  776MOL0     C 4685   1.979   9.425   7.997 -0.5927 -1.1699 -0.2345
  776MOL0     C 4686   1.844   9.505   7.973 -0.5075 -0.5835  0.0995
  776MOL0     C 4687   1.802   9.601   8.092 -0.4743  0.3768  0.2596
  776MOL0     C 4688   1.663   9.670   8.065 -0.0578 -0.8925 -0.0051
  776MOL0     C 4689   1.643   9.776   8.170  0.7082  0.5858  0.9451
  776MOL0     C 4690   1.632   9.869   8.239 -0.5915 -1.0210  0.5628
  776MOL0     C 4691   2.043   9.182   8.268 -0.6231  0.3258  0.5144
  776MOL0     C 4692   2.140   9.084   8.299 -0.1410 -0.4649  0.5064
  776MOL0     H 4693   2.477   8.722   8.138  1.6289  1.6486  0.7297
  776MOL0     H 4694   2.595   8.521   8.191  0.5116 -0.4674  0.3420
  776MOL0     H 4695   2.769   8.481   8.429 -3.2499  1.9859  1.0761
  776MOL0     H 4696   2.710   8.440   8.585  0.9876 -3.3999  1.6747
  776MOL0     H 4697   2.825   8.235   8.390 -1.5858  2.1017 -1.3034
  776MOL0     H 4698   2.907   8.310   8.508 -0.3469  0.3532 -0.3472
  776MOL0     H 4699   2.860   8.104   8.618  2.1678  1.3044  0.4785
  776MOL0     H 4700   2.751   8.206   8.707 -1.6355  3.1915 -1.2348
  776MOL0     H 4701   2.562   8.132   8.604  0.5120  1.0877 -1.6775
  776MOL0     H 4702   2.624   8.059   8.470  1.5222  1.1730 -0.2540
  776MOL0     H 4703   2.708   7.981   8.750  1.4333  0.5693 -0.8452
  776MOL0     H 4704   2.541   7.927   8.691 -0.2909 -4.6363 -3.2493
  776MOL0     H 4705   2.671   7.812   8.496 -0.8525  0.9627  0.0317
  776MOL0     H 4706   2.821   7.854   8.574 -1.1204  0.6969 -0.1798
  776MOL0     H 4707   2.750   7.715   8.775 -0.6884  0.2002  0.7944
  776MOL0     H 4708   2.601   7.682   8.692  0.3575  2.0008 -1.3606
  776MOL0     H 4709   2.743   7.590   8.487 -0.0158 -1.3791 -0.2315
  776MOL0     H 4710   2.746   7.493   8.622  0.5516 -0.9957 -0.9501
  776MOL0     H 4711   2.955   7.606   8.825 -2.9581  0.6968 -0.6648
  776MOL0     H 4712   3.245   7.540   8.846 -2.0857  0.1673  0.1345
  776MOL0     H 4713   3.336   7.605   8.709 -0.3895 -2.8285  0.9190
  776MOL0     H 4714   3.340   7.748   8.923  0.6587  2.7218 -0.2071
  776MOL0     H 4715   3.163   7.767   8.894 -0.8152  0.5354 -0.0764
  776MOL0     H 4716   3.316   7.840   8.663  2.7279  0.6403 -0.1031
  776MOL0     H 4717   3.393   7.930   8.788  0.9668 -2.6152  2.0156
  776MOL0     H 4718   3.144   8.003   8.857 -0.4410 -0.5372 -0.4739
  776MOL0     H 4719   3.099   7.921   8.709 -1.1679 -1.2549  1.3661
  776MOL0     H 4720   3.242   8.271   8.492 -0.1694  3.2780 -1.1655
  776MOL0     H 4721   3.231   8.465   8.386 -0.5389 -1.4084  0.8616
  776MOL0     H 4722   3.055   8.493   8.380  0.0587  1.9282 -0.2620
  776MOL0     H 4723   3.155   8.611   8.459  1.9429 -0.1824  1.3281
  776MOL0     H 4724   2.762   8.720   8.451 -1.6555  1.0423  1.7877
  776MOL0     H 4725   2.662   8.951   8.400 -1.4933  0.2038  2.4427
  776MOL0     H 4726   2.656   9.215   8.322 -0.3699 -1.5092  0.4421
  776MOL0     H 4727   2.622   9.202   8.495 -0.9114  1.7351  0.5538
  776MOL0     H 4728   2.763   9.448   8.365 -1.6996  1.8482 -0.7764
  776MOL0     H 4729   2.593   9.432   8.401  1.3353  0.6467 -1.4477
  776MOL0     H 4730   2.815   9.380   8.607 -1.6897 -2.3688 -0.2077
  776MOL0     H 4731   2.652   9.414   8.645  1.2346 -2.8137  0.7300
  776MOL0     H 4732   2.842   9.619   8.534 -1.6010  1.7127 -1.5103
  776MOL0     H 4733   2.671   9.636   8.510  2.3559  0.0788 -1.8299
  776MOL0     H 4734   2.637   9.626   8.758  0.2773 -0.6375 -0.3709
  776MOL0     H 4735   2.736   9.763   8.693  2.3709 -0.1726 -2.9812
  776MOL0     H 4736   2.851   9.504   8.807  4.0131  0.2536  1.0575
  776MOL0     H 4737   2.945   9.631   8.753 -1.4522 -2.1867 -2.5885
  776MOL0     H 4738   2.749   9.742   8.937 -0.4020  0.1965 -0.9357
  776MOL0     H 4739   2.926   9.763   8.922  3.3997 -2.2615 -0.6968
  776MOL0     H 4740   2.870   9.675   9.130  1.8436  1.8680 -1.7182
  776MOL0     H 4741   2.991   9.582   9.035  0.3729 -1.3702  2.0022
  776MOL0     H 4742   3.021   9.111   8.596  0.1514  0.1620  0.7189
  776MOL0     H 4743   3.081   8.893   8.660  0.0249 -2.0433 -0.4728
  776MOL0     H 4744   3.000   8.436   8.880 -0.9584  0.8839 -0.9198
  776MOL0     H 4745   3.092   8.209   8.891  0.3036 -2.3001 -1.8587
  776MOL0     H 4746   2.478   8.524   8.591  1.3782 -0.8302 -0.2065
  776MOL0     H 4747   2.363   8.723   8.549 -2.3300  0.0871 -0.5827
  776MOL0     H 4748   2.391   9.188   8.104 -0.0044 -3.3692 -0.5252
  776MOL0     H 4749   2.228   9.365   8.056  1.8449  0.5689  2.9488
  776MOL0     H 4750   2.061   9.498   8.001 -2.6860  1.2916  1.1489
  776MOL0     H 4751   2.013   9.362   7.915  4.0665  1.7478 -0.9474
  776MOL0     H 4752   1.767   9.429   7.956 -0.8541  0.0434 -1.2719
  776MOL0     H 4753   1.845   9.560   7.879 -1.5487  0.4656  0.6708
  776MOL0     H 4754   1.884   9.673   8.092 -0.9622  1.0920 -3.1515
  776MOL0     H 4755   1.795   9.553   8.190 -1.4266 -1.2633 -0.5734
  776MOL0     H 4756   1.582   9.598   8.077 -1.4399  0.1613 -2.2458
  776MOL0     H 4757   1.657   9.719   7.967  1.3432  0.1993  0.4089
  776MOL0     H 4758   1.625   9.958   8.298  2.6025  0.6684 -1.3973
  776MOL0     H 4759   1.943   9.165   8.308 -0.3733  0.2654  1.1166
  776MOL0     H 4760   2.121   9.015   8.382 -2.1610  0.4779  0.8668
  777MOL0     O 4761   8.770   1.918   1.291  0.2080  0.3333  0.2619
  777MOL0     C 4762   8.882   1.947   1.256 -0.8868  0.1081 -0.1951
  777MOL0     O 4763   8.973   2.015   1.331 -0.0142 -0.0764  0.0019
  777MOL0     C 4764   8.967   2.038   1.473 -0.2283 -0.7386 -0.3825
  777MOL0     C 4765   9.060   2.134   1.522  0.4456 -0.4407 -0.4133
  777MOL0     C 4766   9.064   2.171   1.654  1.1153  0.0072 -0.0375
  777MOL0     C 4767   8.969   2.119   1.740  0.3041  0.7066  0.2381
  777MOL0     O 4768   8.965   2.177   1.859 -0.4673 -0.1741 -0.5431
  777MOL0     C 4769   8.888   2.124   1.965 -0.6785  0.2085  0.5521
  777MOL0     C 4770   8.921   1.989   2.022 -0.4316  0.6059 -0.2911
  777MOL0     C 4771   8.832   1.957   2.144 -0.0073  0.3237 -0.0501
  777MOL0     C 4772   8.859   1.814   2.199  0.2043 -0.8931 -0.2929
  777MOL0     C 4773   8.735   1.772   2.279 -0.5441 -0.8806 -0.8012
  777MOL0     C 4774   8.694   1.869   2.399 -0.5441 -0.6553  0.5392
  777MOL0     C 4775   8.572   1.795   2.456  0.2076 -0.1342 -0.3033
  777MOL0     C 4776   8.501   1.871   2.576 -0.5276 -0.6347  0.7520
  777MOL0     N 4777   8.476   2.013   2.564  0.7319 -0.0308  0.6313
  777MOL0     C 4778   8.375   2.068   2.489 -0.8103 -0.0664 -0.3471
  777MOL0     C 4779   8.405   2.204   2.490  0.4522  0.5938 -0.7098
  777MOL0     C 4780   8.335   2.303   2.404  0.1288 -0.0355 -0.3395
  777MOL0     C 4781   8.401   2.448   2.404 -0.3325 -0.0618 -0.0871
  777MOL0     C 4782   8.374   2.513   2.271  0.4126 -0.4455  0.1582
  777MOL0     C 4783   8.407   2.667   2.268 -0.8108 -1.2942 -0.0869
  777MOL0     O 4784   8.293   2.746   2.300  0.2815 -0.0008 -0.8151
  777MOL0     C 4785   8.305   2.870   2.347  0.4433  0.2255  0.1783
  777MOL0     C 4786   8.211   2.921   2.428  0.8212  0.2275 -0.2410
  777MOL0     C 4787   8.206   3.056   2.475 -0.0653  0.0693 -0.7961
  777MOL0     C 4788   8.089   3.083   2.566 -0.1121 -0.6645 -0.0591
  777MOL0     C 4789   8.314   3.153   2.430  0.6961  0.5900  0.2647
  777MOL0     C 4790   8.330   3.292   2.470 -0.0675  0.4453  0.3537
  777MOL0     O 4791   8.447   3.357   2.440 -0.7377  0.7658  0.0211
  777MOL0     C 4792   8.469   3.488   2.476 -0.2465  0.0301 -0.6857
  777MOL0     C 4793   8.481   3.544   2.605 -0.9782 -0.0371  0.1541
  777MOL0     C 4794   8.498   3.684   2.624  0.6360 -0.8444 -0.0238
  777MOL0     C 4795   8.521   3.769   2.520 -0.1271  0.2522 -0.2721
  777MOL0     O 4796   8.557   3.898   2.555 -0.3608  0.4018  0.1322
  777MOL0     C 4797   8.604   3.982   2.442  0.3170  0.5431  0.4571
  777MOL0     C 4798   8.649   4.119   2.482 -0.7350  0.4655  0.3180
  777MOL0     C 4799   8.779   4.113   2.565 -0.4365 -0.8548 -0.2748
  777MOL0     C 4800   8.786   4.240   2.647  0.5025  0.1700  0.0373
  777MOL0     C 4801   8.884   4.229   2.759 -0.1476  0.4405 -0.0699
  777MOL0     C 4802   8.877   4.335   2.863 -0.6653  0.1787 -0.3538
  777MOL0     C 4803   8.867   4.480   2.813 -0.4229 -0.7437  0.4692
  777MOL0     C 4804   8.729   4.535   2.812 -0.6328 -0.1743 -0.6052
  777MOL0    Cl 4805   8.654   4.543   2.964  0.2834  0.5006 -0.3004
  777MOL0     C 4806   8.505   3.717   2.397  0.1211  0.1361 -0.4716
  777MOL0     C 4807   8.480   3.579   2.372 -0.5462 -0.5884 -1.2073
  777MOL0     O 4808   8.234   3.343   2.524 -0.3543 -0.1075  0.3401
  777MOL0     C 4809   8.418   3.090   2.359  0.0784 -0.4131  0.3519
  777MOL0     C 4810   8.415   2.951   2.318  0.1047 -0.0631  0.6233
  777MOL0     N 4811   8.521   2.234   2.561 -0.1695  0.7122 -0.6529
  777MOL0     N 4812   8.565   2.115   2.602 -1.2801  0.4159  0.7380
  777MOL0     C 4813   8.882   2.018   1.701 -1.2126 -0.6513 -0.1911
  777MOL0     C 4814   8.885   1.973   1.571 -0.2765 -0.3161 -0.0860
  777MOL0     C 4815   8.915   1.911   1.115  0.4278 -0.0055  0.8907
  777MOL0     C 4816   9.016   1.973   1.037  0.8170 -0.8567 -0.4210
  777MOL0     C 4817   9.031   1.942   0.901  0.5737  1.2259  0.4544
  777MOL0     C 4818   8.945   1.841   0.841 -0.6038  0.0471 -1.4908
  777MOL0     O 4819   8.962   1.806   0.711 -0.2874 -0.4116 -0.6960
  777MOL0     C 4820   8.855   1.843   0.624 -0.0124 -0.0198  0.0800
  777MOL0     C 4821   8.923   1.887   0.503 -0.4624  0.6367  0.4741
  777MOL0     C 4822   8.824   1.930   0.399 -0.6473  0.2047  1.0692
  777MOL0     C 4823   8.872   2.006   0.276 -0.0520  0.0477  0.1276
  777MOL0     C 4824   8.917   2.145   0.313 -0.1166  0.5857 -0.5848
  777MOL0     C 4825   8.952   2.253   0.331 -0.2515 -0.4661  0.0413
  777MOL0     C 4826   8.860   1.773   0.925  0.5052  0.4760 -0.5586
  777MOL0     C 4827   8.839   1.810   1.054  0.0915 -0.2852  1.0363
  777MOL0     H 4828   9.130   2.183   1.456  1.2673  1.0657  1.4675
  777MOL0     H 4829   9.146   2.237   1.682  1.0908  0.5344 -1.1462
  777MOL0     H 4830   8.891   2.187   2.054  0.0744 -2.0163  2.1968
  777MOL0     H 4831   8.782   2.129   1.937 -0.4676 -1.1058 -0.6303
  777MOL0     H 4832   8.907   1.919   1.939  2.3046 -1.5519  0.8931
  777MOL0     H 4833   9.022   1.975   2.064 -0.5527  3.3270  1.1937
  777MOL0     H 4834   8.842   2.027   2.228 -1.9146 -0.9974  1.3642
  777MOL0     H 4835   8.727   1.963   2.112 -0.4906 -0.0367  1.4100
  777MOL0     H 4836   8.891   1.744   2.121  1.3354  1.3737 -1.9674
  777MOL0     H 4837   8.945   1.821   2.266  1.1739  1.9091 -1.6971
  777MOL0     H 4838   8.649   1.744   2.217 -1.1091 -2.0331  0.4693
  777MOL0     H 4839   8.761   1.676   2.325 -1.3909 -0.1573  1.2864
  777MOL0     H 4840   8.778   1.891   2.466  0.9274  0.2316 -1.4783
  777MOL0     H 4841   8.666   1.964   2.352  0.3308 -1.6764 -2.2264
  777MOL0     H 4842   8.491   1.768   2.387 -0.4150  2.3180 -0.6209
  777MOL0     H 4843   8.612   1.702   2.497 -3.5138 -3.0807 -2.5984
  777MOL0     H 4844   8.582   1.868   2.650  2.2041  4.5380 -1.4877
  777MOL0     H 4845   8.407   1.819   2.597 -1.5303  0.1016 -1.5769
  777MOL0     H 4846   8.289   2.026   2.438 -2.0515  2.4849 -0.5114
  777MOL0     H 4847   8.346   2.254   2.307  3.2313  0.3405 -0.3055
  777MOL0     H 4848   8.230   2.307   2.432 -0.1295  1.0657 -1.4048
  777MOL0     H 4849   8.509   2.441   2.423  0.0885 -1.6611 -2.6088
  777MOL0     H 4850   8.351   2.521   2.468  1.2407  3.3464 -2.4466
  777MOL0     H 4851   8.271   2.495   2.238 -0.9541  4.1037  1.1550
  777MOL0     H 4852   8.449   2.467   2.206 -0.0481 -2.9646  1.3103
  777MOL0     H 4853   8.418   2.704   2.166  0.2880 -1.9676 -0.2210
  777MOL0     H 4854   8.490   2.686   2.336 -0.3835 -2.1367 -0.3651
  777MOL0     H 4855   8.135   2.855   2.469  1.1458 -0.0215 -0.0346
  777MOL0     H 4856   8.099   3.171   2.630 -1.4339 -1.3566  1.1582
  777MOL0     H 4857   7.994   3.090   2.512  0.8275  0.6724 -1.6122
  777MOL0     H 4858   8.084   3.002   2.640 -4.5807 -0.8680 -0.3104
  777MOL0     H 4859   8.467   3.472   2.686 -1.7851 -0.7598 -0.6108
  777MOL0     H 4860   8.508   3.724   2.725  2.0996  1.1170 -0.8915
  777MOL0     H 4861   8.686   3.926   2.396 -1.1791 -1.4699  0.0865
  777MOL0     H 4862   8.535   3.980   2.357  2.1405 -1.7247 -1.0939
  777MOL0     H 4863   8.666   4.179   2.391 -2.6223 -0.3587 -0.6371
  777MOL0     H 4864   8.564   4.169   2.530 -0.7449  2.5490 -1.6612
  777MOL0     H 4865   8.859   4.115   2.491 -1.0049  0.7831 -0.8952
  777MOL0     H 4866   8.776   4.022   2.626  0.6212 -0.5083  0.3086
  777MOL0     H 4867   8.817   4.319   2.578 -0.2187 -0.4583 -1.0201
  777MOL0     H 4868   8.687   4.269   2.684 -0.4676  0.3363 -2.4988
  777MOL0     H 4869   8.980   4.236   2.707  0.1808  2.0128  0.6734
  777MOL0     H 4870   8.861   4.139   2.817 -3.0892  0.3700 -1.1932
  777MOL0     H 4871   8.795   4.315   2.934  0.5139 -3.3210  0.2076
  777MOL0     H 4872   8.961   4.342   2.932 -3.1738 -0.0600  3.0245
  777MOL0     H 4873   8.896   4.472   2.708 -2.4466 -2.0655 -0.0482
  777MOL0     H 4874   8.933   4.532   2.883 -0.6026 -0.1466  0.1936
  777MOL0     H 4875   8.662   4.486   2.742  0.7018  1.5703 -3.2687
  777MOL0     H 4876   8.738   4.638   2.777  2.4640  0.5795  1.8817
  777MOL0     H 4877   8.522   3.774   2.306 -0.0613  0.6407 -0.1892
  777MOL0     H 4878   8.484   3.552   2.267 -0.7788 -0.9886 -1.1159
  777MOL0     H 4879   8.504   3.151   2.336  0.2166 -0.2600  1.2286
  777MOL0     H 4880   8.514   2.920   2.283  0.2514  1.9133 -0.8560
  777MOL0     H 4881   8.799   1.987   1.764 -1.5819  1.0488  0.2205
  777MOL0     H 4882   8.817   1.895   1.538 -1.2937 -0.0258  1.2307
  777MOL0     H 4883   9.084   2.043   1.085  2.6307 -2.7915 -0.0024
  777MOL0     H 4884   9.109   1.991   0.844 -0.0250  0.4872 -1.0495
  777MOL0     H 4885   8.797   1.751   0.613  2.3891 -1.6416 -0.0112
  777MOL0     H 4886   8.802   1.933   0.657  0.9027  1.5004 -2.3076
  777MOL0     H 4887   8.990   1.810   0.465 -3.6070 -1.8677 -0.4343
  777MOL0     H 4888   8.989   1.970   0.531 -0.3746 -0.1063  2.6880
  777MOL0     H 4889   8.748   1.994   0.445 -1.9039 -0.9777  0.7010
  777MOL0     H 4890   8.781   1.835   0.365 -0.3428 -0.2558  1.9353
  777MOL0     H 4891   8.789   2.008   0.204 -0.4947  1.0087  0.6560
  777MOL0     H 4892   8.956   1.949   0.237 -2.3337 -0.1912 -5.3153
  777MOL0     H 4893   8.967   2.358   0.349  0.1715 -0.6048  0.5167
  777MOL0     H 4894   8.807   1.694   0.872 -0.4121  2.5174 -2.8435
  777MOL0     H 4895   8.776   1.740   1.109  0.9539  0.5525  3.2090
  778MOL0     O 4896   3.551   8.850   3.904  0.2644  0.1712  0.0957
  778MOL0     C 4897   3.432   8.844   3.861  0.1029 -0.2200  0.2663
  778MOL0     O 4898   3.334   8.937   3.878  1.2624 -0.1398 -0.0560
  778MOL0     C 4899   3.338   9.045   3.964 -0.0240 -0.5313  0.8469
  778MOL0     C 4900   3.444   9.121   4.000 -0.3672  0.1391  0.3144
  778MOL0     C 4901   3.420   9.247   4.053 -0.5393 -0.1014 -0.3029
  778MOL0     C 4902   3.283   9.302   4.077 -0.7441  0.3155  0.7610
  778MOL0     O 4903   3.246   9.429   4.111 -0.2497 -0.0608  0.5799
  778MOL0     C 4904   3.362   9.520   4.135 -0.7345 -0.5704 -0.6266
  778MOL0     C 4905   3.310   9.659   4.184 -0.0853  0.4917  0.0413
  778MOL0     C 4906   3.421   9.753   4.227  0.2826  0.6348  0.6707
  778MOL0     C 4907   3.468   9.727   4.369 -0.6919  0.2620 -0.2145
  778MOL0     C 4908   3.562   9.840   4.414  0.2561 -0.3876  0.3398
  778MOL0     C 4909   3.619   9.799   4.553  0.0252  0.0379 -0.3747
  778MOL0     C 4910   3.720   9.907   4.601 -0.1528 -0.3943  0.3169
  778MOL0     C 4911   3.819   9.844   4.697  0.3986  0.3215 -0.3404
  778MOL0     N 4912   3.886   9.940   4.787  0.3760  0.9451  0.7860
  778MOL0     C 4913   4.001   9.912   4.859  0.2121  0.8523  0.1856
  778MOL0     C 4914   4.051  10.024   4.904  0.0751 -1.0387  0.5986
  778MOL0     C 4915   4.184  10.035   4.973  0.0068 -0.3240  0.2423
  778MOL0     C 4916   4.179  10.053   5.121 -0.1349  1.0951  0.5335
  778MOL0     C 4917   4.125  10.184   5.172  0.7668 -0.0650 -0.4501
  778MOL0     C 4918   4.162  10.227   5.310  1.0508 -0.1638 -0.2263
  778MOL0     O 4919   4.078  10.332   5.359  0.0994 -0.4131 -0.3362
  778MOL0     C 4920   4.093  10.377   5.486  0.3162 -0.4945 -0.5939
  778MOL0     C 4921   3.991  10.449   5.546  0.2564  0.4471 -1.0867
  778MOL0     C 4922   4.003  10.493   5.688 -0.0474  0.0787  0.2459
  778MOL0     C 4923   3.883  10.557   5.749  0.1320  0.3922 -0.6459
  778MOL0     C 4924   4.128  10.478   5.755  0.5381 -0.2565 -0.4190
  778MOL0     C 4925   4.157  10.523   5.888 -0.2034  0.2383  0.0258
  778MOL0     O 4926   4.286  10.519   5.935 -0.1187  0.0118  0.1088
  778MOL0     C 4927   4.304  10.556   6.071 -0.1667 -0.5392 -0.1548
  778MOL0     C 4928   4.371  10.680   6.093  0.0322 -0.1157 -0.8039
  778MOL0     C 4929   4.411  10.707   6.226 -0.5704 -0.3013  0.8642
  778MOL0     C 4930   4.375  10.635   6.333 -0.3998  0.1383 -0.3380
  778MOL0     O 4931   4.432  10.672   6.453 -0.4252 -0.0078  0.0043
  778MOL0     C 4932   4.346  10.681   6.566  0.5336  0.3341 -0.4784
  778MOL0     C 4933   4.422  10.751   6.684  0.3366 -0.5061  0.1262
  778MOL0     C 4934   4.510  10.643   6.762  0.5631  0.6367  0.7863
  778MOL0     C 4935   4.575  10.708   6.881  0.5673 -0.3186  0.5970
  778MOL0     C 4936   4.652  10.623   6.971  1.3919  0.3117 -0.2848
  778MOL0     C 4937   4.727  10.690   7.093 -1.2625 -0.0391  0.9248
  778MOL0     C 4938   4.636  10.768   7.186 -0.5629  0.0008 -0.2503
  778MOL0     C 4939   4.707  10.811   7.314  0.0455 -0.5790  0.4270
  778MOL0    Cl 4940   4.695  10.684   7.438 -0.1969 -0.6550 -0.1454
  778MOL0     C 4941   4.300  10.515   6.311  0.1746 -0.2273 -0.1478
  778MOL0     C 4942   4.270  10.481   6.182 -0.1655  0.0494  0.1241
  778MOL0     O 4943   4.059  10.542   5.966  0.4103  0.2318  0.4242
  778MOL0     C 4944   4.229  10.400   5.689 -1.1578 -0.1085 -1.1836
  778MOL0     C 4945   4.204  10.340   5.562  0.2700 -0.2165  0.7583
  778MOL0     N 4946   3.979  10.132   4.844 -0.4286 -0.4543  0.3406
  778MOL0     N 4947   3.880  10.079   4.778  0.5017 -0.4153 -0.3732
  778MOL0     C 4948   3.183   9.216   4.050 -0.6346 -0.2820 -0.1858
  778MOL0     C 4949   3.207   9.086   3.999  0.4835 -0.0928 -0.0662
  778MOL0     C 4950   3.380   8.716   3.818  0.1240 -0.1114  0.8207
  778MOL0     C 4951   3.249   8.709   3.766  0.7670  0.1162  0.5093
  778MOL0     C 4952   3.199   8.588   3.719 -0.1785  0.5692  0.6858
  778MOL0     C 4953   3.271   8.471   3.744 -0.2985 -0.3757 -1.1067
  778MOL0     O 4954   3.238   8.351   3.694  0.5866  1.1528 -0.1783
  778MOL0     C 4955   3.119   8.289   3.761  0.1625  0.4351 -0.2124
  778MOL0     C 4956   3.127   8.139   3.730  0.2574 -0.4470 -0.1574
  778MOL0     C 4957   3.037   8.050   3.818 -0.0059 -0.4980  1.1274
  778MOL0     C 4958   2.996   7.921   3.751 -0.1813  0.3095  0.1576
  778MOL0     C 4959   2.874   7.874   3.817 -0.1724  0.2188  0.5931
  778MOL0     C 4960   2.763   7.844   3.871 -0.0643 -0.2006  0.3378
  778MOL0     C 4961   3.404   8.482   3.788 -0.4038 -0.2492 -0.1141
  778MOL0     C 4962   3.460   8.599   3.826 -0.5140 -0.1305  0.8848
  778MOL0     H 4963   3.545   9.097   3.970 -0.7605 -0.5981 -0.4911
  778MOL0     H 4964   3.503   9.316   4.062  0.3535 -1.4080  2.8633
  778MOL0     H 4965   3.426   9.484   4.217 -3.2023 -0.6995  1.3692
  778MOL0     H 4966   3.424   9.546   4.049 -2.3979  2.7251 -0.9964
  778MOL0     H 4967   3.249   9.706   4.106  1.5554  0.3002 -1.4416
  778MOL0     H 4968   3.242   9.631   4.264 -0.8093 -3.8731 -1.7864
  778MOL0     H 4969   3.506   9.760   4.159  1.8866  1.7418  2.6504
  778MOL0     H 4970   3.372   9.850   4.211 -0.4287  0.1014 -0.4610
  778MOL0     H 4971   3.381   9.721   4.435  0.2198 -0.9299  0.9375
  778MOL0     H 4972   3.526   9.634   4.370  1.9365  1.8161  0.8646
  778MOL0     H 4973   3.636   9.865   4.338  1.7268 -0.4142  1.7054
  778MOL0     H 4974   3.502   9.930   4.432 -0.3751 -1.0344  1.6443
  778MOL0     H 4975   3.543   9.780   4.629  1.6975 -4.0526  0.5887
  778MOL0     H 4976   3.663   9.702   4.528  2.6713  0.5218  1.8950
  778MOL0     H 4977   3.788   9.958   4.532 -1.1964  2.6338  1.3582
  778MOL0     H 4978   3.662   9.987   4.648  2.1651  0.8073  1.2926
  778MOL0     H 4979   3.899   9.797   4.639 -1.9332 -2.3769 -1.6281
  778MOL0     H 4980   3.772   9.774   4.766  0.7148 -0.9586 -1.3724
  778MOL0     H 4981   4.039   9.810   4.867 -3.2386 -0.9396 -3.0093
  778MOL0     H 4982   4.220   9.932   4.959 -3.5991 -1.7274  0.2304
  778MOL0     H 4983   4.243  10.120   4.937 -0.7162  1.0879  2.2615
  778MOL0     H 4984   4.269  10.023   5.174  1.3186 -1.0344 -2.8339
  778MOL0     H 4985   4.115   9.973   5.159 -2.3023  2.8498  0.8212
  778MOL0     H 4986   4.018  10.179   5.153  0.9957 -0.5904 -1.6848
  778MOL0     H 4987   4.160  10.258   5.100  0.4881 -0.2287 -0.7517
  778MOL0     H 4988   4.268  10.252   5.303  0.3590  3.9784  1.2451
  778MOL0     H 4989   4.143  10.144   5.379  0.1091 -0.5739 -0.9515
  778MOL0     H 4990   3.907  10.468   5.479  1.3290 -0.5405 -2.7786
  778MOL0     H 4991   3.803  10.562   5.674 -0.7170 -1.7707  0.0326
  778MOL0     H 4992   3.855  10.486   5.827  1.4057 -0.9735 -1.3809
  778MOL0     H 4993   3.880  10.654   5.798 -1.9129 -0.2022  0.5525
  778MOL0     H 4994   4.404  10.748   6.015 -0.3288  0.7106 -0.2419
  778MOL0     H 4995   4.466  10.800   6.240  0.8394 -1.0938  0.7515
  778MOL0     H 4996   4.267  10.749   6.533 -0.2262 -0.3027 -0.0006
  778MOL0     H 4997   4.320  10.579   6.597  0.6224 -0.4236 -2.7180
  778MOL0     H 4998   4.499  10.821   6.651 -0.7914 -0.8073 -3.6608
  778MOL0     H 4999   4.347  10.799   6.747 -1.0027 -1.9003 -0.3225
  778MOL0     H 5000   4.587  10.597   6.699  0.6392  0.3025  1.1207
  778MOL0     H 5001   4.447  10.564   6.803 -0.1016 -1.0864 -3.0947
  778MOL0     H 5002   4.643  10.787   6.848  0.5495 -0.6304 -0.2215
  778MOL0     H 5003   4.498  10.758   6.940  3.0267  2.2762  1.8410
  778MOL0     H 5004   4.713  10.557   6.908 -0.1387  0.7018 -2.2789
  778MOL0     H 5005   4.573  10.558   7.009  2.8263 -1.3311  0.0610
  778MOL0     H 5006   4.779  10.603   7.135 -1.5725 -2.1881 -2.7072
  778MOL0     H 5007   4.810  10.754   7.063 -2.3182  1.6439  1.4574
  778MOL0     H 5008   4.549  10.716   7.227 -1.3896  0.7257 -1.0596
  778MOL0     H 5009   4.606  10.863   7.142  2.4172  0.3827 -1.6594
  778MOL0     H 5010   4.670  10.906   7.355  4.5743  1.5262  0.2590
  778MOL0     H 5011   4.813  10.826   7.294 -0.6631  0.9584 -2.8036
  778MOL0     H 5012   4.288  10.435   6.384  1.8914  0.2340  0.6945
  778MOL0     H 5013   4.217  10.387   6.169  1.0327 -0.7465  0.8076
  778MOL0     H 5014   4.323  10.383   5.740  0.0566  1.3810 -2.7992
  778MOL0     H 5015   4.280  10.274   5.521  0.7894 -1.2530  3.2050
  778MOL0     H 5016   3.085   9.263   4.056 -1.2386 -1.6410  3.4710
  778MOL0     H 5017   3.116   9.036   3.969  0.6316 -0.3000 -0.1671
  778MOL0     H 5018   3.189   8.796   3.743  0.7045 -0.7169 -3.0244
  778MOL0     H 5019   3.110   8.587   3.657  0.0353  1.2018  0.3660
  778MOL0     H 5020   3.109   8.304   3.869 -1.9183 -2.7061  0.1553
  778MOL0     H 5021   3.026   8.322   3.715 -1.2638 -3.5219 -0.5539
  778MOL0     H 5022   3.230   8.102   3.724  0.4166  0.1765 -4.0279
  778MOL0     H 5023   3.113   8.137   3.621  2.0876 -0.0022 -0.4274
  778MOL0     H 5024   2.948   8.104   3.853 -0.5103 -0.2559 -0.4569
  778MOL0     H 5025   3.102   8.018   3.900  0.9178  0.2009  0.6907
  778MOL0     H 5026   3.083   7.855   3.761  0.1571  0.2772 -2.3866
  778MOL0     H 5027   2.982   7.930   3.643 -1.8970  2.7985  0.5216
  778MOL0     H 5028   2.668   7.817   3.914 -0.3521  0.3368  0.0605
  778MOL0     H 5029   3.471   8.399   3.767 -0.2589  0.1083 -1.1790
  778MOL0     H 5030   3.565   8.600   3.852 -0.0019  0.6672 -0.9904
  779MOL0     O 5031   3.017   5.948   6.970  0.0849  0.1615  0.0321
  779MOL0     C 5032   2.967   6.030   7.045 -0.2217 -0.3864  0.2480
  779MOL0     O 5033   3.026   6.154   7.075  0.8890  0.2461  0.1480
  779MOL0     C 5034   3.136   6.181   7.000  0.5188 -0.2930 -0.6665
  779MOL0     C 5035   3.246   6.228   7.073 -0.0438 -0.9379 -0.2610
  779MOL0     C 5036   3.369   6.263   7.012 -0.7752 -0.1424  0.8746
  779MOL0     C 5037   3.381   6.245   6.872  0.8960 -0.1743 -0.3557
  779MOL0     O 5038   3.497   6.285   6.810 -0.1808  0.0105 -0.9052
  779MOL0     C 5039   3.623   6.264   6.877 -0.2882 -0.3100 -0.0153
  779MOL0     C 5040   3.741   6.220   6.778  0.2770  0.2172  0.5914
  779MOL0     C 5041   3.756   6.306   6.646  0.4500 -0.1444  0.1035
  779MOL0     C 5042   3.778   6.452   6.665 -0.4961  0.2324  0.3609
  779MOL0     C 5043   3.815   6.530   6.528  0.0199  0.0419  0.9399
  779MOL0     C 5044   3.716   6.518   6.422 -0.1119 -0.1022  0.5419
  779MOL0     C 5045   3.776   6.544   6.276 -1.0241 -0.3741  1.1392
  779MOL0     C 5046   3.803   6.687   6.234 -0.1928 -0.1405 -0.2448
  779MOL0     N 5047   3.679   6.779   6.225 -0.8653  0.1945 -0.0155
  779MOL0     C 5048   3.593   6.778   6.119 -0.4707  0.0692  0.4322
  779MOL0     C 5049   3.505   6.866   6.161 -0.4510  0.8414 -0.7647
  779MOL0     C 5050   3.388   6.900   6.078 -0.1986 -0.9029 -0.2393
  779MOL0     C 5051   3.264   6.872   6.155 -0.4698 -0.0729 -0.1930
  779MOL0     C 5052   3.138   6.892   6.065 -0.5801 -0.6641 -0.6896
  779MOL0     C 5053   3.136   7.044   6.023  1.0353 -0.1670 -0.0103
  779MOL0     O 5054   3.194   7.050   5.900 -0.4918  1.0593 -0.3510
  779MOL0     C 5055   3.182   7.179   5.854  0.6296  0.4237 -0.2146
  779MOL0     C 5056   3.076   7.219   5.774 -0.5165  0.1907 -0.1962
  779MOL0     C 5057   3.066   7.343   5.718 -1.3326  0.9777 -0.2358
  779MOL0     C 5058   2.950   7.357   5.632  0.5543  0.0921  0.6937
  779MOL0     C 5059   3.163   7.444   5.749  0.2081  0.6213  0.0942
  779MOL0     C 5060   3.158   7.582   5.703  0.3574  0.2589  0.2542
  779MOL0     O 5061   3.272   7.647   5.724  0.3374 -0.7165  0.1867
  779MOL0     C 5062   3.282   7.780   5.696  0.9537  0.7588  1.0088
  779MOL0     C 5063   3.402   7.814   5.631 -0.6541  0.6740 -0.1311
  779MOL0     C 5064   3.430   7.949   5.602 -1.5406 -0.0558  0.3129
  779MOL0     C 5065   3.340   8.050   5.652 -0.1080 -0.3980 -0.3757
  779MOL0     O 5066   3.360   8.187   5.625 -0.1080  0.2693 -0.6301
  779MOL0     C 5067   3.493   8.232   5.645 -0.1490  0.1160 -0.8919
  779MOL0     C 5068   3.480   8.375   5.609  0.2714 -0.3283  0.3600
  779MOL0     C 5069   3.620   8.450   5.599  0.7309  0.1109 -0.7866
  779MOL0     C 5070   3.610   8.581   5.526  0.1162 -0.6279  0.2205
  779MOL0     C 5071   3.748   8.647   5.546 -0.3577 -0.2471 -0.2174
  779MOL0     C 5072   3.763   8.778   5.454 -0.2898 -0.6227 -0.2960
  779MOL0     C 5073   3.708   8.775   5.307  0.8777  0.2350 -0.2970
  779MOL0     C 5074   3.746   8.892   5.215  0.2797 -0.2237  0.3126
  779MOL0    Cl 5075   3.657   9.037   5.240 -0.0199  0.3353  0.3308
  779MOL0     C 5076   3.217   8.019   5.711 -0.2143  0.2665 -0.1391
  779MOL0     C 5077   3.187   7.877   5.732 -0.6413 -0.2430 -1.0624
  779MOL0     O 5078   3.063   7.624   5.631 -0.2074 -0.1651 -0.1143
  779MOL0     C 5079   3.249   7.410   5.844 -0.1644 -0.2581 -1.3854
  779MOL0     C 5080   3.270   7.275   5.893 -0.3527  0.4247 -0.3643
  779MOL0     N 5081   3.539   6.923   6.279 -0.8565  0.3711  0.3747
  779MOL0     N 5082   3.652   6.876   6.319 -0.0355  1.1920  0.9366
  779MOL0     C 5083   3.272   6.205   6.795  0.7124  0.5443  0.0668
  779MOL0     C 5084   3.148   6.169   6.862  0.1033  0.0426 -0.4616
  779MOL0     C 5085   2.838   6.008   7.110 -0.4387  0.1804  0.2692
  779MOL0     C 5086   2.782   6.092   7.204 -0.5571 -0.0189  0.2588
  779MOL0     C 5087   2.656   6.080   7.255  0.9403 -0.1920 -0.2723
  779MOL0     C 5088   2.569   5.989   7.207  0.2325 -0.3439  0.5304
  779MOL0     O 5089   2.441   5.958   7.253 -0.6769 -0.2778  0.0020
  779MOL0     C 5090   2.358   6.068   7.281  0.0377  0.2645 -0.2651
  779MOL0     C 5091   2.334   6.154   7.148  0.1948  0.8456 -0.2023
  779MOL0     C 5092   2.262   6.076   7.029  0.0043  0.8436 -1.0251
  779MOL0     C 5093   2.225   6.160   6.905  0.0162  0.8097 -0.3078
  779MOL0     C 5094   2.172   6.080   6.789 -0.9406  0.2389 -0.4206
  779MOL0     C 5095   2.125   6.010   6.708 -0.3344  0.3576  1.2622
  779MOL0     C 5096   2.625   5.893   7.114  0.5634  0.6284 -0.4395
  779MOL0     C 5097   2.761   5.901   7.069  0.5596 -0.0811  0.2616
  779MOL0     H 5098   3.243   6.257   7.177 -2.0194 -1.7096 -0.0683
  779MOL0     H 5099   3.447   6.317   7.064  0.0918 -3.1216  2.9781
  779MOL0     H 5100   3.643   6.360   6.926 -1.7459 -0.1048  0.2092
  779MOL0     H 5101   3.611   6.184   6.950 -3.5047 -1.5111 -1.6779
  779MOL0     H 5102   3.837   6.223   6.831 -0.3435 -0.3926  1.7817
  779MOL0     H 5103   3.716   6.120   6.742 -2.0873  0.3997  1.5310
  779MOL0     H 5104   3.842   6.261   6.595  1.3217 -1.1211  2.3323
  779MOL0     H 5105   3.670   6.296   6.579  1.8730 -1.3934 -1.6447
  779MOL0     H 5106   3.695   6.512   6.704 -1.0095 -0.4064  0.2593
  779MOL0     H 5107   3.858   6.474   6.737  1.3004  0.8021 -1.7149
  779MOL0     H 5108   3.840   6.635   6.542 -0.4410 -0.0095  2.3804
  779MOL0     H 5109   3.911   6.486   6.500 -0.9507 -2.4766  1.3049
  779MOL0     H 5110   3.669   6.419   6.421 -0.7576  0.1973  0.0323
  779MOL0     H 5111   3.640   6.588   6.455 -1.0928 -1.3714  1.0506
  779MOL0     H 5112   3.865   6.483   6.257 -0.6080  1.2534 -3.2462
  779MOL0     H 5113   3.702   6.503   6.207 -0.0117  0.1223 -0.2701
  779MOL0     H 5114   3.857   6.687   6.139  0.4844  0.2874  0.1295
  779MOL0     H 5115   3.863   6.730   6.314 -0.7311 -0.3624  0.2881
  779MOL0     H 5116   3.576   6.704   6.041 -0.7002  1.0064 -0.4264
  779MOL0     H 5117   3.387   7.009   6.087  0.2367 -0.8220 -1.0427
  779MOL0     H 5118   3.394   6.857   5.978 -2.0599 -2.4521  0.2622
  779MOL0     H 5119   3.257   6.944   6.238 -2.8585 -1.5421  0.9788
  779MOL0     H 5120   3.275   6.777   6.207  1.7331  1.9138  3.4728
  779MOL0     H 5121   3.048   6.867   6.121 -0.2075 -1.4530 -0.4343
  779MOL0     H 5122   3.156   6.825   5.980  2.0080 -1.9274  0.7536
  779MOL0     H 5123   3.178   7.116   6.094  0.7376 -1.8148  1.9412
  779MOL0     H 5124   3.032   7.075   6.011  0.9140 -0.8111 -0.6772
  779MOL0     H 5125   3.011   7.139   5.738  1.0082 -0.9379 -0.5651
  779MOL0     H 5126   2.881   7.437   5.661 -0.8934 -1.1149  0.6857
  779MOL0     H 5127   2.977   7.388   5.531  1.1594  1.2978  1.1971
  779MOL0     H 5128   2.878   7.276   5.642  0.9754 -0.4680 -0.6502
  779MOL0     H 5129   3.465   7.725   5.629  0.1745  1.1635  1.7546
  779MOL0     H 5130   3.529   7.969   5.560 -1.2580  0.2422  1.0993
  779MOL0     H 5131   3.529   8.232   5.748  0.0234  0.5414 -0.9501
  779MOL0     H 5132   3.564   8.186   5.575  0.0874  0.9178 -1.1847
  779MOL0     H 5133   3.434   8.391   5.512 -0.2565  1.4506  0.8703
  779MOL0     H 5134   3.420   8.416   5.691  0.1607 -1.5119  0.9023
  779MOL0     H 5135   3.681   8.392   5.528  1.3877 -0.3874  0.1691
  779MOL0     H 5136   3.665   8.464   5.697 -0.6082  2.7373 -0.4670
  779MOL0     H 5137   3.585   8.566   5.420 -0.2003 -0.4261  0.2661
  779MOL0     H 5138   3.539   8.653   5.568  0.9068  0.7576 -0.7141
  779MOL0     H 5139   3.831   8.589   5.506 -1.2755 -2.0853  0.4282
  779MOL0     H 5140   3.760   8.662   5.653 -3.6493 -0.6586  0.3274
  779MOL0     H 5141   3.720   8.870   5.494  1.8520  2.0303 -3.5634
  779MOL0     H 5142   3.869   8.801   5.449 -0.5884  0.6256 -1.6840
  779MOL0     H 5143   3.599   8.768   5.306  0.6860  1.9498  1.4986
  779MOL0     H 5144   3.745   8.684   5.259 -1.0769 -1.1411  0.6695
  779MOL0     H 5145   3.724   8.851   5.116 -2.7339 -0.2611  0.8909
  779MOL0     H 5146   3.851   8.920   5.221 -0.0613  1.4467 -0.6271
  779MOL0     H 5147   3.167   8.108   5.747 -1.2387  0.8322 -2.8108
  779MOL0     H 5148   3.100   7.842   5.787  2.7913 -4.7206  2.2695
  779MOL0     H 5149   3.311   7.487   5.889  0.4807 -2.5168  2.0119
  779MOL0     H 5150   3.352   7.243   5.956 -0.3165 -1.4615 -1.2923
  779MOL0     H 5151   3.295   6.216   6.690 -0.6845  0.3218 -0.2859
  779MOL0     H 5152   3.069   6.137   6.795  1.5272 -1.5431 -1.4917
  779MOL0     H 5153   2.846   6.171   7.242  0.3225 -1.1550  1.2541
  779MOL0     H 5154   2.627   6.143   7.339 -2.4303  0.5576 -1.8036
  779MOL0     H 5155   2.264   6.036   7.327  0.8401  0.0874  1.3256
  779MOL0     H 5156   2.414   6.137   7.346 -0.7057  1.7250 -1.1354
  779MOL0     H 5157   2.432   6.194   7.120  0.5059  2.6307  2.9974
  779MOL0     H 5158   2.269   6.241   7.158 -2.1370 -0.6209 -1.6004
  779MOL0     H 5159   2.177   6.021   7.071  0.5332  1.0322  0.3339
  779MOL0     H 5160   2.338   6.003   7.001  1.3577  1.9998 -0.4611
  779MOL0     H 5161   2.318   6.212   6.882  3.5275 -3.1235  3.2102
  779MOL0     H 5162   2.146   6.231   6.932 -1.5362 -0.4700 -1.2935
  779MOL0     H 5163   2.086   5.941   6.635 -2.9352  2.0282  0.9356
  779MOL0     H 5164   2.575   5.800   7.089  3.6455 -0.9203 -1.4220
  779MOL0     H 5165   2.800   5.817   7.013 -0.4920  1.3697 -2.8896
  780MOL0     O 5166  10.999   0.277  10.724 -0.1878  0.0061 -0.4839
  780MOL0     C 5167  10.883   0.326  10.717 -0.5016  0.2841 -0.1206
  780MOL0     O 5168  10.830   0.419  10.625 -0.0762 -0.2060 -0.7605
  780MOL0     C 5169  10.905   0.470  10.526  0.1473  0.4801 -0.6499
  780MOL0     C 5170  11.042   0.466  10.495 -0.3699 -0.1695 -0.3708
  780MOL0     C 5171  11.102   0.518  10.376  0.0079  0.2398  0.6878
  780MOL0     C 5172  11.016   0.583  10.287  0.1312 -0.5680  1.0588
  780MOL0     O 5173  11.058   0.670  10.189 -0.6488 -0.2566 -0.1285
  780MOL0     C 5174  11.195   0.722  10.181  0.0657  1.1142 -0.7824
  780MOL0     C 5175  11.217   0.793  10.051  0.2159  0.9166 -0.8311
  780MOL0     C 5176  11.338   0.891  10.074  0.8612  0.6029 -0.3482
  780MOL0     C 5177  11.470   0.831  10.012  0.4592  0.4417  0.6161
  780MOL0     C 5178  11.594   0.914  10.048 -0.6562 -0.8473  0.7241
  780MOL0     C 5179  11.565   1.064  10.001  0.6927  0.1378 -0.2284
  780MOL0     C 5180  11.689   1.151  10.024  0.3606 -0.0202 -0.3169
  780MOL0     C 5181  11.704   1.231  10.163  0.2973 -0.6453  0.6782
  780MOL0     N 5182  11.710   1.154  10.277 -0.3719 -0.0435 -0.9962
  780MOL0     C 5183  11.816   1.097  10.349  0.1629  1.0260 -0.5685
  780MOL0     C 5184  11.755   1.013  10.435 -0.8166 -0.4315 -0.5840
  780MOL0     C 5185  11.809   0.934  10.536 -0.2533 -1.0734  0.2033
  780MOL0     C 5186  11.918   0.994  10.634  1.0887  0.1272 -0.7283
  780MOL0     C 5187  12.058   0.965  10.583  0.3151  0.1377 -1.2418
  780MOL0     C 5188  12.161   0.974  10.696  0.4477 -1.1798  0.0617
  780MOL0     O 5189  12.132   0.876  10.790 -0.1020  0.6870  0.2431
  780MOL0     C 5190  12.205   0.880  10.906  0.7767 -0.3440  0.6429
  780MOL0     C 5191  12.142   0.824  11.013  0.4447  0.3815 -0.0546
  780MOL0     C 5192  12.203   0.820  11.141  0.0231  0.0111 -0.0329
  780MOL0     C 5193  12.135   0.755  11.253  0.5241 -0.6217  0.1951
  780MOL0     C 5194  12.323   0.886  11.170 -0.6606  0.5397  0.7580
  780MOL0     C 5195  12.394   0.893  11.302  0.7380 -0.4904  0.8811
  780MOL0     O 5196  12.427   1.019  11.334  0.2960  0.1103  0.8412
  780MOL0     C 5197  12.501   1.047  11.447  0.0288  0.6344 -0.3491
  780MOL0     C 5198  12.604   0.965  11.491 -0.2020 -0.3332  0.9433
  780MOL0     C 5199  12.679   1.000  11.600  0.3922 -0.1039  0.0161
  780MOL0     C 5200  12.642   1.109  11.676  0.2907 -0.0833 -0.2815
  780MOL0     O 5201  12.705   1.138  11.798  0.3318 -0.1988  0.8264
  780MOL0     C 5202  12.620   1.189  11.901 -0.5337 -0.3426 -0.6514
  780MOL0     C 5203  12.656   1.125  12.029 -0.4828  0.6660 -0.3072
  780MOL0     C 5204  12.541   1.135  12.129  0.1548  1.0338 -0.3886
  780MOL0     C 5205  12.552   1.034  12.242  0.3188  0.8286  0.1281
  780MOL0     C 5206  12.451   1.051  12.356  0.3580 -0.1544  0.3725
  780MOL0     C 5207  12.298   1.038  12.315  0.2238  0.2316  0.1401
  780MOL0     C 5208  12.206   1.027  12.434 -0.1599 -0.1463  0.9411
  780MOL0     C 5209  12.233   1.114  12.546  1.1272 -0.3063 -0.0209
  780MOL0    Cl 5210  12.092   1.130  12.651 -0.3871  0.1140  0.3013
  780MOL0     C 5211  12.533   1.193  11.633 -0.0073  1.1222  0.6067
  780MOL0     C 5212  12.472   1.165  11.512  0.8374  0.9841  0.4776
  780MOL0     O 5213  12.404   0.790  11.369 -0.9845  0.0224  0.4538
  780MOL0     C 5214  12.382   0.935  11.054  0.3300  0.3942 -0.5134
  780MOL0     C 5215  12.329   0.933  10.927 -0.1123 -0.6037 -0.3170
  780MOL0     N 5216  11.617   1.028  10.424  0.0762  0.4644  0.4342
  780MOL0     N 5217  11.593   1.109  10.331 -0.5788  0.1738  0.0993
  780MOL0     C 5218  10.879   0.583  10.312  0.6363 -0.1922 -0.7986
  780MOL0     C 5219  10.821   0.526  10.426  0.1158  0.0577  0.4038
  780MOL0     C 5220  10.787   0.306  10.827 -1.1411 -0.5935 -1.0475
  780MOL0     C 5221  10.698   0.411  10.858 -0.0407  0.0759  0.4028
  780MOL0     C 5222  10.609   0.403  10.969 -0.1816 -1.0720  1.3087
  780MOL0     C 5223  10.615   0.287  11.053  0.9142 -0.4577 -0.2335
  780MOL0     O 5224  10.530   0.271  11.155 -0.0578 -0.0706 -0.9594
  780MOL0     C 5225  10.419   0.364  11.175 -0.0680  0.5960 -0.3669
  780MOL0     C 5226  10.318   0.320  11.283 -0.2736  0.3133 -1.1233
  780MOL0     C 5227  10.198   0.413  11.291  0.2639 -0.1087 -0.1617
  780MOL0     C 5228  10.106   0.411  11.168  0.4854  0.1870 -0.0191
  780MOL0     C 5229  10.118   0.536  11.086  0.4602  0.0479  0.2189
  780MOL0     C 5230  10.114   0.641  11.020  0.4251 -0.0975  0.4905
  780MOL0     C 5231  10.703   0.189  11.021 -0.1712  0.5897  0.8147
  780MOL0     C 5232  10.792   0.199  10.913 -0.2862  0.0388 -0.0002
  780MOL0     H 5233  11.103   0.424  10.575  0.3729 -0.2194 -0.9502
  780MOL0     H 5234  11.210   0.524  10.371 -0.1092  1.9740 -0.7421
  780MOL0     H 5235  11.210   0.785  10.269 -2.1898  0.8865 -0.1868
  780MOL0     H 5236  11.267   0.639  10.182 -1.3384 -0.1698 -1.7612
  780MOL0     H 5237  11.238   0.712   9.980  2.8229 -1.2119  2.0491
  780MOL0     H 5238  11.123   0.845  10.033 -1.3487 -0.2439  2.9758
  780MOL0     H 5239  11.319   0.986  10.022 -2.6067  1.4264  2.0716
  780MOL0     H 5240  11.364   0.906  10.179 -1.1266 -3.1247  0.8524
  780MOL0     H 5241  11.500   0.737  10.057 -1.7083 -0.0432  1.1571
  780MOL0     H 5242  11.453   0.833   9.904  0.8122  1.0963  0.5667
  780MOL0     H 5243  11.621   0.918  10.154 -1.9464 -0.9999  1.0765
  780MOL0     H 5244  11.688   0.874  10.008 -0.3673 -2.0444  2.4512
  780MOL0     H 5245  11.533   1.062   9.896 -0.5207  0.6900  0.1211
  780MOL0     H 5246  11.479   1.097  10.059 -0.1312 -1.6491 -0.3817
  780MOL0     H 5247  11.783   1.105   9.992 -0.6570 -1.8073 -0.8736
  780MOL0     H 5248  11.671   1.225   9.945 -1.2610 -1.8014 -1.6947
  780MOL0     H 5249  11.625   1.306  10.166  2.3587  1.6326  0.7921
  780MOL0     H 5250  11.789   1.299  10.159 -0.2398  0.4946  4.7645
  780MOL0     H 5251  11.913   1.141  10.331  0.6696  1.1794  2.1595
  780MOL0     H 5252  11.723   0.894  10.589 -1.5618  0.9962 -0.2292
  780MOL0     H 5253  11.845   0.844  10.485 -0.0110 -0.8483 -0.0293
  780MOL0     H 5254  11.905   0.955  10.736  0.6034 -0.6425 -1.0722
  780MOL0     H 5255  11.905   1.102  10.632  1.6431  0.1828 -2.7272
  780MOL0     H 5256  12.080   1.044  10.510  1.0836  1.4220  0.3126
  780MOL0     H 5257  12.060   0.866  10.538 -0.1889 -0.0148 -0.9368
  780MOL0     H 5258  12.155   1.073  10.742  0.7884 -1.6163  1.0845
  780MOL0     H 5259  12.261   0.965  10.652  1.0826  1.5900  0.7274
  780MOL0     H 5260  12.051   0.769  10.990  1.2440 -1.9061  1.7884
  780MOL0     H 5261  12.193   0.666  11.281  0.3967 -0.5021  0.8540
  780MOL0     H 5262  12.112   0.813  11.342 -3.1523 -3.7377  1.5652
  780MOL0     H 5263  12.036   0.727  11.216  0.7296  1.0133 -1.7820
  780MOL0     H 5264  12.628   0.869  11.447  0.4410 -1.2811  3.2233
  780MOL0     H 5265  12.771   0.950  11.628  2.2155  1.3343 -2.9359
  780MOL0     H 5266  12.633   1.297  11.904 -2.1797 -0.1179 -0.7112
  780MOL0     H 5267  12.513   1.173  11.883 -0.8329  0.4730  0.3236
  780MOL0     H 5268  12.671   1.024  11.989  0.2485  1.7155 -2.8238
  780MOL0     H 5269  12.742   1.177  12.072  0.6909  0.6969 -2.6034
  780MOL0     H 5270  12.446   1.115  12.079  0.1671  0.6504 -0.2674
  780MOL0     H 5271  12.536   1.232  12.179  1.3258 -0.0472  2.0526
  780MOL0     H 5272  12.543   0.934  12.199  0.3656  0.2784  1.3397
  780MOL0     H 5273  12.650   1.052  12.286  0.3536 -2.0700  1.5201
  780MOL0     H 5274  12.475   1.150  12.394 -1.0433 -0.7126  2.9702
  780MOL0     H 5275  12.484   0.968  12.419 -0.8413  0.1790  1.4902
  780MOL0     H 5276  12.263   1.117  12.248 -3.4879  0.0830  1.6799
  780MOL0     H 5277  12.285   0.938  12.272 -0.0620 -0.3328  1.4728
  780MOL0     H 5278  12.216   0.925  12.470  2.4692 -1.2550 -2.4420
  780MOL0     H 5279  12.102   1.029  12.399 -0.4642 -0.2941  1.8256
  780MOL0     H 5280  12.264   1.207  12.497  0.3883 -1.7030 -3.3600
  780MOL0     H 5281  12.308   1.071  12.613 -0.0248 -5.7199 -1.7235
  780MOL0     H 5282  12.488   1.277  11.686  0.0695  0.1427  2.2977
  780MOL0     H 5283  12.397   1.240  11.486  0.9291  0.1979 -2.3412
  780MOL0     H 5284  12.481   0.980  11.052  0.4870  0.1104  0.2992
  780MOL0     H 5285  12.384   0.987  10.850 -2.0803  2.9160  0.5203
  780MOL0     H 5286  10.812   0.637  10.246 -0.0297 -0.3836 -0.2861
  780MOL0     H 5287  10.713   0.533  10.435  0.2765 -0.1881  3.3187
  780MOL0     H 5288  10.706   0.500  10.796 -2.8792 -1.2559 -2.1109
  780MOL0     H 5289  10.552   0.495  10.972  3.1927  1.4323 -1.7853
  780MOL0     H 5290  10.453   0.466  11.193  2.3851 -0.7250  4.4262
  780MOL0     H 5291  10.348   0.363  11.092 -1.7490 -4.3250  0.7276
  780MOL0     H 5292  10.380   0.323  11.372 -0.2074 -0.5206 -1.1297
  780MOL0     H 5293  10.296   0.214  11.270  2.7815 -0.5699  0.1784
  780MOL0     H 5294  10.222   0.516  11.317 -2.2943  0.3050  0.8475
  780MOL0     H 5295  10.135   0.382  11.374  0.9931 -0.6100  0.2162
  780MOL0     H 5296  10.000   0.412  11.195 -0.0112  0.4910 -1.8619
  780MOL0     H 5297  10.113   0.330  11.095 -1.0981 -1.6014  1.6844
  780MOL0     H 5298  10.102   0.726  10.955  0.6261 -1.4173 -1.3467
  780MOL0     H 5299  10.705   0.095  11.076 -0.4245  1.4579  2.3762
  780MOL0     H 5300  10.858   0.115  10.894  0.7645  1.1225 -1.3269
  781MOL0     O 5301   5.700   0.746   7.757  0.4178 -0.0567  0.3606
  781MOL0     C 5302   5.689   0.623   7.763  0.4300 -0.5241  0.5079
  781MOL0     O 5303   5.588   0.553   7.815  0.4664 -0.0719 -0.7623
  781MOL0     C 5304   5.472   0.593   7.874 -0.6994  0.3392  0.0507
  781MOL0     C 5305   5.422   0.729   7.868  0.0809  0.9947  0.4864
  781MOL0     C 5306   5.300   0.755   7.928 -0.3883 -0.3548  0.0864
  781MOL0     C 5307   5.234   0.659   8.006 -0.3147 -0.1945  0.0914
  781MOL0     O 5308   5.107   0.677   8.059  0.3902 -0.4761 -0.4086
  781MOL0     C 5309   5.049   0.812   8.056  0.3447 -0.7769  0.0426
  781MOL0     C 5310   4.904   0.802   8.105 -0.1683 -0.3386 -0.4496
  781MOL0     C 5311   4.892   0.866   8.245  0.2904 -0.7824 -0.0368
  781MOL0     C 5312   4.910   1.026   8.248  0.5071  0.3892 -0.7473
  781MOL0     C 5313   4.882   1.085   8.392 -0.0844  0.1144 -0.0919
  781MOL0     C 5314   4.939   1.230   8.404 -0.1423  0.6913  0.4817
  781MOL0     C 5315   4.890   1.305   8.530  0.6292 -0.2947  0.0003
  781MOL0     C 5316   4.897   1.223   8.662 -0.4359 -0.0637  0.4483
  781MOL0     N 5317   4.870   1.305   8.785  0.2039 -0.4958 -0.5949
  781MOL0     C 5318   4.752   1.372   8.811 -0.2424  0.0408 -0.1330
  781MOL0     C 5319   4.780   1.436   8.926 -0.3776 -0.4798  0.2833
  781MOL0     C 5320   4.696   1.528   8.995  0.8509 -0.1897 -0.5675
  781MOL0     C 5321   4.684   1.670   8.934 -0.0552 -0.4995 -0.7084
  781MOL0     C 5322   4.598   1.764   9.016 -0.1968 -0.0824 -0.0913
  781MOL0     C 5323   4.453   1.740   8.992  0.4092  0.3140 -0.1675
  781MOL0     O 5324   4.361   1.810   9.071  0.1754 -0.3175 -0.4922
  781MOL0     C 5325   4.228   1.811   9.037  0.0621  0.9578  0.3093
  781MOL0     C 5326   4.152   1.893   9.114  0.2868 -0.0766 -0.1553
  781MOL0     C 5327   4.015   1.908   9.088  0.4214 -0.8212 -0.8548
  781MOL0     C 5328   3.940   2.017   9.170 -0.5761 -0.0963 -0.1049
  781MOL0     C 5329   3.943   1.817   9.003 -0.0946  0.1423  0.4972
  781MOL0     C 5330   3.791   1.792   8.991 -0.7951 -0.0190  2.0304
  781MOL0     O 5331   3.713   1.829   9.091  0.3103  0.1544 -0.2882
  781MOL0     C 5332   3.577   1.807   9.082 -0.2812  1.1293  0.2469
  781MOL0     C 5333   3.495   1.904   9.033  0.2466  0.2313  0.4032
  781MOL0     C 5334   3.356   1.879   9.017 -0.5963 -0.2204  0.0576
  781MOL0     C 5335   3.301   1.768   9.088  0.0933  0.2469 -0.0123
  781MOL0     O 5336   3.165   1.755   9.087 -0.3190 -0.2296  0.1546
  781MOL0     C 5337   3.114   1.671   8.988 -0.5791 -0.4119  0.5592
  781MOL0     C 5338   3.101   1.752   8.856 -0.2343 -0.5036  0.2640
  781MOL0     C 5339   3.005   1.685   8.760 -0.3400 -0.2225  0.1786
  781MOL0     C 5340   2.942   1.780   8.654  0.9761  0.5596 -1.1238
  781MOL0     C 5341   3.039   1.844   8.549 -0.7400 -0.5087 -0.2386
  781MOL0     C 5342   2.963   1.947   8.472 -0.7120  1.2380 -0.2379
  781MOL0     C 5343   2.953   2.088   8.539 -1.0657 -0.3400 -0.3319
  781MOL0     C 5344   2.935   2.189   8.431 -1.2222 -0.6230 -0.3984
  781MOL0    Cl 5345   2.788   2.167   8.351 -0.2565 -0.3321  0.1889
  781MOL0     C 5346   3.389   1.658   9.138  0.3577 -0.3199  0.4095
  781MOL0     C 5347   3.525   1.686   9.133 -0.3594 -0.0146 -0.2777
  781MOL0     O 5348   3.755   1.747   8.883  0.0806 -0.3099  0.8175
  781MOL0     C 5349   4.023   1.718   8.949  0.1778 -0.4243 -0.2779
  781MOL0     C 5350   4.168   1.717   8.953 -0.3753 -0.5130  1.0591
  781MOL0     N 5351   4.907   1.422   8.968 -0.0265 -0.2506 -0.2434
  781MOL0     N 5352   4.961   1.338   8.882 -1.0772 -0.3586 -0.2751
  781MOL0     C 5353   5.294   0.535   8.030  0.1366  0.1228 -0.8958
  781MOL0     C 5354   5.417   0.505   7.971 -0.2223 -0.1886 -0.4940
  781MOL0     C 5355   5.810   0.554   7.716 -0.5917  1.4018  0.7458
  781MOL0     C 5356   5.797   0.421   7.678  0.1035 -0.6089 -0.4645
  781MOL0     C 5357   5.905   0.345   7.624  0.0731  0.3698 -0.6070
  781MOL0     C 5358   6.036   0.399   7.618  0.5777  0.0549  0.3215
  781MOL0     O 5359   6.138   0.334   7.574  0.4415 -0.4714  0.4367
  781MOL0     C 5360   6.131   0.189   7.569 -0.1302  0.3600  0.6679
  781MOL0     C 5361   6.274   0.144   7.526  0.6032 -0.3115 -0.6896
  781MOL0     C 5362   6.382   0.183   7.628 -0.5021  0.7391  0.1496
  781MOL0     C 5363   6.519   0.108   7.627 -0.0425 -0.4709  0.0684
  781MOL0     C 5364   6.592   0.127   7.498 -0.3444 -0.3601  0.2669
  781MOL0     C 5365   6.642   0.157   7.391 -0.1446 -0.0989  0.9096
  781MOL0     C 5366   6.053   0.534   7.664  0.5589 -0.6761 -0.1747
  781MOL0     C 5367   5.942   0.603   7.709  0.6372 -0.1534  0.5064
  781MOL0     H 5368   5.478   0.813   7.826 -0.1314  1.7317  1.6132
  781MOL0     H 5369   5.262   0.856   7.917  0.8848  0.4236  2.1796
  781MOL0     H 5370   5.098   0.885   8.120 -1.3695  0.4861 -0.0399
  781MOL0     H 5371   5.052   0.851   7.954  3.3792 -4.1653 -1.4077
  781MOL0     H 5372   4.824   0.837   8.039 -1.5518 -1.9176  0.3311
  781MOL0     H 5373   4.885   0.696   8.119  0.6967 -0.2166  2.3424
  781MOL0     H 5374   4.791   0.839   8.277  0.0545  1.3693  1.1961
  781MOL0     H 5375   4.957   0.823   8.322  1.0368 -0.6247 -0.5634
  781MOL0     H 5376   5.013   1.044   8.215 -0.1294  0.8138 -2.6486
  781MOL0     H 5377   4.851   1.077   8.171 -0.4189 -1.4170 -1.3055
  781MOL0     H 5378   4.774   1.104   8.399  0.3348  4.0339 -1.4134
  781MOL0     H 5379   4.921   1.021   8.471  0.6708 -0.6235 -1.0459
  781MOL0     H 5380   5.048   1.226   8.401 -0.0704  2.2327 -2.2183
  781MOL0     H 5381   4.908   1.289   8.317  0.4000 -3.5607 -2.9391
  781MOL0     H 5382   4.940   1.403   8.534 -0.6740  0.4231 -0.6034
  781MOL0     H 5383   4.785   1.328   8.514  0.7974 -1.0529 -2.8759
  781MOL0     H 5384   5.003   1.205   8.679 -0.4575  2.3120  4.7531
  781MOL0     H 5385   4.837   1.132   8.672 -2.5430  1.3685  1.9923
  781MOL0     H 5386   4.668   1.387   8.744 -1.2519 -2.8573  0.3288
  781MOL0     H 5387   4.593   1.493   9.012 -0.1923  2.4717 -0.8608
  781MOL0     H 5388   4.733   1.537   9.098  0.8127 -0.7065 -0.5091
  781MOL0     H 5389   4.649   1.660   8.831  0.5443 -3.3418 -0.7166
  781MOL0     H 5390   4.784   1.713   8.921 -0.4661 -0.1475 -3.2126
  781MOL0     H 5391   4.626   1.863   8.978 -0.0988 -0.1020 -0.0688
  781MOL0     H 5392   4.622   1.753   9.122  2.6716 -1.4970 -0.7977
  781MOL0     H 5393   4.414   1.639   9.007 -0.1534  0.6949  1.1082
  781MOL0     H 5394   4.426   1.767   8.890  3.2840  4.1361 -0.1114
  781MOL0     H 5395   4.206   1.962   9.178  2.2169 -1.0893 -0.5934
  781MOL0     H 5396   3.935   1.998   9.278 -0.9509 -1.3555 -0.3178
  781MOL0     H 5397   3.982   2.117   9.161  0.1040 -0.1717  1.7147
  781MOL0     H 5398   3.837   2.033   9.135  0.0783  2.6131 -1.0185
  781MOL0     H 5399   3.522   1.998   8.987 -1.4507  0.0546 -1.0876
  781MOL0     H 5400   3.283   1.948   8.975 -1.7670 -1.2520  0.3282
  781MOL0     H 5401   3.169   1.580   8.963 -1.1928 -0.3838 -1.0049
  781MOL0     H 5402   3.025   1.631   9.039 -0.1879 -1.1819  0.6497
  781MOL0     H 5403   3.064   1.855   8.864 -2.8165 -1.4589  1.9552
  781MOL0     H 5404   3.199   1.751   8.808 -0.0711 -2.9376  0.5284
  781MOL0     H 5405   2.926   1.630   8.812 -0.1584 -2.1476 -1.4280
  781MOL0     H 5406   3.059   1.608   8.703 -0.5597  0.7604 -1.4050
  781MOL0     H 5407   2.869   1.721   8.598  0.0103 -1.8900  2.3632
  781MOL0     H 5408   2.900   1.859   8.717  3.6337  0.3376  1.1603
  781MOL0     H 5409   3.069   1.773   8.472 -0.4567  0.4065 -1.0008
  781MOL0     H 5410   3.126   1.895   8.593 -0.1543 -2.6590  1.2370
  781MOL0     H 5411   3.006   1.962   8.373  0.3989  0.8717  0.1769
  781MOL0     H 5412   2.861   1.906   8.467 -0.3317  0.3581 -1.1537
  781MOL0     H 5413   3.051   2.108   8.582 -1.4002  1.5382 -0.3367
  781MOL0     H 5414   2.874   2.095   8.615 -0.7826  0.7021 -0.1238
  781MOL0     H 5415   3.015   2.206   8.358 -2.4139 -0.6511 -1.7537
  781MOL0     H 5416   2.936   2.288   8.479  0.8834  0.3750 -2.2896
  781MOL0     H 5417   3.340   1.571   9.179  1.1948 -0.5072  1.0499
  781MOL0     H 5418   3.600   1.616   9.168  0.6251  1.1207 -0.0287
  781MOL0     H 5419   3.969   1.639   8.898 -0.3662  0.6245 -1.3808
  781MOL0     H 5420   4.214   1.637   8.895 -2.8878 -1.4765  0.2456
  781MOL0     H 5421   5.245   0.460   8.092  0.2966  1.3405  0.7732
  781MOL0     H 5422   5.447   0.404   7.999 -2.6619 -0.5919  0.8606
  781MOL0     H 5423   5.700   0.373   7.683  0.2064 -0.7660  0.2413
  781MOL0     H 5424   5.877   0.247   7.587 -1.1567 -0.1439  1.4734
  781MOL0     H 5425   6.108   0.128   7.657 -2.4485 -2.8881 -1.9666
  781MOL0     H 5426   6.063   0.167   7.487  1.0843  3.0212 -1.2032
  781MOL0     H 5427   6.289   0.190   7.428 -2.9933  0.4986 -0.9700
  781MOL0     H 5428   6.270   0.035   7.521 -0.8925 -0.4398  1.6976
  781MOL0     H 5429   6.337   0.160   7.725  0.4822 -1.1768  0.2021
  781MOL0     H 5430   6.400   0.291   7.626 -0.0333  0.6828  1.0296
  781MOL0     H 5431   6.511   0.002   7.651  0.8660 -0.4272  0.6226
  781MOL0     H 5432   6.580   0.156   7.705  1.3412 -1.2917 -0.4596
  781MOL0     H 5433   6.695   0.166   7.298 -0.5961 -0.5149  0.6055
  781MOL0     H 5434   6.154   0.571   7.681 -0.5959  1.0751  4.1641
  781MOL0     H 5435   5.964   0.706   7.736 -2.5654  0.5247  0.8405
  782MOL0     O 5436  10.911   4.136  10.536  0.2255 -0.0149 -0.7926
  782MOL0     C 5437  10.956   4.234  10.478  0.0532  0.3005  0.7258
  782MOL0     O 5438  10.962   4.365  10.537  0.5431  0.3030 -0.3353
  782MOL0     C 5439  10.901   4.375  10.661 -0.0803 -0.7676 -0.2101
  782MOL0     C 5440  10.979   4.435  10.767 -0.2959 -0.4175 -0.3035
  782MOL0     C 5441  10.918   4.457  10.896  0.8880 -0.4401 -0.2479
  782MOL0     C 5442  10.790   4.406  10.921  0.2079  0.2129  0.2054
  782MOL0     O 5443  10.722   4.417  11.042  0.6282 -0.4103 -0.0394
  782MOL0     C 5444  10.762   4.516  11.140 -0.5415 -0.1696  0.5857
  782MOL0     C 5445  10.786   4.464  11.281 -1.2385 -1.3555 -0.4894
  782MOL0     C 5446  10.923   4.385  11.268 -0.2103 -0.1141 -0.1190
  782MOL0     C 5447  10.961   4.294  11.388  0.6442  0.0111 -0.0603
  782MOL0     C 5448  11.106   4.271  11.396 -1.0111  0.4113  0.3668
  782MOL0     C 5449  11.154   4.145  11.304  0.0851 -0.4092 -0.1167
  782MOL0     C 5450  11.096   4.004  11.350  0.7074 -0.2863 -0.5328
  782MOL0     C 5451  11.183   3.942  11.461  0.2366  0.2707  0.2274
  782MOL0     N 5452  11.326   3.925  11.431 -0.2934 -0.1171 -0.2004
  782MOL0     C 5453  11.371   3.808  11.377  0.4045 -0.3217  0.3305
  782MOL0     C 5454  11.507   3.817  11.403  0.8255 -0.5043  0.4201
  782MOL0     C 5455  11.595   3.697  11.388 -0.6693  0.1676  0.8555
  782MOL0     C 5456  11.706   3.699  11.281 -0.3617  0.0138  0.1249
  782MOL0     C 5457  11.842   3.743  11.346  0.2482  0.7432  0.2705
  782MOL0     C 5458  11.952   3.751  11.237  0.3001 -0.5226 -0.1567
  782MOL0     O 5459  12.006   3.616  11.215  0.6194  0.0266 -0.2347
  782MOL0     C 5460  12.111   3.586  11.293 -0.6197 -0.0783  0.4473
  782MOL0     C 5461  12.164   3.462  11.277 -0.3111  0.3095 -0.5605
  782MOL0     C 5462  12.280   3.421  11.338  0.4178  0.6193 -0.7325
  782MOL0     C 5463  12.339   3.280  11.303 -0.0668 -1.1050  0.7712
  782MOL0     C 5464  12.352   3.512  11.425  0.1950 -0.3002  0.2275
  782MOL0     C 5465  12.485   3.481  11.490  0.4522  0.0204 -0.2063
  782MOL0     O 5466  12.553   3.380  11.443 -0.0457  0.2218 -0.5678
  782MOL0     C 5467  12.658   3.327  11.511  0.8204 -0.0462 -0.3312
  782MOL0     C 5468  12.663   3.193  11.550 -0.0063  0.1164 -0.0059
  782MOL0     C 5469  12.778   3.130  11.598  0.5484  0.0801  0.3420
  782MOL0     C 5470  12.897   3.214  11.619 -0.0298  1.1530 -0.6270
  782MOL0     O 5471  13.029   3.161  11.650  0.0872  0.4640  0.4473
  782MOL0     C 5472  13.043   3.027  11.698 -0.4680  0.4638 -0.2780
  782MOL0     C 5473  13.020   3.023  11.851 -0.0321  0.7579 -0.0106
  782MOL0     C 5474  13.100   3.129  11.936 -0.6057  0.7627 -0.3304
  782MOL0     C 5475  13.066   3.133  12.082  0.8715 -0.3420 -0.7343
  782MOL0     C 5476  13.150   3.228  12.163 -1.3233 -1.0760 -0.3939
  782MOL0     C 5477  13.141   3.207  12.321  1.0721  0.2557  0.5691
  782MOL0     C 5478  13.236   3.092  12.369 -0.2995  0.5605  0.8296
  782MOL0     C 5479  13.206   3.029  12.518 -0.1209 -0.0666  0.8515
  782MOL0    Cl 5480  13.035   2.958  12.510  0.1165 -0.3061  0.1736
  782MOL0     C 5481  12.896   3.349  11.585  0.9277  0.2743 -0.7457
  782MOL0     C 5482  12.777   3.402  11.532  0.1581 -0.0140  0.1334
  782MOL0     O 5483  12.524   3.552  11.590 -0.0983  0.1037  0.6324
  782MOL0     C 5484  12.292   3.640  11.439 -0.3722  0.4270  0.6957
  782MOL0     C 5485  12.167   3.671  11.388 -0.4077 -0.6095 -0.4507
  782MOL0     N 5486  11.540   3.945  11.452 -0.1346  0.5481 -0.0979
  782MOL0     N 5487  11.426   4.009  11.471 -0.1828 -0.2056  0.3132
  782MOL0     C 5488  10.718   4.336  10.819 -0.1496 -0.4772  0.4150
  782MOL0     C 5489  10.771   4.327  10.687 -0.4280 -0.0421 -0.3000
  782MOL0     C 5490  11.015   4.216  10.341 -1.0504  0.0855 -0.8138
  782MOL0     C 5491  11.058   4.324  10.265 -0.0207 -0.1671  0.2569
  782MOL0     C 5492  11.126   4.298  10.145 -0.7399 -0.4732  0.3961
  782MOL0     C 5493  11.161   4.178  10.104  0.4347  0.5933  0.2873
  782MOL0     O 5494  11.233   4.156   9.981 -0.0611 -0.5237 -0.1860
  782MOL0     C 5495  11.206   4.251   9.875 -0.2641  0.3732  0.1287
  782MOL0     C 5496  11.252   4.193   9.737  0.9224 -0.9226  0.2440
  782MOL0     C 5497  11.189   4.269   9.616 -0.2783 -0.3868  0.0550
  782MOL0     C 5498  11.042   4.311   9.612  0.3226 -0.3293  0.1548
  782MOL0     C 5499  11.003   4.367   9.481 -1.0431  0.1661 -0.6488
  782MOL0     C 5500  10.983   4.443   9.387  0.3598  0.0707  0.1160
  782MOL0     C 5501  11.110   4.067  10.176  1.2515  0.5383 -0.1860
  782MOL0     C 5502  11.040   4.079  10.293  0.1795 -0.9873 -0.7001
  782MOL0     H 5503  11.083   4.461  10.746 -0.3800  3.3303  2.8581
  782MOL0     H 5504  10.982   4.499  10.972 -0.2134  1.4680 -0.2982
  782MOL0     H 5505  10.855   4.567  11.113  0.9399 -1.9924  2.0629
  782MOL0     H 5506  10.677   4.585  11.146 -1.1039 -0.6232 -1.4402
  782MOL0     H 5507  10.795   4.547  11.352  0.1295  1.3748 -3.5639
  782MOL0     H 5508  10.704   4.397  11.310 -0.7497 -0.9955  1.9297
  782MOL0     H 5509  10.916   4.323  11.178 -1.9670  0.1539 -0.2079
  782MOL0     H 5510  11.003   4.458  11.250  0.1521 -0.3211  0.6365
  782MOL0     H 5511  10.919   4.336  11.480 -1.4100 -1.9212 -0.0270
  782MOL0     H 5512  10.909   4.199  11.378  2.1874 -1.0043  1.0450
  782MOL0     H 5513  11.162   4.359  11.362  1.3953 -0.1359  2.5387
  782MOL0     H 5514  11.140   4.247  11.497  2.0920 -1.6211 -0.9988
  782MOL0     H 5515  11.123   4.161  11.201  0.1152 -1.2038 -0.2557
  782MOL0     H 5516  11.264   4.149  11.304  0.0537  0.8153  0.7648
  782MOL0     H 5517  10.997   4.020  11.393  0.8831 -1.9796  0.5738
  782MOL0     H 5518  11.092   3.950  11.255  1.8832  0.8274 -1.2352
  782MOL0     H 5519  11.147   3.839  11.470  1.2014 -0.0094  1.2213
  782MOL0     H 5520  11.160   3.986  11.559 -1.0898  0.9730 -0.3786
  782MOL0     H 5521  11.327   3.712  11.351  0.8972 -0.1266 -1.3615
  782MOL0     H 5522  11.644   3.672  11.483  0.0112  0.1380  0.5047
  782MOL0     H 5523  11.539   3.609  11.356  3.3917 -1.5068 -2.7309
  782MOL0     H 5524  11.681   3.755  11.190  1.5713 -2.8569 -2.3875
  782MOL0     H 5525  11.731   3.599  11.244  1.0478  0.5430 -0.4310
  782MOL0     H 5526  11.866   3.670  11.425  1.8883 -0.1004 -0.9393
  782MOL0     H 5527  11.825   3.840  11.394 -3.4497  1.1654 -1.5893
  782MOL0     H 5528  12.025   3.828  11.261 -0.1254 -0.5475  1.2938
  782MOL0     H 5529  11.916   3.792  11.142  0.9375 -0.9373 -0.5934
  782MOL0     H 5530  12.110   3.392  11.213 -1.5233 -0.8373  1.6015
  782MOL0     H 5531  12.419   3.293  11.229 -2.0189 -1.6794 -1.5693
  782MOL0     H 5532  12.374   3.222  11.388 -3.0947 -2.2915  1.2981
  782MOL0     H 5533  12.260   3.221  11.256 -0.3339  1.0188 -1.7200
  782MOL0     H 5534  12.570   3.144  11.522 -0.9918  2.4758 -1.0843
  782MOL0     H 5535  12.777   3.023  11.617  1.3532  0.4877  3.0289
  782MOL0     H 5536  12.994   2.952  11.636  3.7095 -1.8567 -1.1027
  782MOL0     H 5537  13.149   3.003  11.689 -1.1222 -3.2075  0.4152
  782MOL0     H 5538  12.912   3.022  11.869 -0.0474  1.2292 -0.0584
  782MOL0     H 5539  13.062   2.927  11.880 -0.9872 -0.2430 -1.7970
  782MOL0     H 5540  13.078   3.228  11.894 -1.7283  0.1935 -1.1553
  782MOL0     H 5541  13.205   3.099  11.926 -1.1376 -1.2872 -0.2432
  782MOL0     H 5542  12.960   3.140  12.107  0.4630  1.3267 -2.7053
  782MOL0     H 5543  13.099   3.035  12.120 -0.4444 -1.6318 -2.7152
  782MOL0     H 5544  13.125   3.331  12.136 -2.0691 -0.9409  0.7532
  782MOL0     H 5545  13.257   3.223  12.143 -0.9503 -0.9370  1.3922
  782MOL0     H 5546  13.176   3.296  12.376 -1.0724  3.2101 -2.4433
  782MOL0     H 5547  13.035   3.190  12.343  0.9590  0.7209  0.3972
  782MOL0     H 5548  13.340   3.128  12.376  0.0139  0.3620 -1.9934
  782MOL0     H 5549  13.243   3.009  12.298 -0.3167  1.9615 -0.8733
  782MOL0     H 5550  13.200   3.110  12.591  0.4694  3.1269 -2.3572
  782MOL0     H 5551  13.270   2.946  12.550 -4.0183 -3.0880  1.5618
  782MOL0     H 5552  12.984   3.411  11.595 -0.2388  1.7495  1.1414
  782MOL0     H 5553  12.778   3.505  11.499  1.3467 -0.2485 -0.6455
  782MOL0     H 5554  12.332   3.724  11.495 -2.4386 -0.3466  3.5580
  782MOL0     H 5555  12.126   3.768  11.413 -1.0726 -1.0506  0.1930
  782MOL0     H 5556  10.628   4.280  10.842  0.0094 -2.0620 -2.3379
  782MOL0     H 5557  10.704   4.281  10.614 -3.1134  0.8014  1.4979
  782MOL0     H 5558  11.034   4.427  10.290 -0.4835  0.8447 -3.5861
  782MOL0     H 5559  11.137   4.389  10.086  1.9861 -0.6281  0.5577
  782MOL0     H 5560  11.099   4.258   9.858 -0.4184 -0.1967  0.8573
  782MOL0     H 5561  11.253   4.348   9.897  2.3774 -1.1148  1.6944
  782MOL0     H 5562  11.215   4.090   9.745  0.1357 -0.6102  0.7522
  782MOL0     H 5563  11.361   4.186   9.740  1.3052  2.2722 -1.3811
  782MOL0     H 5564  11.201   4.198   9.534 -2.1943  0.2904 -0.8583
  782MOL0     H 5565  11.244   4.360   9.590  0.6702 -0.6877  0.9475
  782MOL0     H 5566  11.017   4.378   9.695  3.4149 -0.6694  1.4919
  782MOL0     H 5567  10.990   4.215   9.621  1.4316 -1.1163 -1.3847
  782MOL0     H 5568  10.974   4.512   9.305  0.4628 -0.1312 -0.0685
  782MOL0     H 5569  11.125   3.964  10.145 -2.0413 -0.1612  0.1297
  782MOL0     H 5570  11.023   3.983  10.340  2.8901 -1.2434 -0.0881
  783MOL0     O 5571  10.980   3.645   0.296 -0.1035 -0.4163  0.7694
  783MOL0     C 5572  11.022   3.591   0.400 -0.3873  0.4615 -0.1759
  783MOL0     O 5573  11.140   3.513   0.417  0.6613 -1.1373 -0.4575
  783MOL0     C 5574  11.225   3.481   0.319  0.6592  0.1462 -0.5799
  783MOL0     C 5575  11.202   3.362   0.242 -0.5316  0.3057 -0.0148
  783MOL0     C 5576  11.297   3.336   0.131  1.2866 -0.3288  0.5989
  783MOL0     C 5577  11.409   3.414   0.117  0.4363 -1.1645  0.3314
  783MOL0     O 5578  11.496   3.384   0.019 -0.3129 -0.8672  0.1413
  783MOL0     C 5579  11.584   3.277   0.039 -0.1199 -0.2643  0.1818
  783MOL0     C 5580  11.702   3.280  -0.059 -0.3429  0.4655  0.4820
  783MOL0     C 5581  11.821   3.381  -0.039  0.3199  0.0555  0.0009
  783MOL0     C 5582  11.930   3.332   0.063 -0.1382  0.0558 -0.8798
  783MOL0     C 5583  11.971   3.447   0.155 -0.7335  0.2279  0.1923
  783MOL0     C 5584  11.843   3.481   0.249 -0.1489 -0.5332 -0.0784
  783MOL0     C 5585  11.886   3.568   0.372  0.9988  0.3226 -0.6339
  783MOL0     C 5586  11.932   3.715   0.340  0.4265 -0.1844 -0.1481
  783MOL0     N 5587  11.834   3.816   0.381 -0.1917  0.2975 -0.1227
  783MOL0     C 5588  11.698   3.811   0.362 -0.4875  0.5319 -0.2994
  783MOL0     C 5589  11.644   3.883   0.464 -0.4300 -0.3426 -0.7369
  783MOL0     C 5590  11.494   3.917   0.489 -0.4296 -0.3188  0.7082
  783MOL0     C 5591  11.421   3.967   0.358  0.0482  0.4279  0.5338
  783MOL0     C 5592  11.419   4.121   0.344  0.1003  0.1512 -0.0134
  783MOL0     C 5593  11.549   4.179   0.322  0.9298 -0.5380 -0.8853
  783MOL0     O 5594  11.557   4.324   0.326  0.6208  0.1946  0.0916
  783MOL0     C 5595  11.527   4.398   0.220  0.0420  0.2365  1.5596
  783MOL0     C 5596  11.554   4.536   0.226 -0.2234 -0.5592 -0.7654
  783MOL0     C 5597  11.539   4.616   0.118 -0.8058  0.6209  0.0305
  783MOL0     C 5598  11.577   4.758   0.147  0.7586  0.5858  0.4799
  783MOL0     C 5599  11.496   4.560  -0.010  0.8382  0.0629  0.5719
  783MOL0     C 5600  11.473   4.644  -0.127  0.1264 -0.7430  0.3447
  783MOL0     O 5601  11.352   4.609  -0.197  0.4016  0.2559 -0.7228
  783MOL0     C 5602  11.309   4.685  -0.304 -0.1634 -0.3301 -0.3519
  783MOL0     C 5603  11.173   4.721  -0.317  0.2470  0.5124 -0.0275
  783MOL0     C 5604  11.117   4.779  -0.429 -0.3714  0.1361  0.1257
  783MOL0     C 5605  11.197   4.820  -0.532 -0.0719 -0.2997  0.4264
  783MOL0     O 5606  11.150   4.889  -0.642 -0.8294  0.3607 -0.1019
  783MOL0     C 5607  11.019   4.934  -0.660 -0.4005 -0.6076 -0.2784
  783MOL0     C 5608  11.018   5.015  -0.798 -0.1257  0.2091 -0.1651
  783MOL0     C 5609  10.952   5.154  -0.787  0.4306 -0.0363 -0.1422
  783MOL0     C 5610  10.807   5.148  -0.799  0.7381 -0.3018 -0.8789
  783MOL0     C 5611  10.735   5.278  -0.760 -0.1722  0.2384 -0.5161
  783MOL0     C 5612  10.763   5.328  -0.615 -0.8695  0.1869 -0.3170
  783MOL0     C 5613  10.720   5.471  -0.591  0.4037  0.6779  0.6797
  783MOL0     C 5614  10.754   5.514  -0.451 -0.0778  1.2020 -0.2829
  783MOL0    Cl 5615  10.704   5.406  -0.312  0.0076 -0.4089  0.2720
  783MOL0     C 5616  11.338   4.785  -0.535  0.1058  0.8431  0.0640
  783MOL0     C 5617  11.388   4.718  -0.420 -0.3807  0.2303 -0.2973
  783MOL0     O 5618  11.550   4.735  -0.160 -0.1769  0.5770  1.0082
  783MOL0     C 5619  11.462   4.427  -0.018 -0.9829 -0.1649 -0.4232
  783MOL0     C 5620  11.485   4.348   0.096 -0.2169  0.1861  0.0607
  783MOL0     N 5621  11.746   3.931   0.538  0.3278 -0.5985 -0.6099
  783MOL0     N 5622  11.856   3.910   0.480 -0.8861 -0.8111 -0.0395
  783MOL0     C 5623  11.429   3.523   0.195  0.2498 -0.2192  0.3980
  783MOL0     C 5624  11.335   3.562   0.293  0.3628 -0.4867 -0.5394
  783MOL0     C 5625  10.935   3.602   0.527  0.0708  0.4737 -0.4876
  783MOL0     C 5626  10.815   3.674   0.528 -0.1151  0.4177  0.1682
  783MOL0     C 5627  10.726   3.677   0.631 -0.6161 -0.2371 -0.5826
  783MOL0     C 5628  10.753   3.604   0.743  0.2523  0.0065  0.0920
  783MOL0     O 5629  10.674   3.591   0.855  0.0845  0.3012 -0.5364
  783MOL0     C 5630  10.563   3.690   0.865 -0.9763  0.4705 -0.4966
  783MOL0     C 5631  10.534   3.694   1.007  0.7380 -0.0066 -0.0711
  783MOL0     C 5632  10.462   3.565   1.053 -0.5188  0.5591  0.0831
  783MOL0     C 5633  10.384   3.591   1.180 -0.2556  0.3887  0.0802
  783MOL0     C 5634  10.465   3.669   1.283  0.9939  0.5127  0.0378
  783MOL0     C 5635  10.509   3.730   1.375  0.2655  0.0882 -0.3863
  783MOL0     C 5636  10.871   3.538   0.750 -0.1704 -0.6313  0.1739
  783MOL0     C 5637  10.966   3.530   0.646  0.2445 -0.3701  0.4482
  783MOL0     H 5638  11.119   3.294   0.258  1.4212 -1.4797  4.2337
  783MOL0     H 5639  11.286   3.250   0.067  2.2197  0.0720 -0.1253
  783MOL0     H 5640  11.621   3.284   0.142  1.0276  1.5343 -0.3042
  783MOL0     H 5641  11.526   3.185   0.033 -0.0327 -0.4405  1.6268
  783MOL0     H 5642  11.737   3.178  -0.039 -0.9925  0.4656  1.7564
  783MOL0     H 5643  11.662   3.290  -0.160 -3.7571 -0.4673  1.5868
  783MOL0     H 5644  11.865   3.399  -0.137  0.1451  0.7878  0.0551
  783MOL0     H 5645  11.793   3.480  -0.001 -0.2989 -1.1902  3.1796
  783MOL0     H 5646  11.885   3.252   0.123  3.8886 -2.2150 -0.5764
  783MOL0     H 5647  12.015   3.291   0.008 -2.3394 -2.5831 -2.6081
  783MOL0     H 5648  12.054   3.404   0.212 -0.0995 -5.3300 -4.0522
  783MOL0     H 5649  12.002   3.527   0.087 -0.8477  0.3838  0.3263
  783MOL0     H 5650  11.753   3.518   0.198 -0.3366 -1.0583 -0.1347
  783MOL0     H 5651  11.807   3.388   0.293  1.1392  0.0377  2.3760
  783MOL0     H 5652  11.797   3.580   0.434  0.5545 -2.4984 -0.6112
  783MOL0     H 5653  11.958   3.509   0.430  0.8325 -0.5813 -1.3367
  783MOL0     H 5654  11.954   3.730   0.234  2.1001  1.1524  0.3306
  783MOL0     H 5655  12.027   3.739   0.389  0.5888  0.5799 -0.8174
  783MOL0     H 5656  11.656   3.743   0.287 -1.5203 -3.3758  3.4304
  783MOL0     H 5657  11.430   3.832   0.512  0.4281 -1.2821 -0.3464
  783MOL0     H 5658  11.481   3.986   0.573 -0.2077  1.0832 -0.3562
  783MOL0     H 5659  11.319   3.929   0.356  0.6649 -1.2836 -1.8577
  783MOL0     H 5660  11.465   3.924   0.268  0.7687  1.2192  0.4965
  783MOL0     H 5661  11.382   4.160   0.439  1.8905  0.6673  0.5084
  783MOL0     H 5662  11.351   4.154   0.264  0.3602  1.5599  0.3155
  783MOL0     H 5663  11.570   4.130   0.227  1.3490 -0.0779 -1.0385
  783MOL0     H 5664  11.613   4.134   0.399  0.5790 -1.9388 -1.3905
  783MOL0     H 5665  11.592   4.573   0.321 -3.5447 -0.2348  0.5533
  783MOL0     H 5666  11.477   4.798   0.166 -0.4583 -1.5292 -1.0746
  783MOL0     H 5667  11.644   4.770   0.233  4.0698 -0.5003 -1.7531
  783MOL0     H 5668  11.617   4.810   0.059 -0.7377  0.5208 -0.2773
  783MOL0     H 5669  11.114   4.707  -0.226 -0.8052 -0.1405 -0.7841
  783MOL0     H 5670  11.011   4.803  -0.429 -0.8558 -1.8426 -0.8453
  783MOL0     H 5671  10.955   4.845  -0.659 -1.5203  0.1780 -0.0980
  783MOL0     H 5672  10.984   4.989  -0.572  1.2406 -1.1180  0.7344
  783MOL0     H 5673  11.125   5.016  -0.823  1.2453 -2.7767  4.2713
  783MOL0     H 5674  10.975   4.950  -0.874  0.8874  0.3014 -0.8392
  783MOL0     H 5675  11.005   5.217  -0.858  0.1946  0.1796 -0.1309
  783MOL0     H 5676  10.982   5.189  -0.688  1.5643  2.8531 -1.4232
  783MOL0     H 5677  10.777   5.122  -0.901 -2.1549  1.2928 -0.5234
  783MOL0     H 5678  10.774   5.068  -0.732 -0.6152  2.4627  2.0340
  783MOL0     H 5679  10.626   5.268  -0.773 -0.8304  1.2140  3.2455
  783MOL0     H 5680  10.778   5.353  -0.827 -0.9290  0.7538 -0.4341
  783MOL0     H 5681  10.705   5.268  -0.545 -0.9374  0.9683  0.3094
  783MOL0     H 5682  10.868   5.318  -0.583 -0.9558 -2.2470 -0.5825
  783MOL0     H 5683  10.611   5.472  -0.594  0.3384 -0.4544  1.6365
  783MOL0     H 5684  10.767   5.541  -0.661 -1.2424  2.3522  1.1749
  783MOL0     H 5685  10.732   5.616  -0.421  0.0488  0.8360  1.1190
  783MOL0     H 5686  10.863   5.507  -0.455 -0.0236  2.3079 -2.3637
  783MOL0     H 5687  11.386   4.802  -0.630  0.3236  3.5477  0.5950
  783MOL0     H 5688  11.493   4.692  -0.418  0.1409  2.0595  2.7573
  783MOL0     H 5689  11.435   4.376  -0.110  1.3564 -0.4053 -1.0613
  783MOL0     H 5690  11.468   4.243   0.077  0.5767  0.1313 -0.4079
  783MOL0     H 5691  11.523   3.575   0.185 -0.4805  0.6474 -4.3444
  783MOL0     H 5692  11.353   3.645   0.361  3.4686 -1.3384 -0.1627
  783MOL0     H 5693  10.785   3.728   0.438 -3.7752  0.9177  1.5135
  783MOL0     H 5694  10.633   3.731   0.616 -1.9026 -2.4425 -1.1834
  783MOL0     H 5695  10.593   3.792   0.838  0.5469 -0.0861 -1.0169
  783MOL0     H 5696  10.472   3.659   0.814 -1.1506  1.8200 -1.0498
  783MOL0     H 5697  10.481   3.781   1.046  0.9488  0.4680 -0.8222
  783MOL0     H 5698  10.631   3.708   1.055  0.1893  3.7275  0.2346
  783MOL0     H 5699  10.536   3.487   1.072  0.4883  1.8248  1.6604
  783MOL0     H 5700  10.389   3.522   0.983 -0.3498  1.8761 -0.9521
  783MOL0     H 5701  10.347   3.499   1.227 -1.8416  1.6364  1.3762
  783MOL0     H 5702  10.293   3.642   1.149 -1.9150 -1.6819  1.2340
  783MOL0     H 5703  10.542   3.780   1.463  0.7459  0.4145 -0.7492
  783MOL0     H 5704  10.895   3.481   0.839  1.3262 -0.8468 -0.3408
  783MOL0     H 5705  11.056   3.471   0.653  0.7349  0.4705  1.6212
  784MOL0     O 5706   1.812   2.251   4.834 -0.1653 -0.3569  0.1176
  784MOL0     C 5707   1.882   2.181   4.755  0.2944  0.0704  0.3601
  784MOL0     O 5708   1.955   2.074   4.793 -0.3371  0.1416  0.7068
  784MOL0     C 5709   1.979   2.076   4.927 -0.1528  0.5343 -0.0043
  784MOL0     C 5710   1.916   1.996   5.030  0.0475 -0.4926  0.4950
  784MOL0     C 5711   1.944   2.010   5.173 -0.4501  0.2345  0.8918
  784MOL0     C 5712   2.051   2.087   5.206  0.6528 -0.3939  0.1899
  784MOL0     O 5713   2.060   2.095   5.342  0.6063  0.0622 -0.5037
  784MOL0     C 5714   2.120   2.209   5.397 -1.2205  0.7514 -0.0499
  784MOL0     C 5715   2.125   2.210   5.553 -0.3577  0.5782  0.1993
  784MOL0     C 5716   1.997   2.255   5.618  0.1845 -0.3477  0.4486
  784MOL0     C 5717   2.008   2.272   5.772 -0.0785  0.6868  0.2062
  784MOL0     C 5718   1.911   2.376   5.841 -0.2928  0.6290 -1.0549
  784MOL0     C 5719   1.763   2.319   5.839  0.5231 -0.4216  1.3335
  784MOL0     C 5720   1.661   2.424   5.888  0.4614  0.1787 -0.3866
  784MOL0     C 5721   1.516   2.371   5.870 -0.1157  0.7273  0.3849
  784MOL0     N 5722   1.490   2.271   5.969  0.0454  1.1987  0.0559
  784MOL0     C 5723   1.420   2.288   6.084 -0.4837  0.2851 -0.6529
  784MOL0     C 5724   1.440   2.166   6.144  0.0430  0.2043 -0.4224
  784MOL0     C 5725   1.381   2.136   6.274  0.0188  1.1607 -0.6398
  784MOL0     C 5726   1.283   2.021   6.264  0.9423 -0.8162  0.8224
  784MOL0     C 5727   1.180   2.022   6.371  0.0326  0.3668 -0.0956
  784MOL0     C 5728   1.254   2.008   6.507 -0.5622  0.1402  0.0952
  784MOL0     O 5729   1.174   2.052   6.624 -0.1554  0.7088  0.1230
  784MOL0     C 5730   1.140   2.179   6.643 -0.2808  0.5197 -1.6832
  784MOL0     C 5731   1.067   2.203   6.762  0.2540 -0.1173 -0.1889
  784MOL0     C 5732   1.040   2.332   6.804 -0.1158 -1.0663  0.1306
  784MOL0     C 5733   0.973   2.347   6.934  0.8179  0.7214 -0.3837
  784MOL0     C 5734   1.087   2.443   6.730  0.1480  0.6547  0.0590
  784MOL0     C 5735   1.081   2.582   6.782  0.7207  0.5391 -0.9993
  784MOL0     O 5736   1.200   2.648   6.760 -0.1676 -0.0602 -0.0194
  784MOL0     C 5737   1.216   2.778   6.791  1.0065 -0.2746  0.4904
  784MOL0     C 5738   1.326   2.807   6.873  0.0726  0.3883 -0.0934
  784MOL0     C 5739   1.361   2.938   6.902 -0.6378  0.6979  0.0531
  784MOL0     C 5740   1.296   3.048   6.841  1.4439  0.1411  0.3191
  784MOL0     O 5741   1.315   3.181   6.845  0.1379  1.4015  0.5485
  784MOL0     C 5742   1.388   3.232   6.965 -0.2615 -0.3368  0.1106
  784MOL0     C 5743   1.290   3.306   7.050 -0.2603  0.0622 -0.5746
  784MOL0     C 5744   1.355   3.386   7.156 -0.3476 -0.0524  0.2256
  784MOL0     C 5745   1.270   3.427   7.271 -0.6468  0.5109  0.3037
  784MOL0     C 5746   1.349   3.520   7.361 -0.4875 -0.8104 -0.5278
  784MOL0     C 5747   1.275   3.586   7.488  0.0957  0.3344  0.2148
  784MOL0     C 5748   1.243   3.475   7.598 -0.1484  0.3536 -1.0226
  784MOL0     C 5749   1.181   3.544   7.730  0.3442 -0.6187  0.1828
  784MOL0    Cl 5750   1.291   3.648   7.814 -0.4718  0.3116  0.0024
  784MOL0     C 5751   1.180   3.024   6.767 -0.0467 -0.3006  0.6707
  784MOL0     C 5752   1.140   2.889   6.743 -0.1045 -0.4295  0.5495
  784MOL0     O 5753   0.975   2.621   6.841  0.0438 -0.6084 -0.0651
  784MOL0     C 5754   1.154   2.423   6.613 -0.8722 -0.0825  0.1616
  784MOL0     C 5755   1.179   2.285   6.572  0.0539  0.9404  0.9727
  784MOL0     N 5756   1.525   2.079   6.071 -0.8717  0.8350 -0.0456
  784MOL0     N 5757   1.540   2.145   5.964  0.1291 -0.1852 -0.7608
  784MOL0     C 5758   2.118   2.161   5.110  0.0636  0.5842  0.0764
  784MOL0     C 5759   2.095   2.143   4.975  0.2125 -1.1164 -0.2462
  784MOL0     C 5760   1.869   2.224   4.614  0.8287 -0.8392  0.8305
  784MOL0     C 5761   1.908   2.131   4.516 -0.6520 -0.4067 -0.2194
  784MOL0     C 5762   1.919   2.171   4.386  0.2577  0.2248  0.7288
  784MOL0     C 5763   1.854   2.288   4.343  0.6133 -0.6309 -0.0199
  784MOL0     O 5764   1.864   2.318   4.209  1.2685  0.0575 -0.8441
  784MOL0     C 5765   1.760   2.412   4.166  0.1107 -0.1877 -0.0503
  784MOL0     C 5766   1.783   2.429   4.016  0.0991 -0.2753 -0.3821
  784MOL0     C 5767   1.662   2.434   3.934 -0.7309  0.6292  0.0182
  784MOL0     C 5768   1.594   2.565   3.971 -0.0037  0.2263  0.5716
  784MOL0     C 5769   1.482   2.609   3.890 -0.4078  0.3497 -0.5789
  784MOL0     C 5770   1.405   2.673   3.821  0.4631 -0.0043 -0.6659
  784MOL0     C 5771   1.784   2.361   4.438 -0.1322 -0.4938 -0.2549
  784MOL0     C 5772   1.802   2.339   4.573  0.4740 -0.3421 -0.4670
  784MOL0     H 5773   1.828   1.943   4.996 -1.7031  2.7193 -0.3858
  784MOL0     H 5774   1.878   1.971   5.249 -0.6745 -0.4232  0.3734
  784MOL0     H 5775   2.226   2.219   5.373 -0.5173 -0.5634  2.1724
  784MOL0     H 5776   2.079   2.301   5.354  0.9693  2.4524  1.3125
  784MOL0     H 5777   2.143   2.110   5.593 -1.6877  0.2994  0.1599
  784MOL0     H 5778   2.204   2.271   5.596  1.5489 -0.8867 -1.0435
  784MOL0     H 5779   1.982   2.352   5.571 -0.3953 -0.0377  1.2482
  784MOL0     H 5780   1.917   2.184   5.595 -0.0236  0.4720 -1.5395
  784MOL0     H 5781   2.012   2.170   5.811 -0.4187  0.1498 -1.1098
  784MOL0     H 5782   2.109   2.308   5.793  0.4915 -0.3495 -0.6836
  784MOL0     H 5783   1.940   2.390   5.945  2.3700  0.5635 -1.7026
  784MOL0     H 5784   1.920   2.472   5.788 -2.7642  1.4823 -0.0814
  784MOL0     H 5785   1.740   2.287   5.737  0.9435  0.0072  1.0990
  784MOL0     H 5786   1.752   2.226   5.896 -0.3514 -0.9423  0.3382
  784MOL0     H 5787   1.680   2.458   5.990  4.0699  1.1419 -1.2331
  784MOL0     H 5788   1.655   2.514   5.825 -0.2685  0.2017 -0.2951
  784MOL0     H 5789   1.492   2.327   5.773  0.3283  0.6938  0.2869
  784MOL0     H 5790   1.450   2.457   5.882  0.1974  1.1842 -1.0294
  784MOL0     H 5791   1.386   2.375   6.139 -0.0948 -0.7134  1.2885
  784MOL0     H 5792   1.461   2.109   6.344 -0.3466 -1.4273 -1.1109
  784MOL0     H 5793   1.327   2.224   6.309 -3.5265 -0.1953 -2.2415
  784MOL0     H 5794   1.334   1.925   6.266 -0.4795 -1.6543 -0.6533
  784MOL0     H 5795   1.226   2.026   6.170  0.0577 -5.2314  0.9139
  784MOL0     H 5796   1.114   1.936   6.356 -1.8950  1.6060  0.9101
  784MOL0     H 5797   1.117   2.109   6.356  0.0582  0.1497 -1.6208
  784MOL0     H 5798   1.351   2.058   6.506 -0.6958  0.6799  3.3877
  784MOL0     H 5799   1.272   1.901   6.512  0.4967  0.0149 -3.3362
  784MOL0     H 5800   1.043   2.119   6.826  2.0829  0.1118  0.8704
  784MOL0     H 5801   0.871   2.385   6.925  0.5089 -0.2943 -1.5540
  784MOL0     H 5802   0.964   2.248   6.981  0.8240  0.3522 -1.1482
  784MOL0     H 5803   1.020   2.411   7.009  1.7785 -2.1347  1.6675
  784MOL0     H 5804   1.394   2.726   6.898  0.2759  1.2140  2.2303
  784MOL0     H 5805   1.444   2.945   6.971  1.2811  2.0760 -2.2537
  784MOL0     H 5806   1.440   3.152   7.018 -2.9914 -0.7209  2.5133
  784MOL0     H 5807   1.465   3.290   6.915  0.8271 -2.5331 -0.8851
  784MOL0     H 5808   1.238   3.379   6.988 -0.8612  0.3643  0.2667
  784MOL0     H 5809   1.218   3.247   7.108 -0.0649  1.6319  1.3770
  784MOL0     H 5810   1.407   3.469   7.108  2.0543 -1.3270  0.4630
  784MOL0     H 5811   1.446   3.332   7.184 -0.3887 -0.7533 -0.9626
  784MOL0     H 5812   1.176   3.475   7.243 -0.0447  3.6711  3.1045
  784MOL0     H 5813   1.242   3.336   7.325  0.0998  0.3546  0.4434
  784MOL0     H 5814   1.375   3.611   7.306 -2.1689  0.0039 -0.0334
  784MOL0     H 5815   1.437   3.467   7.398  0.9025  0.6223 -1.6179
  784MOL0     H 5816   1.340   3.664   7.528  1.7913 -0.9674  0.1064
  784MOL0     H 5817   1.182   3.626   7.448  0.9347  0.6818 -1.4684
  784MOL0     H 5818   1.335   3.426   7.631  2.9038  3.1609 -4.4747
  784MOL0     H 5819   1.178   3.395   7.563 -0.2836  0.2420 -0.5323
  784MOL0     H 5820   1.148   3.470   7.803 -1.6660 -0.8171 -0.8591
  784MOL0     H 5821   1.091   3.604   7.714 -1.0899 -2.5756  0.6400
  784MOL0     H 5822   1.119   3.106   6.730  0.3428 -1.0344 -1.7385
  784MOL0     H 5823   1.052   2.868   6.684  1.7827 -5.1718 -1.0382
  784MOL0     H 5824   1.167   2.511   6.552  0.5880  1.0840  2.0322
  784MOL0     H 5825   1.238   2.269   6.482  2.3209  2.2604  2.1191
  784MOL0     H 5826   2.190   2.236   5.143  0.4967 -0.6689  2.1699
  784MOL0     H 5827   2.155   2.189   4.898 -0.7603 -2.1768 -1.6777
  784MOL0     H 5828   1.957   2.043   4.556  4.2005  2.0916  0.1130
  784MOL0     H 5829   1.976   2.112   4.314  0.5938  0.3895  0.8570
  784MOL0     H 5830   1.659   2.375   4.188 -1.0919  1.7645 -1.8195
  784MOL0     H 5831   1.771   2.508   4.217  0.7966 -0.3430  0.0894
  784MOL0     H 5832   1.839   2.346   3.974  0.7395  0.6541 -1.4012
  784MOL0     H 5833   1.842   2.521   4.015  0.5089 -0.5412 -0.8600
  784MOL0     H 5834   1.591   2.353   3.953 -1.1416  0.9404 -0.1852
  784MOL0     H 5835   1.690   2.427   3.829  4.3118  0.4557  1.0939
  784MOL0     H 5836   1.662   2.648   3.946  1.5086 -0.7892  1.2052
  784MOL0     H 5837   1.563   2.577   4.075 -2.6027  0.1376 -0.1402
  784MOL0     H 5838   1.348   2.732   3.753 -2.4181 -2.2705 -0.4431
  784MOL0     H 5839   1.728   2.450   4.413  0.6575 -0.6145 -2.7649
  784MOL0     H 5840   1.760   2.408   4.646  4.1056  0.2701  1.2708
  785MOL0     O 5841   1.242   1.180   4.243  1.1990 -0.4307 -0.2261
  785MOL0     C 5842   1.232   1.304   4.229 -0.3907  1.0864  0.7629
  785MOL0     O 5843   1.218   1.399   4.327  0.7714  0.4586  0.1422
  785MOL0     C 5844   1.228   1.368   4.458 -0.3099 -0.1856 -0.0744
  785MOL0     C 5845   1.121   1.391   4.549  0.3388 -0.4569  0.0700
  785MOL0     C 5846   1.125   1.343   4.682  1.0075 -0.6440 -0.0281
  785MOL0     C 5847   1.243   1.284   4.725  1.5183 -0.4338  0.0855
  785MOL0     O 5848   1.265   1.231   4.847  0.3678  0.3161  0.6164
  785MOL0     C 5849   1.148   1.206   4.929  0.6069  0.5161  0.2168
  785MOL0     C 5850   1.172   1.129   5.058 -0.5976 -0.8441  0.1038
  785MOL0     C 5851   1.227   0.994   5.027 -0.7868 -0.2065  0.1658
  785MOL0     C 5852   1.252   0.921   5.160  0.0961 -0.1684  0.0616
  785MOL0     C 5853   1.226   0.773   5.162 -1.1143 -0.0419  0.8846
  785MOL0     C 5854   1.316   0.695   5.071 -0.0348 -0.9810 -0.6606
  785MOL0     C 5855   1.305   0.548   5.091 -0.4788  0.1814  0.6008
  785MOL0     C 5856   1.176   0.494   5.047  0.3912  0.8242 -0.1654
  785MOL0     N 5857   1.148   0.504   4.902  0.3687 -0.3257  0.4407
  785MOL0     C 5858   1.204   0.411   4.820 -0.3895 -0.3797  0.1260
  785MOL0     C 5859   1.177   0.472   4.699  0.2436 -0.5935  0.5720
  785MOL0     C 5860   1.206   0.429   4.560 -0.0693  0.0654  0.3081
  785MOL0     C 5861   1.352   0.385   4.557 -0.0579  0.5579  0.1140
  785MOL0     C 5862   1.405   0.377   4.417  0.1895 -0.2656 -0.0653
  785MOL0     C 5863   1.337   0.287   4.326 -0.1412 -0.1009 -0.0975
  785MOL0     O 5864   1.320   0.161   4.391  0.1625  0.2124 -0.4797
  785MOL0     C 5865   1.344   0.043   4.323  0.6908  0.1499  1.5636
  785MOL0     C 5866   1.333  -0.074   4.386  0.5532 -0.4278  0.2836
  785MOL0     C 5867   1.360  -0.204   4.338 -0.4120 -0.3318 -0.8691
  785MOL0     C 5868   1.385  -0.309   4.437  0.0868  0.2354 -0.8016
  785MOL0     C 5869   1.385  -0.212   4.207  0.5124  0.0122  1.2894
  785MOL0     C 5870   1.389  -0.337   4.117  0.6229 -0.3115 -0.9732
  785MOL0     O 5871   1.414  -0.326   3.983  0.0938 -0.1746  0.2355
  785MOL0     C 5872   1.423  -0.443   3.916 -0.2139  0.4766 -0.1860
  785MOL0     C 5873   1.311  -0.523   3.895 -0.5275  0.3684 -1.0082
  785MOL0     C 5874   1.323  -0.648   3.836  0.0518  0.5533  0.2736
  785MOL0     C 5875   1.449  -0.692   3.789  0.8493  0.0954 -0.9244
  785MOL0     O 5876   1.456  -0.824   3.743  0.0376  0.3688 -0.4541
  785MOL0     C 5877   1.574  -0.866   3.681  0.1386 -0.1367  0.4504
  785MOL0     C 5878   1.537  -0.967   3.581  0.0649 -0.3591 -0.5988
  785MOL0     C 5879   1.659  -1.000   3.496 -0.9490 -0.5104 -0.4365
  785MOL0     C 5880   1.618  -1.121   3.407 -0.6045 -0.1206  1.6257
  785MOL0     C 5881   1.715  -1.138   3.295  0.6585  0.6668  0.8129
  785MOL0     C 5882   1.701  -1.277   3.227  0.5438 -1.0000 -1.3651
  785MOL0     C 5883   1.784  -1.312   3.101  0.5157  0.2184  0.8393
  785MOL0     C 5884   1.931  -1.335   3.130 -0.4118 -0.1765 -0.1611
  785MOL0    Cl 5885   2.000  -1.451   3.027 -0.2181 -0.0042  0.0140
  785MOL0     C 5886   1.559  -0.615   3.815  0.0306  0.3814  0.0460
  785MOL0     C 5887   1.544  -0.497   3.880 -0.3210 -0.0364  0.4548
  785MOL0     O 5888   1.387  -0.444   4.177 -0.4365  0.8323 -0.0970
  785MOL0     C 5889   1.383  -0.094   4.126 -0.0703 -0.3986 -0.4066
  785MOL0     C 5890   1.367   0.031   4.183 -0.1827 -0.9810  0.6648
  785MOL0     N 5891   1.087   0.575   4.706 -0.9325 -0.0753 -0.0889
  785MOL0     N 5892   1.064   0.598   4.834 -0.0996 -0.1167  0.2263
  785MOL0     C 5893   1.349   1.263   4.639 -0.6121 -0.5936 -0.7547
  785MOL0     C 5894   1.343   1.300   4.504  0.3483 -0.4577 -0.3353
  785MOL0     C 5895   1.230   1.359   4.095 -0.2215 -0.6860 -0.4814
  785MOL0     C 5896   1.259   1.497   4.083 -0.5005  0.3488  0.1120
  785MOL0     C 5897   1.263   1.539   3.952  0.2648  0.8348 -0.3021
  785MOL0     C 5898   1.228   1.471   3.847 -0.3563  0.7251  0.1525
  785MOL0     O 5899   1.254   1.511   3.714 -0.6315  0.8441  0.3167
  785MOL0     C 5900   1.219   1.639   3.680  0.0877 -0.1948 -0.3877
  785MOL0     C 5901   1.276   1.674   3.541  0.3315  0.7103  0.3033
  785MOL0     C 5902   1.369   1.799   3.554 -0.0208  0.2548  0.5513
  785MOL0     C 5903   1.472   1.823   3.443 -0.7677 -0.0776 -0.8481
  785MOL0     C 5904   1.547   1.950   3.458 -0.8115  0.0489 -0.7036
  785MOL0     C 5905   1.609   2.049   3.493 -0.3343 -0.4823  0.5245
  785MOL0     C 5906   1.212   1.331   3.851  0.5847 -1.1317  0.2571
  785MOL0     C 5907   1.224   1.275   3.985 -0.0987 -1.1848 -0.3646
  785MOL0     H 5908   1.029   1.442   4.523  0.8813  2.2945  2.9650
  785MOL0     H 5909   1.037   1.358   4.745  0.3004  1.0536 -1.3458
  785MOL0     H 5910   1.088   1.295   4.948 -5.9377 -3.3014  0.4558
  785MOL0     H 5911   1.072   1.152   4.873 -0.6054  1.5840  0.7757
  785MOL0     H 5912   1.246   1.190   5.111 -0.6485  0.9704 -1.8194
  785MOL0     H 5913   1.078   1.132   5.116 -0.4985  2.0978  0.2389
  785MOL0     H 5914   1.155   0.949   4.958  0.4020 -0.4816 -0.9198
  785MOL0     H 5915   1.322   1.017   4.978 -0.0791  1.7031  2.2271
  785MOL0     H 5916   1.356   0.948   5.176 -0.0456  0.5514 -0.1924
  785MOL0     H 5917   1.200   0.976   5.240  1.6334  0.5979  0.5625
  785MOL0     H 5918   1.239   0.735   5.264 -2.6089 -4.2564 -0.2952
  785MOL0     H 5919   1.119   0.764   5.141 -1.6989  1.5637  2.7867
  785MOL0     H 5920   1.281   0.733   4.974 -3.1845 -0.2596  0.6241
  785MOL0     H 5921   1.421   0.720   5.084  0.8506 -3.6217 -2.0165
  785MOL0     H 5922   1.375   0.499   5.023 -2.0132  1.0898 -1.7303
  785MOL0     H 5923   1.311   0.519   5.196  1.7537  0.0619  0.4895
  785MOL0     H 5924   1.099   0.554   5.096  1.1374  4.3694 -2.9116
  785MOL0     H 5925   1.179   0.388   5.074 -0.1002  0.9872  0.5299
  785MOL0     H 5926   1.272   0.332   4.852  1.5094  0.6080 -1.2459
  785MOL0     H 5927   1.137   0.356   4.516  0.9021  0.1767 -1.4954
  785MOL0     H 5928   1.202   0.512   4.489  3.2445 -2.3617 -3.1146
  785MOL0     H 5929   1.368   0.295   4.617 -2.2132 -0.9608 -1.4494
  785MOL0     H 5930   1.404   0.470   4.602 -2.5626  2.2696  0.0479
  785MOL0     H 5931   1.504   0.332   4.425  0.3645  0.3740  2.4030
  785MOL0     H 5932   1.407   0.481   4.383 -0.8013  1.1510  3.6338
  785MOL0     H 5933   1.387   0.293   4.229  1.0817 -0.7989  0.4668
  785MOL0     H 5934   1.238   0.325   4.297  0.2508  0.1356 -1.1698
  785MOL0     H 5935   1.292  -0.069   4.487 -1.2889  0.2466 -0.4569
  785MOL0     H 5936   1.297  -0.372   4.447 -0.7172  1.6090  1.5575
  785MOL0     H 5937   1.479  -0.359   4.409  0.6076  1.8537 -2.1124
  785MOL0     H 5938   1.389  -0.268   4.539 -2.3986 -0.5375 -0.3346
  785MOL0     H 5939   1.222  -0.481   3.941  0.7001  1.7678  0.1843
  785MOL0     H 5940   1.236  -0.711   3.817  1.6475 -0.9592 -2.6269
  785MOL0     H 5941   1.633  -0.786   3.636  0.6436 -0.8628 -0.2085
  785MOL0     H 5942   1.627  -0.915   3.763  1.5884  0.5834 -0.0347
  785MOL0     H 5943   1.512  -1.057   3.639  0.2377  0.4819  0.8470
  785MOL0     H 5944   1.453  -0.938   3.518 -0.2823 -2.0635 -0.9804
  785MOL0     H 5945   1.747  -1.027   3.555  0.7628  2.2973 -1.4729
  785MOL0     H 5946   1.684  -0.908   3.441  0.6591  1.2247  2.8481
  785MOL0     H 5947   1.627  -1.214   3.463  0.2196  0.6176  2.7530
  785MOL0     H 5948   1.512  -1.113   3.381  0.1378  2.2064 -1.2304
  785MOL0     H 5949   1.813  -1.138   3.345  1.3372  0.3894 -0.4553
  785MOL0     H 5950   1.707  -1.058   3.221  3.3185  0.3995  0.1264
  785MOL0     H 5951   1.719  -1.352   3.304 -1.7197  0.7116  0.9832
  785MOL0     H 5952   1.597  -1.290   3.195  0.4556 -1.7949 -0.7857
  785MOL0     H 5953   1.770  -1.231   3.028 -1.9303 -1.9523 -1.3375
  785MOL0     H 5954   1.752  -1.403   3.049 -0.6803  1.7920 -1.3578
  785MOL0     H 5955   1.940  -1.377   3.231 -0.2038 -0.5550 -0.3348
  785MOL0     H 5956   1.982  -1.239   3.121  1.4913 -1.3744 -3.7720
  785MOL0     H 5957   1.660  -0.651   3.794  0.9652  2.2232  1.1358
  785MOL0     H 5958   1.632  -0.433   3.888  0.4347 -1.1594  1.6043
  785MOL0     H 5959   1.397  -0.097   4.018 -0.4611 -1.2708 -0.4481
  785MOL0     H 5960   1.369   0.117   4.116  2.3887  1.3379  3.4078
  785MOL0     H 5961   1.436   1.212   4.679  1.1205  1.4638 -1.6647
  785MOL0     H 5962   1.414   1.274   4.426  1.1955  2.0416 -0.4915
  785MOL0     H 5963   1.311   1.550   4.161  0.7474 -0.7753  0.0906
  785MOL0     H 5964   1.299   1.640   3.933  4.7875 -0.6603 -0.8763
  785MOL0     H 5965   1.110   1.644   3.684  0.1048 -0.6410  0.9696
  785MOL0     H 5966   1.254   1.716   3.750 -0.3002 -1.7517  1.6051
  785MOL0     H 5967   1.195   1.702   3.473 -1.9431 -3.2070  1.1179
  785MOL0     H 5968   1.336   1.596   3.492 -1.5121 -0.0680 -0.8219
  785MOL0     H 5969   1.429   1.790   3.646 -0.8271  2.7666  1.4195
  785MOL0     H 5970   1.312   1.892   3.558  0.4330  0.5440  0.2413
  785MOL0     H 5971   1.440   1.821   3.338 -0.3157 -0.6940 -0.9808
  785MOL0     H 5972   1.547   1.744   3.450 -0.7275  0.1020  1.6359
  785MOL0     H 5973   1.649   2.143   3.527  1.2401 -0.2981 -1.6122
  785MOL0     H 5974   1.180   1.288   3.756  1.6002  0.8829 -1.0691
  785MOL0     H 5975   1.207   1.171   4.008  1.7434 -1.0659  1.8255
  786MOL0     O 5976   5.837   5.196   6.894 -0.0551 -0.9448  0.3001
  786MOL0     C 5977   5.853   5.101   6.817  0.9546 -0.1608 -0.2861
  786MOL0     O 5978   5.933   4.991   6.846 -0.5210  0.3943  0.4079
  786MOL0     C 5979   5.999   4.995   6.968  0.6715 -0.2919  0.9422
  786MOL0     C 5980   6.136   4.991   6.980 -0.0058 -0.4871 -0.2467
  786MOL0     C 5981   6.195   5.011   7.114 -0.2117 -0.2357  0.6152
  786MOL0     C 5982   6.106   4.996   7.225  0.3031  0.0632  0.7162
  786MOL0     O 5983   6.171   4.999   7.347 -0.5213 -0.0461  0.7985
  786MOL0     C 5984   6.108   4.925   7.446 -0.6381 -0.9188  0.2181
  786MOL0     C 5985   6.199   4.909   7.573 -0.3119 -0.0527 -0.1651
  786MOL0     C 5986   6.347   4.867   7.530 -0.0111  0.4588  1.1122
  786MOL0     C 5987   6.353   4.739   7.445  1.0451 -0.4860 -0.2774
  786MOL0     C 5988   6.485   4.657   7.461 -0.3603 -0.3041  0.5442
  786MOL0     C 5989   6.562   4.644   7.322 -0.6055  0.1116 -0.3399
  786MOL0     C 5990   6.704   4.580   7.339 -0.0825  0.3387 -0.9145
  786MOL0     C 5991   6.784   4.528   7.217 -0.3833  0.6507 -0.1505
  786MOL0     N 5992   6.864   4.407   7.246  1.0276  0.0286 -0.0943
  786MOL0     C 5993   6.816   4.277   7.220 -0.5718  0.6298  0.8652
  786MOL0     C 5994   6.925   4.193   7.216 -0.1599  0.5492  0.3418
  786MOL0     C 5995   6.933   4.044   7.185 -0.2789 -0.4309  0.6132
  786MOL0     C 5996   6.908   3.953   7.307  0.0059 -0.1241 -0.4175
  786MOL0     C 5997   7.030   3.869   7.325 -0.4840  0.3736  0.3594
  786MOL0     C 5998   7.034   3.747   7.231 -0.0587 -0.1670 -0.3771
  786MOL0     O 5999   7.134   3.648   7.260  0.0970 -0.4107  0.1993
  786MOL0     C 6000   7.098   3.520   7.282  0.8537  0.0776  0.1840
  786MOL0     C 6001   6.993   3.454   7.211 -0.0309 -0.8022 -1.0466
  786MOL0     C 6002   6.962   3.319   7.236 -0.5509  0.2352  0.7036
  786MOL0     C 6003   6.873   3.262   7.130  0.8418  0.8877  0.7888
  786MOL0     C 6004   7.025   3.245   7.341  0.3814  0.1960  0.6109
  786MOL0     C 6005   7.005   3.099   7.366 -0.6475  0.2462  0.4654
  786MOL0     O 6006   7.052   3.054   7.488 -0.6272  0.0662 -0.0626
  786MOL0     C 6007   7.071   2.921   7.506  0.0168  0.5578  0.5030
  786MOL0     C 6008   7.197   2.864   7.531  0.1286  0.7631 -0.7042
  786MOL0     C 6009   7.213   2.727   7.564 -0.3779  0.3974 -1.2594
  786MOL0     C 6010   7.101   2.642   7.576  0.7093 -1.0036  0.6736
  786MOL0     O 6011   7.132   2.513   7.578  0.3973 -0.5097  0.0195
  786MOL0     C 6012   7.040   2.419   7.627 -0.3479 -0.1352 -1.0641
  786MOL0     C 6013   7.107   2.284   7.648 -0.1660  0.2272  0.0665
  786MOL0     C 6014   7.009   2.183   7.700  0.0501  0.6897 -0.2818
  786MOL0     C 6015   6.981   2.189   7.848  0.3260  0.6754  0.3396
  786MOL0     C 6016   6.879   2.083   7.882 -0.0746  0.7962 -0.2953
  786MOL0     C 6017   6.929   1.931   7.882  0.0882  0.2974 -1.4974
  786MOL0     C 6018   7.020   1.903   8.001  0.3012 -0.3363 -0.0192
  786MOL0     C 6019   7.087   1.768   7.984 -0.4777  0.3011 -0.0699
  786MOL0    Cl 6020   7.196   1.765   7.835 -0.0880  0.1301  0.2918
  786MOL0     C 6021   6.975   2.702   7.562 -0.1447 -0.3577 -0.0607
  786MOL0     C 6022   6.965   2.838   7.524 -0.1742  0.0536 -0.4295
  786MOL0     O 6023   6.968   3.030   7.280  0.6818  0.0935  0.8996
  786MOL0     C 6024   7.127   3.312   7.410  0.3981 -0.9445 -0.2145
  786MOL0     C 6025   7.165   3.442   7.378  0.1195  0.3172  0.0879
  786MOL0     N 6026   7.040   4.268   7.235  0.6092 -0.9474 -0.3074
  786MOL0     N 6027   7.000   4.395   7.234  0.0158 -0.3514  0.3480
  786MOL0     C 6028   5.967   4.974   7.207 -0.6179  0.2474  1.1341
  786MOL0     C 6029   5.918   4.981   7.078 -0.4916  0.7879  0.1505
  786MOL0     C 6030   5.765   5.100   6.691 -0.0146  0.8754  0.6195
  786MOL0     C 6031   5.682   5.211   6.655 -0.3756 -0.2766  0.6597
  786MOL0     C 6032   5.608   5.206   6.540  0.9400  0.5574  0.1255
  786MOL0     C 6033   5.609   5.091   6.456 -0.0955 -0.0438 -0.2732
  786MOL0     O 6034   5.526   5.071   6.349 -0.2400 -0.3406 -0.5331
  786MOL0     C 6035   5.520   5.192   6.261 -0.4545  0.5198  1.0203
  786MOL0     C 6036   5.510   5.146   6.119 -0.2569  0.5187  1.0533
  786MOL0     C 6037   5.473   5.277   6.033  0.3569  0.1045  0.3198
  786MOL0     C 6038   5.448   5.246   5.884  0.1278 -0.4483  0.5310
  786MOL0     C 6039   5.392   5.369   5.822 -0.1441  0.2122 -0.4195
  786MOL0     C 6040   5.364   5.470   5.756 -0.0900  0.2012  0.3508
  786MOL0     C 6041   5.691   4.983   6.489 -0.1575  0.2264 -0.5003
  786MOL0     C 6042   5.764   4.989   6.610 -0.2481  0.1160  0.3124
  786MOL0     H 6043   6.201   4.984   6.893  0.0125  1.4286 -0.4354
  786MOL0     H 6044   6.296   5.051   7.120  0.5981 -1.9570 -0.4275
  786MOL0     H 6045   6.018   4.977   7.480 -1.7371 -1.5186 -1.6566
  786MOL0     H 6046   6.082   4.827   7.405 -0.8355 -1.6437  1.9947
  786MOL0     H 6047   6.196   5.006   7.624 -1.2368  1.8904 -3.6500
  786MOL0     H 6048   6.157   4.826   7.631  3.8132 -3.2725 -1.3137
  786MOL0     H 6049   6.386   4.955   7.478  0.5361  1.6927  3.4658
  786MOL0     H 6050   6.413   4.846   7.615 -0.7898 -1.5614  1.2680
  786MOL0     H 6051   6.279   4.662   7.469  0.9778  0.0100  1.2199
  786MOL0     H 6052   6.341   4.783   7.346  0.9909 -0.3874 -0.2271
  786MOL0     H 6053   6.546   4.712   7.533 -0.7152  0.3206  0.3735
  786MOL0     H 6054   6.451   4.560   7.499 -0.5202  0.0009  1.1941
  786MOL0     H 6055   6.510   4.574   7.257  1.8053 -3.1797  0.9617
  786MOL0     H 6056   6.586   4.742   7.279 -0.0572 -0.2122 -0.7828
  786MOL0     H 6057   6.767   4.644   7.401  1.3097 -1.3121 -0.5516
  786MOL0     H 6058   6.683   4.487   7.394 -0.0668  0.6108 -0.4425
  786MOL0     H 6059   6.855   4.604   7.181  0.1228  0.3539  0.1989
  786MOL0     H 6060   6.726   4.520   7.125  1.7771 -0.3013 -1.5264
  786MOL0     H 6061   6.717   4.240   7.194  0.1618 -1.4939  0.8900
  786MOL0     H 6062   6.876   4.027   7.093  1.6039  0.5161 -0.7752
  786MOL0     H 6063   7.035   4.047   7.147 -1.9068  0.2749 -4.4148
  786MOL0     H 6064   6.814   3.898   7.298 -1.3349  1.1834  3.5633
  786MOL0     H 6065   6.917   4.015   7.397  0.9631  1.3454 -1.4906
  786MOL0     H 6066   7.039   3.824   7.424 -1.4290 -1.9764 -0.5542
  786MOL0     H 6067   7.124   3.924   7.315  0.1733 -0.8249 -0.3254
  786MOL0     H 6068   7.061   3.786   7.132  0.8469  4.0118  1.3152
  786MOL0     H 6069   6.937   3.699   7.215  0.7584 -1.7084 -0.9288
  786MOL0     H 6070   6.936   3.512   7.139 -0.2442  0.0027 -0.2428
  786MOL0     H 6071   6.791   3.335   7.118  0.1639  0.6765  3.4365
  786MOL0     H 6072   6.917   3.240   7.032  0.2894 -2.3294  1.1800
  786MOL0     H 6073   6.808   3.178   7.156  0.0537  1.8903  2.2456
  786MOL0     H 6074   7.281   2.933   7.527  1.3555 -0.6657 -0.4701
  786MOL0     H 6075   7.308   2.678   7.581  0.0960  2.1634  1.9264
  786MOL0     H 6076   7.004   2.464   7.720  1.5385  1.0889 -0.8875
  786MOL0     H 6077   6.953   2.402   7.562 -2.6495  1.4891  1.3609
  786MOL0     H 6078   7.138   2.255   7.547  0.1417  0.6797  0.0259
  786MOL0     H 6079   7.197   2.286   7.710 -1.4127 -2.2503  2.1791
  786MOL0     H 6080   7.050   2.087   7.668  1.6687  0.5853  1.8943
  786MOL0     H 6081   6.915   2.182   7.644 -0.6225  4.4966  0.5068
  786MOL0     H 6082   7.066   2.188   7.916 -0.3807 -0.1387  1.2492
  786MOL0     H 6083   6.927   2.283   7.869 -0.2568  0.5200 -0.4164
  786MOL0     H 6084   6.794   2.088   7.813  0.5350  1.7902 -0.9935
  786MOL0     H 6085   6.850   2.094   7.987 -2.3544 -1.6370 -0.5510
  786MOL0     H 6086   6.847   1.865   7.910 -0.2515  1.6543  1.0782
  786MOL0     H 6087   6.981   1.901   7.791  0.9562  1.8564 -1.5550
  786MOL0     H 6088   6.956   1.895   8.090  1.7188 -3.7659  0.8675
  786MOL0     H 6089   7.099   1.974   8.022 -1.7245  2.0637 -0.0701
  786MOL0     H 6090   7.010   1.691   7.971 -3.2572  2.6996  1.0485
  786MOL0     H 6091   7.152   1.744   8.068 -1.4325  1.8734  1.1556
  786MOL0     H 6092   6.882   2.648   7.577 -0.0006 -0.1608  1.7913
  786MOL0     H 6093   6.874   2.892   7.498 -1.4728 -1.8100  0.0317
  786MOL0     H 6094   7.191   3.277   7.490  1.7075 -1.5799 -1.5025
  786MOL0     H 6095   7.250   3.494   7.420 -0.2949 -0.9520  2.7116
  786MOL0     H 6096   5.905   4.959   7.295 -0.9741  0.1007  0.8609
  786MOL0     H 6097   5.812   4.960   7.069 -0.5261  1.2042 -0.4785
  786MOL0     H 6098   5.684   5.305   6.710  0.8421 -0.0784  0.3029
  786MOL0     H 6099   5.546   5.288   6.504 -0.3761 -1.2896 -2.0815
  786MOL0     H 6100   5.432   5.248   6.294 -1.9216 -0.8815 -0.3244
  786MOL0     H 6101   5.610   5.253   6.270  0.0143 -0.1727  1.1435
  786MOL0     H 6102   5.427   5.076   6.103  0.0134 -0.5292  3.7983
  786MOL0     H 6103   5.602   5.100   6.082  0.8033  2.9794  0.3794
  786MOL0     H 6104   5.561   5.340   6.039 -1.2634  2.7120 -1.1946
  786MOL0     H 6105   5.385   5.332   6.069 -1.5261  0.0996 -3.6992
  786MOL0     H 6106   5.376   5.168   5.861  0.8318 -0.5099 -1.6550
  786MOL0     H 6107   5.546   5.216   5.845 -0.2792 -3.6886  1.7481
  786MOL0     H 6108   5.326   5.555   5.704  2.7817  2.2806  1.4163
  786MOL0     H 6109   5.703   4.895   6.426  1.9595 -2.2403  3.0089
  786MOL0     H 6110   5.823   4.905   6.645  0.4804  0.9521  1.1429
  787MOL0     O 6111  11.139   4.231   7.773  0.2916 -0.8105  0.2204
  787MOL0     C 6112  11.116   4.169   7.872 -0.0535 -0.8527  0.1789
  787MOL0     O 6113  11.168   4.055   7.909 -0.2658  0.3921  0.5542
  787MOL0     C 6114  11.273   4.003   7.838 -0.3483  0.9802  0.7930
  787MOL0     C 6115  11.399   4.062   7.807  0.1935 -0.5697  0.3904
  787MOL0     C 6116  11.509   4.002   7.756  0.6231  0.3497  1.3950
  787MOL0     C 6117  11.505   3.868   7.716 -0.1468  0.7649  0.1534
  787MOL0     O 6118  11.626   3.818   7.676  0.9881 -0.2038  0.4918
  787MOL0     C 6119  11.604   3.694   7.613 -0.4327 -0.3393  0.4236
  787MOL0     C 6120  11.747   3.664   7.571 -0.3925 -0.1586 -0.1740
  787MOL0     C 6121  11.761   3.530   7.496  0.2452  0.2763 -0.5230
  787MOL0     C 6122  11.894   3.458   7.520  0.3936  0.4929 -0.4064
  787MOL0     C 6123  11.882   3.327   7.449  0.1720  0.9867  0.3122
  787MOL0     C 6124  11.950   3.197   7.523 -0.0334 -0.3087 -1.0321
  787MOL0     C 6125  11.989   3.084   7.432  0.0150 -0.3888  0.2608
  787MOL0     C 6126  11.862   3.005   7.395 -0.6649  1.2186  0.1649
  787MOL0     N 6127  11.827   2.897   7.489 -0.5396 -0.2194 -0.1433
  787MOL0     C 6128  11.790   2.915   7.625  0.1948 -0.0399  0.4849
  787MOL0     C 6129  11.777   2.790   7.685 -0.0811  0.3133  0.1866
  787MOL0     C 6130  11.722   2.751   7.814  0.6321 -0.4655  0.4484
  787MOL0     C 6131  11.630   2.841   7.886  0.2601  0.7918  0.6364
  787MOL0     C 6132  11.590   2.778   8.020 -0.7564 -0.2100  0.5434
  787MOL0     C 6133  11.437   2.787   8.059 -0.6149  1.2536 -0.0661
  787MOL0     O 6134  11.364   2.718   7.955 -0.1894  1.0547  0.2532
  787MOL0     C 6135  11.231   2.678   7.981 -0.1398  0.7748  0.5545
  787MOL0     C 6136  11.155   2.693   8.104  0.0391 -0.3375 -0.7283
  787MOL0     C 6137  11.026   2.644   8.138 -1.0874 -0.1059 -0.1544
  787MOL0     C 6138  10.980   2.649   8.282 -0.9325 -0.2544 -0.7261
  787MOL0     C 6139  10.960   2.587   8.033  0.4571 -0.1422  1.2399
  787MOL0     C 6140  10.822   2.526   8.041  1.0166 -0.1348  0.6631
  787MOL0     O 6141  10.802   2.407   7.972  0.5468 -0.5901 -0.0335
  787MOL0     C 6142  10.680   2.346   7.974  0.3789 -0.3316  0.5523
  787MOL0     C 6143  10.641   2.270   8.090 -0.3900 -0.9394  0.3898
  787MOL0     C 6144  10.519   2.207   8.099  0.6655  0.1916 -0.1383
  787MOL0     C 6145  10.414   2.227   8.000  0.1378  0.5961 -0.6711
  787MOL0     O 6146  10.294   2.165   8.017  0.2923  0.1505 -0.5384
  787MOL0     C 6147  10.184   2.186   7.935  0.5413  0.1551  0.9609
  787MOL0     C 6148  10.062   2.109   7.993 -0.7349 -0.0502 -0.1602
  787MOL0     C 6149   9.936   2.145   7.906  0.1008 -0.0723  0.6738
  787MOL0     C 6150   9.882   2.281   7.958  0.6617 -0.0231 -0.2059
  787MOL0     C 6151   9.761   2.329   7.870  0.0451  0.8089  0.3876
  787MOL0     C 6152   9.659   2.399   7.957 -0.6487  0.4086  0.0285
  787MOL0     C 6153   9.714   2.526   8.019 -0.4896  0.1512 -0.3346
  787MOL0     C 6154   9.734   2.626   7.901  0.9748 -0.5564  0.2272
  787MOL0    Cl 6155   9.890   2.644   7.832  0.0905  0.1641  0.1060
  787MOL0     C 6156  10.450   2.324   7.897  0.0974 -0.9302  0.2781
  787MOL0     C 6157  10.579   2.376   7.879 -0.3151 -0.1390  0.2096
  787MOL0     O 6158  10.727   2.598   8.083 -0.2538 -0.3044  0.4940
  787MOL0     C 6159  11.028   2.557   7.907 -0.7765 -0.2749 -0.2327
  787MOL0     C 6160  11.160   2.611   7.884  0.1711 -0.3776  0.1704
  787MOL0     N 6161  11.795   2.705   7.588 -0.2538  0.1652  0.7411
  787MOL0     N 6162  11.828   2.760   7.468  0.4181  0.2511 -0.2285
  787MOL0     C 6163  11.382   3.797   7.738  0.0712 -0.3379  0.0943
  787MOL0     C 6164  11.274   3.864   7.808 -0.0455 -0.8562  0.3494
  787MOL0     C 6165  11.008   4.237   7.957 -0.9447  0.1530  0.5802
  787MOL0     C 6166  10.998   4.195   8.094  0.0698 -0.3621 -0.6657
  787MOL0     C 6167  10.914   4.262   8.186 -0.1448 -0.9775 -0.3508
  787MOL0     C 6168  10.827   4.358   8.146  0.6043 -0.7523  0.1719
  787MOL0     O 6169  10.752   4.427   8.242 -0.4586 -0.2385  0.1802
  787MOL0     C 6170  10.717   4.574   8.220 -0.2719  0.2546 -0.1639
  787MOL0     C 6171  10.684   4.648   8.350 -1.1242 -0.0415  0.7368
  787MOL0     C 6172  10.549   4.649   8.391  0.1904 -0.3973  0.3449
  787MOL0     C 6173  10.460   4.719   8.285  0.2202 -1.3955 -0.0329
  787MOL0     C 6174  10.494   4.857   8.255 -1.0425  0.9153  0.2247
  787MOL0     C 6175  10.499   4.968   8.207 -0.6228  0.4853 -0.6515
  787MOL0     C 6176  10.824   4.399   8.004 -0.0004  0.2738 -0.1309
  787MOL0     C 6177  10.918   4.335   7.916  0.5580 -1.4383  0.3696
  787MOL0     H 6178  11.405   4.162   7.849 -1.1121 -1.4851  2.9687
  787MOL0     H 6179  11.603   4.054   7.743 -0.7253  2.2385 -2.1129
  787MOL0     H 6180  11.557   3.618   7.676 -3.1448  1.4953  0.7879
  787MOL0     H 6181  11.536   3.699   7.528  0.3743  1.8501 -0.1656
  787MOL0     H 6182  11.779   3.754   7.517 -1.0459  0.9875  1.2706
  787MOL0     H 6183  11.802   3.657   7.665  0.0941 -0.1379 -0.4551
  787MOL0     H 6184  11.673   3.472   7.525  0.0932 -1.0765 -3.3595
  787MOL0     H 6185  11.755   3.539   7.387  0.4234 -1.6221 -0.7326
  787MOL0     H 6186  11.973   3.518   7.474 -1.1793  0.8502 -2.8636
  787MOL0     H 6187  11.911   3.441   7.627  1.2258  1.7708 -0.3199
  787MOL0     H 6188  11.776   3.304   7.435 -0.7015  4.5134  0.2611
  787MOL0     H 6189  11.921   3.341   7.348  1.9194 -0.9624  0.6441
  787MOL0     H 6190  12.038   3.233   7.577 -1.4321  1.4108  0.2200
  787MOL0     H 6191  11.884   3.166   7.604  2.4229  3.1215  2.6299
  787MOL0     H 6192  12.030   3.129   7.341  0.6179 -0.3089  0.5725
  787MOL0     H 6193  12.060   3.021   7.486 -2.4928 -2.1149  1.7753
  787MOL0     H 6194  11.867   2.960   7.296  1.1487  2.9847 -0.6158
  787MOL0     H 6195  11.774   3.070   7.398 -2.0023 -0.5086 -0.2560
  787MOL0     H 6196  11.774   3.009   7.677  1.2505  1.0018 -0.9558
  787MOL0     H 6197  11.660   2.664   7.788  0.7859 -0.3241 -0.4152
  787MOL0     H 6198  11.802   2.722   7.882 -2.1971 -0.5321  4.0598
  787MOL0     H 6199  11.533   2.846   7.836  0.2778  0.4346  0.5664
  787MOL0     H 6200  11.674   2.941   7.898  2.1306  0.1671 -0.5584
  787MOL0     H 6201  11.667   2.803   8.093 -0.8104 -1.4654  1.0576
  787MOL0     H 6202  11.606   2.669   8.016 -0.9593 -0.2320  0.2962
  787MOL0     H 6203  11.411   2.888   8.093  2.5970  1.1797  3.2644
  787MOL0     H 6204  11.427   2.723   8.146  0.4240  1.3985  0.1694
  787MOL0     H 6205  11.213   2.734   8.186 -0.3576  0.6318 -0.9286
  787MOL0     H 6206  10.879   2.605   8.286 -0.4858 -1.2206  2.4080
  787MOL0     H 6207  11.056   2.592   8.336  0.4190  1.0132 -1.2292
  787MOL0     H 6208  10.982   2.753   8.314 -3.2402 -0.3984  0.1027
  787MOL0     H 6209  10.709   2.261   8.174  0.8688 -0.1369 -0.5098
  787MOL0     H 6210  10.479   2.147   8.180 -4.2719  1.9490 -0.9383
  787MOL0     H 6211  10.164   2.294   7.926  3.7421  0.7719 -0.1084
  787MOL0     H 6212  10.206   2.140   7.838  0.5763 -1.4657  1.7125
  787MOL0     H 6213  10.093   2.005   7.998 -0.9240 -0.1050 -0.1341
  787MOL0     H 6214  10.032   2.146   8.091 -0.8584  0.7443 -0.4880
  787MOL0     H 6215   9.856   2.073   7.928 -2.4432  2.6377  1.0614
  787MOL0     H 6216   9.961   2.156   7.800 -0.7652  1.3314  0.5818
  787MOL0     H 6217   9.854   2.277   8.064 -1.5083 -2.5357 -0.7660
  787MOL0     H 6218   9.958   2.360   7.953 -0.3450  1.0744  0.9945
  787MOL0     H 6219   9.727   2.246   7.807  0.7535  1.6465 -1.1419
  787MOL0     H 6220   9.792   2.398   7.791 -1.0336 -0.9739 -1.7109
  787MOL0     H 6221   9.563   2.421   7.908 -1.0845  0.7145  0.9983
  787MOL0     H 6222   9.635   2.326   8.035 -3.3348  0.7221 -0.4195
  787MOL0     H 6223   9.807   2.533   8.077 -1.8853 -1.1238  2.2209
  787MOL0     H 6224   9.637   2.550   8.092 -1.7249 -2.3104 -0.7284
  787MOL0     H 6225   9.692   2.722   7.935  0.7019 -0.9345  0.9815
  787MOL0     H 6226   9.666   2.598   7.820  0.7553  0.9819 -0.1577
  787MOL0     H 6227  10.364   2.349   7.835 -0.3909  0.8097  1.5714
  787MOL0     H 6228  10.624   2.430   7.796  1.8327 -1.3471  0.5225
  787MOL0     H 6229  10.961   2.515   7.833 -1.3657 -0.1232  0.2133
  787MOL0     H 6230  11.216   2.593   7.793 -0.3065  0.8439 -0.3822
  787MOL0     H 6231  11.370   3.690   7.725  0.9036 -0.2472 -1.6692
  787MOL0     H 6232  11.183   3.814   7.839 -2.2896  0.6966 -3.1459
  787MOL0     H 6233  11.063   4.125   8.145 -0.3150  1.1908  2.1133
  787MOL0     H 6234  10.922   4.240   8.293 -2.6626  1.5025  0.4545
  787MOL0     H 6235  10.802   4.616   8.166  0.5110 -3.1992 -1.9310
  787MOL0     H 6236  10.638   4.582   8.145  0.3248  2.2594 -0.6484
  787MOL0     H 6237  10.720   4.749   8.328 -2.2624  0.3147  0.4822
  787MOL0     H 6238  10.739   4.607   8.436 -0.4187 -0.4589  0.0904
  787MOL0     H 6239  10.552   4.713   8.480  1.5781 -1.6411  1.2383
  787MOL0     H 6240  10.508   4.549   8.408 -2.0194  0.0726 -1.6402
  787MOL0     H 6241  10.357   4.736   8.317  0.4456 -3.1688  1.8784
  787MOL0     H 6242  10.448   4.661   8.192  2.1476 -3.1207  0.7154
  787MOL0     H 6243  10.512   5.071   8.180  0.5315  0.5097 -0.0882
  787MOL0     H 6244  10.757   4.481   7.981 -0.5092 -0.0789  0.0765
  787MOL0     H 6245  10.916   4.358   7.810 -0.8078 -2.9401  0.0267
  788MOL0     O 6246   0.241   3.861   3.806 -0.1511 -0.6101 -0.2499
  788MOL0     C 6247   0.191   3.911   3.705  0.1267 -0.5554  0.0014
  788MOL0     O 6248   0.081   3.996   3.695 -0.2203 -0.4259 -0.0697
  788MOL0     C 6249   0.017   4.047   3.805  0.0336 -0.9880 -0.7332
  788MOL0     C 6250   0.080   4.070   3.936 -0.3795 -0.4153  0.5412
  788MOL0     C 6251   0.002   4.108   4.054  0.3545  0.5656  1.5445
  788MOL0     C 6252  -0.132   4.145   4.038  1.0395  0.6783  0.2472
  788MOL0     O 6253  -0.212   4.173   4.147 -0.7159 -0.1249 -0.0347
  788MOL0     C 6254  -0.167   4.286   4.212 -0.5541 -0.0574  0.1858
  788MOL0     C 6255  -0.269   4.325   4.327  0.5270 -0.2182  0.2215
  788MOL0     C 6256  -0.320   4.202   4.399  1.3117  0.7332 -0.7455
  788MOL0     C 6257  -0.431   4.237   4.508 -0.3730 -0.7855  0.3437
  788MOL0     C 6258  -0.508   4.121   4.567  0.9027  0.9186  0.0380
  788MOL0     C 6259  -0.421   4.042   4.672  0.7653 -0.7594 -0.4642
  788MOL0     C 6260  -0.334   3.917   4.627 -0.2893  0.6064  1.3876
  788MOL0     C 6261  -0.419   3.800   4.567  0.5490 -0.1799 -0.0547
  788MOL0     N 6262  -0.447   3.820   4.428 -0.6238 -1.0078  0.0199
  788MOL0     C 6263  -0.350   3.827   4.325  0.3705  1.0411 -0.3859
  788MOL0     C 6264  -0.418   3.820   4.206 -0.9076  0.4465 -0.3194
  788MOL0     C 6265  -0.360   3.854   4.069  0.9548  1.0843  0.0430
  788MOL0     C 6266  -0.396   3.746   3.966  0.5262  0.1711  0.6480
  788MOL0     C 6267  -0.351   3.793   3.828 -0.4377  0.0673  0.0208
  788MOL0     C 6268  -0.384   3.705   3.703  0.4613  0.7446  0.2467
  788MOL0     O 6269  -0.324   3.575   3.715  0.0065 -0.0463 -0.0820
  788MOL0     C 6270  -0.252   3.543   3.605  1.3258  0.1273 -0.6865
  788MOL0     C 6271  -0.123   3.571   3.594 -0.3592 -0.0324 -0.1839
  788MOL0     C 6272  -0.034   3.553   3.480  1.0489  0.6286  1.1735
  788MOL0     C 6273   0.118   3.562   3.495  0.5862  0.5641  0.1941
  788MOL0     C 6274  -0.106   3.494   3.367  0.1053  0.8921 -0.0015
  788MOL0     C 6275  -0.050   3.458   3.233 -0.0676 -0.2231  0.0388
  788MOL0     O 6276   0.021   3.555   3.177 -0.0706  0.2827  0.5386
  788MOL0     C 6277   0.070   3.533   3.059  0.1877 -0.6668 -0.3616
  788MOL0     C 6278   0.015   3.598   2.942  0.5166 -0.4150 -0.4270
  788MOL0     C 6279   0.087   3.606   2.828  0.8173  0.7683  0.4146
  788MOL0     C 6280   0.210   3.535   2.816 -0.6772 -0.3389  0.6481
  788MOL0     O 6281   0.284   3.547   2.707  0.5565  0.8455  0.2933
  788MOL0     C 6282   0.317   3.434   2.631 -0.3304 -0.3243 -0.8999
  788MOL0     C 6283   0.202   3.391   2.545  0.3642 -0.7248 -0.5483
  788MOL0     C 6284   0.172   3.485   2.425  0.2921 -0.1089  0.1703
  788MOL0     C 6285   0.287   3.484   2.323  0.5918  0.8674 -0.0966
  788MOL0     C 6286   0.269   3.365   2.221 -0.4112 -0.2245  0.3547
  788MOL0     C 6287   0.344   3.394   2.091  0.7539  0.1715  0.3432
  788MOL0     C 6288   0.285   3.522   2.028 -0.0025  0.3968  0.8553
  788MOL0     C 6289   0.328   3.547   1.885  0.8088 -0.9610 -0.4055
  788MOL0    Cl 6290   0.217   3.481   1.772  0.2530  0.1049  0.4735
  788MOL0     C 6291   0.264   3.478   2.930  1.0404  0.4560  0.1041
  788MOL0     C 6292   0.191   3.473   3.046 -0.8625  0.1233  0.1107
  788MOL0     O 6293  -0.077   3.346   3.191 -0.0562  0.3508  0.5158
  788MOL0     C 6294  -0.248   3.477   3.378 -0.5465  1.2285  0.2225
  788MOL0     C 6295  -0.320   3.502   3.494 -0.2884 -0.1693  0.3817
  788MOL0     N 6296  -0.551   3.817   4.238  1.0989  0.0528  0.1064
  788MOL0     N 6297  -0.563   3.811   4.367  1.5776  0.2514 -0.1600
  788MOL0     C 6298  -0.197   4.128   3.918 -0.6746 -0.8982  0.6628
  788MOL0     C 6299  -0.121   4.077   3.801 -0.1197 -1.0306  0.2836
  788MOL0     C 6300   0.258   3.882   3.583  0.6309 -0.7734  0.0398
  788MOL0     C 6301   0.379   3.806   3.592  0.4096 -0.4609  0.1877
  788MOL0     C 6302   0.446   3.779   3.474  0.1406  0.6519  0.4944
  788MOL0     C 6303   0.389   3.804   3.342  0.3021  0.2562  0.3486
  788MOL0     O 6304   0.461   3.762   3.234 -0.7079 -0.3476  0.1476
  788MOL0     C 6305   0.389   3.704   3.126 -0.1348  0.1423 -0.8354
  788MOL0     C 6306   0.437   3.762   2.992 -0.1200  1.2862 -0.1432
  788MOL0     C 6307   0.466   3.909   2.981  0.0001  0.3170 -0.6614
  788MOL0     C 6308   0.611   3.942   2.961 -0.3159  0.3959 -0.3802
  788MOL0     C 6309   0.632   4.084   2.930 -0.1498  0.6844  0.1098
  788MOL0     C 6310   0.664   4.202   2.924  0.3253 -0.0690 -0.5005
  788MOL0     C 6311   0.279   3.886   3.342 -0.0253  0.8657  1.5334
  788MOL0     C 6312   0.211   3.923   3.457  0.6735  0.1244 -0.0685
  788MOL0     H 6313   0.184   4.047   3.957 -0.2866 -0.7765 -0.2694
  788MOL0     H 6314   0.027   4.116   4.159 -3.9558 -1.0523  2.9145
  788MOL0     H 6315  -0.065   4.272   4.252 -0.1672  3.0498  0.5660
  788MOL0     H 6316  -0.165   4.373   4.146 -1.8490  1.9420  2.6170
  788MOL0     H 6317  -0.214   4.386   4.399  0.1227 -0.8764  1.1151
  788MOL0     H 6318  -0.358   4.372   4.284  1.0763  5.2902  4.0214
  788MOL0     H 6319  -0.375   4.137   4.330 -1.3014  0.6684  1.1945
  788MOL0     H 6320  -0.240   4.141   4.442  0.7051  0.8508  0.6203
  788MOL0     H 6321  -0.397   4.300   4.591 -4.4250  0.4513  1.3139
  788MOL0     H 6322  -0.508   4.303   4.467 -0.0324  0.6901  1.9499
  788MOL0     H 6323  -0.593   4.153   4.628 -0.7050  1.4400 -2.3290
  788MOL0     H 6324  -0.540   4.052   4.488  1.2065  0.3640  0.3905
  788MOL0     H 6325  -0.377   4.112   4.744 -2.4522  0.6964  0.2764
  788MOL0     H 6326  -0.500   4.001   4.736  1.9871 -2.9405 -0.2854
  788MOL0     H 6327  -0.259   3.949   4.555 -2.1530  0.7772 -0.5992
  788MOL0     H 6328  -0.290   3.886   4.722 -1.8959 -1.8201  1.4393
  788MOL0     H 6329  -0.512   3.790   4.623  0.8273  3.0303  1.2055
  788MOL0     H 6330  -0.365   3.706   4.574 -1.3511 -1.3139 -0.0404
  788MOL0     H 6331  -0.241   3.826   4.327  0.3882 -0.5737 -0.5045
  788MOL0     H 6332  -0.399   3.953   4.043  1.4715  1.4889  0.7624
  788MOL0     H 6333  -0.251   3.849   4.070  0.9518  1.1386  0.7909
  788MOL0     H 6334  -0.505   3.739   3.959  0.6945 -3.0707 -0.7343
  788MOL0     H 6335  -0.352   3.649   3.990  0.3875  0.4652  2.1633
  788MOL0     H 6336  -0.242   3.795   3.817 -0.6510  0.1933 -2.8691
  788MOL0     H 6337  -0.383   3.894   3.801  0.1553  0.3843  0.4879
  788MOL0     H 6338  -0.364   3.751   3.606 -0.1112 -3.5861 -2.1705
  788MOL0     H 6339  -0.492   3.693   3.716  0.4877  1.6908  1.5695
  788MOL0     H 6340  -0.078   3.617   3.681 -1.7154  0.5524  0.2348
  788MOL0     H 6341   0.175   3.508   3.419  4.9207  1.8539  2.2044
  788MOL0     H 6342   0.141   3.668   3.477  0.4688  0.3143 -1.5555
  788MOL0     H 6343   0.145   3.528   3.596 -1.8171 -2.0643  0.0709
  788MOL0     H 6344  -0.077   3.655   2.952  1.3475  1.8309 -3.8690
  788MOL0     H 6345   0.052   3.666   2.745 -0.8018  0.7298  1.0387
  788MOL0     H 6346   0.407   3.449   2.571  1.1552  0.2280  1.3546
  788MOL0     H 6347   0.334   3.347   2.695 -1.8203 -0.4167 -0.5942
  788MOL0     H 6348   0.224   3.294   2.499 -1.1323 -0.4653 -1.8965
  788MOL0     H 6349   0.109   3.395   2.603  1.6421  1.1631  1.5279
  788MOL0     H 6350   0.152   3.587   2.460 -0.5477  0.4940 -1.8565
  788MOL0     H 6351   0.073   3.463   2.386 -1.2120  4.4452  0.7651
  788MOL0     H 6352   0.280   3.585   2.284 -0.5069  0.5489 -0.7650
  788MOL0     H 6353   0.387   3.472   2.364  0.6661 -1.2029 -0.7400
  788MOL0     H 6354   0.167   3.332   2.202  0.0219 -0.5419 -1.6296
  788MOL0     H 6355   0.313   3.279   2.273  0.7269 -0.8558 -1.5461
  788MOL0     H 6356   0.449   3.411   2.117  0.5891 -0.8728  1.7883
  788MOL0     H 6357   0.330   3.303   2.032 -0.6728  0.3988  0.3081
  788MOL0     H 6358   0.305   3.608   2.092  1.9668 -1.3637  2.7640
  788MOL0     H 6359   0.176   3.513   2.025  0.0469 -0.3881  1.1773
  788MOL0     H 6360   0.425   3.502   1.864  1.5487 -0.8698  2.4942
  788MOL0     H 6361   0.327   3.653   1.860 -0.2410 -0.8631  0.0102
  788MOL0     H 6362   0.357   3.423   2.928 -0.1154 -1.6998  1.3687
  788MOL0     H 6363   0.234   3.430   3.136 -1.2532 -0.3605  0.0715
  788MOL0     H 6364  -0.299   3.451   3.286 -0.8030  2.4512  0.0042
  788MOL0     H 6365  -0.422   3.464   3.490  0.4783 -2.2448 -0.7125
  788MOL0     H 6366  -0.301   4.152   3.899  0.0372  0.6280 -1.6729
  788MOL0     H 6367  -0.163   4.053   3.704  2.1708  0.9863 -1.3139
  788MOL0     H 6368   0.431   3.770   3.679 -1.6287 -2.0168  0.8442
  788MOL0     H 6369   0.545   3.733   3.480 -2.4003 -5.6992  3.1700
  788MOL0     H 6370   0.402   3.596   3.131  0.1990  0.2322  1.5686
  788MOL0     H 6371   0.281   3.722   3.132 -0.9072 -3.6332 -0.7974
  788MOL0     H 6372   0.367   3.730   2.915 -1.7574 -4.6950  3.2203
  788MOL0     H 6373   0.531   3.710   2.974 -0.4048  1.2712 -1.6662
  788MOL0     H 6374   0.426   3.965   3.066  2.4135  2.2507 -0.7000
  788MOL0     H 6375   0.414   3.954   2.897 -2.3010  1.2742  1.1699
  788MOL0     H 6376   0.644   3.876   2.880 -3.7378 -3.5237  1.0386
  788MOL0     H 6377   0.671   3.910   3.048 -0.7417  1.8964  0.5121
  788MOL0     H 6378   0.698   4.302   2.906 -1.5930  0.6515 -0.3596
  788MOL0     H 6379   0.246   3.933   3.250  0.9599 -0.9505  0.1721
  788MOL0     H 6380   0.124   3.986   3.442  0.6188  0.5847  1.9881
  789MOL0     O 6381   8.834   3.850   6.273  0.0288  0.4460  0.0354
  789MOL0     C 6382   8.888   3.812   6.168 -0.0329  0.1810  0.0676
  789MOL0     O 6383   8.888   3.881   6.058  0.0621 -0.2878  0.3422
  789MOL0     C 6384   8.809   4.001   6.047 -0.6355  0.4609  1.4050
  789MOL0     C 6385   8.841   4.132   6.094 -0.0476  0.3599 -0.9523
  789MOL0     C 6386   8.753   4.232   6.071  0.0221 -0.4730  0.6546
  789MOL0     C 6387   8.629   4.213   6.011 -1.5107  0.9416  0.3866
  789MOL0     O 6388   8.537   4.315   6.009 -0.3309 -0.4803  0.8070
  789MOL0     C 6389   8.416   4.270   6.071  0.5344  0.6538  0.1287
  789MOL0     C 6390   8.351   4.362   6.178 -1.4195  0.6460  0.9443
  789MOL0     C 6391   8.257   4.467   6.109  0.3823  0.4008 -0.3659
  789MOL0     C 6392   8.219   4.574   6.211 -0.9571  0.6204 -0.0519
  789MOL0     C 6393   8.196   4.707   6.148 -0.4495  0.2373 -0.5560
  789MOL0     C 6394   8.066   4.720   6.058 -0.7699 -0.0701  0.0840
  789MOL0     C 6395   8.094   4.838   5.970 -0.4273  0.0743  0.3801
  789MOL0     C 6396   7.976   4.870   5.880  0.7739 -0.2634 -0.1283
  789MOL0     N 6397   7.946   4.744   5.801  0.4465  0.3954 -0.1258
  789MOL0     C 6398   8.035   4.674   5.721 -0.1539 -0.4811 -0.4441
  789MOL0     C 6399   7.955   4.582   5.654 -0.2136  0.9761 -0.7594
  789MOL0     C 6400   8.008   4.504   5.534 -0.2600  0.1503 -0.5784
  789MOL0     C 6401   7.935   4.375   5.504  0.6360  0.5167  0.7871
  789MOL0     C 6402   7.972   4.305   5.363 -0.0725  0.3718 -0.5494
  789MOL0     C 6403   7.898   4.166   5.373  0.0666 -0.3604  0.1234
  789MOL0     O 6404   7.919   4.091   5.493  0.0329  0.1379 -0.4280
  789MOL0     C 6405   8.025   4.012   5.518  0.2979  0.6547 -0.6144
  789MOL0     C 6406   8.058   3.979   5.645 -0.0966  0.0024 -0.5629
  789MOL0     C 6407   8.174   3.914   5.684  0.6294  0.5626 -0.6683
  789MOL0     C 6408   8.214   3.909   5.836  0.3327  1.3133 -1.0913
  789MOL0     C 6409   8.257   3.871   5.579 -0.7370 -1.3424 -0.0355
  789MOL0     C 6410   8.359   3.762   5.593  0.5125 -1.1459  0.0815
  789MOL0     O 6411   8.453   3.750   5.495  0.2636 -0.2483  0.8084
  789MOL0     C 6412   8.545   3.656   5.526  0.7121  0.5086 -0.0526
  789MOL0     C 6413   8.662   3.689   5.592  0.0886  0.5135 -0.5510
  789MOL0     C 6414   8.757   3.589   5.612 -1.3763  0.2480  0.5077
  789MOL0     C 6415   8.732   3.458   5.562 -0.6994  0.5816  0.8466
  789MOL0     O 6416   8.823   3.363   5.545  0.3986  0.3051 -0.4477
  789MOL0     C 6417   8.927   3.369   5.647 -0.3169 -0.7869 -1.2166
  789MOL0     C 6418   9.027   3.250   5.643 -0.1542 -0.0653  0.3518
  789MOL0     C 6419   9.072   3.220   5.501  1.0719 -0.2245  0.1974
  789MOL0     C 6420   9.171   3.108   5.510 -0.4110  0.2115  0.1005
  789MOL0     C 6421   9.239   3.087   5.371  0.0139 -0.8649 -0.1300
  789MOL0     C 6422   9.364   2.998   5.378  0.1546  0.0534  0.7435
  789MOL0     C 6423   9.435   2.962   5.244  0.8513  0.1777  0.5412
  789MOL0     C 6424   9.367   2.848   5.160 -0.2879  0.1939 -0.6839
  789MOL0    Cl 6425   9.461   2.783   5.013 -0.2759 -0.6112 -0.5806
  789MOL0     C 6426   8.616   3.424   5.498 -0.8191  0.0176  0.1496
  789MOL0     C 6427   8.528   3.526   5.472 -1.2182  0.0828  0.2888
  789MOL0     O 6428   8.322   3.675   5.678 -0.1315 -0.5102 -0.0335
  789MOL0     C 6429   8.223   3.903   5.445  0.2472 -0.1201 -0.4091
  789MOL0     C 6430   8.106   3.974   5.421  0.0935 -1.2049  0.3961
  789MOL0     N 6431   7.825   4.591   5.710  0.4114 -0.4903 -0.2801
  789MOL0     N 6432   7.826   4.685   5.792 -0.1946 -0.6540 -0.0442
  789MOL0     C 6433   8.601   4.087   5.952 -0.4405 -0.8675  0.0403
  789MOL0     C 6434   8.692   3.975   5.977  1.0362 -0.4887  0.4639
  789MOL0     C 6435   8.964   3.681   6.168  0.5461  0.6693 -0.2259
  789MOL0     C 6436   8.985   3.625   6.040  0.1192 -0.6075  0.5617
  789MOL0     C 6437   9.034   3.490   6.043 -0.7586 -0.3803  1.0619
  789MOL0     C 6438   9.054   3.422   6.157 -0.3266  0.1067 -0.0080
  789MOL0     O 6439   9.089   3.294   6.171  0.5297  0.4712 -0.0239
  789MOL0     C 6440   9.149   3.225   6.059  0.3223 -0.6093 -0.6585
  789MOL0     C 6441   9.297   3.251   6.045  0.8377 -1.0632 -0.3937
  789MOL0     C 6442   9.365   3.163   5.940  0.0749  0.7426 -1.1446
  789MOL0     C 6443   9.519   3.162   5.966  0.1579 -0.3330 -0.0320
  789MOL0     C 6444   9.574   3.069   5.875  0.3374 -0.1761  0.0270
  789MOL0     C 6445   9.638   2.987   5.816  0.5255  0.5144 -0.4513
  789MOL0     C 6446   9.023   3.482   6.281  0.0286  0.1165  0.5450
  789MOL0     C 6447   8.988   3.611   6.286  0.2530 -0.5404 -0.1756
  789MOL0     H 6448   8.932   4.144   6.151 -0.2862  2.0581 -0.8686
  789MOL0     H 6449   8.775   4.330   6.111 -0.0723 -0.1752 -0.0218
  789MOL0     H 6450   8.339   4.255   5.994 -0.2304  1.7965  0.6434
  789MOL0     H 6451   8.433   4.170   6.112  3.3840  1.2112  0.5100
  789MOL0     H 6452   8.311   4.303   6.262  2.3372 -2.2291  0.9676
  789MOL0     H 6453   8.438   4.416   6.218  0.4007 -1.6622  0.3099
  789MOL0     H 6454   8.290   4.513   6.016 -3.2559 -0.0396 -2.0232
  789MOL0     H 6455   8.166   4.408   6.100  2.1028 -3.3241  3.3741
  789MOL0     H 6456   8.135   4.548   6.277 -2.0601  1.0893 -1.2284
  789MOL0     H 6457   8.306   4.592   6.274  1.0108 -2.1461 -1.7649
  789MOL0     H 6458   8.187   4.771   6.237 -2.2513 -0.9522  0.1755
  789MOL0     H 6459   8.286   4.738   6.095 -0.6704  0.1673 -0.9714
  789MOL0     H 6460   8.045   4.628   6.004  2.1997  0.1573 -1.6572
  789MOL0     H 6461   7.980   4.741   6.122 -2.2444 -1.0806 -1.4957
  789MOL0     H 6462   8.105   4.922   6.041 -0.1741  1.0531 -0.7874
  789MOL0     H 6463   8.188   4.831   5.915 -0.1252  1.2159  0.7153
  789MOL0     H 6464   7.993   4.951   5.809 -1.7061  0.8524  0.4356
  789MOL0     H 6465   7.891   4.896   5.944  3.0782 -2.1791  4.1070
  789MOL0     H 6466   8.143   4.686   5.716 -0.3998  1.6251 -1.8781
  789MOL0     H 6467   7.990   4.559   5.441 -4.2955 -1.2553 -0.7921
  789MOL0     H 6468   8.118   4.503   5.538 -0.0875  4.3130  0.7060
  789MOL0     H 6469   7.826   4.389   5.508  0.5990  0.8295 -0.6124
  789MOL0     H 6470   7.962   4.303   5.582 -0.1681  0.2816  0.8567
  789MOL0     H 6471   8.077   4.272   5.365 -0.6896 -1.8966 -1.7613
  789MOL0     H 6472   7.950   4.367   5.276 -3.6768 -1.4362 -1.1026
  789MOL0     H 6473   7.914   4.104   5.284  2.0011  1.9069 -1.2343
  789MOL0     H 6474   7.793   4.195   5.369 -0.1656 -1.2950 -1.3019
  789MOL0     H 6475   7.987   4.003   5.724 -0.3044 -0.6004 -0.5569
  789MOL0     H 6476   8.196   4.004   5.888 -0.1846  2.0819 -2.6231
  789MOL0     H 6477   8.155   3.829   5.883  0.4319  2.4105  1.0479
  789MOL0     H 6478   8.318   3.876   5.846  0.6991  2.7722  0.2631
  789MOL0     H 6479   8.681   3.791   5.625  1.4196  1.4002 -3.6890
  789MOL0     H 6480   8.843   3.633   5.661 -1.2034  1.9172 -1.1455
  789MOL0     H 6481   8.988   3.460   5.639 -0.6489 -0.6122 -1.8412
  789MOL0     H 6482   8.889   3.384   5.748 -2.1606  2.0415 -2.1999
  789MOL0     H 6483   9.117   3.286   5.694  0.4670 -1.2417  0.1289
  789MOL0     H 6484   8.970   3.175   5.698 -1.5210 -0.7823 -1.8885
  789MOL0     H 6485   9.125   3.301   5.449 -0.5550 -1.2437 -3.3292
  789MOL0     H 6486   8.994   3.176   5.437  0.8879 -2.8072  2.0509
  789MOL0     H 6487   9.260   3.122   5.573  1.7088 -4.0880 -1.5450
  789MOL0     H 6488   9.126   3.013   5.541  1.0506  0.4188  3.3341
  789MOL0     H 6489   9.273   3.184   5.333 -1.4623 -0.0743  0.4863
  789MOL0     H 6490   9.162   3.049   5.303  0.4078  0.9299 -1.6841
  789MOL0     H 6491   9.433   3.050   5.446  0.5570  1.8604 -0.9778
  789MOL0     H 6492   9.331   2.904   5.424  1.5914 -1.5252 -1.2618
  789MOL0     H 6493   9.536   2.925   5.261  0.2918 -2.5175 -1.3270
  789MOL0     H 6494   9.438   3.056   5.189  2.2607 -0.3001 -0.2545
  789MOL0     H 6495   9.282   2.885   5.101 -0.0411  1.3034 -0.3689
  789MOL0     H 6496   9.334   2.758   5.213  2.7999 -1.3447 -1.1785
  789MOL0     H 6497   8.594   3.324   5.462 -1.4402 -0.3005  1.3541
  789MOL0     H 6498   8.431   3.521   5.422 -1.0910 -1.4981  0.1359
  789MOL0     H 6499   8.279   3.869   5.359 -0.0855  0.7323 -0.9678
  789MOL0     H 6500   8.080   3.997   5.318 -0.2273  0.4266  0.8128
  789MOL0     H 6501   8.510   4.080   5.894  0.6301 -4.6570 -1.5330
  789MOL0     H 6502   8.657   3.888   5.923 -0.7795  1.0758 -1.0465
  789MOL0     H 6503   8.976   3.677   5.945 -2.5797 -0.1581  0.9890
  789MOL0     H 6504   9.051   3.442   5.947  2.2095  0.7786  0.9137
  789MOL0     H 6505   9.137   3.118   6.073  0.4453 -0.3554  1.7235
  789MOL0     H 6506   9.107   3.245   5.960 -0.1681 -0.3237 -0.3974
  789MOL0     H 6507   9.341   3.251   6.145 -1.3508  0.0795  0.6164
  789MOL0     H 6508   9.310   3.351   6.003 -0.6664 -1.1321 -1.0653
  789MOL0     H 6509   9.352   3.192   5.836  4.2999  3.0530 -1.2434
  789MOL0     H 6510   9.330   3.060   5.949 -1.8136  1.4516  0.4354
  789MOL0     H 6511   9.534   3.123   6.067 -3.2217  0.1418  0.7674
  789MOL0     H 6512   9.560   3.263   5.951  2.2171 -1.0262  0.5924
  789MOL0     H 6513   9.692   2.912   5.762  2.1832  0.3973  1.2876
  789MOL0     H 6514   9.029   3.421   6.370 -4.4750 -1.8873 -0.2287
  789MOL0     H 6515   8.957   3.648   6.383 -3.7943  2.9788 -2.4279
  790MOL0     O 6516   0.367  11.345   5.337 -1.0514 -0.3598  0.8618
  790MOL0     C 6517   0.383  11.421   5.239  0.8443  0.0500 -0.0307
  790MOL0     O 6518   0.295  11.519   5.193 -0.6691  0.2426  0.1556
  790MOL0     C 6519   0.174  11.543   5.254  0.5919  0.2413  0.1421
  790MOL0     C 6520   0.072  11.605   5.177 -0.4477 -0.0572  0.8898
  790MOL0     C 6521  -0.057  11.644   5.219 -1.0922 -0.2700  0.6663
  790MOL0     C 6522  -0.092  11.625   5.352 -0.3726  0.2188  0.3025
  790MOL0     O 6523  -0.191  11.685   5.416  1.0777  0.4017  1.1962
  790MOL0     C 6524  -0.322  11.661   5.365 -0.0260 -0.1398 -0.0002
  790MOL0     C 6525  -0.356  11.514   5.392  1.2628 -1.2139 -0.5696
  790MOL0     C 6526  -0.358  11.479   5.529 -0.7072  0.4451  0.1108
  790MOL0     C 6527  -0.426  11.336   5.557 -0.8540 -0.4248  1.1026
  790MOL0     C 6528  -0.445  11.298   5.698 -0.4723 -0.1178 -0.2484
  790MOL0     C 6529  -0.517  11.162   5.709  0.4564  0.3600 -0.0928
  790MOL0     C 6530  -0.546  11.125   5.859  0.3280  0.2956  0.8897
  790MOL0     C 6531  -0.426  11.121   5.962  1.2350 -0.1781 -0.1536
  790MOL0     N 6532  -0.480  11.092   6.094  0.5919  0.5071 -0.3847
  790MOL0     C 6533  -0.542  10.971   6.135 -0.0950  0.0090 -0.4466
  790MOL0     C 6534  -0.572  10.985   6.261 -0.1212  0.5960 -0.7310
  790MOL0     C 6535  -0.636  10.883   6.358  0.5727 -0.8741 -0.3830
  790MOL0     C 6536  -0.581  10.916   6.501 -0.6950 -0.7924  1.3244
  790MOL0     C 6537  -0.664  10.854   6.611 -0.1949  0.6163 -0.1301
  790MOL0     C 6538  -0.607  10.878   6.753 -0.5748  0.8132 -0.2532
  790MOL0     O 6539  -0.498  10.778   6.774  0.6727 -0.4644 -0.3913
  790MOL0     C 6540  -0.466  10.735   6.898 -0.7713  0.1795 -0.2054
  790MOL0     C 6541  -0.467  10.811   7.016 -0.2370 -0.0904  0.1151
  790MOL0     C 6542  -0.440  10.765   7.138 -0.8144  0.7074 -0.3225
  790MOL0     C 6543  -0.426  10.858   7.256 -0.0503  0.3932 -0.0006
  790MOL0     C 6544  -0.416  10.629   7.154  0.0877 -1.3125 -0.8103
  790MOL0     C 6545  -0.438  10.559   7.284  0.1361 -0.0916 -0.2365
  790MOL0     O 6546  -0.328  10.506   7.352 -0.0344  1.0007 -0.1046
  790MOL0     C 6547  -0.342  10.475   7.483 -0.2298 -0.0517  1.1032
  790MOL0     C 6548  -0.380  10.568   7.585 -0.2407 -0.2042  0.5341
  790MOL0     C 6549  -0.388  10.533   7.719 -0.1210 -0.0143 -0.3841
  790MOL0     C 6550  -0.332  10.415   7.755 -0.4509 -0.8660 -0.3886
  790MOL0     O 6551  -0.298  10.400   7.886 -0.0795  0.4136 -0.8343
  790MOL0     C 6552  -0.411  10.384   7.985  0.0861  0.5865  1.0049
  790MOL0     C 6553  -0.386  10.271   8.100 -0.5802 -0.4287 -0.3654
  790MOL0     C 6554  -0.237  10.262   8.149  1.3933 -0.1907  0.4063
  790MOL0     C 6555  -0.204  10.203   8.285  0.3842  0.1687 -0.6131
  790MOL0     C 6556  -0.226  10.050   8.266 -0.1600  0.1368 -0.3961
  790MOL0     C 6557  -0.197   9.958   8.383  0.3118  0.3582  0.0598
  790MOL0     C 6558  -0.047   9.981   8.439  0.6873 -0.0923  0.0614
  790MOL0     C 6559   0.054   9.923   8.351  0.0457  0.3231 -0.2945
  790MOL0    Cl 6560   0.003   9.751   8.319  0.1015 -0.4644  0.0114
  790MOL0     C 6561  -0.306  10.322   7.665 -0.7999 -0.0260  0.4226
  790MOL0     C 6562  -0.307  10.343   7.523 -0.1271 -0.7860 -0.2827
  790MOL0     O 6563  -0.553  10.575   7.325  0.2310  0.3474  0.0492
  790MOL0     C 6564  -0.403  10.545   7.040  1.4770  0.0720  0.4574
  790MOL0     C 6565  -0.426  10.598   6.913 -0.5605  0.0289 -0.0365
  790MOL0     N 6566  -0.527  11.113   6.300  0.3093  0.7477 -1.1341
  790MOL0     N 6567  -0.476  11.182   6.203  0.6574 -0.0321  0.5425
  790MOL0     C 6568   0.001  11.567   5.438  0.1796  0.2657 -0.4428
  790MOL0     C 6569   0.127  11.526   5.389 -0.1342 -0.1721 -0.1957
  790MOL0     C 6570   0.507  11.406   5.161 -0.2137  0.2831  0.1738
  790MOL0     C 6571   0.619  11.342   5.221  0.2300  0.1752 -0.6078
  790MOL0     C 6572   0.729  11.323   5.144 -0.5426 -0.7771  0.3281
  790MOL0     C 6573   0.734  11.357   5.006  0.1574  0.8462  0.2167
  790MOL0     O 6574   0.836  11.328   4.927  0.6952  0.0492 -0.1496
  790MOL0     C 6575   0.965  11.310   4.981  0.2574 -0.3403 -0.5308
  790MOL0     C 6576   1.057  11.260   4.872 -0.4670  0.4138  0.6902
  790MOL0     C 6577   1.069  11.365   4.765  0.8780 -1.4103  0.1086
  790MOL0     C 6578   1.021  11.332   4.623 -0.3076  0.4420  0.2318
  790MOL0     C 6579   1.006  11.438   4.524  0.2393 -0.4726 -0.5964
  790MOL0     C 6580   0.979  11.509   4.429  0.1238 -0.8304 -0.5056
  790MOL0     C 6581   0.623  11.422   4.951  0.2147  0.1140  0.2896
  790MOL0     C 6582   0.514  11.453   5.027 -0.5296  0.6067 -0.7106
  790MOL0     H 6583   0.082  11.629   5.072 -0.1838  0.3888  1.0151
  790MOL0     H 6584  -0.133  11.684   5.152  1.4482  2.5623 -0.7545
  790MOL0     H 6585  -0.389  11.730   5.417  0.3095  1.7443 -1.9363
  790MOL0     H 6586  -0.331  11.679   5.257 -0.5608 -1.0510 -0.1194
  790MOL0     H 6587  -0.456  11.496   5.351  0.3986  2.3231 -0.3378
  790MOL0     H 6588  -0.277  11.450   5.351  3.6204 -0.2261  2.1728
  790MOL0     H 6589  -0.253  11.472   5.560 -0.9242  0.6754  0.9428
  790MOL0     H 6590  -0.394  11.558   5.596  1.2045  1.1806  0.3395
  790MOL0     H 6591  -0.524  11.348   5.510 -1.3685  0.3492  2.3246
  790MOL0     H 6592  -0.371  11.259   5.501  0.1036  0.8963  0.1751
  790MOL0     H 6593  -0.345  11.293   5.742 -1.0352  1.9330  1.4271
  790MOL0     H 6594  -0.499  11.378   5.749  3.7363  4.1149 -1.6672
  790MOL0     H 6595  -0.614  11.159   5.658  0.2465 -0.6121  0.3485
  790MOL0     H 6596  -0.455  11.092   5.652  1.6735  0.4554  1.0726
  790MOL0     H 6597  -0.628  11.183   5.904 -0.8313 -0.3057 -0.3636
  790MOL0     H 6598  -0.585  11.022   5.855  0.7524  0.1632  0.0150
  790MOL0     H 6599  -0.370  11.214   5.972  1.2006 -0.2798  1.1186
  790MOL0     H 6600  -0.349  11.056   5.920 -0.9482 -2.5238 -0.7689
  790MOL0     H 6601  -0.568  10.890   6.067 -0.2732  0.4261 -0.8770
  790MOL0     H 6602  -0.745  10.884   6.357  0.5445 -2.1079 -0.3465
  790MOL0     H 6603  -0.606  10.779   6.342  0.2809 -1.1192  0.5910
  790MOL0     H 6604  -0.606  11.019   6.526 -1.2131 -1.3752  3.3860
  790MOL0     H 6605  -0.473  10.905   6.511 -0.5195  1.5873  2.8104
  790MOL0     H 6606  -0.673  10.746   6.592 -0.2735  1.0420 -2.8604
  790MOL0     H 6607  -0.764  10.897   6.600 -0.6053  0.1680  1.5401
  790MOL0     H 6608  -0.686  10.865   6.827  1.4963 -3.0735  1.5987
  790MOL0     H 6609  -0.564  10.978   6.759  2.5659 -0.3788 -0.7904
  790MOL0     H 6610  -0.514  10.909   7.005 -1.4114 -0.7118 -0.7256
  790MOL0     H 6611  -0.355  10.933   7.221 -1.8056  1.5372 -1.2481
  790MOL0     H 6612  -0.527  10.898   7.270 -0.0819 -0.1945  1.6374
  790MOL0     H 6613  -0.395  10.826   7.356  1.1491  3.3926  0.7114
  790MOL0     H 6614  -0.429  10.657   7.546  1.3213  0.4812  0.0837
  790MOL0     H 6615  -0.404  10.604   7.800 -0.6612 -1.1685  0.5583
  790MOL0     H 6616  -0.436  10.480   8.031  0.3641  2.3738 -2.2768
  790MOL0     H 6617  -0.501  10.352   7.931 -0.5420  1.7110  1.3642
  790MOL0     H 6618  -0.442  10.313   8.184  1.2356  2.4425 -0.4520
  790MOL0     H 6619  -0.425  10.173   8.071 -1.5647 -0.5229  1.1437
  790MOL0     H 6620  -0.197  10.364   8.146 -2.3238  1.4191  0.0035
  790MOL0     H 6621  -0.189  10.199   8.073  0.9470  3.5007 -3.2679
  790MOL0     H 6622  -0.107  10.219   8.333 -0.7777 -3.9465  3.8883
  790MOL0     H 6623  -0.280  10.234   8.357 -1.1725 -2.8096 -0.8034
  790MOL0     H 6624  -0.176  10.010   8.177 -1.7015 -0.9816 -0.7930
  790MOL0     H 6625  -0.333  10.034   8.254 -0.2349 -0.7259  1.1312
  790MOL0     H 6626  -0.272   9.979   8.459  1.8631  2.1836  1.1754
  790MOL0     H 6627  -0.222   9.855   8.355  2.5458  0.0556 -1.0946
  790MOL0     H 6628  -0.033   9.930   8.535 -0.6877 -0.2649  0.1812
  790MOL0     H 6629  -0.018  10.086   8.436  1.0955 -0.1886 -3.3596
  790MOL0     H 6630   0.151   9.914   8.403  0.6509 -0.5116 -1.5214
  790MOL0     H 6631   0.069   9.970   8.254  2.1345 -2.7470 -1.6419
  790MOL0     H 6632  -0.266  10.229   7.705  1.2604  0.8780  0.5695
  790MOL0     H 6633  -0.250  10.278   7.458 -0.2715  0.3903 -1.6221
  790MOL0     H 6634  -0.395  10.437   7.048 -1.8218 -0.5468 -2.0883
  790MOL0     H 6635  -0.433  10.539   6.822  0.9192  0.9718 -0.8014
  790MOL0     H 6636  -0.031  11.569   5.542 -4.6879 -1.7060 -1.6345
  790MOL0     H 6637   0.193  11.475   5.460 -0.7254 -3.3376 -1.7241
  790MOL0     H 6638   0.629  11.306   5.322  1.6229 -1.6858 -1.3580
  790MOL0     H 6639   0.807  11.260   5.185  1.1697  1.1693  0.2638
  790MOL0     H 6640   0.982  11.411   5.017 -0.7509 -1.1604  2.5124
  790MOL0     H 6641   0.986  11.253   5.072 -2.4136  0.2023  0.4959
  790MOL0     H 6642   1.014  11.171   4.824  0.0382  1.2293 -1.4147
  790MOL0     H 6643   1.161  11.233   4.894  0.3131  0.5094 -2.3284
  790MOL0     H 6644   1.178  11.374   4.754  0.7489 -1.9683 -2.1901
  790MOL0     H 6645   1.016  11.456   4.793  2.9832 -0.1138  0.1217
  790MOL0     H 6646   0.925  11.281   4.639 -0.1794 -0.1157 -0.6799
  790MOL0     H 6647   1.092  11.255   4.592  1.6429  1.8110  1.1052
  790MOL0     H 6648   0.978  11.579   4.348  0.8426  1.2456  1.1891
  790MOL0     H 6649   0.626  11.452   4.846 -0.2925 -0.8538 -0.0163
  790MOL0     H 6650   0.431  11.501   4.977  0.6118  3.9242  0.2612
  791MOL0     O 6651   9.763   1.318   0.291 -0.1455 -0.1300  0.2574
  791MOL0     C 6652   9.837   1.220   0.272  1.1484 -0.5574  0.3042
  791MOL0     O 6653   9.972   1.235   0.251 -0.1590 -0.2944 -0.3006
  791MOL0     C 6654  10.015   1.368   0.229 -0.2207 -0.0091 -0.9420
  791MOL0     C 6655  10.012   1.468   0.327 -0.5058 -0.0384 -1.1001
  791MOL0     C 6656  10.046   1.603   0.304  0.0662 -0.9956 -0.3318
  791MOL0     C 6657  10.102   1.639   0.179  0.5061 -0.8196  0.4506
  791MOL0     O 6658  10.141   1.767   0.150 -0.3958 -0.3492  0.2881
  791MOL0     C 6659  10.191   1.843   0.256 -0.1268  0.0266 -0.1721
  791MOL0     C 6660  10.283   1.954   0.193 -0.5454 -0.6071 -0.9646
  791MOL0     C 6661  10.354   2.037   0.301  0.5676  0.0528 -0.0636
  791MOL0     C 6662  10.405   2.165   0.236 -0.7577 -0.2424 -0.0675
  791MOL0     C 6663  10.502   2.234   0.338  0.1924 -0.0304  0.1318
  791MOL0     C 6664  10.638   2.168   0.358 -0.3087 -0.7712  0.2292
  791MOL0     C 6665  10.707   2.236   0.480  0.1568  0.1541  1.0274
  791MOL0     C 6666  10.856   2.206   0.484 -0.4860 -0.0981  0.0494
  791MOL0     N 6667  10.927   2.230   0.357  0.3971 -0.0401  0.4872
  791MOL0     C 6668  10.964   2.128   0.270 -0.7722  0.0292  0.1090
  791MOL0     C 6669  11.034   2.192   0.167  0.6190 -0.0323 -0.4406
  791MOL0     C 6670  11.105   2.131   0.050 -0.6295 -0.1714  0.2040
  791MOL0     C 6671  11.012   2.106  -0.074  0.4282 -0.0846  0.3826
  791MOL0     C 6672  11.044   2.184  -0.201 -0.4915 -0.2162  0.1963
  791MOL0     C 6673  11.051   2.331  -0.186 -0.1685 -0.4368  0.6710
  791MOL0     O 6674  11.108   2.395  -0.304 -0.1280 -0.4577 -0.6189
  791MOL0     C 6675  11.254   2.408  -0.306 -0.3250  0.4105  0.9815
  791MOL0     C 6676  11.311   2.493  -0.407 -0.0090  0.6396  0.3879
  791MOL0     C 6677  11.448   2.507  -0.423 -0.5812  0.5655  0.0178
  791MOL0     C 6678  11.488   2.622  -0.514  0.4825  0.2610  0.2900
  791MOL0     C 6679  11.544   2.442  -0.341  0.1771 -0.5764 -0.3739
  791MOL0     C 6680  11.692   2.446  -0.353  0.3144  0.4495 -0.2651
  791MOL0     O 6681  11.745   2.518  -0.454  0.4690  0.0016  0.2415
  791MOL0     C 6682  11.866   2.480  -0.506  0.2055 -0.2695 -0.4923
  791MOL0     C 6683  11.874   2.463  -0.646 -0.3059  0.3686  0.2309
  791MOL0     C 6684  11.992   2.417  -0.705 -0.4630 -0.1234 -0.1282
  791MOL0     C 6685  12.113   2.409  -0.632  0.2071 -0.4663 -0.0491
  791MOL0     O 6686  12.232   2.357  -0.687  0.1993  0.2954 -0.3467
  791MOL0     C 6687  12.259   2.313  -0.819  0.6763 -0.4059  0.7078
  791MOL0     C 6688  12.388   2.227  -0.803 -0.4531  0.3468  0.0379
  791MOL0     C 6689  12.508   2.288  -0.742  0.0658 -1.2189  0.2404
  791MOL0     C 6690  12.638   2.192  -0.754  0.2167 -0.2848  0.1148
  791MOL0     C 6691  12.764   2.226  -0.666 -0.1390  0.0432  0.0822
  791MOL0     C 6692  12.820   2.368  -0.701  0.2330  0.1134  0.5356
  791MOL0     C 6693  12.933   2.416  -0.607  0.2548  0.3594  0.6494
  791MOL0     C 6694  12.971   2.558  -0.641 -0.5042  0.0790  0.3029
  791MOL0    Cl 6695  13.094   2.612  -0.523  0.0491  0.2207  0.0846
  791MOL0     C 6696  12.112   2.437  -0.493  0.2258  0.2651 -0.4547
  791MOL0     C 6697  11.986   2.469  -0.428  0.5813  0.8001  1.4544
  791MOL0     O 6698  11.756   2.375  -0.273  0.2880 -0.5880 -0.1953
  791MOL0     C 6699  11.490   2.343  -0.248  0.4520  0.4793 -0.4127
  791MOL0     C 6700  11.348   2.326  -0.235 -0.5132  0.9953  0.3110
  791MOL0     N 6701  11.024   2.327   0.197  0.3571  0.1366 -0.9733
  791MOL0     N 6702  10.963   2.351   0.303  0.5008  0.3001  0.3137
  791MOL0     C 6703  10.103   1.540   0.076  0.5421 -0.9074 -0.2793
  791MOL0     C 6704  10.052   1.410   0.102 -0.2323  0.8520 -0.4069
  791MOL0     C 6705   9.766   1.089   0.275  0.0418  1.1390 -0.8460
  791MOL0     C 6706   9.831   0.966   0.267 -0.2646  0.1334 -0.0504
  791MOL0     C 6707   9.770   0.843   0.271 -0.5233  0.1646 -0.3242
  791MOL0     C 6708   9.631   0.842   0.284 -0.7398  0.3022 -0.6124
  791MOL0     O 6709   9.559   0.728   0.268  0.4924  0.4165 -0.4214
  791MOL0     C 6710   9.579   0.632   0.377  0.0014 -0.1238  0.3544
  791MOL0     C 6711   9.488   0.519   0.346  0.5290  0.4984 -0.1350
  791MOL0     C 6712   9.516   0.440   0.214 -0.2022 -0.5470  0.1255
  791MOL0     C 6713   9.654   0.365   0.230  1.0590  0.9674 -0.8045
  791MOL0     C 6714   9.700   0.322   0.100 -0.5934 -0.3789 -0.3443
  791MOL0     C 6715   9.740   0.296  -0.010 -0.1597  0.6264 -0.6952
  791MOL0     C 6716   9.553   0.958   0.294 -0.3091  0.1074  0.4043
  791MOL0     C 6717   9.622   1.079   0.295 -0.1681  0.0630  0.5216
  791MOL0     H 6718   9.982   1.447   0.429 -1.7444  3.3882 -0.6560
  791MOL0     H 6719  10.035   1.670   0.389  3.2542 -0.0697 -0.5206
  791MOL0     H 6720  10.101   1.880   0.308  0.2357  0.5424  0.0976
  791MOL0     H 6721  10.245   1.780   0.327 -0.7937 -0.3438  0.0166
  791MOL0     H 6722  10.362   1.916   0.128  1.1555  2.8133 -1.1301
  791MOL0     H 6723  10.205   2.002   0.134 -0.1648  0.1355 -0.8759
  791MOL0     H 6724  10.281   2.070   0.375 -1.3855  0.1802 -1.9491
  791MOL0     H 6725  10.425   1.965   0.341  1.2462  0.5290 -0.3982
  791MOL0     H 6726  10.461   2.143   0.144 -1.0840 -0.8310 -0.1267
  791MOL0     H 6727  10.322   2.229   0.204 -1.3270 -0.3644  1.1484
  791MOL0     H 6728  10.518   2.336   0.303 -1.1004 -0.1640 -0.9142
  791MOL0     H 6729  10.448   2.246   0.433  0.4295  1.0898  0.1330
  791MOL0     H 6730  10.628   2.060   0.374 -0.7423 -0.7918 -0.1380
  791MOL0     H 6731  10.687   2.192   0.264 -2.2546  1.0609 -0.4119
  791MOL0     H 6732  10.702   2.345   0.483  0.0269  0.1637  0.6385
  791MOL0     H 6733  10.665   2.194   0.572  0.7298 -1.8150  0.4466
  791MOL0     H 6734  10.869   2.102   0.515  0.6453 -0.5008 -1.6331
  791MOL0     H 6735  10.905   2.265   0.562 -0.2825 -0.6083  0.3116
  791MOL0     H 6736  10.947   2.021   0.282 -2.9984  0.4099  0.7969
  791MOL0     H 6737  11.198   2.177   0.015 -0.1867 -1.0022  0.2405
  791MOL0     H 6738  11.136   2.032   0.087 -1.7357 -0.4624  0.3813
  791MOL0     H 6739  10.915   2.145  -0.042  1.6283  2.5329  1.0933
  791MOL0     H 6740  11.010   1.998  -0.092  1.6125 -0.9143  4.2681
  791MOL0     H 6741  10.969   2.171  -0.280  0.9015  2.3827 -1.7439
  791MOL0     H 6742  11.132   2.134  -0.243 -1.7900 -0.8301 -1.9273
  791MOL0     H 6743  11.110   2.356  -0.096 -2.0212  0.1003  1.8034
  791MOL0     H 6744  10.951   2.371  -0.164  0.1470  0.4511  0.5371
  791MOL0     H 6745  11.242   2.550  -0.469  0.6498  1.9698  0.8462
  791MOL0     H 6746  11.403   2.678  -0.555 -0.4917  0.1398  2.0205
  791MOL0     H 6747  11.548   2.696  -0.462  3.3931  0.7164 -3.3065
  791MOL0     H 6748  11.551   2.590  -0.597  0.4176  2.1621 -0.5482
  791MOL0     H 6749  11.786   2.477  -0.707 -1.6300  2.6595  2.4340
  791MOL0     H 6750  11.992   2.395  -0.811  0.1205  1.4366 -0.4752
  791MOL0     H 6751  12.172   2.260  -0.860  1.4184 -1.9393  1.0478
  791MOL0     H 6752  12.284   2.397  -0.884 -1.4932  0.5870  1.0515
  791MOL0     H 6753  12.364   2.138  -0.745 -0.6686  0.4849  0.1643
  791MOL0     H 6754  12.409   2.194  -0.905  2.7983 -0.6179  0.9089
  791MOL0     H 6755  12.476   2.304  -0.638 -0.8901  0.7292 -0.3076
  791MOL0     H 6756  12.534   2.387  -0.778 -1.0956 -1.0931 -0.2964
  791MOL0     H 6757  12.593   2.096  -0.728 -1.2488 -0.1178 -1.6038
  791MOL0     H 6758  12.670   2.185  -0.859 -0.9349 -2.4442 -0.1418
  791MOL0     H 6759  12.841   2.150  -0.680  0.5859  0.8862 -0.6441
  791MOL0     H 6760  12.729   2.220  -0.562  0.2349  0.1018  0.2121
  791MOL0     H 6761  12.862   2.367  -0.801  0.6067  0.6647  0.6845
  791MOL0     H 6762  12.741   2.443  -0.695 -1.4837 -1.2490 -2.6778
  791MOL0     H 6763  13.022   2.355  -0.621  0.9356  1.7988 -2.0415
  791MOL0     H 6764  12.908   2.407  -0.501  1.1902 -0.4826  0.8165
  791MOL0     H 6765  12.881   2.618  -0.628 -0.9860 -0.8126  1.1864
  791MOL0     H 6766  12.998   2.572  -0.746 -3.1200 -0.8243 -0.5649
  791MOL0     H 6767  12.201   2.438  -0.431 -2.1510 -0.5536  3.2555
  791MOL0     H 6768  11.983   2.484  -0.320  0.7235 -1.9722  1.9305
  791MOL0     H 6769  11.555   2.278  -0.190  0.2806 -0.2713 -1.0350
  791MOL0     H 6770  11.319   2.241  -0.173 -2.0399  1.0551 -0.2990
  791MOL0     H 6771  10.124   1.557  -0.029 -1.4954  1.7336 -0.3892
  791MOL0     H 6772  10.059   1.342   0.018  0.4260 -0.5917  0.7756
  791MOL0     H 6773   9.938   0.968   0.249 -0.0415  1.4835  1.1902
  791MOL0     H 6774   9.835   0.757   0.261  2.1927  2.0140  0.2757
  791MOL0     H 6775   9.688   0.628   0.372  0.2059  3.0400  0.6890
  791MOL0     H 6776   9.541   0.676   0.469 -4.0800  0.1260 -1.2109
  791MOL0     H 6777   9.382   0.548   0.344  0.3743  0.2084  1.9594
  791MOL0     H 6778   9.495   0.460   0.437 -2.4041  0.2199 -0.0036
  791MOL0     H 6779   9.520   0.508   0.129 -2.6909 -2.1921 -1.4216
  791MOL0     H 6780   9.434   0.372   0.190  0.5911 -0.5858 -2.8286
  791MOL0     H 6781   9.650   0.294   0.313 -1.8820  1.7165 -0.1993
  791MOL0     H 6782   9.724   0.443   0.262  1.5312  0.6139 -0.9706
  791MOL0     H 6783   9.797   0.257  -0.092 -0.4605  0.6502 -0.9162
  791MOL0     H 6784   9.445   0.950   0.304 -0.3594  0.1730 -0.0392
  791MOL0     H 6785   9.573   1.175   0.304 -0.8652  0.0033 -1.9723
  792MOL0     O 6786   3.316   7.472   9.126  0.3769 -0.5609  0.1723
  792MOL0     C 6787   3.412   7.452   9.197 -0.3910 -0.1456 -0.4390
  792MOL0     O 6788   3.498   7.547   9.248 -0.6574  0.0511 -0.6024
  792MOL0     C 6789   3.461   7.678   9.222  0.4698 -0.2462  0.7132
  792MOL0     C 6790   3.341   7.751   9.263 -0.2622  0.4896 -0.2949
  792MOL0     C 6791   3.323   7.888   9.221  0.3193 -0.6035  0.4440
  792MOL0     C 6792   3.410   7.955   9.136 -1.3982  0.7475 -0.4391
  792MOL0     O 6793   3.399   8.085   9.096  0.4668 -0.3572 -0.4563
  792MOL0     C 6794   3.513   8.167   9.116  0.4607  0.1175 -0.5730
  792MOL0     C 6795   3.454   8.307   9.065 -0.0506 -0.7642  0.4865
  792MOL0     C 6796   3.493   8.351   8.927 -0.5603  0.4034 -0.0018
  792MOL0     C 6797   3.435   8.485   8.881  0.0699  0.2121  0.6097
  792MOL0     C 6798   3.494   8.522   8.750  0.3591 -0.1918 -0.3048
  792MOL0     C 6799   3.435   8.665   8.707 -0.5305  0.2111 -0.0818
  792MOL0     C 6800   3.489   8.712   8.575 -0.1077 -0.8892  0.0118
  792MOL0     C 6801   3.459   8.865   8.553  0.0304  0.3005  0.3173
  792MOL0     N 6802   3.516   8.955   8.657 -0.4037 -0.0892 -0.6015
  792MOL0     C 6803   3.473   9.017   8.774 -0.3464  0.3428  0.6535
  792MOL0     C 6804   3.573   9.103   8.815  0.4664 -1.0252  0.0368
  792MOL0     C 6805   3.572   9.203   8.925 -0.1843 -0.8268 -0.7008
  792MOL0     C 6806   3.519   9.333   8.857  0.0876  0.1523 -0.3815
  792MOL0     C 6807   3.513   9.455   8.955 -0.4395  1.2174 -0.0569
  792MOL0     C 6808   3.423   9.426   9.077 -0.2832 -0.1965 -0.4913
  792MOL0     O 6809   3.292   9.455   9.028 -0.1064 -1.2132  0.0125
  792MOL0     C 6810   3.199   9.372   9.081  0.2553 -0.1535 -0.2515
  792MOL0     C 6811   3.148   9.368   9.213 -0.0500 -0.6102 -0.2856
  792MOL0     C 6812   3.033   9.294   9.247 -0.4437 -0.9889 -0.4633
  792MOL0     C 6813   2.981   9.297   9.395 -0.0614  0.0320 -0.4276
  792MOL0     C 6814   2.968   9.225   9.145 -1.1379  0.6977 -0.4866
  792MOL0     C 6815   2.847   9.141   9.164  0.0278 -0.2758  0.1477
  792MOL0     O 6816   2.757   9.184   9.246 -0.0007 -0.0490 -0.8377
  792MOL0     C 6817   2.650   9.112   9.272  0.1603  0.3695  0.3934
  792MOL0     C 6818   2.543   9.114   9.190  0.5624  0.3688 -0.0810
  792MOL0     C 6819   2.432   9.028   9.212 -0.3470 -0.1055 -0.6734
  792MOL0     C 6820   2.440   8.928   9.308  1.2241 -0.9105  1.4123
  792MOL0     O 6821   2.315   8.876   9.337 -0.1485 -0.1623 -0.4650
  792MOL0     C 6822   2.315   8.780   9.444 -0.1485  0.3001 -0.4966
  792MOL0     C 6823   2.174   8.726   9.449  0.6498 -0.6158  0.4161
  792MOL0     C 6824   2.169   8.599   9.536 -0.4548  0.4855 -0.4781
  792MOL0     C 6825   2.174   8.635   9.684 -0.7224  1.0052  0.2612
  792MOL0     C 6826   2.169   8.519   9.782 -0.9972  0.3309  0.2310
  792MOL0     C 6827   2.047   8.430   9.785  0.0892 -1.0887 -0.3237
  792MOL0     C 6828   2.032   8.356   9.925 -0.6372  0.8077 -0.0098
  792MOL0     C 6829   1.931   8.229   9.905 -0.5352  0.2276  0.1162
  792MOL0    Cl 6830   1.773   8.299   9.882 -0.0044 -0.1379  0.0012
  792MOL0     C 6831   2.549   8.922   9.386 -0.7155  0.1433  0.0827
  792MOL0     C 6832   2.658   9.018   9.376 -0.4265  0.1020 -0.2130
  792MOL0     O 6833   2.833   9.047   9.091  0.1277  0.3082 -0.4741
  792MOL0     C 6834   3.020   9.216   9.015 -0.3984  0.7979  0.1811
  792MOL0     C 6835   3.132   9.294   8.981 -0.5883 -0.4571  0.0210
  792MOL0     N 6836   3.679   9.081   8.718  0.8574 -0.3907 -0.4248
  792MOL0     N 6837   3.640   8.988   8.629 -0.2328  0.4748 -0.7410
  792MOL0     C 6838   3.534   7.880   9.100  0.2774 -0.4551 -0.6684
  792MOL0     C 6839   3.559   7.748   9.150 -0.5367  0.7012 -0.2664
  792MOL0     C 6840   3.444   7.317   9.235  0.6709 -0.5171  0.4152
  792MOL0     C 6841   3.335   7.230   9.269 -0.5249 -0.2666 -0.0329
  792MOL0     C 6842   3.353   7.106   9.317  0.1462 -0.0362 -0.1892
  792MOL0     C 6843   3.480   7.060   9.348 -0.5284 -0.4520 -0.8734
  792MOL0     O 6844   3.499   6.933   9.391  0.4412 -0.2268 -0.0401
  792MOL0     C 6845   3.588   6.857   9.314 -0.3159  0.0743  0.8253
  792MOL0     C 6846   3.570   6.871   9.163 -0.3767  0.6129  0.6405
  792MOL0     C 6847   3.432   6.814   9.110 -0.3337  1.1792  0.2671
  792MOL0     C 6848   3.393   6.856   8.956  0.4070  0.3072 -0.1667
  792MOL0     C 6849   3.377   6.998   8.934 -0.5931 -0.1542  0.6484
  792MOL0     C 6850   3.367   7.121   8.920  0.6134  0.6915  0.1967
  792MOL0     C 6851   3.593   7.150   9.330 -0.9142  0.0778 -0.3239
  792MOL0     C 6852   3.574   7.271   9.270  0.2089  0.4967  0.4167
  792MOL0     H 6853   3.259   7.700   9.313  1.7659 -2.9243 -0.1259
  792MOL0     H 6854   3.240   7.950   9.254  2.7937  2.7975  0.8577
  792MOL0     H 6855   3.543   8.179   9.221 -2.2692  3.8916 -0.0309
  792MOL0     H 6856   3.597   8.140   9.051  1.3746  0.6664  0.3519
  792MOL0     H 6857   3.345   8.306   9.054  0.1506  1.1742 -2.8819
  792MOL0     H 6858   3.490   8.382   9.136  0.0681 -2.9215  2.8596
  792MOL0     H 6859   3.602   8.360   8.932 -0.5216 -0.4562  1.2232
  792MOL0     H 6860   3.476   8.268   8.858 -1.7326  0.3060  0.3818
  792MOL0     H 6861   3.326   8.485   8.873  0.1600 -2.0629 -2.3079
  792MOL0     H 6862   3.466   8.555   8.959  0.8536  1.2187 -0.5718
  792MOL0     H 6863   3.603   8.516   8.757  0.5018  2.1018  0.4652
  792MOL0     H 6864   3.465   8.458   8.666  0.9609  0.9764 -1.4368
  792MOL0     H 6865   3.326   8.669   8.700 -0.5676 -1.1545 -0.9276
  792MOL0     H 6866   3.454   8.737   8.786 -3.3202  2.1975 -1.0514
  792MOL0     H 6867   3.598   8.701   8.570  0.0744  0.3985  0.6742
  792MOL0     H 6868   3.450   8.657   8.489  1.5621 -0.1661 -1.2581
  792MOL0     H 6869   3.350   8.876   8.553 -0.1178 -0.9878 -0.2024
  792MOL0     H 6870   3.490   8.897   8.453 -2.3304 -1.3469 -1.0463
  792MOL0     H 6871   3.375   8.994   8.817 -0.7661  2.9784  1.2629
  792MOL0     H 6872   3.510   9.186   9.014 -2.6648  6.4491 -0.4175
  792MOL0     H 6873   3.676   9.226   8.951  0.0013 -2.5924  0.2954
  792MOL0     H 6874   3.417   9.299   8.838  0.2948 -0.2216 -0.8514
  792MOL0     H 6875   3.575   9.362   8.768 -2.1424  3.0735 -0.9814
  792MOL0     H 6876   3.471   9.537   8.895  0.3493 -1.3383 -4.5330
  792MOL0     H 6877   3.612   9.478   8.994  0.5068 -0.6400 -1.2430
  792MOL0     H 6878   3.435   9.505   9.151 -0.7607  0.9758 -1.6295
  792MOL0     H 6879   3.428   9.328   9.126  0.2975 -0.2572 -0.6676
  792MOL0     H 6880   3.197   9.410   9.301  2.0987 -0.0303 -1.6797
  792MOL0     H 6881   2.910   9.220   9.427 -0.3164  0.4373 -0.0103
  792MOL0     H 6882   3.053   9.310   9.476 -2.0213  3.9920  0.9686
  792MOL0     H 6883   2.914   9.383   9.403  1.1846  1.2615 -2.5297
  792MOL0     H 6884   2.551   9.195   9.119 -0.7534  0.5573 -0.0365
  792MOL0     H 6885   2.337   9.042   9.160 -1.7627 -0.3135  1.7353
  792MOL0     H 6886   2.379   8.694   9.422 -1.6336 -1.1026  0.3815
  792MOL0     H 6887   2.339   8.834   9.537 -1.8831  1.8465 -0.8839
  792MOL0     H 6888   2.095   8.797   9.475 -0.6127 -0.6853 -2.8160
  792MOL0     H 6889   2.141   8.705   9.347  0.6609  0.3520  0.2082
  792MOL0     H 6890   2.255   8.533   9.524 -1.1834 -1.1553  2.4172
  792MOL0     H 6891   2.078   8.551   9.498  0.3402 -2.7078  1.2931
  792MOL0     H 6892   2.261   8.698   9.708  0.1801  1.2643 -3.0844
  792MOL0     H 6893   2.090   8.703   9.701  1.1644  2.7220  3.8529
  792MOL0     H 6894   2.176   8.557   9.885  0.0203 -0.2137  0.3875
  792MOL0     H 6895   2.255   8.452   9.770  0.0824  1.7250 -0.0586
  792MOL0     H 6896   1.964   8.491   9.748  0.5178 -1.0015 -1.1485
  792MOL0     H 6897   2.056   8.350   9.711  0.7638 -1.5842  0.2765
  792MOL0     H 6898   1.986   8.420  10.000 -2.2858  0.2059 -0.4714
  792MOL0     H 6899   2.123   8.321   9.976 -0.7441  0.5837  0.0308
  792MOL0     H 6900   1.941   8.169   9.995  1.5918  3.6959  2.4480
  792MOL0     H 6901   1.957   8.175   9.813  0.4994 -1.3961  1.3093
  792MOL0     H 6902   2.568   8.851   9.466  0.6938 -0.3897 -0.6844
  792MOL0     H 6903   2.742   9.022   9.445 -0.0126 -0.5909 -0.6641
  792MOL0     H 6904   2.970   9.169   8.931 -0.6894  0.9074  0.2929
  792MOL0     H 6905   3.187   9.299   8.887 -0.0919  3.4907  0.3167
  792MOL0     H 6906   3.610   7.919   9.032 -0.2376  0.5531 -0.6822
  792MOL0     H 6907   3.648   7.695   9.118 -1.1070  0.0371 -0.7781
  792MOL0     H 6908   3.236   7.267   9.242 -0.6713  0.9377  2.0196
  792MOL0     H 6909   3.276   7.035   9.345  1.0489 -0.3544  1.5990
  792MOL0     H 6910   3.695   6.871   9.336  0.2271 -1.9921 -0.2036
  792MOL0     H 6911   3.576   6.751   9.338 -1.9467  0.2863  1.0471
  792MOL0     H 6912   3.656   6.834   9.106 -2.7383  0.6015 -3.2657
  792MOL0     H 6913   3.582   6.973   9.126  4.5315  0.1326  0.3137
  792MOL0     H 6914   3.351   6.837   9.180  1.1571  0.4237  2.3796
  792MOL0     H 6915   3.432   6.705   9.119 -1.8761  0.8385 -2.7782
  792MOL0     H 6916   3.300   6.812   8.919 -1.2942  3.9550 -0.7127
  792MOL0     H 6917   3.475   6.820   8.893 -0.3320 -1.2052 -0.2932
  792MOL0     H 6918   3.363   7.228   8.914 -1.8305  0.6115 -1.3600
  792MOL0     H 6919   3.697   7.132   9.355 -0.7702  0.8638 -0.3399
  792MOL0     H 6920   3.657   7.337   9.246  0.2776 -0.1306 -1.1980
  793MOL0     O 6921   0.198   6.057   3.873  0.8417 -0.2714 -0.0809
  793MOL0     C 6922   0.176   6.091   3.986  0.0059 -0.7426  0.8416
  793MOL0     O 6923   0.117   6.011   4.082 -0.0626 -0.3242  0.4199
  793MOL0     C 6924   0.085   5.877   4.066 -1.3987  0.0310  0.5461
  793MOL0     C 6925   0.040   5.807   3.955  0.3008  0.3541 -0.0051
  793MOL0     C 6926   0.006   5.670   3.966  0.2107 -0.3635 -0.3691
  793MOL0     C 6927  -0.003   5.601   4.093  0.0521 -0.2906  0.3129
  793MOL0     O 6928  -0.052   5.472   4.093 -0.7468 -0.2339  0.5043
  793MOL0     C 6929  -0.028   5.395   4.204  0.4932  0.4136  0.7158
  793MOL0     C 6930  -0.042   5.242   4.161  0.0833  0.2608  0.3462
  793MOL0     C 6931   0.065   5.205   4.054 -0.0554 -0.3693 -0.0776
  793MOL0     C 6932   0.215   5.242   4.086  0.2378 -0.0144 -0.5980
  793MOL0     C 6933   0.260   5.182   4.225 -0.5876 -0.6477 -0.3462
  793MOL0     C 6934   0.416   5.175   4.213  0.2032 -0.3487  0.1421
  793MOL0     C 6935   0.473   5.159   4.343 -0.5564  0.6057 -0.7124
  793MOL0     C 6936   0.427   5.034   4.422  0.3433 -0.5072  0.5200
  793MOL0     N 6937   0.513   4.986   4.531 -0.4446  0.0087  0.2223
  793MOL0     C 6938   0.620   5.056   4.587  0.0299  0.4809 -0.2302
  793MOL0     C 6939   0.673   4.977   4.698  0.0543  0.1797  0.3260
  793MOL0     C 6940   0.813   5.018   4.750  0.9471 -0.5308 -0.5614
  793MOL0     C 6941   0.809   5.154   4.802  0.4566 -1.3397 -0.8280
  793MOL0     C 6942   0.945   5.185   4.860  0.4635  0.7330  0.2399
  793MOL0     C 6943   0.963   5.327   4.912  0.3333  0.1514 -0.0072
  793MOL0     O 6944   0.836   5.376   4.968 -0.8239 -0.3353 -0.4477
  793MOL0     C 6945   0.828   5.492   5.033 -0.4363 -0.3552  0.1645
  793MOL0     C 6946   0.934   5.575   5.078 -0.1297  0.4177  0.4697
  793MOL0     C 6947   0.909   5.704   5.138 -0.0231  0.2940  0.7594
  793MOL0     C 6948   1.028   5.795   5.164  0.1044  0.9485 -0.2305
  793MOL0     C 6949   0.771   5.747   5.141 -0.4730  0.1914  0.0401
  793MOL0     C 6950   0.731   5.876   5.194  1.1128 -0.0204  0.0027
  793MOL0     O 6951   0.600   5.905   5.189  0.7068  0.0813  0.2347
  793MOL0     C 6952   0.527   5.986   5.272  0.1708 -0.2042  0.0215
  793MOL0     C 6953   0.392   6.005   5.230 -0.0599 -0.4368 -0.0688
  793MOL0     C 6954   0.311   6.087   5.308 -0.0963 -0.1633  0.1371
  793MOL0     C 6955   0.352   6.147   5.425  1.0965  0.4356 -0.7564
  793MOL0     O 6956   0.267   6.244   5.483  0.2558  0.2365 -0.2901
  793MOL0     C 6957   0.269   6.267   5.620 -0.8068  0.4118 -0.1192
  793MOL0     C 6958   0.152   6.354   5.666 -0.1273  0.1356 -0.7072
  793MOL0     C 6959   0.187   6.495   5.642  0.4811 -0.2171  0.4385
  793MOL0     C 6960   0.088   6.585   5.711  0.2468  0.8848 -0.6003
  793MOL0     C 6961   0.142   6.725   5.720  0.2126 -0.1898 -0.1935
  793MOL0     C 6962   0.242   6.751   5.841 -0.7234  0.1956 -0.7824
  793MOL0     C 6963   0.178   6.777   5.981  0.3850 -0.0614  0.5089
  793MOL0     C 6964   0.131   6.915   5.999  0.1620 -0.9373 -0.3354
  793MOL0    Cl 6965  -0.043   6.932   5.960 -0.0066 -0.3251  0.0003
  793MOL0     C 6966   0.487   6.129   5.468 -0.5271  1.0518  0.3293
  793MOL0     C 6967   0.571   6.044   5.394  0.2800  0.1938 -0.5537
  793MOL0     O 6968   0.813   5.955   5.245 -0.1422  0.7141 -1.0027
  793MOL0     C 6969   0.666   5.664   5.092 -0.5141 -0.4927  0.6150
  793MOL0     C 6970   0.695   5.536   5.047 -0.1795 -0.0445  0.0436
  793MOL0     N 6971   0.589   4.876   4.711  0.5703 -0.8679 -1.0115
  793MOL0     N 6972   0.496   4.885   4.621  0.1884  0.2272 -0.2226
  793MOL0     C 6973   0.025   5.676   4.200  0.2333  0.6033  0.3259
  793MOL0     C 6974   0.076   5.808   4.187 -0.1181  0.3826  0.4500
  793MOL0     C 6975   0.230   6.223   4.031  0.1046  0.4288  0.0301
  793MOL0     C 6976   0.294   6.311   3.939 -0.5104  0.2701 -0.0871
  793MOL0     C 6977   0.364   6.423   4.001  0.6049 -0.2991 -0.4382
  793MOL0     C 6978   0.369   6.455   4.136 -0.2519  0.0092 -0.2693
  793MOL0     O 6979   0.415   6.581   4.181 -0.7978  0.3830 -0.5137
  793MOL0     C 6980   0.539   6.620   4.114  0.0366  0.1602  0.2307
  793MOL0     C 6981   0.516   6.768   4.071 -0.0612  0.0340 -0.1036
  793MOL0     C 6982   0.639   6.846   3.998  0.6549 -0.4979 -0.1695
  793MOL0     C 6983   0.681   6.757   3.876  0.6223 -0.9077  0.5035
  793MOL0     C 6984   0.805   6.814   3.811 -0.1642  0.2347 -0.2667
  793MOL0     C 6985   0.908   6.858   3.767  0.4691 -0.1936  0.5912
  793MOL0     C 6986   0.299   6.370   4.221  0.1197  0.2413 -0.2824
  793MOL0     C 6987   0.235   6.249   4.171  0.6569  0.3879 -0.5322
  793MOL0     H 6988   0.040   5.854   3.857  0.9160 -0.0550 -0.2056
  793MOL0     H 6989  -0.009   5.631   3.866  1.3392 -0.7200 -0.4154
  793MOL0     H 6990   0.073   5.394   4.247 -0.1204  0.9876  2.2427
  793MOL0     H 6991  -0.099   5.413   4.285 -0.6974  3.3361 -0.8458
  793MOL0     H 6992  -0.038   5.177   4.249  1.8289 -2.0845 -1.3223
  793MOL0     H 6993  -0.144   5.220   4.128  0.1574 -0.5563  0.6286
  793MOL0     H 6994   0.065   5.099   4.027  1.6253 -0.7346  1.2089
  793MOL0     H 6995   0.031   5.254   3.962 -0.4779 -0.6822 -0.0896
  793MOL0     H 6996   0.277   5.199   4.007  2.8640 -0.2196  1.4181
  793MOL0     H 6997   0.236   5.349   4.094 -3.2406  0.8124 -1.1547
  793MOL0     H 6998   0.224   5.244   4.308 -1.0547 -2.2031  0.6403
  793MOL0     H 6999   0.212   5.086   4.246 -1.5270  0.3385  2.5192
  793MOL0     H 7000   0.436   5.093   4.144  2.8692 -0.0353  0.4096
  793MOL0     H 7001   0.463   5.262   4.164  0.1953  0.9066  2.2244
  793MOL0     H 7002   0.582   5.161   4.334 -0.5520  4.8206 -1.6395
  793MOL0     H 7003   0.455   5.254   4.394 -3.4328  0.0705 -0.5373
  793MOL0     H 7004   0.416   4.953   4.349  1.5170  1.2201 -1.7170
  793MOL0     H 7005   0.341   5.068   4.480  2.8751  4.4924  1.9476
  793MOL0     H 7006   0.660   5.144   4.538 -0.6485 -0.0359 -1.7765
  793MOL0     H 7007   0.827   4.947   4.832 -2.1860  1.8127  2.2663
  793MOL0     H 7008   0.888   5.006   4.671 -0.4225 -1.2964 -1.7838
  793MOL0     H 7009   0.733   5.152   4.880  3.2107 -2.5794  2.0265
  793MOL0     H 7010   0.785   5.230   4.726  2.7599  3.9713  3.1286
  793MOL0     H 7011   1.021   5.167   4.783  0.8438  1.0209  0.5432
  793MOL0     H 7012   0.960   5.114   4.942 -1.5404 -0.5570 -0.4221
  793MOL0     H 7013   0.992   5.395   4.831 -1.6874  4.3291  2.4762
  793MOL0     H 7014   1.040   5.324   4.989  1.3784 -2.2327 -1.0322
  793MOL0     H 7015   1.039   5.547   5.079 -0.7648 -2.7522 -3.0636
  793MOL0     H 7016   1.027   5.817   5.271  0.2931 -3.5640  0.9130
  793MOL0     H 7017   1.128   5.753   5.160  0.5540  2.0267 -0.9636
  793MOL0     H 7018   1.034   5.877   5.092 -2.5386 -0.2959 -2.0562
  793MOL0     H 7019   0.357   5.967   5.135 -0.3032 -0.7934  0.1593
  793MOL0     H 7020   0.216   6.120   5.267 -0.5633 -1.5850  0.0153
  793MOL0     H 7021   0.267   6.172   5.675  2.9294  0.0801 -0.2987
  793MOL0     H 7022   0.370   6.304   5.640 -0.2830  1.0757 -3.3969
  793MOL0     H 7023   0.069   6.318   5.606  1.4257 -2.1577 -1.6301
  793MOL0     H 7024   0.136   6.330   5.771 -0.1643 -0.1568 -0.7787
  793MOL0     H 7025   0.179   6.501   5.533 -0.7475  1.0037  0.5765
  793MOL0     H 7026   0.292   6.512   5.667  1.2718 -3.7331  0.0855
  793MOL0     H 7027  -0.011   6.582   5.663 -2.3327  2.3731  3.9780
  793MOL0     H 7028   0.085   6.546   5.813 -1.0900 -0.4768 -1.1185
  793MOL0     H 7029   0.055   6.788   5.738  0.8013  0.2184  1.3894
  793MOL0     H 7030   0.193   6.755   5.628  2.1555  1.3786  1.2987
  793MOL0     H 7031   0.310   6.665   5.842 -0.0113  0.7361  0.7461
  793MOL0     H 7032   0.310   6.830   5.809  1.1860 -1.6346 -1.5552
  793MOL0     H 7033   0.242   6.752   6.067 -0.8155  0.1811  1.5069
  793MOL0     H 7034   0.090   6.713   5.994  0.8742 -0.2891  3.4456
  793MOL0     H 7035   0.187   6.976   5.927  2.0198 -2.5974 -0.3967
  793MOL0     H 7036   0.160   6.942   6.101 -0.2883 -1.7364  0.0066
  793MOL0     H 7037   0.514   6.182   5.559 -0.6516  2.6081 -0.4898
  793MOL0     H 7038   0.668   6.028   5.438  0.4561 -2.7111 -1.7805
  793MOL0     H 7039   0.560   5.684   5.099 -1.2511 -2.5435 -2.7421
  793MOL0     H 7040   0.614   5.471   5.015 -1.4870  1.9191 -0.8794
  793MOL0     H 7041   0.004   5.628   4.295  1.2685 -2.0340 -0.6966
  793MOL0     H 7042   0.096   5.862   4.280 -0.1441 -0.0770  0.7278
  793MOL0     H 7043   0.290   6.299   3.831 -1.4318  1.5767 -0.2227
  793MOL0     H 7044   0.410   6.486   3.925 -1.3531  0.5272 -1.0071
  793MOL0     H 7045   0.606   6.614   4.200 -0.7551 -1.9132  0.7647
  793MOL0     H 7046   0.581   6.547   4.045  0.9488  1.6705 -0.8964
  793MOL0     H 7047   0.508   6.820   4.167  2.4584 -0.5286  0.4809
  793MOL0     H 7048   0.422   6.776   4.015  0.3750  0.5812 -0.7729
  793MOL0     H 7049   0.727   6.881   4.052  0.2263  1.3701 -0.6196
  793MOL0     H 7050   0.596   6.942   3.968 -2.4588 -1.1573  1.7466
  793MOL0     H 7051   0.598   6.747   3.805  0.2179 -0.3304  0.8871
  793MOL0     H 7052   0.714   6.659   3.914  0.4069 -0.8705  0.7905
  793MOL0     H 7053   0.998   6.896   3.723 -1.0659  1.4678 -1.3001
  793MOL0     H 7054   0.287   6.390   4.327  0.4201  2.3432 -0.6020
  793MOL0     H 7055   0.198   6.183   4.249  1.8724  1.5789  1.1494
  794MOL0     O 7056   2.484   9.965  11.222 -0.0466 -0.3133  0.7828
  794MOL0     C 7057   2.535   9.916  11.324  1.1419 -0.2454 -0.1072
  794MOL0     O 7058   2.633   9.814  11.337  0.0313 -0.8187  0.2173
  794MOL0     C 7059   2.710   9.790  11.226  0.6272 -0.0464 -0.3374
  794MOL0     C 7060   2.840   9.847  11.218 -0.4199  0.8211 -0.2607
  794MOL0     C 7061   2.928   9.810  11.115  1.0164 -0.0583  0.4505
  794MOL0     C 7062   2.897   9.707  11.025  0.0184  0.3612 -0.0452
  794MOL0     O 7063   3.008   9.651  10.962  0.5018 -0.0894  0.4036
  794MOL0     C 7064   2.995   9.527  10.892  0.6853 -0.1023  0.7096
  794MOL0     C 7065   3.121   9.489  10.815  0.0899 -0.3065 -0.1735
  794MOL0     C 7066   3.165   9.594  10.721  0.4478 -0.6647  0.2406
  794MOL0     C 7067   3.264   9.529  10.624  0.6680  0.7189  0.8663
  794MOL0     C 7068   3.321   9.627  10.523 -0.8522  0.2517 -0.5155
  794MOL0     C 7069   3.206   9.662  10.433  1.3709  0.2787  0.6849
  794MOL0     C 7070   3.247   9.758  10.324  0.2106 -0.7894  0.7867
  794MOL0     C 7071   3.151   9.739  10.206  0.5536  0.7876  0.8048
  794MOL0     N 7072   3.011   9.786  10.224 -0.2859  0.7080  0.6981
  794MOL0     C 7073   2.916   9.705  10.257  0.7736  0.5691 -0.1382
  794MOL0     C 7074   2.798   9.775  10.260 -0.7733  0.4704  1.1444
  794MOL0     C 7075   2.671   9.728  10.313  0.0238  0.7815  0.1591
  794MOL0     C 7076   2.589   9.665  10.200  0.4858 -0.8408 -0.1881
  794MOL0     C 7077   2.517   9.773  10.120 -0.1357  0.0926  0.0854
  794MOL0     C 7078   2.375   9.788  10.176  0.0435  0.0619  0.9663
  794MOL0     O 7079   2.357   9.882  10.284 -0.3545 -0.3482  0.0529
  794MOL0     C 7080   2.237   9.873  10.344  1.3598 -0.0013 -0.6993
  794MOL0     C 7081   2.114   9.845  10.273 -0.3542 -0.1874 -0.1257
  794MOL0     C 7082   1.995   9.828  10.329 -0.0854 -0.1876 -0.4777
  794MOL0     C 7083   1.885   9.797  10.231  0.1099 -0.3974  0.0845
  794MOL0     C 7084   1.985   9.835  10.477 -0.7268  0.9641 -1.2368
  794MOL0     C 7085   1.855   9.806  10.555 -0.8769 -0.0486 -0.1945
  794MOL0     O 7086   1.858   9.833  10.692 -0.0852  0.9605 -0.1768
  794MOL0     C 7087   1.748   9.797  10.767  0.5351 -1.1289  0.5263
  794MOL0     C 7088   1.667   9.677  10.750  0.2315  0.3735  0.2857
  794MOL0     C 7089   1.577   9.636  10.845 -0.0354 -0.0412 -1.0321
  794MOL0     C 7090   1.543   9.717  10.961 -0.4417  0.3451 -0.0271
  794MOL0     O 7091   1.466   9.679  11.074 -0.7483  0.1668  0.2444
  794MOL0     C 7092   1.338   9.616  11.048  0.6310  0.0618 -0.0948
  794MOL0     C 7093   1.256   9.606  11.178 -0.2072  0.1419 -0.2728
  794MOL0     C 7094   1.225   9.744  11.248  1.0346 -0.2710 -0.1715
  794MOL0     C 7095   1.349   9.808  11.326  0.1462 -0.6890  0.6237
  794MOL0     C 7096   1.321   9.929  11.414 -0.1128  1.0397  0.5231
  794MOL0     C 7097   1.225   9.882  11.529  0.3056  0.7836 -0.3151
  794MOL0     C 7098   1.171   9.992  11.615 -0.2265 -0.7818 -0.6915
  794MOL0     C 7099   1.056  10.075  11.553  0.6347  0.6809 -0.9221
  794MOL0    Cl 7100   0.925   9.949  11.509  0.4515 -0.5105 -0.0519
  794MOL0     C 7101   1.608   9.840  10.967 -0.5087  0.3731  0.5177
  794MOL0     C 7102   1.703   9.882  10.874  0.0843  0.1378 -0.1013
  794MOL0     O 7103   1.769   9.740  10.499  0.4880 -0.5002 -0.0628
  794MOL0     C 7104   2.106   9.859  10.548  0.5405  0.4666  0.3950
  794MOL0     C 7105   2.232   9.878  10.482  0.9082 -0.8135  0.2921
  794MOL0     N 7106   2.830   9.905  10.223 -0.2257  0.3999  0.7316
  794MOL0     N 7107   2.953   9.911  10.202  0.3122  0.1826  0.2790
  794MOL0     C 7108   2.766   9.663  11.021  0.8205  0.7856 -0.7910
  794MOL0     C 7109   2.669   9.707  11.120 -0.2050  0.2761 -0.9912
  794MOL0     C 7110   2.482   9.943  11.451 -0.2090 -0.2273  0.2856
  794MOL0     C 7111   2.343   9.977  11.458 -0.1384 -0.3699  0.3186
  794MOL0     C 7112   2.289  10.031  11.578  0.0559 -0.2029  0.0471
  794MOL0     C 7113   2.375  10.041  11.687 -1.3170  0.3422 -0.6172
  794MOL0     O 7114   2.330  10.086  11.807 -0.0842 -0.5032 -0.1378
  794MOL0     C 7115   2.221  10.175  11.824  0.6431  0.6083 -0.5835
  794MOL0     C 7116   2.232  10.327  11.766  0.2393 -0.8673  0.6443
  794MOL0     C 7117   2.092  10.373  11.722  0.4464 -0.0382  0.4427
  794MOL0     C 7118   2.097  10.526  11.698  0.5830  0.2408 -0.2823
  794MOL0     C 7119   1.960  10.549  11.640 -0.9347 -0.7835 -0.8733
  794MOL0     C 7120   1.855  10.591  11.605  0.6165  0.9398 -0.3324
  794MOL0     C 7121   2.504   9.999  11.682  0.1364  0.8213  0.6891
  794MOL0     C 7122   2.560   9.952  11.566 -0.6364  0.1255  0.3356
  794MOL0     H 7123   2.872   9.919  11.292  0.1053  0.6683 -0.3355
  794MOL0     H 7124   3.025   9.859  11.112  0.6003  0.8024  0.7574
  794MOL0     H 7125   2.978   9.445  10.962  1.4683 -1.5897 -0.7949
  794MOL0     H 7126   2.918   9.532  10.814  3.3131  1.8103 -1.9737
  794MOL0     H 7127   3.195   9.468  10.892  0.3535  0.8146 -0.1101
  794MOL0     H 7128   3.090   9.396  10.766  1.7567 -1.7724  1.4127
  794MOL0     H 7129   3.075   9.638  10.678  0.3334 -1.5622 -0.4567
  794MOL0     H 7130   3.223   9.660  10.786 -0.3435  0.4314 -0.1331
  794MOL0     H 7131   3.346   9.482  10.680  1.0410 -1.2234 -1.1674
  794MOL0     H 7132   3.226   9.445  10.565 -0.9100  1.2040  1.1516
  794MOL0     H 7133   3.361   9.714  10.575  0.7973  1.1797 -3.1370
  794MOL0     H 7134   3.405   9.577  10.474 -0.0185 -0.2190  1.2911
  794MOL0     H 7135   3.164   9.574  10.383 -0.3114  1.6628 -0.4573
  794MOL0     H 7136   3.118   9.707  10.479 -0.6230  0.2905 -2.8281
  794MOL0     H 7137   3.242   9.865  10.349 -0.2225  0.0261 -2.3950
  794MOL0     H 7138   3.348   9.731  10.291  0.6070  0.3931  0.9613
  794MOL0     H 7139   3.152   9.633  10.176 -0.5038  1.4767 -2.0138
  794MOL0     H 7140   3.187   9.786  10.114 -5.6820 -1.5162 -3.4736
  794MOL0     H 7141   2.927   9.602  10.289  2.6170  1.2195  1.5224
  794MOL0     H 7142   2.696   9.645  10.380  2.1976 -0.9438 -2.5648
  794MOL0     H 7143   2.609   9.802  10.363 -0.8815 -0.8631  1.5859
  794MOL0     H 7144   2.522   9.592  10.245 -0.2000 -0.3532 -0.4094
  794MOL0     H 7145   2.651   9.608  10.131 -0.7857 -2.6000  0.0717
  794MOL0     H 7146   2.498   9.731  10.021 -1.4768  0.2404  0.2565
  794MOL0     H 7147   2.568   9.870  10.111  2.6044 -1.3720 -1.2303
  794MOL0     H 7148   2.341   9.688  10.205 -3.9063  0.0270 -2.7768
  794MOL0     H 7149   2.313   9.816  10.091 -1.1975 -2.4508  0.9698
  794MOL0     H 7150   2.118   9.838  10.165 -0.6707 -0.8153 -0.1010
  794MOL0     H 7151   1.912   9.820  10.127 -2.0937 -0.8306 -0.6463
  794MOL0     H 7152   1.853   9.693  10.244  0.6271 -0.8209 -1.7313
  794MOL0     H 7153   1.803   9.857  10.271  1.1213  0.5137  0.8593
  794MOL0     H 7154   1.690   9.603  10.674  0.7609  1.9283 -1.1558
  794MOL0     H 7155   1.526   9.540  10.851 -0.4037  0.1889 -0.3693
  794MOL0     H 7156   1.272   9.664  10.975  0.6300  1.3473  0.7377
  794MOL0     H 7157   1.363   9.522  10.997  2.7776  0.2318  0.5551
  794MOL0     H 7158   1.159   9.571  11.142 -0.8219  1.8530 -0.3579
  794MOL0     H 7159   1.297   9.538  11.254 -1.9626  0.3413  0.9046
  794MOL0     H 7160   1.142   9.734  11.319  0.8038  1.9171 -0.0537
  794MOL0     H 7161   1.186   9.811  11.171 -3.0017 -2.4217 -0.2717
  794MOL0     H 7162   1.400   9.729  11.383  2.9574  0.1478 -0.5630
  794MOL0     H 7163   1.418   9.831  11.244 -1.0157 -2.9120 -1.0956
  794MOL0     H 7164   1.270  10.003  11.351  1.5685  1.3208 -0.5575
  794MOL0     H 7165   1.412   9.979  11.448 -0.2667  1.5531  0.1916
  794MOL0     H 7166   1.150   9.811  11.493  1.9360 -0.4369 -1.4174
  794MOL0     H 7167   1.278   9.820  11.603  0.5613  3.1531  1.6326
  794MOL0     H 7168   1.236  10.075  11.645 -0.9042 -0.8196  1.0000
  794MOL0     H 7169   1.127   9.947  11.705 -0.1747 -0.9919 -0.7735
  794MOL0     H 7170   1.089  10.115  11.457 -2.1577 -0.4834 -2.4686
  794MOL0     H 7171   1.018  10.157  11.616 -1.3777 -0.5954 -0.3695
  794MOL0     H 7172   1.593   9.908  11.050  1.2024  3.9334 -1.8105
  794MOL0     H 7173   1.757   9.976  10.873  1.3562 -0.5728 -1.5707
  794MOL0     H 7174   2.104   9.860  10.656 -0.4686 -2.2763  0.4664
  794MOL0     H 7175   2.320   9.910  10.536  0.2017 -1.3293  1.7883
  794MOL0     H 7176   2.732   9.591  10.947  1.8222 -1.1154  0.5021
  794MOL0     H 7177   2.564   9.680  11.126  0.3151 -2.1724 -1.8337
  794MOL0     H 7178   2.291   9.977  11.363  0.5980 -0.2140 -0.0837
  794MOL0     H 7179   2.185  10.063  11.581  1.0720  3.7227 -1.2072
  794MOL0     H 7180   2.136  10.121  11.781  0.5706 -0.4162  0.7896
  794MOL0     H 7181   2.203  10.180  11.931  1.7641  1.7259 -0.4216
  794MOL0     H 7182   2.295  10.330  11.677  0.9545  1.6515  1.1796
  794MOL0     H 7183   2.276  10.396  11.838  1.0411 -1.8180  1.1033
  794MOL0     H 7184   2.010  10.351  11.792 -2.1760 -0.8240 -2.6520
  794MOL0     H 7185   2.065  10.305  11.641 -1.3043 -0.3577  1.2453
  794MOL0     H 7186   2.173  10.546  11.622  0.3565 -0.5590 -0.7294
  794MOL0     H 7187   2.114  10.595  11.781  0.5730 -0.5242  0.3568
  794MOL0     H 7188   1.757  10.621  11.575  0.2189  0.6164  0.5753
  794MOL0     H 7189   2.572  10.010  11.766  3.2976 -0.0822 -1.5662
  794MOL0     H 7190   2.668   9.940  11.567 -0.5117  1.1342  1.9929
  795MOL0     O 7191   5.120  10.527   2.966 -0.0178  0.2544  0.6343
  795MOL0     C 7192   5.029  10.499   3.038  0.1469 -0.3112  0.3510
  795MOL0     O 7193   5.037  10.452   3.170  0.3325  1.4069  0.1773
  795MOL0     C 7194   5.151  10.418   3.244  0.0964 -0.4807  0.7499
  795MOL0     C 7195   5.140  10.335   3.348 -0.6708  0.3979  0.3114
  795MOL0     C 7196   5.249  10.308   3.424 -0.3151  0.7557 -0.0325
  795MOL0     C 7197   5.371  10.369   3.401 -0.8765  0.5565  0.3383
  795MOL0     O 7198   5.485  10.334   3.470 -0.1780  0.2912  0.0315
  795MOL0     C 7199   5.476  10.256   3.595  0.3342 -0.4053  0.3505
  795MOL0     C 7200   5.615  10.257   3.648 -0.1138 -0.0478 -0.6546
  795MOL0     C 7201   5.642  10.132   3.733 -0.5753 -0.5413  0.0273
  795MOL0     C 7202   5.778  10.151   3.805 -0.4315 -0.1854  0.2844
  795MOL0     C 7203   5.812  10.025   3.879  0.0467 -0.2255  1.2129
  795MOL0     C 7204   5.958   9.997   3.898  0.2820 -0.5644  0.0083
  795MOL0     C 7205   5.973   9.886   4.011 -0.0450 -1.5749  0.4442
  795MOL0     C 7206   6.102   9.793   4.008 -0.0033  0.2644 -0.3407
  795MOL0     N 7207   6.123   9.712   4.132 -0.1540  0.5011  0.3290
  795MOL0     C 7208   6.133   9.758   4.264  0.3602 -0.2392  0.9665
  795MOL0     C 7209   6.168   9.650   4.339 -0.5358  0.0452  0.0406
  795MOL0     C 7210   6.196   9.644   4.484 -0.6363 -0.1848  0.5365
  795MOL0     C 7211   6.340   9.694   4.530  0.2088  0.2768  0.1460
  795MOL0     C 7212   6.361   9.847   4.510  0.3566  0.8641  0.6066
  795MOL0     C 7213   6.491   9.893   4.554  0.1610 -0.7214 -0.4237
  795MOL0     O 7214   6.487   9.903   4.697 -0.1721  1.1400 -1.0474
  795MOL0     C 7215   6.583   9.983   4.764  0.1411 -0.2328 -0.7703
  795MOL0     C 7216   6.583   9.956   4.906 -1.1076  0.0080  0.6259
  795MOL0     C 7217   6.685  10.015   4.987 -0.3749  1.6720 -0.2961
  795MOL0     C 7218   6.710   9.939   5.117 -0.9058  0.4213  0.1137
  795MOL0     C 7219   6.757  10.130   4.930  0.4099 -0.4067  0.4249
  795MOL0     C 7220   6.809  10.240   5.022 -0.6510 -0.2967  0.6354
  795MOL0     O 7221   6.791  10.229   5.154  0.0592 -0.1363  0.0096
  795MOL0     C 7222   6.837  10.327   5.244  0.0925  0.4475  0.5661
  795MOL0     C 7223   6.970  10.378   5.239 -0.2433  0.3309  0.0854
  795MOL0     C 7224   7.022  10.455   5.337 -0.0186  0.2739 -1.3625
  795MOL0     C 7225   6.942  10.496   5.446 -0.6371 -0.0607  0.0645
  795MOL0     O 7226   6.983  10.584   5.542  0.1032 -0.4017  0.0613
  795MOL0     C 7227   7.122  10.615   5.558  0.4330 -0.0056 -0.5331
  795MOL0     C 7228   7.184  10.547   5.679  0.4403  0.3468  0.4490
  795MOL0     C 7229   7.193  10.394   5.677 -0.0976 -0.4671  0.4668
  795MOL0     C 7230   7.250  10.334   5.806 -0.7362  0.2842 -0.6199
  795MOL0     C 7231   7.185  10.373   5.940 -0.4228  0.2703 -0.0094
  795MOL0     C 7232   7.048  10.303   5.948 -0.6944 -0.3645  0.6270
  795MOL0     C 7233   6.985  10.307   6.089  0.0213 -0.3345  0.4346
  795MOL0     C 7234   6.839  10.280   6.097  0.3312 -0.0899  0.0133
  795MOL0    Cl 7235   6.724  10.370   5.990  0.0221 -0.0673  0.4204
  795MOL0     C 7236   6.811  10.460   5.449 -0.8346 -0.2774 -1.2520
  795MOL0     C 7237   6.761  10.377   5.349  0.1790  0.1040  0.3334
  795MOL0     O 7238   6.895  10.311   4.964  0.4515  0.2820  0.1733
  795MOL0     C 7239   6.737  10.163   4.794  0.2648  0.4345  0.1968
  795MOL0     C 7240   6.674  10.067   4.705 -0.4607 -0.4157 -0.7908
  795MOL0     N 7241   6.171   9.540   4.249  0.0895  0.5962 -0.8331
  795MOL0     N 7242   6.149   9.582   4.125 -0.2012  0.7829  0.0209
  795MOL0     C 7243   5.393  10.435   3.284  0.3455 -0.3038  0.3024
  795MOL0     C 7244   5.281  10.474   3.213 -0.2789 -0.8718  0.5267
  795MOL0     C 7245   4.896  10.513   2.983 -0.1607 -0.6796 -0.0323
  795MOL0     C 7246   4.789  10.526   3.067  0.8590 -0.4474  0.5952
  795MOL0     C 7247   4.657  10.575   3.026  0.5006 -0.1697 -0.0897
  795MOL0     C 7248   4.638  10.599   2.885  0.2738  0.2784  0.3043
  795MOL0     O 7249   4.532  10.647   2.824  0.4337  0.2401 -0.0184
  795MOL0     C 7250   4.404  10.648   2.889 -0.9186  0.2726  0.2663
  795MOL0     C 7251   4.294  10.672   2.787 -0.5923 -0.2841  0.7194
  795MOL0     C 7252   4.304  10.583   2.662 -0.0959  0.3122 -0.5242
  795MOL0     C 7253   4.186  10.630   2.566  0.2910  0.1970 -0.4449
  795MOL0     C 7254   4.065  10.554   2.597  1.1582  1.1316 -0.3110
  795MOL0     C 7255   3.974  10.487   2.635 -0.0871  0.4321  0.4182
  795MOL0     C 7256   4.749  10.571   2.801  0.2863 -0.0176  0.0423
  795MOL0     C 7257   4.872  10.530   2.848  0.4433 -0.6135  0.4717
  795MOL0     H 7258   5.049  10.277   3.362 -0.2757 -0.4784 -0.6270
  795MOL0     H 7259   5.221  10.246   3.509 -1.0883 -0.8745 -1.4266
  795MOL0     H 7260   5.398  10.291   3.663 -0.6339 -0.7859 -0.5323
  795MOL0     H 7261   5.449  10.153   3.571 -1.9476  0.2708 -0.2203
  795MOL0     H 7262   5.691  10.247   3.570  1.4457  0.7231  0.7072
  795MOL0     H 7263   5.644  10.348   3.701 -2.2261 -0.2026  0.9027
  795MOL0     H 7264   5.563  10.125   3.809  0.4347 -1.9969  1.0073
  795MOL0     H 7265   5.636  10.047   3.665 -0.5361  0.5545 -1.3736
  795MOL0     H 7266   5.849  10.186   3.728  0.8769 -1.7629  0.7190
  795MOL0     H 7267   5.775  10.240   3.868  0.5397  0.8310 -1.0177
  795MOL0     H 7268   5.757  10.015   3.973  1.2470 -0.5152  1.9116
  795MOL0     H 7269   5.790   9.941   3.813 -1.5270 -1.7685  3.5376
  795MOL0     H 7270   6.009   9.968   3.806 -1.2299 -1.9252 -0.4565
  795MOL0     H 7271   6.009  10.091   3.921 -2.0337  0.8846 -0.4023
  795MOL0     H 7272   5.976   9.939   4.107  1.6112 -0.5735 -0.0974
  795MOL0     H 7273   5.887   9.820   4.007  0.3400 -2.0255 -1.1773
  795MOL0     H 7274   6.191   9.856   4.007 -0.7300  1.8467  4.7132
  795MOL0     H 7275   6.105   9.729   3.920  1.5342  0.0806 -0.1887
  795MOL0     H 7276   6.123   9.860   4.299  0.3115  0.9047 -2.0791
  795MOL0     H 7277   6.116   9.699   4.535 -2.2963 -2.9970  1.1987
  795MOL0     H 7278   6.174   9.543   4.520  0.0580 -1.0199 -1.2757
  795MOL0     H 7279   6.406   9.643   4.460 -1.4657 -1.5184 -0.2382
  795MOL0     H 7280   6.354   9.661   4.634 -1.1556  2.3401  1.0554
  795MOL0     H 7281   6.284   9.900   4.567  0.6458  0.0108  1.8330
  795MOL0     H 7282   6.346   9.866   4.403 -1.2685 -1.8652  0.2550
  795MOL0     H 7283   6.502   9.995   4.517  0.0079 -0.8000 -0.6849
  795MOL0     H 7284   6.570   9.829   4.513  1.3799 -0.1484  0.9223
  795MOL0     H 7285   6.507   9.887   4.940 -1.3627  0.1888  0.4264
  795MOL0     H 7286   6.815   9.912   5.128 -0.8284 -0.2027 -1.8169
  795MOL0     H 7287   6.668   9.998   5.199 -3.1864  0.7661 -1.2214
  795MOL0     H 7288   6.658   9.842   5.121 -1.9027  0.7438 -2.6738
  795MOL0     H 7289   7.026  10.350   5.150 -2.4731 -3.0197 -0.4765
  795MOL0     H 7290   7.125  10.483   5.319  0.3688  1.7756  2.4007
  795MOL0     H 7291   7.185  10.597   5.470 -0.9337 -1.6623 -1.2346
  795MOL0     H 7292   7.105  10.722   5.571 -2.9411 -0.4336 -0.4843
  795MOL0     H 7293   7.281  10.596   5.693  0.1081  0.2886  3.6724
  795MOL0     H 7294   7.121  10.570   5.765 -0.1161 -0.1163  0.1773
  795MOL0     H 7295   7.256  10.352   5.598  0.9615 -0.3209  1.2110
  795MOL0     H 7296   7.096  10.348   5.657  0.3682 -1.0691 -0.4858
  795MOL0     H 7297   7.235  10.227   5.785 -3.0714  0.4528 -0.0960
  795MOL0     H 7298   7.356  10.354   5.818 -0.7706  0.2460 -0.2243
  795MOL0     H 7299   7.174  10.480   5.959 -4.8918 -0.4268  2.9095
  795MOL0     H 7300   7.241  10.330   6.023 -3.6322 -2.4934  0.9435
  795MOL0     H 7301   6.977  10.351   5.879 -0.1374 -1.6891 -0.9111
  795MOL0     H 7302   7.070  10.198   5.925 -4.0998 -2.6160  5.7239
  795MOL0     H 7303   6.991  10.411   6.123 -3.4977  0.8293 -1.9839
  795MOL0     H 7304   7.037  10.242   6.159  1.4795  0.9087  0.5556
  795MOL0     H 7305   6.811  10.305   6.199 -0.0377  0.8509 -0.3153
  795MOL0     H 7306   6.819  10.174   6.077  0.1427  0.2649 -1.8797
  795MOL0     H 7307   6.748  10.501   5.527 -0.2073 -0.4316 -0.6459
  795MOL0     H 7308   6.660  10.337   5.353  0.4550 -0.5181  4.0417
  795MOL0     H 7309   6.795  10.242   4.748 -0.0788  1.5375  1.5998
  795MOL0     H 7310   6.706  10.066   4.601 -0.7367  2.3701 -0.9796
  795MOL0     H 7311   5.492  10.471   3.259  0.2349  1.1209  1.7833
  795MOL0     H 7312   5.286  10.543   3.130  0.5039 -2.8285 -1.1270
  795MOL0     H 7313   4.796  10.506   3.174 -3.1679  0.1975  1.1482
  795MOL0     H 7314   4.575  10.596   3.094 -0.6067  1.7411 -1.8561
  795MOL0     H 7315   4.390  10.545   2.922 -0.5117 -0.3400 -1.3430
  795MOL0     H 7316   4.410  10.725   2.967  0.7161 -2.5666  3.1776
  795MOL0     H 7317   4.299  10.780   2.769  1.4738 -0.5155 -0.2863
  795MOL0     H 7318   4.197  10.648   2.833 -1.8090 -1.5920 -2.2765
  795MOL0     H 7319   4.283  10.478   2.686 -1.8026  0.6103 -0.5711
  795MOL0     H 7320   4.401  10.598   2.613 -0.4512  0.6825 -1.1338
  795MOL0     H 7321   4.223  10.608   2.466  1.8878  0.0757  0.1329
  795MOL0     H 7322   4.165  10.737   2.572  1.8634  0.5204 -0.1711
  795MOL0     H 7323   3.902  10.414   2.666  3.1676 -3.9428 -1.3080
  795MOL0     H 7324   4.739  10.578   2.693  1.0868 -0.3440 -0.0614
  795MOL0     H 7325   4.957  10.522   2.781  1.0967  2.8228  0.7319
  796MOL0     O 7326   7.015   4.309   1.956  0.7639 -0.1742  0.5222
  796MOL0     C 7327   7.046   4.409   1.889  0.3246  0.7858 -0.9110
  796MOL0     O 7328   7.171   4.455   1.877  0.4344 -0.5652  0.9184
  796MOL0     C 7329   7.273   4.408   1.956 -0.2022  0.5892  0.1982
  796MOL0     C 7330   7.394   4.361   1.904 -0.5320 -0.2321  0.0797
  796MOL0     C 7331   7.502   4.334   1.988 -0.6580  0.0549  0.4849
  796MOL0     C 7332   7.489   4.359   2.125 -0.8768 -0.9171  0.4174
  796MOL0     O 7333   7.604   4.329   2.191  0.0463 -0.7569 -0.3760
  796MOL0     C 7334   7.614   4.377   2.330 -0.0037  0.5368  0.6360
  796MOL0     C 7335   7.760   4.345   2.373  0.0298 -1.1748 -0.1185
  796MOL0     C 7336   7.783   4.371   2.518 -0.6841 -0.3629 -0.3995
  796MOL0     C 7337   7.866   4.486   2.553  0.0737 -0.4228  0.4159
  796MOL0     C 7338   7.863   4.513   2.704 -0.2648  0.9683 -0.9388
  796MOL0     C 7339   7.730   4.575   2.758  0.0211 -0.6639  0.4880
  796MOL0     C 7340   7.754   4.603   2.912  0.2762 -0.1558 -0.7384
  796MOL0     C 7341   7.629   4.662   2.977  0.5140  0.6590 -0.0033
  796MOL0     N 7342   7.499   4.602   2.930 -0.4452 -0.4850 -0.6668
  796MOL0     C 7343   7.422   4.662   2.837  0.3507  0.8159  0.4343
  796MOL0     C 7344   7.326   4.572   2.812 -0.0702  0.9490  0.3772
  796MOL0     C 7345   7.197   4.574   2.731  0.0495 -0.0148 -0.0178
  796MOL0     C 7346   7.059   4.525   2.790  0.1079 -0.2129  0.7989
  796MOL0     C 7347   7.054   4.545   2.941  0.1860  0.2361  0.7041
  796MOL0     C 7348   7.017   4.678   2.981  0.3154 -0.5120 -0.1865
  796MOL0     O 7349   6.876   4.695   2.960 -0.1701  0.4968 -0.3100
  796MOL0     C 7350   6.815   4.795   3.033  0.2117 -0.3727  0.0155
  796MOL0     C 7351   6.895   4.895   3.092  1.0844 -0.8485  0.2045
  796MOL0     C 7352   6.828   5.008   3.163  0.7520 -0.2665 -0.3571
  796MOL0     C 7353   6.926   5.105   3.236 -0.3816  0.7853 -0.3707
  796MOL0     C 7354   6.689   5.011   3.155  1.3111 -1.0200  0.3806
  796MOL0     C 7355   6.608   5.136   3.204 -0.4031 -0.4312  0.2803
  796MOL0     O 7356   6.468   5.125   3.198  0.5979 -1.0231  0.8157
  796MOL0     C 7357   6.380   5.221   3.248  0.7496 -0.1390  0.7918
  796MOL0     C 7358   6.249   5.177   3.236  0.7588 -0.0499 -0.4681
  796MOL0     C 7359   6.141   5.263   3.257  0.3250  0.0205  0.8418
  796MOL0     C 7360   6.157   5.392   3.313 -0.2944 -0.1320  0.0079
  796MOL0     O 7361   6.046   5.458   3.344 -0.0542  0.4964  0.2669
  796MOL0     C 7362   6.048   5.603   3.357  0.5137  0.5134 -0.6012
  796MOL0     C 7363   6.029   5.639   3.498 -0.4348  0.4237  0.2200
  796MOL0     C 7364   5.878   5.629   3.540 -0.3926 -0.3105  0.2385
  796MOL0     C 7365   5.849   5.678   3.686 -0.5770  0.3654  0.2751
  796MOL0     C 7366   5.719   5.598   3.723 -0.6403 -1.1868  0.5976
  796MOL0     C 7367   5.684   5.625   3.869  0.7630 -0.7395  0.9864
  796MOL0     C 7368   5.551   5.553   3.913  0.2008  0.4415 -0.8104
  796MOL0     C 7369   5.431   5.580   3.815  0.1424 -0.6227 -0.3004
  796MOL0    Cl 7370   5.282   5.492   3.875  0.0434 -0.1785  0.2006
  796MOL0     C 7371   6.286   5.433   3.347 -0.7306 -0.1163 -0.1045
  796MOL0     C 7372   6.402   5.352   3.308  0.3943 -0.7708  0.4720
  796MOL0     O 7373   6.672   5.228   3.254  0.4924 -0.1242  0.4954
  796MOL0     C 7374   6.615   4.918   3.084  0.3911 -0.5477 -0.7699
  796MOL0     C 7375   6.679   4.814   3.021  1.1248 -0.3033  0.2734
  796MOL0     N 7376   7.361   4.449   2.874  0.5142 -0.6569  0.4828
  796MOL0     N 7377   7.466   4.474   2.947  0.3399  0.5416  0.1077
  796MOL0     C 7378   7.370   4.404   2.179  0.5800  0.7627  0.8697
  796MOL0     C 7379   7.263   4.425   2.092 -0.9633  1.0397 -0.2201
  796MOL0     C 7380   6.939   4.491   1.823 -0.0500  0.5988  0.2127
  796MOL0     C 7381   6.813   4.448   1.835  0.4813 -0.5483  0.6725
  796MOL0     C 7382   6.698   4.508   1.761  0.0714  0.8072 -0.1645
  796MOL0     C 7383   6.726   4.623   1.685  0.8078  0.5484 -0.4726
  796MOL0     O 7384   6.640   4.696   1.610  0.4526 -0.5561  0.5947
  796MOL0     C 7385   6.520   4.634   1.576 -0.5064  0.9033  0.4867
  796MOL0     C 7386   6.476   4.664   1.427  0.3567  0.7934  0.6634
  796MOL0     C 7387   6.328   4.705   1.391  0.0365  0.2494 -0.2406
  796MOL0     C 7388   6.291   4.837   1.451 -0.2480 -1.0399 -0.1588
  796MOL0     C 7389   6.380   4.944   1.397 -0.1410 -0.4099  0.1211
  796MOL0     C 7390   6.437   5.040   1.337  0.8989  0.5444  0.4858
  796MOL0     C 7391   6.855   4.675   1.687 -0.3798 -0.2389  0.5637
  796MOL0     C 7392   6.960   4.609   1.755 -0.1278 -0.1090  0.4765
  796MOL0     H 7393   7.404   4.342   1.798 -1.0489  0.0005 -0.0156
  796MOL0     H 7394   7.595   4.298   1.946 -1.6487 -0.0505 -1.7992
  796MOL0     H 7395   7.598   4.486   2.325  0.7017  0.5901 -1.6613
  796MOL0     H 7396   7.544   4.330   2.400 -1.2574  1.3827  0.0093
  796MOL0     H 7397   7.785   4.239   2.364 -0.2425 -1.1327 -1.6003
  796MOL0     H 7398   7.827   4.399   2.305  0.4176 -2.4035 -0.7411
  796MOL0     H 7399   7.694   4.362   2.580 -0.2823  0.2796  0.2903
  796MOL0     H 7400   7.846   4.292   2.561 -2.1539 -0.9388  0.7784
  796MOL0     H 7401   7.970   4.466   2.528  0.6133  3.5414 -1.1758
  796MOL0     H 7402   7.836   4.582   2.510 -0.2567  0.4666  2.4926
  796MOL0     H 7403   7.894   4.430   2.768 -1.9102  1.6056  0.7505
  796MOL0     H 7404   7.953   4.575   2.705  3.3644 -3.7031 -0.0311
  796MOL0     H 7405   7.702   4.672   2.718 -0.2997 -1.5817 -1.6670
  796MOL0     H 7406   7.642   4.511   2.750 -2.2017  2.3308 -0.5643
  796MOL0     H 7407   7.762   4.509   2.969 -4.1314 -1.4152 -1.8070
  796MOL0     H 7408   7.847   4.659   2.928  0.4715 -0.9055  1.0975
  796MOL0     H 7409   7.632   4.766   2.943  0.2284  0.0503 -2.0263
  796MOL0     H 7410   7.628   4.648   3.085 -0.3168  0.0629 -0.0796
  796MOL0     H 7411   7.441   4.753   2.781  1.1228 -1.1513 -2.7465
  796MOL0     H 7412   7.195   4.680   2.703 -2.1115 -0.5592 -2.2712
  796MOL0     H 7413   7.214   4.522   2.636 -2.8284  2.2812 -1.9484
  796MOL0     H 7414   7.063   4.421   2.756  3.2469 -0.1290  0.6437
  796MOL0     H 7415   6.980   4.578   2.736  1.7981 -0.5785 -2.2820
  796MOL0     H 7416   7.145   4.513   2.991  1.7093  1.5000 -1.1398
  796MOL0     H 7417   6.974   4.484   2.985  2.6212 -3.5332  0.3830
  796MOL0     H 7418   7.074   4.756   2.929 -0.2490 -1.3003 -2.0393
  796MOL0     H 7419   7.030   4.688   3.089 -2.1015  3.9217 -0.0718
  796MOL0     H 7420   7.003   4.901   3.103  0.9967  0.9896  0.2701
  796MOL0     H 7421   7.029   5.074   3.217 -1.4547 -1.1632 -3.8851
  796MOL0     H 7422   6.899   5.207   3.206  1.2352  0.5056 -3.0188
  796MOL0     H 7423   6.903   5.096   3.343 -3.2096  0.2250 -0.9439
  796MOL0     H 7424   6.237   5.072   3.209  1.1107  0.8697 -4.9410
  796MOL0     H 7425   6.042   5.221   3.249  0.9077 -1.4234  1.0398
  796MOL0     H 7426   6.142   5.646   3.321  1.4577 -1.7694 -1.0446
  796MOL0     H 7427   5.957   5.638   3.309  0.3330  0.4833 -0.2772
  796MOL0     H 7428   6.090   5.580   3.567 -0.3518  2.1931  1.7355
  796MOL0     H 7429   6.073   5.738   3.512  0.5292  0.1488 -0.7049
  796MOL0     H 7430   5.850   5.525   3.520 -0.4657  0.0646 -1.7663
  796MOL0     H 7431   5.822   5.696   3.476  1.3260  1.5638  0.5791
  796MOL0     H 7432   5.934   5.644   3.746 -2.1276 -2.5741  0.9806
  796MOL0     H 7433   5.834   5.786   3.702 -0.7142  0.2479  0.9537
  796MOL0     H 7434   5.738   5.492   3.703  3.7760 -1.0785  3.0323
  796MOL0     H 7435   5.634   5.636   3.665 -0.0090  3.1539  2.0933
  796MOL0     H 7436   5.769   5.595   3.930  1.3590 -0.7354  0.1732
  796MOL0     H 7437   5.669   5.733   3.879  0.4581 -0.9522  3.2901
  796MOL0     H 7438   5.524   5.584   4.014 -0.3336 -0.0585 -0.7953
  796MOL0     H 7439   5.562   5.444   3.916  0.2027  0.4570  0.1388
  796MOL0     H 7440   5.456   5.546   3.715  5.7594 -1.3127  0.9842
  796MOL0     H 7441   5.413   5.688   3.818 -0.2117 -0.6798 -0.3981
  796MOL0     H 7442   6.303   5.521   3.408 -2.7754  1.2189 -1.3448
  796MOL0     H 7443   6.503   5.376   3.339  0.5388 -2.9224  1.8676
  796MOL0     H 7444   6.508   4.916   3.068  0.5155 -4.5338 -2.4878
  796MOL0     H 7445   6.619   4.754   2.953  0.8999  0.6694 -0.4247
  796MOL0     H 7446   7.344   4.422   2.283 -5.7558  0.5722 -0.2666
  796MOL0     H 7447   7.164   4.455   2.125 -0.5495  1.0112  1.0956
  796MOL0     H 7448   6.778   4.360   1.888 -1.2816  0.3765  1.1285
  796MOL0     H 7449   6.597   4.475   1.781  0.6476 -1.1983 -0.3421
  796MOL0     H 7450   6.530   4.526   1.590  1.7208  0.9598 -0.1891
  796MOL0     H 7451   6.438   4.686   1.626 -0.0103  0.1596  2.1488
  796MOL0     H 7452   6.483   4.573   1.367 -4.0414  0.9576 -0.3787
  796MOL0     H 7453   6.562   4.723   1.393 -0.1744  1.0580 -0.2541
  796MOL0     H 7454   6.256   4.632   1.428  2.0117 -0.8580  1.6149
  796MOL0     H 7455   6.312   4.706   1.282 -0.8196 -0.8783 -0.1402
  796MOL0     H 7456   6.278   4.844   1.560 -3.3567 -0.1620 -0.5039
  796MOL0     H 7457   6.195   4.867   1.410 -0.6530  1.6437  2.4229
  796MOL0     H 7458   6.485   5.126   1.296  1.4784 -0.8129 -1.9179
  796MOL0     H 7459   6.885   4.768   1.639  1.3831 -1.1565 -0.2093
  796MOL0     H 7460   7.061   4.648   1.752  0.3781 -1.2528  1.5338
  797MOL0     O 7461   8.862   1.004  10.426 -0.4330 -0.7907  0.6026
  797MOL0     C 7462   8.968   1.049  10.468  0.2670 -0.5877 -0.3701
  797MOL0     O 7463   8.978   1.156  10.557 -0.2476 -0.1586  0.1898
  797MOL0     C 7464   8.879   1.249  10.579 -0.1728  0.0773  0.6405
  797MOL0     C 7465   8.751   1.251  10.536 -0.1780  0.5751  0.1661
  797MOL0     C 7466   8.660   1.357  10.557  1.2034  0.0334 -0.9206
  797MOL0     C 7467   8.705   1.469  10.630  0.1665 -0.0662  0.7244
  797MOL0     O 7468   8.638   1.575  10.677 -0.1308  0.3562  0.4438
  797MOL0     C 7469   8.500   1.595  10.643  0.1898 -0.3211  0.2459
  797MOL0     C 7470   8.466   1.743  10.676 -0.0042  0.1923  0.1310
  797MOL0     C 7471   8.557   1.869  10.656 -0.1213 -0.0744 -0.1362
  797MOL0     C 7472   8.621   1.857  10.513  0.9937 -0.8446 -0.8005
  797MOL0     C 7473   8.703   1.989  10.472  0.1414  0.7993 -0.1015
  797MOL0     C 7474   8.769   1.975  10.333 -0.7922 -0.8471  0.2197
  797MOL0     C 7475   8.876   1.866  10.310  0.1217 -0.8624  0.7257
  797MOL0     C 7476   8.996   1.907  10.386 -0.5267  0.9858  0.2420
  797MOL0     N 7477   9.097   1.795  10.385 -0.3987  0.2218 -0.1600
  797MOL0     C 7478   9.087   1.670  10.454  1.0386  0.5283  0.4620
  797MOL0     C 7479   9.205   1.604  10.449 -0.3871  0.9087  0.0728
  797MOL0     C 7480   9.251   1.478  10.508 -0.5338  0.5039  0.0125
  797MOL0     C 7481   9.251   1.340  10.428 -0.6046  0.0865 -0.6023
  797MOL0     C 7482   9.372   1.349  10.329 -1.0509  0.1448  0.8369
  797MOL0     C 7483   9.389   1.213  10.272 -0.0631 -0.0629 -1.5069
  797MOL0     O 7484   9.473   1.212  10.158  0.1937  0.1126  0.1274
  797MOL0     C 7485   9.520   1.092  10.110  0.2260  0.1373 -0.0746
  797MOL0     C 7486   9.502   0.957  10.145  0.3689  0.4624 -0.0688
  797MOL0     C 7487   9.534   0.850  10.063  0.8579  0.0189  0.8797
  797MOL0     C 7488   9.487   0.716  10.099 -0.9157  0.3535  0.3635
  797MOL0     C 7489   9.604   0.881   9.940  0.2008  0.9715 -0.6574
  797MOL0     C 7490   9.643   0.776   9.846 -0.7710 -0.0196 -0.7232
  797MOL0     O 7491   9.613   0.801   9.711  0.0780  0.7064 -0.5283
  797MOL0     C 7492   9.652   0.706   9.619  0.1151 -0.0290 -0.6989
  797MOL0     C 7493   9.567   0.596   9.587  0.4044 -0.6337 -0.5782
  797MOL0     C 7494   9.604   0.507   9.492  0.2496  0.0847  0.4843
  797MOL0     C 7495   9.729   0.511   9.433  0.0310  1.1842  0.0726
  797MOL0     O 7496   9.796   0.411   9.364  0.0533  0.2143  0.0680
  797MOL0     C 7497   9.723   0.305   9.317 -0.0326  0.3635  0.1316
  797MOL0     C 7498   9.809   0.188   9.272 -0.1348 -0.2754  0.2152
  797MOL0     C 7499   9.898   0.222   9.156 -0.5134 -0.2706  0.3807
  797MOL0     C 7500  10.002   0.118   9.137 -0.5094 -0.1848 -0.6688
  797MOL0     C 7501  10.113   0.152   9.028  0.5212 -0.6226  0.1880
  797MOL0     C 7502  10.223   0.239   9.081 -0.9431  0.4247  0.2093
  797MOL0     C 7503  10.352   0.264   8.990  0.6090  0.6409  0.8937
  797MOL0     C 7504  10.312   0.356   8.868  0.2154 -0.5716  0.9378
  797MOL0    Cl 7505  10.432   0.303   8.755 -0.0707  0.4267  0.2343
  797MOL0     C 7506   9.814   0.615   9.465  0.4142 -0.5256 -0.3118
  797MOL0     C 7507   9.779   0.714   9.561 -0.9065  0.1462 -1.0661
  797MOL0     O 7508   9.709   0.676   9.886 -0.8673 -0.2465 -0.1318
  797MOL0     C 7509   9.635   1.013   9.906  0.4172  0.4044 -0.7304
  797MOL0     C 7510   9.582   1.113   9.983  0.3366 -0.3969  0.2139
  797MOL0     N 7511   9.293   1.687  10.384  1.2350 -0.4406  0.0180
  797MOL0     N 7512   9.227   1.789  10.342  0.2814 -1.2090  0.4864
  797MOL0     C 7513   8.838   1.470  10.670  0.1480 -0.0260  0.1344
  797MOL0     C 7514   8.925   1.360  10.641  0.5420 -0.8420  1.0924
  797MOL0     C 7515   9.090   0.966  10.444 -0.6454  0.2641  1.2303
  797MOL0     C 7516   9.187   0.977  10.546  0.2516  0.4434 -0.4899
  797MOL0     C 7517   9.290   0.885  10.549  0.6873 -0.5679 -0.4312
  797MOL0     C 7518   9.300   0.780  10.450  0.2001 -0.1492 -1.8211
  797MOL0     O 7519   9.401   0.689  10.451 -0.3084  0.2339  0.4378
  797MOL0     C 7520   9.487   0.672  10.555 -0.1067 -0.4177 -0.1182
  797MOL0     C 7521   9.588   0.566  10.516  0.4264  0.6886 -0.1977
  797MOL0     C 7522   9.529   0.432  10.558  0.3589  0.1100 -0.2796
  797MOL0     C 7523   9.633   0.317  10.514  0.3938  1.5178 -0.5189
  797MOL0     C 7524   9.760   0.318  10.584 -0.8032 -0.0765  0.5844
  797MOL0     C 7525   9.869   0.315  10.650  0.4811 -0.4723  0.9709
  797MOL0     C 7526   9.207   0.779  10.345 -0.5813 -0.3499 -0.0299
  797MOL0     C 7527   9.099   0.863  10.344 -0.8207  0.4716  0.0459
  797MOL0     H 7528   8.714   1.161  10.488 -1.2029  1.2024 -0.2469
  797MOL0     H 7529   8.554   1.333  10.553  1.1414 -0.4379  1.6908
  797MOL0     H 7530   8.488   1.583  10.534  4.4792  2.1301 -0.7026
  797MOL0     H 7531   8.443   1.522  10.701  1.2662 -0.4281  1.1939
  797MOL0     H 7532   8.379   1.759  10.611  1.4928 -0.6038 -2.1781
  797MOL0     H 7533   8.442   1.746  10.783 -1.0698 -4.1994  0.1962
  797MOL0     H 7534   8.502   1.962  10.673 -2.6840 -1.0197 -2.5176
  797MOL0     H 7535   8.632   1.867  10.735  0.0015 -0.7459 -0.2640
  797MOL0     H 7536   8.681   1.766  10.520  1.3808 -0.8327 -3.1520
  797MOL0     H 7537   8.547   1.832  10.436  0.2430 -0.4142 -0.2363
  797MOL0     H 7538   8.634   2.074  10.475 -1.2568 -0.2528  3.4824
  797MOL0     H 7539   8.780   2.015  10.546  1.3744  2.9399 -1.9938
  797MOL0     H 7540   8.690   1.947  10.262  0.6648  3.3008 -3.4472
  797MOL0     H 7541   8.815   2.066  10.295 -1.0629 -0.7920  0.0190
  797MOL0     H 7542   8.836   1.772  10.348 -3.2618  0.6702  1.2705
  797MOL0     H 7543   8.912   1.870  10.207 -0.8052  1.2268  0.4383
  797MOL0     H 7544   8.972   1.948  10.485 -1.1168  0.9373  0.1228
  797MOL0     H 7545   9.051   1.982  10.329  0.4033 -1.1849 -1.8310
  797MOL0     H 7546   9.015   1.634  10.527  3.0303  1.3085  2.9259
  797MOL0     H 7547   9.356   1.481  10.538 -1.3110 -3.9390  4.4631
  797MOL0     H 7548   9.197   1.464  10.602 -3.2065  0.9031 -1.3534
  797MOL0     H 7549   9.152   1.324  10.382 -0.7202  0.7960 -0.6131
  797MOL0     H 7550   9.266   1.256  10.497  1.6170 -1.6079 -2.9500
  797MOL0     H 7551   9.466   1.381  10.376 -1.1852  1.0387  0.5112
  797MOL0     H 7552   9.340   1.413  10.246 -0.3443 -0.5007  0.0462
  797MOL0     H 7553   9.293   1.172  10.239  1.0961 -4.0010 -0.5688
  797MOL0     H 7554   9.425   1.144  10.349 -1.0758  0.0612 -0.9045
  797MOL0     H 7555   9.446   0.931  10.234  5.7520 -0.0554  3.6142
  797MOL0     H 7556   9.391   0.685  10.058  1.4856 -2.9286 -3.5259
  797MOL0     H 7557   9.562   0.647  10.059 -1.0272  1.8301 -2.7180
  797MOL0     H 7558   9.491   0.693  10.206 -1.8432 -1.4098  0.0554
  797MOL0     H 7559   9.469   0.588   9.633  0.8979  0.3384  0.6781
  797MOL0     H 7560   9.546   0.417   9.479  0.2067  0.3522 -1.3487
  797MOL0     H 7561   9.664   0.263   9.399  1.9826 -2.8561  0.1283
  797MOL0     H 7562   9.655   0.330   9.234  0.9575  0.8483 -0.5530
  797MOL0     H 7563   9.866   0.149   9.357  0.3415 -2.2129 -0.9256
  797MOL0     H 7564   9.749   0.099   9.250 -0.7005 -0.2741  1.6388
  797MOL0     H 7565   9.952   0.317   9.164  1.6266 -1.4232  0.4466
  797MOL0     H 7566   9.841   0.236   9.064  3.2688  3.5079 -1.7294
  797MOL0     H 7567  10.053   0.106   9.233  1.8427  4.6356 -1.0235
  797MOL0     H 7568   9.950   0.027   9.106 -1.8162 -0.1814  1.3520
  797MOL0     H 7569  10.066   0.201   8.942  1.8165  1.1938  0.4727
  797MOL0     H 7570  10.145   0.055   8.990  0.2828 -0.6385  0.0281
  797MOL0     H 7571  10.184   0.340   9.095  3.6130  2.3733  0.6083
  797MOL0     H 7572  10.257   0.199   9.177  0.1632 -0.9388 -0.7203
  797MOL0     H 7573  10.402   0.174   8.952 -0.5450 -0.6736  2.3449
  797MOL0     H 7574  10.427   0.320   9.046  0.7098  0.7801  0.6240
  797MOL0     H 7575  10.329   0.461   8.893 -0.4098 -0.3103  0.2957
  797MOL0     H 7576  10.219   0.330   8.816  1.5215  1.0170 -2.5355
  797MOL0     H 7577   9.908   0.624   9.412  0.3469  0.0077 -0.3488
  797MOL0     H 7578   9.823   0.812   9.573 -4.0735  1.4428  1.4734
  797MOL0     H 7579   9.688   1.032   9.813  0.8275 -0.9861 -0.8025
  797MOL0     H 7580   9.597   1.216   9.951 -1.1589 -0.0334  0.6088
  797MOL0     H 7581   8.869   1.536  10.750  2.3472 -1.7729  0.8313
  797MOL0     H 7582   9.027   1.368  10.676  0.7220 -0.6196  0.5229
  797MOL0     H 7583   9.183   1.045  10.630  2.4047 -2.9789  2.6570
  797MOL0     H 7584   9.361   0.882  10.632  2.2837 -2.3231 -1.7763
  797MOL0     H 7585   9.537   0.761  10.595 -1.0625 -1.3893  3.6223
  797MOL0     H 7586   9.431   0.626  10.637 -0.2346 -2.3665 -1.2432
  797MOL0     H 7587   9.684   0.588  10.562  0.0833 -1.3657  1.6962
  797MOL0     H 7588   9.599   0.559  10.407  1.3561  1.0827 -0.1354
  797MOL0     H 7589   9.430   0.433  10.513 -2.1321 -2.8225  4.3493
  797MOL0     H 7590   9.512   0.429  10.667  0.0874 -0.1217 -0.3261
  797MOL0     H 7591   9.655   0.343  10.410  1.8346  0.0260 -0.6241
  797MOL0     H 7592   9.581   0.220  10.511 -1.9810  2.6578  0.9801
  797MOL0     H 7593   9.965   0.309  10.697  2.4971  1.7458 -2.3646
  797MOL0     H 7594   9.214   0.710  10.262 -3.4786  0.5042 -1.1168
  797MOL0     H 7595   9.027   0.877  10.264 -0.0662 -2.3589 -1.2597
  798MOL0     O 7596   0.878   5.528   5.779  0.6204  0.5462 -0.5146
  798MOL0     C 7597   0.839   5.421   5.733  0.0989  0.0883 -0.0607
  798MOL0     O 7598   0.709   5.396   5.693 -0.1409  0.5731 -0.5246
  798MOL0     C 7599   0.623   5.505   5.705 -0.8839 -0.7973 -0.5003
  798MOL0     C 7600   0.600   5.566   5.832  0.0157 -0.4894 -0.4438
  798MOL0     C 7601   0.512   5.674   5.819  0.3135  0.4733 -0.4318
  798MOL0     C 7602   0.451   5.717   5.703 -0.1504  0.3069 -0.1999
  798MOL0     O 7603   0.366   5.822   5.707  0.0255 -0.4560 -0.4599
  798MOL0     C 7604   0.249   5.836   5.621  0.2104 -0.2028 -0.1825
  798MOL0     C 7605   0.111   5.833   5.692 -0.0664 -0.1879  0.4415
  798MOL0     C 7606   0.083   5.711   5.775 -0.2339  0.6399 -0.0275
  798MOL0     C 7607  -0.068   5.696   5.821  0.8727 -0.1205  0.5746
  798MOL0     C 7608  -0.077   5.573   5.923  1.1478 -0.3668 -0.3834
  798MOL0     C 7609  -0.224   5.550   5.958 -0.3062  0.0201  1.9062
  798MOL0     C 7610  -0.264   5.640   6.079  0.7210 -0.7386  0.0407
  798MOL0     C 7611  -0.419   5.658   6.092 -0.1910  0.0762 -0.6873
  798MOL0     N 7612  -0.465   5.751   5.982  0.2210  0.6455  0.0916
  798MOL0     C 7613  -0.588   5.789   5.945 -0.0568  0.4265  0.1503
  798MOL0     C 7614  -0.576   5.877   5.841 -0.4760 -0.1446  0.1489
  798MOL0     C 7615  -0.696   5.939   5.769 -0.6886  1.0889 -0.6429
  798MOL0     C 7616  -0.762   6.033   5.875 -0.3045 -0.2780  0.0509
  798MOL0     C 7617  -0.865   6.122   5.801  0.0339 -0.1410 -0.0185
  798MOL0     C 7618  -0.994   6.047   5.788 -0.2347 -0.2997  0.2801
  798MOL0     O 7619  -1.067   6.000   5.903 -0.3728 -0.0683 -0.3784
  798MOL0     C 7620  -1.206   5.999   5.887 -0.1657 -0.0213  0.4483
  798MOL0     C 7621  -1.283   6.023   5.770 -0.5508 -0.5385  0.8823
  798MOL0     C 7622  -1.421   6.056   5.776  0.1231  0.0748  0.5836
  798MOL0     C 7623  -1.486   6.100   5.641  0.1379  0.0284 -0.8226
  798MOL0     C 7624  -1.485   6.049   5.899  0.5735  0.3061 -0.6617
  798MOL0     C 7625  -1.628   6.089   5.920  0.2764  0.2567  0.0367
  798MOL0     O 7626  -1.674   6.106   6.049 -1.0229 -0.8128  0.1461
  798MOL0     C 7627  -1.806   6.125   6.085  0.1019 -0.5050 -0.7635
  798MOL0     C 7628  -1.912   6.171   6.005  0.0686  0.4849 -0.2849
  798MOL0     C 7629  -2.039   6.196   6.059  0.0787  0.2683 -0.6220
  798MOL0     C 7630  -2.064   6.167   6.200  0.2001 -0.8109  0.8188
  798MOL0     O 7631  -2.184   6.208   6.266 -0.9835  0.3859  0.4330
  798MOL0     C 7632  -2.300   6.231   6.181  0.3282  0.1454  0.1634
  798MOL0     C 7633  -2.433   6.241   6.268 -0.3125 -0.2423 -0.4037
  798MOL0     C 7634  -2.437   6.128   6.375  0.0434  0.0685  0.3904
  798MOL0     C 7635  -2.416   5.979   6.305 -0.7977  0.3965 -1.1599
  798MOL0     C 7636  -2.432   5.850   6.399 -0.7342 -0.6647 -0.2014
  798MOL0     C 7637  -2.341   5.848   6.534 -0.2683  0.5208  0.6359
  798MOL0     C 7638  -2.195   5.875   6.504  0.3309  0.0462 -0.1973
  798MOL0     C 7639  -2.105   5.836   6.627  0.2104  0.0117 -0.2204
  798MOL0    Cl 7640  -2.103   5.662   6.666 -0.5232  0.3056 -0.4117
  798MOL0     C 7641  -1.966   6.103   6.277  0.1821 -0.5249  0.0702
  798MOL0     C 7642  -1.840   6.097   6.219 -0.4127 -0.4723  1.2313
  798MOL0     O 7643  -1.700   6.093   5.822 -0.2251 -0.3693  0.0845
  798MOL0     C 7644  -1.415   6.004   6.009 -0.3730  0.1836 -0.4519
  798MOL0     C 7645  -1.278   5.976   5.997 -0.5879  0.1933  0.6289
  798MOL0     N 7646  -0.444   5.907   5.830  0.0773  0.2978 -0.4434
  798MOL0     N 7647  -0.380   5.828   5.913 -0.1909 -0.6658 -0.0739
  798MOL0     C 7648   0.477   5.654   5.579 -0.1393 -0.0383 -0.2237
  798MOL0     C 7649   0.563   5.546   5.584  0.4609 -0.0195 -0.0754
  798MOL0     C 7650   0.950   5.317   5.715 -0.8843  0.1901  0.5155
  798MOL0     C 7651   1.089   5.349   5.707  0.2258 -1.6373 -0.2913
  798MOL0     C 7652   1.184   5.250   5.699  0.3275 -0.2678 -0.8395
  798MOL0     C 7653   1.146   5.116   5.687  0.2471 -0.3085  0.1381
  798MOL0     O 7654   1.251   5.023   5.684 -0.7964  0.0811 -0.3868
  798MOL0     C 7655   1.218   4.882   5.656 -0.2370  0.6076  0.4474
  798MOL0     C 7656   1.182   4.877   5.509  1.0366 -0.6796  0.6804
  798MOL0     C 7657   1.253   4.986   5.409 -0.5726  0.5501  0.4341
  798MOL0     C 7658   1.392   4.949   5.382  0.5519 -0.5516 -0.1329
  798MOL0     C 7659   1.396   4.862   5.260 -0.4425 -0.6332 -0.1725
  798MOL0     C 7660   1.395   4.765   5.184 -0.4100  0.0522 -0.7621
  798MOL0     C 7661   1.011   5.082   5.689 -0.3438 -0.6582  0.7212
  798MOL0     C 7662   0.911   5.185   5.685  0.3946 -0.1660 -0.7514
  798MOL0     H 7663   0.665   5.540   5.915 -2.5290 -0.1156  1.8186
  798MOL0     H 7664   0.511   5.736   5.908  2.1879 -2.6094  1.9460
  798MOL0     H 7665   0.255   5.935   5.576 -0.8942 -0.3766 -0.7473
  798MOL0     H 7666   0.248   5.761   5.541  2.5018 -3.6151  2.6388
  798MOL0     H 7667   0.106   5.921   5.756 -1.7986 -0.1539  0.3302
  798MOL0     H 7668   0.028   5.850   5.622 -0.6473  0.9616  1.3740
  798MOL0     H 7669   0.109   5.623   5.716 -2.8019  0.4942 -1.0868
  798MOL0     H 7670   0.159   5.707   5.854  1.2221  2.6000 -1.2413
  798MOL0     H 7671  -0.114   5.780   5.875  0.6669 -0.3179  0.7094
  798MOL0     H 7672  -0.135   5.682   5.736 -0.1077 -1.8866  1.5883
  798MOL0     H 7673  -0.042   5.481   5.875  3.1931  0.5839 -0.8301
  798MOL0     H 7674  -0.013   5.584   6.010  2.5462 -4.4624 -0.6994
  798MOL0     H 7675  -0.286   5.564   5.869 -0.6779 -3.1478  1.5323
  798MOL0     H 7676  -0.225   5.442   5.978 -0.4259 -0.8497 -2.0368
  798MOL0     H 7677  -0.222   5.602   6.172 -2.1556 -0.5700  1.5322
  798MOL0     H 7678  -0.220   5.740   6.082 -1.2017  0.1709 -0.4735
  798MOL0     H 7679  -0.452   5.706   6.184 -1.1604 -0.6504 -0.6383
  798MOL0     H 7680  -0.476   5.565   6.081 -1.0511  0.5305 -0.1650
  798MOL0     H 7681  -0.682   5.747   5.979  1.6344 -2.9774  1.1165
  798MOL0     H 7682  -0.666   5.997   5.682 -2.0111  0.6226 -1.4509
  798MOL0     H 7683  -0.774   5.865   5.746  0.6620 -0.7244  0.3339
  798MOL0     H 7684  -0.689   6.105   5.912 -0.4423 -0.0822 -0.0607
  798MOL0     H 7685  -0.797   5.982   5.965  0.3034  4.9260  3.6552
  798MOL0     H 7686  -0.819   6.166   5.712  0.1474 -2.5120 -1.2060
  798MOL0     H 7687  -0.890   6.193   5.880  1.0712 -0.5874  0.7393
  798MOL0     H 7688  -0.985   5.956   5.728  2.7588  2.2291 -3.5539
  798MOL0     H 7689  -1.049   6.126   5.737 -0.5663 -0.2020  0.7816
  798MOL0     H 7690  -1.234   6.036   5.673 -1.6392  2.0320  0.6103
  798MOL0     H 7691  -1.545   6.190   5.662 -0.8477 -1.1872  2.1573
  798MOL0     H 7692  -1.401   6.130   5.579  0.4488  1.2123  0.1240
  798MOL0     H 7693  -1.549   6.021   5.600 -1.0167 -0.9983  2.5524
  798MOL0     H 7694  -1.896   6.191   5.899  1.3523 -0.5217 -0.3033
  798MOL0     H 7695  -2.108   6.238   5.987 -0.7537 -1.4067 -0.8468
  798MOL0     H 7696  -2.290   6.329   6.132  1.0255  0.7511  1.4520
  798MOL0     H 7697  -2.304   6.148   6.111  0.2619  0.2617  0.0280
  798MOL0     H 7698  -2.455   6.337   6.315 -0.5257  1.2412 -3.3699
  798MOL0     H 7699  -2.516   6.238   6.198 -0.7501  0.0622  0.0903
  798MOL0     H 7700  -2.529   6.123   6.435  1.1601 -1.8665  2.0674
  798MOL0     H 7701  -2.354   6.145   6.444 -0.7050 -0.3427  1.4136
  798MOL0     H 7702  -2.483   5.967   6.219  2.0101 -1.2038 -3.2891
  798MOL0     H 7703  -2.320   5.968   6.255 -1.2239 -1.6372 -1.6156
  798MOL0     H 7704  -2.413   5.759   6.341 -3.2646 -0.4859 -1.4447
  798MOL0     H 7705  -2.532   5.855   6.445  0.0137  0.8365  1.3857
  798MOL0     H 7706  -2.366   5.919   6.613  0.1486  0.8866  0.4448
  798MOL0     H 7707  -2.359   5.754   6.587 -0.0562  0.9750  1.5425
  798MOL0     H 7708  -2.187   5.983   6.490  1.7926  0.4120  2.7285
  798MOL0     H 7709  -2.178   5.824   6.409 -0.8002 -2.0602  0.6518
  798MOL0     H 7710  -2.139   5.890   6.716  0.3608 -1.0276  0.4912
  798MOL0     H 7711  -2.002   5.867   6.608  0.2529  2.8546  3.5183
  798MOL0     H 7712  -1.964   6.072   6.381 -0.0494  0.4762  0.3837
  798MOL0     H 7713  -1.765   6.039   6.271  1.1808  0.4744  0.0798
  798MOL0     H 7714  -1.454   5.994   6.110  0.1985 -2.1618 -0.4024
  798MOL0     H 7715  -1.223   5.953   6.088 -1.2601  0.3496  1.0849
  798MOL0     H 7716   0.432   5.687   5.486  2.3417  0.4488 -1.3474
  798MOL0     H 7717   0.591   5.485   5.499  1.3356  0.4773 -0.1615
  798MOL0     H 7718   1.113   5.454   5.716 -2.7477 -1.0365  1.9783
  798MOL0     H 7719   1.288   5.274   5.679  0.0445  1.1603 -0.7481
  798MOL0     H 7720   1.315   4.833   5.666 -0.1257 -0.0486 -2.7719
  798MOL0     H 7721   1.149   4.830   5.724  0.1850  1.9147  1.9479
  798MOL0     H 7722   1.074   4.892   5.510  0.8612 -1.8493  1.7610
  798MOL0     H 7723   1.209   4.784   5.456 -0.2265 -0.8320  0.2838
  798MOL0     H 7724   1.247   5.090   5.442 -0.2561  0.1906  1.6612
  798MOL0     H 7725   1.187   4.980   5.322 -1.0475 -2.6734  0.8879
  798MOL0     H 7726   1.433   4.900   5.471  2.1336 -0.4540 -0.7719
  798MOL0     H 7727   1.452   5.037   5.358 -1.1436  0.5988 -0.2648
  798MOL0     H 7728   1.409   4.685   5.114 -1.5660 -2.3256  1.5322
  798MOL0     H 7729   0.960   4.988   5.669 -1.7832  0.7316 -3.2507
  798MOL0     H 7730   0.808   5.154   5.666  0.5979 -0.5133 -1.3370
  799MOL0     O 7731   0.942   6.025   2.352  0.2025 -0.1909 -0.0365
  799MOL0     C 7732   0.981   6.103   2.437  1.0585 -1.5213 -0.2192
  799MOL0     O 7733   0.967   6.241   2.425  0.2388 -0.6888 -0.3201
  799MOL0     C 7734   0.918   6.297   2.304  0.6627  0.3769 -0.9459
  799MOL0     C 7735   0.850   6.416   2.317  0.9159  0.2151 -0.1560
  799MOL0     C 7736   0.796   6.475   2.201  0.4954  0.2964 -0.2234
  799MOL0     C 7737   0.812   6.419   2.067  1.5978 -0.0853  0.0536
  799MOL0     O 7738   0.756   6.479   1.952  0.4593 -0.3573 -0.0437
  799MOL0     C 7739   0.680   6.394   1.855 -0.5315  0.2068  0.2879
  799MOL0     C 7740   0.563   6.328   1.934  0.0847  0.0673  0.4431
  799MOL0     C 7741   0.472   6.246   1.835 -0.2556 -0.0966  0.2085
  799MOL0     C 7742   0.356   6.193   1.910 -0.1784 -0.6856  0.3858
  799MOL0     C 7743   0.276   6.098   1.829 -0.0472  0.3399 -0.7790
  799MOL0     C 7744   0.154   6.048   1.906  0.0779 -0.5579  0.3644
  799MOL0     C 7745   0.074   5.964   1.820  0.2024 -0.0861  0.3430
  799MOL0     C 7746  -0.014   6.034   1.722  0.8898  0.0116 -0.2523
  799MOL0     N 7747  -0.134   6.106   1.782  0.0393 -0.0661  0.6991
  799MOL0     C 7748  -0.216   6.053   1.868 -0.5629 -1.3147 -0.5946
  799MOL0     C 7749  -0.300   6.155   1.909 -0.6421 -0.5103  0.1560
  799MOL0     C 7750  -0.397   6.147   2.018  0.9746  0.1475 -0.7104
  799MOL0     C 7751  -0.548   6.143   1.969 -1.0617 -0.1828  0.0571
  799MOL0     C 7752  -0.595   6.282   1.938  0.1115  0.4249 -0.6854
  799MOL0     C 7753  -0.611   6.392   2.054 -0.6129  0.1517 -0.1963
  799MOL0     O 7754  -0.677   6.512   2.024  0.0592 -1.0709  0.9402
  799MOL0     C 7755  -0.626   6.574   1.910 -0.2205 -0.4473 -0.3447
  799MOL0     C 7756  -0.497   6.583   1.873 -0.7300  0.1596  0.2053
  799MOL0     C 7757  -0.458   6.637   1.747  0.5541 -0.0605  0.2684
  799MOL0     C 7758  -0.313   6.612   1.707 -0.2918 -0.3737  0.6338
  799MOL0     C 7759  -0.558   6.711   1.675  0.3016  0.6449  0.6237
  799MOL0     C 7760  -0.533   6.761   1.536  0.5822  0.2547  0.5511
  799MOL0     O 7761  -0.414   6.822   1.511 -0.4451 -0.4804  0.0264
  799MOL0     C 7762  -0.387   6.868   1.380 -0.4436 -0.1955 -0.4748
  799MOL0     C 7763  -0.416   6.998   1.343 -0.2743 -1.3891  0.7385
  799MOL0     C 7764  -0.387   7.042   1.213 -0.3650 -0.4985  1.0874
  799MOL0     C 7765  -0.324   6.949   1.119  1.1591 -0.5781 -0.6832
  799MOL0     O 7766  -0.311   6.990   0.988 -0.6354 -0.0577  0.1524
  799MOL0     C 7767  -0.185   6.950   0.923  0.9900 -0.6109 -0.3029
  799MOL0     C 7768  -0.133   7.072   0.841 -0.6042 -0.2331  0.3223
  799MOL0     C 7769  -0.034   7.164   0.916 -0.3887 -0.0333  0.4493
  799MOL0     C 7770  -0.077   7.201   1.062 -0.9130  0.1965 -0.1642
  799MOL0     C 7771  -0.013   7.326   1.112  0.0468 -0.2129  0.3473
  799MOL0     C 7772  -0.052   7.349   1.263 -0.3287 -0.3660 -0.1547
  799MOL0     C 7773  -0.191   7.421   1.284  0.2307 -0.0768 -0.3615
  799MOL0     C 7774  -0.205   7.473   1.429  0.4741 -0.7655 -0.6102
  799MOL0    Cl 7775  -0.202   7.358   1.565 -0.0372  0.2080  0.1034
  799MOL0     C 7776  -0.305   6.826   1.156 -0.3051  0.1308 -0.5541
  799MOL0     C 7777  -0.331   6.790   1.285 -0.2167 -1.5335 -0.2925
  799MOL0     O 7778  -0.629   6.753   1.460 -0.7147  0.1373  0.1721
  799MOL0     C 7779  -0.681   6.724   1.725  0.7000 -0.6634  0.0437
  799MOL0     C 7780  -0.718   6.654   1.837  0.8625  0.2498  0.5458
  799MOL0     N 7781  -0.264   6.269   1.834 -0.5767  0.0374 -0.4495
  799MOL0     N 7782  -0.164   6.237   1.760  0.0774  0.3980  0.0476
  799MOL0     C 7783   0.879   6.307   2.061 -0.6453  0.2848 -0.2914
  799MOL0     C 7784   0.938   6.247   2.175 -0.6449 -0.5072  0.0353
  799MOL0     C 7785   1.002   6.046   2.572 -0.3084 -0.0992  0.5019
  799MOL0     C 7786   1.009   6.127   2.686  0.6396  0.1763 -0.5402
  799MOL0     C 7787   1.039   6.076   2.815  0.9073  0.6184  0.4488
  799MOL0     C 7788   1.064   5.939   2.831  0.0449 -0.2643  0.4273
  799MOL0     O 7789   1.068   5.895   2.959 -0.1404  1.0775 -0.2694
  799MOL0     C 7790   1.189   5.918   3.033  0.8293 -0.7740  0.2822
  799MOL0     C 7791   1.292   5.816   2.990  0.2016  0.5735  1.0164
  799MOL0     C 7792   1.229   5.674   2.978 -0.1026 -0.9982 -0.2146
  799MOL0     C 7793   1.167   5.612   3.104 -0.4468  0.2724 -0.5330
  799MOL0     C 7794   1.277   5.604   3.191  0.2908 -0.6011 -0.8114
  799MOL0     C 7795   1.380   5.614   3.268  0.4533 -0.3445  1.1139
  799MOL0     C 7796   1.060   5.858   2.717  0.5732 -0.2393 -0.4565
  799MOL0     C 7797   1.042   5.917   2.593 -0.5399 -0.3986 -0.2785
  799MOL0     H 7798   0.834   6.463   2.413 -3.0430  0.1762 -0.6456
  799MOL0     H 7799   0.749   6.573   2.205 -0.9009 -0.3946  1.3384
  799MOL0     H 7800   0.643   6.453   1.770 -1.4333 -0.8896 -0.1140
  799MOL0     H 7801   0.751   6.321   1.815 -0.8022 -0.3287  0.7731
  799MOL0     H 7802   0.608   6.264   2.011 -0.0192 -0.8380 -0.2378
  799MOL0     H 7803   0.498   6.401   1.983  0.5988 -0.8291  2.6087
  799MOL0     H 7804   0.438   6.317   1.758  2.1537 -0.4519 -1.2885
  799MOL0     H 7805   0.534   6.167   1.792  0.2178 -0.4404  1.4843
  799MOL0     H 7806   0.400   6.137   1.993  3.1328  1.4161  0.2307
  799MOL0     H 7807   0.293   6.279   1.933 -0.5960 -1.0605  0.6696
  799MOL0     H 7808   0.252   6.153   1.737  0.3486  0.1464 -1.0011
  799MOL0     H 7809   0.340   6.011   1.812 -1.3647 -1.0561  1.0264
  799MOL0     H 7810   0.185   5.984   1.988  2.0533  0.7148  0.6969
  799MOL0     H 7811   0.098   6.122   1.964 -1.9321 -2.6740  1.2411
  799MOL0     H 7812   0.137   5.903   1.754 -1.8781 -0.9256 -0.9799
  799MOL0     H 7813   0.005   5.906   1.881  0.3205 -1.2751 -0.6130
  799MOL0     H 7814  -0.048   5.952   1.658 -3.6648  1.3953  0.0433
  799MOL0     H 7815   0.049   6.098   1.661  1.7064 -0.7790 -0.2513
  799MOL0     H 7816  -0.224   5.950   1.902  1.1683 -1.3250 -0.1055
  799MOL0     H 7817  -0.375   6.054   2.070  3.2887 -1.6748 -4.5611
  799MOL0     H 7818  -0.390   6.226   2.093  1.0167  0.6369 -1.2163
  799MOL0     H 7819  -0.617   6.093   2.038  1.9453 -0.0470  3.4180
  799MOL0     H 7820  -0.545   6.089   1.874  0.8629 -0.6557  0.3534
  799MOL0     H 7821  -0.691   6.270   1.889 -0.8293 -3.0957  1.7009
  799MOL0     H 7822  -0.533   6.315   1.853 -0.1278  0.4379 -0.8575
  799MOL0     H 7823  -0.529   6.401   2.125 -1.0379 -0.9149  0.4566
  799MOL0     H 7824  -0.681   6.343   2.123  0.4062  2.9119  3.0489
  799MOL0     H 7825  -0.432   6.530   1.942 -2.5508 -0.0999  1.8289
  799MOL0     H 7826  -0.294   6.588   1.602  0.4415  1.4745  0.3093
  799MOL0     H 7827  -0.257   6.701   1.733  1.4286 -2.0029  2.9171
  799MOL0     H 7828  -0.275   6.529   1.768 -0.2969 -2.5006 -2.0753
  799MOL0     H 7829  -0.457   7.070   1.412 -2.9803 -2.7632  0.6998
  799MOL0     H 7830  -0.408   7.144   1.181 -0.0658 -1.1627 -1.4377
  799MOL0     H 7831  -0.111   6.912   0.993 -0.6260 -1.6103  0.9599
  799MOL0     H 7832  -0.209   6.871   0.852  0.9929 -1.4082  0.5642
  799MOL0     H 7833  -0.081   7.018   0.761 -0.6266 -1.3198  1.0187
  799MOL0     H 7834  -0.204   7.140   0.793  0.1662  1.9150  2.0818
  799MOL0     H 7835  -0.030   7.253   0.854 -3.6880  0.8802  1.3734
  799MOL0     H 7836   0.066   7.120   0.909 -0.3931  0.2054 -1.7879
  799MOL0     H 7837  -0.178   7.239   1.046 -0.4136  0.0899 -5.5189
  799MOL0     H 7838  -0.071   7.119   1.134 -1.9690 -0.9066 -1.2633
  799MOL0     H 7839  -0.033   7.417   1.054 -1.8960 -0.9873 -0.2648
  799MOL0     H 7840   0.094   7.303   1.112 -0.0862 -0.9074  1.4547
  799MOL0     H 7841  -0.043   7.263   1.330  1.4999  0.6782  1.0212
  799MOL0     H 7842   0.012   7.431   1.296 -0.7390  0.3412 -1.0792
  799MOL0     H 7843  -0.270   7.346   1.279 -2.3644  2.1064  2.9420
  799MOL0     H 7844  -0.200   7.509   1.219  0.1831  2.2259  2.5292
  799MOL0     H 7845  -0.296   7.534   1.432  1.5707  1.0262 -1.4827
  799MOL0     H 7846  -0.127   7.549   1.446  1.4091 -1.5829 -1.1121
  799MOL0     H 7847  -0.264   6.750   1.090  1.0927 -0.1655  0.6011
  799MOL0     H 7848  -0.329   6.685   1.315  1.4538 -0.7349  2.7580
  799MOL0     H 7849  -0.760   6.785   1.682  0.4205 -0.5336  0.7304
  799MOL0     H 7850  -0.823   6.661   1.862  0.9680  1.9865  0.5891
  799MOL0     H 7851   0.894   6.248   1.971  0.6678 -4.2994  2.5460
  799MOL0     H 7852   0.992   6.154   2.158  2.6650  1.0080  1.3132
  799MOL0     H 7853   0.978   6.230   2.672 -1.6133 -0.6792 -2.6174
  799MOL0     H 7854   1.012   6.136   2.901 -3.2421 -1.8740  1.1723
  799MOL0     H 7855   1.231   6.018   3.017 -1.9883  0.1180 -2.4798
  799MOL0     H 7856   1.176   5.915   3.141 -2.2194 -2.8249 -0.0346
  799MOL0     H 7857   1.382   5.810   3.051  2.2882 -0.8996 -1.9633
  799MOL0     H 7858   1.320   5.836   2.886  0.4476 -0.9095  0.7826
  799MOL0     H 7859   1.311   5.611   2.941 -0.1127 -0.5897 -0.9729
  799MOL0     H 7860   1.147   5.679   2.906  0.1567 -0.2116 -0.4693
  799MOL0     H 7861   1.125   5.514   3.081  0.5393 -0.1119 -0.7493
  799MOL0     H 7862   1.088   5.676   3.144  0.8187  0.8785  1.1346
  799MOL0     H 7863   1.459   5.635   3.337  1.1638  0.7759  0.0158
  799MOL0     H 7864   1.062   5.752   2.738  2.1464  0.2750  2.5703
  799MOL0     H 7865   1.049   5.854   2.504 -1.3842  1.4945 -1.7469
  800MOL0     O 7866   1.737   8.639   9.370 -0.2483 -0.0108 -0.3382
  800MOL0     C 7867   1.622   8.620   9.404 -0.2220  1.4603  0.0801
  800MOL0     O 7868   1.515   8.700   9.389 -0.9470 -0.5799 -0.4072
  800MOL0     C 7869   1.537   8.817   9.328  0.7288 -0.1747  0.1253
  800MOL0     C 7870   1.549   8.812   9.194 -0.0199  0.1522 -0.0537
  800MOL0     C 7871   1.585   8.925   9.120 -0.4543  0.8475  0.7485
  800MOL0     C 7872   1.610   9.047   9.189  0.6677  0.2394 -0.0553
  800MOL0     O 7873   1.655   9.143   9.109 -0.5028 -0.6660  0.8163
  800MOL0     C 7874   1.683   9.274   9.170 -0.2415 -0.2481 -0.4925
  800MOL0     C 7875   1.697   9.388   9.071 -0.3397  0.4022 -0.1856
  800MOL0     C 7876   1.761   9.511   9.130  0.4507 -0.5609  1.1788
  800MOL0     C 7877   1.753   9.621   9.022 -1.0794  0.6669 -0.0129
  800MOL0     C 7878   1.782   9.756   9.085  0.1625  0.4855  1.0930
  800MOL0     C 7879   1.658   9.810   9.159 -0.7326  0.1742  0.2309
  800MOL0     C 7880   1.678   9.955   9.193 -0.9199  0.3636 -0.5047
  800MOL0     C 7881   1.556  10.018   9.258  0.0957 -0.0019  0.2933
  800MOL0     N 7882   1.562  10.019   9.409 -0.3206 -0.1987  0.5338
  800MOL0     C 7883   1.528   9.909   9.484 -1.0453 -0.1503 -0.2368
  800MOL0     C 7884   1.569   9.946   9.606 -0.7007  0.2599 -0.1073
  800MOL0     C 7885   1.561   9.850   9.731  0.0761 -0.2017 -0.0991
  800MOL0     C 7886   1.473   9.910   9.847 -0.6042 -0.7048 -0.2157
  800MOL0     C 7887   1.485   9.829   9.968 -0.5021 -0.0202  0.3997
  800MOL0     C 7888   1.364   9.846  10.063  0.1107  0.7198 -0.6936
  800MOL0     O 7889   1.385   9.811  10.201  0.4963 -0.0897  0.7687
  800MOL0     C 7890   1.468   9.892  10.287  1.5445  0.3118  1.3311
  800MOL0     C 7891   1.546  10.007  10.259 -1.1081  0.3322 -0.1714
  800MOL0     C 7892   1.606  10.093  10.357  0.1369  1.1086  0.5432
  800MOL0     C 7893   1.687  10.216  10.315  0.5985  0.1173  0.1480
  800MOL0     C 7894   1.581  10.053  10.495  0.7576 -0.4644  0.6145
  800MOL0     C 7895   1.623  10.137  10.613  1.0471  1.1625  0.7332
  800MOL0     O 7896   1.535  10.125  10.729 -0.6772 -0.1204  0.2313
  800MOL0     C 7897   1.558  10.201  10.844 -0.1835 -0.1171  0.2341
  800MOL0     C 7898   1.478  10.160  10.957 -0.1454  0.1621 -0.1558
  800MOL0     C 7899   1.491  10.220  11.084  0.2510 -0.2505 -0.0300
  800MOL0     C 7900   1.586  10.321  11.102 -0.3670  0.3703 -1.3737
  800MOL0     O 7901   1.613  10.384  11.224  0.0764  0.2844  0.0744
  800MOL0     C 7902   1.492  10.409  11.304  0.8673 -0.6691  0.4682
  800MOL0     C 7903   1.512  10.510  11.413  0.3479 -1.1108 -0.3162
  800MOL0     C 7904   1.377  10.550  11.476 -0.1403 -0.1415  0.7024
  800MOL0     C 7905   1.396  10.662  11.572  0.3797 -0.1608  0.7348
  800MOL0     C 7906   1.264  10.727  11.610 -0.3650 -0.0413  0.4242
  800MOL0     C 7907   1.192  10.792  11.489 -0.2585  0.3246 -0.1506
  800MOL0     C 7908   1.076  10.878  11.533 -0.9486 -0.9336 -0.2364
  800MOL0     C 7909   0.976  10.925  11.417 -0.0582 -0.8889  0.4500
  800MOL0    Cl 7910   1.075  10.992  11.275  0.1206  0.3872  0.2129
  800MOL0     C 7911   1.668  10.357  11.000 -0.5618 -0.0245  0.2076
  800MOL0     C 7912   1.659  10.294  10.874 -0.3856  0.4239  0.6203
  800MOL0     O 7913   1.729  10.198  10.602 -0.3486  0.2419  0.2247
  800MOL0     C 7914   1.506   9.935  10.522  0.5912 -0.0852  0.2311
  800MOL0     C 7915   1.453   9.864  10.421 -0.6574 -0.1065  0.8283
  800MOL0     N 7916   1.628  10.070   9.602  0.1135 -0.2015 -0.1674
  800MOL0     N 7917   1.620  10.119   9.480  0.1261  0.4357  0.1721
  800MOL0     C 7918   1.577   9.046   9.323 -0.7754 -0.0646 -0.6731
  800MOL0     C 7919   1.550   8.935   9.392  0.1438 -0.0932 -0.0589
  800MOL0     C 7920   1.609   8.498   9.486 -1.0137  0.1555  0.6869
  800MOL0     C 7921   1.716   8.409   9.521  0.1182  0.0832  0.4242
  800MOL0     C 7922   1.695   8.282   9.582  0.4537 -0.1472  0.2237
  800MOL0     C 7923   1.563   8.248   9.621  0.2463 -0.0233 -0.0734
  800MOL0     O 7924   1.545   8.114   9.664  0.4338 -0.8326 -0.5156
  800MOL0     C 7925   1.418   8.049   9.637  0.1305 -0.5010  0.6259
  800MOL0     C 7926   1.327   8.054   9.759 -0.4705 -0.7994  0.2014
  800MOL0     C 7927   1.398   8.021   9.887 -0.2189 -0.4511 -0.5265
  800MOL0     C 7928   1.308   8.042  10.008  0.2177  0.0128 -0.5340
  800MOL0     C 7929   1.255   8.182  10.014 -0.5386 -0.4819  0.2750
  800MOL0     C 7930   1.216   8.290  10.042  0.1804  0.0468  0.2839
  800MOL0     C 7931   1.455   8.344   9.595  0.7839  0.2995 -0.1407
  800MOL0     C 7932   1.478   8.464   9.527 -0.4996 -0.9062  0.3878
  800MOL0     H 7933   1.534   8.716   9.146  1.7737  0.2778 -0.9341
  800MOL0     H 7934   1.621   8.917   9.018  1.6642  1.8466  1.3535
  800MOL0     H 7935   1.600   9.305   9.235  1.8542  5.0253  0.1780
  800MOL0     H 7936   1.770   9.272   9.236 -0.8339  0.9109  0.3618
  800MOL0     H 7937   1.765   9.351   8.993 -3.1339 -3.3722 -1.1387
  800MOL0     H 7938   1.595   9.402   9.034 -0.1192  0.4043 -0.8134
  800MOL0     H 7939   1.708   9.537   9.222 -3.0851 -2.5131 -0.0673
  800MOL0     H 7940   1.864   9.499   9.163  0.4866  1.8127  2.0803
  800MOL0     H 7941   1.823   9.598   8.941 -2.7392  1.5414 -1.8040
  800MOL0     H 7942   1.653   9.617   8.978 -0.6948 -1.6800 -0.8351
  800MOL0     H 7943   1.871   9.748   9.147  0.9400 -1.6024 -0.1844
  800MOL0     H 7944   1.807   9.824   9.003  0.4109 -2.3734 -1.4012
  800MOL0     H 7945   1.578   9.802   9.084  2.2357 -0.1186 -3.1956
  800MOL0     H 7946   1.647   9.746   9.247 -0.8498 -0.9822 -0.5889
  800MOL0     H 7947   1.760   9.964   9.265  0.6235 -1.5822 -1.9387
  800MOL0     H 7948   1.709  10.002   9.099 -0.7830 -0.4566 -0.8758
  800MOL0     H 7949   1.473   9.963   9.214  1.8771 -1.1926 -1.7485
  800MOL0     H 7950   1.550  10.127   9.259  0.0279  0.2640  6.0161
  800MOL0     H 7951   1.484   9.817   9.449  0.1731 -1.0047  0.4165
  800MOL0     H 7952   1.505   9.759   9.704 -0.5258  0.3236 -0.6547
  800MOL0     H 7953   1.665   9.830   9.758  0.3680 -0.7006 -1.5269
  800MOL0     H 7954   1.375   9.918   9.799 -2.0867  3.2294  2.9636
  800MOL0     H 7955   1.497  10.014   9.871 -0.1324 -0.6327 -0.9561
  800MOL0     H 7956   1.583   9.856  10.008 -1.4431 -0.3519  3.1846
  800MOL0     H 7957   1.488   9.726   9.931 -0.5177 -0.0278  0.4204
  800MOL0     H 7958   1.277   9.790  10.026 -0.0236  2.7739 -3.7856
  800MOL0     H 7959   1.333   9.951  10.069 -0.1951  0.5665  2.0677
  800MOL0     H 7960   1.550  10.035  10.154 -2.5520 -1.8006 -0.8651
  800MOL0     H 7961   1.793  10.211  10.341  0.7801  0.6181 -0.4479
  800MOL0     H 7962   1.677  10.231  10.207 -6.1061 -2.4444 -0.0471
  800MOL0     H 7963   1.649  10.307  10.363 -1.4709  1.6433 -3.8450
  800MOL0     H 7964   1.401  10.088  10.928  0.8860 -0.1333 -2.4312
  800MOL0     H 7965   1.422  10.190  11.162  0.9462  2.0091  1.5871
  800MOL0     H 7966   1.417  10.433  11.228  0.2376 -1.2145  0.9033
  800MOL0     H 7967   1.462  10.313  11.348  1.6768 -1.4778 -0.6837
  800MOL0     H 7968   1.582  10.470  11.486 -0.4416 -0.4153  0.8649
  800MOL0     H 7969   1.561  10.597  11.369  0.0557 -1.2917 -1.0092
  800MOL0     H 7970   1.346  10.461  11.530  0.1869 -0.0408  1.0624
  800MOL0     H 7971   1.318  10.584  11.390  2.2020 -1.3194 -1.5312
  800MOL0     H 7972   1.438  10.618  11.663  1.8930 -1.6337 -0.5942
  800MOL0     H 7973   1.456  10.741  11.526 -2.8683  1.6934 -0.7186
  800MOL0     H 7974   1.266  10.798  11.693 -1.5433  0.0907  0.3506
  800MOL0     H 7975   1.196  10.651  11.648  0.3270  0.4578  2.8338
  800MOL0     H 7976   1.265  10.859  11.442 -2.9044  1.4610 -3.0207
  800MOL0     H 7977   1.152  10.720  11.416  2.1873 -2.4403  1.0268
  800MOL0     H 7978   1.133  10.965  11.567  0.6947 -1.0232 -2.4967
  800MOL0     H 7979   1.014  10.836  11.613 -1.3288  1.0346  0.5705
  800MOL0     H 7980   0.923  11.010  11.459  2.7068 -0.9832  4.8211
  800MOL0     H 7981   0.902  10.849  11.392 -3.2486  1.0848  3.0051
  800MOL0     H 7982   1.739  10.439  11.007 -1.0140  0.5897 -1.6815
  800MOL0     H 7983   1.721  10.336  10.796 -0.2968 -1.7050 -0.5159
  800MOL0     H 7984   1.489   9.903  10.625 -2.3607 -1.5781 -0.6260
  800MOL0     H 7985   1.405   9.774  10.458  0.4322 -1.1504 -0.2287
  800MOL0     H 7986   1.603   9.135   9.379 -0.8975  0.3564 -1.2759
  800MOL0     H 7987   1.542   8.933   9.501 -0.9225  0.4797 -0.1092
  800MOL0     H 7988   1.818   8.443   9.507  0.0013  1.3615  2.2900
  800MOL0     H 7989   1.774   8.209   9.597  0.1082 -0.3667  1.0240
  800MOL0     H 7990   1.362   8.097   9.557  2.3873 -0.0932 -0.7869
  800MOL0     H 7991   1.437   7.943   9.617  3.2879 -0.1311  1.1226
  800MOL0     H 7992   1.251   7.976   9.753 -1.0936 -0.2674  0.9687
  800MOL0     H 7993   1.281   8.153   9.745 -1.1847 -0.9527  1.3956
  800MOL0     H 7994   1.497   8.063   9.908 -0.6186  1.8599 -2.7798
  800MOL0     H 7995   1.416   7.914   9.874  3.0660 -0.6994  3.8155
  800MOL0     H 7996   1.364   8.031  10.102 -1.1676 -2.1587  0.1276
  800MOL0     H 7997   1.227   7.969  10.014 -1.5337  1.9804  2.1412
  800MOL0     H 7998   1.173   8.385  10.067  0.0670 -0.2869  1.3796
  800MOL0     H 7999   1.351   8.326   9.618  0.7693 -3.0675 -2.1899
  800MOL0     H 8000   1.395   8.532   9.514  0.3172  0.1806  0.7645
  801MOL0     O 8001  10.938   8.861   7.579  0.3693 -0.4527  0.5867
  801MOL0     C 8002  10.918   8.949   7.495 -0.3417 -1.1833 -0.6902
  801MOL0     O 8003  10.997   8.986   7.397  0.7676 -0.5807 -0.2594
  801MOL0     C 8004  11.128   8.960   7.413 -0.0453  0.2021 -0.3800
  801MOL0     C 8005  11.197   8.925   7.293 -0.2453  0.8061 -0.2654
  801MOL0     C 8006  11.341   8.930   7.291  1.0921  0.4104 -0.0069
  801MOL0     C 8007  11.407   8.934   7.411 -0.3136  0.0237 -0.6643
  801MOL0     O 8008  11.539   8.927   7.428  0.0765 -1.0091  0.5334
  801MOL0     C 8009  11.622   8.895   7.316  0.2423 -0.4509 -0.4900
  801MOL0     C 8010  11.761   8.851   7.351 -0.7725  0.6170  0.0133
  801MOL0     C 8011  11.769   8.705   7.385 -0.3313  0.2293 -1.0730
  801MOL0     C 8012  11.897   8.681   7.461  0.5303 -0.0359 -0.6097
  801MOL0     C 8013  11.908   8.539   7.523  0.3131  0.3632  0.2771
  801MOL0     C 8014  12.040   8.528   7.598 -0.0473  0.2903 -0.2636
  801MOL0     C 8015  12.077   8.384   7.622 -0.2069 -0.8629  0.6716
  801MOL0     C 8016  11.976   8.299   7.702  0.2977  0.2913 -0.4846
  801MOL0     N 8017  12.020   8.158   7.716  0.4275 -0.0101 -0.1254
  801MOL0     C 8018  12.102   8.087   7.626 -0.7607 -0.4625 -0.1814
  801MOL0     C 8019  12.139   7.970   7.686 -0.1831  0.1885 -1.1420
  801MOL0     C 8020  12.245   7.863   7.635  1.1019 -0.6056 -0.1704
  801MOL0     C 8021  12.172   7.733   7.580 -1.7165 -1.0735 -0.7620
  801MOL0     C 8022  12.131   7.643   7.697 -0.3912  0.1572  0.6448
  801MOL0     C 8023  12.101   7.498   7.661  0.3815 -0.6209 -0.2467
  801MOL0     O 8024  12.004   7.485   7.561 -0.2021  0.3421 -0.1464
  801MOL0     C 8025  12.046   7.479   7.433  0.1087  0.1273 -0.3440
  801MOL0     C 8026  12.175   7.464   7.385  0.5731 -1.1926 -0.4013
  801MOL0     C 8027  12.205   7.451   7.254 -0.4910  0.3002  0.8510
  801MOL0     C 8028  12.346   7.416   7.224  0.3627  1.1580  0.1830
  801MOL0     C 8029  12.105   7.471   7.162  0.6693 -0.4635 -0.6331
  801MOL0     C 8030  12.130   7.480   7.013 -0.0897 -0.1613  0.6757
  801MOL0     O 8031  12.055   7.565   6.946 -0.2797  0.2489 -0.2121
  801MOL0     C 8032  12.062   7.606   6.816 -0.1411 -0.0682  0.3666
  801MOL0     C 8033  11.984   7.716   6.781 -0.0303 -0.0458  0.3398
  801MOL0     C 8034  11.982   7.755   6.643  0.1147 -0.5039 -0.7571
  801MOL0     C 8035  12.068   7.700   6.546 -1.0301  0.8562 -0.0911
  801MOL0     O 8036  12.060   7.727   6.409  0.7258 -0.2039 -0.6315
  801MOL0     C 8037  11.938   7.772   6.351 -0.2536 -0.8078  0.1513
  801MOL0     C 8038  11.852   7.645   6.331  0.1008  0.1513  0.5779
  801MOL0     C 8039  11.745   7.644   6.219 -0.2248 -0.2629 -0.0704
  801MOL0     C 8040  11.665   7.521   6.217  0.2154 -0.0721  0.5477
  801MOL0     C 8041  11.532   7.532   6.125  0.1098 -0.3403 -0.0905
  801MOL0     C 8042  11.427   7.620   6.184  0.0859 -0.3314 -0.1724
  801MOL0     C 8043  11.293   7.622   6.123 -0.3213  0.3256  0.1964
  801MOL0     C 8044  11.187   7.710   6.195  0.6314 -0.0146  0.0223
  801MOL0    Cl 8045  11.132   7.656   6.367 -0.3521 -0.0441 -0.2907
  801MOL0     C 8046  12.160   7.609   6.584  0.1738  0.9497 -0.2406
  801MOL0     C 8047  12.149   7.550   6.713  0.0680 -0.0701 -0.1498
  801MOL0     O 8048  12.213   7.395   6.972  0.0754 -0.2693  0.1006
  801MOL0     C 8049  11.968   7.482   7.205  0.7062  0.3165  0.4539
  801MOL0     C 8050  11.937   7.490   7.343  0.1147 -0.0350  0.7843
  801MOL0     N 8051  12.071   7.967   7.806  0.0502  0.5020 -0.6154
  801MOL0     N 8052  12.002   8.076   7.822  0.6600  0.1349 -0.5447
  801MOL0     C 8053  11.343   8.965   7.532  0.6164 -1.0953 -0.0059
  801MOL0     C 8054  11.201   8.988   7.522  0.8099 -0.3178  0.5749
  801MOL0     C 8055  10.783   9.008   7.493  0.9628 -0.1511  1.2776
  801MOL0     C 8056  10.727   9.073   7.370 -0.1598 -0.5267  0.3415
  801MOL0     C 8057  10.598   9.128   7.379 -1.2372  0.0885 -0.5082
  801MOL0     C 8058  10.518   9.119   7.490 -0.3731 -0.4533  0.9027
  801MOL0     O 8059  10.396   9.185   7.497  0.3805  0.1669 -1.1271
  801MOL0     C 8060  10.364   9.278   7.395  0.2610  1.1458  0.1499
  801MOL0     C 8061  10.240   9.360   7.438 -0.4422 -0.0021 -1.3148
  801MOL0     C 8062  10.269   9.437   7.574 -0.1184 -0.3808  0.4342
  801MOL0     C 8063  10.141   9.425   7.662  0.6894 -1.4154 -0.9674
  801MOL0     C 8064  10.026   9.491   7.592 -0.3948 -0.0580 -0.6309
  801MOL0     C 8065   9.932   9.547   7.535  0.4600  0.1230 -0.2581
  801MOL0     C 8066  10.562   9.048   7.597 -0.0561  1.3517  0.1162
  801MOL0     C 8067  10.692   8.996   7.597 -0.3921  0.7156  0.0236
  801MOL0     H 8068  11.135   8.906   7.206  1.4352 -1.5673 -1.0502
  801MOL0     H 8069  11.384   8.933   7.191  2.0518  0.3744  0.3984
  801MOL0     H 8070  11.576   8.817   7.254 -0.8772 -0.5195  0.3913
  801MOL0     H 8071  11.634   8.981   7.250  0.7742  0.6600  1.0103
  801MOL0     H 8072  11.827   8.875   7.268  0.4571  0.5591  0.9448
  801MOL0     H 8073  11.813   8.899   7.434  4.9481 -1.5573 -1.8296
  801MOL0     H 8074  11.680   8.680   7.444  1.7405 -1.1288  1.6625
  801MOL0     H 8075  11.761   8.652   7.290  0.0027  1.5633 -1.8690
  801MOL0     H 8076  11.979   8.718   7.399 -1.2611  3.8965 -0.9036
  801MOL0     H 8077  11.889   8.744   7.550  0.2462  0.7422 -1.1789
  801MOL0     H 8078  11.826   8.536   7.596  1.0324  1.1888  1.1578
  801MOL0     H 8079  11.897   8.465   7.443 -1.8710  1.1737 -0.2306
  801MOL0     H 8080  12.125   8.575   7.548  0.7206  0.0463  0.7762
  801MOL0     H 8081  12.049   8.579   7.694  0.7893 -2.2221  1.0555
  801MOL0     H 8082  12.081   8.344   7.520 -0.6485  0.8619 -0.0584
  801MOL0     H 8083  12.174   8.376   7.671 -0.7527 -1.7412  1.6476
  801MOL0     H 8084  11.880   8.303   7.650 -0.2177  0.4662  0.4634
  801MOL0     H 8085  11.951   8.337   7.801 -3.2337  1.4467 -1.6465
  801MOL0     H 8086  12.142   8.128   7.534 -1.9573 -2.2273 -1.5519
  801MOL0     H 8087  12.293   7.908   7.548 -0.9217 -1.4545 -1.8304
  801MOL0     H 8088  12.318   7.845   7.714 -2.0013 -0.6636  2.9363
  801MOL0     H 8089  12.238   7.681   7.510 -0.7345 -0.6007 -0.2214
  801MOL0     H 8090  12.087   7.764   7.519 -1.9028  0.8087  0.3861
  801MOL0     H 8091  12.037   7.686   7.730  0.2322  0.1550  2.5488
  801MOL0     H 8092  12.215   7.638   7.768  3.0997  2.7073 -2.8850
  801MOL0     H 8093  12.064   7.467   7.760  1.7883  1.9963  1.2155
  801MOL0     H 8094  12.194   7.441   7.652  2.2672  2.1504  0.3878
  801MOL0     H 8095  12.255   7.456   7.458 -0.2950 -2.3888  0.4552
  801MOL0     H 8096  12.348   7.306   7.226 -0.1201  1.0552 -1.9561
  801MOL0     H 8097  12.385   7.466   7.134  1.5022  1.8043  1.0111
  801MOL0     H 8098  12.413   7.445   7.305  1.5765 -4.0338  1.4355
  801MOL0     H 8099  11.911   7.757   6.850 -1.7005  1.0651 -1.9610
  801MOL0     H 8100  11.914   7.837   6.621  0.6055  0.5023  1.1690
  801MOL0     H 8101  11.877   7.846   6.405 -1.0753 -0.2125 -1.5340
  801MOL0     H 8102  11.956   7.803   6.248 -2.0021  1.6384  0.4834
  801MOL0     H 8103  11.910   7.553   6.323  1.2996  1.0435 -2.2115
  801MOL0     H 8104  11.790   7.635   6.421 -2.7481  3.6428 -0.7451
  801MOL0     H 8105  11.794   7.652   6.122 -0.5229 -0.9772 -0.2824
  801MOL0     H 8106  11.687   7.736   6.227  0.1110  0.0599 -1.1649
  801MOL0     H 8107  11.730   7.444   6.175 -2.6477 -1.3339 -1.8923
  801MOL0     H 8108  11.634   7.492   6.318  1.3441  3.4950  2.0696
  801MOL0     H 8109  11.487   7.433   6.120 -1.5565  0.4473 -2.4103
  801MOL0     H 8110  11.552   7.565   6.022  1.2666  1.9390  0.7929
  801MOL0     H 8111  11.428   7.604   6.292 -0.1028  1.6357  0.1605
  801MOL0     H 8112  11.457   7.724   6.172 -0.4444  0.0345  1.4282
  801MOL0     H 8113  11.262   7.517   6.123  2.4026 -0.6125 -2.1268
  801MOL0     H 8114  11.288   7.655   6.019 -3.2720 -1.7738 -0.4434
  801MOL0     H 8115  11.092   7.724   6.143  1.0420  0.7933 -0.5405
  801MOL0     H 8116  11.235   7.808   6.198 -0.5889  0.8683 -3.5290
  801MOL0     H 8117  12.227   7.559   6.513  1.4356 -0.3577  1.7685
  801MOL0     H 8118  12.223   7.472   6.732  1.2306  1.4751  2.2519
  801MOL0     H 8119  11.892   7.491   7.128  2.7908 -0.4542 -1.8209
  801MOL0     H 8120  11.834   7.510   7.371  0.3230  2.0228  0.2639
  801MOL0     H 8121  11.392   8.979   7.627  0.4964 -0.1919 -0.0694
  801MOL0     H 8122  11.151   9.035   7.606  1.0193  1.6156 -0.3488
  801MOL0     H 8123  10.790   9.085   7.283 -1.5190  2.7728 -0.3448
  801MOL0     H 8124  10.550   9.167   7.289 -0.1430  2.0741 -0.2926
  801MOL0     H 8125  10.450   9.342   7.374  1.6197 -0.3089  1.0001
  801MOL0     H 8126  10.321   9.228   7.308 -1.1639  2.1381  0.2427
  801MOL0     H 8127  10.154   9.293   7.447 -0.1438 -0.3446 -0.9395
  801MOL0     H 8128  10.210   9.429   7.359  1.2972  1.6396 -0.6258
  801MOL0     H 8129  10.305   9.538   7.553 -4.4613  1.0566 -1.2647
  801MOL0     H 8130  10.350   9.386   7.627  1.7376  1.8563 -0.1244
  801MOL0     H 8131  10.161   9.481   7.753 -3.0490 -2.5793  0.8157
  801MOL0     H 8132  10.099   9.325   7.681 -1.3258 -0.5884 -0.7779
  801MOL0     H 8133   9.859   9.600   7.478  0.1821 -1.9450 -1.9159
  801MOL0     H 8134  10.502   9.043   7.687 -0.6167 -2.2356 -0.3204
  801MOL0     H 8135  10.709   8.936   7.686  0.4373 -0.6753 -1.0245
  802MOL0     O 8136   4.652  10.498  10.327 -0.0413  0.2147 -0.0509
  802MOL0     C 8137   4.732  10.590  10.336 -0.5356 -0.4486 -0.5364
  802MOL0     O 8138   4.839  10.611  10.258 -0.3451 -0.1926  1.0126
  802MOL0     C 8139   4.834  10.551  10.133  0.1161  0.0918  0.3563
  802MOL0     C 8140   4.842  10.629  10.019  0.0919 -0.6715  0.1534
  802MOL0     C 8141   4.833  10.576   9.894  0.4140  0.8024  0.9793
  802MOL0     C 8142   4.839  10.433   9.873 -0.3861  0.2253  0.5146
  802MOL0     O 8143   4.834  10.375   9.748  0.4608  0.1782 -0.1037
  802MOL0     C 8144   4.730  10.284   9.723  0.6052 -0.2300 -0.3367
  802MOL0     C 8145   4.764  10.136   9.721  0.0735 -0.6457  0.0040
  802MOL0     C 8146   4.722  10.066   9.589 -0.6761  0.0207 -0.1662
  802MOL0     C 8147   4.809   9.943   9.568  0.0906  0.5035 -0.0699
  802MOL0     C 8148   4.764   9.884   9.430 -0.8176  0.3292  0.1511
  802MOL0     C 8149   4.864   9.778   9.385  0.3275 -0.8027 -0.6354
  802MOL0     C 8150   4.818   9.671   9.292  0.0667  0.3680 -0.4752
  802MOL0     C 8151   4.932   9.592   9.225  0.8320  0.3265 -0.3299
  802MOL0     N 8152   4.902   9.444   9.205  0.7401 -0.6825 -0.5471
  802MOL0     C 8153   4.845   9.358   9.296  0.0890  0.3118  0.0927
  802MOL0     C 8154   4.831   9.243   9.223 -0.7072 -0.2057  0.6639
  802MOL0     C 8155   4.765   9.117   9.273  0.5816 -0.4805 -0.9014
  802MOL0     C 8156   4.731   9.123   9.430 -0.0901 -0.3666 -0.3697
  802MOL0     C 8157   4.601   9.200   9.470  0.5772 -0.5796  0.6204
  802MOL0     C 8158   4.587   9.203   9.626  1.8941 -0.1170  0.6636
  802MOL0     O 8159   4.661   9.326   9.662  1.0619  0.2872 -0.0321
  802MOL0     C 8160   4.611   9.397   9.774 -0.3134 -0.0690  1.1924
  802MOL0     C 8161   4.670   9.519   9.796  0.3197  0.1541 -0.0919
  802MOL0     C 8162   4.635   9.604   9.898  0.4572 -0.5268 -1.8748
  802MOL0     C 8163   4.721   9.728   9.909  0.0381 -0.2611  0.0878
  802MOL0     C 8164   4.516   9.576   9.974  0.5228 -0.7774 -0.2641
  802MOL0     C 8165   4.452   9.669  10.069  0.0643  0.4611  0.0348
  802MOL0     O 8166   4.465   9.799  10.048 -0.0981  0.6719 -0.0363
  802MOL0     C 8167   4.362   9.871  10.098 -0.6705 -0.2193  0.3863
  802MOL0     C 8168   4.392   9.966  10.200 -0.0390  0.0607  0.7544
  802MOL0     C 8169   4.289  10.036  10.258 -0.4237  1.1718  0.7051
  802MOL0     C 8170   4.161  10.014  10.224 -0.0222  0.5866 -0.1114
  802MOL0     O 8171   4.067  10.080  10.281  0.0082  0.2151  0.3373
  802MOL0     C 8172   4.008  10.177  10.202 -0.4624 -0.0110 -0.2914
  802MOL0     C 8173   3.909  10.254  10.277  1.0572 -0.3756 -0.1454
  802MOL0     C 8174   3.962  10.296  10.413 -0.8867 -0.5222 -1.3066
  802MOL0     C 8175   3.861  10.392  10.475 -0.7173 -0.6753 -0.8612
  802MOL0     C 8176   3.838  10.526  10.403 -0.0222 -0.0164  0.5477
  802MOL0     C 8177   3.691  10.525  10.351  0.3848 -0.2420 -0.6055
  802MOL0     C 8178   3.655  10.674  10.334  0.8575 -0.7885  1.0143
  802MOL0     C 8179   3.505  10.692  10.298 -0.3172  0.6237  0.3380
  802MOL0    Cl 8180   3.461  10.858  10.275 -0.6600 -0.3322 -0.1520
  802MOL0     C 8181   4.128   9.931  10.115  0.4989  0.0645 -0.0269
  802MOL0     C 8182   4.227   9.867  10.050 -0.3785  0.1520 -0.5616
  802MOL0     O 8183   4.404   9.612  10.174  0.4274 -0.2803 -0.4027
  802MOL0     C 8184   4.463   9.447   9.968 -0.5855  0.5807  0.8781
  802MOL0     C 8185   4.521   9.355   9.878 -0.4443 -0.9546 -0.9337
  802MOL0     N 8186   4.894   9.262   9.103  0.1924 -1.1117 -0.3216
  802MOL0     N 8187   4.916   9.389   9.087  0.9286 -0.0970 -0.1406
  802MOL0     C 8188   4.846  10.350   9.978  0.1698 -0.5873 -0.9762
  802MOL0     C 8189   4.835  10.411  10.106 -0.3094 -0.9487 -0.5243
  802MOL0     C 8190   4.723  10.692  10.455  0.7964 -0.2344 -0.0428
  802MOL0     C 8191   4.774  10.821  10.444 -0.4387 -0.9487  0.9487
  802MOL0     C 8192   4.773  10.906  10.554  1.0912 -0.3979  1.0179
  802MOL0     C 8193   4.717  10.867  10.676 -0.3877 -0.5270  0.2079
  802MOL0     O 8194   4.711  10.967  10.778  0.4494 -0.1373  0.0132
  802MOL0     C 8195   4.644  10.943  10.903  0.3240  0.0697 -0.0453
  802MOL0     C 8196   4.743  10.862  10.989 -0.2794 -0.1703  0.2790
  802MOL0     C 8197   4.839  10.948  11.065  0.2882  0.1098  0.0137
  802MOL0     C 8198   4.784  11.040  11.168  0.4998  0.0152 -0.3315
  802MOL0     C 8199   4.755  11.183  11.121 -0.5497  0.2663 -0.8231
  802MOL0     C 8200   4.724  11.298  11.102 -0.1680 -0.1845  0.3359
  802MOL0     C 8201   4.672  10.737  10.692  1.2786  0.0490  1.1946
  802MOL0     C 8202   4.675  10.648  10.581 -0.2457 -0.0892  0.2476
  802MOL0     H 8203   4.845  10.734  10.044  1.0586 -1.1779  2.4757
  802MOL0     H 8204   4.826  10.635   9.803 -2.1788 -1.5785 -0.5269
  802MOL0     H 8205   4.653  10.296   9.800 -1.0762  2.6098 -2.3044
  802MOL0     H 8206   4.681  10.320   9.632 -1.1423 -1.2413  0.1711
  802MOL0     H 8207   4.872  10.122   9.733  0.1717 -0.3975 -0.5498
  802MOL0     H 8208   4.708  10.085   9.800  0.0539 -1.6263 -0.6165
  802MOL0     H 8209   4.616  10.039   9.590 -0.2317 -1.9029 -0.8291
  802MOL0     H 8210   4.733  10.139   9.509 -2.7081  1.5745  0.8689
  802MOL0     H 8211   4.915   9.970   9.579 -0.4825  1.8076  3.4269
  802MOL0     H 8212   4.788   9.870   9.647 -0.5881  0.9244  0.1501
  802MOL0     H 8213   4.664   9.839   9.439 -0.9435  0.8978  2.0486
  802MOL0     H 8214   4.761   9.959   9.350 -1.8426 -0.7540 -0.8750
  802MOL0     H 8215   4.952   9.822   9.336  0.3355 -0.8901 -0.6985
  802MOL0     H 8216   4.903   9.717   9.468  0.8670  0.0825 -0.2236
  802MOL0     H 8217   4.766   9.597   9.353  1.4635 -1.2215 -1.1287
  802MOL0     H 8218   4.743   9.697   9.217 -1.4391 -3.9212 -0.7639
  802MOL0     H 8219   5.019   9.603   9.290 -0.4876  0.9580  1.4203
  802MOL0     H 8220   4.953   9.645   9.132  2.3243 -0.4653 -0.4760
  802MOL0     H 8221   4.823   9.394   9.396  2.5874 -0.0089  0.8383
  802MOL0     H 8222   4.666   9.099   9.229 -0.7382  1.8235  0.8758
  802MOL0     H 8223   4.840   9.041   9.252  3.4441  1.7023  0.7660
  802MOL0     H 8224   4.817   9.167   9.481  2.5724 -5.9626  0.7536
  802MOL0     H 8225   4.728   9.023   9.473 -1.2700  1.1256  3.3968
  802MOL0     H 8226   4.519   9.140   9.428 -0.9184  1.2769  0.7351
  802MOL0     H 8227   4.599   9.303   9.434 -0.6691  0.5784  3.7022
  802MOL0     H 8228   4.599   9.108   9.680  1.7886 -1.3321 -1.3610
  802MOL0     H 8229   4.479   9.214   9.640  1.2786 -1.9410 -1.8284
  802MOL0     H 8230   4.747   9.549   9.726  0.1865 -1.4387 -0.9905
  802MOL0     H 8231   4.696   9.794   9.824  0.2032 -4.1438 -3.2755
  802MOL0     H 8232   4.707   9.766  10.010 -5.6987 -2.8267  0.6942
  802MOL0     H 8233   4.829   9.716   9.899  0.0471  0.5036 -0.9966
  802MOL0     H 8234   4.493   9.974  10.237  0.2391  2.2706 -0.2976
  802MOL0     H 8235   4.307  10.112  10.334 -5.7420  0.5890  3.0160
  802MOL0     H 8236   4.086  10.242  10.159 -1.1138  0.5083 -0.7052
  802MOL0     H 8237   3.953  10.139  10.115 -3.2243 -1.0947  1.7970
  802MOL0     H 8238   3.886  10.342  10.216  2.3230 -0.6789 -1.1158
  802MOL0     H 8239   3.817  10.195  10.280 -1.4995  3.2233 -1.0396
  802MOL0     H 8240   4.058  10.350  10.413 -1.4274  1.1045  4.5200
  802MOL0     H 8241   3.973  10.210  10.479 -1.8081  0.0186 -0.4086
  802MOL0     H 8242   3.763  10.345  10.483 -1.4616  1.1700  3.2180
  802MOL0     H 8243   3.881  10.423  10.578  0.7595  0.9028 -1.5732
  802MOL0     H 8244   3.903  10.547  10.317 -1.5690  3.1250  0.0085
  802MOL0     H 8245   3.853  10.606  10.476  1.7984 -1.3482  1.7332
  802MOL0     H 8246   3.675  10.467  10.260 -0.6714 -0.1743 -0.4693
  802MOL0     H 8247   3.624  10.495  10.431  1.5675  0.0809  0.5389
  802MOL0     H 8248   3.717  10.718  10.256  0.4497  1.7221  2.0265
  802MOL0     H 8249   3.665  10.736  10.423 -2.3668  2.2441 -0.4986
  802MOL0     H 8250   3.449  10.633  10.371 -1.2221 -1.1113 -1.6454
  802MOL0     H 8251   3.493  10.646  10.199  0.4077  0.5162  0.2962
  802MOL0     H 8252   4.022   9.925  10.096  0.1284  1.5795  1.3168
  802MOL0     H 8253   4.204   9.787   9.980 -2.0217 -0.5433  0.7173
  802MOL0     H 8254   4.378   9.426  10.032  0.1051  3.3255  2.9255
  802MOL0     H 8255   4.485   9.253   9.884  1.9198 -1.7710  1.5579
  802MOL0     H 8256   4.852  10.242   9.974  0.1090 -0.7068  1.1297
  802MOL0     H 8257   4.828  10.343  10.190 -2.5805  1.2023  1.1665
  802MOL0     H 8258   4.821  10.846  10.350 -1.6810  0.0421  0.5618
  802MOL0     H 8259   4.819  11.004  10.550  2.9263 -1.2547 -1.7277
  802MOL0     H 8260   4.601  11.033  10.947  0.9192  0.4329 -0.2053
  802MOL0     H 8261   4.555  10.887  10.872  2.0104 -1.4713 -2.4473
  802MOL0     H 8262   4.794  10.798  10.916  0.4396 -0.2582  0.8409
  802MOL0     H 8263   4.684  10.803  11.060  0.2410  2.4730  3.1627
  802MOL0     H 8264   4.873  11.009  10.981 -6.0690  0.8310 -2.5782
  802MOL0     H 8265   4.915  10.888  11.115 -1.4305 -1.0511  1.3328
  802MOL0     H 8266   4.837  11.036  11.263 -3.5374  0.6366  2.1971
  802MOL0     H 8267   4.692  10.988  11.198  0.2664  1.1427  0.9765
  802MOL0     H 8268   4.694  11.397  11.076 -0.4825 -0.7200 -1.4196
  802MOL0     H 8269   4.623  10.697  10.780  0.4362  2.1948  1.7564
  802MOL0     H 8270   4.627  10.552  10.594 -1.3930  0.8649  4.9571
  803MOL0     O 8271   0.614  10.372   2.722 -0.4589  0.2132 -0.2664
  803MOL0     C 8272   0.628  10.424   2.834 -0.9691 -0.3282 -0.8898
  803MOL0     O 8273   0.743  10.422   2.913 -0.0406 -0.3159 -0.0219
  803MOL0     C 8274   0.860  10.383   2.860 -1.1360 -0.0233  0.5398
  803MOL0     C 8275   0.969  10.477   2.871  0.1236 -0.4412  0.4053
  803MOL0     C 8276   1.095  10.442   2.824  0.9024 -0.4526  0.0623
  803MOL0     C 8277   1.118  10.313   2.777 -0.1087  0.5319  0.1870
  803MOL0     O 8278   1.237  10.263   2.740 -0.1236 -0.3612  0.0417
  803MOL0     C 8279   1.296  10.343   2.636 -0.2855  0.0248 -0.1918
  803MOL0     C 8280   1.441  10.373   2.694 -0.0794  0.1301 -0.3561
  803MOL0     C 8281   1.525  10.400   2.580 -0.2868  0.2889 -0.4778
  803MOL0     C 8282   1.655  10.465   2.626  0.3893  0.5012  0.8256
  803MOL0     C 8283   1.753  10.501   2.507 -0.4784 -0.6795 -0.4455
  803MOL0     C 8284   1.888  10.555   2.554 -0.3769  0.5067  0.1992
  803MOL0     C 8285   1.873  10.678   2.651 -0.7278 -1.2616  0.2764
  803MOL0     C 8286   2.003  10.741   2.686 -0.3845 -0.0061 -0.3852
  803MOL0     N 8287   1.997  10.841   2.802 -0.6809  0.3201  0.7202
  803MOL0     C 8288   1.953  10.971   2.793  0.1909 -0.6683 -0.9492
  803MOL0     C 8289   1.945  11.015   2.927  0.3131  0.2076 -1.1999
  803MOL0     C 8290   1.888  11.143   2.993  0.2768 -0.8557 -0.1774
  803MOL0     C 8291   1.745  11.157   3.025 -0.3888  0.9908 -0.3032
  803MOL0     C 8292   1.645  11.140   2.909 -0.7636 -0.5442 -0.0129
  803MOL0     C 8293   1.702  11.213   2.786 -0.0744 -0.6206  0.9821
  803MOL0     O 8294   1.711  11.351   2.817 -0.4180 -0.4787  0.1965
  803MOL0     C 8295   1.785  11.427   2.733 -0.0931  0.2302  0.9038
  803MOL0     C 8296   1.743  11.437   2.605 -0.7684 -0.3630 -0.0047
  803MOL0     C 8297   1.815  11.520   2.516  0.7996 -0.5917 -0.4440
  803MOL0     C 8298   1.762  11.524   2.379 -0.4114 -0.1747  0.4049
  803MOL0     C 8299   1.928  11.604   2.555  0.8865  0.3002  0.3581
  803MOL0     C 8300   2.002  11.687   2.460 -0.4852  0.0842 -0.3040
  803MOL0     O 8301   2.009  11.636   2.333 -0.0220  0.0277  0.2011
  803MOL0     C 8302   2.038  11.718   2.220  1.1439 -0.1512  1.5858
  803MOL0     C 8303   2.047  11.855   2.206  0.2832  0.3620  0.1458
  803MOL0     C 8304   2.055  11.916   2.086 -0.5543 -0.3510 -0.7255
  803MOL0     C 8305   2.064  11.840   1.968  0.6837  1.0852  0.3363
  803MOL0     O 8306   2.080  11.890   1.843 -0.2982  0.0293  0.4645
  803MOL0     C 8307   2.075  12.034   1.829 -0.2832 -0.1166  0.4397
  803MOL0     C 8308   2.204  12.111   1.858 -0.0350  1.0854 -0.4345
  803MOL0     C 8309   2.254  12.164   1.719  0.5311 -0.5844 -0.0833
  803MOL0     C 8310   2.370  12.081   1.663  1.4903 -0.6274 -0.8140
  803MOL0     C 8311   2.443  12.159   1.554 -0.1827 -0.6112 -0.2903
  803MOL0     C 8312   2.521  12.280   1.614  0.4963  0.0332  0.1010
  803MOL0     C 8313   2.646  12.307   1.537 -0.1630  0.1275 -0.3918
  803MOL0     C 8314   2.711  12.437   1.586 -0.4553  0.5183  0.1288
  803MOL0    Cl 8315   2.604  12.562   1.525 -0.2414  0.1804 -0.0514
  803MOL0     C 8316   2.051  11.708   1.973 -0.1279 -0.4157 -0.9440
  803MOL0     C 8317   2.027  11.649   2.102  0.2919  0.8164 -0.0714
  803MOL0     O 8318   2.047  11.793   2.502  0.5120 -0.4533 -0.2612
  803MOL0     C 8319   1.950  11.598   2.690 -0.1879 -0.5617 -0.4789
  803MOL0     C 8320   1.882  11.510   2.781 -0.5816 -0.1637  0.9045
  803MOL0     N 8321   1.986  10.912   2.999  0.2588  0.7984 -0.6518
  803MOL0     N 8322   2.016  10.807   2.930  0.1691  0.0210  0.0544
  803MOL0     C 8323   1.014  10.220   2.772  0.1176 -0.5899 -1.3774
  803MOL0     C 8324   0.886  10.258   2.809 -0.2912 -0.5242  0.1112
  803MOL0     C 8325   0.499  10.481   2.897 -0.6875  0.2334  0.9218
  803MOL0     C 8326   0.365  10.441   2.872  0.4860 -0.9521 -0.1016
  803MOL0     C 8327   0.253  10.504   2.921  0.1762  0.0304 -1.0430
  803MOL0     C 8328   0.269  10.604   3.019 -1.1037 -0.2609  0.1016
  803MOL0     O 8329   0.161  10.654   3.094 -0.3248  0.0036 -0.9936
  803MOL0     C 8330   0.035  10.583   3.089  0.1409  0.1065 -1.0476
  803MOL0     C 8331  -0.062  10.634   3.193 -0.3437 -0.3460 -0.4992
  803MOL0     C 8332  -0.095  10.793   3.198 -0.0749  0.6613 -0.7067
  803MOL0     C 8333  -0.210  10.830   3.289  0.0508  0.1001  0.4132
  803MOL0     C 8334  -0.196  10.767   3.421 -0.2274 -0.3798 -1.0521
  803MOL0     C 8335  -0.186  10.718   3.537 -0.1210 -0.3717 -0.0177
  803MOL0     C 8336   0.399  10.644   3.050  0.2983  0.1995 -1.1294
  803MOL0     C 8337   0.513  10.582   2.990  0.1463  0.2506  0.2730
  803MOL0     H 8338   0.951  10.558   2.940 -3.9690 -1.8861  1.3375
  803MOL0     H 8339   1.176  10.513   2.841  1.5690 -1.8559  3.6500
  803MOL0     H 8340   1.301  10.295   2.538  1.4823  0.3842 -0.3221
  803MOL0     H 8341   1.237  10.433   2.617  0.5392  0.4625 -0.7449
  803MOL0     H 8342   1.433  10.465   2.752 -2.4994  0.7828 -1.5656
  803MOL0     H 8343   1.478  10.296   2.761 -1.1448  0.5739  0.7789
  803MOL0     H 8344   1.533  10.315   2.512 -0.4514 -0.0237 -0.1151
  803MOL0     H 8345   1.479  10.478   2.519  1.2365  2.7364  1.3131
  803MOL0     H 8346   1.608  10.548   2.680 -2.3013 -0.8536  0.7179
  803MOL0     H 8347   1.691  10.397   2.704 -1.2987 -2.1619 -0.5769
  803MOL0     H 8348   1.777  10.411   2.449  2.1950 -0.6992  0.5334
  803MOL0     H 8349   1.701  10.575   2.446  0.0608  1.6502  1.7258
  803MOL0     H 8350   1.951  10.474   2.590 -0.1742  0.1048 -1.0063
  803MOL0     H 8351   1.945  10.576   2.463  0.7788 -3.2131 -0.0791
  803MOL0     H 8352   1.810  10.755   2.606  2.2941  0.7861 -0.7481
  803MOL0     H 8353   1.825  10.647   2.745  0.3003 -0.4961  1.0801
  803MOL0     H 8354   2.049  10.795   2.602  0.8082 -0.8347 -0.2932
  803MOL0     H 8355   2.077  10.666   2.715  1.2032  1.3667 -0.7102
  803MOL0     H 8356   1.928  11.019   2.699 -2.3668 -0.4723 -0.2493
  803MOL0     H 8357   1.940  11.141   3.089 -2.1750  0.8455  1.2937
  803MOL0     H 8358   1.927  11.236   2.949 -1.0118  0.0245  0.4678
  803MOL0     H 8359   1.725  11.258   3.062  1.3978  0.8630  1.1085
  803MOL0     H 8360   1.721  11.085   3.103 -4.2410  5.6907  3.4885
  803MOL0     H 8361   1.545  11.182   2.927  1.0985  4.5793  0.0794
  803MOL0     H 8362   1.626  11.036   2.881  0.3784 -0.7572 -0.0217
  803MOL0     H 8363   1.643  11.198   2.695 -1.3620 -0.1254  1.7054
  803MOL0     H 8364   1.801  11.175   2.761 -0.0141 -0.0785  0.3792
  803MOL0     H 8365   1.661  11.374   2.571  0.1312 -1.5018 -0.1314
  803MOL0     H 8366   1.823  11.455   2.321 -0.3017  0.1882  0.0802
  803MOL0     H 8367   1.660  11.484   2.376 -0.1022 -0.9435 -0.0679
  803MOL0     H 8368   1.777  11.619   2.326 -0.5134 -0.7811 -0.7433
  803MOL0     H 8369   2.056  11.927   2.287  1.2096 -1.4687  1.7733
  803MOL0     H 8370   2.070  12.023   2.096 -2.1792  0.0100 -1.7346
  803MOL0     H 8371   2.055  12.047   1.722  0.5289  1.5962  0.4568
  803MOL0     H 8372   1.997  12.071   1.896 -1.8129 -2.8794  0.3169
  803MOL0     H 8373   2.173  12.200   1.914  1.5906  1.8997 -0.7576
  803MOL0     H 8374   2.276  12.053   1.916 -1.6010  1.4946  2.0929
  803MOL0     H 8375   2.272  12.271   1.736  0.2851 -0.8882  2.4018
  803MOL0     H 8376   2.173  12.169   1.645 -0.6947  0.0632  1.2526
  803MOL0     H 8377   2.428  12.048   1.750  2.2707  2.3430 -0.1010
  803MOL0     H 8378   2.323  11.993   1.617 -0.1150 -0.0535 -0.3238
  803MOL0     H 8379   2.373  12.200   1.481  0.0828  2.5394  1.0435
  803MOL0     H 8380   2.512  12.086   1.510  0.9012  0.9938 -1.3573
  803MOL0     H 8381   2.457  12.368   1.606 -1.2421 -1.0376  1.3934
  803MOL0     H 8382   2.555  12.259   1.716  1.4388  0.6025 -0.0850
  803MOL0     H 8383   2.640  12.327   1.429  1.1925  3.1089 -0.0331
  803MOL0     H 8384   2.720  12.229   1.556  1.0976  1.3804 -0.0304
  803MOL0     H 8385   2.807  12.445   1.535  0.4625  1.6234  1.9521
  803MOL0     H 8386   2.725  12.450   1.694 -2.1139 -1.6409  0.6895
  803MOL0     H 8387   2.050  11.645   1.884  1.7775  0.6803 -1.7908
  803MOL0     H 8388   2.007  11.542   2.109  1.6123  0.2948 -2.9844
  803MOL0     H 8389   2.018  11.672   2.732 -1.1349  0.3084 -0.4222
  803MOL0     H 8390   1.899  11.519   2.888  0.0164  2.4139  0.6564
  803MOL0     H 8391   1.020  10.118   2.735  1.8526 -0.8667 -0.4428
  803MOL0     H 8392   0.810  10.181   2.803  2.9241 -3.9003 -1.7612
  803MOL0     H 8393   0.349  10.366   2.795 -0.7491  1.9502 -2.8777
  803MOL0     H 8394   0.159  10.455   2.898 -0.4499 -0.3698  1.9345
  803MOL0     H 8395  -0.013  10.583   2.991  0.5733 -0.9708 -1.2742
  803MOL0     H 8396   0.059  10.481   3.120  3.1033  0.8501 -0.6079
  803MOL0     H 8397  -0.035  10.601   3.294 -2.3894 -0.2260  0.1246
  803MOL0     H 8398  -0.163  10.595   3.178 -0.7489 -1.4857  3.8198
  803MOL0     H 8399  -0.130  10.819   3.097  0.2291 -0.3442 -1.0830
  803MOL0     H 8400  -0.012  10.854   3.234 -1.7354  2.7805 -0.2527
  803MOL0     H 8401  -0.298  10.783   3.244 -1.0273  2.2033  0.1995
  803MOL0     H 8402  -0.222  10.938   3.295 -2.8035 -0.0162 -1.3628
  803MOL0     H 8403  -0.175  10.677   3.635  0.6540  1.5006  0.7394
  803MOL0     H 8404   0.408  10.706   3.139 -2.3161 -1.4666  0.4336
  803MOL0     H 8405   0.610  10.623   3.019 -0.4870  3.2398 -1.3552
  804MOL0     O 8406   8.807   3.807   1.744  0.1368  0.0988  0.6727
  804MOL0     C 8407   8.871   3.794   1.639 -0.7473 -0.6017  0.6687
  804MOL0     O 8408   8.906   3.894   1.558 -1.2320  0.2591 -0.0615
  804MOL0     C 8409   8.885   4.019   1.607 -0.5690 -0.7626 -0.3032
  804MOL0     C 8410   8.968   4.078   1.708 -0.3324  0.5993 -0.9912
  804MOL0     C 8411   8.958   4.206   1.757  0.2801  0.8648 -0.6966
  804MOL0     C 8412   8.852   4.288   1.716 -1.2242  0.5196 -0.0751
  804MOL0     O 8413   8.829   4.420   1.747  0.1088 -0.0958 -0.2151
  804MOL0     C 8414   8.920   4.515   1.788 -0.4126  0.2926 -0.3646
  804MOL0     C 8415   8.993   4.586   1.676 -0.8394 -0.0422  0.3046
  804MOL0     C 8416   9.139   4.632   1.721  0.7949  0.3253 -0.0566
  804MOL0     C 8417   9.214   4.718   1.612  1.4411  0.1197 -0.3642
  804MOL0     C 8418   9.359   4.731   1.660  0.4056 -1.5120  0.2344
  804MOL0     C 8419   9.446   4.831   1.587  1.2223  1.1863  0.6697
  804MOL0     C 8420   9.575   4.826   1.664  0.0662 -0.2235  0.6363
  804MOL0     C 8421   9.647   4.954   1.606  0.7775 -0.0131 -0.1371
  804MOL0     N 8422   9.780   4.956   1.658 -1.1678  0.3590  1.1314
  804MOL0     C 8423   9.835   5.047   1.745  0.1986  1.0149 -0.7462
  804MOL0     C 8424   9.968   5.026   1.745  0.5375  0.2134 -0.6203
  804MOL0     C 8425  10.080   5.106   1.815  0.9808 -0.1244  1.0524
  804MOL0     C 8426  10.127   5.215   1.712  0.5432 -0.2196 -0.1374
  804MOL0     C 8427  10.034   5.338   1.689 -0.9096 -0.7565 -0.8064
  804MOL0     C 8428  10.022   5.422   1.817 -0.2192  0.2429  0.2665
  804MOL0     O 8429   9.927   5.523   1.788  0.2166 -0.0741 -0.5691
  804MOL0     C 8430   9.900   5.608   1.886 -0.0590 -0.4841  0.6868
  804MOL0     C 8431   9.928   5.588   2.024 -0.0129 -0.2359 -0.4355
  804MOL0     C 8432   9.889   5.687   2.115 -0.1730 -0.6804  0.6076
  804MOL0     C 8433   9.915   5.662   2.258  0.3242 -1.0807 -0.7369
  804MOL0     C 8434   9.829   5.804   2.071 -0.8065  0.2556 -0.0062
  804MOL0     C 8435   9.792   5.923   2.165 -0.1749 -0.8207  0.8043
  804MOL0     O 8436   9.694   6.013   2.113 -0.3124 -0.1746  0.2081
  804MOL0     C 8437   9.686   6.136   2.167  0.1954  0.2086  0.4138
  804MOL0     C 8438   9.779   6.234   2.138 -0.1776 -0.4470  1.1383
  804MOL0     C 8439   9.790   6.361   2.203 -0.1468  0.8426 -0.7132
  804MOL0     C 8440   9.700   6.391   2.301  0.2546 -0.3077 -0.1976
  804MOL0     O 8441   9.731   6.514   2.354  0.3379 -0.2191  0.2927
  804MOL0     C 8442   9.705   6.524   2.495  0.1472 -0.3694  0.6327
  804MOL0     C 8443   9.801   6.438   2.581  0.8845  0.2518  0.2772
  804MOL0     C 8444   9.813   6.502   2.719 -0.0618  0.2493  0.3771
  804MOL0     C 8445   9.902   6.411   2.810 -0.2220  0.2863  0.4476
  804MOL0     C 8446   9.921   6.458   2.951 -0.2783  0.2793  0.5715
  804MOL0     C 8447   9.801   6.416   3.039 -0.0035 -0.5719  0.9435
  804MOL0     C 8448   9.853   6.422   3.182 -0.3402  0.8585 -0.6428
  804MOL0     C 8449   9.752   6.355   3.276 -0.9693 -0.2454  0.8264
  804MOL0    Cl 8450   9.749   6.185   3.243  0.0390  0.1196  0.4160
  804MOL0     C 8451   9.601   6.291   2.335  0.0657  0.1759 -0.1101
  804MOL0     C 8452   9.604   6.165   2.272  0.1902 -0.2314 -0.1347
  804MOL0     O 8453   9.847   5.938   2.280 -0.5893 -0.1287 -0.3059
  804MOL0     C 8454   9.804   5.819   1.933  0.4688  0.7126  0.2044
  804MOL0     C 8455   9.832   5.714   1.849 -0.1170 -0.0894 -0.5484
  804MOL0     N 8456   9.992   4.918   1.659 -1.2045 -0.2096 -0.3984
  804MOL0     N 8457   9.880   4.876   1.609  0.1566  0.1197  0.4297
  804MOL0     C 8458   8.764   4.230   1.631  0.1067 -1.0677 -0.7582
  804MOL0     C 8459   8.775   4.103   1.571  0.0148  1.1584 -0.1008
  804MOL0     C 8460   8.905   3.663   1.592 -0.1709 -0.3234 -0.9733
  804MOL0     C 8461   8.925   3.651   1.458  0.0603 -0.5383 -0.3512
  804MOL0     C 8462   8.942   3.530   1.398 -0.0823 -0.3653  0.7243
  804MOL0     C 8463   8.952   3.416   1.474 -0.0426 -0.9606 -0.5783
  804MOL0     O 8464   8.948   3.284   1.428 -0.3990 -0.0466  0.9720
  804MOL0     C 8465   8.980   3.271   1.288 -0.3972  0.1960 -0.4803
  804MOL0     C 8466   9.129   3.313   1.265 -0.5409 -0.2371  0.5899
  804MOL0     C 8467   9.170   3.268   1.122  0.6635 -0.0441 -0.0350
  804MOL0     C 8468   9.296   3.185   1.108  0.7237  0.5152  0.1767
  804MOL0     C 8469   9.421   3.248   1.158 -0.3426  0.4723 -1.3451
  804MOL0     C 8470   9.528   3.302   1.182  0.0205  0.2047 -0.2452
  804MOL0     C 8471   8.936   3.429   1.611 -0.2284  0.1097 -1.4712
  804MOL0     C 8472   8.910   3.553   1.671 -0.1987  0.1160 -0.5806
  804MOL0     H 8473   9.048   4.024   1.757 -0.5747 -0.2822 -1.5377
  804MOL0     H 8474   9.025   4.234   1.838  0.3379  0.6585 -0.6711
  804MOL0     H 8475   8.872   4.582   1.860 -2.9089  0.4839 -2.0622
  804MOL0     H 8476   9.003   4.468   1.842  2.2240  4.6807 -0.1055
  804MOL0     H 8477   9.007   4.526   1.586 -1.2422  0.4704 -0.1018
  804MOL0     H 8478   8.937   4.678   1.657  0.0882  0.3353 -0.7274
  804MOL0     H 8479   9.124   4.691   1.812  1.3796  0.2134  0.1135
  804MOL0     H 8480   9.196   4.542   1.747 -1.2632 -1.3145 -0.9010
  804MOL0     H 8481   9.219   4.664   1.517 -2.1401  0.6616 -1.0017
  804MOL0     H 8482   9.168   4.816   1.602 -0.5145 -0.6298  0.6167
  804MOL0     H 8483   9.364   4.770   1.762  1.2893 -1.0259  0.0153
  804MOL0     H 8484   9.408   4.634   1.652  0.6492 -1.3086 -0.8217
  804MOL0     H 8485   9.445   4.809   1.480  0.9489  4.5187 -0.1091
  804MOL0     H 8486   9.394   4.926   1.601 -0.2307  0.4495  0.5502
  804MOL0     H 8487   9.567   4.841   1.772  4.0018  0.7318  0.9739
  804MOL0     H 8488   9.634   4.739   1.633  1.0070  1.6591 -3.7427
  804MOL0     H 8489   9.595   5.044   1.638  3.2307  0.5187  2.8291
  804MOL0     H 8490   9.655   4.934   1.498 -1.8550 -0.9720 -0.2167
  804MOL0     H 8491   9.792   5.122   1.810  1.1531 -1.0302  2.4450
  804MOL0     H 8492  10.032   5.150   1.903  3.4837 -0.4246  2.6535
  804MOL0     H 8493  10.156   5.034   1.845 -0.0568 -0.1499  3.9941
  804MOL0     H 8494  10.163   5.176   1.616  0.9491  2.0693 -0.9881
  804MOL0     H 8495  10.218   5.264   1.748 -0.8672  3.9339 -1.5201
  804MOL0     H 8496   9.935   5.309   1.654 -0.6474 -0.1781 -2.1151
  804MOL0     H 8497  10.082   5.396   1.609  0.2906 -3.6863 -2.3622
  804MOL0     H 8498  10.118   5.463   1.847  0.9601 -2.3457  0.3415
  804MOL0     H 8499   9.975   5.363   1.897  0.9851  0.2954  1.0237
  804MOL0     H 8500   9.984   5.502   2.060 -0.8863  0.9404  4.3976
  804MOL0     H 8501   9.944   5.558   2.275  1.6895 -0.5981  0.0283
  804MOL0     H 8502   9.989   5.728   2.303 -4.2943  3.1381  1.7192
  804MOL0     H 8503   9.828   5.685   2.320  0.7476 -2.3573  0.3977
  804MOL0     H 8504   9.854   6.211   2.063  0.7152  0.8014  1.5954
  804MOL0     H 8505   9.865   6.429   2.164 -1.5873  1.3422 -2.8135
  804MOL0     H 8506   9.720   6.630   2.517 -2.3141 -0.0074  0.8079
  804MOL0     H 8507   9.601   6.497   2.514  0.3528 -0.9692  0.9272
  804MOL0     H 8508   9.759   6.338   2.594 -0.3701  0.4823 -1.5682
  804MOL0     H 8509   9.890   6.421   2.520  1.4486  2.8147  0.2660
  804MOL0     H 8510   9.715   6.511   2.766 -1.5700 -1.8386 -2.1149
  804MOL0     H 8511   9.855   6.603   2.709 -0.3949  0.3331 -0.1886
  804MOL0     H 8512   9.847   6.317   2.810  1.5193 -0.8082 -1.1008
  804MOL0     H 8513  10.001   6.404   2.764 -0.2115  0.6264  0.4122
  804MOL0     H 8514   9.943   6.565   2.959  1.6899 -0.2334  4.2144
  804MOL0     H 8515  10.018   6.413   2.975 -0.4864 -0.5693 -0.1147
  804MOL0     H 8516   9.723   6.492   3.029  0.9484  0.3698  0.3931
  804MOL0     H 8517   9.768   6.314   3.018  2.7782 -1.0221 -2.1343
  804MOL0     H 8518   9.868   6.527   3.212 -0.0387  0.8145 -0.6333
  804MOL0     H 8519   9.946   6.367   3.198 -1.9699 -1.2194  2.8047
  804MOL0     H 8520   9.651   6.386   3.248  0.0516  0.0329 -3.1497
  804MOL0     H 8521   9.777   6.370   3.382 -2.1698  0.3165  1.0389
  804MOL0     H 8522   9.521   6.314   2.404  1.0574  1.5250  0.6245
  804MOL0     H 8523   9.541   6.084   2.307 -1.7618  1.3423  0.2235
  804MOL0     H 8524   9.751   5.906   1.896 -2.7571 -1.8631 -1.8547
  804MOL0     H 8525   9.794   5.713   1.748 -0.0679 -2.1325 -0.5903
  804MOL0     H 8526   8.680   4.295   1.608  2.4615  2.5645  0.1003
  804MOL0     H 8527   8.698   4.061   1.508  2.6487 -4.9871  0.1307
  804MOL0     H 8528   8.915   3.729   1.383  0.2696 -2.5853 -2.6135
  804MOL0     H 8529   8.959   3.523   1.291 -1.1271  1.6731  0.3805
  804MOL0     H 8530   8.964   3.166   1.263  2.4238  0.0131 -1.9432
  804MOL0     H 8531   8.914   3.331   1.225 -0.4665  1.0641  0.3854
  804MOL0     H 8532   9.191   3.264   1.340 -0.8020 -0.5789  0.5902
  804MOL0     H 8533   9.147   3.421   1.261 -0.0805 -0.3340 -0.1103
  804MOL0     H 8534   9.169   3.355   1.056  0.3457 -1.3270 -1.7997
  804MOL0     H 8535   9.090   3.203   1.085  2.7844 -1.6821 -2.0889
  804MOL0     H 8536   9.295   3.168   1.000  1.4808  3.4173 -0.3845
  804MOL0     H 8537   9.283   3.091   1.162  0.1784  0.5450  0.0969
  804MOL0     H 8538   9.627   3.333   1.206  0.6006 -0.6713 -1.4496
  804MOL0     H 8539   8.936   3.340   1.674 -2.3386  0.7184 -0.5246
  804MOL0     H 8540   8.916   3.554   1.779  0.3276 -1.5373 -0.5563
  805MOL0     O 8541   2.266   6.442  11.193  0.0107  0.1094  0.5939
  805MOL0     C 8542   2.383   6.408  11.204 -0.3333 -0.4867 -0.6562
  805MOL0     O 8543   2.441   6.323  11.299  0.6526  0.4304  0.7534
  805MOL0     C 8544   2.356   6.253  11.381  0.3069  0.1871 -0.8156
  805MOL0     C 8545   2.345   6.283  11.520 -0.9698 -0.1841 -0.0255
  805MOL0     C 8546   2.251   6.212  11.606  0.2852  0.2706 -0.0400
  805MOL0     C 8547   2.167   6.111  11.556  1.0027 -0.1053 -0.9237
  805MOL0     O 8548   2.089   6.042  11.652  0.0516 -0.3171  0.6095
  805MOL0     C 8549   2.008   5.937  11.612  0.6193  0.0087  0.6057
  805MOL0     C 8550   1.920   5.881  11.724 -0.5484 -0.1612 -1.3017
  805MOL0     C 8551   1.855   5.732  11.704  0.6117  0.2435  0.0247
  805MOL0     C 8552   1.780   5.706  11.826 -0.0719  0.4321 -0.2286
  805MOL0     C 8553   1.740   5.556  11.833 -0.1082 -0.4059  0.3893
  805MOL0     C 8554   1.653   5.533  11.957 -0.6664  1.8116  0.4854
  805MOL0     C 8555   1.622   5.394  11.977  0.7462  0.3938  0.1552
  805MOL0     C 8556   1.560   5.363  12.117 -0.1959 -0.3627 -0.4615
  805MOL0     N 8557   1.646   5.399  12.240  0.0000  0.0903 -0.1386
  805MOL0     C 8558   1.627   5.517  12.313 -0.9578 -0.6763  0.0867
  805MOL0     C 8559   1.731   5.524  12.397  0.5014  1.1678 -0.2685
  805MOL0     C 8560   1.755   5.639  12.488 -0.4581  0.1051  0.7252
  805MOL0     C 8561   1.709   5.621  12.628 -0.3551 -0.0791  0.5254
  805MOL0     C 8562   1.555   5.614  12.649  0.5926 -0.5343 -0.9565
  805MOL0     C 8563   1.511   5.465  12.650  0.0095 -0.1616  0.0765
  805MOL0     O 8564   1.373   5.453  12.684 -0.1042 -0.0136 -0.8456
  805MOL0     C 8565   1.269   5.437  12.593  0.3399  0.5072  0.3791
  805MOL0     C 8566   1.137   5.396  12.629 -0.3337  0.1852  0.3919
  805MOL0     C 8567   1.032   5.394  12.531  0.3660  0.0885 -0.2789
  805MOL0     C 8568   0.892   5.335  12.564  0.7684  0.1285  0.1105
  805MOL0     C 8569   1.063   5.432  12.401 -0.9171 -0.0509  0.3459
  805MOL0     C 8570   0.955   5.440  12.305  0.8734 -0.2240 -0.1146
  805MOL0     O 8571   0.862   5.531  12.317 -0.1337  0.2035  0.2077
  805MOL0     C 8572   0.798   5.587  12.209 -1.2856  0.3134  0.0251
  805MOL0     C 8573   0.876   5.665  12.125  0.0925  0.0056  0.4317
  805MOL0     C 8574   0.808   5.730  12.013  0.3857  0.0675 -0.7291
  805MOL0     C 8575   0.674   5.703  11.989 -0.6915  0.4297 -0.5782
  805MOL0     O 8576   0.600   5.769  11.897  0.5231  0.3713  0.2159
  805MOL0     C 8577   0.538   5.893  11.944  0.6855  0.4466 -0.3281
  805MOL0     C 8578   0.434   5.949  11.852  0.0729 -0.2979  0.0014
  805MOL0     C 8579   0.489   5.988  11.717 -0.1351 -0.9622  0.1541
  805MOL0     C 8580   0.383   6.029  11.626 -0.6182 -0.0343  0.9747
  805MOL0     C 8581   0.435   6.034  11.475 -0.4037  0.1865 -0.3999
  805MOL0     C 8582   0.548   6.139  11.464 -0.5928 -0.2321 -0.3364
  805MOL0     C 8583   0.599   6.145  11.320  0.5117  0.1374 -0.9142
  805MOL0     C 8584   0.679   6.273  11.278  0.4865  0.5134  0.0514
  805MOL0    Cl 8585   0.846   6.252  11.336  0.4039  0.3681  0.3522
  805MOL0     C 8586   0.608   5.617  12.077  0.5629 -0.4178 -0.4765
  805MOL0     C 8587   0.669   5.559  12.186 -0.9570 -0.3535  0.8359
  805MOL0     O 8588   0.970   5.359  12.217 -1.2174  0.0515 -0.1225
  805MOL0     C 8589   1.188   5.451  12.364 -0.3134 -0.2132  0.2580
  805MOL0     C 8590   1.286   5.472  12.459 -0.7769  0.0420  0.0646
  805MOL0     N 8591   1.804   5.405  12.380 -0.3338 -0.3882  0.1936
  805MOL0     N 8592   1.756   5.327  12.288  0.8142 -0.1584  0.0138
  805MOL0     C 8593   2.173   6.090  11.418  0.7691  0.1794  0.2945
  805MOL0     C 8594   2.266   6.156  11.333 -0.4463  0.7536  0.0718
  805MOL0     C 8595   2.478   6.468  11.105  0.1469  0.6157  0.5975
  805MOL0     C 8596   2.435   6.549  10.996 -0.2252  0.2587  0.0992
  805MOL0     C 8597   2.522   6.576  10.896 -0.2855  0.0164 -0.5265
  805MOL0     C 8598   2.651   6.540  10.907 -1.3356 -0.2074  0.0812
  805MOL0     O 8599   2.734   6.573  10.805  0.4404 -0.6017 -0.4102
  805MOL0     C 8600   2.873   6.619  10.845  0.1268 -0.9592  0.0564
  805MOL0     C 8601   2.905   6.743  10.764  1.0543  0.6380 -0.0202
  805MOL0     C 8602   2.802   6.860  10.776  1.0445 -0.2317 -0.4859
  805MOL0     C 8603   2.815   6.970  10.682 -0.1505 -0.2987  0.1627
  805MOL0     C 8604   2.884   7.083  10.745  0.8232 -0.6598 -0.8360
  805MOL0     C 8605   2.936   7.175  10.791  0.0586  0.2430  1.0664
  805MOL0     C 8606   2.701   6.457  11.004  0.7993  0.0459  0.1377
  805MOL0     C 8607   2.611   6.422  11.109 -0.0673  0.1136 -0.6372
  805MOL0     H 8608   2.396   6.366  11.566 -1.4451  0.0720  0.0368
  805MOL0     H 8609   2.243   6.228  11.713 -1.7277 -0.9598  0.0359
  805MOL0     H 8610   1.941   5.963  11.530 -0.0809 -0.1722  1.1101
  805MOL0     H 8611   2.071   5.850  11.590 -0.3330 -1.5318  3.4898
  805MOL0     H 8612   1.975   5.890  11.819 -3.2579  4.2205  0.1844
  805MOL0     H 8613   1.843   5.956  11.746  0.6093  0.0689  2.8505
  805MOL0     H 8614   1.778   5.729  11.627 -1.9100 -1.2343  2.4431
  805MOL0     H 8615   1.928   5.651  11.694 -1.1198 -1.5220  0.8972
  805MOL0     H 8616   1.859   5.708  11.902  2.7155 -2.6085 -2.7252
  805MOL0     H 8617   1.695   5.765  11.862 -0.3510 -0.5154  0.7169
  805MOL0     H 8618   1.676   5.542  11.745 -1.2671 -5.1035  1.7086
  805MOL0     H 8619   1.830   5.493  11.830  1.5226  1.8338 -0.7688
  805MOL0     H 8620   1.718   5.572  12.035  0.1904  1.5388 -0.0807
  805MOL0     H 8621   1.563   5.595  11.960 -0.1941  2.4606  1.8425
  805MOL0     H 8622   1.558   5.351  11.900 -1.5179  3.0462  0.4266
  805MOL0     H 8623   1.713   5.333  11.971 -0.4897 -1.4227 -1.1840
  805MOL0     H 8624   1.529   5.259  12.130  0.0904 -0.2593  1.3185
  805MOL0     H 8625   1.467   5.418  12.131 -0.1367 -0.8400  2.3682
  805MOL0     H 8626   1.553   5.594  12.295  0.3557  0.3500 -1.1392
  805MOL0     H 8627   1.861   5.665  12.488 -0.2980 -0.3018 -1.5345
  805MOL0     H 8628   1.706   5.720  12.432  0.0799 -1.0972 -1.6210
  805MOL0     H 8629   1.753   5.712  12.671 -0.3515  0.1401  0.0637
  805MOL0     H 8630   1.765   5.545  12.682  2.8685  3.4201  2.6316
  805MOL0     H 8631   1.507   5.665  12.564  0.4355  0.9811 -0.0057
  805MOL0     H 8632   1.528   5.670  12.739  2.0754 -0.4194 -0.5571
  805MOL0     H 8633   1.572   5.420  12.728  0.7091  1.9502  0.8232
  805MOL0     H 8634   1.535   5.408  12.559 -1.7848  0.6973 -1.0004
  805MOL0     H 8635   1.118   5.365  12.731  2.3307 -2.4159  0.2278
  805MOL0     H 8636   0.859   5.265  12.486 -1.0614  1.9061 -0.8079
  805MOL0     H 8637   0.917   5.273  12.650  0.6365 -0.5742 -0.3447
  805MOL0     H 8638   0.812   5.409  12.564  1.2535  0.9534 -4.1691
  805MOL0     H 8639   0.982   5.685  12.141 -0.0417 -0.3605  1.8596
  805MOL0     H 8640   0.860   5.800  11.948  2.9503  0.4740  1.5705
  805MOL0     H 8641   0.473   5.871  12.028  1.6269 -3.4414 -0.4520
  805MOL0     H 8642   0.608   5.973  11.971 -2.3878  2.5121  2.0950
  805MOL0     H 8643   0.372   5.865  11.818 -1.2595  1.1246 -1.2800
  805MOL0     H 8644   0.378   6.027  11.905 -0.0011 -0.0795 -0.3943
  805MOL0     H 8645   0.541   5.898  11.682 -1.0731 -1.2507 -0.5301
  805MOL0     H 8646   0.554   6.075  11.731  0.6959 -1.6419  0.6331
  805MOL0     H 8647   0.297   5.963  11.640 -1.1154  0.9053  2.5727
  805MOL0     H 8648   0.348   6.127  11.657 -0.2913  0.3383  0.2020
  805MOL0     H 8649   0.343   6.048  11.418  0.0323 -0.2558 -1.2233
  805MOL0     H 8650   0.484   5.939  11.450  0.4120 -0.2433  2.4695
  805MOL0     H 8651   0.510   6.239  11.487 -1.5716 -0.8069  0.6572
  805MOL0     H 8652   0.640   6.126  11.522 -0.7047  0.2116 -0.0518
  805MOL0     H 8653   0.523   6.142  11.242 -0.6553  0.7983  0.1608
  805MOL0     H 8654   0.662   6.057  11.303  1.3155  0.3373  0.8078
  805MOL0     H 8655   0.641   6.369  11.314 -1.1604 -0.5428  1.2852
  805MOL0     H 8656   0.686   6.277  11.169 -1.4913  0.6700 -0.1098
  805MOL0     H 8657   0.501   5.601  12.069  0.9205 -2.9276 -1.0277
  805MOL0     H 8658   0.622   5.499  12.263  1.6986  0.2947  3.1280
  805MOL0     H 8659   1.202   5.488  12.262 -0.5880 -0.5129  0.1126
  805MOL0     H 8660   1.380   5.520  12.431 -0.9906  0.3064 -0.2140
  805MOL0     H 8661   2.111   6.017  11.368  1.9676  1.4188 -3.3143
  805MOL0     H 8662   2.293   6.114  11.237  1.7919 -0.8880  1.2971
  805MOL0     H 8663   2.333   6.584  10.982  0.8937  3.2315 -1.2823
  805MOL0     H 8664   2.489   6.630  10.809 -1.7688 -0.4806 -0.2962
  805MOL0     H 8665   2.872   6.642  10.952 -2.6144 -0.4943  0.0081
  805MOL0     H 8666   2.945   6.541  10.817 -0.3954 -0.7202 -2.1017
  805MOL0     H 8667   2.911   6.704  10.661 -2.0063 -0.5847  0.1713
  805MOL0     H 8668   3.000   6.772  10.811  1.1085 -0.7871  0.7951
  805MOL0     H 8669   2.813   6.891  10.880  0.4812  1.0286 -0.7853
  805MOL0     H 8670   2.702   6.817  10.762  0.6803  0.8290 -1.3190
  805MOL0     H 8671   2.716   7.009  10.654  0.2073  1.2603  0.9716
  805MOL0     H 8672   2.865   6.932  10.593 -1.2502 -1.4568  0.0051
  805MOL0     H 8673   2.977   7.258  10.845 -1.4494  0.6550  1.6423
  805MOL0     H 8674   2.801   6.415  10.990  0.7650  0.9684 -4.5626
  805MOL0     H 8675   2.655   6.356  11.182 -2.9560  1.3188  2.4873
  806MOL0     O 8676   1.126   5.380  11.308  0.2421  0.3396  0.3384
  806MOL0     C 8677   1.107   5.363  11.194  0.4674 -0.2479 -0.2478
  806MOL0     O 8678   1.074   5.251  11.132  0.4311 -0.0528 -0.8535
  806MOL0     C 8679   1.069   5.140  11.214 -0.7083  0.7001  0.3408
  806MOL0     C 8680   1.179   5.047  11.226  0.7068 -0.7341  0.0455
  806MOL0     C 8681   1.171   4.944  11.320 -0.4625 -0.1140  1.0075
  806MOL0     C 8682   1.057   4.921  11.393  0.1747  0.7774 -0.1091
  806MOL0     O 8683   1.047   4.830  11.494 -0.1773  0.0212  0.2240
  806MOL0     C 8684   1.006   4.875  11.623  0.2537  0.2985 -0.0606
  806MOL0     C 8685   0.872   4.797  11.671 -0.5979  0.0444  0.2199
  806MOL0     C 8686   0.752   4.799  11.575 -1.1695  0.2511  0.1564
  806MOL0     C 8687   0.676   4.668  11.606  0.2224  0.1752 -0.0665
  806MOL0     C 8688   0.535   4.662  11.542 -0.1387  0.6410  0.1302
  806MOL0     C 8689   0.433   4.555  11.587 -0.0710 -0.4411  0.1639
  806MOL0     C 8690   0.500   4.428  11.614 -0.2671  0.5502 -0.5678
  806MOL0     C 8691   0.407   4.304  11.592  1.0420  0.1833 -0.8599
  806MOL0     N 8692   0.455   4.168  11.603  0.6297 -0.2628  0.4951
  806MOL0     C 8693   0.549   4.130  11.693 -0.0262  1.3479 -0.4978
  806MOL0     C 8694   0.584   4.002  11.649  0.4843 -0.3448 -0.2330
  806MOL0     C 8695   0.684   3.921  11.711 -0.2660 -0.6774 -0.0353
  806MOL0     C 8696   0.833   3.961  11.671 -0.6920  0.2761  0.2237
  806MOL0     C 8697   0.930   3.869  11.737 -0.2637 -0.3956 -0.2464
  806MOL0     C 8698   1.072   3.912  11.711 -0.4307  0.9527 -0.2411
  806MOL0     O 8699   1.129   3.948  11.838 -0.6630 -0.4645 -0.1117
  806MOL0     C 8700   1.180   3.840  11.912 -0.9128 -0.1602  0.8936
  806MOL0     C 8701   1.194   3.708  11.872 -0.7914 -0.2441  0.3418
  806MOL0     C 8702   1.257   3.602  11.942  0.5311  0.1079  1.1488
  806MOL0     C 8703   1.261   3.468  11.882 -0.9528  0.3705  0.4565
  806MOL0     C 8704   1.316   3.641  12.066  0.9262  0.0637 -0.1323
  806MOL0     C 8705   1.377   3.543  12.166 -0.6625  0.1343  0.2059
  806MOL0     O 8706   1.413   3.601  12.279 -0.7919  0.5413  0.4866
  806MOL0     C 8707   1.418   3.530  12.398  0.7217 -0.2868  0.4375
  806MOL0     C 8708   1.349   3.414  12.427  0.0866 -0.2064  0.0015
  806MOL0     C 8709   1.362   3.364  12.563  0.3893 -0.5302 -0.6170
  806MOL0     C 8710   1.432   3.420  12.670  0.2827  0.2191 -0.7696
  806MOL0     O 8711   1.423   3.376  12.796 -0.0276 -0.9797  0.6490
  806MOL0     C 8712   1.288   3.341  12.841  0.7375  0.3340  0.3845
  806MOL0     C 8713   1.202   3.449  12.907  1.5348  0.5348  0.2692
  806MOL0     C 8714   1.217   3.480  13.051  0.8919  0.1863 -0.1585
  806MOL0     C 8715   1.345   3.561  13.080 -0.1708  0.8364  1.0695
  806MOL0     C 8716   1.345   3.590  13.223 -0.2723 -0.2294 -0.2397
  806MOL0     C 8717   1.255   3.707  13.280  0.3166  0.1014 -0.2265
  806MOL0     C 8718   1.229   3.682  13.427 -0.0659  0.2938 -0.3899
  806MOL0     C 8719   1.339   3.725  13.527  0.4516  0.7923  0.6313
  806MOL0    Cl 8720   1.306   3.651  13.690  0.8227 -0.2385  0.4042
  806MOL0     C 8721   1.499   3.534  12.632  0.2732  0.1704  0.4972
  806MOL0     C 8722   1.496   3.595  12.500 -0.3313  0.3551 -0.9003
  806MOL0     O 8723   1.394   3.424  12.140 -0.3865 -0.6294 -0.0114
  806MOL0     C 8724   1.299   3.771  12.106 -0.1335 -0.0799  0.7365
  806MOL0     C 8725   1.234   3.867  12.033 -1.3628  0.6320 -0.0907
  806MOL0     N 8726   0.519   3.974  11.530 -0.1061  0.3367 -0.1776
  806MOL0     N 8727   0.431   4.071  11.515  0.8204  0.7651 -0.7857
  806MOL0     C 8728   0.939   5.000  11.361  0.1200  0.1633 -0.7593
  806MOL0     C 8729   0.948   5.108  11.277 -0.5984  0.0874 -0.0844
  806MOL0     C 8730   1.133   5.478  11.102 -1.1643  0.2688 -0.1521
  806MOL0     C 8731   1.165   5.457  10.962 -0.8488  1.0611 -0.3062
  806MOL0     C 8732   1.178   5.565  10.877  1.3774 -0.2568 -0.8034
  806MOL0     C 8733   1.158   5.698  10.910 -0.3136  0.1602  0.3390
  806MOL0     O 8734   1.165   5.786  10.807 -0.2286  0.3139 -0.6409
  806MOL0     C 8735   1.115   5.921  10.829  0.7866 -0.2354  0.1466
  806MOL0     C 8736   1.134   5.999  10.701 -0.1274  0.3660  0.5325
  806MOL0     C 8737   1.089   6.153  10.708 -0.2547  1.1451  0.2149
  806MOL0     C 8738   0.930   6.179  10.685 -0.0309 -0.3055  0.0261
  806MOL0     C 8739   0.875   6.139  10.555 -0.1842  0.1707  0.2309
  806MOL0     C 8740   0.841   6.119  10.442 -1.0852 -0.1114  0.4509
  806MOL0     C 8741   1.145   5.722  11.043 -0.3920 -0.9815 -0.5512
  806MOL0     C 8742   1.124   5.620  11.135 -0.1062  0.5269 -0.0689
  806MOL0     H 8743   1.270   5.070  11.172  0.0572  4.5503  0.6688
  806MOL0     H 8744   1.257   4.879  11.328 -0.2287 -0.3614 -2.1461
  806MOL0     H 8745   1.084   4.843  11.693  1.0521 -0.6835 -1.3396
  806MOL0     H 8746   0.997   4.983  11.637 -2.2701  0.0722  0.5096
  806MOL0     H 8747   0.900   4.697  11.705  0.3884  0.0992 -0.3899
  806MOL0     H 8748   0.832   4.855  11.754  1.7471  1.8086  0.1850
  806MOL0     H 8749   0.681   4.880  11.591  0.0381  1.0041  2.0931
  806MOL0     H 8750   0.770   4.815  11.468 -3.4497 -0.4799 -0.4031
  806MOL0     H 8751   0.740   4.591  11.562  2.0640 -0.5620  3.5270
  806MOL0     H 8752   0.677   4.650  11.714  0.7975 -2.4514 -0.4528
  806MOL0     H 8753   0.484   4.758  11.551 -1.3603 -0.0796  1.1362
  806MOL0     H 8754   0.547   4.646  11.434  0.8757  0.5763  0.2449
  806MOL0     H 8755   0.395   4.591  11.683 -1.6559  1.3748 -1.0677
  806MOL0     H 8756   0.355   4.537  11.513 -1.2529 -2.6360  1.8293
  806MOL0     H 8757   0.585   4.422  11.546  0.9570  0.2414  0.9284
  806MOL0     H 8758   0.536   4.422  11.718  0.2194 -0.0397 -0.7661
  806MOL0     H 8759   0.350   4.305  11.499 -1.1840 -1.9611  0.3607
  806MOL0     H 8760   0.326   4.305  11.665 -0.5595  1.7483 -2.5668
  806MOL0     H 8761   0.588   4.183  11.779  3.0738 -1.9131  0.3931
  806MOL0     H 8762   0.686   3.925  11.820  1.6941  2.6239 -0.0771
  806MOL0     H 8763   0.663   3.817  11.682 -1.9440 -0.5110  0.4426
  806MOL0     H 8764   0.845   4.066  11.701  0.5762 -0.2647  1.7886
  806MOL0     H 8765   0.857   3.951  11.565 -1.3764  5.2125 -0.6273
  806MOL0     H 8766   0.909   3.763  11.722  1.0362 -1.4659  4.1464
  806MOL0     H 8767   0.904   3.880  11.843  1.1063  1.0516 -0.0291
  806MOL0     H 8768   1.080   3.995  11.641 -1.4585 -1.2720 -3.1809
  806MOL0     H 8769   1.122   3.832  11.655 -1.1434  1.0777 -1.0688
  806MOL0     H 8770   1.145   3.673  11.781 -2.5687 -0.0030  1.1659
  806MOL0     H 8771   1.264   3.389  11.957  2.2117  0.9058  1.0028
  806MOL0     H 8772   1.179   3.451  11.811 -0.2235 -0.8094 -0.1416
  806MOL0     H 8773   1.350   3.462  11.819 -1.0847 -0.1698  0.3141
  806MOL0     H 8774   1.283   3.374  12.351 -0.1633  1.0182 -0.4321
  806MOL0     H 8775   1.306   3.271  12.564  1.4551 -1.1994  0.5652
  806MOL0     H 8776   1.225   3.303  12.760  0.8912  0.2101  0.3219
  806MOL0     H 8777   1.288   3.258  12.912 -2.4463  1.7489  2.2755
  806MOL0     H 8778   1.210   3.549  12.862 -0.3384  0.3964 -0.4671
  806MOL0     H 8779   1.100   3.409  12.909  2.5397 -2.2278 -0.1679
  806MOL0     H 8780   1.211   3.396  13.121  0.2051  0.7029  0.4127
  806MOL0     H 8781   1.131   3.541  13.082  0.1933 -1.4326  1.2858
  806MOL0     H 8782   1.437   3.519  13.040  1.3166  2.9674  2.0371
  806MOL0     H 8783   1.332   3.653  13.023 -0.6731 -0.6028 -1.2655
  806MOL0     H 8784   1.448   3.604  13.255  0.8225 -2.5672 -2.3910
  806MOL0     H 8785   1.313   3.499  13.275  3.0181 -0.8911  0.8168
  806MOL0     H 8786   1.314   3.799  13.268 -0.1108  0.4252  0.1117
  806MOL0     H 8787   1.159   3.704  13.227  0.7391  0.2697 -1.0226
  806MOL0     H 8788   1.199   3.582  13.458 -1.9463  1.8463  3.4671
  806MOL0     H 8789   1.136   3.735  13.451  0.5468  2.8616 -3.1333
  806MOL0     H 8790   1.341   3.834  13.534  0.5043  0.7951  0.5622
  806MOL0     H 8791   1.435   3.680  13.502  1.2770  2.8326 -0.0080
  806MOL0     H 8792   1.552   3.594  12.705  0.6409 -0.0087  0.3819
  806MOL0     H 8793   1.552   3.685  12.479  0.5496  0.4399  1.4999
  806MOL0     H 8794   1.348   3.804  12.197  4.3507  1.0607 -1.7893
  806MOL0     H 8795   1.216   3.968  12.068 -0.3451  0.5783  0.6259
  806MOL0     H 8796   0.840   4.980  11.400  1.5934 -1.7672  2.4175
  806MOL0     H 8797   0.863   5.166  11.243 -1.8891 -2.0923 -0.7526
  806MOL0     H 8798   1.185   5.355  10.929  1.4199  0.7893  1.6020
  806MOL0     H 8799   1.189   5.553  10.769 -0.8006 -0.9612 -0.9799
  806MOL0     H 8800   1.011   5.929  10.863 -0.9851 -1.2081 -4.3732
  806MOL0     H 8801   1.186   5.967  10.899  0.9218  0.5399 -0.4799
  806MOL0     H 8802   1.087   5.951  10.615  1.5710  0.2527 -0.3826
  806MOL0     H 8803   1.241   5.994  10.677 -0.3029 -0.0972 -0.1714
  806MOL0     H 8804   1.153   6.208  10.638  0.4371  0.8933  0.6395
  806MOL0     H 8805   1.124   6.195  10.803  1.8133 -0.5086  0.2482
  806MOL0     H 8806   0.901   6.284  10.694  1.0208  0.0448 -0.5443
  806MOL0     H 8807   0.878   6.131  10.769 -2.1120  3.3527  1.0868
  806MOL0     H 8808   0.825   6.107  10.337 -0.2389  0.4584  0.2451
  806MOL0     H 8809   1.130   5.825  11.074  4.4722 -0.8112  2.3988
  806MOL0     H 8810   1.100   5.642  11.239  0.4278 -2.9783  0.9204
  807MOL0     O 8811   8.037   1.282   2.876 -0.1678  0.6176 -0.5577
  807MOL0     C 8812   8.004   1.163   2.901 -0.3462  1.3200  0.2712
  807MOL0     O 8813   7.992   1.062   2.806 -0.3696  0.3716  1.3318
  807MOL0     C 8814   8.041   1.091   2.676  0.0110  0.3564 -0.4662
  807MOL0     C 8815   7.979   1.035   2.567 -0.0886  0.5276 -0.1316
  807MOL0     C 8816   8.013   1.054   2.435  0.0602 -1.2945 -0.4510
  807MOL0     C 8817   8.123   1.135   2.411  0.1387 -0.1577 -0.0250
  807MOL0     O 8818   8.173   1.145   2.280 -0.2730 -0.5616  0.1338
  807MOL0     C 8819   8.071   1.108   2.177 -1.0945 -0.4882 -0.2860
  807MOL0     C 8820   8.129   1.159   2.040 -0.0489  0.0184 -1.2873
  807MOL0     C 8821   8.102   1.301   1.998  0.1226 -0.6106  0.1018
  807MOL0     C 8822   8.143   1.333   1.863 -0.8504 -0.4419 -0.1179
  807MOL0     C 8823   8.100   1.480   1.825  0.1745 -0.1940 -0.7737
  807MOL0     C 8824   8.126   1.519   1.675  0.0016 -0.3597 -0.1609
  807MOL0     C 8825   8.103   1.415   1.572 -0.9665  0.9508  0.2099
  807MOL0     C 8826   8.107   1.478   1.427 -0.2105  0.7155 -0.0273
  807MOL0     N 8827   7.974   1.493   1.366 -0.5487 -0.1635  0.2910
  807MOL0     C 8828   7.883   1.574   1.419  0.1225 -0.2773  0.3782
  807MOL0     C 8829   7.771   1.544   1.340 -0.2551 -0.1240  0.4177
  807MOL0     C 8830   7.643   1.608   1.336  0.0817 -0.3139  0.5066
  807MOL0     C 8831   7.567   1.597   1.460  0.6214  0.6900  0.3909
  807MOL0     C 8832   7.438   1.675   1.461  0.2656 -0.0192 -0.3333
  807MOL0     C 8833   7.386   1.705   1.606  0.9280  0.0436  1.0321
  807MOL0     O 8834   7.354   1.598   1.697  0.1055  0.0615 -0.3283
  807MOL0     C 8835   7.262   1.509   1.649  0.2794  0.2120  0.0688
  807MOL0     C 8836   7.268   1.371   1.679  0.6045 -0.9385 -1.0491
  807MOL0     C 8837   7.172   1.277   1.645  1.4253  0.1452 -0.1253
  807MOL0     C 8838   7.189   1.129   1.683  0.0528 -0.3215 -0.1814
  807MOL0     C 8839   7.065   1.319   1.565 -0.4203  0.0402  0.1704
  807MOL0     C 8840   6.945   1.242   1.526 -0.2829  0.5927 -0.4201
  807MOL0     O 8841   6.873   1.191   1.630 -0.3279 -0.4017  0.6261
  807MOL0     C 8842   6.778   1.101   1.605 -0.9111 -0.5606  0.3372
  807MOL0     C 8843   6.686   1.117   1.504  0.5314 -0.5535 -0.2429
  807MOL0     C 8844   6.590   1.023   1.478 -0.1299 -0.5841 -0.4416
  807MOL0     C 8845   6.587   0.907   1.554  0.6176 -0.1111  0.3468
  807MOL0     O 8846   6.499   0.802   1.540 -0.5827  0.2530 -0.4437
  807MOL0     C 8847   6.421   0.802   1.420 -0.3099 -0.2077 -0.2170
  807MOL0     C 8848   6.357   0.662   1.427 -0.0910  0.1720 -0.6472
  807MOL0     C 8849   6.239   0.645   1.517 -0.1116  0.3826 -0.2424
  807MOL0     C 8850   6.274   0.666   1.659 -0.4094 -0.0207  0.1965
  807MOL0     C 8851   6.154   0.633   1.746  0.6957  0.0971  0.1485
  807MOL0     C 8852   6.113   0.478   1.758 -0.2948  0.3303 -0.1202
  807MOL0     C 8853   6.061   0.453   1.898  1.1860  0.0709 -0.3683
  807MOL0     C 8854   6.014   0.310   1.916  0.0561 -0.4402 -0.8193
  807MOL0    Cl 8855   5.872   0.274   1.812 -0.1795 -0.0626  0.0737
  807MOL0     C 8856   6.683   0.883   1.657  0.7510 -0.9581 -0.1495
  807MOL0     C 8857   6.779   0.980   1.676  0.0566 -1.3229  0.6683
  807MOL0     O 8858   6.924   1.235   1.406  0.0057 -0.1493 -0.1288
  807MOL0     C 8859   7.066   1.454   1.517 -0.2596 -0.1007 -0.1811
  807MOL0     C 8860   7.159   1.554   1.563  0.6589  0.7190 -0.0666
  807MOL0     N 8861   7.816   1.463   1.238 -0.0020  0.0230 -0.4694
  807MOL0     N 8862   7.939   1.436   1.248  1.5595  1.0886 -0.5630
  807MOL0     C 8863   8.191   1.185   2.518 -0.6951  0.1654 -0.2761
  807MOL0     C 8864   8.157   1.158   2.647  0.3603 -0.4140  0.1936
  807MOL0     C 8865   7.984   1.128   3.042 -0.1167  0.0519  0.1484
  807MOL0     C 8866   7.978   1.232   3.135  0.9901  0.4112 -0.6848
  807MOL0     C 8867   7.962   1.193   3.272 -0.1866 -0.1097  0.3728
  807MOL0     C 8868   7.947   1.059   3.311  0.0883 -0.3593 -0.0835
  807MOL0     O 8869   7.953   1.026   3.449 -0.2539  0.3266  0.8195
  807MOL0     C 8870   8.037   1.115   3.524 -0.0967 -0.4906 -1.1518
  807MOL0     C 8871   8.065   1.067   3.676 -0.1034  0.2818  0.1535
  807MOL0     C 8872   7.943   1.032   3.764 -0.5745  0.2219 -0.4208
  807MOL0     C 8873   8.011   0.966   3.889  0.6536 -0.5719  0.4450
  807MOL0     C 8874   7.907   0.928   3.983 -0.6555 -0.1502 -0.0406
  807MOL0     C 8875   7.816   0.890   4.048  0.7336  0.0648 -0.4470
  807MOL0     C 8876   7.936   0.963   3.218  0.5948 -0.4414  0.3215
  807MOL0     C 8877   7.955   0.993   3.082  0.6816 -0.2207  0.2138
  807MOL0     H 8878   7.907   0.959   2.597  1.4243 -1.4269 -1.1981
  807MOL0     H 8879   7.953   1.001   2.362  0.0606 -3.3268  0.9489
  807MOL0     H 8880   8.049   1.002   2.158 -2.9871 -0.1256 -0.2877
  807MOL0     H 8881   7.983   1.167   2.202 -0.8291 -1.3069  3.0327
  807MOL0     H 8882   8.236   1.137   2.043  0.0067  0.0918  2.7658
  807MOL0     H 8883   8.092   1.093   1.961  0.0095  1.0677 -2.2111
  807MOL0     H 8884   7.997   1.327   2.016  0.0138 -0.9401 -0.0648
  807MOL0     H 8885   8.156   1.361   2.072  0.5416 -0.6570 -0.1652
  807MOL0     H 8886   8.250   1.315   1.847 -0.3421 -0.0715  2.5106
  807MOL0     H 8887   8.076   1.274   1.800 -1.9128  1.6131 -1.0396
  807MOL0     H 8888   7.994   1.490   1.849  0.7100  0.6216  1.5917
  807MOL0     H 8889   8.154   1.546   1.894 -1.6534  0.5993 -0.0436
  807MOL0     H 8890   8.066   1.608   1.655  0.0157 -0.7594 -2.2162
  807MOL0     H 8891   8.230   1.548   1.660 -0.2835  0.1709 -1.2402
  807MOL0     H 8892   8.196   1.358   1.564  0.8659  4.0222 -2.3139
  807MOL0     H 8893   8.022   1.343   1.587 -2.7438  2.4461 -1.7042
  807MOL0     H 8894   8.177   1.424   1.362  2.3654  1.0869  2.2579
  807MOL0     H 8895   8.135   1.584   1.428 -0.0929  0.6822  0.1750
  807MOL0     H 8896   7.879   1.628   1.513 -4.3359 -2.4447  1.7274
  807MOL0     H 8897   7.652   1.715   1.321  3.1703  0.4271  5.4571
  807MOL0     H 8898   7.583   1.562   1.256 -2.6268  0.3709  2.0308
  807MOL0     H 8899   7.630   1.630   1.543  0.8340  0.0559  0.4871
  807MOL0     H 8900   7.532   1.495   1.479  0.0661  1.2229  2.4374
  807MOL0     H 8901   7.367   1.618   1.401 -1.1985  2.0653 -0.6885
  807MOL0     H 8902   7.458   1.765   1.402  0.8994 -0.6069 -1.0262
  807MOL0     H 8903   7.299   1.768   1.584  1.5167 -0.2871 -3.0964
  807MOL0     H 8904   7.466   1.774   1.635  2.2367 -1.4252  1.0628
  807MOL0     H 8905   7.349   1.339   1.744  0.7283  1.0669 -0.1431
  807MOL0     H 8906   7.121   1.110   1.767 -2.2249 -1.7985 -2.2240
  807MOL0     H 8907   7.152   1.066   1.601 -1.0048  1.7620 -1.3675
  807MOL0     H 8908   7.293   1.114   1.715  0.0040  1.3619  0.8631
  807MOL0     H 8909   6.699   1.202   1.438 -0.0775  0.0496  0.4117
  807MOL0     H 8910   6.520   1.051   1.400  5.3927  3.1785 -4.9441
  807MOL0     H 8911   6.347   0.881   1.419  0.6841  0.7625  0.5581
  807MOL0     H 8912   6.488   0.812   1.334  5.2379  1.4683  3.7150
  807MOL0     H 8913   6.332   0.641   1.323 -0.5685 -0.1407 -0.4749
  807MOL0     H 8914   6.427   0.583   1.456 -0.4791 -1.4919 -3.7747
  807MOL0     H 8915   6.208   0.541   1.513 -0.3384  0.0791  4.1877
  807MOL0     H 8916   6.154   0.701   1.479 -0.7829 -0.1342  0.4710
  807MOL0     H 8917   6.357   0.602   1.690  0.4744  1.4896  1.1401
  807MOL0     H 8918   6.302   0.772   1.667  2.4138 -0.5946 -1.0832
  807MOL0     H 8919   6.066   0.680   1.700  3.4761  2.6540 -3.1357
  807MOL0     H 8920   6.175   0.670   1.846  0.1173  0.8034  0.0158
  807MOL0     H 8921   6.047   0.455   1.675  2.2052 -2.2238 -1.5867
  807MOL0     H 8922   6.200   0.412   1.746 -0.3870  0.2981 -0.6234
  807MOL0     H 8923   5.979   0.517   1.930  0.5764 -1.1169  0.4815
  807MOL0     H 8924   6.154   0.467   1.955  2.8828 -0.6984 -2.7653
  807MOL0     H 8925   5.987   0.290   2.020  1.2593 -0.1956 -0.4415
  807MOL0     H 8926   6.102   0.251   1.886  2.7369  2.9157 -0.1191
  807MOL0     H 8927   6.682   0.796   1.721  1.6662  0.0693  1.3189
  807MOL0     H 8928   6.855   0.965   1.752  1.5706  1.7582 -0.0980
  807MOL0     H 8929   6.988   1.493   1.454 -1.0550 -0.0866  0.7859
  807MOL0     H 8930   7.133   1.655   1.536  2.5677  0.6275 -2.6292
  807MOL0     H 8931   8.282   1.243   2.501  0.0704 -0.6902  0.7709
  807MOL0     H 8932   8.211   1.200   2.732  1.5409  0.1190 -0.7898
  807MOL0     H 8933   7.978   1.338   3.110 -3.1444  0.6712 -0.3169
  807MOL0     H 8934   7.974   1.275   3.342 -0.6754  1.2489 -1.0838
  807MOL0     H 8935   8.129   1.148   3.475 -0.0283  0.5642 -0.3449
  807MOL0     H 8936   7.992   1.212   3.546  3.0403  1.3160 -2.0681
  807MOL0     H 8937   8.114   1.157   3.715 -2.3860  1.7262 -0.0838
  807MOL0     H 8938   8.140   0.988   3.673  0.8350  1.1816 -2.0378
  807MOL0     H 8939   7.877   0.964   3.708 -1.8947  1.5072 -0.4777
  807MOL0     H 8940   7.893   1.124   3.797 -2.4358 -1.8798  3.3085
  807MOL0     H 8941   8.079   1.038   3.935  2.0907 -0.8932 -1.0893
  807MOL0     H 8942   8.069   0.876   3.866  0.5045 -0.7966  0.9369
  807MOL0     H 8943   7.745   0.857   4.121  2.0442 -0.4865  0.6169
  807MOL0     H 8944   7.906   0.861   3.243  0.6433 -1.7172 -4.0664
  807MOL0     H 8945   7.932   0.923   3.002  0.6312 -1.1475  1.0212
  808MOL0     O 8946   4.483   6.056   1.118 -0.3983 -0.6897 -0.0141
  808MOL0     C 8947   4.547   6.018   1.021  0.1597  0.6349 -0.5467
  808MOL0     O 8948   4.575   6.077   0.901  0.2975 -0.3374 -0.1788
  808MOL0     C 8949   4.487   6.171   0.858 -1.0125 -0.0510 -0.4036
  808MOL0     C 8950   4.538   6.287   0.790  0.3686  0.4894 -0.2324
  808MOL0     C 8951   4.445   6.381   0.746 -0.2727 -0.0675  0.4576
  808MOL0     C 8952   4.306   6.370   0.768  0.2479 -0.0582  0.0962
  808MOL0     O 8953   4.221   6.466   0.727  0.0076 -0.0543 -0.1599
  808MOL0     C 8954   4.251   6.609   0.726  0.2115  0.4794 -0.4094
  808MOL0     C 8955   4.137   6.690   0.795  0.1016  0.1556 -0.0784
  808MOL0     C 8956   4.174   6.842   0.812  0.5036  0.0132  0.0686
  808MOL0     C 8957   4.065   6.918   0.897 -1.0223 -0.5677  0.6890
  808MOL0     C 8958   4.046   7.064   0.847  0.5659  0.2528  0.3153
  808MOL0     C 8959   3.980   7.092   0.706 -0.0692  0.4656 -0.3648
  808MOL0     C 8960   3.862   7.001   0.680  0.3259  0.2648 -1.0177
  808MOL0     C 8961   3.803   7.018   0.540  0.0788  0.3656 -0.7015
  808MOL0     N 8962   3.696   7.125   0.529  0.2814  0.2590 -0.0118
  808MOL0     C 8963   3.665   7.186   0.412  0.9343 -1.1442  0.1655
  808MOL0     C 8964   3.537   7.236   0.431  0.7637  0.5440  0.0808
  808MOL0     C 8965   3.466   7.326   0.336  0.6689  0.6124  0.6136
  808MOL0     C 8966   3.488   7.481   0.374  0.2106  0.5195  0.2455
  808MOL0     C 8967   3.430   7.586   0.283 -0.5791 -0.0146 -0.6992
  808MOL0     C 8968   3.512   7.602   0.156 -0.8214 -0.4531  0.8943
  808MOL0     O 8969   3.494   7.721   0.073 -0.2862 -0.0383 -0.3848
  808MOL0     C 8970   3.370   7.753   0.028  0.9174  0.6872  0.4308
  808MOL0     C 8971   3.271   7.653   0.013  0.1350  0.1097 -0.1237
  808MOL0     C 8972   3.148   7.696  -0.024  0.1598 -1.9003 -0.2020
  808MOL0     C 8973   3.043   7.589  -0.019  0.0604  0.1001  1.2745
  808MOL0     C 8974   3.127   7.825  -0.077 -0.7203 -0.1885  0.4859
  808MOL0     C 8975   2.995   7.874  -0.127 -0.5407 -0.3573  0.8945
  808MOL0     O 8976   2.896   7.789  -0.143 -0.3210  0.1332 -0.1063
  808MOL0     C 8977   2.763   7.811  -0.171  0.0031  0.1580  0.1527
  808MOL0     C 8978   2.689   7.686  -0.189 -0.0448 -0.4753  0.1718
  808MOL0     C 8979   2.552   7.689  -0.226  0.1599 -0.1157 -0.4098
  808MOL0     C 8980   2.489   7.811  -0.238 -0.2067  1.4322 -0.2972
  808MOL0     O 8981   2.366   7.829  -0.288 -0.1331 -0.0649 -0.0237
  808MOL0     C 8982   2.293   7.742  -0.382  1.0122  0.6693 -1.2942
  808MOL0     C 8983   2.174   7.818  -0.432  0.4954 -0.6957 -0.7426
  808MOL0     C 8984   2.097   7.754  -0.535 -0.5262  0.4046 -0.3951
  808MOL0     C 8985   1.952   7.797  -0.538  0.0179 -0.2009 -0.0871
  808MOL0     C 8986   1.862   7.715  -0.610  0.1848 -0.6151  0.5127
  808MOL0     C 8987   1.858   7.745  -0.763 -0.5858  0.4255 -0.3793
  808MOL0     C 8988   1.717   7.718  -0.823 -0.4600  0.9647 -0.0801
  808MOL0     C 8989   1.703   7.563  -0.840  0.9479  0.6578 -0.3873
  808MOL0    Cl 8990   1.532   7.532  -0.853 -0.0082  0.2373 -0.2675
  808MOL0     C 8991   2.556   7.937  -0.221 -0.4326  0.3416 -0.0281
  808MOL0     C 8992   2.698   7.933  -0.185  0.2519  0.3484  0.5287
  808MOL0     O 8993   2.985   7.990  -0.174  0.4349  0.2586 -0.8143
  808MOL0     C 8994   3.236   7.912  -0.084  0.0392  0.0379  0.1783
  808MOL0     C 8995   3.356   7.873  -0.028  0.4174 -0.5883 -1.0185
  808MOL0     N 8996   3.493   7.195   0.563 -0.5593 -0.5331  0.4314
  808MOL0     N 8997   3.593   7.130   0.616  0.1485  0.5432 -0.9869
  808MOL0     C 8998   4.255   6.275   0.845 -0.6234  0.5720 -0.4675
  808MOL0     C 8999   4.348   6.173   0.891  0.0867  0.3445  0.1193
  808MOL0     C 9000   4.616   5.890   1.046 -0.7643 -0.1652 -0.0121
  808MOL0     C 9001   4.720   5.848   0.959  0.5511  0.7626 -0.6378
  808MOL0     C 9002   4.796   5.740   0.986 -0.3959 -0.5175 -0.0538
  808MOL0     C 9003   4.782   5.669   1.105  0.1759  0.6701  0.5653
  808MOL0     O 9004   4.883   5.572   1.119 -0.0648  0.3272 -0.5850
  808MOL0     C 9005   4.887   5.485   1.233  0.3477 -0.3552 -0.7685
  808MOL0     C 9006   5.002   5.549   1.315  1.0544  0.4096 -0.6772
  808MOL0     C 9007   4.986   5.695   1.351  0.5978 -0.6944  0.0788
  808MOL0     C 9008   5.077   5.710   1.481  0.3812  0.3574  0.7976
  808MOL0     C 9009   5.004   5.657   1.597 -0.3934 -0.2458  0.2785
  808MOL0     C 9010   4.966   5.584   1.684  0.3765 -0.5126 -0.4191
  808MOL0     C 9011   4.677   5.699   1.192  0.4143 -0.2840  0.4621
  808MOL0     C 9012   4.588   5.805   1.162 -0.0073  0.5099 -0.8125
  808MOL0     H 9013   4.644   6.293   0.768  0.5091 -0.5887  0.0940
  808MOL0     H 9014   4.479   6.471   0.695  2.5977 -1.0567  0.4344
  808MOL0     H 9015   4.342   6.623   0.784  1.3558 -0.6079 -1.8691
  808MOL0     H 9016   4.269   6.652   0.628  0.6257  1.9653  0.2959
  808MOL0     H 9017   4.042   6.688   0.740  0.8387  1.5252 -1.4799
  808MOL0     H 9018   4.127   6.641   0.892 -1.3422 -1.6191 -1.0697
  808MOL0     H 9019   4.270   6.854   0.863  0.4010 -0.7552  0.4605
  808MOL0     H 9020   4.179   6.881   0.710  1.1755 -2.9043 -1.1032
  808MOL0     H 9021   3.967   6.868   0.897 -0.4852 -2.0096 -3.4421
  808MOL0     H 9022   4.099   6.924   1.001 -0.5726 -1.3596  0.6000
  808MOL0     H 9023   3.993   7.124   0.922  2.2134  2.5075 -0.2292
  808MOL0     H 9024   4.149   7.096   0.833  0.3142  0.1670 -2.0998
  808MOL0     H 9025   3.950   7.197   0.701 -4.4941 -0.6255 -1.3663
  808MOL0     H 9026   4.059   7.076   0.632  1.9613  3.5667  0.9192
  808MOL0     H 9027   3.891   6.896   0.689 -3.9012 -0.8892  3.4857
  808MOL0     H 9028   3.793   7.025   0.761  1.3119 -2.3190  0.7287
  808MOL0     H 9029   3.770   6.916   0.517  0.0090  0.3707 -0.6224
  808MOL0     H 9030   3.887   7.044   0.475 -1.1701  1.0100 -2.1172
  808MOL0     H 9031   3.716   7.195   0.317  0.0564 -1.1477 -0.3150
  808MOL0     H 9032   3.513   7.326   0.237 -0.1294 -0.0245  0.2283
  808MOL0     H 9033   3.361   7.299   0.328  1.0779 -0.4607 -2.3907
  808MOL0     H 9034   3.595   7.502   0.376  0.2955  0.0585  0.7767
  808MOL0     H 9035   3.438   7.491   0.471  0.3137 -2.6582  0.7361
  808MOL0     H 9036   3.435   7.679   0.341 -2.1833 -1.2983  1.6602
  808MOL0     H 9037   3.325   7.566   0.260 -1.4027  1.1709  1.6876
  808MOL0     H 9038   3.485   7.512   0.100  0.8238 -2.0146  2.4839
  808MOL0     H 9039   3.617   7.596   0.185 -1.5512  1.0706  4.4487
  808MOL0     H 9040   3.290   7.553   0.050  2.0632  0.4983  0.0260
  808MOL0     H 9041   3.037   7.555  -0.123 -1.2205  3.1332  0.2495
  808MOL0     H 9042   3.079   7.509   0.046  1.3737 -0.6411 -0.2593
  808MOL0     H 9043   2.948   7.624   0.021  0.9946  0.1558  3.5852
  808MOL0     H 9044   2.742   7.592  -0.177 -1.7355 -1.3271  1.2978
  808MOL0     H 9045   2.495   7.598  -0.238  1.1389 -0.9008  0.7588
  808MOL0     H 9046   2.361   7.701  -0.457  1.4164 -1.6714  0.2303
  808MOL0     H 9047   2.254   7.653  -0.331 -2.6029  1.6268 -2.0977
  808MOL0     H 9048   2.127   7.845  -0.337  0.0093 -0.3726 -1.0699
  808MOL0     H 9049   2.201   7.915  -0.475  4.3970 -2.2912 -2.3414
  808MOL0     H 9050   2.112   7.646  -0.527 -1.0667  0.2558 -1.2325
  808MOL0     H 9051   2.162   7.773  -0.621 -2.7629 -0.9195 -2.5186
  808MOL0     H 9052   1.909   7.799  -0.438 -1.7932  0.1823 -0.8272
  808MOL0     H 9053   1.930   7.899  -0.572 -2.5274  0.2233  2.5350
  808MOL0     H 9054   1.762   7.736  -0.571  0.2787  0.1098  0.3898
  808MOL0     H 9055   1.887   7.610  -0.592  1.8635 -0.0585  1.7240
  808MOL0     H 9056   1.889   7.848  -0.785 -0.9174  0.9976  1.6205
  808MOL0     H 9057   1.918   7.669  -0.814  0.6361  2.6779 -2.5518
  808MOL0     H 9058   1.708   7.765  -0.922 -1.3449  2.6075  0.7324
  808MOL0     H 9059   1.638   7.756  -0.757 -0.9552 -0.1526 -0.0117
  808MOL0     H 9060   1.745   7.513  -0.752  0.1617  1.4758  0.4650
  808MOL0     H 9061   1.769   7.524  -0.919  7.4831 -0.2500  4.6170
  808MOL0     H 9062   2.500   8.027  -0.243  0.5986  0.9910 -0.0884
  808MOL0     H 9063   2.752   8.027  -0.188  0.9645 -0.0781 -1.4783
  808MOL0     H 9064   3.229   8.014  -0.118  3.5408  0.4242  0.1819
  808MOL0     H 9065   3.439   7.944  -0.024  0.4745 -0.6253 -1.5818
  808MOL0     H 9066   4.154   6.289   0.882 -0.2820  2.1699 -0.0694
  808MOL0     H 9067   4.304   6.088   0.942 -1.2651  2.3218  2.4934
  808MOL0     H 9068   4.746   5.906   0.871  1.4951 -1.2783 -1.7878
  808MOL0     H 9069   4.877   5.714   0.918  0.8864  1.8826  0.4497
  808MOL0     H 9070   4.805   5.493   1.304 -0.5360 -2.0928 -1.5308
  808MOL0     H 9071   4.906   5.380   1.208 -1.7453 -0.9599  0.0252
  808MOL0     H 9072   5.090   5.534   1.252  2.2251  0.2575  0.9185
  808MOL0     H 9073   5.014   5.487   1.404  2.5703  2.6948  0.8312
  808MOL0     H 9074   4.883   5.704   1.387  1.7758 -3.1896  4.9362
  808MOL0     H 9075   5.008   5.767   1.271 -0.9377 -0.4337 -0.1405
  808MOL0     H 9076   5.111   5.811   1.505  2.4705 -0.3058  0.7807
  808MOL0     H 9077   5.173   5.662   1.462 -0.7630 -1.5161 -0.6621
  808MOL0     H 9078   4.928   5.516   1.757 -0.6978 -1.3555 -1.7141
  808MOL0     H 9079   4.658   5.635   1.278 -1.1481 -2.0925 -1.1369
  808MOL0     H 9080   4.503   5.811   1.228  2.0770  0.6854  2.0579
  809MOL0     O 9081   9.820   2.908   8.303 -0.2339  0.5259  0.4325
  809MOL0     C 9082   9.936   2.903   8.256  0.1038  0.0774  0.0772
  809MOL0     O 9083  10.004   3.003   8.188 -0.4112 -0.2747  0.9436
  809MOL0     C 9084   9.932   3.108   8.147  0.9937 -0.3665 -0.0595
  809MOL0     C 9085   9.829   3.108   8.052  0.4849 -0.8925  0.3581
  809MOL0     C 9086   9.758   3.227   8.026  0.2638 -0.4583  0.3517
  809MOL0     C 9087   9.763   3.333   8.113 -0.7015  0.8331  0.3762
  809MOL0     O 9088   9.667   3.428   8.113  0.1329  0.0215  0.9715
  809MOL0     C 9089   9.674   3.527   8.008 -0.0353 -0.5238 -1.0473
  809MOL0     C 9090   9.531   3.586   7.988 -1.0234 -0.1169 -0.9442
  809MOL0     C 9091   9.456   3.602   8.129 -0.3524  0.0783 -1.3368
  809MOL0     C 9092   9.530   3.657   8.258  0.1421 -0.2426  1.8276
  809MOL0     C 9093   9.610   3.789   8.217  0.9080  0.3869  0.7360
  809MOL0     C 9094   9.697   3.842   8.334  0.1586  0.4637  0.8889
  809MOL0     C 9095   9.768   3.963   8.290  0.2882 -1.1795 -0.1533
  809MOL0     C 9096   9.711   4.095   8.346  0.7109  1.3924  0.0617
  809MOL0     N 9097   9.779   4.203   8.289 -0.3712  0.5120 -0.5579
  809MOL0     C 9098   9.905   4.230   8.321  0.1097  0.2193 -0.2464
  809MOL0     C 9099   9.934   4.350   8.253 -0.2145  0.0647  0.3690
  809MOL0     C 9100  10.058   4.434   8.254  0.3166  0.6805  0.4872
  809MOL0     C 9101  10.194   4.384   8.203 -0.1909  0.0465  0.1260
  809MOL0     C 9102  10.257   4.280   8.295  0.1120  0.6428  0.4751
  809MOL0     C 9103  10.403   4.240   8.277  0.3138 -0.5958 -0.9060
  809MOL0     O 9104  10.437   4.161   8.390 -0.8819 -0.0073  0.8379
  809MOL0     C 9105  10.523   4.053   8.385  0.2846 -0.3291  0.4197
  809MOL0     C 9106  10.486   3.943   8.455  0.5552 -0.5070 -0.3232
  809MOL0     C 9107  10.563   3.833   8.470 -0.7963 -0.8291 -0.1875
  809MOL0     C 9108  10.534   3.741   8.587  0.3804  0.8880  0.3768
  809MOL0     C 9109  10.688   3.821   8.400  0.5205 -0.2938  0.2647
  809MOL0     C 9110  10.781   3.705   8.406  1.1649 -0.1417  0.0752
  809MOL0     O 9111  10.777   3.627   8.525  0.2175 -0.0669  0.3596
  809MOL0     C 9112  10.885   3.538   8.546 -0.4384 -0.0143 -0.6516
  809MOL0     C 9113  10.848   3.411   8.579 -0.6815  0.8038  0.0835
  809MOL0     C 9114  10.951   3.319   8.613  0.6823  0.7865  0.0632
  809MOL0     C 9115  11.085   3.340   8.591  0.7279  0.0087  1.2757
  809MOL0     O 9116  11.154   3.232   8.635  0.9036 -0.2010  0.9881
  809MOL0     C 9117  11.299   3.234   8.624  0.2295  0.6647 -0.0666
  809MOL0     C 9118  11.359   3.296   8.750 -1.0499 -0.2646  0.3035
  809MOL0     C 9119  11.514   3.280   8.744  0.4181  0.1784 -0.4079
  809MOL0     C 9120  11.594   3.400   8.683  0.4364 -0.0119 -0.2296
  809MOL0     C 9121  11.750   3.372   8.680 -0.5149 -0.4293  0.6957
  809MOL0     C 9122  11.798   3.476   8.577  1.6461  0.6842  0.2215
  809MOL0     C 9123  11.950   3.474   8.575  0.0818 -1.4923  0.1829
  809MOL0     C 9124  12.005   3.595   8.510 -0.0179 -0.5595  0.2956
  809MOL0    Cl 9125  12.172   3.560   8.456 -1.0185 -0.4767 -0.0792
  809MOL0     C 9126  11.117   3.467   8.552 -0.9206 -0.1123  0.5760
  809MOL0     C 9127  11.030   3.572   8.526  1.4072  0.1417  0.4517
  809MOL0     O 9128  10.836   3.670   8.302  0.1095 -0.1593 -0.2555
  809MOL0     C 9129  10.719   3.930   8.308  1.0304  0.0612  0.8092
  809MOL0     C 9130  10.630   4.035   8.302 -1.1040 -0.0791  0.3357
  809MOL0     N 9131   9.819   4.374   8.182  0.7698 -0.8659  0.5872
  809MOL0     N 9132   9.724   4.290   8.202 -0.3390  0.5786 -0.8410
  809MOL0     C 9133   9.862   3.346   8.208 -0.2807  0.0588  0.6966
  809MOL0     C 9134   9.941   3.228   8.231 -0.5005 -0.4276  0.2575
  809MOL0     C 9135  10.012   2.773   8.282  0.6787  0.5000  0.0910
  809MOL0     C 9136  10.149   2.752   8.305 -0.0302  0.0338 -0.5348
  809MOL0     C 9137  10.194   2.626   8.358  0.4145  0.6509 -0.2436
  809MOL0     C 9138  10.106   2.519   8.369  0.2611 -0.2070 -0.1362
  809MOL0     O 9139  10.141   2.405   8.432  0.3465 -0.0847 -0.0883
  809MOL0     C 9140  10.191   2.303   8.349 -0.9069 -0.3968  0.1778
  809MOL0     C 9141  10.254   2.199   8.445  0.1652  0.0438  0.4337
  809MOL0     C 9142  10.162   2.131   8.550  0.4074  0.1786  0.2581
  809MOL0     C 9143  10.059   2.043   8.478  0.6783 -0.7257  0.7880
  809MOL0     C 9144   9.957   2.116   8.403  0.0536  0.7014  0.5803
  809MOL0     C 9145   9.872   2.174   8.332 -0.7207 -0.5115 -1.0152
  809MOL0     C 9146   9.976   2.533   8.337 -0.1312  0.0154 -0.4296
  809MOL0     C 9147   9.930   2.658   8.295 -0.0091 -0.1069 -0.0485
  809MOL0     H 9148   9.813   3.016   7.997 -2.3592 -2.0216  2.7590
  809MOL0     H 9149   9.681   3.228   7.949  1.1902 -3.3142 -0.7350
  809MOL0     H 9150   9.750   3.602   8.031 -2.7871  2.7632 -1.8198
  809MOL0     H 9151   9.693   3.476   7.913 -0.0741 -0.9799 -0.8129
  809MOL0     H 9152   9.531   3.682   7.935  1.2329 -0.6963 -2.0990
  809MOL0     H 9153   9.481   3.518   7.918 -1.0715 -2.5365  1.2803
  809MOL0     H 9154   9.365   3.662   8.123 -0.2617  0.6054  1.3649
  809MOL0     H 9155   9.417   3.502   8.149  2.1676 -1.3716 -3.0910
  809MOL0     H 9156   9.453   3.673   8.334  0.6570 -1.9299  2.7412
  809MOL0     H 9157   9.598   3.579   8.293  2.7465 -0.8744 -3.5198
  809MOL0     H 9158   9.669   3.761   8.129  0.5209 -0.7231  0.8168
  809MOL0     H 9159   9.544   3.875   8.199 -0.6808 -0.5237  1.9332
  809MOL0     H 9160   9.635   3.871   8.420 -0.3382 -1.0301  1.0772
  809MOL0     H 9161   9.768   3.765   8.367  0.0073  0.3075  0.8543
  809MOL0     H 9162   9.872   3.968   8.324  0.9645 -0.6257 -2.1773
  809MOL0     H 9163   9.763   3.969   8.181 -1.1507  1.3518 -0.0135
  809MOL0     H 9164   9.732   4.092   8.453  2.0071 -0.1697 -0.1931
  809MOL0     H 9165   9.602   4.093   8.336  0.5855 -3.3438 -0.1323
  809MOL0     H 9166   9.970   4.179   8.391 -2.0104  0.9881  2.4727
  809MOL0     H 9167  10.030   4.529   8.207 -0.1298 -0.6841 -2.2054
  809MOL0     H 9168  10.062   4.474   8.356 -0.5155  0.5029  0.5935
  809MOL0     H 9169  10.269   4.463   8.192 -1.6989  1.1570 -4.3160
  809MOL0     H 9170  10.175   4.350   8.101  0.9673  2.0588 -0.8124
  809MOL0     H 9171  10.196   4.192   8.273 -2.6531  1.7206  3.2006
  809MOL0     H 9172  10.243   4.303   8.401 -1.2550  3.5266 -0.2396
  809MOL0     H 9173  10.467   4.328   8.288 -3.1247  1.9389  0.8778
  809MOL0     H 9174  10.425   4.200   8.177  0.2431  1.5762 -1.8458
  809MOL0     H 9175  10.394   3.948   8.512  0.9808 -0.1052  0.3421
  809MOL0     H 9176  10.595   3.774   8.672  0.1749 -0.3767  1.0306
  809MOL0     H 9177  10.431   3.750   8.621  0.2136  3.0032 -0.5278
  809MOL0     H 9178  10.536   3.637   8.554 -5.6708  0.1134  1.4427
  809MOL0     H 9179  10.743   3.389   8.596 -0.0113 -0.7871  2.6756
  809MOL0     H 9180  10.950   3.222   8.661  3.3839  1.0764  0.8494
  809MOL0     H 9181  11.348   3.137   8.614  1.5252  1.2064  0.7930
  809MOL0     H 9182  11.332   3.293   8.538 -1.4309 -1.1736 -2.0929
  809MOL0     H 9183  11.327   3.401   8.759  0.9808  0.6624 -1.9973
  809MOL0     H 9184  11.320   3.247   8.840 -4.3792 -1.1776 -1.4719
  809MOL0     H 9185  11.536   3.201   8.672  0.1586 -0.9340  0.7175
  809MOL0     H 9186  11.556   3.256   8.841  0.3053  1.9061  0.1148
  809MOL0     H 9187  11.557   3.420   8.581 -0.0506  2.8091  0.4070
  809MOL0     H 9188  11.569   3.493   8.735 -5.3598 -1.1638 -0.3137
  809MOL0     H 9189  11.790   3.276   8.645  0.7552 -1.2121  3.9301
  809MOL0     H 9190  11.792   3.377   8.781  0.7844 -5.2965  0.6615
  809MOL0     H 9191  11.755   3.436   8.485  2.8769  0.9521 -0.4866
  809MOL0     H 9192  11.762   3.578   8.597  2.2845  1.9324 -4.0304
  809MOL0     H 9193  11.985   3.380   8.530  1.7220 -0.7704 -0.1378
  809MOL0     H 9194  12.001   3.471   8.671  1.8619 -4.7205 -0.7259
  809MOL0     H 9195  12.003   3.681   8.578 -0.0377  0.3625 -0.8365
  809MOL0     H 9196  11.958   3.613   8.413  2.1163 -1.5730 -1.0068
  809MOL0     H 9197  11.220   3.495   8.529 -1.4526  1.9625  0.5597
  809MOL0     H 9198  11.062   3.670   8.492  1.3535  0.4662  1.3162
  809MOL0     H 9199  10.802   3.917   8.240  0.7211  0.9589  0.2563
  809MOL0     H 9200  10.654   4.108   8.225 -1.5707  0.3983  0.6448
  809MOL0     H 9201   9.865   3.437   8.267  0.3990  1.8981 -2.0010
  809MOL0     H 9202  10.000   3.235   8.321 -3.9338  0.7956  2.6337
  809MOL0     H 9203  10.226   2.826   8.285  0.3440 -0.3994 -0.7058
  809MOL0     H 9204  10.298   2.631   8.389  0.0269 -3.8981  2.7692
  809MOL0     H 9205  10.123   2.260   8.275  3.0788 -0.1719 -4.0455
  809MOL0     H 9206  10.272   2.338   8.284 -1.9557  2.0020  0.0514
  809MOL0     H 9207  10.328   2.249   8.508  0.5009  0.4600 -0.2785
  809MOL0     H 9208  10.305   2.128   8.379 -2.4557 -1.9082  0.3522
  809MOL0     H 9209  10.112   2.207   8.611 -2.7550  0.2487 -2.1220
  809MOL0     H 9210  10.227   2.068   8.611 -0.3172 -1.4842 -0.6000
  809MOL0     H 9211  10.006   1.979   8.549 -1.5711 -0.7420 -0.7987
  809MOL0     H 9212  10.105   1.976   8.404 -0.2791  0.9036 -1.3966
  809MOL0     H 9213   9.806   2.226   8.266  0.4303  3.9947  0.9149
  809MOL0     H 9214   9.904   2.452   8.343  0.3786 -0.3420  1.1429
  809MOL0     H 9215   9.824   2.652   8.275  0.4798 -0.2844 -2.8927
  810MOL0     O 9216   4.253   1.680   6.964 -0.2773 -0.2272  0.5221
  810MOL0     C 9217   4.306   1.663   7.074  0.2970 -0.8907 -0.5467
  810MOL0     O 9218   4.311   1.754   7.173 -0.3520  0.6964 -0.0573
  810MOL0     C 9219   4.259   1.880   7.148  0.4983  0.3959 -0.1582
  810MOL0     C 9220   4.148   1.898   7.221  0.4996 -0.1725  0.2806
  810MOL0     C 9221   4.075   2.011   7.198  0.2659  1.0936  0.0067
  810MOL0     C 9222   4.120   2.108   7.110 -0.3904  0.7643 -0.1319
  810MOL0     O 9223   4.058   2.231   7.098  0.1579 -1.4820 -0.7385
  810MOL0     C 9224   3.910   2.214   7.078  0.5515  1.0340  0.4135
  810MOL0     C 9225   3.819   2.251   7.189 -0.4427 -0.4209 -0.9274
  810MOL0     C 9226   3.856   2.368   7.273  0.9221 -0.1382  1.5068
  810MOL0     C 9227   3.762   2.481   7.227 -1.2203 -0.5427  0.6769
  810MOL0     C 9228   3.779   2.613   7.310 -0.4517 -0.6089  0.3274
  810MOL0     C 9229   3.767   2.596   7.464 -0.2620  1.0257 -0.4106
  810MOL0     C 9230   3.619   2.542   7.492 -0.3833  0.1341  0.7969
  810MOL0     C 9231   3.599   2.504   7.635  0.0200 -0.2370 -0.0808
  810MOL0     N 9232   3.558   2.619   7.714  0.5746  0.2682  0.3124
  810MOL0     C 9233   3.453   2.704   7.700 -0.3566 -1.0796 -0.0159
  810MOL0     C 9234   3.479   2.816   7.772 -0.1521  0.2728  0.2993
  810MOL0     C 9235   3.412   2.951   7.775  0.3059 -0.5738  0.5252
  810MOL0     C 9236   3.254   2.951   7.758 -0.1487  0.4387 -0.5568
  810MOL0     C 9237   3.187   2.857   7.863  0.4057 -0.2720 -0.4340
  810MOL0     C 9238   3.037   2.858   7.842  0.3986  0.2433  0.6515
  810MOL0     O 9239   3.009   2.849   7.700  0.2805  0.4977  0.1671
  810MOL0     C 9240   2.880   2.824   7.665  0.1979  0.0215 -0.6855
  810MOL0     C 9241   2.768   2.800   7.752  0.4001 -0.4037 -0.4498
  810MOL0     C 9242   2.634   2.798   7.695  0.4247  0.6776 -0.0762
  810MOL0     C 9243   2.524   2.793   7.795 -0.2230 -0.3132  0.3035
  810MOL0     C 9244   2.617   2.778   7.554  0.6785 -0.1405 -0.1567
  810MOL0     C 9245   2.501   2.745   7.479  1.1730  0.0669  0.1918
  810MOL0     O 9246   2.525   2.702   7.355  0.2747 -0.9467  0.0388
  810MOL0     C 9247   2.432   2.665   7.266 -0.0390 -0.5372 -0.6047
  810MOL0     C 9248   2.338   2.567   7.299 -0.7344  0.0978  0.7984
  810MOL0     C 9249   2.242   2.529   7.206 -0.4437 -1.0413  0.8418
  810MOL0     C 9250   2.233   2.600   7.081 -1.0994  0.9518 -1.2183
  810MOL0     O 9251   2.144   2.560   6.990  0.0793  0.2091  0.7222
  810MOL0     C 9252   2.172   2.560   6.848  0.3699 -0.9614 -0.0642
  810MOL0     C 9253   2.070   2.474   6.766  0.1379 -0.9666 -0.1307
  810MOL0     C 9254   2.117   2.410   6.633  0.1879  0.0201  0.5112
  810MOL0     C 9255   2.004   2.316   6.597 -0.5186 -0.0538  0.6786
  810MOL0     C 9256   2.025   2.229   6.468  0.2093 -0.1936 -1.1027
  810MOL0     C 9257   1.909   2.136   6.437  0.0927  0.7157 -1.1438
  810MOL0     C 9258   1.951   2.072   6.302 -0.2655  0.6858 -0.3814
  810MOL0     C 9259   1.844   1.982   6.243  0.4696  0.3969  0.4667
  810MOL0    Cl 9260   1.895   1.966   6.077 -0.5114 -0.6778 -0.0931
  810MOL0     C 9261   2.332   2.695   7.053 -0.1386 -0.0347  1.0111
  810MOL0     C 9262   2.431   2.727   7.146 -0.5916 -0.5942  0.3270
  810MOL0     O 9263   2.392   2.737   7.532  0.0054 -0.8510 -0.2552
  810MOL0     C 9264   2.734   2.778   7.478  0.5547  0.0322  0.4868
  810MOL0     C 9265   2.853   2.818   7.524 -0.2421  0.6702 -0.7673
  810MOL0     N 9266   3.595   2.798   7.838 -0.5489 -0.0722  0.7910
  810MOL0     N 9267   3.644   2.689   7.797  0.8032 -0.0235 -0.4955
  810MOL0     C 9268   4.235   2.092   7.037 -0.6365 -0.0839 -0.1501
  810MOL0     C 9269   4.301   1.970   7.049 -0.3380  0.5134  0.7853
  810MOL0     C 9270   4.378   1.533   7.102  0.1233 -0.0244 -0.4000
  810MOL0     C 9271   4.363   1.419   7.010 -0.9082 -0.5098  0.4492
  810MOL0     C 9272   4.415   1.298   7.053  0.0110 -0.4596  0.5780
  810MOL0     C 9273   4.480   1.279   7.169 -0.6939 -0.8626  0.0716
  810MOL0     O 9274   4.540   1.155   7.189 -0.0437 -0.5303 -0.0653
  810MOL0     C 9275   4.591   1.116   7.317  0.1327  0.3305  0.1738
  810MOL0     C 9276   4.648   0.973   7.295 -0.1864 -0.4766 -0.1473
  810MOL0     C 9277   4.792   1.000   7.274 -0.3971  0.3462  0.0406
  810MOL0     C 9278   4.869   0.878   7.222  0.5612  0.2067 -0.5584
  810MOL0     C 9279   5.009   0.897   7.249 -0.8735  0.2959 -0.0560
  810MOL0     C 9280   5.113   0.942   7.281  0.4613 -0.6636 -0.5543
  810MOL0     C 9281   4.476   1.388   7.266 -0.9802  0.8940  0.2475
  810MOL0     C 9282   4.430   1.509   7.231  0.9825  0.3737  0.0543
  810MOL0     H 9283   4.122   1.840   7.309  2.4375 -0.6927  0.5588
  810MOL0     H 9284   3.983   2.034   7.250 -0.9776 -1.6860 -0.7987
  810MOL0     H 9285   3.876   2.264   6.987  0.1042 -1.0002 -0.5844
  810MOL0     H 9286   3.888   2.110   7.055 -0.2785  0.6811  2.6163
  810MOL0     H 9287   3.722   2.269   7.143 -1.4615 -0.1763  1.2071
  810MOL0     H 9288   3.815   2.166   7.257  3.6537 -0.9156 -1.0243
  810MOL0     H 9289   3.827   2.336   7.373  0.5490 -2.4856  0.7180
  810MOL0     H 9290   3.965   2.381   7.268  0.8307  0.2368 -0.2519
  810MOL0     H 9291   3.786   2.502   7.122  2.3930 -0.8025  1.3423
  810MOL0     H 9292   3.657   2.450   7.224 -0.3443 -3.8494  0.8580
  810MOL0     H 9293   3.879   2.650   7.286  0.5116 -3.8259 -1.1858
  810MOL0     H 9294   3.697   2.677   7.275  1.3808  0.9344 -1.3264
  810MOL0     H 9295   3.844   2.529   7.503  0.5745  1.4569 -1.2725
  810MOL0     H 9296   3.776   2.692   7.515  0.0782 -1.0452  3.8715
  810MOL0     H 9297   3.541   2.613   7.462 -1.7445 -2.2947 -1.9283
  810MOL0     H 9298   3.596   2.449   7.439  1.9170 -0.0892  0.0322
  810MOL0     H 9299   3.697   2.479   7.678 -0.7939  0.0913  2.1162
  810MOL0     H 9300   3.539   2.414   7.648 -0.7566  0.0992 -1.2318
  810MOL0     H 9301   3.370   2.685   7.633 -0.8150  0.5320  0.0466
  810MOL0     H 9302   3.448   3.006   7.863 -0.1682  3.4787 -1.5475
  810MOL0     H 9303   3.438   3.011   7.687 -1.9513 -2.5131 -1.6150
  810MOL0     H 9304   3.235   2.927   7.653 -3.0214  3.9705 -1.0488
  810MOL0     H 9305   3.220   3.055   7.768 -0.3620  0.4590 -1.4114
  810MOL0     H 9306   3.219   2.893   7.962  3.0960 -0.1249 -1.2746
  810MOL0     H 9307   3.225   2.755   7.855  1.8154  0.0669  1.2053
  810MOL0     H 9308   2.995   2.957   7.865 -3.1986 -0.1740 -2.9042
  810MOL0     H 9309   2.997   2.778   7.903 -1.8657  2.8262  2.8084
  810MOL0     H 9310   2.780   2.798   7.860  0.6265  2.5497 -0.3291
  810MOL0     H 9311   2.442   2.857   7.763  0.9482 -0.2518 -3.0202
  810MOL0     H 9312   2.482   2.692   7.794 -2.3641  0.5193 -1.1513
  810MOL0     H 9313   2.545   2.826   7.897  0.3233  2.0470 -0.5069
  810MOL0     H 9314   2.344   2.518   7.395  0.8697 -1.2714  0.0613
  810MOL0     H 9315   2.167   2.454   7.229 -1.6000  0.2804  1.5910
  810MOL0     H 9316   2.161   2.666   6.822 -0.0717 -1.5282 -2.4224
  810MOL0     H 9317   2.278   2.535   6.838  1.3006  2.4475 -0.1138
  810MOL0     H 9318   2.052   2.394   6.838  1.5074  0.3614  1.8222
  810MOL0     H 9319   1.981   2.534   6.743  0.8142  0.9009  1.7388
  810MOL0     H 9320   2.205   2.348   6.650 -0.0055 -0.6179 -0.7565
  810MOL0     H 9321   2.136   2.484   6.554  1.7484  1.2676  1.9827
  810MOL0     H 9322   1.983   2.252   6.682  0.4993 -1.3174  0.0093
  810MOL0     H 9323   1.911   2.372   6.581 -2.5904 -2.5284  3.0369
  810MOL0     H 9324   2.116   2.169   6.477  0.1519 -0.0141  1.0862
  810MOL0     H 9325   2.051   2.301   6.390  1.2908  0.4077 -0.2152
  810MOL0     H 9326   1.896   2.063   6.517 -0.2685 -0.4988 -2.2845
  810MOL0     H 9327   1.814   2.191   6.429 -0.0340  1.1138  1.9347
  810MOL0     H 9328   2.047   2.022   6.314  0.0527  1.5003  0.5212
  810MOL0     H 9329   1.975   2.154   6.233 -0.5361  0.4856 -0.7231
  810MOL0     H 9330   1.749   2.033   6.260 -0.8338 -1.9659  0.7066
  810MOL0     H 9331   1.845   1.887   6.297  0.2117  0.9039  1.3662
  810MOL0     H 9332   2.350   2.740   6.956  0.3922 -1.5669  0.3634
  810MOL0     H 9333   2.498   2.811   7.130 -0.4758  0.0857  3.7721
  810MOL0     H 9334   2.731   2.765   7.370 -3.9357 -2.7722  0.6953
  810MOL0     H 9335   2.935   2.839   7.456  0.6744 -4.8167 -1.7837
  810MOL0     H 9336   4.249   2.173   6.966 -4.3181  0.8608 -0.0076
  810MOL0     H 9337   4.379   1.927   6.987  0.0649  0.7303  1.1278
  810MOL0     H 9338   4.325   1.437   6.910 -0.6949  4.5127  0.9755
  810MOL0     H 9339   4.418   1.214   6.985  3.0174 -1.7319  2.0713
  810MOL0     H 9340   4.666   1.186   7.355 -1.7689  0.7664  3.6016
  810MOL0     H 9341   4.509   1.118   7.390  0.2841  0.0544  0.3508
  810MOL0     H 9342   4.605   0.925   7.207 -0.0785 -0.1800 -0.3640
  810MOL0     H 9343   4.619   0.918   7.385 -3.8235 -0.4707 -1.1412
  810MOL0     H 9344   4.828   1.031   7.373 -2.1015  1.6544  0.2961
  810MOL0     H 9345   4.811   1.080   7.201  1.2500  0.3674  0.4565
  810MOL0     H 9346   4.849   0.884   7.114 -0.8174 -0.5136 -0.3669
  810MOL0     H 9347   4.836   0.787   7.271  1.2618 -0.5028 -1.3703
  810MOL0     H 9348   5.191   0.985   7.340 -2.0282  1.6272  1.3198
  810MOL0     H 9349   4.523   1.387   7.364 -0.0879 -0.0058 -0.1632
  810MOL0     H 9350   4.454   1.586   7.304 -0.1753  1.3775 -0.5891
  811MOL0     O 9351   9.089   6.263   2.407 -0.5104 -0.3885  0.0541
  811MOL0     C 9352   8.973   6.260   2.360 -0.5355 -0.5970 -0.4530
  811MOL0     O 9353   8.860   6.289   2.433  0.0871  0.2493 -0.2874
  811MOL0     C 9354   8.890   6.325   2.569  0.6178  0.4330 -0.9925
  811MOL0     C 9355   8.920   6.450   2.619  0.1416  0.0931 -0.9164
  811MOL0     C 9356   8.952   6.455   2.760  0.2555 -0.0893  1.4160
  811MOL0     C 9357   8.947   6.349   2.844 -0.1571  1.0410  1.0264
  811MOL0     O 9358   8.971   6.371   2.974 -0.1214  1.1126  0.3346
  811MOL0     C 9359   8.971   6.257   3.062 -0.2567  0.4456 -0.0089
  811MOL0     C 9360   9.043   6.309   3.195 -0.4769  0.0709  0.7695
  811MOL0     C 9361   9.120   6.196   3.276  1.1261 -0.0266  0.6825
  811MOL0     C 9362   9.207   6.262   3.379  0.2368  0.4374  0.4459
  811MOL0     C 9363   9.267   6.164   3.485 -0.3892  0.9886  0.6193
  811MOL0     C 9364   9.366   6.074   3.411  0.2718  0.1943  0.4535
  811MOL0     C 9365   9.328   5.930   3.444 -0.0117 -0.0787 -1.2721
  811MOL0     C 9366   9.406   5.821   3.367  0.6549 -0.4926 -0.2366
  811MOL0     N 9367   9.387   5.684   3.404 -0.9381 -0.4064 -0.3042
  811MOL0     C 9368   9.279   5.601   3.376  0.0238  0.2033 -0.3621
  811MOL0     C 9369   9.301   5.487   3.446  0.2017  0.4010 -0.2055
  811MOL0     C 9370   9.223   5.362   3.440  1.4511  0.5525 -0.0882
  811MOL0     C 9371   9.157   5.335   3.313 -0.5161  0.9067  0.5330
  811MOL0     C 9372   9.247   5.314   3.186  0.0183 -0.1745  0.4707
  811MOL0     C 9373   9.189   5.344   3.051  0.2840  0.1295  0.1156
  811MOL0     O 9374   9.155   5.480   3.054 -0.1404  0.8479  0.3770
  811MOL0     C 9375   9.092   5.534   2.944  0.3448 -0.3351 -0.1894
  811MOL0     C 9376   9.065   5.475   2.822 -0.0625 -0.0361 -0.2580
  811MOL0     C 9377   9.000   5.538   2.720 -0.6245 -0.6929 -0.0347
  811MOL0     C 9378   9.009   5.476   2.584  0.8565 -0.4559  0.1237
  811MOL0     C 9379   8.969   5.675   2.736  0.4089  0.9758 -0.4053
  811MOL0     C 9380   8.914   5.765   2.636 -0.7073  0.7000 -0.2577
  811MOL0     O 9381   8.827   5.705   2.552  0.1478  0.8615 -0.2932
  811MOL0     C 9382   8.721   5.770   2.488 -0.2947  0.7380  0.8661
  811MOL0     C 9383   8.737   5.896   2.428 -0.2277  0.0662 -0.1190
  811MOL0     C 9384   8.635   5.947   2.350  0.5381  0.4136  0.7321
  811MOL0     C 9385   8.508   5.880   2.337  0.0055  0.1337  0.4586
  811MOL0     O 9386   8.405   5.939   2.261  0.2669  0.0033 -0.5660
  811MOL0     C 9387   8.272   5.894   2.289  0.2147 -0.4683 -0.2457
  811MOL0     C 9388   8.181   6.020   2.285  0.3705  1.3864  0.4176
  811MOL0     C 9389   8.218   6.117   2.167  0.1538  0.9923 -0.8601
  811MOL0     C 9390   8.181   6.046   2.025  0.2523  0.2393  0.8415
  811MOL0     C 9391   8.202   6.130   1.908 -0.7757 -0.1375 -0.5718
  811MOL0     C 9392   8.352   6.150   1.879 -0.3741 -0.5089  0.2789
  811MOL0     C 9393   8.376   6.257   1.767  0.3778 -0.1576 -0.6993
  811MOL0     C 9394   8.507   6.231   1.690 -1.0378 -0.0437  0.2601
  811MOL0    Cl 9395   8.510   6.082   1.599 -0.0443  0.1755  0.1361
  811MOL0     C 9396   8.493   5.762   2.395 -0.6790  0.9034 -0.0181
  811MOL0     C 9397   8.601   5.706   2.462 -0.6845 -0.5139  1.0266
  811MOL0     O 9398   8.932   5.885   2.655 -0.2635 -0.0649 -0.0319
  811MOL0     C 9399   9.007   5.739   2.859 -0.5289  0.1765  0.0724
  811MOL0     C 9400   9.077   5.669   2.954  0.6815  0.6266  0.0649
  811MOL0     N 9401   9.421   5.496   3.510 -0.5669  0.9369 -0.6105
  811MOL0     N 9402   9.469   5.611   3.481  0.4146  0.5197 -0.8096
  811MOL0     C 9403   8.908   6.222   2.789 -0.1997  0.2392 -0.9077
  811MOL0     C 9404   8.890   6.215   2.650 -1.1766 -0.0399  0.5023
  811MOL0     C 9405   8.948   6.198   2.219  0.3631  0.0739  0.0748
  811MOL0     C 9406   9.053   6.158   2.134  0.4439  0.3001 -0.8048
  811MOL0     C 9407   9.042   6.095   2.007  1.1427  0.2186 -0.4924
  811MOL0     C 9408   8.903   6.076   1.965  0.8464  0.2843 -0.4239
  811MOL0     O 9409   8.869   6.002   1.850 -0.3537 -0.2524  0.3152
  811MOL0     C 9410   8.965   6.001   1.741  0.9824 -0.2193  0.2546
  811MOL0     C 9411   8.943   6.127   1.653  0.4189 -0.3635 -0.3906
  811MOL0     C 9412   9.016   6.123   1.517 -0.6887  0.1490 -0.0330
  811MOL0     C 9413   8.963   6.206   1.406 -0.6703 -0.2674  0.8296
  811MOL0     C 9414   8.832   6.174   1.362 -0.2415 -0.5754 -1.2717
  811MOL0     C 9415   8.728   6.144   1.310  0.4108  0.2856 -0.2292
  811MOL0     C 9416   8.798   6.121   2.048 -0.4536  0.3105  0.1051
  811MOL0     C 9417   8.824   6.174   2.174  0.0803 -0.2123 -0.2857
  811MOL0     H 9418   8.921   6.536   2.553  0.6143  0.9906  0.2263
  811MOL0     H 9419   8.982   6.547   2.810  3.6601 -1.3881  2.0546
  811MOL0     H 9420   8.873   6.210   3.077  0.5460 -2.8895 -3.5000
  811MOL0     H 9421   9.032   6.172   3.028  0.8923  2.3388 -3.0841
  811MOL0     H 9422   9.118   6.381   3.159  0.3017  0.2482  2.6213
  811MOL0     H 9423   8.966   6.362   3.252 -0.2735  1.3300 -0.0892
  811MOL0     H 9424   9.047   6.135   3.332  1.4811  2.3208  3.9673
  811MOL0     H 9425   9.165   6.135   3.197 -1.4126  0.7393 -1.5188
  811MOL0     H 9426   9.289   6.307   3.321  1.6923  0.6513  2.5784
  811MOL0     H 9427   9.154   6.339   3.436  1.1366  2.8114 -1.6875
  811MOL0     H 9428   9.310   6.221   3.568 -1.1966  0.4368  1.4390
  811MOL0     H 9429   9.192   6.107   3.541  1.1692  2.0339  4.0784
  811MOL0     H 9430   9.362   6.077   3.302 -0.5094 -4.9392  0.0549
  811MOL0     H 9431   9.468   6.106   3.434  0.7384 -0.9864  0.1154
  811MOL0     H 9432   9.350   5.911   3.550 -2.2479 -2.7827 -1.1729
  811MOL0     H 9433   9.222   5.914   3.422  0.5818 -0.7118 -3.9760
  811MOL0     H 9434   9.512   5.848   3.376  0.8867 -1.4929  0.1587
  811MOL0     H 9435   9.381   5.830   3.260  3.1812 -0.2941 -0.8682
  811MOL0     H 9436   9.187   5.621   3.320 -1.3494  1.9263  2.3321
  811MOL0     H 9437   9.292   5.278   3.455 -2.6636 -2.9236  1.3106
  811MOL0     H 9438   9.142   5.358   3.512  0.6388 -1.8896 -1.0555
  811MOL0     H 9439   9.074   5.405   3.299 -2.6766 -1.7362 -0.9870
  811MOL0     H 9440   9.103   5.240   3.324 -1.1253  1.0639 -0.9608
  811MOL0     H 9441   9.274   5.209   3.177  0.3893  0.0956 -3.4228
  811MOL0     H 9442   9.342   5.368   3.183 -1.6280  2.9520 -0.1189
  811MOL0     H 9443   9.102   5.282   3.027  0.5621  0.2334 -1.2397
  811MOL0     H 9444   9.265   5.333   2.973  1.5994  0.3139  1.3496
  811MOL0     H 9445   9.098   5.373   2.803 -0.8707 -0.5469  0.9678
  811MOL0     H 9446   9.061   5.544   2.516 -0.2035  1.5350  1.2104
  811MOL0     H 9447   9.065   5.383   2.570  1.8846  0.1967 -0.2778
  811MOL0     H 9448   8.906   5.463   2.550 -1.2141  1.5653  4.7699
  811MOL0     H 9449   8.826   5.957   2.439  1.2377 -2.3958  3.6307
  811MOL0     H 9450   8.641   6.038   2.290 -1.2804  0.3595  0.4173
  811MOL0     H 9451   8.229   5.824   2.217 -1.7559  0.1227  0.3032
  811MOL0     H 9452   8.265   5.859   2.393 -2.8200  1.7010  0.4081
  811MOL0     H 9453   8.080   5.985   2.264 -0.0367  2.8502 -0.1765
  811MOL0     H 9454   8.196   6.066   2.383  0.3149 -1.9877  2.1387
  811MOL0     H 9455   8.325   6.137   2.173  0.3065 -0.0947  0.8555
  811MOL0     H 9456   8.168   6.214   2.174 -3.9374 -0.9682  0.1267
  811MOL0     H 9457   8.232   5.951   2.007 -1.3268 -0.6932  1.1421
  811MOL0     H 9458   8.074   6.031   2.015  0.1999  1.6047 -1.3865
  811MOL0     H 9459   8.154   6.228   1.919  1.3377  0.9565 -0.4227
  811MOL0     H 9460   8.154   6.081   1.824 -0.4719 -2.2080  0.3976
  811MOL0     H 9461   8.398   6.181   1.973 -1.7185  0.5538  0.6077
  811MOL0     H 9462   8.391   6.051   1.851  0.2795 -0.9509  2.5451
  811MOL0     H 9463   8.375   6.356   1.813 -1.1508 -0.4814  0.0396
  811MOL0     H 9464   8.292   6.263   1.696 -1.0602  1.3977  1.0284
  811MOL0     H 9465   8.591   6.241   1.759  1.4869  2.8866 -2.8738
  811MOL0     H 9466   8.519   6.318   1.624  1.8356 -2.0396 -2.1095
  811MOL0     H 9467   8.413   5.690   2.379 -1.5406  1.4783  1.4980
  811MOL0     H 9468   8.594   5.605   2.498  1.6327 -0.5299  1.6042
  811MOL0     H 9469   8.991   5.845   2.877  2.0437  1.5197 -4.0507
  811MOL0     H 9470   9.105   5.721   3.045  1.9563 -0.0932  0.1096
  811MOL0     H 9471   8.905   6.125   2.838 -0.1120  0.4514 -0.4788
  811MOL0     H 9472   8.880   6.115   2.609  0.9093 -1.6983  3.6823
  811MOL0     H 9473   9.154   6.179   2.168  0.5298  0.7884 -1.3619
  811MOL0     H 9474   9.131   6.048   1.969  1.6960  1.7976 -1.2248
  811MOL0     H 9475   9.071   5.981   1.763  0.8553 -0.5538  0.5612
  811MOL0     H 9476   8.940   5.910   1.686  0.8754  0.0458 -0.1460
  811MOL0     H 9477   8.991   6.210   1.706  1.0595 -1.1351  0.2676
  811MOL0     H 9478   8.840   6.153   1.625  0.8756  0.2960 -1.5271
  811MOL0     H 9479   9.018   6.018   1.486  0.9597 -0.1844  1.0447
  811MOL0     H 9480   9.118   6.151   1.546 -1.2177  1.6250  0.4669
  811MOL0     H 9481   9.025   6.191   1.318 -0.7946  1.4014  0.4189
  811MOL0     H 9482   8.962   6.311   1.438  1.4753 -0.2184  0.8923
  811MOL0     H 9483   8.636   6.104   1.272 -0.3253 -0.7744  2.4455
  811MOL0     H 9484   8.696   6.093   2.022 -0.8673  0.4401  1.5219
  811MOL0     H 9485   8.728   6.189   2.222 -3.2912 -0.2728 -6.0623
  812MOL0     O 9486   3.589   7.591   7.042  0.2657  0.3640 -0.2817
  812MOL0     C 9487   3.604   7.602   7.170  0.0012 -0.8659  0.4976
  812MOL0     O 9488   3.507   7.576   7.265 -0.2468 -0.1164  0.3627
  812MOL0     C 9489   3.377   7.555   7.218  0.4398 -0.4133 -0.0453
  812MOL0     C 9490   3.339   7.430   7.175  0.7032 -0.4079 -0.6204
  812MOL0     C 9491   3.221   7.417   7.095 -0.2221  1.2559  0.8333
  812MOL0     C 9492   3.141   7.527   7.072  0.0741  0.0340 -0.2784
  812MOL0     O 9493   3.023   7.516   7.007  0.3743 -0.3874 -0.3332
  812MOL0     C 9494   2.986   7.382   6.958 -0.8089 -0.5115 -1.3289
  812MOL0     C 9495   2.856   7.384   6.873 -0.4091  0.5979  0.7472
  812MOL0     C 9496   2.764   7.265   6.892  0.0468 -0.6173 -0.4798
  812MOL0     C 9497   2.624   7.285   6.826  0.5686  0.1214 -0.2899
  812MOL0     C 9498   2.562   7.158   6.771  0.4292  0.4636  0.4138
  812MOL0     C 9499   2.544   7.062   6.880 -0.9811  0.0966 -0.0838
  812MOL0     C 9500   2.423   6.971   6.851  0.2612  0.1430 -0.1757
  812MOL0     C 9501   2.424   6.853   6.951  1.1303 -0.0113  0.5042
  812MOL0     N 9502   2.456   6.875   7.092  0.3183 -0.8725  0.6113
  812MOL0     C 9503   2.561   6.817   7.150 -0.5540 -0.0352  0.2230
  812MOL0     C 9504   2.550   6.863   7.274  0.6490 -0.2560 -0.6169
  812MOL0     C 9505   2.628   6.800   7.392 -0.6399 -0.5772  1.0062
  812MOL0     C 9506   2.726   6.900   7.443 -0.3819  0.0957 -0.0832
  812MOL0     C 9507   2.839   6.943   7.354  0.7172 -0.0532  0.0137
  812MOL0     C 9508   2.931   7.043   7.425  0.8839  0.3064  0.2868
  812MOL0     O 9509   3.006   7.127   7.342 -0.0739 -0.4039  0.9753
  812MOL0     C 9510   2.951   7.252   7.323 -1.0352 -0.0861 -0.5680
  812MOL0     C 9511   2.816   7.277   7.301  0.2275 -0.4180  0.3128
  812MOL0     C 9512   2.778   7.415   7.297  0.4162  0.7670  0.3637
  812MOL0     C 9513   2.630   7.429   7.252  0.2140  0.4118  0.7158
  812MOL0     C 9514   2.865   7.517   7.334  0.3152 -0.4948  0.3610
  812MOL0     C 9515   2.816   7.656   7.347  0.5416  0.0816 -0.1069
  812MOL0     O 9516   2.880   7.737   7.436 -0.7059 -0.6572 -0.3880
  812MOL0     C 9517   2.869   7.879   7.420 -0.4698 -0.1281 -0.1223
  812MOL0     C 9518   2.816   7.952   7.520  1.0970  0.1615  0.2082
  812MOL0     C 9519   2.803   8.089   7.503  0.2775 -0.3180 -0.3420
  812MOL0     C 9520   2.845   8.160   7.391  0.4146  1.2734 -0.2706
  812MOL0     O 9521   2.825   8.294   7.383 -0.1989 -0.3835  0.0914
  812MOL0     C 9522   2.939   8.377   7.348  0.3396  0.0844 -0.0032
  812MOL0     C 9523   2.932   8.492   7.441 -0.5093 -0.3282  0.7626
  812MOL0     C 9524   3.044   8.483   7.540  0.7662 -0.0628 -0.4461
  812MOL0     C 9525   3.036   8.594   7.639 -0.6827 -0.1840  0.2275
  812MOL0     C 9526   3.101   8.720   7.593  0.7564 -0.9983  0.3421
  812MOL0     C 9527   3.072   8.839   7.696 -0.2874 -0.4864 -0.2731
  812MOL0     C 9528   3.095   8.985   7.647 -0.0417 -0.2390  0.2466
  812MOL0     C 9529   2.999   9.027   7.533  0.2132  0.4271  0.1227
  812MOL0    Cl 9530   2.846   9.101   7.591  0.0653 -0.0829  0.2343
  812MOL0     C 9531   2.919   8.085   7.301  1.0743 -0.2376  0.2013
  812MOL0     C 9532   2.931   7.941   7.307  0.0254 -0.5470 -0.6484
  812MOL0     O 9533   2.729   7.687   7.264 -0.0059 -0.2068 -0.3788
  812MOL0     C 9534   2.998   7.480   7.372  1.1126  0.0749  0.8387
  812MOL0     C 9535   3.037   7.348   7.359 -0.5945  0.5688  0.0862
  812MOL0     N 9536   2.448   6.946   7.292 -0.0791 -1.0236  1.3308
  812MOL0     N 9537   2.392   6.955   7.175  0.2688 -0.3724  0.5727
  812MOL0     C 9538   3.179   7.656   7.115 -0.7277  0.2681  0.3615
  812MOL0     C 9539   3.297   7.667   7.187 -0.2071  0.2647  0.2140
  812MOL0     C 9540   3.738   7.647   7.219 -0.6335  0.2095  0.0255
  812MOL0     C 9541   3.834   7.698   7.126  0.2666 -0.4215  0.5918
  812MOL0     C 9542   3.965   7.725   7.185  0.1828 -0.3398  0.4412
  812MOL0     C 9543   3.994   7.712   7.321  0.4225  0.6915  0.7477
  812MOL0     O 9544   4.125   7.756   7.345 -0.2406  0.5532 -0.1022
  812MOL0     C 9545   4.133   7.846   7.464 -0.1507  0.3035 -0.2918
  812MOL0     C 9546   4.263   7.817   7.528 -0.3410  0.0253  0.0554
  812MOL0     C 9547   4.254   7.685   7.601 -0.7842  0.4548  0.0904
  812MOL0     C 9548   4.390   7.612   7.611 -1.0200  0.6019  0.9203
  812MOL0     C 9549   4.493   7.690   7.682  0.5442  0.1806 -0.0780
  812MOL0     C 9550   4.576   7.747   7.748 -1.3336  0.2005 -0.9236
  812MOL0     C 9551   3.897   7.679   7.408  0.4464  1.4148 -0.6883
  812MOL0     C 9552   3.768   7.652   7.359 -0.3693  0.4671 -0.8744
  812MOL0     H 9553   3.399   7.345   7.206 -0.9746 -1.8287 -1.1003
  812MOL0     H 9554   3.192   7.319   7.060  2.2580  0.8178 -0.1586
  812MOL0     H 9555   3.071   7.335   6.907  1.4427  1.7571  0.1291
  812MOL0     H 9556   2.962   7.322   7.046 -3.2593 -0.1939 -1.6926
  812MOL0     H 9557   2.793   7.472   6.892 -3.6606 -1.1154 -1.0904
  812MOL0     H 9558   2.887   7.384   6.768  1.1690 -2.1367  1.1172
  812MOL0     H 9559   2.818   7.186   6.838 -0.0345 -0.8234 -0.2623
  812MOL0     H 9560   2.752   7.229   6.995 -1.6141 -1.5584 -0.9708
  812MOL0     H 9561   2.556   7.338   6.893 -0.3878 -0.7200 -0.5665
  812MOL0     H 9562   2.624   7.346   6.736 -1.7464  0.5336 -0.0618
  812MOL0     H 9563   2.462   7.185   6.734 -1.8696 -3.1299  3.2420
  812MOL0     H 9564   2.610   7.115   6.683 -4.0878 -2.4534 -1.0145
  812MOL0     H 9565   2.632   6.998   6.892 -2.2694 -1.6322  0.5436
  812MOL0     H 9566   2.535   7.107   6.980  0.9825  0.0214  0.1548
  812MOL0     H 9567   2.326   7.022   6.847  0.3393  0.2522 -0.6481
  812MOL0     H 9568   2.435   6.934   6.749  3.9974 -3.2685  1.2288
  812MOL0     H 9569   2.485   6.771   6.912  0.9350  1.7538 -4.0521
  812MOL0     H 9570   2.320   6.819   6.959  0.7706  1.4059  3.0794
  812MOL0     H 9571   2.631   6.744   7.110 -1.8683 -0.2814 -1.7973
  812MOL0     H 9572   2.552   6.775   7.467  0.7790 -0.5878  2.4759
  812MOL0     H 9573   2.686   6.712   7.363 -1.6165 -0.6692 -0.8122
  812MOL0     H 9574   2.765   6.866   7.539 -1.4266  1.3642  0.8166
  812MOL0     H 9575   2.666   6.987   7.470  1.0132  0.1250  3.5217
  812MOL0     H 9576   2.800   6.979   7.259  0.1173 -0.3167  0.1521
  812MOL0     H 9577   2.902   6.855   7.340 -0.0896 -0.4278 -1.4467
  812MOL0     H 9578   3.006   6.982   7.477  2.1081  0.2538 -1.4534
  812MOL0     H 9579   2.882   7.107   7.500  2.8250  6.1938 -2.8601
  812MOL0     H 9580   2.744   7.197   7.291  0.4509 -0.8447  1.8588
  812MOL0     H 9581   2.613   7.508   7.179 -1.4469 -0.3983  0.1781
  812MOL0     H 9582   2.603   7.325   7.231  2.3745 -0.2165  0.7869
  812MOL0     H 9583   2.567   7.453   7.338  1.8109  2.7611  1.3420
  812MOL0     H 9584   2.782   7.899   7.609 -1.7043  0.5660 -0.5113
  812MOL0     H 9585   2.762   8.143   7.587  2.5704 -0.9751  1.3163
  812MOL0     H 9586   3.029   8.316   7.347  1.8294  2.0180  2.8205
  812MOL0     H 9587   2.931   8.416   7.246  1.9368  0.3647 -0.0465
  812MOL0     H 9588   2.941   8.586   7.386 -2.1046  0.1983  1.3470
  812MOL0     H 9589   2.838   8.483   7.496  0.2812 -2.1144  1.9364
  812MOL0     H 9590   3.142   8.478   7.491  0.7409  2.9678 -0.9568
  812MOL0     H 9591   3.028   8.388   7.593 -0.1593  0.9985  1.2726
  812MOL0     H 9592   2.929   8.605   7.654 -1.2179 -3.7054 -0.1442
  812MOL0     H 9593   3.079   8.571   7.738 -2.1487 -0.8893  0.7375
  812MOL0     H 9594   3.049   8.743   7.499 -0.9974  1.1709  1.7450
  812MOL0     H 9595   3.206   8.697   7.571  0.6743  0.0454 -1.3229
  812MOL0     H 9596   2.968   8.846   7.730 -0.4544  0.3356 -0.9307
  812MOL0     H 9597   3.132   8.814   7.783 -0.7925  1.5722  0.7292
  812MOL0     H 9598   3.197   9.006   7.612 -0.1385 -2.2406 -1.3975
  812MOL0     H 9599   3.071   9.049   7.732  1.2674  2.4933 -1.2858
  812MOL0     H 9600   2.978   8.947   7.461  4.0235  1.6660 -2.7413
  812MOL0     H 9601   3.050   9.100   7.469 -0.5858  0.7030 -0.2118
  812MOL0     H 9602   2.953   8.126   7.206 -3.7319  0.5053 -1.4890
  812MOL0     H 9603   3.003   7.885   7.248  3.6327  1.2255  1.6722
  812MOL0     H 9604   3.068   7.556   7.405  0.0903  0.4942  2.1194
  812MOL0     H 9605   3.131   7.310   7.399 -0.3084 -0.0015 -1.0816
  812MOL0     H 9606   3.134   7.750   7.085  0.7105  0.7261 -0.4550
  812MOL0     H 9607   3.328   7.768   7.211  1.7465 -0.0068 -0.9534
  812MOL0     H 9608   3.811   7.715   7.021  0.8876 -0.6957  0.4075
  812MOL0     H 9609   4.050   7.764   7.130 -2.4014  1.5330 -2.5894
  812MOL0     H 9610   4.129   7.950   7.430  0.1093  0.5164  0.3042
  812MOL0     H 9611   4.047   7.829   7.530 -2.3599 -1.6578 -3.4020
  812MOL0     H 9612   4.282   7.906   7.588  0.5523  0.2200 -0.4952
  812MOL0     H 9613   4.341   7.810   7.452 -0.9772 -3.3891 -0.4366
  812MOL0     H 9614   4.207   7.614   7.533 -0.3572 -0.2746  0.5409
  812MOL0     H 9615   4.195   7.679   7.693 -0.8623  0.1858  0.0228
  812MOL0     H 9616   4.424   7.597   7.508 -2.4435  2.8407  0.0420
  812MOL0     H 9617   4.388   7.510   7.652 -1.5993  0.4068  0.4236
  812MOL0     H 9618   4.654   7.801   7.799 -0.3716 -1.0359 -1.0252
  812MOL0     H 9619   3.912   7.658   7.513 -1.8140  1.7974 -0.2273
  812MOL0     H 9620   3.699   7.623   7.438 -0.6468 -1.0996 -1.6677
  813MOL0     O 9621   4.825   5.123   2.605 -0.0712 -0.1871  0.1264
  813MOL0     C 9622   4.778   5.010   2.589  0.5283 -0.9916  0.1457
  813MOL0     O 9623   4.642   4.983   2.562  0.3010 -0.1412  0.2081
  813MOL0     C 9624   4.536   5.052   2.625 -0.0858 -1.3960 -0.3277
  813MOL0     C 9625   4.406   4.995   2.625 -0.2601 -1.0801 -1.0148
  813MOL0     C 9626   4.295   5.061   2.677 -0.1282  0.3662 -0.0696
  813MOL0     C 9627   4.299   5.181   2.745 -0.8324  0.2807  0.0805
  813MOL0     O 9628   4.181   5.234   2.786 -0.4931  0.1361 -0.0019
  813MOL0     C 9629   4.089   5.152   2.847  0.2711  0.2885  0.1323
  813MOL0     C 9630   3.965   5.236   2.889 -1.0798 -0.1291  0.8315
  813MOL0     C 9631   3.878   5.262   2.762  0.2849  0.3102  0.2357
  813MOL0     C 9632   3.737   5.321   2.794  0.6084 -0.9527 -0.8910
  813MOL0     C 9633   3.743   5.468   2.820 -0.4075 -0.4766  0.4771
  813MOL0     C 9634   3.599   5.519   2.837 -0.1160 -0.1650  0.0219
  813MOL0     C 9635   3.603   5.679   2.841  0.1944  0.4887  0.5315
  813MOL0     C 9636   3.488   5.755   2.909 -0.6140  0.2499  0.8719
  813MOL0     N 9637   3.481   5.726   3.054  0.2907 -0.6480 -0.6961
  813MOL0     C 9638   3.535   5.816   3.147 -0.1329 -0.4706 -0.1819
  813MOL0     C 9639   3.516   5.757   3.266  0.9380 -0.5873  0.7142
  813MOL0     C 9640   3.562   5.826   3.388 -1.0564  0.2189 -0.6312
  813MOL0     C 9641   3.707   5.853   3.401 -0.2221  0.1623  0.5353
  813MOL0     C 9642   3.727   5.952   3.524 -0.0598  0.2496  0.3928
  813MOL0     C 9643   3.705   5.884   3.655  0.7012 -0.0769 -0.7862
  813MOL0     O 9644   3.809   5.802   3.680 -0.3731 -0.8654  0.5600
  813MOL0     C 9645   3.810   5.720   3.785 -0.5272  0.2214  0.1070
  813MOL0     C 9646   3.703   5.701   3.877  0.5890 -0.6003  0.2405
  813MOL0     C 9647   3.708   5.600   3.980 -0.3340 -0.3783  0.6046
  813MOL0     C 9648   3.597   5.591   4.081 -0.2750 -0.1413  1.6677
  813MOL0     C 9649   3.820   5.510   3.976  0.3879  0.8855 -0.8104
  813MOL0     C 9650   3.820   5.374   4.047  0.2877 -1.1272 -0.2697
  813MOL0     O 9651   3.939   5.332   4.077 -0.6058  0.4921  0.1976
  813MOL0     C 9652   3.940   5.220   4.150  0.3919  0.5952 -0.3838
  813MOL0     C 9653   3.971   5.099   4.080  0.1027  0.1638  0.2874
  813MOL0     C 9654   4.011   4.986   4.153 -0.2316  0.2061  0.0321
  813MOL0     C 9655   4.034   4.998   4.289 -0.5142 -0.1246  0.6410
  813MOL0     O 9656   4.055   4.897   4.378  0.7132  0.0520 -0.0357
  813MOL0     C 9657   4.158   4.801   4.328  0.3542 -0.9375 -0.1661
  813MOL0     C 9658   4.257   4.757   4.441 -0.0167 -0.1353  0.1786
  813MOL0     C 9659   4.371   4.863   4.453 -0.7775  0.0204  0.6426
  813MOL0     C 9660   4.477   4.830   4.564  0.6868 -0.1871 -0.8212
  813MOL0     C 9661   4.528   4.962   4.622  0.6336  0.2596  0.1303
  813MOL0     C 9662   4.647   4.932   4.717 -0.7012 -0.0919 -0.2746
  813MOL0     C 9663   4.699   5.059   4.790 -0.0350  0.2089  0.1255
  813MOL0     C 9664   4.841   5.029   4.858  0.6894  0.0765 -1.0926
  813MOL0    Cl 9665   4.885   5.172   4.949  0.0503 -0.1532 -0.0022
  813MOL0     C 9666   4.006   5.120   4.353 -0.6827 -0.3290 -0.3935
  813MOL0     C 9667   3.957   5.232   4.284 -0.1553 -0.5467 -0.4574
  813MOL0     O 9668   3.714   5.308   4.059  0.4478 -0.5764 -0.6808
  813MOL0     C 9669   3.928   5.527   3.886 -0.4898 -0.1708 -0.5212
  813MOL0     C 9670   3.918   5.630   3.793  0.6361 -0.3280 -0.4668
  813MOL0     N 9671   3.446   5.633   3.242  0.1307  0.7063 -0.9546
  813MOL0     N 9672   3.422   5.625   3.118  0.4968  0.9442 -0.3214
  813MOL0     C 9673   4.432   5.227   2.766 -0.4578 -0.4417 -0.6346
  813MOL0     C 9674   4.539   5.175   2.701 -0.0348 -0.2569  0.6113
  813MOL0     C 9675   4.889   4.905   2.579 -0.3455 -0.1969 -0.1530
  813MOL0     C 9676   4.855   4.771   2.584 -0.3154  0.1327  0.4891
  813MOL0     C 9677   4.958   4.666   2.592  0.7343 -0.2882 -0.5350
  813MOL0     C 9678   5.093   4.699   2.594  0.4678  0.7811 -0.5227
  813MOL0     O 9679   5.179   4.591   2.610 -0.3921  0.1824 -0.5213
  813MOL0     C 9680   5.318   4.628   2.616 -0.8767  0.3153  0.0132
  813MOL0     C 9681   5.411   4.507   2.635  0.2762 -0.5049  1.2501
  813MOL0     C 9682   5.378   4.380   2.544  0.3378  0.1162 -0.2163
  813MOL0     C 9683   5.456   4.373   2.416 -0.5255 -0.3731  0.9771
  813MOL0     C 9684   5.591   4.333   2.430  1.2738  0.4845  0.0327
  813MOL0     C 9685   5.702   4.294   2.446  0.2038  0.6293  0.1963
  813MOL0     C 9686   5.126   4.833   2.581  0.6625  0.3151 -1.0372
  813MOL0     C 9687   5.033   4.929   2.583  0.2767 -0.1315  0.0751
  813MOL0     H 9688   4.377   4.904   2.572 -1.3298  0.1456 -2.6525
  813MOL0     H 9689   4.198   5.014   2.660 -0.2868 -0.2783  2.2549
  813MOL0     H 9690   4.052   5.068   2.788  2.1868 -0.4897 -0.0312
  813MOL0     H 9691   4.129   5.110   2.940 -0.0229 -1.0097 -0.3072
  813MOL0     H 9692   3.909   5.181   2.965  0.9756 -3.2973  0.2484
  813MOL0     H 9693   4.000   5.328   2.937  0.3154  0.3407 -0.9833
  813MOL0     H 9694   3.930   5.322   2.687 -1.7180  0.9996 -0.7014
  813MOL0     H 9695   3.857   5.170   2.706 -0.7642  1.8475 -2.0863
  813MOL0     H 9696   3.679   5.304   2.703 -1.9190  2.7351 -0.1570
  813MOL0     H 9697   3.693   5.270   2.880 -0.4916  0.2578 -0.7160
  813MOL0     H 9698   3.806   5.488   2.908 -0.0305  1.7234 -0.2489
  813MOL0     H 9699   3.798   5.516   2.739 -2.0127  0.5474 -0.0504
  813MOL0     H 9700   3.526   5.487   2.763 -1.7221  1.9452  0.5579
  813MOL0     H 9701   3.564   5.485   2.935  0.8553 -0.0923  0.4095
  813MOL0     H 9702   3.695   5.721   2.882  0.0757  1.8559 -0.5389
  813MOL0     H 9703   3.604   5.711   2.736  1.2588  1.8427  0.9307
  813MOL0     H 9704   3.397   5.739   2.850  0.0580  1.5317 -0.5741
  813MOL0     H 9705   3.513   5.862   2.912  0.7524  0.0547 -1.6206
  813MOL0     H 9706   3.591   5.906   3.126 -1.1401  0.7442  1.9749
  813MOL0     H 9707   3.505   5.919   3.395 -2.7990 -0.9217  1.0870
  813MOL0     H 9708   3.523   5.764   3.470  1.3062  2.0389  2.0606
  813MOL0     H 9709   3.735   5.899   3.306  0.2997 -3.2719 -1.1151
  813MOL0     H 9710   3.772   5.765   3.411  0.7703  0.8810  0.6175
  813MOL0     H 9711   3.664   6.040   3.509  0.0989  0.1768 -0.8066
  813MOL0     H 9712   3.825   5.997   3.503 -0.3477 -1.2157 -6.3565
  813MOL0     H 9713   3.615   5.820   3.657  0.3479  0.3268  2.9506
  813MOL0     H 9714   3.691   5.960   3.732 -1.9754 -0.1884 -1.0391
  813MOL0     H 9715   3.615   5.765   3.874  0.5655 -0.5781  1.2633
  813MOL0     H 9716   3.512   5.539   4.036  0.1591  0.1719  0.4480
  813MOL0     H 9717   3.622   5.533   4.170 -1.9522 -2.5128  0.6926
  813MOL0     H 9718   3.562   5.686   4.123  1.2002 -0.0618  2.8203
  813MOL0     H 9719   3.964   5.092   3.972  0.6696  0.3531  0.2341
  813MOL0     H 9720   4.025   4.888   4.109  1.0991  0.5695 -0.3944
  813MOL0     H 9721   4.102   4.717   4.286  1.6112 -1.0631 -1.6992
  813MOL0     H 9722   4.222   4.833   4.245  1.8044  0.7803  1.5034
  813MOL0     H 9723   4.199   4.746   4.533 -2.8998  1.5618 -1.2779
  813MOL0     H 9724   4.325   4.673   4.421  1.8629  0.8367  2.0526
  813MOL0     H 9725   4.332   4.963   4.477  1.9888  1.2325  0.4784
  813MOL0     H 9726   4.422   4.869   4.356 -1.5979 -4.8745 -0.3677
  813MOL0     H 9727   4.429   4.760   4.633  1.0109  0.5847  0.2133
  813MOL0     H 9728   4.561   4.782   4.512 -1.2777 -1.7003 -2.7609
  813MOL0     H 9729   4.457   5.019   4.682  1.0524 -0.4076  1.2840
  813MOL0     H 9730   4.539   5.028   4.535 -0.0971 -1.2493 -1.1644
  813MOL0     H 9731   4.638   4.857   4.797  0.5583 -0.5276 -0.5115
  813MOL0     H 9732   4.725   4.895   4.650 -1.4852  1.6471 -2.2676
  813MOL0     H 9733   4.630   5.092   4.868 -1.0695  1.0429 -1.1176
  813MOL0     H 9734   4.712   5.137   4.714 -3.2841  0.7078 -0.0730
  813MOL0     H 9735   4.921   5.020   4.784  1.8213  2.6085 -0.2859
  813MOL0     H 9736   4.827   4.935   4.912 -3.1264  0.2151 -1.5304
  813MOL0     H 9737   4.015   5.118   4.461 -1.4091 -2.6480 -0.3208
  813MOL0     H 9738   3.970   5.322   4.343  1.7466 -0.3011 -1.1623
  813MOL0     H 9739   4.013   5.461   3.879 -1.3571 -1.2260 -1.7582
  813MOL0     H 9740   4.006   5.637   3.731  2.1254  4.2916  1.6927
  813MOL0     H 9741   4.444   5.322   2.818  0.4135 -0.5090 -0.7005
  813MOL0     H 9742   4.634   5.227   2.706 -0.7320  1.3256 -1.2176
  813MOL0     H 9743   4.752   4.737   2.581  0.4255 -2.3179 -2.2709
  813MOL0     H 9744   4.945   4.558   2.583  1.7812 -0.4148 -0.6896
  813MOL0     H 9745   5.349   4.683   2.526  3.3222  0.7547  1.4795
  813MOL0     H 9746   5.333   4.692   2.703  0.4661  1.2281 -0.8438
  813MOL0     H 9747   5.412   4.482   2.741  1.2156  2.9234  2.1951
  813MOL0     H 9748   5.513   4.541   2.615  0.6984 -2.4048 -0.0693
  813MOL0     H 9749   5.271   4.384   2.523  0.2005  1.1684  0.6074
  813MOL0     H 9750   5.399   4.296   2.612 -2.5761 -1.1964 -0.7588
  813MOL0     H 9751   5.452   4.461   2.351  0.0087 -1.3043 -0.3647
  813MOL0     H 9752   5.400   4.302   2.355 -2.7279  3.2593 -1.6803
  813MOL0     H 9753   5.795   4.249   2.474  0.0617  0.3564  0.2387
  813MOL0     H 9754   5.228   4.869   2.594  0.7621  0.5729 -2.4545
  813MOL0     H 9755   5.061   5.031   2.606 -0.0256 -0.1763  0.6591
  814MOL0     O 9756   1.881   6.393   3.568  0.1346 -0.1116 -0.3308
  814MOL0     C 9757   1.807   6.339   3.487 -0.3178  0.8612 -0.6175
  814MOL0     O 9758   1.831   6.212   3.435  0.2964 -0.0980  0.0287
  814MOL0     C 9759   1.953   6.161   3.462 -0.1104  0.5663  1.0597
  814MOL0     C 9760   2.072   6.194   3.391 -0.3215 -0.0350  0.5389
  814MOL0     C 9761   2.191   6.128   3.421 -0.6934  0.0232 -0.1486
  814MOL0     C 9762   2.183   6.009   3.488  0.9131  0.5234 -0.0669
  814MOL0     O 9763   2.306   5.944   3.510 -0.5724  0.8838  0.0968
  814MOL0     C 9764   2.323   5.902   3.644 -0.6375 -0.3224  0.0125
  814MOL0     C 9765   2.457   5.842   3.681  0.0337  0.0121  0.5882
  814MOL0     C 9766   2.477   5.695   3.661 -0.4106  0.5792 -0.0904
  814MOL0     C 9767   2.629   5.655   3.667 -1.6166 -0.0115  0.3143
  814MOL0     C 9768   2.651   5.509   3.646 -0.5495  0.1657  0.2210
  814MOL0     C 9769   2.592   5.444   3.516  0.8013 -0.8145  0.3271
  814MOL0     C 9770   2.659   5.492   3.389  0.9779 -0.4700 -0.1680
  814MOL0     C 9771   2.593   5.410   3.265 -0.3722 -1.2393 -0.9817
  814MOL0     N 9772   2.649   5.279   3.250 -0.0909 -0.3310 -0.6171
  814MOL0     C 9773   2.783   5.250   3.232 -0.3780 -1.2390 -1.0164
  814MOL0     C 9774   2.798   5.113   3.243  0.1686  0.0846 -1.3631
  814MOL0     C 9775   2.932   5.038   3.226  0.1969  0.1383 -0.1419
  814MOL0     C 9776   2.970   5.048   3.074  0.6211  0.1698 -0.5320
  814MOL0     C 9777   3.071   4.930   3.047 -0.4138 -0.0062 -0.6407
  814MOL0     C 9778   3.169   4.961   2.942 -0.4480  0.3141  0.1906
  814MOL0     O 9779   3.238   5.082   2.972 -0.5021 -0.1620  0.2452
  814MOL0     C 9780   3.367   5.093   3.028  1.6102 -0.0694 -0.4057
  814MOL0     C 9781   3.461   4.993   3.051  0.1415 -0.1516  0.3124
  814MOL0     C 9782   3.599   5.011   3.089  0.3909 -0.6257 -0.2467
  814MOL0     C 9783   3.682   4.891   3.098  0.2670 -0.0153  0.1108
  814MOL0     C 9784   3.629   5.145   3.134 -0.6080  0.3478 -0.0325
  814MOL0     C 9785   3.758   5.176   3.189 -0.2289  0.8838 -0.0008
  814MOL0     O 9786   3.803   5.306   3.164 -0.2848 -0.8182  0.1905
  814MOL0     C 9787   3.903   5.363   3.240 -0.7434 -0.7380 -0.6843
  814MOL0     C 9788   3.886   5.492   3.287 -0.1646  0.0887 -0.7712
  814MOL0     C 9789   3.989   5.567   3.350 -0.2827  0.4370  1.1774
  814MOL0     C 9790   4.107   5.498   3.377  0.3728 -0.9587 -0.8562
  814MOL0     O 9791   4.209   5.567   3.443 -0.0713  0.0092 -0.6318
  814MOL0     C 9792   4.350   5.512   3.429  0.4802  0.0769  0.8357
  814MOL0     C 9793   4.440   5.620   3.467  0.3276  0.6361  0.2420
  814MOL0     C 9794   4.588   5.595   3.438  0.3988 -0.7310 -0.0389
  814MOL0     C 9795   4.641   5.478   3.520  0.4436  0.7208 -0.2626
  814MOL0     C 9796   4.799   5.489   3.534  0.2126  0.3613  0.6050
  814MOL0     C 9797   4.847   5.350   3.579  0.3842  0.4388  0.4508
  814MOL0     C 9798   4.996   5.338   3.575 -0.6545  0.2679  0.4818
  814MOL0     C 9799   5.047   5.196   3.594  0.3531  0.3003 -0.0797
  814MOL0    Cl 9800   4.976   5.109   3.736 -0.0218  0.1918  0.3446
  814MOL0     C 9801   4.119   5.372   3.332  0.2031 -0.2939 -0.2429
  814MOL0     C 9802   4.025   5.303   3.268  0.2447  0.6113 -0.2132
  814MOL0     O 9803   3.813   5.090   3.266 -0.0255 -0.5512  0.3686
  814MOL0     C 9804   3.528   5.240   3.124 -0.0759  0.8874 -0.1692
  814MOL0     C 9805   3.403   5.218   3.075  0.5200  0.0302  0.3082
  814MOL0     N 9806   2.671   5.068   3.266 -0.4782 -0.1122 -0.3935
  814MOL0     N 9807   2.586   5.167   3.269  0.2935 -0.0061 -0.5054
  814MOL0     C 9808   2.065   5.970   3.552 -0.6395 -0.6778 -0.1413
  814MOL0     C 9809   1.952   6.040   3.529  0.8511 -1.1246  0.7848
  814MOL0     C 9810   1.682   6.395   3.459  0.9168 -0.0471 -0.0413
  814MOL0     C 9811   1.614   6.369   3.347  0.0670  0.2330 -0.1399
  814MOL0     C 9812   1.483   6.421   3.324 -1.2595 -0.4768  0.8750
  814MOL0     C 9813   1.428   6.510   3.417  0.9631  0.0716 -0.2314
  814MOL0     O 9814   1.305   6.555   3.379  0.1903 -0.2377  0.2691
  814MOL0     C 9815   1.224   6.617   3.481  0.8218 -0.0093  0.1579
  814MOL0     C 9816   1.152   6.502   3.559  0.3941  0.5363 -0.7414
  814MOL0     C 9817   1.106   6.562   3.699  1.2110  0.1952 -0.2989
  814MOL0     C 9818   1.195   6.525   3.810  0.1047  0.0216  0.2172
  814MOL0     C 9819   1.164   6.600   3.928 -0.5105  0.1293  0.1772
  814MOL0     C 9820   1.129   6.676   4.018 -0.3532  0.0685  0.1622
  814MOL0     C 9821   1.493   6.540   3.539 -0.0554  1.5331 -0.2541
  814MOL0     C 9822   1.620   6.482   3.556  0.0499  1.0557  0.0795
  814MOL0     H 9823   2.064   6.273   3.317 -3.4963  0.2855  1.0896
  814MOL0     H 9824   2.286   6.165   3.382 -0.7451 -1.7725 -2.1474
  814MOL0     H 9825   2.303   5.981   3.716 -1.3318 -0.4941  0.0163
  814MOL0     H 9826   2.247   5.827   3.667  0.9888 -1.7039  1.1744
  814MOL0     H 9827   2.531   5.903   3.628 -0.1889  0.6994  1.0477
  814MOL0     H 9828   2.477   5.851   3.788 -0.5212  0.9973  0.6253
  814MOL0     H 9829   2.422   5.632   3.732  0.4606 -0.4134 -0.2608
  814MOL0     H 9830   2.436   5.672   3.562 -0.7789 -0.5963  0.3099
  814MOL0     H 9831   2.692   5.701   3.590 -1.3226 -3.4702 -1.7577
  814MOL0     H 9832   2.681   5.685   3.758 -0.2068 -0.8034 -0.1911
  814MOL0     H 9833   2.759   5.493   3.651 -0.5035  0.5009  0.3068
  814MOL0     H 9834   2.620   5.459   3.739 -1.8885  2.8892  1.3401
  814MOL0     H 9835   2.617   5.338   3.525 -1.6257 -1.3174  2.1367
  814MOL0     H 9836   2.483   5.442   3.513  0.5994 -2.1914  3.8128
  814MOL0     H 9837   2.641   5.599   3.381 -3.0831 -0.8792  1.2087
  814MOL0     H 9838   2.768   5.483   3.395  1.1276  1.2324  0.2446
  814MOL0     H 9839   2.589   5.475   3.177  0.4641  1.5569  0.8898
  814MOL0     H 9840   2.485   5.399   3.276 -0.7891 -0.3675 -3.5350
  814MOL0     H 9841   2.863   5.323   3.242  1.1286 -2.9830  0.3695
  814MOL0     H 9842   3.009   5.089   3.285 -0.6775 -0.2057  1.3311
  814MOL0     H 9843   2.911   4.936   3.260 -0.7672 -1.0083 -3.7401
  814MOL0     H 9844   3.007   5.150   3.058 -1.3190  1.2441  1.3015
  814MOL0     H 9845   2.879   5.047   3.013 -0.8065 -0.5268  1.5090
  814MOL0     H 9846   3.025   4.832   3.035  0.5987 -0.9906  2.5038
  814MOL0     H 9847   3.123   4.914   3.142 -0.6733 -3.6030 -0.9577
  814MOL0     H 9848   3.130   4.987   2.843 -0.2246  2.0630  0.5327
  814MOL0     H 9849   3.243   4.881   2.929  0.3370  1.0725 -0.1571
  814MOL0     H 9850   3.428   4.893   3.027  0.5166  0.4455 -3.2523
  814MOL0     H 9851   3.694   4.845   3.196 -1.8744 -0.3754  0.2652
  814MOL0     H 9852   3.646   4.811   3.032  0.9897 -0.4678  0.2563
  814MOL0     H 9853   3.775   4.916   3.046 -0.4969 -0.6086 -1.6442
  814MOL0     H 9854   3.788   5.539   3.285  1.7013  4.4450  0.1709
  814MOL0     H 9855   3.963   5.664   3.392 -1.8708  0.8053 -0.5449
  814MOL0     H 9856   4.365   5.418   3.483  0.2619 -1.7113 -2.0325
  814MOL0     H 9857   4.383   5.486   3.328 -1.9648 -0.8617  0.1963
  814MOL0     H 9858   4.417   5.710   3.409 -1.7951 -0.2984 -0.4703
  814MOL0     H 9859   4.443   5.639   3.574 -0.2751 -0.1582  0.4058
  814MOL0     H 9860   4.634   5.690   3.466 -2.6647  0.7606  0.3051
  814MOL0     H 9861   4.605   5.569   3.333 -1.5130 -4.8497  0.4710
  814MOL0     H 9862   4.601   5.474   3.622 -0.6150  0.2796 -0.6818
  814MOL0     H 9863   4.617   5.385   3.467  1.1478 -0.1849  0.9580
  814MOL0     H 9864   4.819   5.566   3.610 -5.0316  2.8444 -0.1078
  814MOL0     H 9865   4.841   5.519   3.438  1.6208 -1.6308  0.5259
  814MOL0     H 9866   4.809   5.360   3.681 -1.4315  1.0611 -0.2467
  814MOL0     H 9867   4.787   5.278   3.524  0.1674  0.4884  0.6195
  814MOL0     H 9868   5.027   5.402   3.659 -1.2297  0.7333  0.3519
  814MOL0     H 9869   5.035   5.388   3.486 -1.4363 -0.0658 -0.0633
  814MOL0     H 9870   5.155   5.209   3.612  0.6520 -2.2270  0.2880
  814MOL0     H 9871   5.034   5.140   3.501  1.4715  0.9595 -0.6632
  814MOL0     H 9872   4.217   5.326   3.332 -0.3867 -1.5880 -0.1513
  814MOL0     H 9873   4.050   5.202   3.234 -1.7861  0.1289 -0.3758
  814MOL0     H 9874   3.562   5.338   3.155  0.6961  0.7491 -0.5439
  814MOL0     H 9875   3.339   5.305   3.058  2.0257  0.8428 -1.4291
  814MOL0     H 9876   2.066   5.873   3.600 -0.6420 -0.5384  0.1429
  814MOL0     H 9877   1.858   6.006   3.573  0.0074  0.8914  0.6766
  814MOL0     H 9878   1.658   6.301   3.275 -0.2863 -2.9757  2.4425
  814MOL0     H 9879   1.431   6.395   3.232  1.1004  2.2352 -1.4179
  814MOL0     H 9880   1.282   6.678   3.552  1.3805 -1.7810  1.2892
  814MOL0     H 9881   1.148   6.678   3.432  0.7373 -0.3637 -0.1481
  814MOL0     H 9882   1.225   6.423   3.579 -0.7492 -0.4428 -0.3692
  814MOL0     H 9883   1.071   6.446   3.511 -0.1679 -0.9368  1.7863
  814MOL0     H 9884   1.004   6.535   3.727  0.7646 -0.9616 -2.7942
  814MOL0     H 9885   1.091   6.669   3.682 -0.2386  0.1997  0.7659
  814MOL0     H 9886   1.299   6.550   3.784  0.4462 -0.9438  0.6299
  814MOL0     H 9887   1.209   6.418   3.825  2.6087  0.2074 -0.2454
  814MOL0     H 9888   1.119   6.744   4.101  2.6560  2.6480 -1.3679
  814MOL0     H 9889   1.462   6.598   3.625 -0.8889 -1.7460  1.8490
  814MOL0     H 9890   1.671   6.495   3.651  0.3591  0.0775  0.0633
  815MOL0     O 9891   3.878   3.307   6.053  0.3964 -0.9228  1.3432
  815MOL0     C 9892   3.782   3.374   6.102  0.1166 -0.0145 -0.5895
  815MOL0     O 9893   3.651   3.357   6.079 -0.2229 -0.4920 -0.2806
  815MOL0     C 9894   3.605   3.256   5.992  0.4748 -0.7404  0.3021
  815MOL0     C 9895   3.656   3.127   5.989  0.1606  0.9669 -0.2598
  815MOL0     C 9896   3.600   3.025   5.919 -0.4019 -0.3989  1.0418
  815MOL0     C 9897   3.484   3.050   5.841 -1.2886 -0.0301 -0.8112
  815MOL0     O 9898   3.422   2.947   5.762  0.9868  0.3250 -0.1785
  815MOL0     C 9899   3.509   2.852   5.702 -0.0969  0.4487 -0.2502
  815MOL0     C 9900   3.439   2.763   5.590  0.1868  0.2482 -0.2141
  815MOL0     C 9901   3.387   2.846   5.471  0.3569  0.2583 -0.3822
  815MOL0     C 9902   3.277   2.777   5.394 -0.0914  0.8744  0.1472
  815MOL0     C 9903   3.245   2.844   5.261  0.3858 -0.2806  0.9009
  815MOL0     C 9904   3.185   2.987   5.268 -0.3459 -0.8059  0.1418
  815MOL0     C 9905   3.175   3.052   5.128 -0.1917  0.4711  0.3024
  815MOL0     C 9906   3.313   3.053   5.058  0.8556 -0.5800  0.0501
  815MOL0     N 9907   3.298   3.129   4.932 -0.8129 -0.0088 -0.1690
  815MOL0     C 9908   3.239   3.095   4.809 -0.3079  0.9988 -0.9993
  815MOL0     C 9909   3.251   3.196   4.728 -0.1237  0.0596 -0.2405
  815MOL0     C 9910   3.189   3.229   4.597  0.8421 -1.4958 -0.4070
  815MOL0     C 9911   3.074   3.324   4.625 -0.7808 -0.4549 -0.1605
  815MOL0     C 9912   2.942   3.251   4.670  1.4495  0.9277  0.5648
  815MOL0     C 9913   2.893   3.260   4.814 -0.8388 -0.4290 -0.2304
  815MOL0     O 9914   2.796   3.155   4.828  0.0122 -0.4823 -0.1535
  815MOL0     C 9915   2.772   3.123   4.960  1.0783 -0.1926 -0.8248
  815MOL0     C 9916   2.718   2.992   4.991 -0.8786 -0.3602 -0.0248
  815MOL0     C 9917   2.696   2.942   5.117 -0.7612 -0.4165 -0.6426
  815MOL0     C 9918   2.632   2.811   5.116  0.8256  0.1123  0.3018
  815MOL0     C 9919   2.734   3.024   5.225 -0.7536 -0.1307 -0.1965
  815MOL0     C 9920   2.703   2.977   5.360 -0.2820  0.9043 -0.4018
  815MOL0     O 9921   2.669   3.077   5.451 -0.8665 -0.0488  1.1053
  815MOL0     C 9922   2.606   3.056   5.569  0.3768  0.5825 -0.2643
  815MOL0     C 9923   2.637   3.125   5.682 -0.7781 -0.2884 -0.7600
  815MOL0     C 9924   2.568   3.091   5.803  0.8308 -0.5714  0.4075
  815MOL0     C 9925   2.468   2.986   5.803 -0.1911 -0.0815 -0.0196
  815MOL0     O 9926   2.422   2.940   5.922 -0.4350 -0.2295 -0.1416
  815MOL0     C 9927   2.311   2.989   5.979  0.3853 -0.7371  0.2616
  815MOL0     C 9928   2.340   3.113   6.082 -0.7030 -0.0108  0.0987
  815MOL0     C 9929   2.437   3.069   6.195 -0.3198 -0.0603  0.0472
  815MOL0     C 9930   2.441   3.171   6.313 -0.3788  1.0921 -0.1315
  815MOL0     C 9931   2.519   3.120   6.433  1.3393 -0.5084  0.9197
  815MOL0     C 9932   2.464   2.975   6.480 -0.0469  0.1339  0.1340
  815MOL0     C 9933   2.547   2.928   6.607  1.0367  0.4631  0.0290
  815MOL0     C 9934   2.538   3.013   6.731 -0.3162 -0.3216  0.2449
  815MOL0    Cl 9935   2.404   2.978   6.843 -0.1015  0.0241 -0.4508
  815MOL0     C 9936   2.422   2.937   5.679  0.2866 -0.0788 -0.6220
  815MOL0     C 9937   2.505   2.971   5.567  0.2944  0.3227 -0.9025
  815MOL0     O 9938   2.706   2.854   5.384  0.1463 -0.5298  0.4574
  815MOL0     C 9939   2.786   3.150   5.198  0.9154 -1.0583 -0.3971
  815MOL0     C 9940   2.803   3.202   5.069 -0.8458  0.6378  0.1967
  815MOL0     N 9941   3.320   3.292   4.797  0.7386 -0.2526 -0.0718
  815MOL0     N 9942   3.345   3.248   4.911 -0.6206 -0.5763 -0.3307
  815MOL0     C 9943   3.424   3.177   5.846  0.5464 -0.1963 -0.5356
  815MOL0     C 9944   3.484   3.278   5.923 -1.1510 -0.7597 -0.2097
  815MOL0     C 9945   3.816   3.483   6.194 -0.6880  1.3960  0.7951
  815MOL0     C 9946   3.723   3.563   6.259  0.6197 -0.5881 -0.3161
  815MOL0     C 9947   3.759   3.653   6.360  0.0221  0.1183  1.1025
  815MOL0     C 9948   3.896   3.671   6.392 -0.4707 -0.9488 -0.3782
  815MOL0     O 9949   3.938   3.761   6.489  0.3127 -0.5721  1.0945
  815MOL0     C 9950   4.049   3.715   6.568 -0.8597 -0.0212 -0.1763
  815MOL0     C 9951   4.079   3.815   6.682  0.1151 -0.5720 -0.0751
  815MOL0     C 9952   3.995   3.789   6.800  0.0495 -0.4192  0.0270
  815MOL0     C 9953   4.047   3.868   6.923  0.3893  1.0802  0.0653
  815MOL0     C 9954   4.045   4.012   6.901 -0.2897  0.6609 -0.1406
  815MOL0     C 9955   4.038   4.126   6.862  0.4570  0.0402  0.6713
  815MOL0     C 9956   3.991   3.602   6.316  0.0362  0.4683  0.7915
  815MOL0     C 9957   3.956   3.510   6.217 -0.1427  0.8234  0.5053
  815MOL0     H 9958   3.747   3.102   6.042 -0.9579 -3.2071 -0.0123
  815MOL0     H 9959   3.645   2.927   5.912 -0.8724 -0.4941 -2.1343
  815MOL0     H 9960   3.599   2.901   5.662  0.0709  0.5951  0.3028
  815MOL0     H 9961   3.534   2.770   5.770 -2.7201  1.5435  2.2149
  815MOL0     H 9962   3.506   2.684   5.554  1.8507  1.3936  0.2730
  815MOL0     H 9963   3.348   2.719   5.632  1.0552  0.2554  1.7671
  815MOL0     H 9964   3.338   2.936   5.509  0.8880 -0.8036  3.1909
  815MOL0     H 9965   3.468   2.881   5.408  0.2380  2.0731  0.4272
  815MOL0     H 9966   3.324   2.686   5.357  1.2244  1.7069 -0.3335
  815MOL0     H 9967   3.183   2.753   5.444 -0.3507  1.1508 -0.2000
  815MOL0     H 9968   3.344   2.868   5.222 -0.4156  3.5162  0.7376
  815MOL0     H 9969   3.199   2.774   5.191  3.3016  0.6002 -2.1675
  815MOL0     H 9970   3.081   2.980   5.299  0.2777 -0.7867  2.3984
  815MOL0     H 9971   3.237   3.054   5.338 -2.2660 -0.7486  1.5973
  815MOL0     H 9972   3.097   3.004   5.067 -1.1894  0.9097  1.2035
  815MOL0     H 9973   3.141   3.155   5.138 -3.2760 -0.3766 -0.3239
  815MOL0     H 9974   3.346   2.952   5.033  1.1372 -0.5282  0.2156
  815MOL0     H 9975   3.385   3.103   5.124 -0.3150  0.9782  0.2109
  815MOL0     H 9976   3.173   3.009   4.809  0.1691  0.5235  2.1993
  815MOL0     H 9977   3.266   3.276   4.536 -0.4818  2.9265  0.9293
  815MOL0     H 9978   3.165   3.136   4.543 -0.0610 -1.3147 -0.3360
  815MOL0     H 9979   3.055   3.380   4.533 -2.4880 -3.1074 -1.5397
  815MOL0     H 9980   3.095   3.391   4.709 -0.0246 -1.4891  0.5008
  815MOL0     H 9981   2.964   3.144   4.659 -4.8668 -0.6420 -1.4479
  815MOL0     H 9982   2.859   3.286   4.607  1.3414  1.0905  0.7963
  815MOL0     H 9983   2.839   3.353   4.834  0.2098  0.2568 -0.4612
  815MOL0     H 9984   2.980   3.260   4.881  0.7507  1.8934 -2.1101
  815MOL0     H 9985   2.685   2.937   4.903  0.3964 -0.6761 -0.3282
  815MOL0     H 9986   2.591   2.785   5.018  1.4153 -0.8336  0.2983
  815MOL0     H 9987   2.707   2.734   5.131 -0.2091 -1.4745 -2.0405
  815MOL0     H 9988   2.545   2.806   5.182 -1.4976 -2.4064 -2.6051
  815MOL0     H 9989   2.728   3.181   5.693  0.6505 -2.6982  0.5678
  815MOL0     H 9990   2.586   3.149   5.893  1.2569 -1.5207  0.9387
  815MOL0     H 9991   2.245   3.015   5.896  1.5013  0.2127 -0.3679
  815MOL0     H 9992   2.266   2.913   6.043 -1.4025 -1.6051 -1.9039
  815MOL0     H 9993   2.393   3.189   6.023 -0.1778 -1.2018 -1.0183
  815MOL0     H 9994   2.248   3.152   6.127 -1.7555 -0.4672 -1.6009
  815MOL0     H 9995   2.535   3.041   6.154  0.2076  3.1073 -1.1375
  815MOL0     H 9996   2.400   2.970   6.225  1.4666 -0.6509  0.4253
  815MOL0     H 9997   2.486   3.268   6.292  0.2590  0.9191  0.3939
  815MOL0     H 9998   2.337   3.192   6.338 -0.3345  1.1915 -0.0276
  815MOL0     H 9999   2.490   3.191   6.510 -0.3837 -0.7338  0.5157
  815MOL0     H10000   2.628   3.119   6.438  1.5130 -0.8887 -1.6165
  815MOL0     H10001   2.363   2.977   6.521  0.8026 -0.4320  2.4113
  815MOL0     H10002   2.473   2.894   6.408 -1.3754 -0.1417  0.2534
  815MOL0     H10003   2.650   2.929   6.571 -0.0159  3.5248 -3.5915
  815MOL0     H10004   2.519   2.824   6.627  1.6484  0.1715 -0.5965
  815MOL0     H10005   2.538   3.119   6.705  2.8363 -0.2824  0.0483
  815MOL0     H10006   2.629   3.002   6.791 -0.2220 -1.4402 -0.0845
  815MOL0     H10007   2.349   2.859   5.664  1.2638 -1.7646  2.5574
  815MOL0     H10008   2.477   2.924   5.473 -1.1744  1.4286 -1.0630
  815MOL0     H10009   2.814   3.213   5.282 -4.6072  0.0445  1.0133
  815MOL0     H10010   2.837   3.303   5.046  0.2723 -0.3229 -2.8943
  815MOL0     H10011   3.329   3.179   5.793  0.0452 -1.1883  0.2859
  815MOL0     H10012   3.451   3.379   5.945  2.8595  0.1808  2.5421
  815MOL0     H10013   3.618   3.559   6.232  0.7539 -0.4549 -0.8585
  815MOL0     H10014   3.686   3.715   6.412 -0.5188 -0.5759  1.1778
  815MOL0     H10015   4.034   3.613   6.602  1.2947 -0.0949  0.6973
  815MOL0     H10016   4.140   3.713   6.506 -0.6208 -1.5243  0.2000
  815MOL0     H10017   4.056   3.920   6.660  0.3095  0.1160  2.6586
  815MOL0     H10018   4.187   3.813   6.699 -0.0366 -1.2733  0.8632
  815MOL0     H10019   4.007   3.682   6.820  2.9288 -0.0912  0.5044
  815MOL0     H10020   3.889   3.812   6.787 -0.0470 -0.1899  1.1333
  815MOL0     H10021   4.153   3.841   6.923  0.4449  1.2817  0.4618
  815MOL0     H10022   3.994   3.847   7.017 -1.3492  3.5877 -0.2763
  815MOL0     H10023   4.038   4.225   6.821 -6.5312 -0.2912 -1.4664
  815MOL0     H10024   4.097   3.623   6.318  0.4880 -1.6562  1.2949
  815MOL0     H10025   4.040   3.470   6.161 -1.1036  0.2337 -0.5584
  816MOL0     O10026  10.481   4.452   0.458  0.6172  1.0059 -0.2829
  816MOL0     C10027  10.540   4.543   0.415  0.3441  0.1536  0.0900
  816MOL0     O10028  10.662   4.585   0.461  0.0244 -0.2724  0.4731
  816MOL0     C10029  10.688   4.551   0.591 -0.4120  0.5652 -0.9994
  816MOL0     C10030  10.793   4.464   0.627  0.4215 -0.2250 -0.6483
  816MOL0     C10031  10.829   4.435   0.764 -0.2793  0.2177  1.3757
  816MOL0     C10032  10.755   4.496   0.867 -0.0786  0.7730  0.8372
  816MOL0     O10033  10.783   4.480   0.999 -0.7198  0.0649 -0.0080
  816MOL0     C10034  10.844   4.352   1.041 -0.2782 -0.4583 -0.3826
  816MOL0     C10035  10.791   4.325   1.175 -0.3654  0.3765 -0.2571
  816MOL0     C10036  10.815   4.178   1.218  0.2086  0.3439 -0.1100
  816MOL0     C10037  10.762   4.170   1.358 -0.2188 -0.4147  0.2522
  816MOL0     C10038  10.778   4.031   1.403  0.1471 -0.0522  0.4157
  816MOL0     C10039  10.728   4.019   1.555  0.1220  1.0535 -0.7527
  816MOL0     C10040  10.762   3.882   1.609  0.2529  0.4291  0.2024
  816MOL0     C10041  10.913   3.847   1.635  0.7096  0.1341  0.5910
  816MOL0     N10042  10.932   3.858   1.780 -0.4856  0.6638  0.2900
  816MOL0     C10043  10.937   3.969   1.848 -0.1460  0.5552 -0.7264
  816MOL0     C10044  10.981   3.935   1.976 -0.5272 -0.9904 -0.2325
  816MOL0     C10045  11.031   4.024   2.092 -0.2392  0.2421  0.1529
  816MOL0     C10046  10.930   4.126   2.140 -0.3543  0.1425  0.0768
  816MOL0     C10047  10.955   4.178   2.282 -0.3921  0.3960 -0.4815
  816MOL0     C10048  11.026   4.319   2.283 -0.2366 -0.1277  0.4449
  816MOL0     O10049  11.165   4.298   2.255  0.4619  0.4710  0.5539
  816MOL0     C10050  11.249   4.339   2.356 -0.4110  0.1187  0.0166
  816MOL0     C10051  11.359   4.422   2.328 -0.8206 -0.0426  0.1390
  816MOL0     C10052  11.461   4.451   2.421 -0.8453 -1.2477 -0.4924
  816MOL0     C10053  11.582   4.532   2.362  0.3912 -0.1355 -0.7704
  816MOL0     C10054  11.462   4.400   2.550 -0.4709  0.5936 -0.1424
  816MOL0     C10055  11.558   4.432   2.662  0.2231 -0.1352 -0.1130
  816MOL0     O10056  11.524   4.389   2.793 -0.0175  0.3155  0.3267
  816MOL0     C10057  11.601   4.421   2.897 -0.0692  1.1310  0.3508
  816MOL0     C10058  11.535   4.476   3.003 -0.1154 -0.3595 -1.6288
  816MOL0     C10059  11.605   4.512   3.120  0.8548 -0.3259 -0.5575
  816MOL0     C10060  11.741   4.499   3.126 -0.5305  0.1488  0.4336
  816MOL0     O10061  11.824   4.533   3.231  0.1732 -0.1039  1.0309
  816MOL0     C10062  11.767   4.633   3.316  0.0770  0.4763  1.1662
  816MOL0     C10063  11.872   4.689   3.409  0.3365  0.1883  0.0145
  816MOL0     C10064  11.792   4.784   3.507  0.4043  0.6938 -0.0416
  816MOL0     C10065  11.713   4.711   3.615  0.4759  0.2382 -0.1461
  816MOL0     C10066  11.650   4.827   3.705  0.4733  0.4992  0.0129
  816MOL0     C10067  11.499   4.812   3.735  0.5521 -0.3735  0.0600
  816MOL0     C10068  11.449   4.942   3.781  0.3776 -0.1974 -0.5451
  816MOL0     C10069  11.325   4.928   3.886  0.1839 -1.1921  0.1508
  816MOL0    Cl10070  11.363   4.815   4.019 -0.2723 -0.1107 -0.2472
  816MOL0     C10071  11.805   4.435   3.014  0.5056  0.1961 -0.6127
  816MOL0     C10072  11.740   4.393   2.900  0.7883 -0.3904 -0.2559
  816MOL0     O10073  11.671   4.479   2.630 -0.2175 -0.1848  0.4445
  816MOL0     C10074  11.357   4.310   2.577  0.2723  0.1867 -0.1346
  816MOL0     C10075  11.256   4.281   2.488  1.5284 -0.7583  0.6538
  816MOL0     N10076  10.988   3.803   1.972  0.3441  0.7274 -0.1727
  816MOL0     N10077  10.956   3.752   1.857 -0.8928 -0.3532 -0.7376
  816MOL0     C10078  10.665   4.594   0.833 -1.2634  1.6608  0.1327
  816MOL0     C10079  10.619   4.616   0.698 -0.0589  0.0185 -0.8623
  816MOL0     C10080  10.505   4.598   0.281  0.4374  0.4865 -0.0052
  816MOL0     C10081  10.512   4.509   0.175  0.1468  0.7858 -0.7726
  816MOL0     C10082  10.474   4.562   0.050  0.1452 -0.3096 -0.3753
  816MOL0     C10083  10.429   4.697   0.034 -0.6187 -0.4182 -0.1481
  816MOL0     O10084  10.383   4.746  -0.086  0.7984  0.1246 -0.0391
  816MOL0     C10085  10.388   4.665  -0.201 -0.5069  0.6796 -0.6318
  816MOL0     C10086  10.325   4.750  -0.321  0.1713  1.0483  0.7434
  816MOL0     C10087  10.318   4.676  -0.457  0.6060  0.7549 -0.1223
  816MOL0     C10088  10.222   4.726  -0.559  1.1120  0.4054  0.1714
  816MOL0     C10089  10.081   4.681  -0.534 -0.2910  0.6894  0.2890
  816MOL0     C10090   9.967   4.644  -0.507  0.8298  0.2880 -0.4022
  816MOL0     C10091  10.429   4.780   0.138 -0.4458 -0.2633 -0.4225
  816MOL0     C10092  10.460   4.732   0.263  0.0351  1.1324 -0.0453
  816MOL0     H10093  10.846   4.398   0.559  1.1827  0.4529 -0.7377
  816MOL0     H10094  10.901   4.357   0.786  0.7079  0.6223 -0.2688
  816MOL0     H10095  10.822   4.270   0.972 -0.2121 -0.6496 -0.1749
  816MOL0     H10096  10.953   4.350   1.054 -0.2523 -1.0936 -0.6775
  816MOL0     H10097  10.857   4.390   1.234  0.8529 -1.8338  0.9470
  816MOL0     H10098  10.685   4.350   1.184 -0.0047  1.4255  1.9756
  816MOL0     H10099  10.762   4.113   1.148  1.7991 -0.7329 -0.3820
  816MOL0     H10100  10.922   4.152   1.216 -0.3936 -2.3476 -0.9754
  816MOL0     H10101  10.821   4.238   1.420  2.1402 -2.0433 -0.0706
  816MOL0     H10102  10.655   4.188   1.367 -0.2621  0.2789 -1.2986
  816MOL0     H10103  10.716   3.964   1.343  0.3606  2.4517 -2.8808
  816MOL0     H10104  10.883   4.003   1.392 -0.0998 -1.1015  0.6484
  816MOL0     H10105  10.769   4.092   1.625 -0.2638  0.2265  0.3710
  816MOL0     H10106  10.619   4.029   1.552  0.2103  2.5517  0.2063
  816MOL0     H10107  10.703   3.875   1.701 -0.2563  3.9591  0.2935
  816MOL0     H10108  10.726   3.802   1.544  1.3155 -0.0722  0.2196
  816MOL0     H10109  10.982   3.916   1.585 -0.7910  1.1214 -0.1879
  816MOL0     H10110  10.936   3.748   1.595  0.6309  0.6467 -0.7802
  816MOL0     H10111  10.936   4.068   1.802 -2.3359  0.0850 -1.8092
  816MOL0     H10112  11.058   3.959   2.176  0.9106  2.1903  1.3537
  816MOL0     H10113  11.114   4.085   2.056  0.9998 -1.3308  0.2199
  816MOL0     H10114  10.829   4.085   2.144  0.3312 -1.6013  0.4973
  816MOL0     H10115  10.936   4.212   2.072  3.0902 -1.4685 -1.9186
  816MOL0     H10116  11.007   4.102   2.341  1.2159  0.3679 -1.8523
  816MOL0     H10117  10.865   4.200   2.339 -1.9635 -1.5595 -2.0869
  816MOL0     H10118  11.023   4.364   2.383  4.7510  3.4432 -0.6481
  816MOL0     H10119  10.986   4.382   2.203 -0.2830 -1.8756 -0.9862
  816MOL0     H10120  11.376   4.462   2.228 -0.0171  0.6239  0.5304
  816MOL0     H10121  11.673   4.471   2.358 -0.2094 -1.1883  0.7298
  816MOL0     H10122  11.566   4.558   2.257 -1.8038 -0.8562 -0.6663
  816MOL0     H10123  11.596   4.618   2.428 -1.4141  0.2896 -0.8944
  816MOL0     H10124  11.429   4.498   3.006  0.3190  2.3983  2.9722
  816MOL0     H10125  11.549   4.551   3.205  1.2503  1.1636 -0.9424
  816MOL0     H10126  11.721   4.713   3.256  0.6946  1.5162  2.0428
  816MOL0     H10127  11.688   4.585   3.375  1.2912 -0.8169  1.7718
  816MOL0     H10128  11.914   4.602   3.461 -3.1357 -0.8294  1.3817
  816MOL0     H10129  11.947   4.752   3.361 -0.3773 -1.4568 -3.6357
  816MOL0     H10130  11.718   4.838   3.447  2.7198  2.2060 -1.7161
  816MOL0     H10131  11.856   4.861   3.550 -3.7020  2.3024  3.9604
  816MOL0     H10132  11.635   4.652   3.565 -1.0656  2.4513 -0.4686
  816MOL0     H10133  11.782   4.641   3.664  1.1325  0.7478 -0.3248
  816MOL0     H10134  11.663   4.926   3.662  1.6766 -0.0609 -0.9775
  816MOL0     H10135  11.702   4.816   3.801  1.6730 -2.4195 -0.8213
  816MOL0     H10136  11.455   4.792   3.637  2.5801  3.5585 -1.8543
  816MOL0     H10137  11.482   4.727   3.803  1.4902 -0.0450  0.7256
  816MOL0     H10138  11.428   5.016   3.703 -3.4509 -0.4333  0.0654
  816MOL0     H10139  11.525   4.995   3.839  0.5620 -0.6764 -0.3422
  816MOL0     H10140  11.239   4.881   3.837  0.6210 -3.1234  1.1419
  816MOL0     H10141  11.304   5.027   3.930  3.5910 -0.3267  0.1375
  816MOL0     H10142  11.911   4.421   3.029  0.7100  2.8614  1.1399
  816MOL0     H10143  11.789   4.355   2.811 -0.4067  2.2987 -2.2001
  816MOL0     H10144  11.346   4.265   2.674  0.9032 -0.8571 -0.5329
  816MOL0     H10145  11.170   4.224   2.523 -1.2047 -0.9793 -5.1938
  816MOL0     H10146  10.615   4.656   0.908  0.5089 -1.2678  4.0973
  816MOL0     H10147  10.537   4.686   0.682 -1.3557 -0.8560  1.3501
  816MOL0     H10148  10.544   4.407   0.190 -0.1485  0.5275 -1.8436
  816MOL0     H10149  10.438   4.493  -0.025 -2.1987  1.3372 -0.8668
  816MOL0     H10150  10.488   4.636  -0.235 -1.0825 -3.4336  0.5713
  816MOL0     H10151  10.332   4.572  -0.190  0.3359  0.1365 -0.8454
  816MOL0     H10152  10.374   4.845  -0.343 -3.7577  2.8136 -1.5349
  816MOL0     H10153  10.221   4.773  -0.296 -0.6846  0.6379 -2.1052
  816MOL0     H10154  10.292   4.570  -0.448 -0.4712  0.9082 -1.1756
  816MOL0     H10155  10.416   4.673  -0.505  0.9446  1.2431  0.5250
  816MOL0     H10156  10.244   4.687  -0.658  1.7918  0.7537  0.1868
  816MOL0     H10157  10.218   4.835  -0.566 -1.5691  0.2647 -3.1167
  816MOL0     H10158   9.874   4.611  -0.466  0.5500  0.3236 -0.9901
  816MOL0     H10159  10.412   4.887   0.125  0.8284 -0.2620 -2.6804
  816MOL0     H10160  10.486   4.790   0.352  1.5705  0.6261 -0.1297
  817MOL0     O10161   5.675   6.859   6.664 -0.0522  0.1119  0.2619
  817MOL0     C10162   5.641   6.941   6.747 -0.4366  0.5910 -0.1751
  817MOL0     O10163   5.548   7.035   6.738  0.5962 -1.2748 -0.4119
  817MOL0     C10164   5.459   7.058   6.628 -0.4954 -0.3188  0.3294
  817MOL0     C10165   5.382   7.180   6.623  0.2036  0.3208 -0.1386
  817MOL0     C10166   5.283   7.188   6.523  0.8429  0.0778 -0.3412
  817MOL0     C10167   5.261   7.091   6.426 -0.6134  0.1585 -0.1328
  817MOL0     O10168   5.163   7.106   6.333  0.1290 -0.1677  0.6637
  817MOL0     C10169   5.041   7.033   6.356 -0.3889 -0.3038 -0.0584
  817MOL0     C10170   4.955   7.010   6.228 -0.4275  0.2988 -0.3109
  817MOL0     C10171   4.906   7.139   6.170 -0.2527  0.3013  0.0365
  817MOL0     C10172   4.808   7.122   6.061 -0.0714 -0.0843 -0.5458
  817MOL0     C10173   4.795   7.242   5.968  0.2039  0.4435 -0.5005
  817MOL0     C10174   4.716   7.208   5.837  0.1804  0.0437  0.0871
  817MOL0     C10175   4.584   7.137   5.866 -0.4615  0.5108 -0.3605
  817MOL0     C10176   4.503   7.097   5.748  1.0169  0.4417 -0.3901
  817MOL0     N10177   4.555   6.990   5.668 -0.3223  0.3240 -0.4187
  817MOL0     C10178   4.604   6.869   5.728 -0.1512 -0.6299 -0.0195
  817MOL0     C10179   4.642   6.791   5.625  0.5353 -1.5090  0.3882
  817MOL0     C10180   4.707   6.656   5.628  0.0189  0.3624 -0.2233
  817MOL0     C10181   4.612   6.546   5.652 -1.3626  0.2800  0.6827
  817MOL0     C10182   4.679   6.409   5.682 -0.2748 -0.4046  0.4442
  817MOL0     C10183   4.717   6.381   5.826  0.2371  0.6916 -0.4940
  817MOL0     O10184   4.755   6.241   5.840 -0.8840  0.7335 -1.0784
  817MOL0     C10185   4.868   6.219   5.926  0.1939  0.5653 -0.2002
  817MOL0     C10186   4.968   6.129   5.892  1.1759 -1.6173 -1.0728
  817MOL0     C10187   5.067   6.093   5.986  0.2342  0.3369 -0.4365
  817MOL0     C10188   5.180   6.000   5.934 -0.1302 -0.2540 -0.2374
  817MOL0     C10189   5.062   6.138   6.121 -0.2610 -0.4577  0.7107
  817MOL0     C10190   5.151   6.095   6.223 -0.4350  0.2376 -0.1542
  817MOL0     O10191   5.169   6.185   6.324 -0.2543  0.6850  0.3180
  817MOL0     C10192   5.125   6.152   6.447 -0.1913 -0.9121 -1.2234
  817MOL0     C10193   5.202   6.179   6.556  0.1276 -0.1815  0.3190
  817MOL0     C10194   5.157   6.136   6.685 -0.3261  0.5425 -0.9901
  817MOL0     C10195   5.032   6.075   6.706 -0.0073 -0.9527 -1.0597
  817MOL0     O10196   4.996   6.039   6.834 -0.0190 -0.1234  0.2682
  817MOL0     C10197   4.861   6.006   6.857 -0.7990  0.1219  0.1295
  817MOL0     C10198   4.851   5.979   7.011 -0.4360 -0.1557  0.6783
  817MOL0     C10199   4.869   5.831   7.048  0.4052  0.3258 -0.7746
  817MOL0     C10200   4.817   5.818   7.193  0.3306  0.6014  0.4818
  817MOL0     C10201   4.902   5.890   7.301 -0.1163  0.5218  0.5972
  817MOL0     C10202   4.810   5.976   7.381  1.1313  0.3285  0.7317
  817MOL0     C10203   4.890   6.065   7.484  0.4167  0.4379 -0.1554
  817MOL0     C10204   4.817   6.045   7.616  1.3131 -0.7517 -0.2749
  817MOL0    Cl10205   4.644   6.086   7.612  0.1737 -0.5965 -0.6753
  817MOL0     C10206   4.959   6.056   6.587  0.5365 -0.3832  1.1585
  817MOL0     C10207   4.998   6.098   6.461  0.5848 -0.1014  0.0404
  817MOL0     O10208   5.198   5.983   6.221  0.0337  0.2377 -0.1621
  817MOL0     C10209   4.960   6.236   6.155 -0.0430  0.3844  0.2670
  817MOL0     C10210   4.870   6.281   6.053  0.2652  0.6824  0.1795
  817MOL0     N10211   4.625   6.867   5.505  0.1658 -0.8071 -0.2073
  817MOL0     N10212   4.573   6.986   5.528  0.0771  0.2417 -0.2303
  817MOL0     C10213   5.353   6.979   6.426  1.1669  0.4433  0.2305
  817MOL0     C10214   5.446   6.963   6.526  0.0494  1.3724  0.9815
  817MOL0     C10215   5.728   6.928   6.871  0.8574 -0.0467  0.8009
  817MOL0     C10216   5.723   7.018   6.977  0.7358 -0.1374  0.9403
  817MOL0     C10217   5.802   7.010   7.095 -0.1381  0.3369  0.1499
  817MOL0     C10218   5.881   6.900   7.110  0.1919 -0.3805 -0.2602
  817MOL0     O10219   5.941   6.896   7.232 -1.2076 -0.2028  0.9195
  817MOL0     C10220   6.076   6.829   7.236 -0.5985 -0.2105  0.1458
  817MOL0     C10221   6.168   6.902   7.342 -0.9303  0.6823  0.3208
  817MOL0     C10222   6.148   7.053   7.346 -0.2172  0.9859  0.6516
  817MOL0     C10223   6.183   7.120   7.211 -0.2091 -0.0715 -1.4608
  817MOL0     C10224   6.204   7.265   7.232 -0.7550 -0.4634 -0.0287
  817MOL0     C10225   6.212   7.381   7.271 -0.8940  0.0689  0.0841
  817MOL0     C10226   5.879   6.801   7.019  1.0754 -0.2472  0.2283
  817MOL0     C10227   5.813   6.817   6.898  0.1262  0.4538  0.1657
  817MOL0     H10228   5.377   7.244   6.710  0.5412 -0.9733  0.8689
  817MOL0     H10229   5.210   7.268   6.530 -1.7849 -2.0286 -1.9036
  817MOL0     H10230   5.059   6.935   6.401  1.2563 -0.0515 -0.1153
  817MOL0     H10231   4.979   7.094   6.423 -0.7577 -0.8120  0.0687
  817MOL0     H10232   5.023   6.959   6.159  1.0320  1.0552  0.5114
  817MOL0     H10233   4.870   6.945   6.248  0.0327 -1.0033 -2.3598
  817MOL0     H10234   4.855   7.197   6.248 -3.6851 -2.2683 -0.0341
  817MOL0     H10235   4.992   7.198   6.138  0.1974  0.4884  1.5228
  817MOL0     H10236   4.844   7.036   6.004  3.0618 -0.2039  1.3867
  817MOL0     H10237   4.704   7.105   6.092 -0.7779  2.1673 -1.4440
  817MOL0     H10238   4.742   7.318   6.026 -2.1406 -1.6331  0.2874
  817MOL0     H10239   4.892   7.282   5.940 -0.0503  2.6693  1.4951
  817MOL0     H10240   4.696   7.295   5.773 -0.8247  0.2396  0.6451
  817MOL0     H10241   4.779   7.145   5.774  1.3466  1.6774 -0.4605
  817MOL0     H10242   4.601   7.044   5.923 -1.9029  1.0842  1.0988
  817MOL0     H10243   4.521   7.189   5.939  0.4276 -1.6489  2.1489
  817MOL0     H10244   4.498   7.184   5.681  1.0520  1.0611  0.3958
  817MOL0     H10245   4.398   7.069   5.766  1.7790 -1.5552  1.2779
  817MOL0     H10246   4.605   6.836   5.832  3.5354  0.3223  0.3822
  817MOL0     H10247   4.768   6.637   5.539  0.0653  0.6520 -0.2515
  817MOL0     H10248   4.783   6.652   5.707  1.4326 -0.9722 -1.5737
  817MOL0     H10249   4.562   6.527   5.557 -0.5307 -5.8989  1.0876
  817MOL0     H10250   4.535   6.566   5.727 -0.8578  1.2037  0.9647
  817MOL0     H10251   4.766   6.394   5.618 -1.0320  2.2815 -1.3886
  817MOL0     H10252   4.605   6.333   5.652  2.1347 -1.7991 -2.4816
  817MOL0     H10253   4.627   6.405   5.883  1.5874  2.4618  1.0631
  817MOL0     H10254   4.790   6.452   5.865 -1.3649  2.6481 -0.8962
  817MOL0     H10255   4.966   6.094   5.789 -0.3078  0.6412 -1.8821
  817MOL0     H10256   5.275   6.006   5.989  0.9656 -3.2336 -1.5742
  817MOL0     H10257   5.153   5.894   5.941  3.9575 -1.8347 -3.8231
  817MOL0     H10258   5.199   6.009   5.826  0.1393  0.3867 -0.1402
  817MOL0     H10259   5.293   6.237   6.547 -0.7851  1.0406 -1.7889
  817MOL0     H10260   5.231   6.160   6.759 -1.4284 -0.1944  0.4013
  817MOL0     H10261   4.802   6.096   6.835 -0.3709  1.2452  3.1230
  817MOL0     H10262   4.833   5.925   6.790 -0.1150  1.0445 -1.3292
  817MOL0     H10263   4.926   6.044   7.057  0.3837 -1.2593  0.9391
  817MOL0     H10264   4.748   6.009   7.033 -1.7383 -2.2698 -2.0192
  817MOL0     H10265   4.973   5.803   7.033 -0.4932 -2.8274 -1.8031
  817MOL0     H10266   4.816   5.765   6.978  0.1407 -0.1579 -0.1256
  817MOL0     H10267   4.719   5.867   7.196  0.9810  1.9438  0.5734
  817MOL0     H10268   4.809   5.711   7.214 -0.0048  0.3779 -0.7243
  817MOL0     H10269   4.973   5.955   7.249 -2.9517  3.4602  0.0828
  817MOL0     H10270   4.955   5.817   7.362  1.3588  1.5289  0.5577
  817MOL0     H10271   4.755   6.035   7.306 -0.8457 -2.1424  0.0830
  817MOL0     H10272   4.741   5.908   7.432  0.6631 -2.4418 -3.0744
  817MOL0     H10273   4.888   6.171   7.455  1.2004 -0.5767 -4.6413
  817MOL0     H10274   4.995   6.036   7.485  0.2846 -0.0588  0.7410
  817MOL0     H10275   4.863   6.108   7.693  2.6827 -1.0314 -0.8198
  817MOL0     H10276   4.830   5.940   7.641 -1.6952 -1.0148  0.4483
  817MOL0     H10277   4.863   6.008   6.597  0.8396 -1.1152  0.6111
  817MOL0     H10278   4.934   6.083   6.375 -0.9846  1.1478  0.9330
  817MOL0     H10279   4.964   6.277   6.255 -2.3762 -1.3287  1.1622
  817MOL0     H10280   4.796   6.348   6.094  0.8858  0.0957  2.4169
  817MOL0     H10281   5.324   6.900   6.357 -2.2630  0.8040  1.0449
  817MOL0     H10282   5.503   6.871   6.517 -1.7147  0.1871  1.3308
  817MOL0     H10283   5.661   7.105   6.962 -3.2288 -2.7046  0.8737
  817MOL0     H10284   5.801   7.098   7.158 -1.4891  0.5824 -0.1842
  817MOL0     H10285   6.040   6.726   7.251 -3.6200  0.7031 -0.1363
  817MOL0     H10286   6.133   6.818   7.143  1.0465  1.3216  0.9169
  817MOL0     H10287   6.273   6.881   7.320 -1.0565 -2.1133  1.9164
  817MOL0     H10288   6.156   6.848   7.437  0.4163  1.9371  1.2450
  817MOL0     H10289   6.201   7.103   7.428 -0.6167  0.8101  1.0247
  817MOL0     H10290   6.047   7.076   7.383 -0.5991  1.2007 -0.4904
  817MOL0     H10291   6.101   7.111   7.138 -0.7383 -0.4194 -0.8319
  817MOL0     H10292   6.272   7.070   7.173 -0.8803 -1.3327 -1.4414
  817MOL0     H10293   6.226   7.482   7.304  0.5554  0.8263 -2.5422
  817MOL0     H10294   5.916   6.703   7.047  1.1821  0.2765  2.0099
  817MOL0     H10295   5.814   6.737   6.825 -2.3719  1.5326 -1.1937
  818MOL0     O10296   7.775  11.330   9.532  0.0080  0.7297  0.6148
  818MOL0     C10297   7.662  11.278   9.547 -0.8510  1.1368  0.0552
  818MOL0     O10298   7.606  11.252   9.677 -0.0843  1.0780 -0.1317
  818MOL0     C10299   7.693  11.270   9.783  0.0242 -0.4795  1.0032
  818MOL0     C10300   7.759  11.159   9.825  0.5577  0.3596 -0.0609
  818MOL0     C10301   7.857  11.171   9.917  0.3281  0.2379  0.7038
  818MOL0     C10302   7.892  11.294   9.979 -0.3133  0.7486 -0.0745
  818MOL0     O10303   7.973  11.311  10.084 -0.1668  0.1165  0.3278
  818MOL0     C10304   8.043  11.209  10.147  0.2766  1.1152 -0.7731
  818MOL0     C10305   8.085  11.251  10.286 -0.9990  0.2303  0.0329
  818MOL0     C10306   8.133  11.134  10.370 -0.1461 -0.6032 -0.0179
  818MOL0     C10307   8.037  11.020  10.392  0.1966  0.6111 -0.7433
  818MOL0     C10308   8.095  10.916  10.480  0.1914 -0.1335  0.7034
  818MOL0     C10309   7.981  10.835  10.534  0.4862  0.1761 -0.2699
  818MOL0     C10310   8.032  10.750  10.648 -0.2076  0.1818 -0.7206
  818MOL0     C10311   7.933  10.640  10.672  0.4793  0.3839  0.2781
  818MOL0     N10312   7.992  10.536  10.755 -0.7933  0.2656  0.5000
  818MOL0     C10313   7.928  10.489  10.862  0.2096 -0.6235 -0.1724
  818MOL0     C10314   8.027  10.408  10.918 -0.0787 -0.2170 -0.1115
  818MOL0     C10315   7.994  10.324  11.039  0.7680 -0.1527  0.4129
  818MOL0     C10316   8.100  10.339  11.143  0.0512  0.2087  0.1339
  818MOL0     C10317   8.111  10.487  11.198 -0.5000 -0.6582  0.6497
  818MOL0     C10318   8.218  10.505  11.305 -0.1274 -0.3020  1.4967
  818MOL0     O10319   8.202  10.639  11.369  0.4745  0.0446 -0.2442
  818MOL0     C10320   8.304  10.734  11.353 -0.2519 -0.2272 -0.2143
  818MOL0     C10321   8.275  10.862  11.390 -0.4565 -0.3055 -0.0723
  818MOL0     C10322   8.364  10.968  11.394 -0.5426  0.1015  0.0440
  818MOL0     C10323   8.303  11.103  11.430 -0.7681 -1.0293  0.3225
  818MOL0     C10324   8.491  10.953  11.338 -1.3384  1.1876  0.0465
  818MOL0     C10325   8.595  11.058  11.333 -0.1981 -0.3124 -0.9657
  818MOL0     O10326   8.613  11.157  11.431  0.2423  0.1219  0.2048
  818MOL0     C10327   8.710  11.249  11.416  0.0236 -0.4133 -0.7805
  818MOL0     C10328   8.679  11.387  11.418  0.3492 -0.4434  0.4062
  818MOL0     C10329   8.786  11.480  11.418 -0.3312  1.0254 -1.2333
  818MOL0     C10330   8.921  11.439  11.420  0.6155 -0.0725 -0.3227
  818MOL0     O10331   9.023  11.525  11.427 -0.6865 -1.0239  0.4466
  818MOL0     C10332   9.112  11.554  11.307 -0.0789 -0.2922  0.2477
  818MOL0     C10333   9.017  11.574  11.184  0.1492  0.6577  0.0256
  818MOL0     C10334   9.109  11.629  11.071  0.6890 -0.2019  0.3348
  818MOL0     C10335   9.149  11.780  11.093  0.3806  0.2120 -0.7054
  818MOL0     C10336   9.214  11.848  10.965 -1.3899 -0.7192 -0.0556
  818MOL0     C10337   9.105  11.876  10.863 -0.5951 -0.7976  0.3228
  818MOL0     C10338   9.178  11.935  10.740  0.9891 -0.3438 -0.2523
  818MOL0     C10339   9.081  12.014  10.656  0.5576  0.2221 -0.7556
  818MOL0    Cl10340   9.034  12.162  10.739  0.1013 -0.0442 -0.0007
  818MOL0     C10341   8.940  11.299  11.420 -1.4220  0.1205 -0.9075
  818MOL0     C10342   8.842  11.204  11.427  1.0344  0.6310  0.4501
  818MOL0     O10343   8.674  11.047  11.242 -0.4885 -0.1231 -0.2536
  818MOL0     C10344   8.521  10.817  11.300 -0.0861 -0.8602  0.7272
  818MOL0     C10345   8.433  10.710  11.321 -0.8288  0.0606 -0.0509
  818MOL0     N10346   8.145  10.435  10.858 -0.0955 -0.3683  0.3522
  818MOL0     N10347   8.121  10.511  10.757 -0.2969 -0.7519  0.0823
  818MOL0     C10348   7.826  11.407   9.927 -0.2920 -0.3908 -0.0398
  818MOL0     C10349   7.721  11.403   9.832  0.6965  0.1205 -0.3506
  818MOL0     C10350   7.582  11.264   9.425  0.2499 -1.2258  0.9817
  818MOL0     C10351   7.453  11.214   9.435 -0.3377  0.7455 -0.0236
  818MOL0     C10352   7.370  11.205   9.320 -0.6511 -0.6893 -0.0055
  818MOL0     C10353   7.417  11.257   9.196 -0.4644 -0.3105  0.1427
  818MOL0     O10354   7.346  11.268   9.083  0.0456 -0.1837  0.5148
  818MOL0     C10355   7.206  11.235   9.086 -0.3863 -0.0865  0.2172
  818MOL0     C10356   7.126  11.357   9.144 -1.0404  0.6664  0.0288
  818MOL0     C10357   7.004  11.313   9.223  0.9840  0.8606 -0.5319
  818MOL0     C10358   6.978  11.392   9.354  0.6555 -0.6339  0.3285
  818MOL0     C10359   7.072  11.364   9.459  0.4938  0.0953 -0.0926
  818MOL0     C10360   7.154  11.349   9.551  0.2623  0.2528 -0.1105
  818MOL0     C10361   7.550  11.280   9.181 -0.7993 -0.1181  0.5524
  818MOL0     C10362   7.622  11.304   9.299  0.0120 -0.6123  0.2448
  818MOL0     H10363   7.743  11.064   9.776 -1.2406  1.6087 -2.0538
  818MOL0     H10364   7.902  11.081   9.958 -0.6878  1.0797  3.9546
  818MOL0     H10365   7.975  11.125  10.164  0.4943  1.1159  0.1415
  818MOL0     H10366   8.128  11.179  10.083  0.9587 -2.5400  1.5094
  818MOL0     H10367   8.165  11.325  10.276  0.0486 -1.2179 -4.2205
  818MOL0     H10368   7.998  11.299  10.332  0.2520  1.1545  1.5850
  818MOL0     H10369   8.228  11.103  10.325 -0.0334 -0.5606  0.1852
  818MOL0     H10370   8.161  11.170  10.470 -0.3272  2.3427 -0.9414
  818MOL0     H10371   7.942  11.064  10.425 -0.0705  0.5819 -1.4651
  818MOL0     H10372   8.009  10.968  10.300 -1.9064  0.4246 -0.0486
  818MOL0     H10373   8.161  10.852  10.421  0.8800  2.7145 -1.8670
  818MOL0     H10374   8.152  10.964  10.561  4.5455 -0.9108 -1.6028
  818MOL0     H10375   7.891  10.891  10.557  1.0388  1.0217 -0.1352
  818MOL0     H10376   7.949  10.767  10.454  1.4751  0.3827 -0.8597
  818MOL0     H10377   8.135  10.716  10.632  0.9693  1.7220  2.6885
  818MOL0     H10378   8.033  10.813  10.737  1.1527  1.8389 -1.8371
  818MOL0     H10379   7.904  10.593  10.577 -1.0847 -0.4895  1.1438
  818MOL0     H10380   7.838  10.666  10.719 -0.6239 -0.7879 -1.1686
  818MOL0     H10381   7.819  10.494  10.867  0.0302  3.3536 -2.8877
  818MOL0     H10382   7.905  10.360  11.092  1.4023  0.2418  1.2446
  818MOL0     H10383   7.982  10.223  11.001  1.3222  0.6470 -2.0599
  818MOL0     H10384   8.199  10.308  11.108  0.8631 -0.4788  2.8093
  818MOL0     H10385   8.081  10.272  11.227 -0.0017  0.5713  0.4154
  818MOL0     H10386   8.010  10.521  11.223 -0.6289  0.9398 -1.6719
  818MOL0     H10387   8.141  10.552  11.115 -3.5353 -1.5841 -1.3305
  818MOL0     H10388   8.311  10.487  11.251 -1.0245  0.7384 -0.4863
  818MOL0     H10389   8.217  10.429  11.385 -0.0292  0.7851  2.5574
  818MOL0     H10390   8.176  10.885  11.429  0.6947  0.9713  2.4040
  818MOL0     H10391   8.337  11.146  11.525 -0.9788 -2.1655  0.9268
  818MOL0     H10392   8.331  11.180  11.357  0.3682 -1.0113  0.7588
  818MOL0     H10393   8.195  11.088  11.438 -1.0584 -0.7743 -2.2624
  818MOL0     H10394   8.576  11.419  11.410  0.7249  0.4593 -1.2743
  818MOL0     H10395   8.763  11.585  11.431  0.2181  0.8243  2.6473
  818MOL0     H10396   9.176  11.640  11.325 -0.4125 -0.3757  1.9906
  818MOL0     H10397   9.177  11.468  11.291  2.7804  1.0397  3.4898
  818MOL0     H10398   8.969  11.480  11.156  3.3246 -0.1578 -3.3573
  818MOL0     H10399   8.945  11.652  11.212  0.9937  1.4592 -0.0059
  818MOL0     H10400   9.054  11.626  10.977 -1.2308  3.6680  1.1201
  818MOL0     H10401   9.199  11.567  11.069 -0.1206 -1.4720  1.5456
  818MOL0     H10402   9.060  11.836  11.123  0.2566 -0.4665  0.2396
  818MOL0     H10403   9.217  11.786  11.178  1.0340  1.1921 -1.2775
  818MOL0     H10404   9.298  11.788  10.927 -1.6923 -1.6407  0.6860
  818MOL0     H10405   9.260  11.943  10.993  0.4229 -1.7299  0.5382
  818MOL0     H10406   9.062  11.779  10.834  2.8418 -2.0267 -1.2329
  818MOL0     H10407   9.033  11.948  10.902  2.9203  2.9873  0.4698
  818MOL0     H10408   9.220  11.853  10.681 -0.1953 -0.2794 -1.2025
  818MOL0     H10409   9.257  11.996  10.785  0.3727  1.2835 -1.2968
  818MOL0     H10410   8.988  11.964  10.626 -0.0975  0.5863  0.5975
  818MOL0     H10411   9.135  12.037  10.563  1.1668  0.2212 -0.4073
  818MOL0     H10412   9.041  11.267  11.399 -1.8623 -0.4397 -2.3520
  818MOL0     H10413   8.855  11.096  11.422 -1.6755  0.3223 -3.0687
  818MOL0     H10414   8.617  10.792  11.257 -0.8337 -1.0488 -0.9135
  818MOL0     H10415   8.477  10.611  11.318  1.6370  0.8309  3.4212
  818MOL0     H10416   7.841  11.496   9.987 -0.2822  0.3590 -1.1375
  818MOL0     H10417   7.653  11.481   9.801 -0.2007 -0.8119 -0.8004
  818MOL0     H10418   7.404  11.184   9.527  0.2549  2.0017  0.7246
  818MOL0     H10419   7.266  11.175   9.333 -1.1441  1.5332  1.7003
  818MOL0     H10420   7.177  11.217   8.982  1.1318  0.5809 -0.3492
  818MOL0     H10421   7.189  11.148   9.151 -3.0899 -0.0564 -0.3562
  818MOL0     H10422   7.111  11.422   9.058  1.1031 -2.4767 -3.0287
  818MOL0     H10423   7.183  11.408   9.222  3.1270 -4.5952  1.0810
  818MOL0     H10424   7.015  11.209   9.255  0.5068  2.2932  5.7236
  818MOL0     H10425   6.920  11.310   9.154  1.3945 -1.7186 -1.0135
  818MOL0     H10426   6.886  11.352   9.398  1.3506 -1.3272  1.1800
  818MOL0     H10427   6.967  11.500   9.341 -1.8056 -0.8531  0.1942
  818MOL0     H10428   7.245  11.345   9.609  0.1436 -1.3931 -0.0138
  818MOL0     H10429   7.589  11.307   9.084  3.2994 -1.7780  1.5383
  818MOL0     H10430   7.717  11.352   9.277 -0.2229  0.5363  1.5917
  819MOL0     O10431   2.779   5.373   8.512 -0.2173  0.3672 -0.2281
  819MOL0     C10432   2.716   5.288   8.455  0.2429  0.3973  0.8263
  819MOL0     O10433   2.752   5.234   8.332 -0.4961 -0.7033 -1.6251
  819MOL0     C10434   2.884   5.258   8.291  0.1840 -0.0589 -0.1811
  819MOL0     C10435   2.907   5.264   8.155 -0.3784  1.1952  0.5008
  819MOL0     C10436   3.038   5.253   8.099 -0.2366 -0.5681 -0.0087
  819MOL0     C10437   3.145   5.228   8.183 -0.3409  0.3035 -0.2814
  819MOL0     O10438   3.270   5.215   8.130 -0.1935 -1.0853 -0.6842
  819MOL0     C10439   3.374   5.278   8.194 -0.1519 -0.4431  0.2127
  819MOL0     C10440   3.501   5.289   8.114 -0.0140  0.4017  0.2446
  819MOL0     C10441   3.612   5.343   8.209  0.4156  0.4715  0.1139
  819MOL0     C10442   3.620   5.485   8.177 -1.0716 -0.2941 -0.1441
  819MOL0     C10443   3.731   5.556   8.268 -0.2386  1.0857  0.0421
  819MOL0     C10444   3.877   5.504   8.241  0.1310  0.0899 -0.8970
  819MOL0     C10445   3.975   5.606   8.303 -0.1259 -0.6799  0.4255
  819MOL0     C10446   4.127   5.567   8.288  0.7506 -1.1026  1.0487
  819MOL0     N10447   4.163   5.550   8.148 -0.5070 -0.3221 -0.1366
  819MOL0     C10448   4.131   5.446   8.055  0.2937  0.8658  0.3026
  819MOL0     C10449   4.177   5.493   7.932  0.5001  0.1224  0.7445
  819MOL0     C10450   4.168   5.433   7.799  0.1093 -0.4137 -0.0817
  819MOL0     C10451   4.038   5.356   7.771  0.7828  0.7919 -0.8247
  819MOL0     C10452   3.917   5.444   7.738  0.2134  0.4648 -0.7530
  819MOL0     C10453   3.795   5.355   7.708  0.1782 -1.5952 -0.5047
  819MOL0     O10454   3.682   5.431   7.668 -0.3063 -0.4554  0.1693
  819MOL0     C10455   3.560   5.363   7.671 -0.2809  0.3685 -0.2761
  819MOL0     C10456   3.536   5.248   7.597  0.5814  0.5715  0.1578
  819MOL0     C10457   3.411   5.186   7.579  0.3247 -0.4709  0.0158
  819MOL0     C10458   3.389   5.066   7.485 -0.1194  0.0481 -0.7186
  819MOL0     C10459   3.297   5.253   7.643  0.0453  0.1267  0.5143
  819MOL0     C10460   3.152   5.216   7.634  0.1985 -0.3652  0.5175
  819MOL0     O10461   3.060   5.311   7.680 -0.1109  0.1303 -0.5420
  819MOL0     C10462   2.921   5.290   7.653 -0.1586 -0.3305 -0.3694
  819MOL0     C10463   2.868   5.260   7.525 -0.7001  0.2259 -0.3979
  819MOL0     C10464   2.731   5.272   7.494  0.5392  0.0655 -0.7140
  819MOL0     C10465   2.641   5.316   7.593  0.4222  0.8999  0.4697
  819MOL0     O10466   2.508   5.336   7.572 -0.3853 -0.9003 -0.5234
  819MOL0     C10467   2.432   5.229   7.511  0.5536  0.2616 -0.3956
  819MOL0     C10468   2.311   5.180   7.594  0.0295 -0.2758  0.2453
  819MOL0     C10469   2.224   5.305   7.643 -0.1552 -0.6627 -0.0089
  819MOL0     C10470   2.170   5.383   7.529  0.3180 -0.2375 -0.0685
  819MOL0     C10471   2.074   5.496   7.569 -0.9149  0.2347  0.4940
  819MOL0     C10472   1.934   5.454   7.590 -0.7855  0.8624 -0.0617
  819MOL0     C10473   1.835   5.574   7.620  0.0306  0.0943 -1.2183
  819MOL0     C10474   1.708   5.527   7.687  1.1932 -0.4319  0.3716
  819MOL0    Cl10475   1.577   5.640   7.734  0.3968  0.1377  0.4569
  819MOL0     C10476   2.688   5.332   7.720 -0.7319  0.1630 -1.5854
  819MOL0     C10477   2.831   5.323   7.748 -0.0865  0.0044 -0.4994
  819MOL0     O10478   3.124   5.117   7.569  0.3968 -0.0899 -0.1640
  819MOL0     C10479   3.322   5.365   7.729 -1.1798  0.3962 -0.2387
  819MOL0     C10480   3.452   5.416   7.740 -0.4509 -0.9198  0.6806
  819MOL0     N10481   4.205   5.624   7.946 -0.4402  1.4274 -0.4938
  819MOL0     N10482   4.197   5.661   8.074  0.9380  1.1017  0.4073
  819MOL0     C10483   3.122   5.232   8.327  0.6144  0.6076 -0.3513
  819MOL0     C10484   2.993   5.233   8.378 -0.0045 -0.1847  1.0316
  819MOL0     C10485   2.574   5.258   8.503 -0.2145 -0.4486 -0.7015
  819MOL0     C10486   2.474   5.208   8.416 -0.3915 -0.4740  0.3219
  819MOL0     C10487   2.347   5.176   8.463 -0.8400  0.7001 -0.0997
  819MOL0     C10488   2.328   5.170   8.602 -0.8684  0.5883 -0.3452
  819MOL0     O10489   2.206   5.122   8.650  0.0119  0.2886 -0.1628
  819MOL0     C10490   2.117   5.209   8.718  0.1343  0.9242  0.1975
  819MOL0     C10491   2.037   5.303   8.622 -0.5012 -0.3360 -0.3095
  819MOL0     C10492   1.971   5.221   8.508  0.2386 -0.0024  0.1853
  819MOL0     C10493   1.843   5.303   8.453 -0.0801 -1.1213 -0.1330
  819MOL0     C10494   1.725   5.278   8.539 -0.3731  0.3834  0.1947
  819MOL0     C10495   1.625   5.274   8.607 -0.8303  1.7628  0.1359
  819MOL0     C10496   2.428   5.222   8.694 -1.4178  0.9618  0.8115
  819MOL0     C10497   2.547   5.275   8.641 -0.5629 -1.2245 -0.8748
  819MOL0     H10498   2.823   5.282   8.089 -0.8379 -0.4247  0.6142
  819MOL0     H10499   3.067   5.263   7.994  1.7228  0.7157  0.6007
  819MOL0     H10500   3.348   5.381   8.217 -0.9560 -0.5566 -0.1573
  819MOL0     H10501   3.391   5.208   8.277 -3.5227 -2.0881 -0.2815
  819MOL0     H10502   3.529   5.199   8.059 -0.5814  0.2464  0.2024
  819MOL0     H10503   3.473   5.357   8.033  1.4349 -1.6316 -2.0635
  819MOL0     H10504   3.587   5.328   8.315  0.6849 -0.2064  0.0898
  819MOL0     H10505   3.704   5.286   8.193 -1.5010 -2.6352 -0.8472
  819MOL0     H10506   3.646   5.495   8.071 -2.3011 -1.2839 -0.5720
  819MOL0     H10507   3.522   5.528   8.199  0.6854  2.4627  3.2006
  819MOL0     H10508   3.723   5.665   8.267  0.4866  1.1848  1.8146
  819MOL0     H10509   3.717   5.521   8.371  0.3442 -0.0292 -0.2445
  819MOL0     H10510   3.892   5.405   8.284 -1.0337  0.4022  0.3101
  819MOL0     H10511   3.884   5.490   8.132  0.3331  0.1968 -0.8983
  819MOL0     H10512   3.956   5.703   8.257 -0.6693 -0.3196  1.3699
  819MOL0     H10513   3.957   5.601   8.411  1.5385 -0.3175  0.7430
  819MOL0     H10514   4.150   5.479   8.349  1.5957 -1.1767  0.6288
  819MOL0     H10515   4.186   5.652   8.322  1.6923 -0.6936 -1.4275
  819MOL0     H10516   4.073   5.356   8.070  0.2207  0.7802 -0.4370
  819MOL0     H10517   4.176   5.506   7.717 -1.3372  1.2742  1.2095
  819MOL0     H10518   4.252   5.364   7.789 -0.7580 -1.2237 -2.3895
  819MOL0     H10519   4.004   5.294   7.855 -1.6542  1.3030 -1.3459
  819MOL0     H10520   4.053   5.285   7.689 -1.3657 -0.0817 -0.5494
  819MOL0     H10521   3.938   5.515   7.658  0.6437  1.3474  0.1307
  819MOL0     H10522   3.908   5.506   7.828  2.1753  0.6257 -0.6240
  819MOL0     H10523   3.773   5.316   7.808  0.6821 -1.4367 -0.3287
  819MOL0     H10524   3.823   5.266   7.650  1.0021 -0.8505 -1.2802
  819MOL0     H10525   3.614   5.214   7.529  0.2064  3.1238 -1.7268
  819MOL0     H10526   3.485   5.026   7.450  0.4408  2.0738 -1.6357
  819MOL0     H10527   3.338   4.987   7.541  1.6286 -0.5134  0.1465
  819MOL0     H10528   3.338   5.099   7.394 -0.7860  3.6318  0.8147
  819MOL0     H10529   2.937   5.232   7.446 -2.5393 -0.2730 -1.9150
  819MOL0     H10530   2.698   5.241   7.395  0.7770 -1.4051 -0.3546
  819MOL0     H10531   2.406   5.274   7.415  3.2600 -1.5287 -2.1130
  819MOL0     H10532   2.487   5.139   7.480 -0.3979 -1.2464  1.9954
  819MOL0     H10533   2.255   5.095   7.553  1.4849 -0.7195 -0.9197
  819MOL0     H10534   2.366   5.139   7.679 -1.6069 -1.8636  0.6182
  819MOL0     H10535   2.279   5.377   7.704  0.3215  0.1509 -1.3585
  819MOL0     H10536   2.143   5.271   7.708 -0.3640 -1.9068 -0.8757
  819MOL0     H10537   2.246   5.422   7.460 -1.4478  1.1350 -1.3537
  819MOL0     H10538   2.115   5.325   7.454 -2.1480  3.4382 -1.4365
  819MOL0     H10539   2.085   5.564   7.484 -0.4586 -1.6023 -0.9663
  819MOL0     H10540   2.117   5.555   7.651  0.2341  1.7542 -1.1013
  819MOL0     H10541   1.907   5.397   7.501 -0.9532 -4.1490  2.8073
  819MOL0     H10542   1.929   5.388   7.678  2.1441 -0.2488 -0.6132
  819MOL0     H10543   1.823   5.630   7.527  3.0420  1.7204 -0.7315
  819MOL0     H10544   1.888   5.635   7.694  0.4683 -0.9161 -0.6846
  819MOL0     H10545   1.735   5.481   7.782 -1.0883 -1.5716  0.5519
  819MOL0     H10546   1.659   5.448   7.629 -0.8026  2.3672 -2.0856
  819MOL0     H10547   2.622   5.351   7.804  1.8700  1.9540  0.2362
  819MOL0     H10548   2.854   5.356   7.848  1.6888  2.1233 -1.5393
  819MOL0     H10549   3.242   5.404   7.790 -1.2039 -1.3961  0.9336
  819MOL0     H10550   3.469   5.504   7.801  1.8242 -0.8481  0.0125
  819MOL0     H10551   3.204   5.224   8.397  1.9718  0.4766 -1.9081
  819MOL0     H10552   2.982   5.232   8.486 -1.0344 -0.6171  0.9415
  819MOL0     H10553   2.494   5.217   8.309  0.5630 -5.0708 -0.0672
  819MOL0     H10554   2.267   5.163   8.390  1.2857 -0.9579 -2.3372
  819MOL0     H10555   2.048   5.151   8.781 -1.2185  0.6762 -1.4473
  819MOL0     H10556   2.179   5.271   8.783  0.8032 -1.6579  2.1833
  819MOL0     H10557   2.105   5.380   8.586 -2.4678  0.7687 -1.8336
  819MOL0     H10558   1.960   5.350   8.684 -2.8100 -0.5674 -2.8280
  819MOL0     H10559   1.952   5.118   8.539  3.1028 -1.0564 -1.1647
  819MOL0     H10560   2.043   5.213   8.426 -1.7799  1.0230 -1.7834
  819MOL0     H10561   1.813   5.262   8.356  0.4656  0.5452 -1.0367
  819MOL0     H10562   1.858   5.410   8.436 -1.4160 -0.4214  2.4687
  819MOL0     H10563   1.542   5.265   8.674 -1.1635 -2.2697 -0.5483
  819MOL0     H10564   2.400   5.219   8.799  0.9607 -0.2241  1.4809
  819MOL0     H10565   2.629   5.299   8.709  0.4207 -2.2692 -1.6694
  820MOL0     O10566  10.036   8.582   0.476 -0.2423  0.3960  0.3401
  820MOL0     C10567  10.083   8.496   0.401 -0.0833  0.5863  0.7189
  820MOL0     O10568  10.144   8.380   0.448 -0.1135 -0.4434  0.2154
  820MOL0     C10569  10.173   8.379   0.586 -0.2905 -0.3317 -0.9662
  820MOL0     C10570  10.229   8.483   0.665 -0.3139  0.8470 -0.4096
  820MOL0     C10571  10.253   8.466   0.804 -0.0014  0.1233 -0.0219
  820MOL0     C10572  10.193   8.365   0.874  0.6259  1.2440  0.2300
  820MOL0     O10573  10.197   8.356   1.008  0.1813 -0.0765 -0.7066
  820MOL0     C10574  10.085   8.289   1.063  0.6919 -0.1283  0.3631
  820MOL0     C10575  10.070   8.333   1.209  0.1781 -0.6131 -0.0108
  820MOL0     C10576  10.014   8.478   1.194 -0.6460 -0.1400 -0.3160
  820MOL0     C10577   9.960   8.536   1.323 -0.6276  0.1683 -0.4170
  820MOL0     C10578   9.913   8.678   1.310  0.7158  0.3965  0.2231
  820MOL0     C10579   9.849   8.734   1.434 -0.1747 -0.0740 -0.3672
  820MOL0     C10580   9.801   8.874   1.415 -1.3472 -0.4339  0.0755
  820MOL0     C10581   9.914   8.982   1.433  0.3101  0.1693  0.6934
  820MOL0     N10582   9.997   8.988   1.555 -0.6010 -0.0400 -0.4033
  820MOL0     C10583   9.949   8.989   1.681  0.9274 -0.1012  0.3654
  820MOL0     C10584  10.060   8.970   1.765  0.4349  0.3858 -0.5231
  820MOL0     C10585  10.063   8.965   1.915  0.1730 -0.0186 -0.0988
  820MOL0     C10586   9.938   8.891   1.964  0.7211  0.5168 -0.4696
  820MOL0     C10587   9.811   8.971   2.010 -0.5800  0.5874  0.4346
  820MOL0     C10588   9.817   9.067   2.126  0.0347 -0.0793 -0.3747
  820MOL0     O10589   9.882   9.024   2.244  0.0846  0.7802  0.2853
  820MOL0     C10590   9.827   8.912   2.313 -0.4220 -0.3052  0.7274
  820MOL0     C10591   9.689   8.869   2.298 -0.8712  0.7706 -0.0040
  820MOL0     C10592   9.640   8.757   2.364  0.0627 -0.4189  0.0956
  820MOL0     C10593   9.505   8.713   2.325  1.4241 -0.9301  0.0888
  820MOL0     C10594   9.722   8.693   2.461  0.2659  0.1755  0.5463
  820MOL0     C10595   9.671   8.567   2.542  0.4125 -1.2817  0.9952
  820MOL0     O10596   9.535   8.534   2.548  0.3636  0.1795  0.4768
  820MOL0     C10597   9.476   8.421   2.604  0.4602  1.1954 -0.6582
  820MOL0     C10598   9.336   8.412   2.605  0.0594 -0.0048  0.6522
  820MOL0     C10599   9.267   8.310   2.667  0.0011 -0.3165  0.7393
  820MOL0     C10600   9.332   8.195   2.707  1.0936  0.4432  0.5592
  820MOL0     O10601   9.277   8.093   2.775  0.0476  0.0077  0.3003
  820MOL0     C10602   9.166   8.132   2.859  0.2660  0.2048  0.4059
  820MOL0     C10603   9.160   8.011   2.947  0.2723 -0.3201 -0.2300
  820MOL0     C10604   9.022   7.986   3.011 -0.4397  0.7030 -0.9475
  820MOL0     C10605   8.917   7.937   2.911  0.1499 -0.2462  0.3877
  820MOL0     C10606   8.775   7.911   2.985 -0.6785 -0.5798  0.9070
  820MOL0     C10607   8.720   8.040   3.042  0.1860  0.6459  0.0337
  820MOL0     C10608   8.593   8.024   3.112 -0.5443  0.2665  0.2080
  820MOL0     C10609   8.505   8.146   3.128 -0.1463 -0.4701 -0.1500
  820MOL0    Cl10610   8.412   8.189   2.991 -0.1031  0.2353 -0.0181
  820MOL0     C10611   9.466   8.184   2.682 -0.7220 -0.1651 -0.1292
  820MOL0     C10612   9.544   8.297   2.643  0.0209  0.3946  0.3267
  820MOL0     O10613   9.755   8.513   2.605 -0.1454 -0.6647  0.0966
  820MOL0     C10614   9.854   8.731   2.474 -0.1605  0.3205  1.4125
  820MOL0     C10615   9.907   8.844   2.407  0.6360 -0.1140  0.6730
  820MOL0     N10616  10.168   8.958   1.688 -0.6579  0.4802  0.4118
  820MOL0     N10617  10.132   8.973   1.562  0.3559 -0.1873  0.2199
  820MOL0     C10618  10.126   8.267   0.798  0.9431 -1.6170  0.3317
  820MOL0     C10619  10.118   8.280   0.659  0.2246  0.1940  0.0963
  820MOL0     C10620  10.055   8.515   0.256  0.1466 -0.2529  0.1847
  820MOL0     C10621  10.074   8.412   0.169 -0.3642 -0.7467  0.8929
  820MOL0     C10622  10.044   8.435   0.032 -1.2608  0.6859  0.2987
  820MOL0     C10623   9.985   8.548  -0.008  1.2667 -0.4694 -0.4670
  820MOL0     O10624   9.950   8.578  -0.136  0.4649 -0.2470  0.0881
  820MOL0     C10625  10.004   8.496  -0.243 -0.0681 -0.6245  0.4049
  820MOL0     C10626  10.073   8.583  -0.347 -0.1597  0.5609 -0.3484
  820MOL0     C10627  10.199   8.649  -0.276  1.0572  0.1545 -0.3988
  820MOL0     C10628  10.318   8.555  -0.260 -0.2976 -0.3953  0.5132
  820MOL0     C10629  10.379   8.489  -0.385 -0.2418 -0.7682 -0.7830
  820MOL0     C10630  10.420   8.439  -0.487 -0.1892 -0.0470 -0.4509
  820MOL0     C10631   9.965   8.654   0.086  0.3687  0.6588  0.3948
  820MOL0     C10632  10.002   8.636   0.211 -0.4627 -0.3480  0.3780
  820MOL0     H10633  10.284   8.565   0.618  3.8654 -0.9238  0.8656
  820MOL0     H10634  10.324   8.533   0.851 -3.6950  1.1002  4.8215
  820MOL0     H10635   9.990   8.293   1.009  0.5648 -3.0545  0.2365
  820MOL0     H10636  10.090   8.180   1.067  0.0130 -0.5594 -4.8078
  820MOL0     H10637   9.994   8.274   1.262 -1.6831  1.6680 -0.0241
  820MOL0     H10638  10.167   8.328   1.260  0.7954 -0.4412 -1.1431
  820MOL0     H10639  10.101   8.530   1.156 -0.6893 -2.8534 -4.8299
  820MOL0     H10640   9.922   8.486   1.135 -2.7206  2.2726  2.9267
  820MOL0     H10641   9.877   8.473   1.358 -0.6834 -0.5334 -1.7480
  820MOL0     H10642  10.030   8.544   1.407 -0.2119 -0.0128 -0.7440
  820MOL0     H10643   9.992   8.742   1.270  1.6468  0.0132  1.4015
  820MOL0     H10644   9.836   8.681   1.232  1.2944 -0.3726 -0.3880
  820MOL0     H10645   9.769   8.672   1.476  1.5714  0.2042  3.9903
  820MOL0     H10646   9.929   8.740   1.510 -0.1183 -1.5864 -0.2760
  820MOL0     H10647   9.738   8.896   1.328 -3.0808  1.4612  1.6917
  820MOL0     H10648   9.737   8.900   1.500 -0.2096  1.9994  0.2953
  820MOL0     H10649   9.875   9.084   1.426  2.6833  1.0256 -2.1858
  820MOL0     H10650   9.977   8.978   1.343  1.6541  2.1990  1.4665
  820MOL0     H10651   9.851   9.012   1.721  1.4005  0.8992  0.9772
  820MOL0     H10652  10.158   8.917   1.943  2.8088  1.6770 -4.9132
  820MOL0     H10653  10.066   9.071   1.940 -1.4332  0.5774 -2.1631
  820MOL0     H10654   9.973   8.824   2.042 -0.8449  0.5011  0.2614
  820MOL0     H10655   9.895   8.829   1.884 -0.1486 -0.7775  0.9609
  820MOL0     H10656   9.735   8.895   2.031 -0.3489 -0.5025 -2.1755
  820MOL0     H10657   9.766   9.025   1.926  1.1039  0.0381 -0.8775
  820MOL0     H10658   9.719   9.100   2.161 -0.0969 -0.2434 -0.5931
  820MOL0     H10659   9.867   9.155   2.084  0.1417 -0.0403 -0.1705
  820MOL0     H10660   9.623   8.923   2.231  1.1582  1.5205 -1.5099
  820MOL0     H10661   9.460   8.795   2.268  0.9934 -0.5733  0.9284
  820MOL0     H10662   9.509   8.619   2.270  1.7507  0.1242 -1.7947
  820MOL0     H10663   9.447   8.707   2.417 -1.0438  2.2478 -1.0264
  820MOL0     H10664   9.274   8.495   2.574  1.0205  0.6286  0.3796
  820MOL0     H10665   9.160   8.328   2.674 -0.1712 -0.7290 -0.5844
  820MOL0     H10666   9.197   8.225   2.908 -1.0262  0.4429  0.7979
  820MOL0     H10667   9.073   8.154   2.805  0.6273 -0.7802 -0.6723
  820MOL0     H10668   9.190   7.926   2.884  0.7408 -1.0884  0.9918
  820MOL0     H10669   9.244   8.019   3.017  1.8030 -1.6610 -1.7944
  820MOL0     H10670   8.995   8.072   3.072  0.0992 -1.2360  2.2371
  820MOL0     H10671   9.037   7.910   3.088 -0.9818  1.3866 -0.1593
  820MOL0     H10672   8.906   8.023   2.844 -0.6864 -0.5250  0.1576
  820MOL0     H10673   8.964   7.847   2.871 -3.1368 -1.8782 -0.1305
  820MOL0     H10674   8.787   7.834   3.061 -0.5036  0.0248  1.5063
  820MOL0     H10675   8.713   7.873   2.903  0.6937  1.6520 -1.3050
  820MOL0     H10676   8.797   8.077   3.112  1.8761 -1.8051 -0.3951
  820MOL0     H10677   8.723   8.109   2.958  3.3683  0.2495 -0.3232
  820MOL0     H10678   8.628   7.998   3.212  1.2240  1.2650 -0.1189
  820MOL0     H10679   8.528   7.949   3.065  2.6563 -1.4368 -1.8385
  820MOL0     H10680   8.561   8.234   3.162 -2.2508  1.1166 -0.5471
  820MOL0     H10681   8.443   8.134   3.217 -1.3445  1.6427 -0.6204
  820MOL0     H10682   9.512   8.090   2.707 -0.8054 -0.5608 -1.3934
  820MOL0     H10683   9.651   8.281   2.640  0.1029 -0.2688  3.5107
  820MOL0     H10684   9.919   8.684   2.547 -1.3635  0.8655  2.8946
  820MOL0     H10685  10.006   8.869   2.444  0.3711  0.0793  1.2698
  820MOL0     H10686  10.074   8.187   0.850 -3.5526 -0.8951 -2.4730
  820MOL0     H10687  10.061   8.201   0.611 -1.5434  0.9002  0.9457
  820MOL0     H10688  10.122   8.322   0.206  0.6792 -0.1543  1.0368
  820MOL0     H10689  10.082   8.362  -0.039 -1.2745  1.2270 -0.2698
  820MOL0     H10690  10.068   8.409  -0.227 -0.4298 -0.8188  0.7931
  820MOL0     H10691   9.919   8.450  -0.294 -0.0316  0.3943 -0.6228
  820MOL0     H10692  10.001   8.660  -0.378 -0.5231  1.2992  2.0559
  820MOL0     H10693  10.108   8.528  -0.434  2.7539  1.0256  0.4297
  820MOL0     H10694  10.163   8.683  -0.178  3.1730 -2.5869  1.4803
  820MOL0     H10695  10.231   8.728  -0.344  1.5132  0.8304  0.5649
  820MOL0     H10696  10.316   8.471  -0.191  2.6013 -0.0655  1.1400
  820MOL0     H10697  10.402   8.620  -0.232 -0.5398  0.1716 -0.0482
  820MOL0     H10698  10.451   8.399  -0.582  0.1650  0.6972 -0.6529
  820MOL0     H10699   9.924   8.745   0.044 -2.3339 -1.2598 -1.5705
  820MOL0     H10700   9.983   8.717   0.280 -2.8771 -0.2966 -0.2492
  821MOL0     O10701   1.440   4.581   7.343 -0.3701  0.5799  0.1199
  821MOL0     C10702   1.430   4.696   7.294 -0.4171  0.4481  0.7687
  821MOL0     O10703   1.507   4.753   7.188 -0.4986 -0.5970  0.3982
  821MOL0     C10704   1.569   4.653   7.109  0.6321 -0.0606 -0.7296
  821MOL0     C10705   1.519   4.641   6.981  0.7051 -0.5077 -0.0188
  821MOL0     C10706   1.571   4.549   6.899  0.5671 -0.3507  1.0842
  821MOL0     C10707   1.667   4.454   6.940 -0.2292  0.0893  0.4241
  821MOL0     O10708   1.724   4.354   6.861 -0.2295  1.1176  0.8750
  821MOL0     C10709   1.646   4.324   6.739 -0.6012  0.3701  0.2572
  821MOL0     C10710   1.726   4.232   6.649 -0.0388 -0.4388  0.6560
  821MOL0     C10711   1.875   4.260   6.644  0.3243  0.0869  0.0023
  821MOL0     C10712   1.927   4.191   6.513 -0.3307  0.7548  0.2461
  821MOL0     C10713   2.072   4.232   6.490 -0.0295  0.0870  0.2902
  821MOL0     C10714   2.133   4.168   6.364  1.3780  0.8466 -0.8717
  821MOL0     C10715   2.295   4.165   6.361  0.0435  0.6846  0.3430
  821MOL0     C10716   2.341   4.305   6.363  0.3758  0.5424  0.3774
  821MOL0     N10717   2.309   4.389   6.246  0.3405  0.1512  0.6528
  821MOL0     C10718   2.380   4.406   6.131 -0.0328 -0.5638 -0.0877
  821MOL0     C10719   2.333   4.522   6.071  0.0120 -0.0808  0.5878
  821MOL0     C10720   2.380   4.588   5.939 -0.0191  0.0661  0.0035
  821MOL0     C10721   2.302   4.533   5.826  0.1936  0.3498 -0.8488
  821MOL0     C10722   2.164   4.589   5.809  0.7973 -0.2858 -0.4593
  821MOL0     C10723   2.129   4.599   5.659 -0.2090  0.1686  0.6822
  821MOL0     O10724   2.114   4.463   5.607 -0.2031 -0.8635  0.1146
  821MOL0     C10725   2.049   4.448   5.483  0.3080  0.2957  0.1088
  821MOL0     C10726   1.987   4.547   5.412 -0.7431 -1.0836  0.7925
  821MOL0     C10727   1.913   4.531   5.295  0.6486 -0.4756 -0.1557
  821MOL0     C10728   1.818   4.639   5.240 -0.5651 -0.0666 -0.0078
  821MOL0     C10729   1.917   4.401   5.239 -0.2608 -0.5766 -0.4265
  821MOL0     C10730   1.844   4.370   5.111  0.3846 -0.2386  0.1531
  821MOL0     O10731   1.709   4.363   5.133 -0.5174  0.3302  1.0500
  821MOL0     C10732   1.638   4.309   5.029  0.3894  0.8624  0.2569
  821MOL0     C10733   1.556   4.384   4.952 -0.1254 -0.7484  0.6527
  821MOL0     C10734   1.475   4.327   4.856 -0.3573  0.1741 -0.7090
  821MOL0     C10735   1.474   4.190   4.835  1.1986 -0.4614 -0.4222
  821MOL0     O10736   1.394   4.127   4.744  0.3936 -0.7046  0.0425
  821MOL0     C10737   1.328   4.207   4.640  0.7101  0.1804 -1.0384
  821MOL0     C10738   1.263   4.122   4.535 -0.2679  0.2932  0.4707
  821MOL0     C10739   1.370   4.028   4.465 -0.7331  1.0202  0.4702
  821MOL0     C10740   1.303   3.906   4.398  1.0266  0.1173 -0.7223
  821MOL0     C10741   1.404   3.795   4.374 -0.7294  0.0484  0.2407
  821MOL0     C10742   1.349   3.677   4.285  0.0578 -0.4192 -0.6826
  821MOL0     C10743   1.336   3.723   4.139  0.3192  0.0693  0.1847
  821MOL0     C10744   1.338   3.596   4.041 -0.1095  0.4879  0.1434
  821MOL0    Cl10745   1.320   3.647   3.876  0.1954 -0.1793  0.4007
  821MOL0     C10746   1.557   4.108   4.920  0.8411 -0.0364  0.4642
  821MOL0     C10747   1.642   4.166   5.013 -0.1649 -1.3800  0.2521
  821MOL0     O10748   1.896   4.379   4.997  0.5148 -0.1372 -0.3151
  821MOL0     C10749   1.976   4.292   5.307  0.1805 -0.0587  0.9220
  821MOL0     C10750   2.041   4.320   5.423 -0.9138  0.0880  0.3695
  821MOL0     N10751   2.219   4.558   6.132  0.0031  0.5725 -0.0442
  821MOL0     N10752   2.209   4.485   6.240  0.0974 -0.0740  0.7904
  821MOL0     C10753   1.704   4.453   7.077 -0.2886 -0.5163 -0.2530
  821MOL0     C10754   1.658   4.559   7.159 -0.1368  0.6920  0.7489
  821MOL0     C10755   1.337   4.784   7.359  0.3004 -0.0661  0.3162
  821MOL0     C10756   1.300   4.910   7.317  0.2960 -0.3407  1.0218
  821MOL0     C10757   1.180   4.975   7.363 -0.0687  0.1916  0.5132
  821MOL0     C10758   1.111   4.930   7.479  0.1924 -0.1064  0.5823
  821MOL0     O10759   0.999   4.985   7.539  0.1263 -0.5491 -0.6663
  821MOL0     C10760   0.991   5.128   7.539  0.3999 -0.1471  0.0813
  821MOL0     C10761   0.857   5.184   7.598  0.3300  0.6068  0.2474
  821MOL0     C10762   0.817   5.135   7.734 -0.6835 -0.0492  0.0577
  821MOL0     C10763   0.690   5.199   7.762  0.4708 -0.4749 -0.5100
  821MOL0     C10764   0.639   5.149   7.888  0.0911 -0.5232 -0.5207
  821MOL0     C10765   0.578   5.100   7.990  0.1556 -0.5699  0.6023
  821MOL0     C10766   1.154   4.813   7.526  0.1128  0.6479  0.1014
  821MOL0     C10767   1.260   4.734   7.461  0.9433 -0.8851 -0.5873
  821MOL0     H10768   1.441   4.708   6.945  0.3028 -1.4107 -0.8446
  821MOL0     H10769   1.535   4.552   6.797 -2.4604  0.4804  2.0704
  821MOL0     H10770   1.554   4.268   6.753  2.4016 -5.1443  0.8883
  821MOL0     H10771   1.623   4.413   6.679 -1.6041  2.7380  3.7928
  821MOL0     H10772   1.707   4.133   6.693  0.7289  0.7747  4.0401
  821MOL0     H10773   1.690   4.252   6.548  1.2640  2.1592  0.6235
  821MOL0     H10774   1.887   4.368   6.637 -0.5181  0.3266  1.7538
  821MOL0     H10775   1.911   4.219   6.739 -0.7962  0.5397  0.6391
  821MOL0     H10776   1.928   4.081   6.506  3.3666  0.6716  0.0913
  821MOL0     H10777   1.872   4.214   6.421 -1.9487 -2.4840  0.2477
  821MOL0     H10778   2.073   4.338   6.461  0.6558 -0.1392 -0.5496
  821MOL0     H10779   2.131   4.201   6.577 -1.3044  1.7282  1.8254
  821MOL0     H10780   2.096   4.066   6.355  0.2413  1.3165 -1.9265
  821MOL0     H10781   2.102   4.219   6.272  0.6578  0.0456 -1.0889
  821MOL0     H10782   2.325   4.120   6.456 -0.1997 -1.6872 -0.6386
  821MOL0     H10783   2.332   4.095   6.286  1.2122 -0.0898  1.5931
  821MOL0     H10784   2.448   4.282   6.360  0.4389 -0.5878  4.7359
  821MOL0     H10785   2.315   4.355   6.457  0.5529  2.1200 -0.3880
  821MOL0     H10786   2.460   4.345   6.090  0.1704 -0.7853  0.6206
  821MOL0     H10787   2.354   4.695   5.947 -0.7105 -0.2215  2.4063
  821MOL0     H10788   2.486   4.568   5.921 -0.9640 -2.4326 -4.1183
  821MOL0     H10789   2.307   4.427   5.852  1.1006  0.2441 -1.4161
  821MOL0     H10790   2.357   4.561   5.736  1.7045  0.5832  0.1090
  821MOL0     H10791   2.145   4.688   5.851 -1.4140 -0.2334 -1.4768
  821MOL0     H10792   2.087   4.528   5.857 -1.4820  2.9116  0.2418
  821MOL0     H10793   2.211   4.641   5.601  1.2014 -1.3555  1.4660
  821MOL0     H10794   2.033   4.650   5.649 -0.0585  0.2723 -0.2868
  821MOL0     H10795   1.982   4.646   5.456 -0.2760 -0.8468  0.3297
  821MOL0     H10796   1.852   4.735   5.279 -0.4643  0.3619 -1.1199
  821MOL0     H10797   1.814   4.642   5.131  0.2435  0.6728 -0.0179
  821MOL0     H10798   1.720   4.612   5.281  0.0231 -1.7060  0.4108
  821MOL0     H10799   1.565   4.488   4.984  1.6152 -1.3342  2.2724
  821MOL0     H10800   1.415   4.396   4.797 -0.1379  0.1533 -0.9546
  821MOL0     H10801   1.255   4.281   4.674 -0.6758 -1.4794 -0.2420
  821MOL0     H10802   1.403   4.261   4.581  1.9042 -0.3339 -0.0429
  821MOL0     H10803   1.183   4.061   4.576 -1.1521  2.0608  1.4842
  821MOL0     H10804   1.207   4.183   4.462 -1.9388 -0.3244  1.1912
  821MOL0     H10805   1.447   3.988   4.531 -0.5054 -0.5745 -0.6924
  821MOL0     H10806   1.428   4.073   4.384  1.4403 -1.5332  0.4608
  821MOL0     H10807   1.211   3.876   4.448  0.5603  1.6593 -0.5863
  821MOL0     H10808   1.270   3.946   4.301 -1.7153 -0.5818 -0.1501
  821MOL0     H10809   1.424   3.759   4.475  1.3620 -0.1605 -0.2181
  821MOL0     H10810   1.492   3.835   4.323 -4.4308  4.8044 -3.3149
  821MOL0     H10811   1.420   3.595   4.283  0.8779  0.1992  1.1494
  821MOL0     H10812   1.251   3.643   4.322  0.9565  1.5813  4.4559
  821MOL0     H10813   1.420   3.786   4.109  0.4572 -0.4625 -0.5736
  821MOL0     H10814   1.245   3.782   4.126  0.4378  0.1686 -0.2212
  821MOL0     H10815   1.249   3.535   4.062  0.0060  0.5283  0.7708
  821MOL0     H10816   1.433   3.544   4.056 -1.0445 -1.7164 -1.1296
  821MOL0     H10817   1.545   4.000   4.917  2.5877 -0.2987  1.4758
  821MOL0     H10818   1.712   4.109   5.075  0.8874  0.5862  0.9650
  821MOL0     H10819   2.000   4.191   5.273 -0.9716  0.3987 -1.4733
  821MOL0     H10820   2.077   4.236   5.482  1.2345  1.0182  0.4764
  821MOL0     H10821   1.780   4.388   7.120 -1.2141 -0.7126  1.1259
  821MOL0     H10822   1.693   4.561   7.262 -0.9383 -0.2592  1.0602
  821MOL0     H10823   1.364   4.954   7.241 -2.2246  0.1171 -0.9910
  821MOL0     H10824   1.160   5.069   7.311  0.6020  0.5982  0.9718
  821MOL0     H10825   1.073   5.170   7.599  1.7496 -0.0692 -1.7240
  821MOL0     H10826   1.009   5.167   7.438  2.3739 -0.0549  0.4290
  821MOL0     H10827   0.771   5.170   7.532 -0.0342  1.7901  0.4537
  821MOL0     H10828   0.877   5.291   7.606  1.7459  0.4664 -0.9515
  821MOL0     H10829   0.892   5.172   7.804 -1.2736  2.5563 -0.5676
  821MOL0     H10830   0.807   5.027   7.724 -5.7043  0.2968 -1.8962
  821MOL0     H10831   0.615   5.193   7.682 -0.2653  0.8142  0.0498
  821MOL0     H10832   0.717   5.303   7.779  2.5791 -1.5285  3.7380
  821MOL0     H10833   0.526   5.047   8.067  1.1104  2.9279  4.0203
  821MOL0     H10834   1.116   4.764   7.615 -0.9328  1.5375  0.1571
  821MOL0     H10835   1.293   4.641   7.506  2.3061 -1.7545 -3.2121
  822MOL0     O10836  10.430   9.733   8.163  0.2826 -0.2681 -0.0591
  822MOL0     C10837  10.317   9.692   8.125  0.1020 -0.2428  0.3026
  822MOL0     O10838  10.297   9.608   8.022  0.6303  0.1239  0.1670
  822MOL0     C10839  10.402   9.577   7.936 -0.0775  1.0104  0.5156
  822MOL0     C10840  10.473   9.670   7.876 -0.0473 -0.3946  0.1642
  822MOL0     C10841  10.577   9.636   7.783 -0.2998 -0.0442 -0.0318
  822MOL0     C10842  10.614   9.512   7.761 -0.4438 -0.2355 -0.6715
  822MOL0     O10843  10.729   9.496   7.686  0.2887  0.1455 -0.4325
  822MOL0     C10844  10.755   9.366   7.624 -0.6028  0.3204 -0.4356
  822MOL0     C10845  10.885   9.372   7.546  0.0262 -1.1611  0.6076
  822MOL0     C10846  11.009   9.341   7.631  0.1256 -0.1922  0.6329
  822MOL0     C10847  11.084   9.477   7.658  0.4061 -0.0738  0.3817
  822MOL0     C10848  11.199   9.441   7.752  0.1035 -0.7951  0.3839
  822MOL0     C10849  11.300   9.552   7.779 -0.3846  0.2768 -0.6701
  822MOL0     C10850  11.422   9.499   7.851  1.0829 -0.1212  0.6386
  822MOL0     C10851  11.528   9.610   7.885  0.8717 -0.2335 -0.9336
  822MOL0     N10852  11.653   9.547   7.932 -0.4275  0.3690 -1.2761
  822MOL0     C10853  11.712   9.428   7.888  0.3740  0.2522 -0.6087
  822MOL0     C10854  11.831   9.432   7.955 -0.4874 -0.3721 -0.6450
  822MOL0     C10855  11.947   9.330   7.938  0.1109  0.3319  0.1873
  822MOL0     C10856  12.000   9.364   7.800  0.1968  0.3798 -0.3131
  822MOL0     C10857  12.114   9.274   7.768 -0.4375 -1.5531  0.3405
  822MOL0     C10858  12.252   9.314   7.818  0.1117  0.1017  0.8664
  822MOL0     O10859  12.262   9.279   7.962  0.2601 -0.9121  0.0633
  822MOL0     C10860  12.329   9.347   8.060  0.2146  0.6256  0.2718
  822MOL0     C10861  12.439   9.435   8.041  0.4329 -0.7867  0.2095
  822MOL0     C10862  12.492   9.522   8.140 -0.4344 -0.6005 -1.3155
  822MOL0     C10863  12.599   9.621   8.103 -0.2178 -0.1352  0.2191
  822MOL0     C10864  12.437   9.515   8.271  0.4680 -0.3381 -0.0683
  822MOL0     C10865  12.486   9.587   8.391  0.5247 -1.1247 -0.4101
  822MOL0     O10866  12.620   9.589   8.422  0.0987  0.6433  0.4595
  822MOL0     C10867  12.715   9.504   8.380 -0.6683 -0.4083 -1.1822
  822MOL0     C10868  12.702   9.370   8.336 -0.5160  0.0057  0.3105
  822MOL0     C10869  12.822   9.291   8.296  0.2054 -0.2122  0.4044
  822MOL0     C10870  12.947   9.349   8.297 -0.9307 -0.7656 -0.3909
  822MOL0     O10871  13.062   9.287   8.260 -0.0521  0.0903 -0.1894
  822MOL0     C10872  13.058   9.209   8.134  1.0127  0.2949 -1.4005
  822MOL0     C10873  13.168   9.115   8.126  0.0003 -0.7010 -1.0115
  822MOL0     C10874  13.146   9.013   8.236  0.2571 -0.1706  0.5424
  822MOL0     C10875  13.216   8.884   8.204  0.1740 -0.1204 -0.5657
  822MOL0     C10876  13.132   8.772   8.277  1.0435 -0.5010  0.7434
  822MOL0     C10877  13.174   8.627   8.257 -0.3493 -0.9775 -0.1049
  822MOL0     C10878  13.060   8.542   8.324  0.5289  0.7457  0.2183
  822MOL0     C10879  13.095   8.389   8.295  0.0309  0.3894 -0.2161
  822MOL0    Cl10880  13.100   8.342   8.112 -0.1250 -0.3327 -0.2291
  822MOL0     C10881  12.957   9.486   8.329 -0.2529  0.1611  0.9224
  822MOL0     C10882  12.845   9.558   8.372 -0.7239 -0.4765  0.0164
  822MOL0     O10883  12.406   9.649   8.460  0.0653  0.2019 -0.5300
  822MOL0     C10884  12.327   9.433   8.292 -0.9342 -0.1014 -0.0080
  822MOL0     C10885  12.279   9.344   8.189 -0.3032 -0.3085  0.3837
  822MOL0     N10886  11.829   9.542   8.040  0.1268 -0.3808 -0.3427
  822MOL0     N10887  11.722   9.609   8.029  0.8473  0.3336  0.0987
  822MOL0     C10888  10.543   9.407   7.828 -0.3122 -0.1603  0.0169
  822MOL0     C10889  10.439   9.437   7.917  0.3824  0.5005 -1.6463
  822MOL0     C10890  10.198   9.744   8.182 -0.3238 -0.1280  0.0635
  822MOL0     C10891  10.078   9.710   8.123 -0.1237  0.3173 -0.0790
  822MOL0     C10892   9.963   9.762   8.182 -0.5287  0.2036  0.6951
  822MOL0     C10893   9.959   9.853   8.296  0.6222  0.8233  0.0857
  822MOL0     O10894   9.844   9.896   8.346 -0.0348 -0.6612 -1.2592
  822MOL0     C10895   9.799   9.813   8.452 -0.1377 -0.6656  0.1925
  822MOL0     C10896   9.656   9.834   8.492 -0.6248  0.7988  0.0441
  822MOL0     C10897   9.554   9.802   8.387 -0.7487 -0.5618 -0.7468
  822MOL0     C10898   9.528   9.651   8.396  0.1383 -0.1068  0.2649
  822MOL0     C10899   9.391   9.610   8.350  0.8641 -0.4779 -0.4416
  822MOL0     C10900   9.288   9.554   8.317  0.1196 -0.2968  0.1013
  822MOL0     C10901  10.084   9.900   8.342  0.3372 -0.0479 -0.6102
  822MOL0     C10902  10.201   9.838   8.290 -0.1909  0.0417 -0.1452
  822MOL0     H10903  10.459   9.777   7.887 -1.8580 -0.7289  1.6482
  822MOL0     H10904  10.644   9.707   7.736 -0.9349  1.6241  1.4454
  822MOL0     H10905  10.763   9.281   7.692 -1.1672 -0.1766 -0.9839
  822MOL0     H10906  10.664   9.341   7.568 -1.0377 -0.8132  0.7234
  822MOL0     H10907  10.871   9.297   7.467 -1.6203 -1.2847  0.9836
  822MOL0     H10908  10.909   9.464   7.491  0.7226 -1.4629  0.3940
  822MOL0     H10909  10.977   9.290   7.722 -1.2524  0.2739  0.4475
  822MOL0     H10910  11.067   9.263   7.581  0.3832 -1.0335  2.1720
  822MOL0     H10911  11.125   9.522   7.567  0.9846  0.3768  0.8544
  822MOL0     H10912  11.012   9.546   7.702  0.5268  0.6549 -0.5280
  822MOL0     H10913  11.163   9.400   7.846 -0.1251 -0.8473  0.2751
  822MOL0     H10914  11.254   9.359   7.706 -2.2956 -3.0212  1.2163
  822MOL0     H10915  11.344   9.593   7.688  1.1787 -1.9397 -0.9761
  822MOL0     H10916  11.245   9.621   7.844  2.5561  0.7820  1.4508
  822MOL0     H10917  11.389   9.439   7.936 -2.6970  0.0184 -0.5453
  822MOL0     H10918  11.469   9.425   7.786 -0.5373 -1.6090  1.1122
  822MOL0     H10919  11.487   9.670   7.966  2.7608  0.0572 -0.1470
  822MOL0     H10920  11.546   9.674   7.798  1.9506  0.3255 -0.3112
  822MOL0     H10921  11.669   9.349   7.828  0.6714  1.1052 -1.9824
  822MOL0     H10922  12.012   9.355   8.023  1.0224  0.2479 -0.4598
  822MOL0     H10923  11.902   9.231   7.943 -0.8030  0.7752  1.0543
  822MOL0     H10924  12.016   9.472   7.788  1.9135 -0.1557 -4.2119
  822MOL0     H10925  11.918   9.335   7.733  0.7106  0.2757 -0.8995
  822MOL0     H10926  12.130   9.276   7.659  1.7159  0.4410  0.6110
  822MOL0     H10927  12.090   9.171   7.794 -0.2757 -1.6584  0.0790
  822MOL0     H10928  12.278   9.420   7.808 -3.7971  1.4971  3.3685
  822MOL0     H10929  12.332   9.258   7.769  0.8064  0.2462  1.8034
  822MOL0     H10930  12.483   9.446   7.942  0.6875 -0.1282  0.3936
  822MOL0     H10931  12.694   9.571   8.083 -0.4270  0.0618 -1.3826
  822MOL0     H10932  12.577   9.680   8.014 -3.6854 -1.1178  0.2491
  822MOL0     H10933  12.625   9.695   8.179  0.9249  0.2457 -0.5296
  822MOL0     H10934  12.610   9.315   8.317  0.3572 -1.0787 -0.9970
  822MOL0     H10935  12.798   9.190   8.264  2.3401 -0.3335 -1.0676
  822MOL0     H10936  12.965   9.153   8.121 -0.1557  0.9908  2.6810
  822MOL0     H10937  13.055   9.282   8.052 -0.6143  1.7397 -0.1200
  822MOL0     H10938  13.153   9.082   8.023 -3.1580 -1.7362 -0.3355
  822MOL0     H10939  13.256   9.179   8.126 -1.8245  1.9843 -0.5857
  822MOL0     H10940  13.037   9.004   8.248  0.1582  2.3656  2.0548
  822MOL0     H10941  13.183   9.062   8.326  2.1834  1.1561 -0.8955
  822MOL0     H10942  13.226   8.868   8.096  2.0686 -2.1970 -0.1473
  822MOL0     H10943  13.315   8.882   8.249 -1.1105  0.5687  2.5453
  822MOL0     H10944  13.030   8.778   8.238  0.5774 -0.3036  1.9788
  822MOL0     H10945  13.104   8.790   8.381 -1.2011  0.2963  0.0707
  822MOL0     H10946  13.190   8.609   8.150  2.6428  1.9789 -0.3085
  822MOL0     H10947  13.273   8.613   8.301 -0.5852 -3.1626 -0.1467
  822MOL0     H10948  12.967   8.565   8.272  0.9217  2.1375  0.1111
  822MOL0     H10949  13.049   8.553   8.432  2.3990  1.9424  0.3288
  822MOL0     H10950  13.022   8.323   8.343 -0.0352 -0.4966 -1.4998
  822MOL0     H10951  13.186   8.365   8.352 -0.8181  1.1802  1.5489
  822MOL0     H10952  13.054   9.534   8.324  0.4671 -1.1302  1.7704
  822MOL0     H10953  12.845   9.662   8.404 -0.6344 -1.0642  2.0552
  822MOL0     H10954  12.277   9.430   8.389 -0.1037  0.6785  0.4593
  822MOL0     H10955  12.192   9.285   8.215  0.1553 -1.8172 -1.3296
  822MOL0     H10956  10.555   9.302   7.801 -4.5938 -0.8535  0.0351
  822MOL0     H10957  10.378   9.355   7.956  2.6688 -1.7270 -2.4528
  822MOL0     H10958  10.066   9.647   8.035 -3.2218  0.4884  0.1285
  822MOL0     H10959   9.872   9.724   8.136  0.3554 -0.6372 -0.4325
  822MOL0     H10960   9.806   9.707   8.428 -2.0519 -0.6606 -0.5695
  822MOL0     H10961   9.858   9.831   8.542 -2.6934 -1.3931  2.1635
  822MOL0     H10962   9.639   9.941   8.507 -0.5437  1.2020 -2.3265
  822MOL0     H10963   9.635   9.789   8.590 -0.5758 -0.0530 -0.3309
  822MOL0     H10964   9.601   9.819   8.289  0.6154 -3.2776 -0.6443
  822MOL0     H10965   9.463   9.859   8.409  0.4405  0.7698  0.9771
  822MOL0     H10966   9.525   9.600   8.493 -2.4287 -0.6612 -0.0210
  822MOL0     H10967   9.619   9.612   8.349  0.2297 -0.0202  0.3688
  822MOL0     H10968   9.204   9.494   8.288  0.4044 -1.1887  1.0899
  822MOL0     H10969  10.081   9.957   8.434 -0.5613 -1.0705  0.0242
  822MOL0     H10970  10.298   9.849   8.339 -1.4582 -1.6794  3.0183
  823MOL0     O10971  10.329   3.315   2.215  0.4437  1.1573 -0.9007
  823MOL0     C10972  10.358   3.193   2.248  0.5585  0.4320 -0.3637
  823MOL0     O10973  10.401   3.096   2.158  1.0900  0.0958 -0.4292
  823MOL0     C10974  10.388   3.117   2.022 -0.2464 -0.1852 -0.6219
  823MOL0     C10975  10.286   3.186   1.969  0.5071 -0.1746  0.5534
  823MOL0     C10976  10.282   3.227   1.832  0.0452 -0.2905 -0.7710
  823MOL0     C10977  10.381   3.188   1.751 -0.0642 -1.4038  1.4731
  823MOL0     O10978  10.380   3.232   1.620  0.4091 -0.4706  0.5211
  823MOL0     C10979  10.494   3.239   1.527  0.2760  0.7288 -0.3839
  823MOL0     C10980  10.465   3.318   1.404  0.4970 -0.1220  0.1110
  823MOL0     C10981  10.563   3.291   1.292  0.3852 -0.5264 -0.5705
  823MOL0     C10982  10.576   3.155   1.220 -1.1662  0.5069 -0.1243
  823MOL0     C10983  10.719   3.115   1.173  0.1473 -0.2794 -0.0606
  823MOL0     C10984  10.784   3.220   1.086  0.4792  0.6786 -0.1542
  823MOL0     C10985  10.719   3.219   0.943  0.1276  0.6196 -0.2679
  823MOL0     C10986  10.746   3.081   0.868  0.0301 -0.2759  1.3957
  823MOL0     N10987  10.886   3.086   0.816  0.6206 -0.2658 -0.7234
  823MOL0     C10988  10.917   3.105   0.687 -0.8017  0.2034  0.7688
  823MOL0     C10989  11.053   3.074   0.684  0.1678 -0.1212  0.3375
  823MOL0     C10990  11.125   3.099   0.555 -0.4310 -0.6523 -0.3758
  823MOL0     C10991  11.264   3.024   0.564  0.5449  0.4016 -0.1509
  823MOL0     C10992  11.323   3.033   0.425  0.4565  0.2249 -0.7766
  823MOL0     C10993  11.455   2.960   0.417 -0.1701  0.8298 -0.5236
  823MOL0     O10994  11.529   2.961   0.539 -0.4846 -0.0534  0.4739
  823MOL0     C10995  11.559   2.839   0.592 -0.2410  0.4055 -0.2057
  823MOL0     C10996  11.503   2.805   0.721 -0.6024  0.0075  0.4778
  823MOL0     C10997  11.527   2.681   0.790  0.4239 -0.0232  0.6667
  823MOL0     C10998  11.462   2.641   0.921 -0.0459 -0.0318 -0.1147
  823MOL0     C10999  11.601   2.591   0.716 -0.6133  1.0947  0.4156
  823MOL0     C11000  11.612   2.448   0.752 -0.0224 -0.6197 -0.0568
  823MOL0     O11001  11.738   2.401   0.732 -0.4500 -0.3556  0.8244
  823MOL0     C11002  11.766   2.269   0.762  0.2050  0.5372  0.5098
  823MOL0     C11003  11.849   2.246   0.877 -0.6610 -0.0960  0.4786
  823MOL0     C11004  11.859   2.117   0.918  0.0729  0.2810 -0.7505
  823MOL0     C11005  11.824   2.013   0.832 -0.0137  0.3311 -1.3742
  823MOL0     O11006  11.862   1.886   0.857  0.1314 -0.6604 -0.2978
  823MOL0     C11007  11.871   1.796   0.747 -0.4203  0.3513  0.2497
  823MOL0     C11008  11.960   1.672   0.772  0.2054  0.2204 -0.2523
  823MOL0     C11009  11.953   1.623   0.915  0.1298 -0.3154  0.3071
  823MOL0     C11010  11.817   1.551   0.944 -0.2837 -0.0266  0.2057
  823MOL0     C11011  11.838   1.453   1.061  0.0124  0.3552 -0.9790
  823MOL0     C11012  11.721   1.365   1.101 -0.6708  0.6694 -0.8049
  823MOL0     C11013  11.747   1.287   1.232  0.2597  0.2638  0.1245
  823MOL0     C11014  11.607   1.266   1.296 -0.5339  0.0534  0.5240
  823MOL0    Cl11015  11.639   1.168   1.447 -0.0383 -0.1313  0.1427
  823MOL0     C11016  11.742   2.038   0.716 -0.6971 -0.7790 -0.1501
  823MOL0     C11017  11.720   2.165   0.681  0.3426 -0.3332 -1.0287
  823MOL0     O11018  11.521   2.387   0.802 -0.2513 -0.0733 -0.7608
  823MOL0     C11019  11.674   2.630   0.601 -0.5727 -0.5923 -0.0308
  823MOL0     C11020  11.653   2.750   0.532 -0.3137  0.0124  0.5815
  823MOL0     N11021  11.097   3.042   0.812 -0.2211 -1.5718  0.1111
  823MOL0     N11022  10.993   3.040   0.892  0.3002 -0.3880  0.8673
  823MOL0     C11023  10.498   3.124   1.801 -0.2403 -0.1718 -0.3800
  823MOL0     C11024  10.499   3.084   1.933 -0.3388 -0.8816 -0.5489
  823MOL0     C11025  10.350   3.163   2.398 -0.2244 -0.5024  0.0317
  823MOL0     C11026  10.386   3.038   2.438 -1.2908 -0.2563  0.6433
  823MOL0     C11027  10.373   3.005   2.576 -0.8095 -0.3972  0.2079
  823MOL0     C11028  10.337   3.098   2.672  0.1244 -0.3280  0.5531
  823MOL0     O11029  10.335   3.078   2.808 -0.6493  0.6527  0.0216
  823MOL0     C11030  10.285   2.942   2.842  1.4096  0.3139  0.6157
  823MOL0     C11031  10.252   2.921   2.998  0.1176  0.2847  0.0347
  823MOL0     C11032  10.366   2.940   3.103  1.1296 -0.4822 -0.2401
  823MOL0     C11033  10.481   2.838   3.123 -0.5216 -0.3769 -0.4397
  823MOL0     C11034  10.571   2.899   3.225  1.0220  0.8310  0.4904
  823MOL0     C11035  10.639   2.945   3.314 -0.7925 -0.1152 -0.4766
  823MOL0     C11036  10.309   3.224   2.624  0.4473 -0.0030  0.7492
  823MOL0     C11037  10.303   3.251   2.489  0.1290 -0.8371  0.3731
  823MOL0     H11038  10.197   3.206   2.028  0.1646 -1.9001  0.6680
  823MOL0     H11039  10.199   3.288   1.799 -2.4361 -3.0443 -0.0626
  823MOL0     H11040  10.579   3.283   1.579 -1.1045  1.2677  1.5621
  823MOL0     H11041  10.516   3.137   1.495 -0.8334  0.3829 -0.0862
  823MOL0     H11042  10.368   3.284   1.367  1.4857 -2.7170 -0.2863
  823MOL0     H11043  10.462   3.426   1.424  3.0512 -0.0217  0.3683
  823MOL0     H11044  10.560   3.375   1.221 -1.2266 -0.0907 -0.0172
  823MOL0     H11045  10.659   3.307   1.342  0.3829 -0.7083 -0.5082
  823MOL0     H11046  10.543   3.079   1.292 -1.6145  1.9667  1.2667
  823MOL0     H11047  10.524   3.144   1.124  2.2790  1.0664 -2.2547
  823MOL0     H11048  10.786   3.109   1.259  0.1390  2.4192  0.2118
  823MOL0     H11049  10.722   3.015   1.128  3.0362  0.2726 -1.3631
  823MOL0     H11050  10.767   3.324   1.116  0.3691  1.3642 -2.3927
  823MOL0     H11051  10.891   3.209   1.070  0.2894  1.8699 -2.9242
  823MOL0     H11052  10.613   3.239   0.925  0.0517 -0.9523 -1.8854
  823MOL0     H11053  10.768   3.299   0.887  0.7594  0.3062 -0.1729
  823MOL0     H11054  10.680   3.079   0.780 -0.5439  0.9009  1.7775
  823MOL0     H11055  10.725   2.997   0.935 -1.1387 -0.5664  0.7049
  823MOL0     H11056  10.854   3.129   0.602 -0.5452 -2.3332 -0.2326
  823MOL0     H11057  11.059   3.065   0.475 -3.1952  1.9526  0.6097
  823MOL0     H11058  11.134   3.207   0.545 -0.1737 -0.6328  0.0164
  823MOL0     H11059  11.248   2.920   0.593 -5.3596  1.1593  0.5142
  823MOL0     H11060  11.318   3.081   0.640  0.4528  2.3988 -1.4987
  823MOL0     H11061  11.329   3.139   0.396 -1.1202  0.4054 -0.5373
  823MOL0     H11062  11.250   2.981   0.362  1.3678 -1.8433 -0.2112
  823MOL0     H11063  11.505   3.026   0.345 -0.6883  3.2502  1.1815
  823MOL0     H11064  11.440   2.860   0.377  2.1510 -0.1219  0.8069
  823MOL0     H11065  11.444   2.883   0.769 -0.3092 -0.0025  0.8607
  823MOL0     H11066  11.533   2.606   0.995 -0.9599  3.2750  2.5509
  823MOL0     H11067  11.415   2.733   0.956  0.1211 -0.4495  1.2644
  823MOL0     H11068  11.371   2.580   0.926 -1.1785  1.4707 -1.2851
  823MOL0     H11069  11.891   2.336   0.921  2.8222  0.0201 -2.5381
  823MOL0     H11070  11.915   2.083   1.004  2.1363  1.4076 -1.5724
  823MOL0     H11071  11.777   1.747   0.717 -0.1371 -2.1931  3.0585
  823MOL0     H11072  11.919   1.847   0.663  1.4017  0.3912  1.2754
  823MOL0     H11073  11.946   1.591   0.700  0.5269 -0.5133  0.4852
  823MOL0     H11074  12.064   1.704   0.759  0.4679 -0.1722  0.7726
  823MOL0     H11075  11.975   1.694   0.995  0.4481 -2.6696  2.4655
  823MOL0     H11076  12.037   1.553   0.922 -1.4783 -2.2080  3.9456
  823MOL0     H11077  11.742   1.629   0.958 -0.0884  0.3891 -0.9723
  823MOL0     H11078  11.783   1.496   0.856 -0.8528  2.0195 -0.9066
  823MOL0     H11079  11.876   1.500   1.152 -3.3641  0.7336  0.3983
  823MOL0     H11080  11.920   1.388   1.030 -0.5485 -0.5677 -0.5785
  823MOL0     H11081  11.629   1.425   1.110 -1.4678 -0.7518  1.0435
  823MOL0     H11082  11.703   1.291   1.023  1.2603  2.4916 -3.1449
  823MOL0     H11083  11.803   1.346   1.305 -0.6604  0.1326  0.9518
  823MOL0     H11084  11.802   1.193   1.215  1.9073  1.3656 -0.8835
  823MOL0     H11085  11.539   1.203   1.237  0.1251 -4.0628  3.6808
  823MOL0     H11086  11.560   1.363   1.315 -0.1844  0.6921 -1.5647
  823MOL0     H11087  11.706   1.959   0.651 -1.1092 -1.0878  0.4447
  823MOL0     H11088  11.653   2.187   0.599 -0.2504  0.2142 -0.4087
  823MOL0     H11089  11.728   2.547   0.558 -2.1330 -3.5792  3.2509
  823MOL0     H11090  11.693   2.756   0.431 -1.6720 -1.1039 -0.0709
  823MOL0     H11091  10.578   3.096   1.733 -0.9954 -3.8186  0.0204
  823MOL0     H11092  10.584   3.024   1.965 -0.4378 -0.8359 -0.2040
  823MOL0     H11093  10.432   2.972   2.364  1.1155  0.4451  1.4077
  823MOL0     H11094  10.398   2.905   2.611 -0.4134 -0.1088  0.7818
  823MOL0     H11095  10.194   2.907   2.791  0.8086 -1.9979  3.0560
  823MOL0     H11096  10.361   2.868   2.814 -0.4019 -1.0225 -1.1055
  823MOL0     H11097  10.224   2.816   3.006  0.9390 -0.2101 -2.6947
  823MOL0     H11098  10.178   2.998   3.022 -0.3514  0.0822 -0.7530
  823MOL0     H11099  10.315   2.959   3.198  0.8778 -0.7521 -0.3205
  823MOL0     H11100  10.413   3.037   3.081 -1.5354  0.8425 -0.4560
  823MOL0     H11101  10.537   2.842   3.030 -1.2959 -0.4983 -0.9246
  823MOL0     H11102  10.444   2.738   3.148 -2.3304  0.4041  0.2072
  823MOL0     H11103  10.715   2.987   3.376 -3.8075  1.6040  2.4012
  823MOL0     H11104  10.283   3.304   2.692 -0.6696 -0.1437  0.5059
  823MOL0     H11105  10.277   3.350   2.451  2.0701  0.0510  1.2122
  824MOL0     O11106   4.050   9.085   2.622  0.3582  0.4360 -0.0781
  824MOL0     C11107   4.105   9.105   2.730 -0.2662 -0.5677 -0.1834
  824MOL0     O11108   4.240   9.103   2.755 -0.1760 -0.2337  0.3667
  824MOL0     C11109   4.322   9.070   2.649  0.3829 -0.5108  0.7122
  824MOL0     C11110   4.427   9.157   2.619 -0.2887  0.2231  0.5294
  824MOL0     C11111   4.524   9.145   2.519 -0.0511 -0.0339  0.8195
  824MOL0     C11112   4.508   9.025   2.439  0.0146  0.4723  0.1910
  824MOL0     O11113   4.585   8.995   2.328 -0.6576  0.8549 -0.5184
  824MOL0     C11114   4.724   9.045   2.320 -0.5478  0.2366 -0.0782
  824MOL0     C11115   4.810   8.992   2.209 -0.5281 -0.6179  0.2918
  824MOL0     C11116   4.938   9.074   2.201  0.3255 -0.0159 -0.3331
  824MOL0     C11117   5.037   9.026   2.094  0.3076  0.3142  0.2948
  824MOL0     C11118   4.983   9.005   1.949 -0.2296 -0.0263 -0.4450
  824MOL0     C11119   4.935   8.855   1.906  0.2907 -0.3870 -0.4625
  824MOL0     C11120   4.856   8.852   1.769  0.4822 -0.4019 -0.5026
  824MOL0     C11121   4.801   8.709   1.748  0.6498  0.2693 -0.4232
  824MOL0     N11122   4.724   8.693   1.626 -1.0045 -0.5897  0.1007
  824MOL0     C11123   4.758   8.756   1.506 -0.3590  1.1277  0.4585
  824MOL0     C11124   4.679   8.692   1.413 -0.7687 -0.4787 -0.3822
  824MOL0     C11125   4.682   8.710   1.262 -0.6043  1.1986  0.1284
  824MOL0     C11126   4.686   8.868   1.229 -0.8941  0.6785 -0.2401
  824MOL0     C11127   4.652   8.892   1.085 -0.5844  0.9720 -0.1202
  824MOL0     C11128   4.498   8.866   1.070  0.6969 -0.0125  0.1253
  824MOL0     O11129   4.465   8.916   0.940 -0.8865  0.1882 -0.0881
  824MOL0     C11130   4.442   8.849   0.829 -0.1930  0.6180 -0.4739
  824MOL0     C11131   4.444   8.705   0.815 -0.0703 -0.6607  0.4214
  824MOL0     C11132   4.402   8.636   0.698 -0.0081 -0.3185  0.2826
  824MOL0     C11133   4.414   8.489   0.708  0.7714 -0.8621 -0.8557
  824MOL0     C11134   4.349   8.712   0.591 -0.6876 -0.3205 -0.5532
  824MOL0     C11135   4.299   8.640   0.471  0.5753 -0.3211  0.0422
  824MOL0     O11136   4.340   8.516   0.443 -0.6026 -0.2955  0.2457
  824MOL0     C11137   4.309   8.458   0.320  0.0336 -0.3536  0.0200
  824MOL0     C11138   4.241   8.340   0.315 -0.0423  0.3858  0.0346
  824MOL0     C11139   4.195   8.286   0.195 -0.0415 -0.7090  0.6171
  824MOL0     C11140   4.230   8.352   0.069 -0.4531  0.1037  0.0182
  824MOL0     O11141   4.184   8.298  -0.043  0.1790 -0.0069  0.8151
  824MOL0     C11142   4.269   8.284  -0.160  0.6041 -0.4807 -1.1677
  824MOL0     C11143   4.234   8.388  -0.269 -0.6132 -0.2909 -0.9270
  824MOL0     C11144   4.101   8.385  -0.330 -0.0494  0.3506  0.5206
  824MOL0     C11145   4.101   8.361  -0.490  0.0225 -0.9460 -0.3488
  824MOL0     C11146   4.156   8.485  -0.565  0.2981  0.1770 -0.5963
  824MOL0     C11147   4.138   8.454  -0.714 -0.0560  0.0799 -0.3230
  824MOL0     C11148   4.154   8.574  -0.807 -0.1047  0.7405 -0.1530
  824MOL0     C11149   4.074   8.551  -0.933  0.4903  0.3550 -0.3239
  824MOL0    Cl11150   4.104   8.389  -1.009  0.0074 -0.4275  0.4470
  824MOL0     C11151   4.307   8.469   0.078  0.4496 -0.8289  0.5888
  824MOL0     C11152   4.351   8.523   0.199  0.3803 -0.2260  0.5425
  824MOL0     O11153   4.214   8.700   0.406 -0.3229 -0.7277 -0.2109
  824MOL0     C11154   4.353   8.852   0.604 -1.1134 -0.0051 -0.0649
  824MOL0     C11155   4.399   8.919   0.722  0.2678 -0.7191 -0.3691
  824MOL0     N11156   4.591   8.612   1.483  1.0949  0.7132  0.4890
  824MOL0     N11157   4.623   8.611   1.607 -0.0016  0.4806  0.4711
  824MOL0     C11158   4.396   8.942   2.459 -0.6901  0.9279 -0.6181
  824MOL0     C11159   4.301   8.961   2.560  0.6851  0.8575 -0.4716
  824MOL0     C11160   4.031   9.136   2.844 -0.1048  0.0435 -0.3106
  824MOL0     C11161   4.089   9.214   2.945  0.1832  0.2256 -0.0083
  824MOL0     C11162   4.019   9.247   3.058 -0.1645 -0.3039 -0.4300
  824MOL0     C11163   3.893   9.199   3.087 -1.0501  0.0989  1.1285
  824MOL0     O11164   3.827   9.225   3.201  1.0225  1.1258 -0.4662
  824MOL0     C11165   3.683   9.189   3.202 -0.5851 -0.0893  0.5978
  824MOL0     C11166   3.600   9.257   3.315 -0.1351 -1.0796 -0.7466
  824MOL0     C11167   3.619   9.407   3.318 -0.0125 -0.1378 -0.0606
  824MOL0     C11168   3.528   9.484   3.419  0.0164 -0.4520  0.1832
  824MOL0     C11169   3.551   9.450   3.557 -0.6746 -0.0629  1.2999
  824MOL0     C11170   3.567   9.407   3.662  1.3064  0.0675 -0.2846
  824MOL0     C11171   3.838   9.122   2.978 -0.2213 -0.0056 -0.4836
  824MOL0     C11172   3.899   9.092   2.859 -0.0129  0.1012 -0.3345
  824MOL0     H11173   4.441   9.235   2.693 -0.3855  0.8423 -0.0961
  824MOL0     H11174   4.611   9.210   2.511  1.1481 -1.8564 -2.9186
  824MOL0     H11175   4.707   9.152   2.308 -1.8275 -0.1302 -2.1990
  824MOL0     H11176   4.771   9.040   2.418 -0.9115 -0.3009  0.0749
  824MOL0     H11177   4.851   8.899   2.249 -1.8355 -1.0664  0.6434
  824MOL0     H11178   4.758   8.976   2.114 -2.1269 -0.4968  1.1143
  824MOL0     H11179   4.909   9.171   2.161  2.3459  1.9441  2.5096
  824MOL0     H11180   4.979   9.105   2.298  0.1471  2.5408 -1.0158
  824MOL0     H11181   5.101   9.113   2.077  0.0876 -0.0529 -3.2050
  824MOL0     H11182   5.085   8.934   2.130  1.7880  0.4263 -1.2488
  824MOL0     H11183   4.906   9.080   1.931 -0.3255  0.1532  0.6318
  824MOL0     H11184   5.053   9.038   1.872 -1.9638  2.2980 -1.1304
  824MOL0     H11185   5.026   8.796   1.893  0.7696  0.2706 -0.1597
  824MOL0     H11186   4.875   8.810   1.985  0.6426 -1.2595 -0.6906
  824MOL0     H11187   4.774   8.926   1.768 -0.5039 -1.3955  1.5416
  824MOL0     H11188   4.927   8.878   1.690 -1.6735 -0.8898 -2.7172
  824MOL0     H11189   4.748   8.684   1.841  1.5809  1.3427  0.4321
  824MOL0     H11190   4.874   8.628   1.740 -1.3973 -1.8313  0.8081
  824MOL0     H11191   4.834   8.833   1.490 -1.5049  2.4329  1.0884
  824MOL0     H11192   4.774   8.669   1.220 -1.6570  1.0684 -2.1602
  824MOL0     H11193   4.597   8.657   1.218 -1.1350  2.2130 -0.1080
  824MOL0     H11194   4.790   8.893   1.249 -0.1525 -1.1835 -1.4742
  824MOL0     H11195   4.610   8.925   1.283 -1.0618  1.9345 -1.7099
  824MOL0     H11196   4.712   8.829   1.020 -1.7886  1.0976 -1.4034
  824MOL0     H11197   4.664   8.997   1.055  0.9888  0.1359 -2.7317
  824MOL0     H11198   4.442   8.920   1.146  0.6690 -0.2916  0.3057
  824MOL0     H11199   4.474   8.759   1.073 -0.8723  0.2689 -0.9894
  824MOL0     H11200   4.477   8.649   0.902  0.3092 -1.8518 -0.4593
  824MOL0     H11201   4.456   8.479   0.809 -0.1819  2.3422 -0.0406
  824MOL0     H11202   4.319   8.437   0.693 -0.0386  0.2001  0.4006
  824MOL0     H11203   4.488   8.445   0.640  1.0131 -3.3063  0.8400
  824MOL0     H11204   4.240   8.275   0.402  0.7341 -0.2914 -0.4465
  824MOL0     H11205   4.138   8.194   0.196 -0.9834 -0.1409  1.4418
  824MOL0     H11206   4.374   8.284  -0.128 -0.3165  2.6192  2.5993
  824MOL0     H11207   4.258   8.189  -0.213  2.1137 -1.0257 -0.5614
  824MOL0     H11208   4.264   8.483  -0.226 -0.2979  0.3023 -2.3844
  824MOL0     H11209   4.299   8.384  -0.357 -0.4617  0.5838 -0.8596
  824MOL0     H11210   4.040   8.472  -0.305  0.8430  0.6042  1.9034
  824MOL0     H11211   4.057   8.301  -0.275  1.8948  0.0727  1.7333
  824MOL0     H11212   4.155   8.271  -0.520  0.6902  0.0013 -2.1013
  824MOL0     H11213   3.997   8.349  -0.521 -1.3021  1.4005  2.6349
  824MOL0     H11214   4.256   8.497  -0.523  1.0518  0.6378 -2.4164
  824MOL0     H11215   4.094   8.574  -0.553  0.3976 -0.0664  2.6557
  824MOL0     H11216   4.206   8.371  -0.738 -3.0822 -2.7402  0.1646
  824MOL0     H11217   4.042   8.412  -0.744  0.0792  0.4376 -1.2988
  824MOL0     H11218   4.261   8.585  -0.826 -0.0821 -0.0292 -0.5129
  824MOL0     H11219   4.114   8.663  -0.757 -1.1869  1.7831 -2.7402
  824MOL0     H11220   4.106   8.613  -1.017  0.2898 -0.0016 -0.6716
  824MOL0     H11221   3.965   8.555  -0.923  0.2397  1.2593 -2.6784
  824MOL0     H11222   4.338   8.516  -0.014 -4.1530 -1.6505 -1.6969
  824MOL0     H11223   4.403   8.618   0.204 -2.3792  1.5172 -1.0388
  824MOL0     H11224   4.312   8.906   0.519 -0.6138  1.8206  0.7943
  824MOL0     H11225   4.416   9.026   0.716 -3.5931  0.0412 -0.0628
  824MOL0     H11226   4.374   8.857   2.395  0.5425 -0.1713  0.3614
  824MOL0     H11227   4.213   8.900   2.572  0.4951  1.4579  1.3932
  824MOL0     H11228   4.194   9.241   2.940  0.2260  0.1857  0.6400
  824MOL0     H11229   4.070   9.299   3.139  0.4545 -1.3679 -0.1154
  824MOL0     H11230   3.625   9.214   3.113 -2.6368 -3.3722  0.8246
  824MOL0     H11231   3.669   9.081   3.209  1.2402 -0.4768 -0.8395
  824MOL0     H11232   3.614   9.217   3.416 -2.8132 -0.8548 -0.2097
  824MOL0     H11233   3.495   9.252   3.283  0.0625  2.2749 -2.3404
  824MOL0     H11234   3.620   9.449   3.216 -3.3814 -1.4550 -0.7596
  824MOL0     H11235   3.720   9.434   3.351 -0.1408  0.8051 -0.4083
  824MOL0     H11236   3.422   9.462   3.406  0.0784 -0.6994  0.0884
  824MOL0     H11237   3.543   9.591   3.402  0.4566  0.2247  3.9052
  824MOL0     H11238   3.575   9.381   3.766 -2.0631  1.9243  0.5942
  824MOL0     H11239   3.734   9.090   2.984 -0.0004 -0.4321  1.8915
  824MOL0     H11240   3.844   9.036   2.784 -3.3029 -0.2966  2.1559
  825MOL0     O11241   2.827   4.868   5.682 -0.0091  0.0385  0.9053
  825MOL0     C11242   2.727   4.911   5.745 -0.5439 -1.3957 -0.0085
  825MOL0     O11243   2.724   4.940   5.877 -0.1173 -0.4992  0.3575
  825MOL0     C11244   2.852   4.931   5.945 -0.0067 -0.5219  0.3945
  825MOL0     C11245   2.939   4.825   5.941 -0.3987 -0.9673 -0.1569
  825MOL0     C11246   3.057   4.815   6.021  0.7711 -0.2407 -0.3151
  825MOL0     C11247   3.100   4.932   6.086 -0.9687 -0.4620  0.0298
  825MOL0     O11248   3.221   4.919   6.157  0.2630  0.2042 -1.0524
  825MOL0     C11249   3.328   4.834   6.104  0.9800  0.0815 -0.6011
  825MOL0     C11250   3.455   4.829   6.199  0.2377  0.3843  0.8783
  825MOL0     C11251   3.418   4.772   6.337 -0.7598 -0.2426 -0.5347
  825MOL0     C11252   3.499   4.851   6.446  0.6115  0.1824  0.8557
  825MOL0     C11253   3.434   4.983   6.478 -0.5212 -0.0570 -0.0258
  825MOL0     C11254   3.300   4.978   6.552  0.2130  0.8138  0.0221
  825MOL0     C11255   3.237   5.108   6.591  0.3882 -0.0281  0.5155
  825MOL0     C11256   3.224   5.219   6.484  0.0360 -0.6997  0.4859
  825MOL0     N11257   3.152   5.343   6.539 -0.7143 -0.4287  0.6433
  825MOL0     C11258   3.210   5.459   6.600 -0.2538  0.4230 -0.0201
  825MOL0     C11259   3.111   5.538   6.641  0.8144  0.5967  0.9722
  825MOL0     C11260   3.130   5.663   6.715  0.2208  0.1044 -0.1143
  825MOL0     C11261   3.169   5.779   6.635  0.2470 -0.5350 -0.2162
  825MOL0     C11262   3.054   5.867   6.575 -1.0690 -0.3055  0.5356
  825MOL0     C11263   3.116   5.954   6.460  0.4138  1.2230 -0.0594
  825MOL0     O11264   3.164   5.877   6.356  0.5807  0.3898  0.7114
  825MOL0     C11265   3.136   5.926   6.232  0.1953 -0.1823  0.7755
  825MOL0     C11266   3.029   5.874   6.153 -0.3657 -0.6190 -0.7979
  825MOL0     C11267   3.003   5.909   6.019  0.4173 -0.9558 -0.0490
  825MOL0     C11268   2.877   5.848   5.951 -1.2024  0.7880 -0.2529
  825MOL0     C11269   3.081   6.013   5.968 -1.1521 -0.5934  0.7497
  825MOL0     C11270   3.054   6.074   5.835 -0.3508  0.1678 -0.3248
  825MOL0     O11271   3.116   6.195   5.819  0.2287 -0.6928  0.0810
  825MOL0     C11272   3.160   6.213   5.691 -0.0681  0.2676  0.0513
  825MOL0     C11273   3.087   6.299   5.610 -0.3565  0.1603  0.6875
  825MOL0     C11274   3.121   6.313   5.481  0.6450 -0.8405 -0.4443
  825MOL0     C11275   3.225   6.246   5.415  0.9830 -0.2733 -0.7760
  825MOL0     O11276   3.252   6.257   5.280 -0.4050 -0.1747 -0.0630
  825MOL0     C11277   3.176   6.357   5.209  0.6501 -0.2031  0.4094
  825MOL0     C11278   3.229   6.357   5.067  0.2965 -0.3876  0.2768
  825MOL0     C11279   3.378   6.381   5.042  0.0686 -0.3185 -0.3127
  825MOL0     C11280   3.423   6.527   5.080 -0.0240  0.3953  0.4336
  825MOL0     C11281   3.569   6.544   5.099  0.3066  0.1672  0.5442
  825MOL0     C11282   3.640   6.558   4.962 -0.5436 -0.0741 -0.7594
  825MOL0     C11283   3.793   6.532   4.984  0.2964  0.3304 -1.1290
  825MOL0     C11284   3.868   6.622   5.079 -0.0837  1.1858  0.2231
  825MOL0    Cl11285   3.899   6.790   5.029  0.0038 -0.1783 -0.1173
  825MOL0     C11286   3.309   6.169   5.507  0.3798  0.2155  0.5494
  825MOL0     C11287   3.277   6.154   5.646  0.0828 -0.9214  0.8058
  825MOL0     O11288   2.993   6.023   5.742  0.0414  0.6253 -0.7599
  825MOL0     C11289   3.194   6.073   6.047  0.2410  0.7349  0.2368
  825MOL0     C11290   3.226   6.015   6.177  0.0916 -1.0637 -0.2151
  825MOL0     N11291   2.994   5.482   6.586 -0.2030 -0.4111 -0.3125
  825MOL0     N11292   3.019   5.363   6.537  0.0488 -0.2633 -0.8819
  825MOL0     C11293   3.012   5.038   6.093 -0.1509 -0.3042 -0.6352
  825MOL0     C11294   2.892   5.041   6.018  0.5213 -0.6316 -0.3770
  825MOL0     C11295   2.591   4.900   5.678 -0.2275 -0.2256 -0.1588
  825MOL0     C11296   2.464   4.901   5.749  0.7170  0.5241  0.7048
  825MOL0     C11297   2.349   4.901   5.674 -0.3172 -0.2314 -0.4099
  825MOL0     C11298   2.345   4.876   5.540  0.0564  0.5746 -0.2194
  825MOL0     O11299   2.237   4.875   5.459  0.6513  0.3870  0.0579
  825MOL0     C11300   2.141   4.974   5.494 -0.2923  0.9697  0.8498
  825MOL0     C11301   2.038   4.996   5.369 -0.1883 -0.0489 -0.2694
  825MOL0     C11302   2.100   5.014   5.232  0.9131  0.2585  0.1883
  825MOL0     C11303   2.179   5.144   5.227  0.0562  0.5224  0.1892
  825MOL0     C11304   2.220   5.182   5.095  0.3129 -0.0709 -0.0569
  825MOL0     C11305   2.271   5.221   4.996 -0.6806  0.7257  0.4705
  825MOL0     C11306   2.464   4.858   5.468  0.1623 -0.0216 -1.4638
  825MOL0     C11307   2.588   4.874   5.541 -0.7497  0.2283 -0.0661
  825MOL0     H11308   2.918   4.731   5.890  1.1920 -1.0060 -0.8086
  825MOL0     H11309   3.108   4.719   6.015 -0.8084 -1.0455 -1.6367
  825MOL0     H11310   3.306   4.727   6.102  0.0021  0.2649 -2.9582
  825MOL0     H11311   3.363   4.858   6.003  0.4951 -0.6426 -0.9531
  825MOL0     H11312   3.522   4.762   6.146 -1.0957  1.3211 -2.2262
  825MOL0     H11313   3.512   4.922   6.200 -1.4326  1.4604  1.4195
  825MOL0     H11314   3.312   4.789   6.354 -0.9183  0.0051 -1.7047
  825MOL0     H11315   3.443   4.666   6.348 -1.6538 -0.3684  0.5287
  825MOL0     H11316   3.478   4.786   6.532  0.6594  0.6177  1.2022
  825MOL0     H11317   3.602   4.856   6.411  0.5317 -2.3071  0.0358
  825MOL0     H11318   3.494   5.033   6.555 -1.4160  0.3429  0.4247
  825MOL0     H11319   3.416   5.036   6.384  0.8978  0.4262 -0.0406
  825MOL0     H11320   3.224   4.921   6.499  2.4908  0.5538 -3.2830
  825MOL0     H11321   3.311   4.924   6.646  2.9084 -1.0740 -1.2463
  825MOL0     H11322   3.139   5.082   6.633 -0.5624 -2.7827 -2.9292
  825MOL0     H11323   3.290   5.151   6.677 -1.5919  0.2931  1.6405
  825MOL0     H11324   3.154   5.190   6.405 -2.0377  1.1434  1.5175
  825MOL0     H11325   3.316   5.258   6.440 -0.4579  1.4304  1.2267
  825MOL0     H11326   3.310   5.478   6.638 -0.9970  0.4994  1.9982
  825MOL0     H11327   3.036   5.695   6.762 -0.5113 -2.8528  0.5979
  825MOL0     H11328   3.206   5.654   6.792  0.1358 -1.5100 -0.1908
  825MOL0     H11329   3.247   5.756   6.562  0.1407 -2.6476  0.2788
  825MOL0     H11330   3.215   5.846   6.708  0.7085 -1.1600  0.0673
  825MOL0     H11331   3.000   5.934   6.643  1.2493  1.2914  0.9185
  825MOL0     H11332   2.991   5.791   6.527 -1.4394 -0.4957  1.3079
  825MOL0     H11333   3.201   6.008   6.502  2.6642 -2.1051  0.0443
  825MOL0     H11334   3.040   6.026   6.429  1.6144  2.8505  0.6728
  825MOL0     H11335   2.977   5.792   6.202  0.2016  0.8363  2.5570
  825MOL0     H11336   2.824   5.912   5.881  0.3634  0.4034 -1.8709
  825MOL0     H11337   2.914   5.764   5.892  3.6373  2.4887 -0.1132
  825MOL0     H11338   2.817   5.813   6.035 -2.4517  0.9878 -1.0384
  825MOL0     H11339   2.994   6.340   5.649 -1.4446 -0.8444 -0.7581
  825MOL0     H11340   3.049   6.376   5.430 -2.0835 -2.6177  0.9538
  825MOL0     H11341   3.071   6.326   5.203  0.4641  0.4428  0.1904
  825MOL0     H11342   3.174   6.457   5.255 -2.0768  0.5348 -1.0896
  825MOL0     H11343   3.209   6.259   5.022 -0.7181  1.1721 -3.0238
  825MOL0     H11344   3.161   6.427   5.017  1.9468  1.4251  0.4456
  825MOL0     H11345   3.395   6.364   4.935  0.2916  0.3107 -0.3828
  825MOL0     H11346   3.446   6.315   5.097  1.7766 -0.0916 -2.0202
  825MOL0     H11347   3.388   6.606   5.014  0.3341  3.1900  3.3402
  825MOL0     H11348   3.374   6.547   5.176 -4.1759  1.3121 -1.6478
  825MOL0     H11349   3.615   6.456   5.146 -0.8602 -0.0621  1.2929
  825MOL0     H11350   3.588   6.634   5.158 -0.7497  0.1666  0.9132
  825MOL0     H11351   3.606   6.482   4.892  0.3050 -0.2216 -1.0141
  825MOL0     H11352   3.633   6.655   4.911  1.9797  0.9114  0.5629
  825MOL0     H11353   3.834   6.559   4.886 -0.0791  0.8942 -1.1370
  825MOL0     H11354   3.810   6.428   5.014  1.3810  0.3200 -1.7469
  825MOL0     H11355   3.964   6.570   5.080 -1.0368 -0.6611  0.6264
  825MOL0     H11356   3.825   6.618   5.180 -1.6816  1.4646 -0.4135
  825MOL0     H11357   3.394   6.124   5.458  0.7436  1.4438  0.0021
  825MOL0     H11358   3.314   6.086   5.722  1.4668 -0.9871  0.1101
  825MOL0     H11359   3.248   6.152   5.996  0.1888  1.5608  1.4087
  825MOL0     H11360   3.307   6.048   6.242 -2.3348  2.3266  1.3560
  825MOL0     H11361   3.041   5.127   6.147 -0.7464  0.2761 -1.2594
  825MOL0     H11362   2.827   5.127   6.030 -1.1982 -1.6844 -1.5541
  825MOL0     H11363   2.473   4.912   5.856 -1.3518  2.7901  0.7461
  825MOL0     H11364   2.251   4.919   5.717  0.6325  1.9337  1.0821
  825MOL0     H11365   2.075   4.945   5.576  0.4088 -1.2616  0.6999
  825MOL0     H11366   2.198   5.066   5.506  2.0348 -0.1668 -0.7168
  825MOL0     H11367   1.963   5.071   5.397 -2.6221 -1.8692 -1.4672
  825MOL0     H11368   1.976   4.905   5.364 -0.4688 -0.0123  1.6628
  825MOL0     H11369   2.023   5.010   5.154  1.7096 -1.2231 -0.5511
  825MOL0     H11370   2.160   4.927   5.207 -3.5713 -2.8294 -1.0001
  825MOL0     H11371   2.273   5.125   5.279 -0.8477 -3.5311  0.7077
  825MOL0     H11372   2.127   5.224   5.279 -1.4926  0.1980 -0.7906
  825MOL0     H11373   2.312   5.245   4.900  1.6342 -0.3484  1.1163
  825MOL0     H11374   2.477   4.843   5.362 -0.2510  0.6162 -1.6096
  825MOL0     H11375   2.675   4.844   5.483 -1.1404  0.7763 -0.9492
  826MOL0     O11376   2.914   3.564   5.826  0.0306  0.3130  0.4587
  826MOL0     C11377   2.924   3.510   5.713 -0.6087  1.1847 -0.5673
  826MOL0     O11378   2.914   3.564   5.582  0.1188 -0.2672  0.2364
  826MOL0     C11379   2.888   3.697   5.565  0.5652 -1.2271 -0.3762
  826MOL0     C11380   2.871   3.733   5.427  0.5530  0.1861 -0.8064
  826MOL0     C11381   2.837   3.859   5.377 -0.0694 -0.7776  0.3031
  826MOL0     C11382   2.806   3.958   5.472  0.0970  0.3337 -0.3762
  826MOL0     O11383   2.764   4.079   5.454  0.1422 -0.6099 -0.3812
  826MOL0     C11384   2.668   4.097   5.347  0.0529 -0.6928  1.2973
  826MOL0     C11385   2.713   4.141   5.207 -0.2970  0.1815 -0.7307
  826MOL0     C11386   2.820   4.253   5.215  0.2075  0.1541  0.1516
  826MOL0     C11387   2.892   4.269   5.092 -0.6799  0.5047 -0.2264
  826MOL0     C11388   3.013   4.366   5.112  0.4380 -0.3508 -0.1991
  826MOL0     C11389   2.972   4.493   5.193  0.6669  0.8260  0.4812
  826MOL0     C11390   3.061   4.609   5.166 -0.3719  0.1666  0.8425
  826MOL0     C11391   3.079   4.659   5.015 -0.3691 -0.2054 -0.5473
  826MOL0     N11392   2.981   4.631   4.909  0.1550  1.0304 -0.1167
  826MOL0     C11393   3.003   4.576   4.784  0.0917  0.5931 -0.5347
  826MOL0     C11394   2.885   4.541   4.747  0.6154 -0.5557  0.4437
  826MOL0     C11395   2.853   4.476   4.612 -0.6907 -0.0683  0.3923
  826MOL0     C11396   2.919   4.344   4.592 -0.4130  0.0889  0.0229
  826MOL0     C11397   2.881   4.248   4.704  1.2211 -0.4824 -0.6360
  826MOL0     C11398   2.727   4.244   4.730  0.0174 -0.5243 -0.8152
  826MOL0     O11399   2.673   4.192   4.616  0.0877 -0.5803  0.1487
  826MOL0     C11400   2.554   4.124   4.625  0.2114  0.4336 -0.1859
  826MOL0     C11401   2.505   4.076   4.504  0.5706  0.5066  0.0766
  826MOL0     C11402   2.407   3.976   4.498 -0.0286 -0.7048 -0.7752
  826MOL0     C11403   2.371   3.932   4.361 -0.4123  0.3094 -0.0834
  826MOL0     C11404   2.332   3.948   4.614  0.7145 -0.7984  0.5905
  826MOL0     C11405   2.202   3.867   4.611 -0.4660  0.2002 -0.2591
  826MOL0     O11406   2.175   3.815   4.494  0.1971  0.7499  0.3081
  826MOL0     C11407   2.065   3.743   4.463  0.8061  0.0035  0.1726
  826MOL0     C11408   1.940   3.763   4.502 -0.2090 -0.4268  0.2421
  826MOL0     C11409   1.822   3.681   4.460 -0.2776 -1.3570  0.2315
  826MOL0     C11410   1.839   3.563   4.382  0.6074  0.5115 -0.2951
  826MOL0     O11411   1.723   3.504   4.339 -0.5925 -0.2990 -0.1168
  826MOL0     C11412   1.722   3.390   4.264  0.7192 -0.3490 -0.7000
  826MOL0     C11413   1.591   3.317   4.282  0.7137 -0.5657 -0.0882
  826MOL0     C11414   1.569   3.189   4.201 -0.4523 -0.5392 -2.0904
  826MOL0     C11415   1.535   3.220   4.062 -1.0025  0.1515 -0.0924
  826MOL0     C11416   1.491   3.102   3.982 -0.5542  0.1439 -0.1047
  826MOL0     C11417   1.596   2.982   3.981  0.8623  0.3114 -0.2520
  826MOL0     C11418   1.729   3.033   3.935  0.4718  0.5704  0.4022
  826MOL0     C11419   1.824   2.905   3.924 -0.0411 -0.2890  0.8745
  826MOL0    Cl11420   1.784   2.824   3.767 -0.0161 -0.7494  0.2651
  826MOL0     C11421   1.975   3.530   4.360 -0.5881 -0.0772 -0.5176
  826MOL0     C11422   2.084   3.621   4.393 -0.0049  1.0396  0.8391
  826MOL0     O11423   2.129   3.852   4.716 -0.2389 -0.3798 -0.1006
  826MOL0     C11424   2.373   4.004   4.737  0.5306  0.4263  0.8848
  826MOL0     C11425   2.483   4.090   4.745 -0.3148  0.5527  0.6811
  826MOL0     N11426   2.788   4.579   4.833  0.8151  0.8879 -0.5277
  826MOL0     N11427   2.844   4.634   4.929  0.6616  0.4827 -0.0297
  826MOL0     C11428   2.823   3.920   5.610 -0.2275  0.4833  0.2562
  826MOL0     C11429   2.869   3.801   5.663  0.6102  0.0967  1.7227
  826MOL0     C11430   2.971   3.368   5.721  0.1717 -0.0334  0.0925
  826MOL0     C11431   2.971   3.287   5.839 -0.3321 -0.8515 -0.0526
  826MOL0     C11432   3.004   3.151   5.836 -0.5627  0.4769 -0.8968
  826MOL0     C11433   3.052   3.090   5.724 -0.2613 -0.0339  0.5291
  826MOL0     O11434   3.097   2.965   5.719  0.1599  1.1098 -0.2651
  826MOL0     C11435   3.012   2.860   5.776 -0.3085 -0.6161 -0.1343
  826MOL0     C11436   2.885   2.844   5.684 -1.4954  0.2227 -0.3817
  826MOL0     C11437   2.786   2.734   5.740  0.2838 -0.4529  0.1220
  826MOL0     C11438   2.849   2.600   5.776  0.6983 -0.4306 -1.3851
  826MOL0     C11439   2.908   2.523   5.667 -0.1058  0.6175 -0.3554
  826MOL0     C11440   2.960   2.475   5.573 -0.0909 -0.1242 -0.2612
  826MOL0     C11441   3.043   3.164   5.608  0.0310  0.3561  0.2513
  826MOL0     C11442   3.011   3.297   5.604 -0.8894 -0.0901  0.1902
  826MOL0     H11443   2.874   3.645   5.363 -2.8328 -1.3241  0.8646
  826MOL0     H11444   2.824   3.880   5.272 -0.6456 -0.2173  0.4798
  826MOL0     H11445   2.613   4.005   5.327  0.2820 -0.2001 -2.2742
  826MOL0     H11446   2.599   4.170   5.390 -2.8894 -3.9380  2.5293
  826MOL0     H11447   2.744   4.054   5.148  1.1575 -0.3207  0.7161
  826MOL0     H11448   2.622   4.171   5.153  0.0837  3.8767  0.4326
  826MOL0     H11449   2.764   4.341   5.249  0.5730  0.2760  0.4449
  826MOL0     H11450   2.892   4.220   5.291 -0.2890 -3.4120 -0.7229
  826MOL0     H11451   2.935   4.173   5.061 -0.8610  0.9477 -1.9695
  826MOL0     H11452   2.821   4.309   5.019  1.3487  0.7259 -2.1743
  826MOL0     H11453   3.096   4.317   5.164  2.6922  1.4430 -1.8849
  826MOL0     H11454   3.065   4.382   5.017 -0.1641 -1.5827 -0.7650
  826MOL0     H11455   2.874   4.522   5.152  0.1389 -2.1073 -0.5631
  826MOL0     H11456   2.960   4.471   5.299  1.6447 -2.6197  0.0006
  826MOL0     H11457   3.016   4.695   5.216 -2.6970 -1.2188  1.3227
  826MOL0     H11458   3.154   4.581   5.216  0.0095 -0.3119 -0.0964
  826MOL0     H11459   3.167   4.605   4.978 -1.3755 -1.6630 -0.8964
  826MOL0     H11460   3.073   4.768   5.009 -0.4430 -0.1725  0.0708
  826MOL0     H11461   3.097   4.545   4.741  0.7491 -0.2919  1.4185
  826MOL0     H11462   2.744   4.481   4.612 -0.6651  3.4591  0.7873
  826MOL0     H11463   2.884   4.543   4.531 -1.5478 -1.0200 -0.7558
  826MOL0     H11464   3.028   4.351   4.588 -0.4019  1.0572  1.3661
  826MOL0     H11465   2.880   4.299   4.500  1.4265 -0.9172 -0.3083
  826MOL0     H11466   2.937   4.272   4.795  2.7048 -2.5689 -0.9246
  826MOL0     H11467   2.924   4.149   4.687  2.7785  0.1179 -0.3726
  826MOL0     H11468   2.675   4.340   4.741  2.5926  1.0151 -1.4192
  826MOL0     H11469   2.712   4.188   4.823 -1.0320 -0.6195 -1.0316
  826MOL0     H11470   2.560   4.094   4.412  3.0824  0.8602  1.5444
  826MOL0     H11471   2.365   3.823   4.354  0.5875  0.2507 -0.0893
  826MOL0     H11472   2.277   3.977   4.327  0.0604  1.7116  0.3671
  826MOL0     H11473   2.447   3.961   4.288  0.5429  2.2932  1.5665
  826MOL0     H11474   1.924   3.838   4.579 -0.8012 -0.0367 -0.2577
  826MOL0     H11475   1.721   3.710   4.486 -0.5735 -0.5803 -1.6235
  826MOL0     H11476   1.743   3.425   4.163 -1.5571 -1.9770 -1.8421
  826MOL0     H11477   1.810   3.331   4.292 -0.6788 -1.6989  1.1111
  826MOL0     H11478   1.584   3.289   4.388 -0.7385  2.1309  0.6103
  826MOL0     H11479   1.515   3.393   4.264 -0.3934 -1.3383  1.1683
  826MOL0     H11480   1.480   3.140   4.241  0.3163 -0.3871 -0.0610
  826MOL0     H11481   1.657   3.126   4.214 -0.1193 -0.0809 -2.1070
  826MOL0     H11482   1.447   3.282   4.084 -0.4856  1.4028 -1.4103
  826MOL0     H11483   1.611   3.270   4.002  0.3169 -3.0394 -1.3125
  826MOL0     H11484   1.469   3.132   3.879  1.4080  0.4843 -0.4613
  826MOL0     H11485   1.395   3.064   4.017  0.3309 -1.2504  0.9256
  826MOL0     H11486   1.607   2.946   4.084  0.2973  2.2152  0.5248
  826MOL0     H11487   1.566   2.899   3.917 -0.8040 -1.3955  2.5157
  826MOL0     H11488   1.775   3.102   4.006  2.2745 -2.6298  2.6200
  826MOL0     H11489   1.714   3.082   3.838 -0.3341  0.1704  0.3121
  826MOL0     H11490   1.817   2.830   4.004  0.8692  1.4081  2.6421
  826MOL0     H11491   1.931   2.926   3.933  0.1339 -1.7289  2.6332
  826MOL0     H11492   2.007   3.429   4.335 -1.9463 -0.5689 -0.3451
  826MOL0     H11493   2.185   3.582   4.391 -0.6501 -0.7329 -0.4147
  826MOL0     H11494   2.327   3.975   4.831 -0.4087 -0.1318  0.2707
  826MOL0     H11495   2.509   4.134   4.840  0.4506  0.5393  0.4832
  826MOL0     H11496   2.795   3.995   5.683 -2.9012  0.3248 -0.4968
  826MOL0     H11497   2.876   3.788   5.771 -0.4056 -2.3047  1.5803
  826MOL0     H11498   2.952   3.347   5.928 -3.5807  3.5403 -3.2525
  826MOL0     H11499   3.015   3.097   5.929 -0.2277  4.2407  1.4599
  826MOL0     H11500   3.065   2.765   5.788  1.8735  0.4403 -0.8740
  826MOL0     H11501   2.994   2.880   5.882  0.4687  0.4823 -0.1989
  826MOL0     H11502   2.925   2.832   5.583 -0.0156  1.4557  0.0247
  826MOL0     H11503   2.840   2.943   5.675  0.8473  1.2744 -1.3923
  826MOL0     H11504   2.714   2.702   5.664 -1.4230  0.6874  1.1945
  826MOL0     H11505   2.735   2.780   5.825 -2.4758  0.5217 -1.9079
  826MOL0     H11506   2.767   2.542   5.818  0.1739 -0.8685 -2.9604
  826MOL0     H11507   2.929   2.608   5.851  0.9498  1.3900 -1.8027
  826MOL0     H11508   3.034   2.441   5.505 -0.0350 -0.6239  0.0410
  826MOL0     H11509   3.069   3.109   5.518 -2.8775 -0.9000  0.0512
  826MOL0     H11510   3.005   3.339   5.504  0.2600 -1.1471 -0.3481
  827MOL0     O11511   0.810   6.689   7.153 -0.2390  0.0917  0.1298
  827MOL0     C11512   0.692   6.650   7.150  0.0511  0.8694 -0.0527
  827MOL0     O11513   0.624   6.598   7.041  0.0721 -0.6572 -0.3127
  827MOL0     C11514   0.682   6.616   6.910  0.1585  0.5930 -0.3893
  827MOL0     C11515   0.766   6.717   6.867 -0.0714  0.2210 -0.7591
  827MOL0     C11516   0.815   6.730   6.741 -0.0915  0.3285  0.6935
  827MOL0     C11517   0.788   6.629   6.641  0.4970  0.0444 -0.4426
  827MOL0     O11518   0.848   6.639   6.516  0.7897  0.1474 -0.1668
  827MOL0     C11519   0.858   6.524   6.443  0.2573  0.0018 -0.1035
  827MOL0     C11520   0.888   6.570   6.299  0.3122  0.4227  0.3085
  827MOL0     C11521   0.794   6.683   6.235  0.4701  0.7287 -0.3587
  827MOL0     C11522   0.866   6.736   6.111  0.1505  0.8635  0.3648
  827MOL0     C11523   0.766   6.827   6.041  0.1475 -0.5439  0.8602
  827MOL0     C11524   0.833   6.870   5.898 -1.0092  0.4558 -0.2370
  827MOL0     C11525   0.755   6.969   5.821 -0.5832 -0.0676  0.0130
  827MOL0     C11526   0.626   6.917   5.766  0.7835  0.5220  0.8038
  827MOL0     N11527   0.624   6.814   5.665 -0.0719  0.3004 -0.0916
  827MOL0     C11528   0.677   6.825   5.536 -0.1657  0.1758 -0.6793
  827MOL0     C11529   0.644   6.707   5.472 -0.4761 -0.4570  0.0363
  827MOL0     C11530   0.676   6.668   5.330 -0.7764 -0.0560 -0.1792
  827MOL0     C11531   0.561   6.617   5.248  0.8979  0.0036 -0.1088
  827MOL0     C11532   0.502   6.491   5.296  0.1455 -0.1290 -0.9495
  827MOL0     C11533   0.483   6.391   5.182  0.4927 -0.1549  0.6328
  827MOL0     O11534   0.421   6.462   5.077 -0.0262  0.9297 -0.1138
  827MOL0     C11535   0.284   6.472   5.069  0.1582  0.5775  0.0246
  827MOL0     C11536   0.196   6.396   5.159  0.4792 -0.4459  0.4863
  827MOL0     C11537   0.057   6.408   5.156  1.0896 -0.8200 -0.0854
  827MOL0     C11538  -0.023   6.345   5.260  0.7947 -0.4071 -0.2901
  827MOL0     C11539  -0.001   6.492   5.060  0.5551  0.0154  0.2398
  827MOL0     C11540  -0.139   6.535   5.070 -0.2534 -0.1053 -0.4609
  827MOL0     O11541  -0.152   6.668   5.056  0.4861 -0.2189 -0.3634
  827MOL0     C11542  -0.284   6.716   5.055 -0.3845  0.4728  0.2227
  827MOL0     C11543  -0.309   6.831   5.135  0.6299  0.2028  0.0914
  827MOL0     C11544  -0.441   6.871   5.137 -0.4717 -1.2650 -0.2351
  827MOL0     C11545  -0.539   6.815   5.051  0.1302 -0.4802 -1.4303
  827MOL0     O11546  -0.670   6.860   5.031 -0.4392  0.7110  0.4305
  827MOL0     C11547  -0.707   6.981   5.099 -0.2560  0.5263  0.4054
  827MOL0     C11548  -0.852   7.006   5.070 -0.0280  0.3731 -0.3775
  827MOL0     C11549  -0.952   6.913   5.143  0.3240 -0.2205  0.7613
  827MOL0     C11550  -1.093   6.941   5.100 -0.3262  0.2062  0.8513
  827MOL0     C11551  -1.157   7.069   5.164  0.3189  0.0360 -0.5896
  827MOL0     C11552  -1.309   7.056   5.189 -0.0371 -0.5140 -0.2889
  827MOL0     C11553  -1.391   7.002   5.070  0.2702 -0.0101 -0.2622
  827MOL0     C11554  -1.366   7.084   4.946 -0.1025 -0.2784 -0.3891
  827MOL0    Cl11555  -1.499   7.023   4.834  0.2205  0.3789  0.1905
  827MOL0     C11556  -0.514   6.706   4.974 -0.0989 -0.9853 -0.2930
  827MOL0     C11557  -0.391   6.656   4.973  0.5572 -0.2005 -0.0411
  827MOL0     O11558  -0.231   6.459   5.106 -0.1590  0.0100  1.0858
  827MOL0     C11559   0.080   6.561   4.970 -0.1476  0.0512  0.8903
  827MOL0     C11560   0.221   6.563   4.980  0.0948  0.4268 -0.0886
  827MOL0     N11561   0.566   6.630   5.554 -0.4962  0.1330  0.5185
  827MOL0     N11562   0.550   6.700   5.671 -0.5834  0.0060  0.5411
  827MOL0     C11563   0.699   6.526   6.685  0.0464 -0.9232  1.3394
  827MOL0     C11564   0.646   6.521   6.812 -0.1470 -0.0808  0.3120
  827MOL0     C11565   0.615   6.662   7.272 -0.3520 -0.0018  0.3932
  827MOL0     C11566   0.475   6.682   7.281 -0.7328 -0.1376 -0.0914
  827MOL0     C11567   0.415   6.687   7.406  1.0750  0.1335 -0.7726
  827MOL0     C11568   0.495   6.677   7.520  1.6267  0.6022  0.2664
  827MOL0     O11569   0.433   6.692   7.645  0.7074 -0.0090  0.4779
  827MOL0     C11570   0.479   6.619   7.762 -0.0946  0.4015 -0.4244
  827MOL0     C11571   0.368   6.559   7.851 -0.4705  0.2133 -0.5687
  827MOL0     C11572   0.314   6.425   7.783 -0.8220  0.1915  0.3715
  827MOL0     C11573   0.198   6.375   7.843  0.5824 -0.5628  1.1844
  827MOL0     C11574   0.194   6.361   7.984 -0.4230  0.4698  0.1764
  827MOL0     C11575   0.220   6.346   8.102 -0.3623 -0.7913  0.0859
  827MOL0     C11576   0.633   6.667   7.514 -0.5035 -0.1324 -0.4522
  827MOL0     C11577   0.689   6.650   7.389  0.3023  0.2420 -0.5180
  827MOL0     H11578   0.795   6.800   6.931  0.8117 -1.5837  1.3097
  827MOL0     H11579   0.880   6.813   6.715 -0.7392 -0.1528 -2.9990
  827MOL0     H11580   0.946   6.465   6.470 -0.6134 -1.6078 -0.6618
  827MOL0     H11581   0.767   6.464   6.431  1.2898 -1.1505 -3.1959
  827MOL0     H11582   0.987   6.616   6.299 -0.1131  1.4428  2.2872
  827MOL0     H11583   0.897   6.495   6.220  1.8991 -0.5818  1.3806
  827MOL0     H11584   0.695   6.646   6.208  0.9107 -0.1145 -0.8580
  827MOL0     H11585   0.777   6.771   6.298  0.8329 -1.0641  2.4012
  827MOL0     H11586   0.957   6.792   6.135  2.2692 -1.8316 -0.7772
  827MOL0     H11587   0.886   6.652   6.044  1.3648  0.4417  1.2258
  827MOL0     H11588   0.676   6.768   6.022  0.9174 -1.3647 -0.4309
  827MOL0     H11589   0.732   6.915   6.096  1.8306  0.1300  0.8887
  827MOL0     H11590   0.930   6.911   5.928 -1.8820  1.9590  0.6611
  827MOL0     H11591   0.849   6.783   5.834 -1.4231  0.8614 -0.9065
  827MOL0     H11592   0.738   7.050   5.893  2.9386  1.2016 -0.4022
  827MOL0     H11593   0.822   6.999   5.740 -1.3101 -0.9181 -0.9304
  827MOL0     H11594   0.578   7.006   5.723 -0.7027 -1.5684 -2.2012
  827MOL0     H11595   0.563   6.889   5.851 -0.2256 -0.1321 -0.1361
  827MOL0     H11596   0.748   6.898   5.498 -2.0866  1.4652 -1.9620
  827MOL0     H11597   0.720   6.755   5.279 -2.5708 -0.1486 -2.0335
  827MOL0     H11598   0.751   6.590   5.324  0.7231  1.3527 -0.5829
  827MOL0     H11599   0.605   6.598   5.150 -2.5608  0.1648 -1.8556
  827MOL0     H11600   0.482   6.687   5.218 -0.1807 -1.5518 -1.0719
  827MOL0     H11601   0.400   6.502   5.333  0.6464  1.8942 -0.0664
  827MOL0     H11602   0.564   6.448   5.375  1.2650 -0.1506 -1.8056
  827MOL0     H11603   0.420   6.311   5.223 -0.7584 -1.0178 -2.6709
  827MOL0     H11604   0.577   6.355   5.139  0.4078  1.9988 -1.5729
  827MOL0     H11605   0.233   6.333   5.239  1.4401 -1.1693 -0.4904
  827MOL0     H11606  -0.091   6.275   5.212 -0.4256  0.4430  0.1373
  827MOL0     H11607   0.038   6.308   5.343 -0.0841 -0.2295  0.4485
  827MOL0     H11608  -0.096   6.413   5.306 -1.7642 -2.9242 -0.3765
  827MOL0     H11609  -0.231   6.872   5.199  0.9939 -2.3958  1.4314
  827MOL0     H11610  -0.449   6.963   5.194 -0.5319 -1.7394  0.5311
  827MOL0     H11611  -0.688   6.970   5.206  0.4314 -1.2500  0.1323
  827MOL0     H11612  -0.650   7.068   5.064 -0.2809 -0.4522 -2.2945
  827MOL0     H11613  -0.873   7.105   5.111  2.3811  1.8761 -2.4759
  827MOL0     H11614  -0.870   6.999   4.962  0.5865 -0.2233 -0.4531
  827MOL0     H11615  -0.934   6.928   5.250  1.3432  0.6610  0.4805
  827MOL0     H11616  -0.926   6.814   5.104 -1.1092  0.5350 -2.4260
  827MOL0     H11617  -1.102   6.955   4.992  1.6306 -4.2291 -0.0940
  827MOL0     H11618  -1.151   6.852   5.128  2.5580 -2.1478 -0.1916
  827MOL0     H11619  -1.134   7.152   5.096  1.0955  0.2022 -0.1333
  827MOL0     H11620  -1.099   7.104   5.250 -0.7055  1.7935 -0.5749
  827MOL0     H11621  -1.313   6.990   5.276  2.5394 -0.3996 -0.0011
  827MOL0     H11622  -1.361   7.145   5.226 -1.6453 -1.3980 -0.3278
  827MOL0     H11623  -1.495   7.003   5.101  0.2564  0.1427 -0.3062
  827MOL0     H11624  -1.354   6.903   5.042 -1.0048 -0.3915 -0.6705
  827MOL0     H11625  -1.273   7.054   4.895 -0.8275 -0.1969 -1.8288
  827MOL0     H11626  -1.368   7.193   4.956  1.3057 -0.3124  0.4874
  827MOL0     H11627  -0.589   6.653   4.916  1.4056 -1.7993 -1.6056
  827MOL0     H11628  -0.366   6.565   4.919  1.2044 -0.4729  0.6927
  827MOL0     H11629   0.032   6.628   4.899 -0.4278 -1.3752 -0.3167
  827MOL0     H11630   0.281   6.621   4.911  0.9878 -0.7295 -0.3304
  827MOL0     H11631   0.659   6.460   6.609 -0.2660  0.8872 -0.1559
  827MOL0     H11632   0.582   6.443   6.853 -0.5559  0.1567  0.1293
  827MOL0     H11633   0.413   6.690   7.192 -0.8858 -0.2334  0.0068
  827MOL0     H11634   0.308   6.705   7.410  1.4541  2.2847  1.4110
  827MOL0     H11635   0.559   6.548   7.738 -0.4503 -0.2395  0.2395
  827MOL0     H11636   0.532   6.683   7.834 -0.2416 -0.5678  0.5714
  827MOL0     H11637   0.291   6.634   7.872 -0.4017  0.4039 -0.9905
  827MOL0     H11638   0.410   6.548   7.952 -1.1762 -0.4209 -0.3326
  827MOL0     H11639   0.399   6.360   7.802  1.7605  3.1837 -0.1130
  827MOL0     H11640   0.312   6.426   7.674 -2.1793 -0.3677  0.3656
  827MOL0     H11641   0.178   6.281   7.791  4.7807 -0.4374 -1.0416
  827MOL0     H11642   0.121   6.450   7.821  4.3223  2.9525 -1.3345
  827MOL0     H11643   0.235   6.331   8.207  2.6435  1.9999  0.2380
  827MOL0     H11644   0.689   6.682   7.606 -1.8651  1.4507  0.1915
  827MOL0     H11645   0.797   6.640   7.387  0.2823 -0.1906  0.2655
  828MOL0     O11646  11.429   0.846   0.159 -0.0988 -0.1810 -1.0921
  828MOL0     C11647  11.331   0.906   0.205  0.4567  0.6584  0.5064
  828MOL0     O11648  11.206   0.917   0.149  0.2948 -0.0444  0.4072
  828MOL0     C11649  11.182   0.855   0.035 -0.7884  1.5430  0.3394
  828MOL0     C11650  11.162   0.918  -0.086  0.9100 -1.1642 -0.2142
  828MOL0     C11651  11.124   0.857  -0.206  0.7224  0.3550 -0.6442
  828MOL0     C11652  11.098   0.717  -0.211  0.0901 -0.4866  0.0553
  828MOL0     O11653  11.064   0.638  -0.319 -0.0896 -0.1376  0.3581
  828MOL0     C11654  11.046   0.698  -0.449 -0.1621  0.0413 -0.2874
  828MOL0     C11655  10.897   0.709  -0.485 -0.1731 -0.0631 -0.4266
  828MOL0     C11656  10.874   0.743  -0.634  0.1397  0.1293  0.8532
  828MOL0     C11657  10.737   0.797  -0.666 -0.0868  0.6413  0.8321
  828MOL0     C11658  10.714   0.815  -0.822  0.0793  0.3549 -0.1096
  828MOL0     C11659  10.593   0.905  -0.843 -0.8229  0.0438 -0.1087
  828MOL0     C11660  10.538   0.900  -0.985  0.0447 -0.9984  0.1046
  828MOL0     C11661  10.469   0.784  -1.038  0.6204  0.1162 -0.1667
  828MOL0     N11662  10.377   0.728  -0.930 -0.0135 -0.3713  0.8849
  828MOL0     C11663  10.399   0.603  -0.879 -0.8754 -0.0132 -0.4065
  828MOL0     C11664  10.295   0.584  -0.800  0.4049 -0.5486  0.2724
  828MOL0     C11665  10.254   0.461  -0.721 -0.5154 -0.6098  0.1782
  828MOL0     C11666  10.271   0.326  -0.783  0.5777 -0.7339 -0.0114
  828MOL0     C11667  10.235   0.215  -0.677 -0.0179  0.7197  0.7121
  828MOL0     C11668  10.206   0.072  -0.738  0.0140 -0.4215  0.0980
  828MOL0     O11669  10.070   0.059  -0.763  0.2001  0.2350  0.0748
  828MOL0     C11670  10.017  -0.062  -0.793 -0.7166  0.5770 -0.5734
  828MOL0     C11671  10.088  -0.181  -0.825 -0.3806 -1.4034 -0.1062
  828MOL0     C11672  10.028  -0.302  -0.858 -0.6958 -0.2986  0.2910
  828MOL0     C11673  10.114  -0.410  -0.922 -0.0089 -0.3352  0.9461
  828MOL0     C11674   9.888  -0.316  -0.839 -0.5258  0.4893  0.1764
  828MOL0     C11675   9.816  -0.441  -0.882  0.6300 -0.5541  0.5674
  828MOL0     O11676   9.694  -0.410  -0.937  0.1034 -0.1755 -0.1737
  828MOL0     C11677   9.628  -0.496  -1.013 -0.5308  0.3478  0.1275
  828MOL0     C11678   9.648  -0.511  -1.152  0.0847  1.1815 -0.2776
  828MOL0     C11679   9.557  -0.595  -1.223 -0.4949  0.1157 -0.7404
  828MOL0     C11680   9.469  -0.670  -1.160  1.6562  1.2573 -0.4367
  828MOL0     O11681   9.391  -0.761  -1.225 -0.3088  0.7072  0.3210
  828MOL0     C11682   9.256  -0.792  -1.183 -0.9279 -0.5332  0.5945
  828MOL0     C11683   9.176  -0.841  -1.294 -0.5535  0.1109 -1.0703
  828MOL0     C11684   9.173  -0.745  -1.420  0.0120  0.5266 -0.3140
  828MOL0     C11685   9.070  -0.636  -1.414  0.2688 -0.8776 -0.6092
  828MOL0     C11686   9.111  -0.513  -1.504 -0.3302 -0.4613  1.2400
  828MOL0     C11687   9.249  -0.450  -1.461 -1.7335 -0.5028 -0.1798
  828MOL0     C11688   9.291  -0.320  -1.538  0.0154  0.0239  0.6871
  828MOL0     C11689   9.436  -0.291  -1.521  0.5583  0.4866 -1.1612
  828MOL0    Cl11690   9.484  -0.297  -1.346 -0.0252 -0.0893  0.2771
  828MOL0     C11691   9.462  -0.668  -1.017 -0.7735  0.6685 -0.7771
  828MOL0     C11692   9.538  -0.579  -0.942  0.4044  0.7427  0.2589
  828MOL0     O11693   9.866  -0.558  -0.878 -0.0315  0.8094  0.3499
  828MOL0     C11694   9.821  -0.201  -0.789  0.5373 -0.4888 -1.0300
  828MOL0     C11695   9.881  -0.074  -0.768  0.7305 -0.2193 -0.1121
  828MOL0     N11696  10.206   0.685  -0.814 -0.3112 -0.3534  0.2369
  828MOL0     N11697  10.257   0.773  -0.889 -0.6872 -0.1299  0.7830
  828MOL0     C11698  11.126   0.647  -0.097 -0.8819  0.2821 -0.5895
  828MOL0     C11699  11.167   0.711   0.023 -0.5506  0.4848  0.1293
  828MOL0     C11700  11.355   0.998   0.314  0.2948 -0.1734  1.4231
  828MOL0     C11701  11.450   0.968   0.414 -0.1355  0.3941  0.5648
  828MOL0     C11702  11.489   1.060   0.509  0.8841 -0.1674  0.0640
  828MOL0     C11703  11.408   1.177   0.521  0.3396  0.0101 -0.1756
  828MOL0     O11704  11.444   1.269   0.619  0.3510  0.6738  1.0324
  828MOL0     C11705  11.479   1.229   0.754 -0.5065 -0.2329  0.4608
  828MOL0     C11706  11.362   1.249   0.844  0.1711 -0.3528 -0.6375
  828MOL0     C11707  11.314   1.395   0.831 -1.4533 -0.0013 -0.5882
  828MOL0     C11708  11.185   1.412   0.907  0.2416  0.6025  1.2473
  828MOL0     C11709  11.131   1.546   0.882 -0.2517  1.2793  0.3304
  828MOL0     C11710  11.071   1.655   0.872  1.1682  0.0251  0.0001
  828MOL0     C11711  11.312   1.202   0.423 -1.4418  0.5336 -1.2392
  828MOL0     C11712  11.290   1.119   0.320 -0.5877 -0.1036 -0.1698
  828MOL0     H11713  11.159   1.026  -0.088 -1.8567 -1.1579 -2.5092
  828MOL0     H11714  11.106   0.916  -0.296 -1.5172 -0.6031 -0.8981
  828MOL0     H11715  11.097   0.794  -0.449  0.2059 -0.0625  2.5645
  828MOL0     H11716  11.097   0.629  -0.517 -2.0380 -2.8825  1.0529
  828MOL0     H11717  10.842   0.616  -0.466 -0.9811 -0.4308 -4.0209
  828MOL0     H11718  10.861   0.790  -0.421 -0.6797  0.5246 -1.4341
  828MOL0     H11719  10.942   0.827  -0.653 -0.7964  0.6570 -0.2944
  828MOL0     H11720  10.915   0.669  -0.703  0.4385 -0.2428  1.4224
  828MOL0     H11721  10.663   0.730  -0.621 -0.4298 -1.6881 -2.7672
  828MOL0     H11722  10.714   0.900  -0.638  0.3004  2.0112 -3.1980
  828MOL0     H11723  10.801   0.851  -0.878  1.5560 -3.5533 -0.6469
  828MOL0     H11724  10.690   0.718  -0.865 -0.1541  0.8157 -1.0375
  828MOL0     H11725  10.521   0.883  -0.763  2.3179 -0.8907  2.6714
  828MOL0     H11726  10.613   1.007  -0.807  1.9977 -0.0404 -1.2520
  828MOL0     H11727  10.461   0.978  -0.993  0.2279 -0.4195  3.0023
  828MOL0     H11728  10.620   0.933  -1.050 -0.7315 -0.5881 -0.6909
  828MOL0     H11729  10.541   0.706  -1.066  2.2227  1.6514 -0.5372
  828MOL0     H11730  10.417   0.821  -1.128  0.9113 -1.3086 -0.9437
  828MOL0     H11731  10.475   0.525  -0.891 -1.9179 -0.5933 -5.1235
  828MOL0     H11732  10.295   0.475  -0.621 -0.3997  1.8933 -0.1745
  828MOL0     H11733  10.148   0.475  -0.696 -0.6810 -3.2125  1.2991
  828MOL0     H11734  10.371   0.313  -0.825  0.8110 -0.6001  0.4981
  828MOL0     H11735  10.208   0.320  -0.873  0.3929  0.6000  0.0022
  828MOL0     H11736  10.159   0.255  -0.609  1.6545  3.4051  1.1778
  828MOL0     H11737  10.332   0.212  -0.628 -0.5094  0.9077  1.7076
  828MOL0     H11738  10.232   0.010  -0.652 -0.1741  1.9127  1.9362
  828MOL0     H11739  10.253   0.033  -0.829 -3.7273 -1.9976 -1.3632
  828MOL0     H11740  10.196  -0.185  -0.837 -0.5969 -2.6016 -2.1382
  828MOL0     H11741  10.220  -0.396  -0.900 -0.4543  1.4936  2.2075
  828MOL0     H11742  10.100  -0.512  -0.884  0.8507 -0.6080  0.5533
  828MOL0     H11743  10.101  -0.401  -1.030 -1.0719  2.8893  1.2423
  828MOL0     H11744   9.720  -0.452  -1.206  0.6806 -0.0060 -0.8138
  828MOL0     H11745   9.552  -0.596  -1.331 -0.3563 -0.9696 -0.7478
  828MOL0     H11746   9.254  -0.879  -1.117 -0.9878 -2.5134 -1.8355
  828MOL0     H11747   9.215  -0.705  -1.133  0.6530  0.7942 -0.2994
  828MOL0     H11748   9.208  -0.944  -1.317 -1.1736 -0.0464 -1.2500
  828MOL0     H11749   9.072  -0.850  -1.261 -0.6119 -1.5932 -1.6308
  828MOL0     H11750   9.142  -0.805  -1.505 -0.6526  0.5381 -0.0899
  828MOL0     H11751   9.279  -0.729  -1.443 -0.2774  1.8785 -0.8064
  828MOL0     H11752   8.969  -0.664  -1.445  0.3949 -0.0689 -1.8297
  828MOL0     H11753   9.066  -0.582  -1.319  1.6491  1.6065 -1.8719
  828MOL0     H11754   9.033  -0.436  -1.503  2.1083  2.2356 -0.1727
  828MOL0     H11755   9.105  -0.550  -1.607  1.9513 -1.9524  1.5643
  828MOL0     H11756   9.232  -0.419  -1.358 -0.6512  1.6512 -0.5879
  828MOL0     H11757   9.328  -0.525  -1.458 -3.0272 -1.8844  1.8611
  828MOL0     H11758   9.232  -0.235  -1.503 -1.9053 -1.1713  0.4567
  828MOL0     H11759   9.263  -0.330  -1.643  2.6375  0.6766 -0.1499
  828MOL0     H11760   9.457  -0.190  -1.558  0.5978  1.6450  1.7627
  828MOL0     H11761   9.502  -0.365  -1.567  1.6298  0.1398  0.7943
  828MOL0     H11762   9.395  -0.737  -0.966  1.1502  0.0181  0.9890
  828MOL0     H11763   9.521  -0.560  -0.837 -0.6672  0.4024  0.1641
  828MOL0     H11764   9.713  -0.213  -0.788  0.0732  2.7327 -1.2126
  828MOL0     H11765   9.825   0.013  -0.737 -1.2265  0.0276 -3.8282
  828MOL0     H11766  11.105   0.540  -0.097 -2.6666  0.5094 -3.9667
  828MOL0     H11767  11.170   0.649   0.112 -0.0051 -1.8273 -1.4099
  828MOL0     H11768  11.509   0.878   0.400 -0.9688  0.0969 -1.3688
  828MOL0     H11769  11.581   1.055   0.566  1.1331  0.0069 -0.3207
  828MOL0     H11770  11.506   1.123   0.750  0.6217 -0.0226  1.9516
  828MOL0     H11771  11.561   1.295   0.784  0.5009 -0.8834 -0.7452
  828MOL0     H11772  11.395   1.221   0.944  0.7831 -0.0187 -0.7429
  828MOL0     H11773  11.280   1.179   0.829 -0.1155 -0.6709  1.9776
  828MOL0     H11774  11.316   1.431   0.728  2.4276  1.0551 -0.3220
  828MOL0     H11775  11.393   1.452   0.882 -4.2737  1.7830  2.1059
  828MOL0     H11776  11.207   1.408   1.014 -0.9725  0.7097  1.5084
  828MOL0     H11777  11.115   1.331   0.887  0.3636  0.5648  0.9588
  828MOL0     H11778  11.032   1.754   0.857  0.5082 -0.2195  0.0377
  828MOL0     H11779  11.265   1.300   0.428  1.0671  1.8925 -2.0092
  828MOL0     H11780  11.229   1.152   0.236  2.7929  3.5256 -1.5361
  829MOL0     O11781   6.591   2.444   0.974 -0.0759  0.6623 -0.1641
  829MOL0     C11782   6.560   2.348   1.038  0.9206  0.6271  0.9167
  829MOL0     O11783   6.465   2.246   1.006 -0.0385 -0.7785  0.1382
  829MOL0     C11784   6.381   2.284   0.904  0.5957  0.2510 -0.2303
  829MOL0     C11785   6.244   2.306   0.943  0.1731  0.4633 -0.2882
  829MOL0     C11786   6.146   2.335   0.852 -0.4966  0.2329 -0.3106
  829MOL0     C11787   6.169   2.348   0.716  0.0350 -0.0339  1.1486
  829MOL0     O11788   6.064   2.372   0.637  0.5326 -0.6824  0.1225
  829MOL0     C11789   6.100   2.414   0.503  1.4305 -0.0828  0.0210
  829MOL0     C11790   5.968   2.448   0.414 -0.1945 -1.0846  0.6437
  829MOL0     C11791   5.887   2.578   0.447  0.9010  0.0966  0.4536
  829MOL0     C11792   5.813   2.568   0.577 -0.8121 -0.3244 -0.4951
  829MOL0     C11793   5.743   2.701   0.600  0.2571  0.4596 -0.0202
  829MOL0     C11794   5.817   2.795   0.705 -0.6539  0.0217  0.8887
  829MOL0     C11795   5.732   2.917   0.740 -0.6757  0.1162  0.4646
  829MOL0     C11796   5.779   2.972   0.874  0.4740 -0.9144 -0.4536
  829MOL0     N11797   5.720   3.104   0.907  0.8262  0.7334 -0.8350
  829MOL0     C11798   5.584   3.134   0.916  0.6371 -0.2360  0.3374
  829MOL0     C11799   5.581   3.266   0.947  0.7229 -0.7533 -0.0621
  829MOL0     C11800   5.466   3.353   0.962 -0.3189 -0.7577  1.0357
  829MOL0     C11801   5.487   3.464   1.059 -0.0268  0.6550 -0.2533
  829MOL0     C11802   5.371   3.573   1.065 -0.5941  0.0186 -0.3772
  829MOL0     C11803   5.363   3.636   1.202  0.1361 -0.4533 -0.1934
  829MOL0     O11804   5.473   3.726   1.213  0.1877 -0.2281 -0.7363
  829MOL0     C11805   5.469   3.847   1.149  0.1970 -0.1818 -0.5468
  829MOL0     C11806   5.594   3.900   1.128  0.4174 -0.3782  1.1778
  829MOL0     C11807   5.618   4.014   1.047 -0.4237 -0.5890 -0.8110
  829MOL0     C11808   5.761   4.047   1.015  0.5705 -0.7084 -0.6031
  829MOL0     C11809   5.507   4.083   0.991 -0.1452 -0.2302  0.3891
  829MOL0     C11810   5.527   4.214   0.911  0.6936  0.0065 -0.3090
  829MOL0     O11811   5.653   4.220   0.844 -0.1947 -0.3751 -0.0583
  829MOL0     C11812   5.696   4.322   0.757 -0.7961 -0.3750 -0.1771
  829MOL0     C11813   5.646   4.449   0.727 -0.3619 -0.2263 -0.2078
  829MOL0     C11814   5.694   4.535   0.644  0.0927 -0.7245  0.3060
  829MOL0     C11815   5.804   4.496   0.564  0.2098  0.4010 -0.2590
  829MOL0     O11816   5.854   4.583   0.470 -0.3300  0.3917  1.0301
  829MOL0     C11817   5.761   4.624   0.363  0.8075  0.1792 -1.6237
  829MOL0     C11818   5.785   4.528   0.250  0.1920 -0.2682 -0.6442
  829MOL0     C11819   5.709   4.575   0.133 -0.7027  0.4130 -0.4113
  829MOL0     C11820   5.561   4.545   0.144  0.5333 -0.3631  0.7302
  829MOL0     C11821   5.485   4.635   0.044  0.8442  0.0458 -0.7113
  829MOL0     C11822   5.334   4.620   0.065 -0.3159 -0.5051 -0.1073
  829MOL0     C11823   5.279   4.489   0.015 -0.5434  0.6498 -0.3382
  829MOL0     C11824   5.134   4.485   0.010  0.2712 -0.5515  0.6079
  829MOL0    Cl11825   5.056   4.526   0.158  0.1286 -0.2148  0.0988
  829MOL0     C11826   5.869   4.373   0.593 -0.3274  0.3830  0.3369
  829MOL0     C11827   5.815   4.287   0.684  0.4694  0.4421 -1.1428
  829MOL0     O11828   5.435   4.301   0.912 -0.2369  0.4584 -0.9091
  829MOL0     C11829   5.383   4.039   1.027 -0.4327  0.1160  1.0101
  829MOL0     C11830   5.363   3.926   1.100  0.8683 -0.0303  0.0571
  829MOL0     N11831   5.713   3.311   0.961  0.3608  0.0741 -0.9435
  829MOL0     N11832   5.792   3.215   0.949 -0.2602 -0.2567  0.4126
  829MOL0     C11833   6.303   2.321   0.674 -1.2672 -0.7863 -0.8872
  829MOL0     C11834   6.415   2.298   0.769  0.8759 -0.2219 -0.4672
  829MOL0     C11835   6.642   2.334   1.159 -0.9212  0.0089 -0.6073
  829MOL0     C11836   6.718   2.435   1.220  0.0132  0.0251 -0.1671
  829MOL0     C11837   6.801   2.419   1.328 -0.9203  0.4167  0.2935
  829MOL0     C11838   6.806   2.294   1.394 -0.1552 -0.4975 -0.3530
  829MOL0     O11839   6.895   2.260   1.493 -0.5087  0.3028  0.0813
  829MOL0     C11840   6.942   2.353   1.585 -0.6380  0.0547 -0.7330
  829MOL0     C11841   6.892   2.309   1.721  0.7387  0.8637  0.2685
  829MOL0     C11842   6.948   2.376   1.839  0.2643  0.5126 -0.1524
  829MOL0     C11843   6.864   2.351   1.966  0.4507 -0.1660 -0.4879
  829MOL0     C11844   6.952   2.356   2.077 -0.7121 -1.2070  0.4265
  829MOL0     C11845   7.033   2.334   2.173  0.1816 -0.7946  0.3794
  829MOL0     C11846   6.728   2.193   1.343  0.9474 -0.3974  0.8598
  829MOL0     C11847   6.643   2.211   1.231 -0.3239  0.6242 -0.7008
  829MOL0     H11848   6.198   2.282   1.039 -1.8527  2.3908 -0.6935
  829MOL0     H11849   6.047   2.351   0.893  0.0576  0.7989  0.8487
  829MOL0     H11850   6.151   2.509   0.519  0.1322  0.5367  0.6132
  829MOL0     H11851   6.152   2.332   0.452  1.3307 -0.6595  0.8211
  829MOL0     H11852   5.994   2.461   0.308 -0.9918 -4.5807 -0.1376
  829MOL0     H11853   5.902   2.361   0.419 -3.0423  0.2936 -4.9770
  829MOL0     H11854   5.967   2.653   0.452  1.7771 -0.8730  1.5277
  829MOL0     H11855   5.826   2.594   0.358 -0.5821 -1.0822  1.2190
  829MOL0     H11856   5.732   2.494   0.571 -1.6727  0.5320  0.1454
  829MOL0     H11857   5.879   2.539   0.659  1.1574  1.3083 -1.4361
  829MOL0     H11858   5.728   2.763   0.511 -4.1461  1.4625  1.1758
  829MOL0     H11859   5.641   2.680   0.633  0.6418 -1.7625 -0.1186
  829MOL0     H11860   5.852   2.734   0.789  0.6594 -1.3630 -0.5913
  829MOL0     H11861   5.912   2.822   0.658  0.3907 -1.5696  2.0056
  829MOL0     H11862   5.727   2.978   0.649 -1.3695 -2.6999 -1.5334
  829MOL0     H11863   5.630   2.880   0.756 -0.2682 -0.6699  1.3568
  829MOL0     H11864   5.887   2.986   0.871  0.3846  0.6351  1.8149
  829MOL0     H11865   5.756   2.905   0.958  1.3047  1.2150  1.5770
  829MOL0     H11866   5.497   3.072   0.894  1.2272 -1.2993  0.9129
  829MOL0     H11867   5.446   3.393   0.862  3.1621 -0.7079  0.2461
  829MOL0     H11868   5.386   3.292   1.005  0.8763 -1.5005  2.2537
  829MOL0     H11869   5.586   3.511   1.050 -0.2436  0.8876 -1.5426
  829MOL0     H11870   5.491   3.424   1.161 -1.7529  1.9314  0.3651
  829MOL0     H11871   5.280   3.519   1.038  0.0410  0.2072 -3.1227
  829MOL0     H11872   5.396   3.648   0.990  0.1855  2.5141  2.1829
  829MOL0     H11873   5.362   3.572   1.291  2.1165 -1.4009 -0.8002
  829MOL0     H11874   5.273   3.699   1.203  0.6112  0.6587 -4.7290
  829MOL0     H11875   5.671   3.840   1.175  0.5705 -2.4142 -1.4102
  829MOL0     H11876   5.799   4.028   0.914  3.1358 -1.2127  0.4036
  829MOL0     H11877   5.769   4.152   1.043 -0.3057 -0.1219 -2.3860
  829MOL0     H11878   5.832   3.994   1.078 -0.5445  1.7060  2.9983
  829MOL0     H11879   5.561   4.486   0.782  0.0471 -0.4477  0.5970
  829MOL0     H11880   5.638   4.628   0.632 -0.4190 -0.8848  1.3492
  829MOL0     H11881   5.665   4.614   0.415  1.2355  0.4218 -0.7671
  829MOL0     H11882   5.780   4.730   0.343  1.0870  0.5412  0.3128
  829MOL0     H11883   5.889   4.548   0.223  0.6587 -0.5352  0.8601
  829MOL0     H11884   5.767   4.425   0.283  0.5193 -0.6264 -1.5557
  829MOL0     H11885   5.761   4.533   0.046 -1.1770  1.8353 -1.4303
  829MOL0     H11886   5.718   4.683   0.123 -2.3101  0.5620 -0.5417
  829MOL0     H11887   5.529   4.442   0.131  1.6394 -0.5583 -0.6093
  829MOL0     H11888   5.531   4.571   0.246 -3.0314 -1.9087  0.2176
  829MOL0     H11889   5.513   4.601  -0.056  3.0677 -0.2778 -0.0306
  829MOL0     H11890   5.515   4.740   0.057 -0.5965  0.0812  4.2246
  829MOL0     H11891   5.306   4.637   0.169 -1.7526  1.0512 -0.6917
  829MOL0     H11892   5.287   4.700   0.007  0.6599 -0.1355 -0.4021
  829MOL0     H11893   5.320   4.406   0.073 -0.5296  0.2162 -0.9565
  829MOL0     H11894   5.317   4.482  -0.088  1.3540  0.9379  0.3167
  829MOL0     H11895   5.111   4.382  -0.020 -1.7519 -0.1583  0.7123
  829MOL0     H11896   5.093   4.548  -0.068  0.9375 -0.7114  0.1188
  829MOL0     H11897   5.960   4.364   0.535  1.1055  0.4608  2.4671
  829MOL0     H11898   5.868   4.195   0.703  0.9327  0.8804 -0.2147
  829MOL0     H11899   5.293   4.089   0.992 -0.3172 -0.9480 -0.9385
  829MOL0     H11900   5.260   3.903   1.122  0.9179 -3.4364 -2.5527
  829MOL0     H11901   6.337   2.341   0.573 -2.5269  0.5681 -1.0732
  829MOL0     H11902   6.514   2.283   0.728  0.4883 -0.9784 -1.1497
  829MOL0     H11903   6.707   2.535   1.178 -1.8763 -0.2129 -0.3479
  829MOL0     H11904   6.866   2.493   1.375 -1.2935  0.9346  0.0112
  829MOL0     H11905   7.051   2.355   1.582 -0.4511 -2.5213  1.0747
  829MOL0     H11906   6.900   2.451   1.559 -1.4873 -0.3086 -0.7857
  829MOL0     H11907   6.926   2.206   1.731  2.9551  1.2825 -2.0046
  829MOL0     H11908   6.782   2.307   1.716  0.4817  4.9516  0.6006
  829MOL0     H11909   6.953   2.485   1.828  2.0303  0.5458  0.7516
  829MOL0     H11910   7.052   2.346   1.854  0.6904  3.0944  2.8216
  829MOL0     H11911   6.810   2.256   1.966 -0.6581  0.4548 -0.4616
  829MOL0     H11912   6.788   2.429   1.973  0.9108  0.3660 -1.1889
  829MOL0     H11913   7.090   2.322   2.263 -0.1320  0.2378  0.7337
  829MOL0     H11914   6.734   2.095   1.390  2.5938 -0.4454  0.6072
  829MOL0     H11915   6.586   2.125   1.198  0.2173  0.0057 -0.0491
  830MOL0     O11916   1.288   1.596   2.230  0.4181  0.0960 -0.2685
  830MOL0     C11917   1.186   1.634   2.288  1.2246 -0.1714 -0.3602
  830MOL0     O11918   1.182   1.717   2.400  0.6778 -0.2631 -0.5994
  830MOL0     C11919   1.286   1.746   2.484  0.1330 -0.8020  0.5922
  830MOL0     C11920   1.281   1.856   2.559  0.1877  0.0051 -0.6139
  830MOL0     C11921   1.382   1.907   2.640  0.6909  0.5372 -0.0897
  830MOL0     C11922   1.508   1.853   2.628 -0.6250 -0.1285 -0.2841
  830MOL0     O11923   1.619   1.900   2.700 -0.1949  0.4019  0.4609
  830MOL0     C11924   1.684   1.996   2.619 -0.2827  0.4066  0.7560
  830MOL0     C11925   1.780   2.078   2.699 -0.0289 -0.3581 -0.1696
  830MOL0     C11926   1.888   2.149   2.614 -0.2983 -0.0353 -0.8118
  830MOL0     C11927   1.851   2.240   2.494  0.1841  0.2259  0.5695
  830MOL0     C11928   1.977   2.310   2.435  0.0350 -1.0829 -0.4752
  830MOL0     C11929   1.953   2.379   2.297  0.1520 -0.0261  0.2476
  830MOL0     C11930   1.885   2.513   2.299 -0.5466 -0.2094 -0.5179
  830MOL0     C11931   1.942   2.592   2.186 -0.6227 -0.5964 -0.5373
  830MOL0     N11932   1.890   2.540   2.062 -0.1065  0.4341  0.5256
  830MOL0     C11933   1.760   2.529   2.026 -0.4311  1.2438 -0.3508
  830MOL0     C11934   1.754   2.476   1.905 -0.3944  0.4082 -0.2469
  830MOL0     C11935   1.632   2.477   1.815 -0.4071  0.0616 -0.0847
  830MOL0     C11936   1.509   2.574   1.829 -0.3254 -1.1147 -0.1334
  830MOL0     C11937   1.419   2.522   1.933 -0.4842  0.5811  0.6499
  830MOL0     C11938   1.333   2.626   2.004  0.2065 -0.2756  0.3593
  830MOL0     O11939   1.408   2.712   2.101  0.3445  0.1279  0.4134
  830MOL0     C11940   1.443   2.652   2.219  0.0450  0.2793  0.4207
  830MOL0     C11941   1.421   2.524   2.270 -0.2280  0.4116 -0.3974
  830MOL0     C11942   1.470   2.479   2.398  0.6153 -0.3020 -0.2002
  830MOL0     C11943   1.452   2.330   2.434 -0.2535  1.4943 -0.2597
  830MOL0     C11944   1.549   2.567   2.478  0.3804 -0.6558  0.1881
  830MOL0     C11945   1.607   2.546   2.608  0.5273  0.2392 -0.5824
  830MOL0     O11946   1.714   2.628   2.650 -0.4069 -0.4308 -0.4966
  830MOL0     C11947   1.753   2.624   2.773 -0.4637  0.1308  1.1348
  830MOL0     C11948   1.687   2.691   2.870 -0.2690 -0.5789  0.0760
  830MOL0     C11949   1.751   2.710   2.993 -0.1479  0.2171  0.9089
  830MOL0     C11950   1.871   2.640   3.022  0.0132  0.6457  0.5895
  830MOL0     O11951   1.921   2.674   3.151 -0.0963 -0.1294  0.5660
  830MOL0     C11952   2.033   2.588   3.191 -0.3278 -0.4949 -0.2968
  830MOL0     C11953   2.039   2.618   3.337 -0.4433  0.5051 -1.0588
  830MOL0     C11954   2.100   2.751   3.367  0.2129 -0.0898  0.3878
  830MOL0     C11955   2.141   2.770   3.507 -0.6490  0.8300  0.2969
  830MOL0     C11956   2.220   2.901   3.539  0.2981  1.1045 -0.7192
  830MOL0     C11957   2.261   2.934   3.681 -1.0658  0.8850 -0.4612
  830MOL0     C11958   2.389   2.854   3.716 -0.6425 -0.4813 -0.1115
  830MOL0     C11959   2.426   2.894   3.864 -0.3238  0.2898 -0.8675
  830MOL0    Cl11960   2.301   2.846   3.978  0.0623  0.1775 -0.4085
  830MOL0     C11961   1.927   2.556   2.919  0.1252  0.0314  0.4957
  830MOL0     C11962   1.871   2.557   2.793  0.5799  0.2906  0.0893
  830MOL0     O11963   1.562   2.459   2.680 -0.7132 -0.0097 -0.1427
  830MOL0     C11964   1.570   2.693   2.423  0.0091  0.3783 -0.2550
  830MOL0     C11965   1.521   2.733   2.303  0.8930  0.2767  0.5885
  830MOL0     N11966   1.881   2.433   1.874  0.2951  0.1065  0.4627
  830MOL0     N11967   1.965   2.475   1.965 -0.3396  0.0695  0.2832
  830MOL0     C11968   1.513   1.733   2.557 -0.6601  0.4095 -0.0594
  830MOL0     C11969   1.407   1.681   2.492  0.3919  0.0790 -0.2117
  830MOL0     C11970   1.060   1.610   2.217 -0.4963 -0.0996 -0.8921
  830MOL0     C11971   0.937   1.625   2.289 -0.5171 -1.4249  0.2284
  830MOL0     C11972   0.809   1.615   2.225  0.3961 -0.4415  0.1760
  830MOL0     C11973   0.807   1.589   2.093 -0.1090  0.7074  0.3536
  830MOL0     O11974   0.677   1.591   2.031 -0.0663 -0.2937  0.3846
  830MOL0     C11975   0.621   1.462   2.028  0.0076 -0.3607  0.5284
  830MOL0     C11976   0.642   1.411   1.879  0.1496  1.2021 -0.8790
  830MOL0     C11977   0.562   1.495   1.782  0.3914 -0.6483 -0.2138
  830MOL0     C11978   0.603   1.492   1.631 -0.3748 -0.0627 -0.1007
  830MOL0     C11979   0.555   1.369   1.580 -0.1295 -0.4942  0.2916
  830MOL0     C11980   0.529   1.270   1.517 -0.4475  0.1621  0.3422
  830MOL0     C11981   0.926   1.567   2.022 -0.6580  0.9550 -0.2428
  830MOL0     C11982   1.050   1.568   2.077 -0.1297  0.2483 -0.3586
  830MOL0     H11983   1.177   1.889   2.562 -0.1814 -1.1437  0.6208
  830MOL0     H11984   1.353   1.988   2.706 -2.5507  0.1819 -0.9129
  830MOL0     H11985   1.728   1.942   2.534 -1.7075  0.1966  0.1242
  830MOL0     H11986   1.612   2.071   2.584 -1.4308 -0.6700  0.7361
  830MOL0     H11987   1.726   2.147   2.765 -0.5095 -2.2043  1.4462
  830MOL0     H11988   1.823   2.003   2.766 -1.8360 -1.0137  0.3232
  830MOL0     H11989   1.945   2.205   2.689 -3.1044  0.1023  1.3644
  830MOL0     H11990   1.943   2.068   2.564  0.2417  0.4756 -1.0520
  830MOL0     H11991   1.788   2.190   2.420  0.5247 -0.7081  0.8922
  830MOL0     H11992   1.794   2.325   2.532 -0.2500  1.2702 -2.2049
  830MOL0     H11993   2.016   2.383   2.507 -0.6705 -0.9670 -0.2004
  830MOL0     H11994   2.056   2.235   2.429  0.4880 -0.7624  1.0639
  830MOL0     H11995   2.047   2.396   2.244 -0.3127  2.7014  0.1695
  830MOL0     H11996   1.909   2.308   2.227  2.1589 -1.3606  0.2645
  830MOL0     H11997   1.778   2.495   2.293 -0.1773 -2.3500 -2.2948
  830MOL0     H11998   1.903   2.556   2.398  0.9621 -0.5849 -0.5956
  830MOL0     H11999   2.051   2.595   2.188 -0.6309 -0.6461  1.0105
  830MOL0     H12000   1.923   2.699   2.202  0.5738 -0.3401 -0.7289
  830MOL0     H12001   1.673   2.555   2.086 -1.2853  0.8321 -1.3704
  830MOL0     H12002   1.696   2.518   1.736  2.2047  0.1516  1.9619
  830MOL0     H12003   1.616   2.370   1.796  2.2172 -0.8711  2.2906
  830MOL0     H12004   1.452   2.584   1.737 -0.1432 -2.1998 -0.3784
  830MOL0     H12005   1.545   2.672   1.862 -0.2876 -2.0499  2.9787
  830MOL0     H12006   1.474   2.482   2.018 -1.5592  2.1199  2.1503
  830MOL0     H12007   1.369   2.434   1.891  3.3364 -2.1695  1.2860
  830MOL0     H12008   1.249   2.574   2.050 -0.5424  0.1020 -0.5495
  830MOL0     H12009   1.293   2.703   1.937  0.1403  0.6333  1.4000
  830MOL0     H12010   1.366   2.450   2.214 -0.4432 -2.8816  3.6646
  830MOL0     H12011   1.540   2.282   2.477 -0.7886  1.2099  0.5531
  830MOL0     H12012   1.373   2.318   2.509  1.0747 -1.8023  0.8306
  830MOL0     H12013   1.427   2.260   2.353  0.6224  0.0827  0.6388
  830MOL0     H12014   1.600   2.746   2.834  1.5733  0.9498 -2.3323
  830MOL0     H12015   1.715   2.788   3.059  0.3431 -2.9484  5.3960
  830MOL0     H12016   2.011   2.481   3.185 -0.8148 -0.4396  0.3697
  830MOL0     H12017   2.134   2.607   3.154  1.2920 -0.6227  3.6159
  830MOL0     H12018   1.938   2.615   3.381 -1.2801 -1.4130 -2.9345
  830MOL0     H12019   2.093   2.538   3.389 -2.2836  0.7968  1.4783
  830MOL0     H12020   2.039   2.832   3.325  1.5197  1.3271  1.1587
  830MOL0     H12021   2.193   2.751   3.310  0.3860  0.2339  0.6687
  830MOL0     H12022   2.056   2.765   3.576 -0.3847  0.8889  0.6308
  830MOL0     H12023   2.218   2.694   3.523  3.8575  3.9910 -3.6551
  830MOL0     H12024   2.159   2.985   3.504  2.0756  2.4062 -0.8404
  830MOL0     H12025   2.304   2.883   3.472 -2.0406 -1.2771 -3.2415
  830MOL0     H12026   2.279   3.042   3.676 -3.7310  1.3822 -0.5128
  830MOL0     H12027   2.178   2.911   3.747  0.0051 -1.6974  0.0986
  830MOL0     H12028   2.474   2.881   3.651 -1.6025  3.5113 -0.0040
  830MOL0     H12029   2.370   2.747   3.716  0.4780 -0.8703  4.4762
  830MOL0     H12030   2.452   3.000   3.868  1.9829 -0.2678  0.4797
  830MOL0     H12031   2.514   2.838   3.897 -1.0271  0.0868  0.7591
  830MOL0     H12032   2.020   2.502   2.933  0.7896  1.3346  1.3020
  830MOL0     H12033   1.909   2.496   2.712  2.6230 -0.0262  1.2086
  830MOL0     H12034   1.617   2.777   2.475 -1.0135  2.2910 -2.2613
  830MOL0     H12035   1.535   2.835   2.269  0.5122  0.9507  2.3300
  830MOL0     H12036   1.607   1.679   2.553  0.0661  1.5415  1.2604
  830MOL0     H12037   1.430   1.598   2.426 -0.4128  0.8040 -1.4455
  830MOL0     H12038   0.939   1.648   2.395 -0.4612 -4.0366  0.8623
  830MOL0     H12039   0.717   1.631   2.282  0.5339  0.1266  0.2518
  830MOL0     H12040   0.671   1.393   2.097  0.3385 -1.4830 -0.7965
  830MOL0     H12041   0.514   1.462   2.051 -0.8181  3.0216 -2.4813
  830MOL0     H12042   0.618   1.304   1.869  2.3578  0.7933 -2.7593
  830MOL0     H12043   0.750   1.419   1.861  0.4087 -0.9633 -0.5689
  830MOL0     H12044   0.589   1.598   1.809  3.4341 -1.2177 -0.6406
  830MOL0     H12045   0.454   1.498   1.799  0.4545  1.7367  0.1675
  830MOL0     H12046   0.710   1.512   1.617 -0.8903  0.9964 -3.4896
  830MOL0     H12047   0.557   1.576   1.578 -0.4581  0.0761  0.1844
  830MOL0     H12048   0.510   1.171   1.482 -1.3124  1.4737 -3.3190
  830MOL0     H12049   0.929   1.540   1.916  0.5983 -0.9693  0.2321
  830MOL0     H12050   1.144   1.564   2.023 -0.4235  2.6939 -1.1776
  831MOL0     O12051  10.026  11.237   0.207 -0.4450  0.4990  0.0512
  831MOL0     C12052  10.020  11.323   0.118 -0.4625  0.5672 -1.1021
  831MOL0     O12053   9.987  11.300  -0.010 -0.4632  0.1613  1.2665
  831MOL0     C12054   9.931  11.179  -0.041  0.6013  0.9810 -0.4762
  831MOL0     C12055  10.016  11.075  -0.078  0.3688  1.2416  0.5895
  831MOL0     C12056   9.958  10.948  -0.098  0.1608  0.2537 -1.3338
  831MOL0     C12057   9.814  10.921  -0.090 -0.1039 -0.0610 -0.2980
  831MOL0     O12058   9.753  10.802  -0.116  0.5019  0.0863  0.5665
  831MOL0     C12059   9.826  10.688  -0.085 -0.6686 -0.2099 -0.3186
  831MOL0     C12060   9.780  10.562  -0.137 -0.0175 -0.0630 -0.6334
  831MOL0     C12061   9.628  10.549  -0.082 -0.4854 -0.0083  0.4871
  831MOL0     C12062   9.557  10.425  -0.139 -0.2615  0.5517  0.3171
  831MOL0     C12063   9.405  10.438  -0.138 -0.7652  0.4407  0.1091
  831MOL0     C12064   9.334  10.407  -0.006 -0.1751 -0.0732 -0.0212
  831MOL0     C12065   9.185  10.432  -0.017  0.0419 -0.1618 -0.8604
  831MOL0     C12066   9.118  10.332  -0.113 -0.5807 -0.0022  0.8328
  831MOL0     N12067   9.138  10.187  -0.085 -0.0357 -0.8645  0.4627
  831MOL0     C12068   9.070  10.112   0.011 -0.3003 -0.8439  0.0887
  831MOL0     C12069   9.132   9.989  -0.012  0.5893  0.4773 -0.7538
  831MOL0     C12070   9.079   9.877   0.075 -0.6147  0.0220 -0.5925
  831MOL0     C12071   9.076   9.745  -0.011 -0.1511 -0.1417 -0.3846
  831MOL0     C12072   9.007   9.627   0.057 -1.2399 -1.0862 -1.5538
  831MOL0     C12073   9.109   9.524   0.115 -0.0145  0.3376 -0.0213
  831MOL0     O12074   9.032   9.420   0.185  0.1218  0.1763  0.5175
  831MOL0     C12075   9.104   9.318   0.250 -0.0377 -0.4430 -0.3973
  831MOL0     C12076   9.243   9.310   0.252  0.0258  0.0685  0.2043
  831MOL0     C12077   9.310   9.215   0.333 -0.3999  0.2943  0.5438
  831MOL0     C12078   9.460   9.199   0.308  0.2795  0.4799  0.6162
  831MOL0     C12079   9.231   9.131   0.419 -0.5568 -0.2947 -0.3117
  831MOL0     C12080   9.292   9.035   0.523  0.2145 -0.3403 -0.1465
  831MOL0     O12081   9.211   8.974   0.620 -0.0235 -1.5119  0.4679
  831MOL0     C12082   9.274   8.906   0.728 -0.2100  0.2289  1.4576
  831MOL0     C12083   9.202   8.900   0.847  0.4276 -0.2794 -0.1316
  831MOL0     C12084   9.250   8.834   0.965 -0.6918 -0.4247 -0.5208
  831MOL0     C12085   9.368   8.778   0.963  0.4984 -0.8804  0.7981
  831MOL0     O12086   9.435   8.734   1.075 -0.6473 -0.9975  0.0305
  831MOL0     C12087   9.371   8.698   1.197  0.3894 -0.5114  0.9294
  831MOL0     C12088   9.475   8.635   1.283 -0.2637  0.6176  0.8147
  831MOL0     C12089   9.430   8.604   1.427 -0.4863  0.1707 -0.1489
  831MOL0     C12090   9.412   8.729   1.507  0.7803  0.6183 -0.1215
  831MOL0     C12091   9.376   8.693   1.654 -0.7874  0.6286 -0.7314
  831MOL0     C12092   9.374   8.807   1.757  0.2168 -0.5846 -0.4428
  831MOL0     C12093   9.415   8.745   1.893 -0.0221 -0.9887  0.2484
  831MOL0     C12094   9.325   8.642   1.961 -0.4052 -0.5091  0.2540
  831MOL0    Cl12095   9.152   8.708   1.989 -0.2513 -0.0746 -0.1122
  831MOL0     C12096   9.439   8.767   0.840  0.7243 -0.1036 -0.4991
  831MOL0     C12097   9.383   8.816   0.720  0.5790 -0.1299 -0.1903
  831MOL0     O12098   9.416   9.036   0.538  0.4373  0.6037  0.9807
  831MOL0     C12099   9.097   9.141   0.422  0.0994  0.7104 -0.0205
  831MOL0     C12100   9.036   9.236   0.340 -0.1843  0.7978 -0.7254
  831MOL0     N12101   9.230  10.001  -0.104 -0.1392 -0.3635  0.1807
  831MOL0     N12102   9.234  10.120  -0.158  0.2431  0.0803  0.4910
  831MOL0     C12103   9.733  11.027  -0.065 -1.3583 -0.6962 -0.1768
  831MOL0     C12104   9.791  11.151  -0.029  0.4713 -0.1862  0.4457
  831MOL0     C12105  10.045  11.458   0.155 -1.5043 -0.3863 -0.8542
  831MOL0     C12106  10.012  11.567   0.073 -1.0447  0.4898 -0.0071
  831MOL0     C12107  10.048  11.694   0.115  1.2197  0.2767  0.1514
  831MOL0     C12108  10.112  11.724   0.231  0.7782 -0.1412  0.2661
  831MOL0     O12109  10.151  11.841   0.291 -0.1761 -0.0318  0.2911
  831MOL0     C12110  10.115  11.962   0.227  0.4769  0.5620 -1.6480
  831MOL0     C12111  10.152  12.076   0.317 -0.1991  0.0884 -0.4422
  831MOL0     C12112  10.299  12.130   0.301  0.2358  0.4592  0.3920
  831MOL0     C12113  10.351  12.204   0.426 -0.2924  0.4155  0.0285
  831MOL0     C12114  10.260  12.321   0.451 -0.3900  0.5936 -0.5590
  831MOL0     C12115  10.175  12.408   0.467  0.4597  0.2555 -0.8894
  831MOL0     C12116  10.145  11.623   0.311 -0.3915 -0.2085 -0.9556
  831MOL0     C12117  10.126  11.486   0.278 -0.0580 -0.1685 -0.0064
  831MOL0     H12118  10.122  11.095  -0.088  0.8953 -1.7116 -0.9311
  831MOL0     H12119  10.035  10.873  -0.118 -0.0932 -0.0629 -1.1371
  831MOL0     H12120   9.926  10.694  -0.129 -1.5191 -1.9112 -2.7032
  831MOL0     H12121   9.823  10.673   0.024 -0.1293 -0.2640 -0.3053
  831MOL0     H12122   9.772  10.571  -0.246  0.7560  2.7715 -0.5518
  831MOL0     H12123   9.839  10.474  -0.113 -3.6114 -2.8264 -1.1537
  831MOL0     H12124   9.627  10.536   0.027 -3.5668 -3.2061  0.2616
  831MOL0     H12125   9.573  10.640  -0.105 -2.7289 -1.2310  0.6698
  831MOL0     H12126   9.589  10.397  -0.240 -0.7237 -3.1981  1.0654
  831MOL0     H12127   9.583  10.343  -0.072  1.2365  1.6845  1.2189
  831MOL0     H12128   9.356  10.529  -0.174 -1.1654 -0.6741 -2.3667
  831MOL0     H12129   9.366  10.353  -0.195 -2.1247 -1.1985  3.2318
  831MOL0     H12130   9.365  10.308   0.028  0.1033 -0.8747 -2.4177
  831MOL0     H12131   9.355  10.491   0.060 -2.5280  0.8777 -0.3735
  831MOL0     H12132   9.146  10.420   0.084 -3.9447 -0.3988 -2.2644
  831MOL0     H12133   9.165  10.536  -0.046  1.4935  0.3466 -0.1139
  831MOL0     H12134   9.144  10.358  -0.215  0.9637  2.4661  1.7767
  831MOL0     H12135   9.008  10.336  -0.114 -0.7692 -2.7574 -0.8208
  831MOL0     H12136   8.981  10.135   0.069 -0.7941 -0.5374 -0.7746
  831MOL0     H12137   9.145   9.860   0.161 -1.2317  0.4098 -0.0352
  831MOL0     H12138   8.981   9.904   0.115  0.2613  1.8382  0.4287
  831MOL0     H12139   9.176   9.724  -0.051  0.9166 -1.1761  2.5834
  831MOL0     H12140   9.016   9.772  -0.099 -0.9635  3.0547  1.0010
  831MOL0     H12141   8.959   9.575  -0.026  2.5382 -2.0234 -3.3826
  831MOL0     H12142   8.933   9.643   0.136 -0.2835 -0.4072 -0.7706
  831MOL0     H12143   9.183   9.570   0.181  0.3553  1.7901 -1.3786
  831MOL0     H12144   9.158   9.477   0.029  1.1260 -0.7419  1.1686
  831MOL0     H12145   9.315   9.370   0.198 -2.0639  0.3822 -2.4344
  831MOL0     H12146   9.483   9.104   0.260  2.0800 -0.1077  2.4770
  831MOL0     H12147   9.498   9.274   0.237 -0.4983  1.6425  1.3884
  831MOL0     H12148   9.527   9.214   0.393  2.3418  3.1708 -1.2812
  831MOL0     H12149   9.108   8.954   0.846  1.5583  2.3201  4.2594
  831MOL0     H12150   9.185   8.838   1.053  1.0160  1.6756  0.7415
  831MOL0     H12151   9.338   8.794   1.238  0.8445 -0.0791  0.3082
  831MOL0     H12152   9.285   8.635   1.176 -1.3420  1.3434  2.0803
  831MOL0     H12153   9.508   8.550   1.221  0.1455  3.6557 -3.5836
  831MOL0     H12154   9.560   8.703   1.279 -1.7603  2.5266 -0.2913
  831MOL0     H12155   9.512   8.540   1.462 -2.1516 -1.4002  1.0848
  831MOL0     H12156   9.337   8.547   1.438  0.6012 -1.9683 -1.3655
  831MOL0     H12157   9.505   8.787   1.501 -0.4877  2.6607 -1.4938
  831MOL0     H12158   9.337   8.795   1.464 -0.6680  0.0880  1.5027
  831MOL0     H12159   9.463   8.632   1.680 -0.5396  0.3597 -2.0763
  831MOL0     H12160   9.282   8.640   1.666 -0.4442 -0.4352 -2.3515
  831MOL0     H12161   9.447   8.887   1.744  0.9488 -1.2271 -0.3768
  831MOL0     H12162   9.276   8.853   1.769 -0.0020 -0.9132 -0.9398
  831MOL0     H12163   9.432   8.832   1.956  2.5805 -1.1886 -0.0676
  831MOL0     H12164   9.519   8.715   1.876  0.5750  2.3906 -3.2435
  831MOL0     H12165   9.364   8.610   2.058 -0.4386 -0.3671  0.3137
  831MOL0     H12166   9.302   8.558   1.894 -0.7031 -0.1846 -0.0525
  831MOL0     H12167   9.532   8.712   0.857  2.0262  2.3344  0.8266
  831MOL0     H12168   9.446   8.802   0.632 -0.4424 -0.8187 -0.8422
  831MOL0     H12169   9.036   9.080   0.489  1.5226  0.3085  0.9615
  831MOL0     H12170   8.929   9.247   0.337 -0.3051  1.3481  2.2039
  831MOL0     H12171   9.625  11.029  -0.062 -1.3503  1.6205  0.6879
  831MOL0     H12172   9.729  11.236  -0.004  1.4875  0.5001  0.6662
  831MOL0     H12173   9.959  11.566  -0.022  1.2761  1.7239 -1.4236
  831MOL0     H12174  10.015  11.785   0.066 -0.1748 -0.2652  0.0290
  831MOL0     H12175  10.160  11.960   0.127  0.1416 -2.0079 -1.8073
  831MOL0     H12176  10.008  11.980   0.214 -0.3873 -2.3923  0.4302
  831MOL0     H12177  10.139  12.040   0.419 -0.2176  3.1360  0.7396
  831MOL0     H12178  10.080  12.157   0.301  0.1247  0.3586 -0.5223
  831MOL0     H12179  10.308  12.195   0.213 -1.5719 -1.2569 -1.1568
  831MOL0     H12180  10.363  12.042   0.285 -1.4610 -1.1954  2.1378
  831MOL0     H12181  10.452  12.240   0.403 -0.5587  0.0330 -1.8516
  831MOL0     H12182  10.341  12.137   0.512 -2.3559 -1.7503 -1.7646
  831MOL0     H12183  10.112  12.479   0.518  1.9689 -0.7477  2.6900
  831MOL0     H12184  10.213  11.651   0.391 -1.9932  4.4360 -0.9162
  831MOL0     H12185  10.158  11.414   0.353 -2.7962 -2.2197 -0.6465
  832MOL0     O12186   4.332   7.184   6.310 -0.6820 -0.5392  0.9547
  832MOL0     C12187   4.321   7.085   6.239  0.6404  0.1199 -1.5032
  832MOL0     O12188   4.385   6.959   6.263  0.5719 -0.5950 -0.1538
  832MOL0     C12189   4.469   6.946   6.372  0.0035  1.1696 -0.6203
  832MOL0     C12190   4.601   6.927   6.352  0.4059 -0.8949  1.0132
  832MOL0     C12191   4.685   6.907   6.460  0.3844  0.1947  0.8717
  832MOL0     C12192   4.640   6.921   6.591 -0.4563  0.3206 -0.3102
  832MOL0     O12193   4.729   6.896   6.695 -0.3082  0.0446 -0.2532
  832MOL0     C12194   4.834   6.985   6.712  0.2818  0.9861  0.9607
  832MOL0     C12195   4.978   6.927   6.688  0.0775  0.3122 -0.0288
  832MOL0     C12196   5.078   6.904   6.802  0.8231  0.7654 -0.6105
  832MOL0     C12197   5.119   7.027   6.880  0.2286  0.1672 -0.0043
  832MOL0     C12198   5.248   7.009   6.968  0.2998 -0.3764  0.0804
  832MOL0     C12199   5.233   6.917   7.094 -0.7362 -0.2454  1.0212
  832MOL0     C12200   5.366   6.871   7.162 -0.6183 -0.0357 -1.0507
  832MOL0     C12201   5.458   6.770   7.090 -0.4024  0.4505 -0.3736
  832MOL0     N12202   5.410   6.629   7.107 -0.2048 -0.6542 -0.1406
  832MOL0     C12203   5.334   6.579   7.010  0.6851  0.1231 -0.3702
  832MOL0     C12204   5.293   6.462   7.065 -0.1175 -0.8723  0.0360
  832MOL0     C12205   5.207   6.369   6.990  0.3921 -0.7584  0.0298
  832MOL0     C12206   5.085   6.430   6.906 -0.5106 -0.0400 -0.8267
  832MOL0     C12207   5.135   6.495   6.778 -0.4722 -0.0331  1.4890
  832MOL0     C12208   5.015   6.511   6.680 -0.2117 -0.4184  0.1601
  832MOL0     O12209   5.059   6.518   6.542 -0.1051 -0.0331 -0.3803
  832MOL0     C12210   4.967   6.565   6.450 -0.4344 -0.4340 -0.9501
  832MOL0     C12211   4.833   6.575   6.478 -0.1975 -0.6793  0.0545
  832MOL0     C12212   4.742   6.594   6.378  0.3776 -0.5742 -0.2846
  832MOL0     C12213   4.600   6.600   6.440 -0.2680 -0.4888 -1.0221
  832MOL0     C12214   4.785   6.616   6.242 -1.2978  0.8266  1.0292
  832MOL0     C12215   4.680   6.637   6.131 -0.6184 -0.2204  0.4444
  832MOL0     O12216   4.547   6.613   6.160  0.4510 -0.1221 -0.4191
  832MOL0     C12217   4.461   6.591   6.055  0.5278  0.3836  0.5525
  832MOL0     C12218   4.411   6.461   6.028 -0.1363 -0.8818  0.4078
  832MOL0     C12219   4.304   6.451   5.942  0.1036  0.5576 -0.0689
  832MOL0     C12220   4.255   6.566   5.876  0.6815 -0.2275  0.3726
  832MOL0     O12221   4.155   6.553   5.775  0.8682  0.6148 -0.8485
  832MOL0     C12222   4.040   6.479   5.809  0.0860 -0.7103  0.1882
  832MOL0     C12223   3.928   6.515   5.719  0.0612 -0.1663 -0.7793
  832MOL0     C12224   3.851   6.636   5.773 -0.3369 -0.9037  0.1918
  832MOL0     C12225   3.756   6.704   5.671 -0.1036  0.0059  0.8987
  832MOL0     C12226   3.675   6.828   5.718 -0.4390  0.6136 -0.0929
  832MOL0     C12227   3.591   6.894   5.605  0.4282 -0.0188 -0.1061
  832MOL0     C12228   3.479   6.982   5.666 -0.1436 -0.3981 -0.6386
  832MOL0     C12229   3.395   7.065   5.565  0.6918  0.5767  0.3254
  832MOL0    Cl12230   3.489   7.188   5.473  0.6642  0.4431  0.0370
  832MOL0     C12231   4.303   6.696   5.901 -0.0504 -0.1165 -0.0211
  832MOL0     C12232   4.411   6.708   5.992  0.5264  0.4590  0.6669
  832MOL0     O12233   4.719   6.660   6.018  0.2276 -0.2808  0.2196
  832MOL0     C12234   4.921   6.629   6.225  0.7393 -0.0499  0.1145
  832MOL0     C12235   5.008   6.601   6.329 -0.4912  0.3748  0.0458
  832MOL0     N12236   5.342   6.449   7.191 -0.3468 -0.9302  0.6652
  832MOL0     N12237   5.423   6.548   7.211  0.3261 -0.8509  0.5026
  832MOL0     C12238   4.505   6.947   6.604  0.6304 -0.6619 -0.7314
  832MOL0     C12239   4.417   6.967   6.503 -0.8440 -0.2655  0.1362
  832MOL0     C12240   4.237   7.084   6.114 -0.4038 -1.0060  0.0299
  832MOL0     C12241   4.174   6.963   6.081 -0.6135  0.3991 -1.1683
  832MOL0     C12242   4.095   6.960   5.976 -0.6173 -0.6379  1.0120
  832MOL0     C12243   4.070   7.064   5.894 -0.6756 -1.0617  0.6926
  832MOL0     O12244   3.974   7.045   5.795 -1.0723  0.4191 -0.2390
  832MOL0     C12245   3.959   7.156   5.695  0.6292 -0.1083  1.3480
  832MOL0     C12246   3.849   7.236   5.751  0.4000 -1.2074 -0.2693
  832MOL0     C12247   3.843   7.371   5.689  0.0896  0.7348  0.3188
  832MOL0     C12248   3.746   7.467   5.770 -0.5786 -0.2460  0.5187
  832MOL0     C12249   3.612   7.470   5.705 -0.0934  0.0840  0.4395
  832MOL0     C12250   3.511   7.462   5.634 -0.8340 -0.6165  1.0459
  832MOL0     C12251   4.147   7.182   5.918 -0.3038 -0.4409  0.1461
  832MOL0     C12252   4.227   7.198   6.027 -0.0182 -0.5238  0.4767
  832MOL0     H12253   4.627   6.900   6.250 -0.4540 -0.2991  0.6259
  832MOL0     H12254   4.792   6.891   6.447  1.2086  1.4486  4.6193
  832MOL0     H12255   4.813   7.066   6.641 -0.2928  2.4163  2.6698
  832MOL0     H12256   4.823   7.036   6.809 -1.3553  0.1948  1.2350
  832MOL0     H12257   4.967   6.844   6.618 -1.8719  1.5729 -1.3082
  832MOL0     H12258   5.032   6.994   6.620  1.3088  0.4834  1.0692
  832MOL0     H12259   5.039   6.823   6.863 -0.8998  2.2689  0.3928
  832MOL0     H12260   5.172   6.869   6.758  1.1671 -0.8355  1.2624
  832MOL0     H12261   5.119   7.119   6.821 -0.5674  0.3597  0.2718
  832MOL0     H12262   5.038   7.054   6.949  1.8677 -1.2262  2.6200
  832MOL0     H12263   5.324   6.967   6.901 -0.5089 -0.7671 -0.6116
  832MOL0     H12264   5.292   7.106   6.996  1.4010  0.0393 -2.7514
  832MOL0     H12265   5.169   6.960   7.172 -0.8050 -2.4617  2.2737
  832MOL0     H12266   5.179   6.829   7.059  2.1778 -0.5197 -3.6358
  832MOL0     H12267   5.422   6.963   7.179  0.2136 -0.7859  0.6225
  832MOL0     H12268   5.330   6.836   7.260 -0.2778  0.3694 -0.7778
  832MOL0     H12269   5.560   6.777   7.131  0.2562 -1.0607 -1.6304
  832MOL0     H12270   5.469   6.796   6.984  0.4960 -2.1221 -0.9994
  832MOL0     H12271   5.318   6.612   6.908  0.1467 -2.1141 -1.0649
  832MOL0     H12272   5.271   6.314   6.920 -3.1202 -5.4615  0.0245
  832MOL0     H12273   5.168   6.304   7.069 -1.6617  1.6244  1.1159
  832MOL0     H12274   5.038   6.509   6.965  1.0998  0.6116 -0.3788
  832MOL0     H12275   5.011   6.352   6.887 -3.0373  1.7095  1.2252
  832MOL0     H12276   5.201   6.423   6.730 -3.6570 -1.2641 -1.3846
  832MOL0     H12277   5.176   6.595   6.794 -4.0428  1.5443  1.7413
  832MOL0     H12278   4.953   6.596   6.709  0.5282  0.6981 -1.3700
  832MOL0     H12279   4.945   6.427   6.685 -0.4970 -0.5735 -3.4541
  832MOL0     H12280   4.795   6.564   6.579 -3.1239 -1.3919 -1.0344
  832MOL0     H12281   4.606   6.648   6.538 -2.4158  1.6599 -1.8505
  832MOL0     H12282   4.541   6.671   6.381  3.1688  2.6986 -0.9816
  832MOL0     H12283   4.548   6.504   6.434  1.4805 -1.6622  0.9971
  832MOL0     H12284   4.453   6.378   6.083  0.1604 -0.5782  0.6480
  832MOL0     H12285   4.272   6.358   5.898 -2.4920  0.9256  0.8830
  832MOL0     H12286   4.054   6.370   5.816 -2.2155 -0.9918  1.4644
  832MOL0     H12287   4.015   6.504   5.913 -1.1875 -2.1270  0.2733
  832MOL0     H12288   3.955   6.528   5.614  0.2873 -0.2205 -0.7273
  832MOL0     H12289   3.859   6.430   5.720 -1.4621  0.9930 -2.3301
  832MOL0     H12290   3.913   6.710   5.826  0.1793 -1.9230  1.0552
  832MOL0     H12291   3.793   6.587   5.853  1.7242 -0.8000  1.8488
  832MOL0     H12292   3.811   6.735   5.582 -0.6659  2.4447  1.3227
  832MOL0     H12293   3.679   6.631   5.647 -1.1882  0.4347  2.8635
  832MOL0     H12294   3.747   6.906   5.745 -0.2097  0.5985 -0.6491
  832MOL0     H12295   3.613   6.811   5.807 -0.6557  1.4383 -0.0731
  832MOL0     H12296   3.649   6.958   5.538  1.3894 -0.4458  0.2957
  832MOL0     H12297   3.550   6.806   5.554  0.3886 -1.5629  2.4110
  832MOL0     H12298   3.517   7.052   5.740  3.3914 -0.0388 -2.5545
  832MOL0     H12299   3.406   6.914   5.711  1.3030 -2.1198 -0.7656
  832MOL0     H12300   3.315   7.119   5.617 -0.1511  1.7437 -2.0192
  832MOL0     H12301   3.357   7.000   5.486  2.0703 -0.5134  0.5270
  832MOL0     H12302   4.260   6.787   5.861 -0.6465  0.2907  1.4577
  832MOL0     H12303   4.438   6.813   6.003 -0.7244  0.9334 -0.5501
  832MOL0     H12304   4.960   6.650   6.126 -2.2518  2.9016 -0.6261
  832MOL0     H12305   5.110   6.603   6.291 -0.7619  0.2559 -0.7206
  832MOL0     H12306   4.474   6.962   6.707 -2.3230 -0.4356 -1.5665
  832MOL0     H12307   4.316   6.989   6.534 -0.1133  1.6166  1.3916
  832MOL0     H12308   4.187   6.877   6.146 -2.0948 -0.2381 -1.6875
  832MOL0     H12309   4.040   6.867   5.961 -3.4748  0.7809  2.0598
  832MOL0     H12310   4.052   7.208   5.672  0.3188  0.5272  1.5143
  832MOL0     H12311   3.925   7.113   5.601  3.1186 -0.2589  0.4542
  832MOL0     H12312   3.864   7.248   5.858 -0.5862 -1.4274 -0.0975
  832MOL0     H12313   3.749   7.192   5.739 -1.0728  0.8505  3.0956
  832MOL0     H12314   3.813   7.362   5.584 -3.2678  0.5835  1.1624
  832MOL0     H12315   3.942   7.417   5.695  0.8568 -0.8336  0.0114
  832MOL0     H12316   3.791   7.565   5.785  0.0592 -0.3550 -0.5821
  832MOL0     H12317   3.721   7.436   5.871  0.3790  3.8133  2.2120
  832MOL0     H12318   3.426   7.466   5.568 -0.6489  0.2020  0.8467
  832MOL0     H12319   4.137   7.272   5.858  1.5303 -0.0119  0.4089
  832MOL0     H12320   4.279   7.292   6.044 -1.9872  0.5144  1.1807
  833MOL0     O12321   3.467   4.113   9.534 -0.5164  0.6428  0.7712
  833MOL0     C12322   3.562   4.197   9.543  1.4030 -0.0161  0.4203
  833MOL0     O12323   3.675   4.176   9.605  0.8622 -0.5144 -0.5987
  833MOL0     C12324   3.708   4.049   9.641 -0.0701 -0.0371  0.1544
  833MOL0     C12325   3.633   3.970   9.735  0.3074 -0.2822 -0.7496
  833MOL0     C12326   3.660   3.833   9.760  0.1785  0.7120 -0.2023
  833MOL0     C12327   3.771   3.773   9.685 -0.0867 -0.6647 -0.5361
  833MOL0     O12328   3.793   3.641   9.693  0.0984  0.0765 -0.7500
  833MOL0     C12329   3.888   3.611   9.802 -0.0847 -0.3756 -0.0421
  833MOL0     C12330   3.925   3.459   9.807 -0.3448 -0.3241  0.2462
  833MOL0     C12331   3.800   3.369   9.776 -0.1612  0.1528  1.1079
  833MOL0     C12332   3.703   3.376   9.886 -0.6109 -0.2482 -0.1601
  833MOL0     C12333   3.573   3.302   9.865 -0.4102  0.7053 -0.1477
  833MOL0     C12334   3.475   3.329   9.986 -0.0167  0.0788 -0.7784
  833MOL0     C12335   3.411   3.467   9.980 -0.1530 -0.0818  0.0529
  833MOL0     C12336   3.284   3.481  10.067 -0.0506 -0.0166  0.4587
  833MOL0     N12337   3.226   3.623  10.066  0.1783  0.3563 -1.3612
  833MOL0     C12338   3.266   3.726   9.989  0.5583 -0.2206  0.1078
  833MOL0     C12339   3.162   3.809   9.998  0.1141 -0.0394  0.3534
  833MOL0     C12340   3.170   3.936   9.910 -0.4610  0.9368 -0.0759
  833MOL0     C12341   3.099   3.902   9.769 -0.4021 -0.2836  0.1641
  833MOL0     C12342   3.181   3.938   9.650  0.1550 -0.1280 -0.4741
  833MOL0     C12343   3.302   3.847   9.622  0.1520 -0.2237 -0.1098
  833MOL0     O12344   3.256   3.708   9.610 -0.5454 -0.8634 -0.2880
  833MOL0     C12345   3.349   3.619   9.569  0.6897 -0.0440 -0.1760
  833MOL0     C12346   3.299   3.491   9.574  0.9226  0.0011 -0.4196
  833MOL0     C12347   3.373   3.384   9.541  0.2021  0.6206  1.1562
  833MOL0     C12348   3.320   3.256   9.555  0.7478  1.2267 -0.2115
  833MOL0     C12349   3.508   3.401   9.498 -0.0336 -1.7104  0.5046
  833MOL0     C12350   3.607   3.289   9.457 -0.1061  0.6830 -0.1013
  833MOL0     O12351   3.701   3.322   9.367  1.0050 -0.2844  0.1027
  833MOL0     C12352   3.779   3.223   9.325 -0.2673  0.9765  0.5752
  833MOL0     C12353   3.771   3.178   9.196 -0.3126 -0.6799  0.0324
  833MOL0     C12354   3.837   3.056   9.157 -0.1270 -0.0642  0.5123
  833MOL0     C12355   3.914   2.984   9.250 -0.4543  0.1916  0.1488
  833MOL0     O12356   3.973   2.855   9.227 -0.3135 -0.9490 -0.3730
  833MOL0     C12357   3.971   2.796   9.094  0.0708  0.4498  0.0817
  833MOL0     C12358   4.002   2.643   9.115  0.2966 -0.3357 -0.0286
  833MOL0     C12359   3.871   2.557   9.129 -0.2420  0.3022  0.3332
  833MOL0     C12360   3.796   2.534   8.998  0.4163 -0.0825 -0.2314
  833MOL0     C12361   3.655   2.592   8.996  0.7086 -0.5550  0.7346
  833MOL0     C12362   3.577   2.589   8.856 -0.0683 -0.2939 -0.5051
  833MOL0     C12363   3.557   2.446   8.810  0.9044 -0.0736 -1.2420
  833MOL0     C12364   3.425   2.387   8.867  0.2794  0.1453 -0.1242
  833MOL0    Cl12365   3.438   2.207   8.864 -0.6682 -0.2825  0.0549
  833MOL0     C12366   3.932   3.042   9.378 -0.1288 -0.3632 -0.6828
  833MOL0     C12367   3.865   3.156   9.416  0.1517  0.2959 -0.3261
  833MOL0     O12368   3.586   3.176   9.498  0.5820  0.4257 -0.6635
  833MOL0     C12369   3.552   3.536   9.487  0.2307 -0.7198 -0.0162
  833MOL0     C12370   3.476   3.646   9.524  0.0066  0.0443 -0.3631
  833MOL0     N12371   3.069   3.776  10.091  0.0669  0.2287 -0.1191
  833MOL0     N12372   3.105   3.656  10.127 -0.8782 -0.5184 -0.0399
  833MOL0     C12373   3.833   3.847   9.595  0.2464  1.1217  0.5228
  833MOL0     C12374   3.806   3.979   9.566  0.1051 -0.4555  0.3728
  833MOL0     C12375   3.538   4.340   9.504  0.2458 -0.0656 -0.5301
  833MOL0     C12376   3.414   4.383   9.451  0.3724 -0.5491  0.3109
  833MOL0     C12377   3.406   4.520   9.406 -0.0658 -0.4169 -0.8036
  833MOL0     C12378   3.503   4.620   9.427 -0.2833  0.0809 -0.3859
  833MOL0     O12379   3.499   4.745   9.378 -0.2787  1.1290 -0.2327
  833MOL0     C12380   3.586   4.771   9.266  0.3960 -0.2922  0.5291
  833MOL0     C12381   3.547   4.698   9.134 -0.3533 -0.1480  0.2588
  833MOL0     C12382   3.396   4.707   9.096 -0.7737 -0.1674  0.1552
  833MOL0     C12383   3.327   4.839   9.121 -0.1178 -1.2455  0.8247
  833MOL0     C12384   3.397   4.943   9.034  0.8402 -1.2672  0.5592
  833MOL0     C12385   3.434   5.030   8.963 -0.2048  0.7623 -0.2664
  833MOL0     C12386   3.622   4.572   9.479  1.0768 -0.6285 -0.3812
  833MOL0     C12387   3.642   4.434   9.503  0.5486  0.5731 -0.0569
  833MOL0     H12388   3.542   4.016   9.773  0.0452  0.2330 -1.9366
  833MOL0     H12389   3.602   3.780   9.835 -0.2508  1.7922  0.2589
  833MOL0     H12390   3.988   3.654   9.793 -0.0285  0.2625  2.7067
  833MOL0     H12391   3.851   3.652   9.896  3.0626  4.3910 -0.5462
  833MOL0     H12392   3.997   3.436   9.727  1.7501  1.2421  1.5887
  833MOL0     H12393   3.978   3.436   9.900  0.4854  1.6967  0.3228
  833MOL0     H12394   3.768   3.395   9.674 -1.3423 -0.5759  1.2764
  833MOL0     H12395   3.829   3.267   9.751  0.5896 -0.0008  2.5183
  833MOL0     H12396   3.767   3.334   9.964 -0.6349  1.2674  0.7137
  833MOL0     H12397   3.685   3.476   9.926 -0.0428  0.5234 -1.7475
  833MOL0     H12398   3.525   3.316   9.767 -0.6998  0.9921  0.0361
  833MOL0     H12399   3.598   3.195   9.869  0.3627  0.9014  0.4158
  833MOL0     H12400   3.401   3.249   9.993  1.9081 -1.6806  0.9433
  833MOL0     H12401   3.534   3.318  10.078  0.4479 -2.5165 -1.3036
  833MOL0     H12402   3.490   3.535  10.012  1.8652 -0.6955 -3.1911
  833MOL0     H12403   3.393   3.493   9.875  1.1150 -0.1979 -0.2095
  833MOL0     H12404   3.306   3.447  10.168 -1.2061  0.1025  0.7662
  833MOL0     H12405   3.202   3.420  10.027  0.7654 -1.5181  1.0001
  833MOL0     H12406   3.351   3.741   9.923 -0.0224  0.3912 -0.5166
  833MOL0     H12407   3.116   4.013   9.965 -2.4006 -0.0960 -0.4428
  833MOL0     H12408   3.273   3.966   9.887 -0.4503 -0.5698 -2.3645
  833MOL0     H12409   3.005   3.957   9.760 -0.6131 -0.4847  0.9999
  833MOL0     H12410   3.068   3.797   9.767 -2.6839  0.3363 -0.1851
  833MOL0     H12411   3.221   4.039   9.661  1.3062 -0.4086 -1.7921
  833MOL0     H12412   3.112   3.942   9.564 -0.5272 -0.3996  0.0515
  833MOL0     H12413   3.372   3.851   9.707 -0.0512 -1.3998  0.1352
  833MOL0     H12414   3.350   3.883   9.531  2.6064  1.3963  1.6871
  833MOL0     H12415   3.194   3.474   9.592 -0.1932  3.0905 -3.1213
  833MOL0     H12416   3.335   3.212   9.457  0.0392  0.1479  0.1521
  833MOL0     H12417   3.371   3.193   9.628  1.0877  1.3183 -0.3654
  833MOL0     H12418   3.214   3.249   9.581  1.0326 -0.8279  0.5934
  833MOL0     H12419   3.693   3.211   9.128  2.1334  0.7718 -2.2347
  833MOL0     H12420   3.821   3.023   9.054 -0.6500 -0.9786  0.8772
  833MOL0     H12421   3.867   2.801   9.062  0.2891 -0.1418 -0.7654
  833MOL0     H12422   4.039   2.847   9.025  2.5834 -3.2142 -0.4824
  833MOL0     H12423   4.072   2.613   9.037  2.6702  0.5925  1.6421
  833MOL0     H12424   4.060   2.627   9.206 -2.0948  1.6985  2.0070
  833MOL0     H12425   3.807   2.610   9.199  0.0196  0.9898  0.0619
  833MOL0     H12426   3.903   2.463   9.176  3.0025  1.2504  0.3036
  833MOL0     H12427   3.859   2.577   8.919  0.6980  4.1544  1.9836
  833MOL0     H12428   3.776   2.429   8.976  0.2228  0.3532 -2.3938
  833MOL0     H12429   3.654   2.696   9.030 -3.0258 -0.7965  1.9352
  833MOL0     H12430   3.593   2.542   9.072  0.3013  0.6180  1.1952
  833MOL0     H12431   3.477   2.634   8.857  0.9580  2.1654 -0.5257
  833MOL0     H12432   3.642   2.629   8.777 -0.3236 -0.3068 -0.7214
  833MOL0     H12433   3.645   2.386   8.835  0.2127  0.0599  1.8273
  833MOL0     H12434   3.542   2.425   8.703 -1.6742 -0.8532 -0.7935
  833MOL0     H12435   3.335   2.429   8.822  0.3695 -0.4147 -0.8591
  833MOL0     H12436   3.415   2.411   8.973  0.5483 -0.8836  0.1475
  833MOL0     H12437   3.989   2.992   9.456 -1.0608 -0.6811 -0.1881
  833MOL0     H12438   3.908   3.199   9.505  2.2805  0.8862 -1.5799
  833MOL0     H12439   3.654   3.546   9.452  0.2771  1.0045  0.5117
  833MOL0     H12440   3.520   3.744   9.538 -1.1097  0.7027 -1.2925
  833MOL0     H12441   3.904   3.783   9.544 -0.2839  1.5895 -0.8701
  833MOL0     H12442   3.859   4.032   9.488  0.8925  0.5460  1.5547
  833MOL0     H12443   3.337   4.310   9.429 -1.0441  1.0408 -0.1829
  833MOL0     H12444   3.311   4.553   9.364 -0.5426  0.6351  1.0078
  833MOL0     H12445   3.574   4.880   9.262  1.9566 -0.0395  1.6071
  833MOL0     H12446   3.694   4.757   9.283  0.9444 -0.7710 -2.7003
  833MOL0     H12447   3.586   4.597   9.146 -0.5643 -0.1198  1.2442
  833MOL0     H12448   3.598   4.741   9.048 -0.9355 -2.6167 -1.4228
  833MOL0     H12449   3.348   4.620   9.142  0.7554 -0.2742  1.6650
  833MOL0     H12450   3.383   4.689   8.989 -1.8039 -2.7349  0.6376
  833MOL0     H12451   3.328   4.866   9.226  1.4262  0.5128  0.3977
  833MOL0     H12452   3.222   4.836   9.088  0.1552 -0.9294 -0.0944
  833MOL0     H12453   3.451   5.117   8.902  1.0296  0.9501  0.2984
  833MOL0     H12454   3.701   4.645   9.492  1.6971 -1.1618 -1.0431
  833MOL0     H12455   3.739   4.396   9.534  0.2469 -0.1942 -0.0457
  834MOL0     O12456   5.397   6.334   4.823  0.1474  0.4894  0.4800
  834MOL0     C12457   5.296   6.340   4.750 -0.5745 -1.0574  0.0671
  834MOL0     O12458   5.166   6.304   4.781 -0.0395 -0.3169 -0.1516
  834MOL0     C12459   5.135   6.248   4.906  0.5185  0.2442 -0.2836
  834MOL0     C12460   5.227   6.178   4.994  0.0756 -0.5227  0.4095
  834MOL0     C12461   5.187   6.095   5.099 -0.2942  1.0663 -0.3063
  834MOL0     C12462   5.053   6.095   5.141  0.5547 -0.0189  0.7498
  834MOL0     O12463   5.005   6.038   5.251 -0.1596 -0.6674 -0.7452
  834MOL0     C12464   5.054   5.908   5.284 -0.3834 -0.5152  0.2230
  834MOL0     C12465   5.081   5.898   5.440 -0.0413  0.0552 -1.1190
  834MOL0     C12466   4.967   5.954   5.529 -0.2038 -0.2494  0.1681
  834MOL0     C12467   4.832   5.889   5.494 -0.0804  0.2112 -0.6332
  834MOL0     C12468   4.722   5.957   5.581  0.2688  0.3991  0.1352
  834MOL0     C12469   4.702   5.909   5.724  0.6608 -0.8966  0.4296
  834MOL0     C12470   4.561   5.968   5.773  0.1512 -0.0817  0.4279
  834MOL0     C12471   4.544   5.923   5.916 -0.1254  0.4926  0.6667
  834MOL0     N12472   4.413   5.972   5.970 -0.5237  0.4375  1.3754
  834MOL0     C12473   4.367   5.926   6.094 -0.0471  0.1931 -0.0290
  834MOL0     C12474   4.256   5.997   6.117 -0.0891 -0.4313  0.1622
  834MOL0     C12475   4.170   6.007   6.240  0.2144 -0.1929 -0.0764
  834MOL0     C12476   4.142   6.149   6.283 -1.0934  0.4739 -0.2608
  834MOL0     C12477   3.987   6.183   6.253 -0.0329 -0.2053  0.7172
  834MOL0     C12478   3.971   6.253   6.125  0.2357  0.3688  0.0372
  834MOL0     O12479   3.828   6.268   6.100 -0.3464  0.0508  0.4494
  834MOL0     C12480   3.763   6.177   6.017  1.0095  0.3721  0.2771
  834MOL0     C12481   3.806   6.140   5.890  0.2838 -0.0599 -0.4870
  834MOL0     C12482   3.725   6.042   5.823 -0.2701 -0.0862 -0.1179
  834MOL0     C12483   3.780   5.986   5.694 -1.1187 -0.8747 -0.6312
  834MOL0     C12484   3.608   5.984   5.878 -0.0870  0.8354  0.3917
  834MOL0     C12485   3.529   5.868   5.812 -0.0428 -0.7134 -0.2209
  834MOL0     O12486   3.523   5.845   5.679  0.1039 -0.0993  0.1225
  834MOL0     C12487   3.418   5.777   5.626 -0.7850 -0.2045 -0.6263
  834MOL0     C12488   3.284   5.808   5.654  0.7876 -0.4555  0.4759
  834MOL0     C12489   3.177   5.720   5.610  0.6462  0.0700  0.0177
  834MOL0     C12490   3.209   5.613   5.527 -0.3855 -0.7691 -0.3906
  834MOL0     O12491   3.109   5.524   5.496  0.3225 -0.0626 -0.0881
  834MOL0     C12492   3.138   5.388   5.532 -0.7538 -0.5966 -0.1855
  834MOL0     C12493   3.007   5.317   5.548 -0.6979 -0.4376  0.2535
  834MOL0     C12494   3.013   5.199   5.646 -0.7931  0.2713  0.4771
  834MOL0     C12495   3.106   5.085   5.589 -0.1794  0.3629 -0.3094
  834MOL0     C12496   3.070   5.039   5.452  0.7675 -0.9868 -0.4833
  834MOL0     C12497   3.150   4.911   5.413  0.1466 -0.3435 -0.0178
  834MOL0     C12498   3.303   4.934   5.439 -0.0920 -0.8330 -1.0194
  834MOL0     C12499   3.388   4.829   5.390  0.6685  0.2480  0.0497
  834MOL0    Cl12500   3.382   4.826   5.217 -0.1889 -0.6107 -0.2589
  834MOL0     C12501   3.345   5.593   5.490  0.1629  0.3316  0.6836
  834MOL0     C12502   3.445   5.673   5.547 -0.1060  0.4744  0.1287
  834MOL0     O12503   3.461   5.813   5.898  0.6674 -0.0962  0.6039
  834MOL0     C12504   3.573   6.026   6.004  0.2269 -0.3763  0.4870
  834MOL0     C12505   3.652   6.125   6.068  0.3486 -0.7458  0.2225
  834MOL0     N12506   4.238   6.086   6.013  0.5142  0.0207  0.6223
  834MOL0     N12507   4.333   6.070   5.925  0.2698 -0.2838 -0.4019
  834MOL0     C12508   4.959   6.164   5.057  0.0319 -0.0121  0.1905
  834MOL0     C12509   5.001   6.235   4.942 -0.7966 -0.8614  0.1618
  834MOL0     C12510   5.324   6.389   4.606  0.2160  1.0722 -0.7840
  834MOL0     C12511   5.234   6.361   4.502 -0.0730 -0.3518  0.0521
  834MOL0     C12512   5.267   6.405   4.372  0.8475  0.4370  0.1733
  834MOL0     C12513   5.373   6.484   4.343 -0.8539 -0.8535  0.7238
  834MOL0     O12514   5.406   6.540   4.223  0.2771 -0.1251  0.2881
  834MOL0     C12515   5.384   6.458   4.102  0.3184 -0.2107 -0.2665
  834MOL0     C12516   5.476   6.479   3.991  0.2390 -1.2686  0.0701
  834MOL0     C12517   5.422   6.604   3.908 -0.3555 -0.7581  0.1261
  834MOL0     C12518   5.522   6.657   3.793 -0.7870 -0.1310 -0.3145
  834MOL0     C12519   5.560   6.572   3.678  0.4144 -0.4338 -1.4519
  834MOL0     C12520   5.586   6.499   3.580  0.1245 -0.3101 -0.1957
  834MOL0     C12521   5.464   6.514   4.448  0.7831  0.0326 -0.7479
  834MOL0     C12522   5.436   6.463   4.578  0.6714 -0.7168 -0.9504
  834MOL0     H12523   5.327   6.164   4.956 -0.9731 -0.3965 -2.6889
  834MOL0     H12524   5.266   6.056   5.162 -1.2584  0.6472  0.6827
  834MOL0     H12525   4.984   5.832   5.249 -1.4342  0.2275  0.6569
  834MOL0     H12526   5.152   5.887   5.240  0.7511  0.6810  2.0420
  834MOL0     H12527   5.116   5.799   5.472 -1.0968 -0.8012 -2.4624
  834MOL0     H12528   5.166   5.962   5.462  0.8676 -1.8298  1.2583
  834MOL0     H12529   5.007   5.923   5.626  0.8849  2.2634  0.6342
  834MOL0     H12530   4.967   6.064   5.524 -0.1508 -0.2538  0.0656
  834MOL0     H12531   4.811   5.906   5.388  1.2036 -1.0525 -1.1301
  834MOL0     H12532   4.836   5.781   5.514  1.8514  0.1475 -1.1653
  834MOL0     H12533   4.732   6.066   5.589 -0.0331  0.3680  1.0752
  834MOL0     H12534   4.633   5.933   5.523  0.4525  2.0884 -0.8956
  834MOL0     H12535   4.707   5.800   5.728  3.6341 -0.8483 -0.0883
  834MOL0     H12536   4.782   5.952   5.785  1.2106  2.9522 -2.5461
  834MOL0     H12537   4.575   6.076   5.766  0.7394 -0.1086  0.9865
  834MOL0     H12538   4.473   5.938   5.715 -0.7943 -1.1046  2.2943
  834MOL0     H12539   4.625   5.953   5.983 -1.7988 -1.0423  3.5250
  834MOL0     H12540   4.538   5.814   5.916  1.2465  0.3954  1.6082
  834MOL0     H12541   4.403   5.853   6.166  0.9932  0.7157  0.0063
  834MOL0     H12542   4.078   5.966   6.199 -0.5381 -1.3305  2.5341
  834MOL0     H12543   4.200   5.942   6.323 -1.0531 -1.0706 -0.2902
  834MOL0     H12544   4.211   6.217   6.233 -0.6069  0.2392  0.0750
  834MOL0     H12545   4.158   6.155   6.391 -1.9765 -2.0392  0.0912
  834MOL0     H12546   3.946   6.245   6.334 -0.5216  0.1088  0.2349
  834MOL0     H12547   3.927   6.091   6.250 -1.2884  0.5949  0.7709
  834MOL0     H12548   4.031   6.204   6.048  0.2108 -0.3896  0.4916
  834MOL0     H12549   4.005   6.357   6.136  1.3194 -0.1908  2.8698
  834MOL0     H12550   3.901   6.174   5.851  0.5006  0.9142  0.8070
  834MOL0     H12551   3.803   5.880   5.709 -0.4550 -0.3089  3.5415
  834MOL0     H12552   3.698   5.987   5.621 -2.3628  0.4519  0.7139
  834MOL0     H12553   3.862   6.045   5.652  0.3681 -0.3074  2.6996
  834MOL0     H12554   3.266   5.888   5.725 -0.2498 -1.1754  1.0465
  834MOL0     H12555   3.077   5.734   5.649  0.5868  2.2189 -0.7340
  834MOL0     H12556   3.191   5.327   5.459  0.6464 -0.1595  0.4182
  834MOL0     H12557   3.198   5.388   5.624  2.6086 -0.6334 -2.2032
  834MOL0     H12558   2.940   5.383   5.604  0.0688 -0.6921  1.5148
  834MOL0     H12559   2.968   5.290   5.450 -1.1773 -0.0523  0.3348
  834MOL0     H12560   2.907   5.175   5.660 -0.4678 -2.6144 -1.1240
  834MOL0     H12561   3.036   5.227   5.749 -0.4559 -0.7624  0.6964
  834MOL0     H12562   3.211   5.114   5.588  0.4745 -1.8699 -1.7294
  834MOL0     H12563   3.105   4.999   5.656 -0.7506  0.4196 -0.2376
  834MOL0     H12564   3.099   5.110   5.373  2.6214 -3.4632 -2.2053
  834MOL0     H12565   2.963   5.017   5.443  0.0301  1.9841  0.0824
  834MOL0     H12566   3.112   4.818   5.455  4.2606 -1.6663  1.2855
  834MOL0     H12567   3.141   4.910   5.304  0.7911 -2.3747 -0.0988
  834MOL0     H12568   3.312   4.922   5.547 -1.4670  2.9114 -0.3236
  834MOL0     H12569   3.334   5.033   5.405 -1.0561  0.4186  1.4605
  834MOL0     H12570   3.342   4.735   5.420 -0.0442 -0.7060 -3.5832
  834MOL0     H12571   3.487   4.848   5.432 -0.2700  3.4786  1.0572
  834MOL0     H12572   3.368   5.505   5.431  2.1950 -0.3902  2.4580
  834MOL0     H12573   3.550   5.649   5.534  0.3444  2.2317  0.3228
  834MOL0     H12574   3.479   5.992   6.046 -0.2314  0.7955  0.4426
  834MOL0     H12575   3.621   6.147   6.170  1.1500 -1.4970  0.6355
  834MOL0     H12576   4.853   6.164   5.080 -0.1064 -0.0021 -0.4313
  834MOL0     H12577   4.925   6.296   4.894  0.6158  0.0784 -0.9967
  834MOL0     H12578   5.143   6.306   4.526  0.5015 -0.4025  2.3362
  834MOL0     H12579   5.204   6.381   4.287 -0.4946 -1.3773  1.5941
  834MOL0     H12580   5.395   6.354   4.132 -0.8841 -0.6424 -1.2151
  834MOL0     H12581   5.290   6.480   4.049  1.3818 -1.2716 -2.7446
  834MOL0     H12582   5.469   6.392   3.925 -1.9841 -2.6747  2.0059
  834MOL0     H12583   5.579   6.494   4.025  0.6482 -2.4541 -0.5949
  834MOL0     H12584   5.425   6.683   3.984 -1.5566 -0.4611 -0.1224
  834MOL0     H12585   5.318   6.596   3.876  0.6083 -1.2749 -3.2908
  834MOL0     H12586   5.618   6.686   3.837 -1.7357  3.8448 -0.4985
  834MOL0     H12587   5.485   6.754   3.759 -1.9648 -0.3610  0.2402
  834MOL0     H12588   5.612   6.437   3.496  1.2249  3.9099 -3.3250
  834MOL0     H12589   5.551   6.574   4.428  2.0617 -1.3241  0.4677
  834MOL0     H12590   5.488   6.497   4.667 -1.7410  1.6362 -0.2964
  835MOL0     O12591   6.405   0.405   3.686  0.0529  0.6783  0.5053
  835MOL0     C12592   6.445   0.436   3.798  0.1943 -0.0143 -0.7373
  835MOL0     O12593   6.496   0.556   3.832  0.1618  0.1166  0.1245
  835MOL0     C12594   6.564   0.627   3.737  0.4209 -0.0580  0.1092
  835MOL0     C12595   6.532   0.763   3.729  0.1282  0.3468 -0.6685
  835MOL0     C12596   6.610   0.856   3.659 -0.0834 -1.0125 -0.2437
  835MOL0     C12597   6.725   0.804   3.590 -0.2923  0.3207  0.5237
  835MOL0     O12598   6.806   0.895   3.518 -0.6673  0.3849  0.6730
  835MOL0     C12599   6.923   0.846   3.449 -0.2852 -1.2559  0.1212
  835MOL0     C12600   6.999   0.969   3.386 -0.5635 -0.3393 -0.5209
  835MOL0     C12601   7.107   1.030   3.469 -0.6237  0.2008 -0.6881
  835MOL0     C12602   7.130   1.175   3.442  0.0704  0.0884  0.0263
  835MOL0     C12603   7.265   1.221   3.517  0.6850 -0.2979  0.8363
  835MOL0     C12604   7.388   1.201   3.427 -0.1480  0.3335 -1.2962
  835MOL0     C12605   7.518   1.268   3.480 -0.2320  0.3052  1.0191
  835MOL0     C12606   7.640   1.218   3.395 -1.0260 -0.5074 -0.3402
  835MOL0     N12607   7.658   1.296   3.272 -0.9810  1.2573 -0.1007
  835MOL0     C12608   7.608   1.262   3.146  0.0681 -0.6806  0.8460
  835MOL0     C12609   7.628   1.377   3.060 -0.4394  0.8279 -0.1901
  835MOL0     C12610   7.577   1.395   2.920  0.3960  0.2130 -0.9239
  835MOL0     C12611   7.648   1.304   2.828 -0.6683  0.4522  0.0850
  835MOL0     C12612   7.658   1.322   2.678 -0.3524 -0.1758  0.0635
  835MOL0     C12613   7.729   1.456   2.644  0.1016  0.1235 -0.5222
  835MOL0     O12614   7.640   1.573   2.640 -0.0636 -0.1694  0.2063
  835MOL0     C12615   7.705   1.693   2.629 -0.3066  0.0022 -0.2072
  835MOL0     C12616   7.745   1.749   2.507  0.1962  0.8684  0.3808
  835MOL0     C12617   7.821   1.867   2.497  0.5048  0.1187 -0.5526
  835MOL0     C12618   7.843   1.920   2.355  0.2722  0.9054 -1.0211
  835MOL0     C12619   7.851   1.932   2.620 -0.3720 -0.6449 -0.5056
  835MOL0     C12620   7.938   2.058   2.631 -0.0801  0.0455  0.0978
  835MOL0     O12621   7.911   2.149   2.729  0.0898 -0.4242 -0.2843
  835MOL0     C12622   7.976   2.269   2.734 -0.0269  0.9061 -0.7396
  835MOL0     C12623   7.971   2.370   2.647 -0.0806 -0.7095 -0.0661
  835MOL0     C12624   8.045   2.490   2.671 -0.3829 -0.5342 -0.0396
  835MOL0     C12625   8.117   2.508   2.783  0.7630 -0.2903  0.2733
  835MOL0     O12626   8.197   2.618   2.781 -0.0602  0.9687  0.0062
  835MOL0     C12627   8.326   2.609   2.847 -0.2843  0.1606  0.1937
  835MOL0     C12628   8.410   2.732   2.819 -0.9222 -0.9759  0.3070
  835MOL0     C12629   8.416   2.768   2.670  0.4694  1.0998 -0.4603
  835MOL0     C12630   8.551   2.846   2.641 -0.1887 -0.2232 -0.2687
  835MOL0     C12631   8.548   2.992   2.684  0.4713  0.0659  0.6088
  835MOL0     C12632   8.681   3.074   2.664 -0.1928 -1.1801  0.1125
  835MOL0     C12633   8.686   3.213   2.738  0.2336  0.3575 -0.1315
  835MOL0     C12634   8.833   3.262   2.754  0.4621 -0.1555  0.3047
  835MOL0    Cl12635   8.843   3.424   2.837  0.4942  0.3358  0.0546
  835MOL0     C12636   8.113   2.410   2.886 -0.4235  0.3445 -0.5686
  835MOL0     C12637   8.054   2.290   2.847  0.9548 -0.5798  0.1449
  835MOL0     O12638   8.045   2.067   2.561 -0.0497  0.3706  0.4720
  835MOL0     C12639   7.801   1.883   2.742 -0.1266  0.2045  0.1480
  835MOL0     C12640   7.739   1.758   2.748 -0.3071 -0.9836  0.0954
  835MOL0     N12641   7.686   1.471   3.144 -1.3088  0.5141 -0.1836
  835MOL0     N12642   7.720   1.412   3.255  0.8657 -1.0070 -0.3664
  835MOL0     C12643   6.756   0.672   3.602  0.2729 -0.0081 -0.5854
  835MOL0     C12644   6.682   0.581   3.673 -0.2043 -0.5574 -0.0374
  835MOL0     C12645   6.418   0.350   3.902 -0.1249 -0.0713 -0.6290
  835MOL0     C12646   6.382   0.400   4.030 -0.8796 -0.1578  0.5919
  835MOL0     C12647   6.370   0.313   4.140  0.3095 -0.7633  1.2262
  835MOL0     C12648   6.377   0.180   4.109 -0.3896  0.9156 -0.1219
  835MOL0     O12649   6.351   0.108   4.228 -0.7798  0.3167 -0.2962
  835MOL0     C12650   6.300  -0.028   4.227  0.4293 -0.1846  0.8122
  835MOL0     C12651   6.409  -0.136   4.232  0.6014 -0.8721 -0.7708
  835MOL0     C12652   6.473  -0.129   4.379  0.2948  1.0326 -0.9193
  835MOL0     C12653   6.587  -0.236   4.397 -0.0171  0.0274 -0.1504
  835MOL0     C12654   6.558  -0.382   4.380 -0.8358 -0.5172  0.3228
  835MOL0     C12655   6.564  -0.492   4.345  0.2973 -0.0312  0.6380
  835MOL0     C12656   6.423   0.127   3.986 -0.1778  0.3991  0.3202
  835MOL0     C12657   6.444   0.220   3.875  0.1710  1.1295  0.2274
  835MOL0     H12658   6.440   0.805   3.770 -0.8212 -0.2176 -2.1382
  835MOL0     H12659   6.574   0.958   3.649 -2.5566 -1.9564 -2.1954
  835MOL0     H12660   7.005   0.802   3.506  1.0131  1.6624  0.6771
  835MOL0     H12661   6.893   0.779   3.367 -0.5674 -1.1698  0.1536
  835MOL0     H12662   7.048   0.933   3.295  1.9649  1.4535  0.0334
  835MOL0     H12663   6.930   1.048   3.357 -0.6340 -0.1611  0.1018
  835MOL0     H12664   7.065   1.025   3.570  0.4141  3.0740  0.0117
  835MOL0     H12665   7.193   0.963   3.459  1.2928  2.8611 -5.7384
  835MOL0     H12666   7.131   1.189   3.333 -0.8433 -1.5126 -0.2245
  835MOL0     H12667   7.056   1.241   3.488 -0.5810 -0.1956 -0.5917
  835MOL0     H12668   7.257   1.329   3.530 -1.4805  0.9180 -6.2941
  835MOL0     H12669   7.258   1.174   3.615  3.7609 -0.8395  0.9054
  835MOL0     H12670   7.407   1.097   3.401  0.6046  0.4039 -1.0474
  835MOL0     H12671   7.372   1.261   3.337 -0.3527  0.0652 -1.4395
  835MOL0     H12672   7.498   1.375   3.486  0.1787  0.4696 -0.2231
  835MOL0     H12673   7.543   1.247   3.585  2.0028  1.7560  0.8362
  835MOL0     H12674   7.640   1.110   3.378  0.6544 -0.6430  0.2789
  835MOL0     H12675   7.723   1.226   3.465 -0.2298  0.0822 -1.3094
  835MOL0     H12676   7.532   1.192   3.114 -1.1978  2.2477 -3.4744
  835MOL0     H12677   7.468   1.382   2.912  0.3089  1.0658 -1.1997
  835MOL0     H12678   7.604   1.499   2.904  0.5871  0.3604  0.2563
  835MOL0     H12679   7.621   1.199   2.843  3.9168 -1.3913 -2.5617
  835MOL0     H12680   7.755   1.301   2.852 -1.0317  0.7851  1.9159
  835MOL0     H12681   7.556   1.324   2.637 -0.9454  3.1462  1.3584
  835MOL0     H12682   7.704   1.230   2.641 -0.8039 -1.4481  2.4406
  835MOL0     H12683   7.773   1.451   2.544 -0.0714 -0.2800 -0.5786
  835MOL0     H12684   7.807   1.478   2.718 -2.4210  0.6363  2.1581
  835MOL0     H12685   7.725   1.692   2.416  1.0738  0.2465  0.5659
  835MOL0     H12686   7.786   2.012   2.341 -0.6336  0.0336 -3.6280
  835MOL0     H12687   7.948   1.950   2.351  0.5546  0.0097 -0.5411
  835MOL0     H12688   7.809   1.844   2.285 -0.3334 -1.0176  1.2345
  835MOL0     H12689   7.900   2.350   2.568 -0.3806 -1.7842  0.4465
  835MOL0     H12690   8.046   2.567   2.595 -1.9769 -2.0610 -1.7069
  835MOL0     H12691   8.313   2.579   2.951  5.4538 -0.1930  1.1435
  835MOL0     H12692   8.378   2.526   2.798 -0.2609  0.2387  0.0858
  835MOL0     H12693   8.364   2.815   2.873  0.5693  1.2129 -1.5912
  835MOL0     H12694   8.507   2.707   2.863 -1.2648  0.0648  1.7019
  835MOL0     H12695   8.327   2.824   2.640 -1.0841 -0.6815  0.5798
  835MOL0     H12696   8.426   2.678   2.607  0.9714  1.2152 -0.5484
  835MOL0     H12697   8.635   2.801   2.695  1.8032  0.7428 -2.3842
  835MOL0     H12698   8.583   2.837   2.537  0.2066 -1.8349 -0.0363
  835MOL0     H12699   8.519   2.991   2.790 -0.9059 -0.0090  0.2489
  835MOL0     H12700   8.471   3.040   2.624  0.9564 -1.1509 -1.0735
  835MOL0     H12701   8.760   3.017   2.712  1.8268  0.4829 -1.0631
  835MOL0     H12702   8.702   3.098   2.559  0.2038 -1.0378  0.2255
  835MOL0     H12703   8.640   3.206   2.837  2.0038  0.2262  0.7320
  835MOL0     H12704   8.631   3.284   2.676 -2.4944 -1.8229 -0.3854
  835MOL0     H12705   8.878   3.255   2.655  0.2267 -5.3245  0.2879
  835MOL0     H12706   8.893   3.193   2.815 -0.6910 -1.9793 -0.5309
  835MOL0     H12707   8.167   2.424   2.979  0.5061  2.4768 -1.3650
  835MOL0     H12708   8.037   2.209   2.917  0.1886 -1.1254 -0.6463
  835MOL0     H12709   7.821   1.929   2.838  3.1860  1.5936 -1.0566
  835MOL0     H12710   7.720   1.712   2.844 -0.1437 -0.2229  0.4939
  835MOL0     H12711   6.844   0.632   3.553 -0.6378 -3.2519  0.1883
  835MOL0     H12712   6.709   0.476   3.674  2.4971  0.0517 -0.9571
  835MOL0     H12713   6.380   0.504   4.059 -0.8455 -0.6037  2.3270
  835MOL0     H12714   6.343   0.348   4.239  2.3307  1.2243  1.1824
  835MOL0     H12715   6.224  -0.050   4.302 -0.8687 -0.6646 -0.6042
  835MOL0     H12716   6.240  -0.042   4.136 -2.1161 -2.1645  2.6425
  835MOL0     H12717   6.477  -0.122   4.148  0.5704  3.3146 -0.3118
  835MOL0     H12718   6.348  -0.226   4.218 -1.7020  0.6643 -1.1464
  835MOL0     H12719   6.395  -0.144   4.455  0.4752  1.1044 -0.7191
  835MOL0     H12720   6.514  -0.028   4.391  0.7883  0.6551  0.9813
  835MOL0     H12721   6.643  -0.215   4.490  1.2504 -2.3137 -0.2973
  835MOL0     H12722   6.664  -0.212   4.323  1.0897 -0.8483  0.6769
  835MOL0     H12723   6.571  -0.593   4.308 -2.8869  0.3953 -1.5506
  835MOL0     H12724   6.438   0.021   3.972 -1.3231  0.3412 -0.6081
  835MOL0     H12725   6.486   0.188   3.781  1.0823 -2.5805  1.7145
  836MOL0     O12726   4.393   9.403   2.222 -0.1770  0.1239 -0.6196
  836MOL0     C12727   4.273   9.420   2.223 -0.9120 -0.4761  0.3715
  836MOL0     O12728   4.180   9.349   2.161  0.3090  0.4323 -0.8310
  836MOL0     C12729   4.198   9.223   2.109  0.0816 -1.5329  0.0335
  836MOL0     C12730   4.155   9.200   1.977  0.2727 -0.6750  0.3436
  836MOL0     C12731   4.175   9.076   1.911 -1.3526 -0.4383  0.7447
  836MOL0     C12732   4.269   8.993   1.963  0.0481 -0.2183 -0.8675
  836MOL0     O12733   4.324   8.891   1.901 -0.4395 -0.1664  0.8527
  836MOL0     C12734   4.451   8.924   1.839  0.4523 -0.4883  0.0030
  836MOL0     C12735   4.437   8.954   1.689  0.1458  0.1653  0.2279
  836MOL0     C12736   4.343   8.869   1.606 -0.0558  0.3152  0.3149
  836MOL0     C12737   4.333   8.925   1.462  0.3872  0.5100  0.8488
  836MOL0     C12738   4.248   8.842   1.374  0.0498  0.9278  0.5074
  836MOL0     C12739   4.320   8.701   1.347  0.3600 -0.3382  0.1074
  836MOL0     C12740   4.244   8.644   1.231 -0.5127  1.3110  0.5487
  836MOL0     C12741   4.255   8.494   1.219  0.6812  0.0319 -0.7905
  836MOL0     N12742   4.392   8.450   1.179  1.1088 -0.3262  0.8271
  836MOL0     C12743   4.482   8.398   1.266 -0.1802  0.2030 -0.4391
  836MOL0     C12744   4.593   8.376   1.194  0.1303  0.0842  0.4662
  836MOL0     C12745   4.727   8.320   1.230 -0.1253  0.4568 -0.7985
  836MOL0     C12746   4.719   8.166   1.189  0.5505  0.8273 -0.4380
  836MOL0     C12747   4.804   8.084   1.284 -0.3328  0.7405 -0.2419
  836MOL0     C12748   4.947   8.069   1.225  0.3740 -0.1468  0.0221
  836MOL0     O12749   5.007   8.201   1.228  1.1204 -0.6686  0.1291
  836MOL0     C12750   5.046   8.265   1.353  0.1536  0.4884 -1.0285
  836MOL0     C12751   5.068   8.402   1.351 -0.2494  0.0677 -0.2603
  836MOL0     C12752   5.106   8.482   1.465  0.5782 -0.0501 -0.4784
  836MOL0     C12753   5.120   8.638   1.435 -0.4090  0.1725 -0.7124
  836MOL0     C12754   5.133   8.414   1.586 -0.4907  0.1057  0.0154
  836MOL0     C12755   5.183   8.483   1.716  0.7791  0.7852 -0.6626
  836MOL0     O12756   5.198   8.399   1.822 -0.0057 -0.4831 -0.2571
  836MOL0     C12757   5.219   8.460   1.946 -0.3910  0.6442 -0.4662
  836MOL0     C12758   5.345   8.455   1.990 -0.1324 -0.3630 -0.4598
  836MOL0     C12759   5.384   8.514   2.111 -0.0183 -0.1593  0.4017
  836MOL0     C12760   5.289   8.566   2.202  0.2653  0.4362  0.3302
  836MOL0     O12761   5.323   8.619   2.322 -0.0372 -0.7102  0.5351
  836MOL0     C12762   5.308   8.531   2.436 -0.6369 -0.2218  0.2058
  836MOL0     C12763   5.392   8.584   2.549 -0.5709 -1.1061  0.0212
  836MOL0     C12764   5.359   8.736   2.586 -0.1652 -0.6249 -0.1456
  836MOL0     C12765   5.210   8.749   2.626  0.2886  0.1053  0.1934
  836MOL0     C12766   5.175   8.888   2.681  0.2399  0.2585  0.8725
  836MOL0     C12767   5.160   8.876   2.835 -0.2315  0.8285  0.3470
  836MOL0     C12768   5.151   9.009   2.906 -0.1148  0.0330 -0.6064
  836MOL0     C12769   5.275   9.080   2.940  0.4923  0.0171  0.0515
  836MOL0    Cl12770   5.364   8.965   3.037  0.0104  0.1068  0.1140
  836MOL0     C12771   5.155   8.549   2.162 -0.3331 -0.3285  0.2873
  836MOL0     C12772   5.120   8.494   2.036  0.2835 -0.2744 -0.2215
  836MOL0     O12773   5.225   8.596   1.710 -0.9444 -0.8338 -0.2897
  836MOL0     C12774   5.110   8.268   1.584  0.0327  0.2706 -0.1527
  836MOL0     C12775   5.070   8.195   1.468 -0.9485  0.1748 -0.4194
  836MOL0     N12776   4.548   8.399   1.062 -0.0813 -0.0665 -0.0529
  836MOL0     N12777   4.424   8.438   1.053 -0.1586  0.1113  0.3590
  836MOL0     C12778   4.310   9.006   2.099 -0.3388 -0.0017 -0.2515
  836MOL0     C12779   4.267   9.117   2.172  0.2338  0.2362 -0.1856
  836MOL0     C12780   4.233   9.538   2.290 -0.4981  0.2054 -0.1819
  836MOL0     C12781   4.330   9.623   2.363  0.0093 -0.0256  0.0966
  836MOL0     C12782   4.296   9.745   2.413 -0.2439 -0.4061  0.0437
  836MOL0     C12783   4.167   9.790   2.413 -0.2478  0.2404 -0.4710
  836MOL0     O12784   4.141   9.914   2.465 -0.0651 -0.4303  0.1915
  836MOL0     C12785   4.062   9.918   2.583 -0.4830  0.7391 -0.1220
  836MOL0     C12786   4.063  10.054   2.645 -0.5245  0.6099 -1.7806
  836MOL0     C12787   4.195  10.084   2.724 -0.5995 -0.9063 -0.5062
  836MOL0     C12788   4.209  10.230   2.753 -0.2357 -0.0199  0.1038
  836MOL0     C12789   4.337  10.247   2.819 -0.3774  0.5617 -0.6440
  836MOL0     C12790   4.449  10.256   2.863  0.8099 -0.1240 -0.7889
  836MOL0     C12791   4.067   9.713   2.353 -0.8892 -0.4314  0.2378
  836MOL0     C12792   4.102   9.589   2.291 -0.0917  1.0729 -0.2001
  836MOL0     H12793   4.107   9.287   1.933  1.0541 -0.9975 -1.1960
  836MOL0     H12794   4.137   9.059   1.811  2.2510 -0.1638 -0.8037
  836MOL0     H12795   4.504   9.008   1.885 -0.1786  0.9513 -1.7798
  836MOL0     H12796   4.514   8.837   1.856  0.6041 -0.0204  2.1203
  836MOL0     H12797   4.401   9.057   1.680  3.7278  1.5402  0.0190
  836MOL0     H12798   4.538   8.947   1.647 -0.8381 -0.6872 -2.1263
  836MOL0     H12799   4.387   8.769   1.609 -0.6450  0.0781  1.2518
  836MOL0     H12800   4.247   8.861   1.656  0.2251 -0.0894  0.7973
  836MOL0     H12801   4.308   9.031   1.456  6.1576  2.1174 -1.5388
  836MOL0     H12802   4.434   8.931   1.421  0.6587 -2.2378  0.8994
  836MOL0     H12803   4.154   8.828   1.429  1.4865  0.3381  2.9719
  836MOL0     H12804   4.241   8.902   1.284 -0.5525  0.1220 -0.0003
  836MOL0     H12805   4.425   8.716   1.317  0.0338  2.0314 -0.0837
  836MOL0     H12806   4.315   8.637   1.435 -0.1909  1.5592  1.5454
  836MOL0     H12807   4.138   8.668   1.245 -0.1811  1.6091  2.9566
  836MOL0     H12808   4.280   8.680   1.134  0.1097 -0.2881  0.1533
  836MOL0     H12809   4.185   8.456   1.144  0.6903 -0.0111 -0.7770
  836MOL0     H12810   4.217   8.455   1.314 -0.8117  0.3392 -1.2409
  836MOL0     H12811   4.474   8.396   1.374  1.0106 -1.2769 -0.3495
  836MOL0     H12812   4.811   8.371   1.182  2.0413 -2.6444 -0.6138
  836MOL0     H12813   4.743   8.319   1.339  0.7390  0.3978 -0.9237
  836MOL0     H12814   4.748   8.143   1.087  0.9558  1.9203 -0.5783
  836MOL0     H12815   4.616   8.135   1.212  0.8548  3.4172  7.4412
  836MOL0     H12816   4.757   7.985   1.291 -0.4922  0.6340 -2.1249
  836MOL0     H12817   4.810   8.124   1.385 -0.5207  2.3516 -0.8303
  836MOL0     H12818   4.950   8.028   1.124 -0.3292  1.1385 -0.5410
  836MOL0     H12819   5.009   8.004   1.288 -0.4622  0.1377  1.1704
  836MOL0     H12820   5.038   8.449   1.258 -1.5486 -1.5211 -0.6941
  836MOL0     H12821   5.081   8.684   1.526 -3.7120  2.6125 -3.0637
  836MOL0     H12822   5.224   8.666   1.416 -0.5640 -0.8390 -3.5557
  836MOL0     H12823   5.066   8.670   1.345  4.3704  5.0806 -2.4092
  836MOL0     H12824   5.423   8.400   1.938 -0.1436  0.8490 -1.8193
  836MOL0     H12825   5.491   8.521   2.129 -0.0393 -0.7552  0.7971
  836MOL0     H12826   5.206   8.524   2.476 -0.8212  0.2270 -0.1701
  836MOL0     H12827   5.335   8.428   2.415 -0.6882 -0.3653  0.8307
  836MOL0     H12828   5.376   8.519   2.636  0.7517 -0.7239  0.5625
  836MOL0     H12829   5.499   8.589   2.528 -0.6191  2.4866  0.1206
  836MOL0     H12830   5.376   8.801   2.500  0.9810 -0.0324  0.5069
  836MOL0     H12831   5.415   8.770   2.674 -0.2992 -1.3622  0.2326
  836MOL0     H12832   5.136   8.739   2.546  0.4037  0.8328 -0.0144
  836MOL0     H12833   5.199   8.671   2.702  0.5702  0.2101  0.3437
  836MOL0     H12834   5.073   8.906   2.646  0.0231 -1.1962  0.6676
  836MOL0     H12835   5.238   8.969   2.643 -0.6621  0.0002 -1.3531
  836MOL0     H12836   5.065   8.825   2.851 -0.4403  1.6277  1.8583
  836MOL0     H12837   5.242   8.811   2.867  1.4409  0.0275 -4.6837
  836MOL0     H12838   5.103   8.996   3.003 -0.8679 -1.2562 -1.1258
  836MOL0     H12839   5.082   9.073   2.849 -0.7370 -1.4774 -1.6150
  836MOL0     H12840   5.265   9.177   2.990  0.8468  0.4368 -0.6766
  836MOL0     H12841   5.346   9.093   2.858  1.6937 -0.3568  0.9956
  836MOL0     H12842   5.077   8.588   2.227 -1.3934 -1.3712 -0.3292
  836MOL0     H12843   5.015   8.473   2.018 -0.2671  1.4944  0.6699
  836MOL0     H12844   5.128   8.220   1.680 -1.3842 -1.3000 -0.6355
  836MOL0     H12845   5.070   8.086   1.471 -0.4208  0.0625 -2.8830
  836MOL0     H12846   4.368   8.926   2.145 -0.9728 -0.0193  0.5343
  836MOL0     H12847   4.309   9.139   2.270  1.2633 -1.8857 -0.0960
  836MOL0     H12848   4.434   9.598   2.376  0.3286  1.3628  0.3872
  836MOL0     H12849   4.363   9.810   2.468  1.4238 -0.2903 -2.0188
  836MOL0     H12850   3.959   9.896   2.554 -0.2272 -2.0854  0.9029
  836MOL0     H12851   4.104   9.839   2.645  0.1957  1.4225  0.3170
  836MOL0     H12852   3.986  10.049   2.722  1.2735 -1.1864  0.0454
  836MOL0     H12853   4.040  10.139   2.581 -2.0863  1.2834 -0.4178
  836MOL0     H12854   4.278  10.058   2.658  0.7988 -0.7748  1.1143
  836MOL0     H12855   4.201  10.027   2.817 -1.5029  0.4344  0.4158
  836MOL0     H12856   4.120  10.256   2.810 -1.4092  2.8575 -2.7263
  836MOL0     H12857   4.212  10.289   2.661  0.0500 -0.2725 -0.0520
  836MOL0     H12858   4.545  10.256   2.912  0.2303  0.4359  0.3885
  836MOL0     H12859   3.964   9.746   2.343 -0.1597  1.2883 -2.3995
  836MOL0     H12860   4.036   9.527   2.232 -1.2629  2.0337  0.0693
  837MOL0     O12861   2.514   2.581   6.351 -0.2117  0.4591  0.5263
  837MOL0     C12862   2.562   2.511   6.268 -0.4767  0.9869  0.4479
  837MOL0     O12863   2.685   2.540   6.192 -0.5139 -0.5179  0.1303
  837MOL0     C12864   2.750   2.655   6.213 -0.8085  0.2703 -0.2870
  837MOL0     C12865   2.875   2.655   6.280  0.7233 -0.4653 -0.6337
  837MOL0     C12866   2.949   2.778   6.283 -0.6411  0.4794 -1.4628
  837MOL0     C12867   2.897   2.896   6.221  0.1028 -0.4465  0.4169
  837MOL0     O12868   2.979   3.005   6.205  0.4324 -0.4239  0.1066
  837MOL0     C12869   3.104   3.015   6.257 -0.0546 -0.6480  0.7652
  837MOL0     C12870   3.151   3.161   6.233  0.6894 -0.0557  0.5657
  837MOL0     C12871   3.306   3.160   6.233 -0.0044 -0.6106  0.2098
  837MOL0     C12872   3.361   3.147   6.376 -1.2474 -0.3556 -0.0910
  837MOL0     C12873   3.516   3.167   6.378 -0.5195 -1.3767 -0.4945
  837MOL0     C12874   3.597   3.049   6.320  0.0141  0.0275 -0.4993
  837MOL0     C12875   3.606   2.921   6.407  0.2927  0.0013  0.1872
  837MOL0     C12876   3.652   2.792   6.341  0.1939 -0.2525 -0.0419
  837MOL0     N12877   3.542   2.723   6.270  0.8640 -0.6092  0.0418
  837MOL0     C12878   3.501   2.749   6.140 -0.7049 -0.7106 -0.1760
  837MOL0     C12879   3.384   2.683   6.134 -0.3431  0.0837  0.0985
  837MOL0     C12880   3.311   2.670   6.006 -0.1539 -1.0864 -0.5146
  837MOL0     C12881   3.285   2.534   5.948 -0.4375 -0.1894  0.5618
  837MOL0     C12882   3.416   2.449   5.920  0.3598 -0.7947 -0.7001
  837MOL0     C12883   3.380   2.342   5.810  0.1942  0.0900  0.3165
  837MOL0     O12884   3.370   2.406   5.681  0.3044 -0.4652  0.4154
  837MOL0     C12885   3.305   2.337   5.575 -0.2135 -0.7721  0.4115
  837MOL0     C12886   3.318   2.408   5.457 -0.2963  0.1323  0.2024
  837MOL0     C12887   3.263   2.365   5.332 -0.1433  0.4578  0.1302
  837MOL0     C12888   3.303   2.439   5.201 -0.4307  0.4506 -0.0941
  837MOL0     C12889   3.187   2.248   5.332 -0.5647 -0.3401 -0.2414
  837MOL0     C12890   3.122   2.186   5.212  1.0063  0.5149 -0.5795
  837MOL0     O12891   3.063   2.064   5.224 -0.5082 -0.4078 -0.1212
  837MOL0     C12892   3.053   1.977   5.119  0.8753 -0.0339  0.8847
  837MOL0     C12893   2.931   1.913   5.099 -0.6478 -0.0910 -0.1025
  837MOL0     C12894   2.913   1.838   4.982  0.3778 -0.0796  0.1875
  837MOL0     C12895   3.015   1.800   4.893 -0.3429 -0.5157 -0.3530
  837MOL0     O12896   2.988   1.706   4.798 -0.9072 -0.6174  0.2472
  837MOL0     C12897   2.867   1.630   4.794 -0.6128 -0.9981  0.2238
  837MOL0     C12898   2.865   1.520   4.677 -0.3033  0.3716  0.3198
  837MOL0     C12899   2.732   1.449   4.678 -0.2546  1.0357  0.2197
  837MOL0     C12900   2.701   1.348   4.562  0.0690 -0.1065  0.4424
  837MOL0     C12901   2.566   1.275   4.597  0.2002  0.1408 -0.1289
  837MOL0     C12902   2.551   1.169   4.492 -0.2189 -0.2195 -0.3047
  837MOL0     C12903   2.425   1.098   4.510  1.4834  0.3960  0.1115
  837MOL0     C12904   2.379   1.011   4.396 -0.8857  0.8106  0.1867
  837MOL0    Cl12905   2.472   0.852   4.410  0.2348 -0.6000  0.4509
  837MOL0     C12906   3.136   1.851   4.922 -0.2913 -0.3956  0.2610
  837MOL0     C12907   3.157   1.935   5.032 -0.5760  0.3252  1.4998
  837MOL0     O12908   3.144   2.238   5.104  0.1227 -0.2735 -0.1349
  837MOL0     C12909   3.173   2.183   5.451 -1.0197  0.1221 -1.0509
  837MOL0     C12910   3.229   2.219   5.570 -0.1111 -0.3753 -0.6366
  837MOL0     N12911   3.344   2.621   6.250 -0.4727 -1.1465  0.3620
  837MOL0     N12912   3.443   2.655   6.331 -0.1736  0.7358  0.6646
  837MOL0     C12913   2.768   2.891   6.162  0.1971 -0.2977 -0.0329
  837MOL0     C12914   2.699   2.773   6.154 -0.3347  0.1240 -0.1428
  837MOL0     C12915   2.506   2.379   6.234  0.0388 -0.3044 -1.0962
  837MOL0     C12916   2.422   2.316   6.318 -0.7130  0.1060  0.3670
  837MOL0     C12917   2.375   2.186   6.283 -0.8876 -1.0464 -0.2771
  837MOL0     C12918   2.395   2.124   6.161 -0.1269 -1.1939 -0.0428
  837MOL0     O12919   2.330   2.002   6.141  0.6756 -0.3832  0.4438
  837MOL0     C12920   2.390   1.913   6.044 -0.0056  0.1233  0.6234
  837MOL0     C12921   2.345   1.930   5.903  0.2541 -0.8097 -0.6458
  837MOL0     C12922   2.195   1.920   5.873  1.3107 -0.2436 -1.0880
  837MOL0     C12923   2.140   1.779   5.910  0.7157 -0.8992 -0.3172
  837MOL0     C12924   2.199   1.675   5.836 -0.2323  1.3980 -0.3134
  837MOL0     C12925   2.235   1.571   5.770 -0.1760 -0.1461  0.0835
  837MOL0     C12926   2.492   2.187   6.080  0.1125 -0.2293 -0.1650
  837MOL0     C12927   2.546   2.312   6.112  0.5849  0.6808 -0.6464
  837MOL0     H12928   2.917   2.566   6.325 -2.5829 -1.2244  1.2864
  837MOL0     H12929   3.043   2.770   6.336 -0.4370  1.0963 -1.7291
  837MOL0     H12930   3.103   2.996   6.364  0.2493 -0.8666  0.7297
  837MOL0     H12931   3.173   2.948   6.204 -2.8258 -2.8003 -0.3614
  837MOL0     H12932   3.114   3.187   6.134  1.4814 -0.3700  0.1805
  837MOL0     H12933   3.106   3.229   6.306  0.0536  1.8371 -1.4884
  837MOL0     H12934   3.338   3.083   6.163  0.1801  2.0690 -2.9546
  837MOL0     H12935   3.342   3.254   6.189  2.8037 -1.4532  0.5050
  837MOL0     H12936   3.315   3.215   6.449 -0.8273  1.5295 -1.4876
  837MOL0     H12937   3.348   3.046   6.416 -1.6282 -1.3751 -2.6242
  837MOL0     H12938   3.539   3.258   6.322 -1.0303 -0.8908  0.0701
  837MOL0     H12939   3.538   3.191   6.483 -1.6304  0.2690 -0.6084
  837MOL0     H12940   3.550   3.024   6.224  0.7735 -0.7551 -0.6753
  837MOL0     H12941   3.701   3.080   6.311  0.8251 -2.9227 -2.9281
  837MOL0     H12942   3.674   2.946   6.489  0.9744 -0.5122 -0.2148
  837MOL0     H12943   3.501   2.910   6.437  0.1160  1.0667 -0.0160
  837MOL0     H12944   3.704   2.713   6.396  0.3098 -1.1385 -1.3578
  837MOL0     H12945   3.731   2.837   6.280  1.8889 -2.5661  0.2989
  837MOL0     H12946   3.548   2.805   6.060 -2.0304 -1.3513 -1.4566
  837MOL0     H12947   3.210   2.707   6.024 -1.3778 -4.7180  1.0098
  837MOL0     H12948   3.349   2.744   5.934  2.7992 -1.0517  0.9298
  837MOL0     H12949   3.231   2.577   5.862  1.1732  2.3064  0.6910
  837MOL0     H12950   3.205   2.485   6.004 -1.3047  0.7283  0.1579
  837MOL0     H12951   3.440   2.419   6.022 -3.1341  1.4456  0.9922
  837MOL0     H12952   3.498   2.510   5.882 -1.9429  0.2598 -4.6798
  837MOL0     H12953   3.283   2.299   5.836 -0.4898  0.0585 -2.1203
  837MOL0     H12954   3.463   2.271   5.800  0.0838 -0.2093  1.3424
  837MOL0     H12955   3.392   2.488   5.454  0.4442 -0.5570 -0.5597
  837MOL0     H12956   3.354   2.377   5.127 -0.0925  1.0498 -0.3767
  837MOL0     H12957   3.220   2.485   5.146  0.6016  0.5005 -1.7022
  837MOL0     H12958   3.374   2.520   5.222  2.6480 -1.9551 -0.5165
  837MOL0     H12959   2.846   1.920   5.167  0.7912  0.3888  1.7237
  837MOL0     H12960   2.811   1.800   4.981  1.7577 -4.3624  0.3616
  837MOL0     H12961   2.849   1.571   4.884  1.7646 -2.2936 -0.0559
  837MOL0     H12962   2.792   1.706   4.771  1.1301  0.9943  0.8249
  837MOL0     H12963   2.862   1.573   4.582 -2.1347  1.4477  0.9239
  837MOL0     H12964   2.956   1.459   4.675  0.9458  2.1616 -2.3657
  837MOL0     H12965   2.654   1.525   4.689 -1.4138 -0.1684  0.5238
  837MOL0     H12966   2.734   1.392   4.771 -2.1189  2.0989  0.9623
  837MOL0     H12967   2.701   1.397   4.464 -2.1751 -2.0853 -0.6757
  837MOL0     H12968   2.778   1.271   4.555  0.8405  0.4351  2.4244
  837MOL0     H12969   2.475   1.337   4.596  0.2949  0.4179 -3.9147
  837MOL0     H12970   2.568   1.234   4.699  1.8438 -1.3980 -0.7343
  837MOL0     H12971   2.579   1.214   4.396  3.9916 -1.3579  0.1725
  837MOL0     H12972   2.634   1.099   4.500  0.9688  0.8092 -2.5397
  837MOL0     H12973   2.340   1.167   4.508  0.3601 -0.9433  0.1943
  837MOL0     H12974   2.424   1.046   4.606 -0.8959  0.3534  0.1275
  837MOL0     H12975   2.391   1.059   4.298 -0.2307 -1.2439 -0.7873
  837MOL0     H12976   2.273   0.987   4.407 -0.6077 -0.1789  0.7795
  837MOL0     H12977   3.210   1.842   4.843 -0.6387  0.1546 -0.1290
  837MOL0     H12978   3.260   1.958   5.055  0.2335 -1.1005 -0.4601
  837MOL0     H12979   3.101   2.102   5.463 -0.3812 -0.4957 -1.3219
  837MOL0     H12980   3.209   2.169   5.664 -0.1984  1.4993  0.3963
  837MOL0     H12981   2.719   2.975   6.115 -0.2539  1.0029  2.5532
  837MOL0     H12982   2.602   2.777   6.104 -0.6216 -2.0971  0.1072
  837MOL0     H12983   2.407   2.369   6.412  2.4470  0.5210  0.7657
  837MOL0     H12984   2.309   2.130   6.348 -2.1014 -0.5551 -1.0626
  837MOL0     H12985   2.499   1.912   6.055  0.3749 -3.7364 -1.7039
  837MOL0     H12986   2.363   1.812   6.074 -2.2459  0.7854  1.0423
  837MOL0     H12987   2.390   1.857   5.835 -0.4284 -2.1433  0.3004
  837MOL0     H12988   2.376   2.026   5.861 -0.3644 -0.9512 -1.4594
  837MOL0     H12989   2.170   1.933   5.767 -1.0307  3.4772 -0.2424
  837MOL0     H12990   2.128   1.991   5.921  2.5403  1.1489 -1.3836
  837MOL0     H12991   2.031   1.775   5.906  0.4504  1.8966  1.4440
  837MOL0     H12992   2.156   1.763   6.018 -0.9335  0.4716  0.1707
  837MOL0     H12993   2.276   1.489   5.716 -0.3483  0.4797 -1.0253
  837MOL0     H12994   2.540   2.133   5.998 -2.1627 -2.0042 -0.4236
  837MOL0     H12995   2.612   2.345   6.032  2.1310 -3.0630 -1.1247
  838MOL0     O12996   5.796  10.474   1.045 -0.0059  0.8501 -0.2626
  838MOL0     C12997   5.738  10.408   1.135 -0.3521 -0.4800  0.0775
  838MOL0     O12998   5.794  10.387   1.263  0.4516  0.1703  0.2076
  838MOL0     C12999   5.907  10.455   1.296 -0.1622  0.7053  0.7797
  838MOL0     C13000   6.024  10.428   1.230 -0.0052  0.5488  0.2047
  838MOL0     C13001   6.144  10.499   1.252  0.2087  0.0045  0.9529
  838MOL0     C13002   6.143  10.594   1.353  0.1424 -0.3157  0.1845
  838MOL0     O13003   6.255  10.665   1.356 -0.2366 -0.2021  0.2295
  838MOL0     C13004   6.300  10.724   1.475 -0.1940 -0.2875  0.3251
  838MOL0     C13005   6.357  10.631   1.577  0.5012 -0.2136  0.5433
  838MOL0     C13006   6.452  10.517   1.521 -0.7708  0.5911  0.1723
  838MOL0     C13007   6.540  10.450   1.625 -0.0081  0.4479  0.3987
  838MOL0     C13008   6.672  10.396   1.563  0.9305  0.7764  0.8862
  838MOL0     C13009   6.768  10.344   1.674  0.3487 -0.2291 -0.0922
  838MOL0     C13010   6.906  10.304   1.628  0.1076  0.1586 -0.4075
  838MOL0     C13011   7.012  10.275   1.735 -0.7955 -0.0363 -0.2442
  838MOL0     N13012   7.019  10.138   1.774  0.2177 -0.0357 -1.2111
  838MOL0     C13013   6.916  10.086   1.851 -0.1115  0.0484  0.6402
  838MOL0     C13014   6.940   9.954   1.845 -0.7873 -0.4668  0.1917
  838MOL0     C13015   6.862   9.842   1.919  0.5414 -0.6346  0.6595
  838MOL0     C13016   6.727   9.814   1.846  0.3161 -0.1878  0.0531
  838MOL0     C13017   6.619   9.919   1.871  0.0804 -0.7189 -0.1851
  838MOL0     C13018   6.502   9.906   1.772  0.5116 -0.0834  0.5894
  838MOL0     O13019   6.550   9.953   1.645  0.2494  1.2080  0.3819
  838MOL0     C13020   6.456   9.982   1.546  0.1014 -0.3384  0.2249
  838MOL0     C13021   6.317   9.960   1.559 -0.0039 -0.0914  0.2955
  838MOL0     C13022   6.230  10.003   1.460  0.8181 -1.6314 -0.1894
  838MOL0     C13023   6.084  10.006   1.513  0.0691 -0.3961 -0.2543
  838MOL0     C13024   6.282  10.063   1.336 -0.3002 -0.0245  0.4640
  838MOL0     C13025   6.188  10.102   1.222 -0.1928  0.8114  0.0328
  838MOL0     O13026   6.059  10.073   1.237 -0.4760  0.0572 -0.6362
  838MOL0     C13027   5.962  10.073   1.146  0.0994 -0.3650  0.0218
  838MOL0     C13028   5.842  10.013   1.182 -0.5664 -0.4289 -0.9275
  838MOL0     C13029   5.738  10.012   1.099  1.0618  0.8055  0.4644
  838MOL0     C13030   5.751  10.050   0.964 -0.0996  0.2355  0.7252
  838MOL0     O13031   5.638  10.042   0.876 -0.6476 -0.1203 -0.7532
  838MOL0     C13032   5.673  10.014   0.734  0.9528 -0.0988 -0.1826
  838MOL0     C13033   5.546   9.956   0.675 -0.5540 -0.3132  0.8879
  838MOL0     C13034   5.575   9.864   0.556  0.3541 -0.0527 -0.5157
  838MOL0     C13035   5.616   9.730   0.593  0.1445  0.1936  0.7835
  838MOL0     C13036   5.638   9.664   0.460 -1.0606 -0.5411  0.7020
  838MOL0     C13037   5.699   9.534   0.477  0.0234  0.9433 -0.1695
  838MOL0     C13038   5.772   9.493   0.342  0.6924 -0.8031 -0.5243
  838MOL0     C13039   5.780   9.344   0.316 -0.3812  0.4355 -0.2905
  838MOL0    Cl13040   5.864   9.307   0.162  0.1530  0.1177 -0.1664
  838MOL0     C13041   5.867  10.129   0.930  0.3982 -0.6595  0.3054
  838MOL0     C13042   5.970  10.136   1.021 -0.4683 -0.8245 -0.3194
  838MOL0     O13043   6.241  10.163   1.128 -0.4382 -0.0726 -0.1888
  838MOL0     C13044   6.420  10.083   1.324 -0.5924 -0.0919  1.0161
  838MOL0     C13045   6.499  10.049   1.427 -0.0132  0.5539 -0.2944
  838MOL0     N13046   7.042   9.925   1.761  0.7294  0.6796  0.5934
  838MOL0     N13047   7.083  10.043   1.706  0.7362  0.0832  1.3056
  838MOL0     C13048   6.025  10.607   1.439  0.1312 -0.1851  0.1753
  838MOL0     C13049   5.907  10.541   1.401 -0.8991 -0.4551 -1.4787
  838MOL0     C13050   5.615  10.331   1.106  0.0770 -1.6902 -0.1981
  838MOL0     C13051   5.543  10.259   1.204 -0.2873  0.0415  0.8202
  838MOL0     C13052   5.420  10.198   1.171 -0.3510 -0.0122 -0.6100
  838MOL0     C13053   5.376  10.191   1.038  0.1767  0.0802  0.3999
  838MOL0     O13054   5.266  10.110   1.022 -0.6675 -0.4335  0.2932
  838MOL0     C13055   5.183  10.117   0.903 -0.4216 -0.7079  0.7321
  838MOL0     C13056   5.044  10.060   0.933 -0.3272  0.0633 -0.5504
  838MOL0     C13057   5.034   9.953   1.045 -0.1844 -0.7635  0.2886
  838MOL0     C13058   5.094   9.815   1.023 -0.5802  0.1167  0.1415
  838MOL0     C13059   5.022   9.743   0.918  0.1673  0.7156  0.5089
  838MOL0     C13060   4.967   9.669   0.832  0.2350 -0.7110 -0.4320
  838MOL0     C13061   5.450  10.245   0.940  0.0059  0.1744  0.0137
  838MOL0     C13062   5.568  10.316   0.971  0.2143 -0.3889 -0.1347
  838MOL0     H13063   6.022  10.376   1.135  1.1446  1.7360 -0.5041
  838MOL0     H13064   6.228  10.486   1.184  0.3484  1.8049  0.7195
  838MOL0     H13065   6.376  10.789   1.429  0.5775 -0.7975  0.8612
  838MOL0     H13066   6.222  10.781   1.527  2.2129  0.7987  3.0452
  838MOL0     H13067   6.420  10.690   1.644  2.7187 -2.1792  0.3197
  838MOL0     H13068   6.271  10.585   1.627 -2.0374  1.4592 -1.9519
  838MOL0     H13069   6.398  10.450   1.454 -1.3235  4.2481 -3.4675
  838MOL0     H13070   6.529  10.557   1.454  1.0780  1.0811  2.4663
  838MOL0     H13071   6.555  10.531   1.696 -0.6867  1.8294 -0.9741
  838MOL0     H13072   6.490  10.365   1.673  2.2042 -0.4195  1.2801
  838MOL0     H13073   6.655  10.309   1.498  2.0529 -0.3188  1.9822
  838MOL0     H13074   6.728  10.470   1.506  2.9905 -1.1058  0.3017
  838MOL0     H13075   6.782  10.410   1.760  1.1656  1.1871 -1.2660
  838MOL0     H13076   6.724  10.252   1.715 -0.5771 -0.0373 -0.6400
  838MOL0     H13077   6.895  10.217   1.562  1.2819 -0.3285  0.0063
  838MOL0     H13078   6.938  10.374   1.551  2.0721 -0.7470 -0.5025
  838MOL0     H13079   6.991  10.338   1.822 -1.4028  0.6457 -0.8660
  838MOL0     H13080   7.111  10.300   1.697 -0.1886  3.5963  3.0694
  838MOL0     H13081   6.837  10.139   1.903 -0.3367 -0.5113  0.8771
  838MOL0     H13082   6.912   9.745   1.916  2.1349  0.0460  2.7878
  838MOL0     H13083   6.846   9.855   2.027  0.8719 -0.9304  0.7467
  838MOL0     H13084   6.686   9.714   1.864 -1.1858  0.2106 -0.9207
  838MOL0     H13085   6.752   9.809   1.740  2.3926 -1.3041  0.5395
  838MOL0     H13086   6.658  10.020   1.861 -0.1275 -0.5868  0.3017
  838MOL0     H13087   6.582   9.912   1.974 -1.9704  0.7935 -0.7477
  838MOL0     H13088   6.423   9.977   1.798  3.5745  3.1417  1.9297
  838MOL0     H13089   6.462   9.805   1.766 -0.4472  0.2728  0.8454
  838MOL0     H13090   6.281   9.932   1.658 -0.1303 -0.1461  0.2339
  838MOL0     H13091   6.025   9.923   1.473 -0.2073  0.2279 -1.1808
  838MOL0     H13092   6.073  10.005   1.622  0.7775 -2.1106 -0.1626
  838MOL0     H13093   6.031  10.097   1.483 -1.5121 -1.9524 -2.4676
  838MOL0     H13094   5.842   9.973   1.283  0.0352 -0.7428 -1.0474
  838MOL0     H13095   5.644   9.971   1.135  2.3219 -1.9882  0.8125
  838MOL0     H13096   5.710  10.096   0.673 -2.0178  1.4951 -0.0175
  838MOL0     H13097   5.750   9.936   0.738  0.0908 -1.0047 -0.9230
  838MOL0     H13098   5.490   9.906   0.755 -2.4518  0.8795  0.3830
  838MOL0     H13099   5.488  10.042   0.641 -0.0732 -0.4414 -0.3073
  838MOL0     H13100   5.651   9.912   0.495  1.2462 -1.5344 -0.6114
  838MOL0     H13101   5.479   9.847   0.506  0.5867 -1.4151 -0.5377
  838MOL0     H13102   5.712   9.737   0.643  0.7661 -1.0192 -0.1890
  838MOL0     H13103   5.533   9.691   0.653 -0.7213  1.6728  0.6213
  838MOL0     H13104   5.708   9.729   0.407 -1.1952  2.8377  4.1448
  838MOL0     H13105   5.546   9.659   0.402 -0.9867  0.8780  0.4339
  838MOL0     H13106   5.770   9.533   0.561  1.2645 -0.6208 -1.1761
  838MOL0     H13107   5.616   9.466   0.495  1.2941 -0.3383  1.2144
  838MOL0     H13108   5.871   9.539   0.331  0.0460  2.4810  4.2250
  838MOL0     H13109   5.709   9.541   0.266 -0.3814  2.3038  2.0816
  838MOL0     H13110   5.681   9.298   0.313  0.2347 -1.1182  1.6087
  838MOL0     H13111   5.834   9.299   0.399 -0.0927 -0.1631 -0.7967
  838MOL0     H13112   5.880  10.172   0.831  1.0045 -2.0068 -0.2213
  838MOL0     H13113   6.058  10.178   0.973 -1.4569 -0.1748 -1.6419
  838MOL0     H13114   6.460  10.110   1.227  1.3274  1.3807  2.1464
  838MOL0     H13115   6.606  10.067   1.421  0.4746 -0.8175  2.6780
  838MOL0     H13116   6.011  10.678   1.519 -1.4357 -0.4005  0.1355
  838MOL0     H13117   5.821  10.564   1.463  1.8362  2.8182  1.5405
  838MOL0     H13118   5.555  10.236   1.310 -0.6317 -1.0935  0.6340
  838MOL0     H13119   5.350  10.157   1.243 -0.1977 -0.5466 -0.7609
  838MOL0     H13120   5.178  10.215   0.856  1.5022 -0.5906  0.6750
  838MOL0     H13121   5.230  10.047   0.833 -1.0749  0.0084 -0.4537
  838MOL0     H13122   4.996  10.037   0.838  1.5544  1.2514 -1.8474
  838MOL0     H13123   4.992  10.146   0.975 -1.8521 -0.1762 -1.8588
  838MOL0     H13124   4.925   9.940   1.053 -0.1243 -2.8929 -1.5582
  838MOL0     H13125   5.072   9.990   1.141 -1.3563 -1.2199  0.9606
  838MOL0     H13126   5.092   9.748   1.109  0.0006 -0.0616  0.0220
  838MOL0     H13127   5.198   9.821   0.989 -0.6667  0.8350 -0.0263
  838MOL0     H13128   4.917   9.606   0.762 -0.8659  0.8914 -1.1436
  838MOL0     H13129   5.414  10.243   0.838  2.1423 -2.7318 -0.8250
  838MOL0     H13130   5.633  10.353   0.893 -0.3012  1.1012  0.1013
  839MOL0     O13131   8.415   0.289   7.985 -0.2756  0.1948  0.3429
  839MOL0     C13132   8.372   0.217   8.072 -1.1135  0.1678  0.3670
  839MOL0     O13133   8.252   0.231   8.131 -0.0040 -0.9196  0.5193
  839MOL0     C13134   8.159   0.323   8.087 -0.8419 -0.0569 -0.4787
  839MOL0     C13135   8.087   0.390   8.188  0.3888 -0.4932 -0.2930
  839MOL0     C13136   8.007   0.499   8.162  0.2848 -0.6786 -0.9329
  839MOL0     C13137   7.990   0.536   8.021 -0.1065  0.3559  0.1318
  839MOL0     O13138   7.903   0.637   7.982 -0.3267 -0.0568  0.1898
  839MOL0     C13139   7.817   0.706   8.075 -0.4943 -0.2346  0.9718
  839MOL0     C13140   7.725   0.809   8.016 -0.0082  0.3692 -0.5635
  839MOL0     C13141   7.633   0.750   7.907 -0.4946 -0.8699  0.6565
  839MOL0     C13142   7.534   0.852   7.838  0.7392  0.1184 -0.5951
  839MOL0     C13143   7.605   0.962   7.753 -0.0629  0.2971 -1.1035
  839MOL0     C13144   7.710   0.918   7.652 -0.3832 -0.4083 -0.9850
  839MOL0     C13145   7.792   1.035   7.607  0.3298 -0.2357  0.2709
  839MOL0     C13146   7.877   1.019   7.482  0.6524 -0.0378 -0.5033
  839MOL0     N13147   7.781   0.973   7.378  0.9819 -0.3129 -0.2425
  839MOL0     C13148   7.715   1.057   7.292 -0.5722 -0.4373 -0.3749
  839MOL0     C13149   7.663   0.985   7.192 -0.0676 -0.6240  0.1990
  839MOL0     C13150   7.574   1.038   7.082  0.2213  0.3165  0.2110
  839MOL0     C13151   7.655   1.062   6.961 -0.5651  0.1641 -0.2254
  839MOL0     C13152   7.583   1.113   6.846  0.7945 -0.1515  1.1134
  839MOL0     C13153   7.674   1.138   6.729 -0.4050 -0.8539 -0.1619
  839MOL0     O13154   7.751   1.260   6.752  0.7331 -0.1200 -0.5679
  839MOL0     C13155   7.726   1.359   6.664  0.1491  0.1433  0.3132
  839MOL0     C13156   7.782   1.357   6.534 -0.0962  0.3919  0.9540
  839MOL0     C13157   7.774   1.479   6.457  0.0155  1.7726 -0.4456
  839MOL0     C13158   7.882   1.472   6.345 -0.7212  0.4112  0.0836
  839MOL0     C13159   7.706   1.598   6.508 -0.1913  0.2504 -0.4947
  839MOL0     C13160   7.698   1.722   6.429  0.8366  1.4026  0.2488
  839MOL0     O13161   7.641   1.826   6.490 -0.6163  0.0077  0.4411
  839MOL0     C13162   7.628   1.950   6.426  0.1430  0.3423 -0.3371
  839MOL0     C13163   7.741   2.021   6.381 -0.6676 -0.3329 -0.2552
  839MOL0     C13164   7.727   2.148   6.325 -0.3481 -0.5339 -0.3594
  839MOL0     C13165   7.605   2.206   6.303  0.9033 -0.8539 -1.1128
  839MOL0     O13166   7.608   2.329   6.233  0.4929  0.5244  0.3501
  839MOL0     C13167   7.496   2.410   6.244  0.3839  0.4549  0.3581
  839MOL0     C13168   7.518   2.554   6.193 -0.3339  0.2486  0.6317
  839MOL0     C13169   7.379   2.616   6.191 -0.0753  0.4342 -0.4358
  839MOL0     C13170   7.363   2.736   6.101  1.3359 -0.1179 -0.0637
  839MOL0     C13171   7.253   2.826   6.149  0.3486  0.3709  0.1447
  839MOL0     C13172   7.228   2.972   6.088  0.4192 -0.0341  0.2593
  839MOL0     C13173   7.178   2.974   5.937 -0.6535  0.3504 -0.3022
  839MOL0     C13174   7.121   3.104   5.893 -0.2913 -1.2036 -0.1856
  839MOL0    Cl13175   7.237   3.234   5.857  0.2161 -0.3775 -0.2782
  839MOL0     C13176   7.495   2.146   6.351  0.3862  0.5009 -0.4982
  839MOL0     C13177   7.500   2.023   6.419  0.1897 -0.1224 -1.0459
  839MOL0     O13178   7.721   1.714   6.310  0.2143 -0.1575 -0.1153
  839MOL0     C13179   7.636   1.586   6.632 -0.0712 -0.2797  0.7014
  839MOL0     C13180   7.651   1.470   6.705  0.1081  0.7603 -0.0494
  839MOL0     N13181   7.700   0.853   7.213 -0.1106 -0.1576 -0.9991
  839MOL0     N13182   7.779   0.843   7.322  0.9244  0.3755 -0.2164
  839MOL0     C13183   8.066   0.478   7.927 -0.0285 -0.6529 -0.3338
  839MOL0     C13184   8.140   0.368   7.951 -0.4673 -0.2985 -0.7162
  839MOL0     C13185   8.471   0.130   8.123  0.2294  0.0350 -0.9593
  839MOL0     C13186   8.600   0.134   8.072 -0.0887 -0.2151  0.4929
  839MOL0     C13187   8.698   0.049   8.119  0.0903 -0.6212  0.0351
  839MOL0     C13188   8.678  -0.038   8.225 -0.6840  0.0087 -0.3786
  839MOL0     O13189   8.783  -0.109   8.282 -0.2901  0.0891  0.2061
  839MOL0     C13190   8.909  -0.043   8.276 -0.1414  0.1465  0.0315
  839MOL0     C13191   9.006  -0.113   8.376 -1.4324 -0.3470 -0.7364
  839MOL0     C13192   9.031  -0.258   8.348 -1.5176 -0.1532  0.9110
  839MOL0     C13193   9.089  -0.335   8.467 -0.2059  0.1749  0.9386
  839MOL0     C13194   8.994  -0.355   8.579 -0.0728 -0.3140 -0.0665
  839MOL0     C13195   8.923  -0.349   8.674  0.4690  0.2444  0.3475
  839MOL0     C13196   8.546  -0.048   8.279 -0.0497  0.3072  0.1099
  839MOL0     C13197   8.446   0.026   8.226  0.2967 -0.3811 -0.2890
  839MOL0     H13198   8.088   0.367   8.295 -0.8547  2.2666  0.3843
  839MOL0     H13199   7.946   0.545   8.239  2.4766 -2.0685  1.8005
  839MOL0     H13200   7.762   0.623   8.120  2.0644 -2.2979  0.5851
  839MOL0     H13201   7.887   0.739   8.153  0.6665 -2.1467  0.8076
  839MOL0     H13202   7.665   0.860   8.093  2.8521  1.4138  1.1175
  839MOL0     H13203   7.790   0.887   7.976 -0.4630  2.8023  2.9662
  839MOL0     H13204   7.687   0.710   7.821 -2.7628 -3.1069  0.1730
  839MOL0     H13205   7.583   0.670   7.962 -0.2124  0.2213  2.6308
  839MOL0     H13206   7.464   0.802   7.770 -0.0409  0.8025 -0.3044
  839MOL0     H13207   7.472   0.903   7.913 -0.3791  2.1426 -2.7613
  839MOL0     H13208   7.527   1.011   7.694 -0.8886  3.7207  2.3516
  839MOL0     H13209   7.637   1.036   7.828 -0.7061  1.4126 -1.8880
  839MOL0     H13210   7.774   0.833   7.678  0.2890  0.8252  1.6585
  839MOL0     H13211   7.642   0.889   7.571 -2.0405  4.1477 -1.5122
  839MOL0     H13212   7.724   1.116   7.579  0.4822 -0.9582 -2.4252
  839MOL0     H13213   7.852   1.066   7.694  1.4118  0.6686 -0.7640
  839MOL0     H13214   7.947   0.938   7.504  1.2787  0.7354  0.4395
  839MOL0     H13215   7.919   1.114   7.450 -1.6487  0.9147 -0.8753
  839MOL0     H13216   7.701   1.163   7.310  0.8271 -0.0376 -1.3979
  839MOL0     H13217   7.489   0.974   7.056  0.2373  0.9431 -1.4459
  839MOL0     H13218   7.544   1.137   7.120 -0.7089 -0.5504  1.8881
  839MOL0     H13219   7.692   0.966   6.924 -1.1807  0.6950 -2.3464
  839MOL0     H13220   7.737   1.129   6.989 -0.5632  0.1799 -0.2691
  839MOL0     H13221   7.520   1.200   6.872  0.4754 -0.0720  0.1141
  839MOL0     H13222   7.517   1.030   6.818  0.2739  0.0567  1.6809
  839MOL0     H13223   7.617   1.158   6.638 -2.9357  1.9180  1.7937
  839MOL0     H13224   7.759   1.071   6.720  2.2502  2.4255 -2.1808
  839MOL0     H13225   7.835   1.264   6.514  0.7425  0.6539  1.8565
  839MOL0     H13226   7.937   1.378   6.334 -0.5113  0.4787  0.5069
  839MOL0     H13227   7.840   1.504   6.250  0.7515 -1.0572 -1.1279
  839MOL0     H13228   7.954   1.548   6.377 -1.9599  1.4623  0.4777
  839MOL0     H13229   7.833   1.969   6.361  0.5687  3.0897 -5.5621
  839MOL0     H13230   7.820   2.200   6.305  0.5807 -0.8863  2.5234
  839MOL0     H13231   7.413   2.365   6.190  1.9612  0.0725 -1.9112
  839MOL0     H13232   7.455   2.425   6.344 -3.2243 -0.1084 -0.9044
  839MOL0     H13233   7.593   2.601   6.256  0.8132  0.0958 -0.5591
  839MOL0     H13234   7.562   2.559   6.093  1.7644  0.2761  1.5217
  839MOL0     H13235   7.340   2.645   6.290  1.6201  1.3753 -0.0010
  839MOL0     H13236   7.298   2.554   6.152 -0.3346  0.9775 -0.7753
  839MOL0     H13237   7.459   2.788   6.104  0.1025  2.3110 -0.6774
  839MOL0     H13238   7.362   2.696   5.999 -0.1653 -1.8467  0.5791
  839MOL0     H13239   7.264   2.846   6.256 -0.6268  3.3571 -0.2244
  839MOL0     H13240   7.161   2.769   6.133  2.1613 -2.4518 -1.2296
  839MOL0     H13241   7.164   3.026   6.157  1.4573 -0.5841  1.7168
  839MOL0     H13242   7.326   3.022   6.095  0.5360 -0.2258  0.0033
  839MOL0     H13243   7.090   2.908   5.935 -0.7268  0.4346 -2.4534
  839MOL0     H13244   7.251   2.941   5.862 -0.6134 -1.7104  0.5689
  839MOL0     H13245   7.042   3.144   5.958 -0.2755  1.0897 -1.4867
  839MOL0     H13246   7.079   3.101   5.793  2.9912  0.5171 -1.7879
  839MOL0     H13247   7.400   2.195   6.333  0.6587  0.2966 -2.7265
  839MOL0     H13248   7.407   1.975   6.446  0.2488 -0.8777 -2.0823
  839MOL0     H13249   7.572   1.664   6.670 -2.1828 -1.5047 -0.1247
  839MOL0     H13250   7.614   1.454   6.806  0.1987 -3.9673 -0.5128
  839MOL0     H13251   8.083   0.515   7.826 -1.8673 -2.1441 -1.2379
  839MOL0     H13252   8.197   0.315   7.877 -1.6462 -0.8865 -1.2231
  839MOL0     H13253   8.626   0.193   7.985  0.1532 -0.7522  0.1952
  839MOL0     H13254   8.790   0.049   8.061  0.8809 -0.4491  1.2413
  839MOL0     H13255   8.950  -0.055   8.175 -1.2230  0.6988 -0.4880
  839MOL0     H13256   8.903   0.061   8.310 -0.6773  0.1981 -0.2052
  839MOL0     H13257   8.951  -0.115   8.471 -2.2603 -2.6087 -1.2059
  839MOL0     H13258   9.096  -0.053   8.394 -2.8475  1.6569  0.0500
  839MOL0     H13259   9.106  -0.264   8.268  1.2579 -0.5770  3.3940
  839MOL0     H13260   8.937  -0.309   8.323 -0.2231 -2.0657 -0.2494
  839MOL0     H13261   9.177  -0.282   8.505 -0.2824 -0.1474  1.5805
  839MOL0     H13262   9.137  -0.423   8.422 -1.1786 -0.4759  1.1410
  839MOL0     H13263   8.848  -0.342   8.751  0.3807 -1.4109  0.4356
  839MOL0     H13264   8.507  -0.118   8.352 -3.1224  1.8587  0.1194
  839MOL0     H13265   8.356   0.026   8.285  0.5704  1.3881  0.1929
  840MOL0     O13266   1.793   9.330   2.617  0.5678 -0.0109 -0.1406
  840MOL0     C13267   1.690   9.350   2.679 -0.4857 -0.0308 -0.4173
  840MOL0     O13268   1.672   9.399   2.807  0.1250  0.1356 -0.6391
  840MOL0     C13269   1.759   9.354   2.897 -0.2950  0.3660  0.2172
  840MOL0     C13270   1.797   9.439   3.004  0.2523  0.3061  0.3051
  840MOL0     C13271   1.903   9.405   3.091  0.5660  0.5769 -1.4209
  840MOL0     C13272   1.967   9.282   3.084 -1.1138  0.3708  1.1166
  840MOL0     O13273   2.085   9.260   3.149  0.3483  0.8377 -0.9197
  840MOL0     C13274   2.127   9.127   3.180  0.4663  0.0941  0.2634
  840MOL0     C13275   2.243   9.143   3.286  0.1944  0.6362 -0.0998
  840MOL0     C13276   2.287   8.997   3.324  0.1444 -0.3688 -0.3603
  840MOL0     C13277   2.411   9.019   3.416  0.3763 -0.4060 -1.2156
  840MOL0     C13278   2.491   8.892   3.431 -0.0031  0.3089 -0.3788
  840MOL0     C13279   2.427   8.772   3.515  0.2604  0.8526 -0.5018
  840MOL0     C13280   2.501   8.650   3.519  0.8324 -0.0993  0.2842
  840MOL0     C13281   2.650   8.655   3.555 -0.0341 -0.4652  0.1738
  840MOL0     N13282   2.717   8.524   3.533  0.1729 -0.1323 -0.9278
  840MOL0     C13283   2.762   8.464   3.412  0.6525  0.4127 -1.2190
  840MOL0     C13284   2.801   8.342   3.443  0.0894 -0.9139 -0.7745
  840MOL0     C13285   2.864   8.219   3.367 -0.3959 -0.5153 -0.4200
  840MOL0     C13286   2.801   8.209   3.229  0.0224  0.2519  1.0803
  840MOL0     C13287   2.866   8.086   3.168 -0.2825  0.2783 -0.3567
  840MOL0     C13288   2.811   8.073   3.029 -0.0548 -0.2655  0.0061
  840MOL0     O13289   2.881   7.965   2.948  0.0478 -1.0212 -0.3582
  840MOL0     C13290   3.009   7.978   2.912 -0.5330 -0.1373  0.1488
  840MOL0     C13291   3.073   7.855   2.873  0.5082 -1.2011  0.5877
  840MOL0     C13292   3.215   7.848   2.865  0.7682  0.6938  0.2888
  840MOL0     C13293   3.264   7.705   2.829  0.0107 -0.6855  0.5457
  840MOL0     C13294   3.304   7.957   2.899  0.5436  0.5433 -0.2028
  840MOL0     C13295   3.448   7.970   2.888  0.2296  0.5823 -0.5319
  840MOL0     O13296   3.504   8.081   2.949 -0.9392  0.4759  0.1836
  840MOL0     C13297   3.638   8.089   2.955  0.3231 -1.1784  0.1062
  840MOL0     C13298   3.704   8.203   2.901 -0.0024 -0.4847 -0.4039
  840MOL0     C13299   3.843   8.213   2.896 -1.1532 -0.4446  0.3426
  840MOL0     C13300   3.921   8.115   2.947 -0.2976 -0.7350 -0.1480
  840MOL0     O13301   4.054   8.148   2.969 -0.3141 -0.4506  0.1502
  840MOL0     C13302   4.138   8.069   3.051  0.3125 -0.5909  0.5734
  840MOL0     C13303   4.287   8.092   3.006  0.5579 -0.0313 -0.7724
  840MOL0     C13304   4.301   8.069   2.855 -0.1224 -0.5055  0.6784
  840MOL0     C13305   4.240   7.936   2.796  0.1315 -0.9152 -0.1494
  840MOL0     C13306   4.276   7.920   2.646 -0.6136  0.3871  0.3390
  840MOL0     C13307   4.194   7.793   2.580  0.0124  0.0858  0.6285
  840MOL0     C13308   4.176   7.812   2.430  0.2058  0.4667 -1.1643
  840MOL0     C13309   4.307   7.785   2.363 -1.0286 -0.3754  0.8132
  840MOL0    Cl13310   4.340   7.599   2.362  0.1347  0.3399  0.2944
  840MOL0     C13311   3.853   7.997   2.990 -0.2117  0.4908  0.3789
  840MOL0     C13312   3.709   7.987   3.009 -0.2837  0.4661  0.7668
  840MOL0     O13313   3.512   7.881   2.834 -0.2146 -0.0275 -0.1218
  840MOL0     C13314   3.229   8.081   2.919 -0.8594 -0.5330 -0.4294
  840MOL0     C13315   3.094   8.094   2.931  0.4996  0.2814  0.2861
  840MOL0     N13316   2.767   8.311   3.579  0.8549 -0.3163 -0.3923
  840MOL0     N13317   2.718   8.425   3.626 -0.0971 -0.4234 -0.8527
  840MOL0     C13318   1.915   9.186   2.990  0.3575 -0.2757  0.3699
  840MOL0     C13319   1.814   9.226   2.898  0.5821  0.2821 -0.1995
  840MOL0     C13320   1.573   9.332   2.591 -0.3267  0.0202  0.4960
  840MOL0     C13321   1.572   9.386   2.459 -0.8432  0.0479  0.1980
  840MOL0     C13322   1.467   9.355   2.368  0.8164  0.6377 -0.9278
  840MOL0     C13323   1.353   9.283   2.413  0.0776 -0.2854 -0.0084
  840MOL0     O13324   1.247   9.239   2.335 -0.4380 -0.0076  0.3094
  840MOL0     C13325   1.285   9.201   2.196 -0.4226 -0.2110  0.0122
  840MOL0     C13326   1.260   9.053   2.171 -0.7717 -0.8501  1.0770
  840MOL0     C13327   1.327   8.965   2.276  0.2952 -0.3015  0.9326
  840MOL0     C13328   1.303   8.817   2.264  0.3034  0.7148  0.1134
  840MOL0     C13329   1.159   8.786   2.253 -0.6540  0.0345  0.4428
  840MOL0     C13330   1.045   8.763   2.236 -0.1048  0.3788 -0.4306
  840MOL0     C13331   1.354   9.231   2.540  0.1380  0.6172 -0.1939
  840MOL0     C13332   1.468   9.247   2.625  0.5277 -0.4362 -1.3486
  840MOL0     H13333   1.752   9.537   2.997 -2.1552 -0.8957 -2.8208
  840MOL0     H13334   1.950   9.467   3.168 -1.2546 -1.1530  1.2668
  840MOL0     H13335   2.046   9.069   3.226 -0.0606 -0.0122 -0.7622
  840MOL0     H13336   2.179   9.073   3.100 -3.3249 -3.3306 -0.1875
  840MOL0     H13337   2.316   9.209   3.237 -0.1190  0.0860 -1.3386
  840MOL0     H13338   2.212   9.201   3.373 -0.8044  0.8744 -0.6013
  840MOL0     H13339   2.218   8.924   3.368  2.2903 -2.9244 -0.9458
  840MOL0     H13340   2.322   8.950   3.231  1.2199 -1.4360  0.5532
  840MOL0     H13341   2.473   9.097   3.372 -0.6418  0.6536 -0.8116
  840MOL0     H13342   2.390   9.057   3.516  4.1284 -0.7824 -0.1145
  840MOL0     H13343   2.524   8.859   3.332 -1.3509  2.7191 -1.7245
  840MOL0     H13344   2.581   8.923   3.484  0.4635 -0.0325 -0.9609
  840MOL0     H13345   2.406   8.801   3.618  6.1970  1.9632  0.7146
  840MOL0     H13346   2.329   8.747   3.473 -1.1176  1.7266  2.0124
  840MOL0     H13347   2.455   8.569   3.577 -3.5022  2.5374  1.0142
  840MOL0     H13348   2.486   8.607   3.420  1.9025 -0.8275  0.4248
  840MOL0     H13349   2.654   8.671   3.663 -1.8356  1.4474  0.0080
  840MOL0     H13350   2.692   8.739   3.500 -3.7906  1.8472  0.5280
  840MOL0     H13351   2.775   8.524   3.323 -0.6822  1.4308 -0.7575
  840MOL0     H13352   2.968   8.246   3.349 -0.1636  1.0561  2.5542
  840MOL0     H13353   2.859   8.120   3.412 -1.0289 -1.1070 -1.7222
  840MOL0     H13354   2.822   8.300   3.173  1.3364 -0.4208  0.4359
  840MOL0     H13355   2.692   8.211   3.235 -0.2537  3.0044 -1.9564
  840MOL0     H13356   2.830   7.995   3.217  0.8008  0.4155  0.7459
  840MOL0     H13357   2.975   8.079   3.166 -0.2311 -0.9878 -5.1157
  840MOL0     H13358   2.823   8.171   2.983  2.3013  0.3976  1.7931
  840MOL0     H13359   2.707   8.038   3.031  0.7816 -3.4832 -2.9299
  840MOL0     H13360   3.017   7.763   2.864  0.8124 -1.1761 -2.4167
  840MOL0     H13361   3.181   7.641   2.797 -0.1350 -0.0287 -0.4075
  840MOL0     H13362   3.326   7.713   2.739 -2.7332 -0.5350 -1.4317
  840MOL0     H13363   3.321   7.664   2.914  0.0949  0.9299  1.3131
  840MOL0     H13364   3.649   8.293   2.873 -0.6587 -1.2305 -1.5954
  840MOL0     H13365   3.905   8.301   2.882  0.2433 -1.4723 -0.1650
  840MOL0     H13366   4.125   8.093   3.157 -2.9738 -2.5576  0.7608
  840MOL0     H13367   4.106   7.964   3.043 -0.6315 -0.2306 -0.6853
  840MOL0     H13368   4.308   8.197   3.029 -0.0936 -0.3477  1.4987
  840MOL0     H13369   4.355   8.031   3.065  1.5218  0.9676 -0.8113
  840MOL0     H13370   4.410   8.075   2.841 -0.2963  1.6755 -0.0815
  840MOL0     H13371   4.248   8.153   2.810  1.2235  0.4950  0.8732
  840MOL0     H13372   4.267   7.859   2.868 -1.8660  0.3635  2.1013
  840MOL0     H13373   4.133   7.954   2.812  1.0121  2.3040  3.4413
  840MOL0     H13374   4.382   7.897   2.634 -1.3537 -2.3567 -2.1352
  840MOL0     H13375   4.256   8.017   2.601  1.6436  0.8613  0.2255
  840MOL0     H13376   4.245   7.697   2.594  0.3320 -0.0364 -1.1163
  840MOL0     H13377   4.104   7.783   2.642  1.2466  1.0153  2.6776
  840MOL0     H13378   4.145   7.916   2.411  0.5733  1.2877  2.0457
  840MOL0     H13379   4.100   7.738   2.404  1.4925 -2.0982  1.7286
  840MOL0     H13380   4.384   7.840   2.417 -1.7392 -0.8117  2.3282
  840MOL0     H13381   4.283   7.825   2.264  2.2653  0.4696  0.2248
  840MOL0     H13382   3.912   7.911   3.021  2.8427  2.5981  0.7977
  840MOL0     H13383   3.650   7.911   3.058  0.9440 -1.4466 -0.5713
  840MOL0     H13384   3.280   8.176   2.930  0.3312 -1.3382  1.6960
  840MOL0     H13385   3.041   8.186   2.953  2.7466  1.7841 -0.1753
  840MOL0     H13386   1.967   9.093   2.968 -0.5195 -0.4606 -1.0487
  840MOL0     H13387   1.785   9.156   2.820  0.2063 -0.4427  0.5795
  840MOL0     H13388   1.659   9.446   2.435  0.0624 -1.5554 -0.7122
  840MOL0     H13389   1.464   9.390   2.265  1.9107 -0.3211 -1.3093
  840MOL0     H13390   1.247   9.269   2.119  3.7269  0.1214 -2.0459
  840MOL0     H13391   1.392   9.208   2.177 -0.0394  0.0677  2.0423
  840MOL0     H13392   1.308   9.018   2.079 -2.7957  0.7579 -0.6658
  840MOL0     H13393   1.153   9.034   2.168 -0.5935 -1.7553 -0.2513
  840MOL0     H13394   1.283   8.998   2.371  0.5902 -1.7636  1.6133
  840MOL0     H13395   1.434   8.985   2.270  0.1990 -0.3134 -2.0631
  840MOL0     H13396   1.341   8.775   2.357 -1.9553 -1.0806  0.2949
  840MOL0     H13397   1.372   8.768   2.195  1.7519  0.5045  1.6521
  840MOL0     H13398   0.949   8.724   2.209  0.9513 -2.7580 -0.0930
  840MOL0     H13399   1.281   9.154   2.562  0.7945  0.5378  1.9017
  840MOL0     H13400   1.477   9.200   2.722 -0.9750  0.2513 -0.8516
  841MOL0     O13401  10.151   1.010   5.642 -0.3261  0.7467 -1.5508
  841MOL0     C13402  10.036   0.986   5.616 -0.3455 -0.0142  0.0309
  841MOL0     O13403   9.987   0.971   5.483 -0.1783 -0.4183  0.3154
  841MOL0     C13404  10.077   0.929   5.387 -0.4487  1.1438  0.0502
  841MOL0     C13405  10.182   1.014   5.348  0.3624  1.1274 -1.0416
  841MOL0     C13406  10.282   0.978   5.261  0.6517  0.9341 -0.1291
  841MOL0     C13407  10.288   0.847   5.208  0.6283 -0.5211  0.0377
  841MOL0     O13408  10.396   0.799   5.148  0.5758  0.3423 -0.6568
  841MOL0     C13409  10.481   0.730   5.231 -0.3004  0.4160  0.1176
  841MOL0     C13410  10.499   0.585   5.166 -0.5316 -0.5023 -0.3378
  841MOL0     C13411  10.564   0.604   5.027 -0.9019 -0.0119  0.8392
  841MOL0     C13412  10.584   0.461   4.963  0.3688  0.3088  0.5174
  841MOL0     C13413  10.640   0.466   4.823 -0.6776  0.2329  0.9686
  841MOL0     C13414  10.698   0.337   4.772 -0.3845 -0.1684 -0.2957
  841MOL0     C13415  10.588   0.251   4.714  0.1502  0.7803  0.2702
  841MOL0     C13416  10.637   0.111   4.672 -0.0245 -0.6474 -0.7469
  841MOL0     N13417  10.517   0.031   4.670  1.0417  1.2591 -0.2126
  841MOL0     C13418  10.453  -0.014   4.562  0.1087  0.8673  0.9469
  841MOL0     C13419  10.336  -0.061   4.600 -0.4533  0.2950 -0.4044
  841MOL0     C13420  10.241  -0.129   4.506  0.1639 -0.7534  1.0552
  841MOL0     C13421  10.293  -0.270   4.462  0.3445  0.7495 -0.0636
  841MOL0     C13422  10.325  -0.364   4.573  0.6758  0.0525 -0.3351
  841MOL0     C13423  10.328  -0.498   4.511 -0.6397  0.0523 -0.5697
  841MOL0     O13424  10.441  -0.511   4.426 -0.3005 -0.1801 -0.6447
  841MOL0     C13425  10.418  -0.522   4.289 -0.1649  0.1246 -0.2349
  841MOL0     C13426  10.501  -0.440   4.204  0.3349  0.6951 -0.0668
  841MOL0     C13427  10.480  -0.441   4.065  0.1403 -0.0974  0.0587
  841MOL0     C13428  10.577  -0.353   3.981  0.4358 -0.2753 -0.2146
  841MOL0     C13429  10.375  -0.522   4.005  0.5860 -0.3439 -0.7994
  841MOL0     C13430  10.366  -0.538   3.864  0.6671 -0.5015 -0.5482
  841MOL0     O13431  10.299  -0.640   3.813 -1.1763 -0.2598  0.0219
  841MOL0     C13432  10.268  -0.645   3.679  0.2062  0.3611  0.4217
  841MOL0     C13433  10.251  -0.773   3.629 -0.0810  0.3870 -0.3801
  841MOL0     C13434  10.216  -0.796   3.493  0.0112  0.0152  0.3839
  841MOL0     C13435  10.191  -0.699   3.408 -0.2622 -0.2557  0.0672
  841MOL0     O13436  10.157  -0.735   3.282  0.6294  0.3294 -0.0634
  841MOL0     C13437  10.191  -0.657   3.163 -0.0453 -0.0803 -0.2245
  841MOL0     C13438  10.165  -0.741   3.044 -1.3371 -0.6329  0.8627
  841MOL0     C13439  10.192  -0.663   2.916 -0.1725 -0.1601  0.0130
  841MOL0     C13440  10.224  -0.747   2.796 -0.3182  0.2417  1.0736
  841MOL0     C13441  10.280  -0.667   2.673 -0.2601  0.1298  0.3273
  841MOL0     C13442  10.354  -0.743   2.557 -0.3825 -0.4070 -0.7403
  841MOL0     C13443  10.440  -0.641   2.466  0.5731  0.3923 -0.5631
  841MOL0     C13444  10.553  -0.708   2.398  0.4860  0.4742 -0.0216
  841MOL0    Cl13445  10.488  -0.859   2.331  0.0834  0.3028 -0.7334
  841MOL0     C13446  10.226  -0.573   3.455  0.6661  0.1602  0.3727
  841MOL0     C13447  10.263  -0.542   3.582  0.1614  0.0120  0.4569
  841MOL0     O13448  10.407  -0.447   3.792 -0.2762 -0.2018  0.5590
  841MOL0     C13449  10.297  -0.596   4.091 -1.3916  0.8055  0.5400
  841MOL0     C13450  10.303  -0.589   4.237  0.0358 -0.2999 -0.4577
  841MOL0     N13451  10.332  -0.067   4.740 -0.2972  0.3026 -1.2014
  841MOL0     N13452  10.434   0.002   4.779  0.2803  0.9223 -0.3798
  841MOL0     C13453  10.178   0.761   5.230 -0.6142 -0.2366  0.0827
  841MOL0     C13454  10.069   0.803   5.314  0.1436  0.2499  0.5613
  841MOL0     C13455   9.943   1.000   5.726  0.4727  0.4048  0.4279
  841MOL0     C13456   9.973   1.067   5.848  0.6629 -0.6353 -0.0343
  841MOL0     C13457   9.875   1.090   5.946 -0.6459 -0.5947  0.0093
  841MOL0     C13458   9.752   1.029   5.931  1.3456  0.5391 -0.3255
  841MOL0     O13459   9.651   1.047   6.025  0.2427 -0.2610  0.8422
  841MOL0     C13460   9.681   1.134   6.127 -0.6751 -0.0654  0.2152
  841MOL0     C13461   9.544   1.134   6.200 -0.0034  0.2217 -0.1241
  841MOL0     C13462   9.544   1.241   6.301  0.0457 -0.7522 -0.7501
  841MOL0     C13463   9.630   1.200   6.422 -0.8180  0.3899 -0.6885
  841MOL0     C13464   9.623   1.279   6.544  0.0092 -1.1627  0.1119
  841MOL0     C13465   9.627   1.357   6.644 -0.1701  0.7696  0.7750
  841MOL0     C13466   9.721   0.958   5.817 -0.8663 -0.3750  0.2598
  841MOL0     C13467   9.820   0.945   5.714  0.8880  0.4497 -0.1181
  841MOL0     H13468  10.188   1.115   5.388 -0.8302  0.5278  0.7946
  841MOL0     H13469  10.367   1.042   5.241  2.1580 -0.4555  1.5073
  841MOL0     H13470  10.579   0.778   5.232 -0.2866  0.4269 -0.8947
  841MOL0     H13471  10.449   0.706   5.333 -3.6393 -0.1366 -0.9400
  841MOL0     H13472  10.572   0.542   5.235 -0.7734  1.8306  1.5470
  841MOL0     H13473  10.404   0.532   5.154 -1.5328  1.0283  0.4322
  841MOL0     H13474  10.509   0.662   4.951  1.8207  2.1885  0.3894
  841MOL0     H13475  10.662   0.650   5.042 -0.4799 -0.8782  0.7555
  841MOL0     H13476  10.647   0.406   5.033 -0.6588 -0.5605  0.8004
  841MOL0     H13477  10.482   0.420   4.959 -0.2347  1.8148 -0.7333
  841MOL0     H13478  10.563   0.508   4.758  1.2063  2.4826  0.0590
  841MOL0     H13479  10.714   0.545   4.835 -0.6508 -0.2196  6.1646
  841MOL0     H13480  10.761   0.358   4.685  3.6869 -1.3715  2.1021
  841MOL0     H13481  10.753   0.298   4.858 -0.9097  0.9259  0.5729
  841MOL0     H13482  10.508   0.242   4.788 -0.9340 -0.3570 -0.9922
  841MOL0     H13483  10.543   0.300   4.628  2.9477  3.5439  0.2010
  841MOL0     H13484  10.699   0.090   4.759 -1.4312  2.0969  1.0598
  841MOL0     H13485  10.705   0.109   4.586  2.1508  0.2005  0.8563
  841MOL0     H13486  10.501  -0.010   4.465  1.4551 -3.2360  1.2766
  841MOL0     H13487  10.136  -0.118   4.536 -0.3473  3.1699 -1.4212
  841MOL0     H13488  10.242  -0.061   4.421  0.7036  0.1639  1.7728
  841MOL0     H13489  10.385  -0.254   4.405  0.1533  1.5988 -0.1490
  841MOL0     H13490  10.226  -0.311   4.387 -1.3050 -0.4154  1.9490
  841MOL0     H13491  10.246  -0.370   4.649  1.0607 -2.5105 -0.0439
  841MOL0     H13492  10.418  -0.355   4.629 -0.5025 -4.6774  3.0868
  841MOL0     H13493  10.235  -0.529   4.463 -0.7460 -0.0702 -0.2881
  841MOL0     H13494  10.352  -0.561   4.598  1.8507 -2.5411 -2.9155
  841MOL0     H13495  10.571  -0.375   4.257  1.5712 -1.2564  0.8349
  841MOL0     H13496  10.658  -0.311   4.040 -0.0367 -1.9010  1.7166
  841MOL0     H13497  10.621  -0.405   3.895  1.4312 -2.0158  1.2764
  841MOL0     H13498  10.535  -0.264   3.935  0.3319 -0.3562 -0.2778
  841MOL0     H13499  10.269  -0.852   3.700  4.0012 -0.7167 -2.3311
  841MOL0     H13500  10.203  -0.900   3.466  0.1639 -0.3069  1.5053
  841MOL0     H13501  10.138  -0.562   3.153  0.4096  0.4812  2.0266
  841MOL0     H13502  10.300  -0.655   3.173  0.0370  1.3438 -1.1576
  841MOL0     H13503  10.229  -0.830   3.050  1.5962  1.3328  0.6622
  841MOL0     H13504  10.060  -0.770   3.037 -3.3739  5.5509 -4.6129
  841MOL0     H13505  10.265  -0.584   2.937 -1.8415  1.3324  0.4432
  841MOL0     H13506  10.096  -0.615   2.894 -1.2831 -2.2723 -0.0822
  841MOL0     H13507  10.279  -0.838   2.822 -0.7518 -0.5215 -0.5570
  841MOL0     H13508  10.124  -0.777   2.765 -0.2548 -0.0377  1.1368
  841MOL0     H13509  10.348  -0.589   2.709  1.4291 -1.1567  0.0315
  841MOL0     H13510  10.193  -0.613   2.633 -1.1791  2.4527  4.7884
  841MOL0     H13511  10.435  -0.801   2.602  0.1682  1.4448  0.7458
  841MOL0     H13512  10.290  -0.806   2.493  0.2929 -1.2967 -0.5645
  841MOL0     H13513  10.480  -0.552   2.514  0.9125  0.2327 -0.5483
  841MOL0     H13514  10.366  -0.609   2.392 -1.7486 -2.8015  0.1667
  841MOL0     H13515  10.636  -0.734   2.464  2.3886  1.8842 -1.7402
  841MOL0     H13516  10.605  -0.645   2.326  1.4518 -0.3743 -0.0900
  841MOL0     H13517  10.204  -0.493   3.386 -2.3588 -0.8065  0.0633
  841MOL0     H13518  10.272  -0.436   3.607  0.1264 -0.1542  1.1874
  841MOL0     H13519  10.225  -0.657   4.037  2.0619 -1.3881 -1.9978
  841MOL0     H13520  10.237  -0.646   4.300  0.5421 -2.0859 -1.4761
  841MOL0     H13521  10.185   0.666   5.178  0.1956 -0.3385  0.3671
  841MOL0     H13522   9.981   0.740   5.319 -0.2701  0.6992 -0.5668
  841MOL0     H13523  10.070   1.113   5.862  0.5275 -0.4318  0.2410
  841MOL0     H13524   9.917   1.150   6.027  1.8688 -1.3974 -0.6028
  841MOL0     H13525   9.772   1.099   6.177 -0.3335 -2.4506 -1.8655
  841MOL0     H13526   9.694   1.239   6.098 -3.7834  0.1915 -0.6684
  841MOL0     H13527   9.529   1.034   6.243 -0.4086  0.6735  0.8133
  841MOL0     H13528   9.466   1.158   6.127 -0.2492 -1.1307 -0.3455
  841MOL0     H13529   9.437   1.254   6.319  0.2685 -0.4314  0.4491
  841MOL0     H13530   9.598   1.325   6.256 -0.8742 -1.0427 -2.4780
  841MOL0     H13531   9.732   1.188   6.386 -0.9834 -1.4764 -0.6168
  841MOL0     H13532   9.605   1.102   6.462  4.9762 -1.6883 -1.2241
  841MOL0     H13533   9.627   1.416   6.733  2.8856  0.4620  1.0783
  841MOL0     H13534   9.628   0.903   5.810 -0.4672 -1.3780  2.0167
  841MOL0     H13535   9.798   0.885   5.626  1.9778 -3.4997  2.0619
  842MOL0     O13536   5.205   8.806   4.798 -0.0105  0.4538  0.7878
  842MOL0     C13537   5.303   8.726   4.785  0.2341 -0.2782 -0.0912
  842MOL0     O13538   5.377   8.666   4.888  0.3690  0.0952  0.2639
  842MOL0     C13539   5.367   8.717   5.013  0.4008 -0.2719  0.5419
  842MOL0     C13540   5.293   8.663   5.119 -0.0265 -0.0230 -0.7029
  842MOL0     C13541   5.304   8.713   5.245 -0.1943 -0.6193  0.2522
  842MOL0     C13542   5.387   8.824   5.275 -0.1997 -0.0486  0.6086
  842MOL0     O13543   5.420   8.877   5.398  0.7397 -0.3256 -0.0696
  842MOL0     C13544   5.332   8.864   5.511 -0.5060 -0.3468 -0.4466
  842MOL0     C13545   5.361   8.745   5.596  0.3706 -0.7552  0.1433
  842MOL0     C13546   5.312   8.758   5.739 -1.2900  0.3969 -0.6815
  842MOL0     C13547   5.364   8.646   5.833 -0.1884  0.6274  0.2964
  842MOL0     C13548   5.291   8.652   5.962  0.7400 -0.1818 -0.3688
  842MOL0     C13549   5.314   8.519   6.046 -0.3615  0.1992  0.4663
  842MOL0     C13550   5.257   8.528   6.190  0.1379 -0.6629  0.5537
  842MOL0     C13551   5.345   8.441   6.285  0.7351 -0.2041  0.6668
  842MOL0     N13552   5.283   8.445   6.422 -0.4574  0.1323  0.0594
  842MOL0     C13553   5.190   8.351   6.459  0.5614  0.7456  0.0929
  842MOL0     C13554   5.163   8.383   6.584  0.3206  0.2476  1.2255
  842MOL0     C13555   5.073   8.298   6.673 -0.4436  0.3301 -0.0304
  842MOL0     C13556   5.112   8.316   6.824 -0.1599  0.5904 -0.4223
  842MOL0     C13557   5.022   8.256   6.925 -0.2533 -0.3066 -0.6594
  842MOL0     C13558   5.067   8.270   7.070 -0.5171  0.7984 -0.1003
  842MOL0     O13559   5.067   8.407   7.126  0.2077  0.2233 -0.1079
  842MOL0     C13560   5.116   8.419   7.252 -0.2057  0.0109  0.0505
  842MOL0     C13561   5.190   8.531   7.284  0.1585  0.0888  0.5639
  842MOL0     C13562   5.257   8.554   7.405  0.6538  0.0034  0.2653
  842MOL0     C13563   5.336   8.684   7.416  0.2080  0.5510 -0.7099
  842MOL0     C13564   5.244   8.451   7.505 -0.6191  0.6649 -0.0670
  842MOL0     C13565   5.305   8.472   7.637 -0.3162  0.5447  0.4578
  842MOL0     O13566   5.236   8.401   7.736 -0.0997 -0.5131 -0.4405
  842MOL0     C13567   5.291   8.405   7.860 -0.5770  0.8057 -0.4560
  842MOL0     C13568   5.376   8.308   7.897 -0.4125  0.6194  0.1145
  842MOL0     C13569   5.463   8.319   8.002  0.0360 -0.0419 -0.0144
  842MOL0     C13570   5.451   8.437   8.078 -0.1413  0.3589  1.1164
  842MOL0     O13571   5.545   8.455   8.174  0.2588 -0.7063  0.1098
  842MOL0     C13572   5.626   8.559   8.131 -0.8194  0.4025  0.0426
  842MOL0     C13573   5.735   8.492   8.043 -0.3626  0.1588 -0.1358
  842MOL0     C13574   5.857   8.581   8.015  0.6260 -1.0504 -0.5599
  842MOL0     C13575   5.986   8.499   7.986  0.0255  0.9119  0.3552
  842MOL0     C13576   6.082   8.597   7.914 -0.4067  0.2513  0.8981
  842MOL0     C13577   6.225   8.542   7.902 -0.6901  0.1122  0.2884
  842MOL0     C13578   6.307   8.613   7.787 -0.8330 -0.3078 -0.3992
  842MOL0     C13579   6.453   8.591   7.802 -0.0818  0.2406  0.8404
  842MOL0    Cl13580   6.535   8.747   7.798 -0.2656 -0.1808  0.3561
  842MOL0     C13581   5.343   8.522   8.060  0.5181 -0.4121 -0.0294
  842MOL0     C13582   5.266   8.509   7.948 -0.1508  0.6394 -0.0778
  842MOL0     O13583   5.415   8.520   7.648  0.4646 -0.1737  0.1668
  842MOL0     C13584   5.166   8.337   7.479  0.6527  0.9899  0.4833
  842MOL0     C13585   5.103   8.317   7.349 -0.1811 -1.0850  0.3591
  842MOL0     N13586   5.222   8.500   6.614  0.6374 -0.8356 -0.3793
  842MOL0     N13587   5.296   8.542   6.516  0.2306  0.2949  0.5177
  842MOL0     C13588   5.442   8.895   5.159 -0.0754  0.2738 -0.5020
  842MOL0     C13589   5.439   8.837   5.033  0.1091 -0.1356  0.6683
  842MOL0     C13590   5.314   8.671   4.648 -0.4296 -0.3090  0.3948
  842MOL0     C13591   5.416   8.573   4.619  0.1492 -0.0707 -0.7622
  842MOL0     C13592   5.429   8.506   4.501  0.1642  0.8158  0.1211
  842MOL0     C13593   5.343   8.526   4.396  0.2366 -0.1414  0.3078
  842MOL0     O13594   5.354   8.435   4.293  0.3063  0.4442  0.1668
  842MOL0     C13595   5.251   8.430   4.196  0.3132  0.0606 -0.5558
  842MOL0     C13596   5.278   8.318   4.100 -0.5460 -0.3340  0.0003
  842MOL0     C13597   5.397   8.357   4.018 -0.4837 -0.8199 -0.3822
  842MOL0     C13598   5.418   8.255   3.910 -0.4772 -0.0018 -0.5246
  842MOL0     C13599   5.312   8.260   3.820  0.4082  1.2083  0.4571
  842MOL0     C13600   5.227   8.268   3.737  0.0808  0.2596  0.1789
  842MOL0     C13601   5.259   8.639   4.412  0.6813 -0.2705  0.5363
  842MOL0     C13602   5.238   8.705   4.533  0.5693 -0.0090  0.6645
  842MOL0     H13603   5.224   8.585   5.088 -2.5199  1.7853  0.0256
  842MOL0     H13604   5.251   8.658   5.323 -1.6531  1.0277  0.4755
  842MOL0     H13605   5.364   8.954   5.563 -2.8286  0.1980  0.1247
  842MOL0     H13606   5.228   8.871   5.477 -0.9192 -1.1745  0.5981
  842MOL0     H13607   5.315   8.668   5.534  0.5763  0.7123 -1.9563
  842MOL0     H13608   5.466   8.713   5.600  1.2260  1.8779  1.4277
  842MOL0     H13609   5.362   8.846   5.780  3.2128 -2.5444  0.8707
  842MOL0     H13610   5.204   8.771   5.747 -1.6264 -2.5607  2.1331
  842MOL0     H13611   5.347   8.547   5.791  2.9375  1.0970 -2.5076
  842MOL0     H13612   5.471   8.659   5.854  0.2663  0.5243 -1.8079
  842MOL0     H13613   5.307   8.748   6.012 -0.5747 -0.2825  0.2676
  842MOL0     H13614   5.184   8.654   5.940  0.5438 -1.2757  0.3962
  842MOL0     H13615   5.266   8.433   5.999  2.4217 -3.4397  3.5788
  842MOL0     H13616   5.424   8.521   6.050 -0.3114  0.5748 -0.6588
  842MOL0     H13617   5.251   8.628   6.233 -2.8266  0.7961 -2.7483
  842MOL0     H13618   5.153   8.493   6.190 -0.2085  0.0773  4.0272
  842MOL0     H13619   5.447   8.480   6.290  1.3845 -1.6170 -0.8252
  842MOL0     H13620   5.352   8.341   6.242  0.2184  0.0789 -0.0922
  842MOL0     H13621   5.163   8.264   6.400 -0.7675  0.1778  1.4818
  842MOL0     H13622   4.970   8.332   6.657 -0.2132  1.0629 -0.0204
  842MOL0     H13623   5.080   8.195   6.639  5.4818  1.3812 -3.3948
  842MOL0     H13624   5.103   8.423   6.845 -1.1781  0.4661 -0.1666
  842MOL0     H13625   5.212   8.275   6.842 -0.0282  0.2481 -1.8767
  842MOL0     H13626   5.016   8.148   6.915 -2.7180 -0.4345  1.1637
  842MOL0     H13627   4.918   8.292   6.919 -0.3252 -0.1156  1.1558
  842MOL0     H13628   5.166   8.225   7.078 -1.3421 -1.1379 -0.3074
  842MOL0     H13629   4.990   8.213   7.123  0.8467 -1.4607 -0.4266
  842MOL0     H13630   5.199   8.607   7.207  3.0555 -0.5089  0.1593
  842MOL0     H13631   5.443   8.680   7.393  1.2998 -0.4314  3.5607
  842MOL0     H13632   5.292   8.765   7.358  0.9119 -0.3762 -2.5929
  842MOL0     H13633   5.332   8.707   7.523  1.0471 -0.9182 -0.3332
  842MOL0     H13634   5.373   8.214   7.843 -1.2709 -0.3670  1.7792
  842MOL0     H13635   5.537   8.249   8.039  2.6308  2.2149 -0.5977
  842MOL0     H13636   5.589   8.652   8.086  2.8553  2.8279  1.5395
  842MOL0     H13637   5.668   8.605   8.221  1.4964 -0.7066 -0.3941
  842MOL0     H13638   5.761   8.392   8.078 -0.7612 -0.9496 -2.7891
  842MOL0     H13639   5.683   8.477   7.948 -1.2300  0.8370  0.2093
  842MOL0     H13640   5.867   8.640   8.106  0.8257 -3.1104  0.8364
  842MOL0     H13641   5.821   8.648   7.936 -1.9477  0.6655  1.8735
  842MOL0     H13642   6.021   8.459   8.081 -1.1034 -2.3253 -0.4704
  842MOL0     H13643   5.964   8.420   7.914 -0.6259  2.8581 -1.7404
  842MOL0     H13644   6.087   8.688   7.975 -1.4239 -0.0124  1.3991
  842MOL0     H13645   6.037   8.607   7.814  1.0344 -1.7530 -0.0230
  842MOL0     H13646   6.271   8.543   8.001 -2.4433  1.0709  1.1401
  842MOL0     H13647   6.206   8.436   7.882 -0.0993 -0.5476  2.8507
  842MOL0     H13648   6.297   8.721   7.800 -1.0554 -0.0640 -2.3263
  842MOL0     H13649   6.283   8.586   7.684  1.3676 -3.0188 -0.3229
  842MOL0     H13650   6.483   8.517   7.726  0.2732 -1.6801  2.7626
  842MOL0     H13651   6.481   8.537   7.893  0.5989 -3.0404 -1.1147
  842MOL0     H13652   5.330   8.613   8.117  0.1483 -0.5567  0.1187
  842MOL0     H13653   5.187   8.578   7.917 -0.0436  0.9396  0.2961
  842MOL0     H13654   5.150   8.260   7.554 -1.0652  0.2076 -0.6343
  842MOL0     H13655   5.051   8.225   7.324 -0.4315 -0.0543 -3.5477
  842MOL0     H13656   5.509   8.977   5.182 -0.0458 -0.1985  1.2185
  842MOL0     H13657   5.499   8.883   4.955 -0.0134 -1.4311 -0.2295
  842MOL0     H13658   5.483   8.547   4.701 -0.2800  3.3636  0.8674
  842MOL0     H13659   5.485   8.414   4.489  0.3368  0.8369  0.7437
  842MOL0     H13660   5.152   8.403   4.234 -0.2243 -1.1174 -2.6580
  842MOL0     H13661   5.233   8.525   4.144 -2.9402  0.1514  0.5447
  842MOL0     H13662   5.190   8.308   4.035  0.5853 -1.9080 -1.3877
  842MOL0     H13663   5.311   8.228   4.153  2.9416  1.0962  0.5229
  842MOL0     H13664   5.486   8.354   4.082  0.3070 -3.1671 -1.4834
  842MOL0     H13665   5.386   8.455   3.972 -0.2338 -2.2019 -3.6127
  842MOL0     H13666   5.433   8.158   3.957  0.0690  0.6075  0.6000
  842MOL0     H13667   5.502   8.278   3.844 -0.3120  1.5595  0.1903
  842MOL0     H13668   5.143   8.272   3.671  0.0888  3.4911  0.2240
  842MOL0     H13669   5.198   8.660   4.324 -0.3182 -1.6532  0.8565
  842MOL0     H13670   5.166   8.787   4.536 -0.9239 -0.8691 -4.1595
  843MOL0     O13671   2.701   8.995  10.837  0.0208  0.0695  0.0698
  843MOL0     C13672   2.741   8.934  10.738  0.2466  0.9693 -0.3229
  843MOL0     O13673   2.655   8.865  10.652 -0.7249  0.0297  0.4539
  843MOL0     C13674   2.526   8.859  10.700 -0.1515 -0.5388  0.1061
  843MOL0     C13675   2.449   8.970  10.714 -0.6468 -1.0571  0.1192
  843MOL0     C13676   2.315   8.965  10.739  0.5982 -1.0754 -0.0943
  843MOL0     C13677   2.259   8.851  10.800 -0.4149 -0.3219  0.1381
  843MOL0     O13678   2.145   8.845  10.877 -0.6309  1.0470  0.1067
  843MOL0     C13679   2.073   8.952  10.937 -0.0636 -0.5861 -0.1190
  843MOL0     C13680   2.157   9.005  11.041  0.1695  0.1313 -0.5001
  843MOL0     C13681   2.084   9.134  11.102 -0.1343  1.2521  0.5571
  843MOL0     C13682   2.141   9.174  11.241 -0.4173  0.3063  0.2612
  843MOL0     C13683   2.072   9.299  11.301  0.8095  0.0426  0.2403
  843MOL0     C13684   1.958   9.256  11.390  0.6186 -0.3356 -0.2500
  843MOL0     C13685   1.888   9.380  11.446  0.3788  0.8567 -0.8400
  843MOL0     C13686   1.770   9.325  11.528  0.6361 -0.8776 -0.3952
  843MOL0     N13687   1.830   9.297  11.663 -0.1094 -0.4382  0.2312
  843MOL0     C13688   1.832   9.391  11.765 -0.7384  0.5884 -1.0642
  843MOL0     C13689   1.867   9.312  11.870 -0.7273 -0.2677 -0.6380
  843MOL0     C13690   1.887   9.352  12.016  0.7846  0.4331 -0.2023
  843MOL0     C13691   1.780   9.453  12.069 -0.8283  0.3119  0.4820
  843MOL0     C13692   1.814   9.468  12.216  0.0634  0.6755 -0.9651
  843MOL0     C13693   1.751   9.585  12.285  1.1311 -0.2635 -0.3793
  843MOL0     O13694   1.603   9.583  12.300 -0.5659  0.2113  0.3588
  843MOL0     C13695   1.537   9.672  12.383 -0.7539  0.5195  1.1829
  843MOL0     C13696   1.603   9.775  12.445 -0.8756 -0.3053 -0.1236
  843MOL0     C13697   1.535   9.858  12.538 -1.4611 -0.3808 -0.1518
  843MOL0     C13698   1.612   9.962  12.599  0.4407 -0.0556 -1.1213
  843MOL0     C13699   1.396   9.836  12.560  0.1144  0.2648  0.6902
  843MOL0     C13700   1.312   9.908  12.655  1.5583  0.0979  0.1731
  843MOL0     O13701   1.183   9.855  12.679  0.0777  0.5282  0.2921
  843MOL0     C13702   1.112   9.934  12.769 -1.1687 -0.3499  0.6288
  843MOL0     C13703   1.005  10.017  12.732  0.4678  0.2505 -0.0733
  843MOL0     C13704   0.941  10.095  12.833  0.1121  1.0109 -0.1015
  843MOL0     C13705   0.972  10.079  12.968  0.5667 -0.2217  0.2749
  843MOL0     O13706   0.920  10.151  13.065  0.3937 -0.3071  0.6139
  843MOL0     C13707   0.959  10.284  13.064 -0.6352 -0.0230 -0.3462
  843MOL0     C13708   1.072  10.295  13.179  0.7958 -0.0465  0.6438
  843MOL0     C13709   1.015  10.275  13.325 -0.2766 -0.1864 -0.4268
  843MOL0     C13710   0.872  10.327  13.348  0.2068  0.1285 -0.4798
  843MOL0     C13711   0.844  10.328  13.493  0.5070  0.0357  0.7214
  843MOL0     C13712   0.706  10.383  13.511  0.2994 -0.2954 -0.3038
  843MOL0     C13713   0.660  10.404  13.647 -0.0230 -0.7001  0.0293
  843MOL0     C13714   0.537  10.504  13.656 -0.6800 -0.0553  0.5234
  843MOL0    Cl13715   0.428  10.472  13.515  0.2722  0.2625 -0.1337
  843MOL0     C13716   1.073   9.997  12.998 -0.4664  0.5537  0.3186
  843MOL0     C13717   1.148   9.933  12.900  0.8629  0.6641 -0.3432
  843MOL0     O13718   1.356  10.006  12.715 -0.1573  0.4282  0.0889
  843MOL0     C13719   1.337   9.730  12.489 -0.0602  0.2154  0.1470
  843MOL0     C13720   1.407   9.656  12.403  0.1308 -0.6777  0.4891
  843MOL0     N13721   1.885   9.175  11.828 -0.2645 -0.6073 -0.9744
  843MOL0     N13722   1.864   9.172  11.706 -0.1643  0.3727 -0.0525
  843MOL0     C13723   2.334   8.727  10.789 -0.0936 -0.5078  0.7368
  843MOL0     C13724   2.473   8.739  10.742  0.4263  0.5421  0.1775
  843MOL0     C13725   2.884   8.950  10.698  0.1687  0.2204  0.4951
  843MOL0     C13726   2.946   8.855  10.614  0.7297  0.4951  0.5004
  843MOL0     C13727   3.080   8.873  10.579  0.2147  0.2515 -0.4894
  843MOL0     C13728   3.164   8.976  10.625 -0.2250  0.3049 -0.1325
  843MOL0     O13729   3.298   8.972  10.588  0.0337 -0.3185 -0.0236
  843MOL0     C13730   3.388   9.065  10.655  0.2021  0.6392  0.0950
  843MOL0     C13731   3.537   9.049  10.621  0.4093  0.1217 -0.8900
  843MOL0     C13732   3.632   9.162  10.669  0.1202  0.1744 -1.1946
  843MOL0     C13733   3.748   9.119  10.760  0.1123 -0.5193 -0.1229
  843MOL0     C13734   3.712   9.082  10.895  0.9053 -0.2389  0.2020
  843MOL0     C13735   3.698   9.061  11.013  0.6043 -0.0096 -0.7469
  843MOL0     C13736   3.096   9.070  10.699  0.1871 -0.0493  0.9351
  843MOL0     C13737   2.962   9.058  10.740 -0.2464 -0.1043 -0.5295
  843MOL0     H13738   2.482   9.063  10.669 -0.4365  0.1633  2.6215
  843MOL0     H13739   2.269   9.062  10.724  0.5880 -1.1845 -0.7821
  843MOL0     H13740   2.035   9.020  10.860  0.4679 -0.6657 -0.4551
  843MOL0     H13741   1.984   8.898  10.971  1.0946 -1.5901  1.3883
  843MOL0     H13742   2.184   8.938  11.124  0.8905 -0.5082 -1.2320
  843MOL0     H13743   2.253   9.045  11.008 -0.5613  2.4998  0.0244
  843MOL0     H13744   2.088   9.215  11.028  0.2321 -0.5674 -1.5069
  843MOL0     H13745   1.981   9.103  11.119  0.7227 -1.4317  1.3311
  843MOL0     H13746   2.155   9.090  11.310  0.6475 -1.0618 -1.5148
  843MOL0     H13747   2.244   9.206  11.219 -0.1564 -0.6274  0.0879
  843MOL0     H13748   2.146   9.359  11.355  3.1748  0.3207 -2.9634
  843MOL0     H13749   2.027   9.359  11.221 -1.9088  0.2466  1.8133
  843MOL0     H13750   1.888   9.196  11.332 -0.4652  1.2910 -0.6894
  843MOL0     H13751   1.995   9.202  11.478 -0.3390 -2.1217 -0.8869
  843MOL0     H13752   1.942   9.461  11.496 -0.6382 -0.1691  2.1620
  843MOL0     H13753   1.847   9.432  11.359 -0.8797  1.1168 -0.1163
  843MOL0     H13754   1.722   9.235  11.487 -2.2102  1.2908 -2.2329
  843MOL0     H13755   1.695   9.404  11.540  1.6742 -0.3228  4.5118
  843MOL0     H13756   1.810   9.497  11.758  0.3626  0.8438 -0.9356
  843MOL0     H13757   1.877   9.262  12.078 -1.0169  2.1252  2.1390
  843MOL0     H13758   1.988   9.394  12.021  1.4825 -1.2938  3.1461
  843MOL0     H13759   1.676   9.420  12.063 -0.9372  0.8709 -2.6493
  843MOL0     H13760   1.803   9.544  12.013  0.7339 -0.3183  0.0505
  843MOL0     H13761   1.916   9.487  12.249 -1.4032  4.6957  1.9507
  843MOL0     H13762   1.780   9.377  12.267 -1.3218  2.3886  1.3642
  843MOL0     H13763   1.781   9.675  12.229  1.4974 -1.8363 -2.8857
  843MOL0     H13764   1.789   9.594  12.387 -2.0707  1.1773  0.8072
  843MOL0     H13765   1.711   9.780  12.437 -0.7385  1.6057  1.9535
  843MOL0     H13766   1.602   9.962  12.708  1.4149 -0.2074 -1.0179
  843MOL0     H13767   1.717   9.963  12.568  1.0948 -0.8075  0.8846
  843MOL0     H13768   1.565  10.048  12.551  1.9193  0.8781 -0.9860
  843MOL0     H13769   0.979  10.016  12.626  0.1140 -2.5869 -0.0330
  843MOL0     H13770   0.879  10.183  12.819 -1.8197  1.1280  6.0065
  843MOL0     H13771   0.980  10.323  12.964 -1.3244  1.8970  0.1958
  843MOL0     H13772   0.871  10.341  13.097  0.6376  0.1373  3.2220
  843MOL0     H13773   1.151  10.222  13.159  3.5413  2.1106  2.8584
  843MOL0     H13774   1.125  10.390  13.170 -2.0719  1.6565  0.3849
  843MOL0     H13775   1.085  10.311  13.400  1.2855  0.7342 -2.2547
  843MOL0     H13776   1.008  10.170  13.355 -0.3997  0.9203  4.1219
  843MOL0     H13777   0.850  10.423  13.300 -0.7055 -0.7727 -1.9399
  843MOL0     H13778   0.800  10.260  13.300 -0.9715  1.3062 -0.4415
  843MOL0     H13779   0.921  10.379  13.551 -0.2816 -1.8155  3.5640
  843MOL0     H13780   0.848  10.231  13.542  2.3652 -0.6565 -0.6659
  843MOL0     H13781   0.686  10.482  13.469 -1.5642  0.7324  2.6698
  843MOL0     H13782   0.635  10.308  13.475 -1.3095 -0.0977  2.2400
  843MOL0     H13783   0.747  10.448  13.697 -0.7693 -1.2271  1.8398
  843MOL0     H13784   0.633  10.309  13.694 -3.5239  0.7283  1.2131
  843MOL0     H13785   0.580  10.604  13.640  1.2009 -0.4804  2.4546
  843MOL0     H13786   0.477  10.490  13.746 -1.2161 -3.5563 -0.2580
  843MOL0     H13787   1.104   9.994  13.102  1.8722  0.3312 -0.3136
  843MOL0     H13788   1.234   9.872  12.926  0.8645  0.7266 -0.1995
  843MOL0     H13789   1.234   9.696  12.493  0.3286 -1.0371 -0.2123
  843MOL0     H13790   1.353   9.576  12.353  0.8574 -0.3589 -0.8564
  843MOL0     H13791   2.284   8.632  10.803 -1.3086 -0.2807 -1.5871
  843MOL0     H13792   2.526   8.644  10.745  1.3290  1.0589  1.9627
  843MOL0     H13793   2.893   8.773  10.568 -0.0014  1.4965 -0.5039
  843MOL0     H13794   3.123   8.801  10.510 -0.8542 -1.2061  0.3241
  843MOL0     H13795   3.365   9.168  10.624  2.8023  0.9699 -1.0175
  843MOL0     H13796   3.379   9.063  10.764 -1.1163  0.6559 -0.0007
  843MOL0     H13797   3.552   9.048  10.513 -2.1219 -0.9572 -1.2824
  843MOL0     H13798   3.565   8.951  10.660 -3.5404 -0.6400  0.4735
  843MOL0     H13799   3.582   9.248  10.714  1.4480  0.3005  0.1072
  843MOL0     H13800   3.669   9.204  10.575 -0.0410  0.6414 -1.0530
  843MOL0     H13801   3.825   9.196  10.775  0.9622 -1.4101  0.1937
  843MOL0     H13802   3.789   9.032  10.708  0.0690  0.4627 -1.9024
  843MOL0     H13803   3.686   9.041  11.118 -2.1950 -0.9126 -1.1412
  843MOL0     H13804   3.157   9.155  10.729  0.7413 -0.6728  1.6177
  843MOL0     H13805   2.935   9.145  10.798  5.0647  0.8446  1.1108
  844MOL0     O13806   7.294   4.342   3.954  0.6476 -0.7532 -0.0260
  844MOL0     C13807   7.204   4.423   3.947 -0.5084  0.2016 -0.4914
  844MOL0     O13808   7.099   4.438   4.034  0.2214  0.2790  0.6253
  844MOL0     C13809   7.098   4.364   4.145 -0.2260  0.1214 -0.8155
  844MOL0     C13810   7.087   4.225   4.146  0.0312 -1.0264  0.1065
  844MOL0     C13811   7.098   4.148   4.267  0.2376 -0.2582  0.4389
  844MOL0     C13812   7.120   4.201   4.395  0.0058 -0.4450  0.3009
  844MOL0     O13813   7.133   4.128   4.502  0.4285 -0.2526  0.3471
  844MOL0     C13814   7.197   3.997   4.486 -0.5008  0.3646 -0.5121
  844MOL0     C13815   7.252   3.948   4.623  0.7746  0.5826 -0.4895
  844MOL0     C13816   7.284   3.796   4.613  0.0117  0.5379 -0.3815
  844MOL0     C13817   7.362   3.757   4.738 -0.1863 -1.1573 -1.0525
  844MOL0     C13818   7.412   3.607   4.761 -0.1352 -0.5659  0.7308
  844MOL0     C13819   7.477   3.588   4.900  0.8435 -0.0006  0.4788
  844MOL0     C13820   7.510   3.439   4.933  0.2319  0.0029  0.5641
  844MOL0     C13821   7.532   3.400   5.073  0.1329  0.5322 -0.2706
  844MOL0     N13822   7.408   3.389   5.153  0.0756  0.7846 -0.0444
  844MOL0     C13823   7.337   3.272   5.163  0.3450 -0.9599 -0.5904
  844MOL0     C13824   7.239   3.301   5.249  0.0346 -0.3352  0.0948
  844MOL0     C13825   7.129   3.213   5.298  0.0040 -1.4223  0.2117
  844MOL0     C13826   7.152   3.167   5.439  0.3988  0.5678 -0.8406
  844MOL0     C13827   7.221   3.028   5.441 -0.3350 -0.6399  0.3619
  844MOL0     C13828   7.125   2.910   5.435 -0.4662 -0.0848  0.2899
  844MOL0     O13829   7.080   2.870   5.563  0.4826 -0.2785  0.4888
  844MOL0     C13830   7.139   2.767   5.633  0.6548  0.2968  0.7380
  844MOL0     C13831   7.277   2.762   5.662  0.0543  0.2797  0.0137
  844MOL0     C13832   7.340   2.648   5.725  0.1851  0.2922  0.4576
  844MOL0     C13833   7.485   2.646   5.742  0.6168 -0.5633 -0.5827
  844MOL0     C13834   7.256   2.544   5.763  0.6676  0.7672  0.3829
  844MOL0     C13835   7.306   2.415   5.828 -0.2440  0.1399  0.8825
  844MOL0     O13836   7.408   2.355   5.759 -0.3828 -0.4023 -1.0784
  844MOL0     C13837   7.454   2.236   5.798  0.6338  0.4591  0.3317
  844MOL0     C13838   7.384   2.117   5.765 -0.0694  0.0720  0.2154
  844MOL0     C13839   7.434   1.995   5.800 -0.7454  0.7190  0.3673
  844MOL0     C13840   7.550   1.987   5.869 -1.2216  0.1630  0.9032
  844MOL0     O13841   7.584   1.863   5.920 -0.3968 -0.1055  0.5046
  844MOL0     C13842   7.688   1.842   6.014 -0.3879  0.5636 -0.0469
  844MOL0     C13843   7.818   1.810   5.943  0.4835 -0.2514  0.3332
  844MOL0     C13844   7.819   1.668   5.883 -0.3013  0.9781  0.2703
  844MOL0     C13845   7.968   1.623   5.873  0.6463 -0.6044  0.1644
  844MOL0     C13846   7.978   1.500   5.787 -0.5677 -0.4768  0.5692
  844MOL0     C13847   7.984   1.527   5.641 -0.6116 -1.0643  0.4963
  844MOL0     C13848   8.024   1.398   5.560 -1.6752 -0.3639  0.2812
  844MOL0     C13849   8.005   1.391   5.411  0.0119 -0.5863 -0.2673
  844MOL0    Cl13850   8.141   1.437   5.307 -0.4181  0.3273 -0.1065
  844MOL0     C13851   7.624   2.100   5.904  0.4036 -0.0554  0.7671
  844MOL0     C13852   7.577   2.228   5.872  0.9315 -0.2715  0.5003
  844MOL0     O13853   7.247   2.372   5.927 -0.1482  0.2115 -1.1155
  844MOL0     C13854   7.118   2.548   5.736 -0.2155 -1.0601 -0.4567
  844MOL0     C13855   7.063   2.667   5.687 -0.1829 -0.5053  0.9122
  844MOL0     N13856   7.248   3.434   5.290 -0.0020  0.6378  0.1133
  844MOL0     N13857   7.352   3.486   5.234 -0.7458  0.3592  0.1287
  844MOL0     C13858   7.135   4.348   4.395  0.3395  0.1690  0.1745
  844MOL0     C13859   7.123   4.423   4.274 -0.2026  0.2175  0.3474
  844MOL0     C13860   7.233   4.537   3.856 -0.2586  0.3104  0.1602
  844MOL0     C13861   7.129   4.631   3.821  0.6687  0.0091 -0.4053
  844MOL0     C13862   7.151   4.750   3.749  0.2200  0.9117  0.0303
  844MOL0     C13863   7.276   4.779   3.689 -0.6741  0.5154  0.5045
  844MOL0     O13864   7.302   4.878   3.602  0.3541  0.1603  0.4072
  844MOL0     C13865   7.195   4.974   3.583 -0.2728 -0.1037  0.1484
  844MOL0     C13866   7.159   5.068   3.707 -0.2920 -0.0355 -0.2655
  844MOL0     C13867   7.050   5.164   3.669 -0.9047  0.1764 -0.5835
  844MOL0     C13868   7.056   5.292   3.752  1.0058  0.8201 -0.2315
  844MOL0     C13869   7.173   5.373   3.723 -0.3783  0.4829  0.4072
  844MOL0     C13870   7.269   5.428   3.672 -0.3701  0.5810 -0.3018
  844MOL0     C13871   7.380   4.692   3.720  0.4088 -0.2503 -0.4052
  844MOL0     C13872   7.358   4.575   3.801 -0.3981  0.1762 -1.0010
  844MOL0     H13873   7.076   4.185   4.046 -0.8403  1.1749 -0.7460
  844MOL0     H13874   7.068   4.045   4.252 -4.0381  0.6990  1.2189
  844MOL0     H13875   7.125   3.930   4.437 -2.4383  0.2066  2.3343
  844MOL0     H13876   7.283   4.012   4.420 -0.8991  2.0083 -0.6979
  844MOL0     H13877   7.338   4.000   4.664  1.5633 -2.8805  2.8886
  844MOL0     H13878   7.170   3.961   4.695  0.9682  0.5081 -0.2552
  844MOL0     H13879   7.187   3.745   4.616 -0.8245  2.0402 -0.6975
  844MOL0     H13880   7.328   3.761   4.519  2.5823  1.0215  0.5624
  844MOL0     H13881   7.438   3.833   4.759 -1.7682 -0.4287  2.9641
  844MOL0     H13882   7.309   3.769   4.833 -0.7922 -0.9153 -1.4186
  844MOL0     H13883   7.334   3.533   4.743  0.8673 -1.7102  1.0211
  844MOL0     H13884   7.490   3.592   4.686 -0.4132 -2.2473  0.7387
  844MOL0     H13885   7.568   3.649   4.911  0.3332  1.3999 -2.0948
  844MOL0     H13886   7.411   3.624   4.979 -0.1531 -0.6829 -0.0175
  844MOL0     H13887   7.426   3.379   4.898  0.1792  0.2520  0.2652
  844MOL0     H13888   7.592   3.411   4.866  0.3796  0.7790  0.4185
  844MOL0     H13889   7.604   3.464   5.124 -0.3280 -1.6806  3.5586
  844MOL0     H13890   7.574   3.299   5.068 -2.4617 -0.5957 -0.9335
  844MOL0     H13891   7.347   3.178   5.110  1.5814 -1.2439  0.1001
  844MOL0     H13892   7.034   3.268   5.302 -0.7374 -2.6895  0.7923
  844MOL0     H13893   7.099   3.130   5.234  0.7201 -1.8758  0.4568
  844MOL0     H13894   7.065   3.146   5.503  1.3498 -2.4120 -0.3931
  844MOL0     H13895   7.214   3.238   5.495 -3.7605  2.6701  1.6598
  844MOL0     H13896   7.275   3.027   5.536  0.1870  1.6947  0.1694
  844MOL0     H13897   7.300   3.017   5.366  0.4273 -1.2727  1.2322
  844MOL0     H13898   7.180   2.825   5.394 -0.7456  0.9854 -2.5611
  844MOL0     H13899   7.049   2.947   5.366  1.4989  2.2377 -0.7752
  844MOL0     H13900   7.338   2.841   5.619  0.5906  0.0748  0.3872
  844MOL0     H13901   7.528   2.746   5.743 -0.3251 -0.1373  1.1386
  844MOL0     H13902   7.505   2.586   5.831 -1.4287  1.0041  0.9949
  844MOL0     H13903   7.522   2.605   5.647  0.0459  1.2276 -1.6316
  844MOL0     H13904   7.287   2.114   5.715 -0.5264 -0.3686  1.1023
  844MOL0     H13905   7.374   1.904   5.799 -0.4960  0.5570 -0.3820
  844MOL0     H13906   7.692   1.925   6.085 -0.2670  0.8534 -0.3951
  844MOL0     H13907   7.662   1.755   6.075 -0.3483  0.8979  0.4516
  844MOL0     H13908   7.817   1.872   5.853 -0.4401 -1.0960 -0.2600
  844MOL0     H13909   7.899   1.827   6.015 -0.0779  4.6878  0.0861
  844MOL0     H13910   7.765   1.668   5.788  1.4907 -3.2198 -0.9862
  844MOL0     H13911   7.762   1.598   5.945 -2.1972 -0.1036 -2.5138
  844MOL0     H13912   8.032   1.697   5.825  0.8247 -1.4477 -0.9278
  844MOL0     H13913   7.994   1.614   5.979 -0.5782  0.3208  0.5550
  844MOL0     H13914   7.900   1.426   5.806  1.8916 -2.6341  3.2448
  844MOL0     H13915   8.073   1.464   5.826 -0.8226 -0.1477  1.5438
  844MOL0     H13916   7.880   1.548   5.615 -1.1027 -0.7914  2.5482
  844MOL0     H13917   8.057   1.604   5.615 -2.7647  1.6057  1.9548
  844MOL0     H13918   7.971   1.312   5.600 -2.8599 -1.2182 -2.8197
  844MOL0     H13919   8.130   1.376   5.576 -1.3462 -1.6038 -2.8247
  844MOL0     H13920   7.918   1.445   5.373  0.1277 -1.5466 -1.9696
  844MOL0     H13921   7.976   1.290   5.382  0.8672  0.0767 -3.9362
  844MOL0     H13922   7.703   2.095   5.978  0.9701  1.5409  0.2974
  844MOL0     H13923   7.638   2.315   5.895 -0.6865  1.2846 -0.8361
  844MOL0     H13924   7.062   2.461   5.768  0.6823 -1.6833 -0.5342
  844MOL0     H13925   6.956   2.664   5.670 -0.2617 -3.3414  1.3962
  844MOL0     H13926   7.166   4.392   4.489 -0.5371 -1.4413  1.2464
  844MOL0     H13927   7.149   4.528   4.265  1.7694 -0.4237 -5.2919
  844MOL0     H13928   7.029   4.612   3.860  0.0383  1.1535 -1.4056
  844MOL0     H13929   7.063   4.810   3.729  1.9691  3.3462 -0.7977
  844MOL0     H13930   7.237   5.048   3.513  1.6575 -0.8617  0.4309
  844MOL0     H13931   7.106   4.923   3.545  0.1189 -0.5980 -0.1144
  844MOL0     H13932   7.246   5.127   3.737 -0.9918  2.0361 -2.0030
  844MOL0     H13933   7.125   5.007   3.790  1.3325  0.0610  0.5159
  844MOL0     H13934   6.954   5.113   3.679 -0.8756 -0.0723 -1.4923
  844MOL0     H13935   7.054   5.184   3.561  0.6740 -0.7072 -0.7169
  844MOL0     H13936   7.060   5.262   3.857 -1.8002 -1.8888 -0.7435
  844MOL0     H13937   6.970   5.358   3.735  1.4544  2.4406  2.9490
  844MOL0     H13938   7.349   5.453   3.606 -1.7106 -4.1661 -4.4201
  844MOL0     H13939   7.481   4.697   3.681 -0.8772  0.7588 -3.9846
  844MOL0     H13940   7.448   4.516   3.812 -0.7726 -0.5641 -1.7706
  845MOL0     O13941   2.935   0.986   9.079  0.3537  0.0158 -0.7964
  845MOL0     C13942   3.026   0.975   8.997 -0.1591 -0.8397  0.2122
  845MOL0     O13943   3.161   1.003   9.022 -0.5484  0.1807  0.2150
  845MOL0     C13944   3.191   1.070   9.143  0.1439 -0.4107 -0.2593
  845MOL0     C13945   3.273   1.003   9.231 -0.6292 -0.0963  0.1540
  845MOL0     C13946   3.303   1.061   9.358 -0.0527  0.0963  0.1822
  845MOL0     C13947   3.237   1.182   9.389  0.1754 -0.2783 -0.3034
  845MOL0     O13948   3.262   1.249   9.506 -0.4323 -0.2052 -0.1492
  845MOL0     C13949   3.331   1.192   9.618 -0.3042 -0.9864  0.0267
  845MOL0     C13950   3.250   1.091   9.688 -0.0563 -1.0222 -0.3615
  845MOL0     C13951   3.140   1.158   9.773 -0.4171  0.0178 -0.7965
  845MOL0     C13952   3.000   1.099   9.755  0.3153  0.5551  0.1980
  845MOL0     C13953   2.887   1.153   9.853 -0.5864  0.3009 -0.5854
  845MOL0     C13954   2.761   1.082   9.837  0.0623 -0.1763 -0.6413
  845MOL0     C13955   2.637   1.141   9.912  0.8804 -0.0441  1.1407
  845MOL0     C13956   2.588   1.271   9.840  0.0051 -0.0635 -0.6995
  845MOL0     N13957   2.491   1.351   9.922  0.5586 -0.5112 -0.6229
  845MOL0     C13958   2.540   1.445  10.010 -0.0086 -0.6623 -0.1047
  845MOL0     C13959   2.429   1.500  10.067  0.5153  0.8020  0.8350
  845MOL0     C13960   2.405   1.590  10.186 -0.0636 -0.4307 -0.6615
  845MOL0     C13961   2.434   1.519  10.322 -0.1708 -0.5097 -0.1957
  845MOL0     C13962   2.357   1.381  10.338 -0.9005  0.2060 -0.3434
  845MOL0     C13963   2.204   1.398  10.343  1.0761  0.4706 -0.6278
  845MOL0     O13964   2.160   1.480  10.458  0.1496 -0.3444 -0.2286
  845MOL0     C13965   2.020   1.469  10.480  0.0776 -0.7180 -0.6060
  845MOL0     C13966   1.922   1.464  10.379 -0.1922 -0.2646  0.2275
  845MOL0     C13967   1.789   1.441  10.404 -0.0671  0.5605 -0.8371
  845MOL0     C13968   1.708   1.434  10.281 -0.4468 -0.5373  0.1560
  845MOL0     C13969   1.749   1.420  10.537 -0.0170 -0.6826  0.9999
  845MOL0     C13970   1.605   1.384  10.568 -0.4463 -0.6516 -0.7745
  845MOL0     O13971   1.516   1.367  10.461  0.6011  0.2485 -0.0522
  845MOL0     C13972   1.398   1.416  10.478  0.9615 -1.0425 -0.2393
  845MOL0     C13973   1.369   1.557  10.463 -0.3246  0.2440  0.1229
  845MOL0     C13974   1.246   1.605  10.466  0.7790  0.2122 -1.3201
  845MOL0     C13975   1.138   1.523  10.497  0.1541 -0.0618  0.1234
  845MOL0     O13976   1.023   1.588  10.509 -0.2200 -0.6100  0.6540
  845MOL0     C13977   0.903   1.519  10.547  0.7382  0.5767 -0.2603
  845MOL0     C13978   0.847   1.636  10.622  0.4591 -0.0773 -0.0969
  845MOL0     C13979   0.796   1.755  10.543 -0.0985  0.1693  0.1946
  845MOL0     C13980   0.731   1.850  10.636  0.2871 -0.4425 -0.5161
  845MOL0     C13981   0.700   1.972  10.550  1.3956  0.1646  0.0441
  845MOL0     C13982   0.547   1.973  10.515 -1.0278 -0.1646  0.4743
  845MOL0     C13983   0.497   2.101  10.462  0.2644  1.2390  0.2096
  845MOL0     C13984   0.383   2.079  10.365 -0.9374  0.6752  0.2005
  845MOL0    Cl13985   0.342   2.236  10.307  0.4383  0.0213 -0.3958
  845MOL0     C13986   1.161   1.385  10.522  0.4089 -0.3689  0.2761
  845MOL0     C13987   1.292   1.337  10.514 -0.8377 -0.0766  0.5221
  845MOL0     O13988   1.570   1.395  10.685  1.0334 -0.2572 -0.4205
  845MOL0     C13989   1.846   1.441  10.643  0.4811  0.5272 -0.2419
  845MOL0     C13990   1.978   1.468  10.614 -0.2137 -0.1473 -0.3415
  845MOL0     N13991   2.322   1.441   9.999  0.4411 -0.2507  0.6800
  845MOL0     N13992   2.354   1.349   9.915  0.0538 -0.0188  0.1893
  845MOL0     C13993   3.147   1.245   9.304 -0.1248  0.6754  0.9289
  845MOL0     C13994   3.137   1.192   9.178 -0.3541 -0.4679  0.1912
  845MOL0     C13995   2.992   0.926   8.867 -0.5075 -0.2841 -0.1865
  845MOL0     C13996   2.872   0.860   8.837  0.5459  0.8135 -0.7670
  845MOL0     C13997   2.832   0.833   8.706  0.6880  0.0262  0.1877
  845MOL0     C13998   2.915   0.860   8.598 -0.2818  0.1769  0.6332
  845MOL0     O13999   2.862   0.822   8.472 -0.0198  0.0070 -0.8095
  845MOL0     C14000   2.946   0.833   8.358 -0.3041 -0.0001 -0.1209
  845MOL0     C14001   2.893   0.735   8.252  0.4951 -0.1329 -0.2862
  845MOL0     C14002   2.741   0.745   8.218 -0.8957 -0.2284 -0.7805
  845MOL0     C14003   2.682   0.881   8.185  0.3668 -0.3377 -0.9714
  845MOL0     C14004   2.725   0.953   8.058  1.7628 -0.0063 -0.1631
  845MOL0     C14005   2.729   1.021   7.958  0.3920 -0.5227  0.1276
  845MOL0     C14006   3.039   0.919   8.628  0.0312 -0.6544 -0.4012
  845MOL0     C14007   3.076   0.960   8.759  0.5103 -0.3526 -0.1197
  845MOL0     H14008   3.308   0.902   9.213 -0.1184  0.4176 -1.9356
  845MOL0     H14009   3.371   1.016   9.431  1.1200 -1.2524 -1.6330
  845MOL0     H14010   3.429   1.153   9.588  1.0292  0.7867  1.7157
  845MOL0     H14011   3.349   1.275   9.688 -1.2870 -1.6771  1.1184
  845MOL0     H14012   3.208   1.021   9.615  3.5302 -1.8569 -1.7927
  845MOL0     H14013   3.308   1.018   9.745  0.4092  0.4562  1.1579
  845MOL0     H14014   3.161   1.155   9.880 -0.8465 -0.0485 -0.7125
  845MOL0     H14015   3.127   1.259   9.734 -2.9261 -0.2502 -0.8160
  845MOL0     H14016   2.963   1.110   9.653 -1.4810  1.1538  0.8822
  845MOL0     H14017   3.017   0.995   9.786 -0.8186  0.0582 -0.7553
  845MOL0     H14018   2.915   1.141   9.958 -3.4368 -0.2630  0.1831
  845MOL0     H14019   2.880   1.260   9.835 -2.8053  0.4197  0.6096
  845MOL0     H14020   2.735   1.080   9.731  0.7778  3.6715 -1.0404
  845MOL0     H14021   2.786   0.987   9.885 -1.3657  0.4975  1.5959
  845MOL0     H14022   2.558   1.066   9.924  0.4880  0.3501  1.0777
  845MOL0     H14023   2.669   1.166  10.014  1.8153 -0.7069  1.0229
  845MOL0     H14024   2.533   1.268   9.746 -1.4590  0.1658  0.1278
  845MOL0     H14025   2.678   1.327   9.812 -0.0176 -0.8617 -2.4837
  845MOL0     H14026   2.639   1.460  10.054  0.0263  3.7834 -1.2900
  845MOL0     H14027   2.474   1.675  10.183 -2.4032  1.7724  2.1436
  845MOL0     H14028   2.306   1.635  10.178  1.0750  2.6572  1.1868
  845MOL0     H14029   2.403   1.592  10.397  0.3699  1.9016 -2.1885
  845MOL0     H14030   2.541   1.516  10.344  0.0674  2.1321 -0.6824
  845MOL0     H14031   2.407   1.349  10.430 -0.9692  2.2039  0.4206
  845MOL0     H14032   2.388   1.308  10.263 -0.4475 -0.4640  0.4742
  845MOL0     H14033   2.153   1.304  10.365 -0.5268  1.2839 -0.7566
  845MOL0     H14034   2.170   1.432  10.245  0.8041 -0.7809 -0.9925
  845MOL0     H14035   1.952   1.486  10.277  0.1867 -3.7745 -0.5521
  845MOL0     H14036   1.768   1.435  10.189 -0.3524 -1.0270  0.2124
  845MOL0     H14037   1.662   1.336  10.265  0.0276 -0.4470 -2.2306
  845MOL0     H14038   1.625   1.504  10.285 -1.1525 -1.3677  0.2888
  845MOL0     H14039   1.452   1.617  10.427 -1.6455  1.6254 -0.7270
  845MOL0     H14040   1.221   1.709  10.448  0.6891  0.0324 -2.3089
  845MOL0     H14041   0.836   1.489  10.467 -4.0324  3.3421  2.2040
  845MOL0     H14042   0.933   1.444  10.622  0.2810  0.0476 -0.6049
  845MOL0     H14043   0.763   1.596  10.679  1.7418  0.8143  2.5466
  845MOL0     H14044   0.920   1.661  10.699 -1.4180  0.2174  1.6569
  845MOL0     H14045   0.730   1.719  10.464  2.8867 -0.0760 -2.4050
  845MOL0     H14046   0.882   1.801  10.493  1.3767 -1.6680  0.9266
  845MOL0     H14047   0.638   1.809  10.678  0.2744  1.8997  2.0644
  845MOL0     H14048   0.800   1.873  10.717 -0.5191  0.8766 -0.1737
  845MOL0     H14049   0.763   1.988  10.462 -1.6539  2.2753 -1.9430
  845MOL0     H14050   0.718   2.058  10.615  0.5041 -1.4230  2.5372
  845MOL0     H14051   0.528   1.885  10.454 -0.3602 -2.8623  3.8356
  845MOL0     H14052   0.487   1.956  10.606  0.0923  0.1938  1.3054
  845MOL0     H14053   0.585   2.144  10.412  0.7592  0.8730  0.7616
  845MOL0     H14054   0.475   2.174  10.540  2.9803  1.0560  1.2500
  845MOL0     H14055   0.298   2.032  10.416 -0.9713  2.0195  1.4343
  845MOL0     H14056   0.416   2.017  10.281 -0.9813  2.3655 -1.1176
  845MOL0     H14057   1.079   1.316  10.540 -0.2322  0.9242  2.8228
  845MOL0     H14058   1.321   1.235  10.536  2.6301  0.7483  0.3618
  845MOL0     H14059   1.805   1.430  10.743  2.0907  0.7826  0.4809
  845MOL0     H14060   2.059   1.483  10.685  1.5204 -1.0528 -2.0140
  845MOL0     H14061   3.103   1.339   9.338  0.7280  0.4574  2.7787
  845MOL0     H14062   3.056   1.241   9.125 -1.1775 -0.2897  1.5798
  845MOL0     H14063   2.810   0.819   8.916  0.8818  0.8497 -0.4817
  845MOL0     H14064   2.745   0.772   8.687  1.8601 -1.8393  0.5564
  845MOL0     H14065   2.952   0.936   8.324  1.2486  0.2917  0.9378
  845MOL0     H14066   3.044   0.798   8.391 -0.4226  0.4181  0.6936
  845MOL0     H14067   2.911   0.631   8.283 -1.1893 -1.6628 -3.8510
  845MOL0     H14068   2.940   0.744   8.153 -1.0414  0.2395 -1.0130
  845MOL0     H14069   2.693   0.726   8.314  3.2516 -2.1777  1.1653
  845MOL0     H14070   2.701   0.676   8.143 -0.0937  1.0613 -2.4569
  845MOL0     H14071   2.713   0.946   8.267  0.3813 -0.3852 -0.9387
  845MOL0     H14072   2.573   0.878   8.180  0.2643  1.1595 -0.1849
  845MOL0     H14073   2.720   1.089   7.876  0.9665  4.5571  3.8300
  845MOL0     H14074   3.112   0.931   8.549  0.1267  1.1562 -0.0777
  845MOL0     H14075   3.174   1.007   8.762  0.9120 -1.2171  0.9978
  846MOL0     O14076   0.165   5.246   8.912  0.8692 -0.4310  0.1681
  846MOL0     C14077   0.191   5.201   8.800  0.1007 -0.7394 -0.4192
  846MOL0     O14078   0.207   5.065   8.770  0.0675 -0.3956  0.1126
  846MOL0     C14079   0.207   4.965   8.872  0.3360  0.2477 -0.1112
  846MOL0     C14080   0.226   4.982   9.013 -0.2079  0.5783  0.5305
  846MOL0     C14081   0.228   4.868   9.098 -0.1956 -0.3096 -0.0179
  846MOL0     C14082   0.184   4.745   9.046 -0.7415  0.0843 -0.1932
  846MOL0     O14083   0.160   4.647   9.134 -0.1569  0.1854 -0.2784
  846MOL0     C14084   0.092   4.528   9.099  1.0860  0.1051 -0.1999
  846MOL0     C14085   0.016   4.464   9.213 -0.8487  0.7585 -0.7207
  846MOL0     C14086   0.110   4.430   9.334  0.1624  0.0954  0.8755
  846MOL0     C14087   0.028   4.422   9.468  0.4447  0.5188 -0.1881
  846MOL0     C14088   0.127   4.446   9.578  0.1590  0.3167  0.0772
  846MOL0     C14089   0.063   4.439   9.720 -0.4372 -1.0127  0.6786
  846MOL0     C14090   0.163   4.503   9.809 -0.4332 -0.3188 -0.5424
  846MOL0     C14091   0.152   4.653   9.839  0.3727 -0.1027 -0.2086
  846MOL0     N14092   0.053   4.696   9.941 -0.5423 -0.3760 -0.1912
  846MOL0     C14093   0.067   4.671  10.070  0.1087 -0.3031  0.1650
  846MOL0     C14094  -0.060   4.651  10.121 -0.8730 -0.8364 -0.7743
  846MOL0     C14095  -0.099   4.593  10.258  0.0800 -0.0025  0.2481
  846MOL0     C14096  -0.233   4.647  10.299 -0.4040  0.7977  0.2608
  846MOL0     C14097  -0.264   4.628  10.452 -0.3410 -0.7348  0.5843
  846MOL0     C14098  -0.194   4.740  10.533  0.5040 -0.5815  0.2597
  846MOL0     O14099  -0.083   4.696  10.609 -0.4216 -0.6303  0.4919
  846MOL0     C14100   0.045   4.754  10.609  0.2973 -0.0540  0.6607
  846MOL0     C14101   0.126   4.697  10.705 -0.7657  0.0502 -0.2675
  846MOL0     C14102   0.256   4.741  10.722 -0.3906  0.5299 -0.7620
  846MOL0     C14103   0.341   4.665  10.825 -0.0726 -0.8350 -0.2738
  846MOL0     C14104   0.304   4.850  10.653 -0.0447 -0.6331  0.8523
  846MOL0     C14105   0.442   4.895  10.677  0.2509 -0.4104 -0.2111
  846MOL0     O14106   0.473   5.030  10.685  0.2168 -0.1103 -0.3010
  846MOL0     C14107   0.605   5.069  10.708 -0.0817 -0.7665  0.6340
  846MOL0     C14108   0.677   5.122  10.599 -0.1218  0.5408  0.5455
  846MOL0     C14109   0.816   5.144  10.599  0.4690 -0.5312 -0.9094
  846MOL0     C14110   0.891   5.102  10.713  0.9101 -0.3871  0.6852
  846MOL0     O14111   1.034   5.124  10.718 -0.2632 -0.3605 -0.5778
  846MOL0     C14112   1.105   5.067  10.834 -0.1886 -0.1760 -0.4115
  846MOL0     C14113   1.104   4.913  10.822  0.1549  0.2099 -0.9730
  846MOL0     C14114   1.072   4.845  10.952 -0.0487 -0.4794  0.0334
  846MOL0     C14115   1.065   4.690  10.918 -0.4971 -0.2619  0.2153
  846MOL0     C14116   1.083   4.600  11.043  0.6972  0.7565  0.0127
  846MOL0     C14117   1.224   4.583  11.092 -0.5310 -0.7047  0.6974
  846MOL0     C14118   1.232   4.511  11.226 -0.6984 -0.6671 -0.0770
  846MOL0     C14119   1.357   4.544  11.300  0.6177 -0.0810 -0.1476
  846MOL0    Cl14120   1.497   4.504  11.200  0.1058  0.1960  0.8405
  846MOL0     C14121   0.820   5.060  10.823  0.1873  0.2654 -0.2374
  846MOL0     C14122   0.678   5.051  10.826  0.0780  0.2993  0.6795
  846MOL0     O14123   0.529   4.811  10.666  0.4792 -0.2386 -0.0265
  846MOL0     C14124   0.220   4.909  10.558  0.2726 -0.6144  0.1226
  846MOL0     C14125   0.092   4.859  10.530 -0.0389 -0.2534 -0.1857
  846MOL0     N14126  -0.142   4.685  10.024  0.1996  1.1041 -0.4396
  846MOL0     N14127  -0.073   4.702   9.920  0.0921 -0.3122 -0.1670
  846MOL0     C14128   0.162   4.726   8.907 -0.9885  0.9625 -0.3817
  846MOL0     C14129   0.179   4.836   8.825 -0.5402  0.2922  0.0243
  846MOL0     C14130   0.221   5.284   8.682 -0.0369 -0.0659  0.7235
  846MOL0     C14131   0.237   5.227   8.556 -0.3769 -0.4922  0.1114
  846MOL0     C14132   0.271   5.298   8.442 -0.4345 -0.0041  0.5366
  846MOL0     C14133   0.287   5.439   8.450 -0.9814 -0.3629 -0.7554
  846MOL0     O14134   0.323   5.519   8.345  0.7419 -0.8241 -0.6320
  846MOL0     C14135   0.423   5.468   8.261  0.1033 -0.5826 -0.7666
  846MOL0     C14136   0.351   5.397   8.140 -0.0831 -0.4465  0.9238
  846MOL0     C14137   0.381   5.473   8.008  0.9058  0.2313  0.2468
  846MOL0     C14138   0.336   5.395   7.882  0.3452 -0.2228 -0.5290
  846MOL0     C14139   0.185   5.391   7.878  1.2054  0.5930 -0.2545
  846MOL0     C14140   0.062   5.401   7.883  0.7364  0.2563  0.7438
  846MOL0     C14141   0.261   5.499   8.570 -0.1829 -0.6931 -0.4463
  846MOL0     C14142   0.229   5.426   8.688  0.1276 -0.4225 -0.1375
  846MOL0     H14143   0.255   5.081   9.048  1.5645  1.0482 -2.0095
  846MOL0     H14144   0.250   4.885   9.203 -0.8221 -0.2584  0.1074
  846MOL0     H14145   0.010   4.551   9.029  0.7459  3.7607  1.1550
  846MOL0     H14146   0.165   4.456   9.061  1.1912  0.6014 -0.9695
  846MOL0     H14147  -0.058   4.534   9.252 -0.8320  0.7258 -0.6295
  846MOL0     H14148  -0.027   4.372   9.173 -0.3203  0.6383 -1.0190
  846MOL0     H14149   0.155   4.333   9.310 -1.3346 -0.0137 -1.9465
  846MOL0     H14150   0.188   4.507   9.340  0.6525 -0.3329  0.1693
  846MOL0     H14151  -0.052   4.496   9.470  1.1076  1.2464  0.1421
  846MOL0     H14152  -0.011   4.320   9.470 -1.5513  1.2560  0.2278
  846MOL0     H14153   0.196   4.362   9.568 -2.2689 -1.8584  0.4639
  846MOL0     H14154   0.171   4.545   9.564  1.1494 -0.1455 -0.1882
  846MOL0     H14155  -0.034   4.490   9.720 -0.4527 -0.8525 -2.2001
  846MOL0     H14156   0.065   4.335   9.755  2.1370 -0.2597  3.0205
  846MOL0     H14157   0.152   4.458   9.908 -2.4541  1.6992  0.2623
  846MOL0     H14158   0.268   4.479   9.790 -0.0990  0.8281 -0.2464
  846MOL0     H14159   0.113   4.701   9.749 -0.8624 -0.7707 -0.0559
  846MOL0     H14160   0.253   4.675   9.874  0.8344 -2.2590 -0.0214
  846MOL0     H14161   0.156   4.656  10.129 -1.2601 -0.8616  2.1887
  846MOL0     H14162  -0.114   4.487  10.238  3.7949 -0.3747 -1.4996
  846MOL0     H14163  -0.024   4.614  10.335 -1.3062 -0.9147  1.8971
  846MOL0     H14164  -0.299   4.574  10.250 -0.0705  1.5244 -1.3713
  846MOL0     H14165  -0.258   4.742  10.251  3.2368  0.6073 -2.4912
  846MOL0     H14166  -0.231   4.530  10.487 -0.8206 -0.7739  0.9345
  846MOL0     H14167  -0.369   4.624  10.480 -0.3326  0.3466  0.8137
  846MOL0     H14168  -0.264   4.785  10.604 -0.8407  0.4419 -1.6291
  846MOL0     H14169  -0.164   4.807  10.452  0.9921 -3.5633 -2.2548
  846MOL0     H14170   0.080   4.620  10.766 -2.4591  0.2322 -1.2290
  846MOL0     H14171   0.314   4.568  10.866 -0.7921 -0.0755  1.1231
  846MOL0     H14172   0.436   4.633  10.780  2.5086  4.0441  0.9757
  846MOL0     H14173   0.353   4.737  10.906  1.6609 -0.0575 -1.1681
  846MOL0     H14174   0.631   5.147  10.503 -0.6881 -2.1531  0.0558
  846MOL0     H14175   0.871   5.197  10.522  4.5408 -1.0672  1.3534
  846MOL0     H14176   1.206   5.108  10.827 -0.0505 -0.6794 -1.5742
  846MOL0     H14177   1.065   5.099  10.931 -0.5405 -1.5679 -0.0775
  846MOL0     H14178   1.043   4.875  10.739 -1.6153 -4.1503  1.9555
  846MOL0     H14179   1.206   4.882  10.799  0.2016 -1.8127  1.6302
  846MOL0     H14180   0.972   4.874  10.985  0.9440  0.4560  2.4409
  846MOL0     H14181   1.131   4.862  11.042  1.4900 -1.4541 -0.7495
  846MOL0     H14182   0.968   4.649  10.887 -0.0665 -4.6751  3.7763
  846MOL0     H14183   1.138   4.674  10.838 -1.4993 -0.2463 -0.7258
  846MOL0     H14184   1.040   4.505  11.010  0.0750  0.3844  1.7836
  846MOL0     H14185   1.023   4.650  11.119  0.9929  4.7266 -2.0914
  846MOL0     H14186   1.284   4.529  11.017  1.4886  1.5193  0.5798
  846MOL0     H14187   1.278   4.678  11.089  0.5168 -1.2443 -2.6877
  846MOL0     H14188   1.219   4.403  11.213 -1.3789 -0.4851 -1.0364
  846MOL0     H14189   1.152   4.550  11.290  1.7128 -1.0159  3.4001
  846MOL0     H14190   1.362   4.478  11.387 -1.3806 -2.8485 -1.9746
  846MOL0     H14191   1.358   4.647  11.335 -1.9347  0.2281 -0.7992
  846MOL0     H14192   0.863   5.044  10.921  0.5882 -1.0081 -0.6056
  846MOL0     H14193   0.637   5.015  10.919 -0.2719 -2.0891 -0.3290
  846MOL0     H14194   0.243   5.003  10.509 -1.3581  2.4961  4.6508
  846MOL0     H14195   0.035   4.891  10.443 -0.5709 -1.7854 -0.4247
  846MOL0     H14196   0.142   4.623   8.878  0.3171  0.3610  0.7602
  846MOL0     H14197   0.194   4.822   8.719  2.7382 -0.2154  0.4456
  846MOL0     H14198   0.232   5.118   8.552 -0.7105 -0.4999  0.6560
  846MOL0     H14199   0.281   5.250   8.345 -1.2534  1.6292 -0.3935
  846MOL0     H14200   0.483   5.554   8.232 -1.0315  0.8383  0.8894
  846MOL0     H14201   0.494   5.392   8.297 -2.3287 -3.1973 -1.0829
  846MOL0     H14202   0.244   5.380   8.160  0.1763 -2.5663  0.8024
  846MOL0     H14203   0.403   5.301   8.134  2.7048  0.9196  1.6833
  846MOL0     H14204   0.489   5.487   7.994  0.6491  0.3793 -1.8989
  846MOL0     H14205   0.333   5.571   8.011  1.7226  0.6351  0.3082
  846MOL0     H14206   0.378   5.294   7.888 -1.8503 -1.0976  2.1216
  846MOL0     H14207   0.373   5.454   7.797 -1.5268  0.1076 -1.1622
  846MOL0     H14208  -0.043   5.382   7.888  0.9628 -1.9458 -1.3405
  846MOL0     H14209   0.278   5.606   8.567 -0.1171 -0.4884  3.1671
  846MOL0     H14210   0.212   5.483   8.779  0.2981 -1.5498  0.6163
  847MOL0     O14211   2.127   9.507   7.138  0.0733 -0.0932  0.6920
  847MOL0     C14212   2.097   9.445   7.240 -0.0543  0.6848 -0.3278
  847MOL0     O14213   2.070   9.312   7.248  0.1182 -0.3451 -0.7280
  847MOL0     C14214   2.062   9.240   7.133 -0.0602 -0.0549 -1.0587
  847MOL0     C14215   1.955   9.244   7.052  0.6897 -0.2038  0.0511
  847MOL0     C14216   1.958   9.171   6.925 -0.0453  0.1770 -0.1966
  847MOL0     C14217   2.074   9.098   6.891  0.2614 -1.7853  0.9473
  847MOL0     O14218   2.078   9.011   6.788 -1.2298  0.2601 -0.0340
  847MOL0     C14219   2.189   9.005   6.695  0.0323  0.2501  0.1780
  847MOL0     C14220   2.234   9.143   6.656  1.0763 -0.4697 -0.9194
  847MOL0     C14221   2.382   9.142   6.637  0.0634  0.0953 -0.2204
  847MOL0     C14222   2.443   9.275   6.601  0.1469 -0.0185 -0.3528
  847MOL0     C14223   2.583   9.254   6.537 -0.5679 -0.1579 -0.4798
  847MOL0     C14224   2.651   9.382   6.508  0.4044  0.3005  0.3014
  847MOL0     C14225   2.790   9.364   6.445  0.4307 -0.4192 -0.1683
  847MOL0     C14226   2.795   9.302   6.307 -0.3572 -0.2717  0.5027
  847MOL0     N14227   2.932   9.273   6.267 -0.2271  0.3625 -0.8328
  847MOL0     C14228   2.979   9.150   6.281 -0.7155  0.4541  1.7277
  847MOL0     C14229   3.085   9.151   6.193  0.0817 -0.1881 -0.9382
  847MOL0     C14230   3.178   9.038   6.165 -0.8529 -0.6255  0.0712
  847MOL0     C14231   3.274   9.014   6.284 -0.0544 -1.4363 -0.7114
  847MOL0     C14232   3.372   8.894   6.256  1.1910  0.4807  0.6502
  847MOL0     C14233   3.488   8.940   6.163  0.9625 -0.3300 -0.3693
  847MOL0     O14234   3.547   9.065   6.218 -0.1073  0.1247 -0.1668
  847MOL0     C14235   3.622   9.070   6.333  0.0995  0.1799  0.9619
  847MOL0     C14236   3.670   9.185   6.377 -0.8340 -0.0262 -0.2244
  847MOL0     C14237   3.747   9.200   6.497 -0.3436 -0.2122  0.2839
  847MOL0     C14238   3.767   9.343   6.539  0.2251  0.1616  0.1512
  847MOL0     C14239   3.802   9.086   6.561  0.8719  0.5073  0.0121
  847MOL0     C14240   3.887   9.078   6.682  0.3625 -0.3158  0.1893
  847MOL0     O14241   3.915   8.958   6.736 -0.4946 -0.4398 -0.0382
  847MOL0     C14242   4.007   8.967   6.838 -0.7330 -0.0993  0.4819
  847MOL0     C14243   4.124   8.888   6.829  0.2475  0.5634  0.3982
  847MOL0     C14244   4.213   8.883   6.943  1.4562  0.5654  0.2186
  847MOL0     C14245   4.189   8.956   7.067  1.6158 -0.0263  0.0310
  847MOL0     O14246   4.267   8.931   7.178  0.4720  0.0607  0.1971
  847MOL0     C14247   4.315   9.054   7.247 -0.8811  0.3184  0.9902
  847MOL0     C14248   4.456   9.034   7.305  0.1483 -0.2454  0.6901
  847MOL0     C14249   4.462   8.933   7.426  0.7769 -0.1696  0.9343
  847MOL0     C14250   4.598   8.917   7.470 -0.6833  0.2508 -0.3603
  847MOL0     C14251   4.603   8.828   7.593  0.3939  0.1205  0.6024
  847MOL0     C14252   4.524   8.879   7.715 -0.1094  0.0324  0.6546
  847MOL0     C14253   4.567   8.806   7.839  0.1685 -0.2331 -0.8524
  847MOL0     C14254   4.489   8.848   7.960 -0.5492  1.4007 -0.6368
  847MOL0    Cl14255   4.503   8.718   8.099 -0.1665  0.0862  0.3827
  847MOL0     C14256   4.065   9.036   7.073 -0.1011 -0.8715  0.1278
  847MOL0     C14257   3.982   9.046   6.958 -0.3183 -0.8293 -0.2896
  847MOL0     O14258   3.930   9.186   6.719  0.6834 -0.3417 -0.2235
  847MOL0     C14259   3.754   8.963   6.512 -0.1915  0.5464  0.2144
  847MOL0     C14260   3.663   8.959   6.404  1.0271 -0.4459  0.8353
  847MOL0     N14261   3.089   9.266   6.119 -0.9017  0.2018  0.0522
  847MOL0     N14262   3.003   9.348   6.172  0.3014  0.0451  1.2635
  847MOL0     C14263   2.186   9.104   6.973  0.4010 -0.5888  0.9840
  847MOL0     C14264   2.178   9.176   7.092 -0.4362  0.3138 -0.4760
  847MOL0     C14265   2.096   9.526   7.368  0.1020  0.1798  0.5998
  847MOL0     C14266   2.138   9.659   7.371  0.2177 -0.1902 -1.3790
  847MOL0     C14267   2.133   9.728   7.494  0.1717 -0.7214  0.8268
  847MOL0     C14268   2.100   9.669   7.614  1.0879 -0.4302 -0.1295
  847MOL0     O14269   2.105   9.739   7.734 -0.1488  0.5607 -0.4301
  847MOL0     C14270   2.040   9.867   7.742 -0.0341 -0.9667 -0.5160
  847MOL0     C14271   1.900   9.850   7.782 -0.0674  0.6186  0.3072
  847MOL0     C14272   1.832   9.975   7.861 -0.7662  0.9907  0.6271
  847MOL0     C14273   1.895  10.014   7.997 -0.1294 -1.2501 -0.1201
  847MOL0     C14274   1.801  10.111   8.062 -0.2872  0.0863  0.4232
  847MOL0     C14275   1.728  10.201   8.096 -1.5634 -0.1057 -0.3733
  847MOL0     C14276   2.070   9.531   7.610 -0.2035 -0.0701  0.0554
  847MOL0     C14277   2.077   9.461   7.487  0.3770 -0.4394 -1.3989
  847MOL0     H14278   1.863   9.295   7.082 -0.3866 -2.0083 -0.0048
  847MOL0     H14279   1.872   9.166   6.858 -2.0815 -1.6539  2.3702
  847MOL0     H14280   2.273   8.962   6.750 -0.2000 -0.2094  0.1767
  847MOL0     H14281   2.163   8.949   6.605 -2.1121  3.8760 -1.7188
  847MOL0     H14282   2.190   9.157   6.556 -3.7095  1.0860  1.1134
  847MOL0     H14283   2.198   9.223   6.721  2.3986  2.2994 -3.3573
  847MOL0     H14284   2.437   9.117   6.729 -2.2433 -1.8588  0.7572
  847MOL0     H14285   2.411   9.071   6.559  0.0248 -0.3659  0.1787
  847MOL0     H14286   2.390   9.345   6.537  1.3802  0.6984 -0.6303
  847MOL0     H14287   2.453   9.321   6.700 -0.9605 -1.2816  0.3715
  847MOL0     H14288   2.638   9.189   6.605 -1.9940 -3.0354 -1.8596
  847MOL0     H14289   2.573   9.208   6.438 -2.3687 -1.2817  0.1524
  847MOL0     H14290   2.586   9.449   6.450  1.2091  0.6734 -0.1924
  847MOL0     H14291   2.666   9.427   6.607  3.3913 -3.0228  1.5830
  847MOL0     H14292   2.856   9.451   6.439  0.5073 -0.4649  0.0089
  847MOL0     H14293   2.845   9.300   6.514 -1.7322 -0.9058  1.1793
  847MOL0     H14294   2.768   9.388   6.244 -1.4534 -1.4796 -0.7303
  847MOL0     H14295   2.725   9.220   6.290 -1.3671  0.9241 -1.4437
  847MOL0     H14296   2.945   9.066   6.340  1.9412 -1.6576  0.4819
  847MOL0     H14297   3.129   8.945   6.135 -1.3532 -0.3832  0.1418
  847MOL0     H14298   3.240   9.066   6.079 -2.1075 -0.7633 -0.9046
  847MOL0     H14299   3.214   8.991   6.372  0.3169 -1.8930 -0.5702
  847MOL0     H14300   3.323   9.108   6.310 -1.5612 -0.4732 -1.2286
  847MOL0     H14301   3.324   8.800   6.227  2.1429  0.4281 -0.8781
  847MOL0     H14302   3.415   8.864   6.352  0.3771 -1.1602  0.5369
  847MOL0     H14303   3.443   8.960   6.065  2.7347  1.4552 -0.8816
  847MOL0     H14304   3.566   8.865   6.146  0.2579 -1.0914 -0.3122
  847MOL0     H14305   3.627   9.273   6.330  1.6959  0.1638 -2.4429
  847MOL0     H14306   3.873   9.369   6.551 -0.5972  3.0158  2.6887
  847MOL0     H14307   3.720   9.416   6.472  1.8920  0.5996 -0.6160
  847MOL0     H14308   3.724   9.343   6.640  0.9227 -2.9160  0.5388
  847MOL0     H14309   4.154   8.832   6.740  0.6640  0.8138  0.3790
  847MOL0     H14310   4.305   8.826   6.949  2.2983  1.5978 -2.0028
  847MOL0     H14311   4.327   9.132   7.172  1.1926  0.7145  1.6605
  847MOL0     H14312   4.246   9.091   7.323  1.8311  2.5462  2.5834
  847MOL0     H14313   4.527   9.011   7.225  3.3450  2.9134  2.3254
  847MOL0     H14314   4.487   9.134   7.337  1.1064 -0.3635  0.1707
  847MOL0     H14315   4.426   8.832   7.402  1.6649  0.1504 -2.2621
  847MOL0     H14316   4.390   8.977   7.495 -2.1795  0.4930 -2.2813
  847MOL0     H14317   4.668   8.886   7.392  2.4730 -0.1266  2.4015
  847MOL0     H14318   4.638   9.013   7.505  1.5337 -0.2018 -1.5208
  847MOL0     H14319   4.702   8.838   7.636 -0.4967  2.6588  2.2677
  847MOL0     H14320   4.579   8.724   7.568  3.0714 -0.1922 -1.0992
  847MOL0     H14321   4.539   8.987   7.724 -1.2692  0.0680  2.8534
  847MOL0     H14322   4.418   8.856   7.704  0.4856 -1.8718 -2.7498
  847MOL0     H14323   4.670   8.837   7.857  1.1995 -1.5228 -3.8665
  847MOL0     H14324   4.571   8.697   7.835  2.3768 -0.1601 -3.5195
  847MOL0     H14325   4.383   8.857   7.932 -0.4171  0.1779 -1.6188
  847MOL0     H14326   4.517   8.950   7.985  1.2198  1.0345 -0.9979
  847MOL0     H14327   4.043   9.101   7.157  1.9563  0.8632 -0.5896
  847MOL0     H14328   3.894   9.110   6.969 -0.4015 -1.2568  1.9269
  847MOL0     H14329   3.791   8.867   6.548  2.6612  0.9071 -1.4503
  847MOL0     H14330   3.624   8.863   6.372  1.2337 -0.4424  0.5763
  847MOL0     H14331   2.274   9.044   6.952 -1.1051 -2.7588  0.5073
  847MOL0     H14332   2.268   9.183   7.153 -2.1119 -0.2879  2.2280
  847MOL0     H14333   2.176   9.723   7.291  1.5629  1.8253  0.7521
  847MOL0     H14334   2.161   9.833   7.498 -0.1526 -0.3817 -2.8592
  847MOL0     H14335   2.102   9.930   7.807 -0.4548 -1.3808  0.3003
  847MOL0     H14336   2.040   9.923   7.648  2.0539  1.2123  0.6534
  847MOL0     H14337   1.906   9.770   7.857 -0.0614  0.7053  0.3986
  847MOL0     H14338   1.837   9.818   7.699 -1.0964  2.1574  0.4603
  847MOL0     H14339   1.726   9.948   7.872 -0.9171  2.1045  2.0888
  847MOL0     H14340   1.851  10.051   7.785  2.3399  2.0925  2.3565
  847MOL0     H14341   1.995  10.058   7.995  0.5568 -2.6556  1.3698
  847MOL0     H14342   1.911   9.931   8.066  0.9415 -0.0138  1.1928
  847MOL0     H14343   1.660  10.276   8.129 -1.0344  1.2422 -2.1645
  847MOL0     H14344   2.044   9.475   7.699 -1.6317 -2.7736 -1.9291
  847MOL0     H14345   2.052   9.355   7.480 -1.8784  0.1039 -2.4111
  848MOL0     O14346   9.958   8.329   8.527  0.2390 -0.7726  0.3408
  848MOL0     C14347   9.899   8.255   8.446  0.2655 -0.0492  0.4861
  848MOL0     O14348   9.932   8.124   8.411  0.0060  0.8591 -1.0869
  848MOL0     C14349  10.015   8.038   8.492  0.3045 -0.4897  0.2401
  848MOL0     C14350  10.055   7.921   8.430  0.1744 -1.3648  0.6553
  848MOL0     C14351  10.152   7.843   8.488  0.2148 -0.2126 -0.2576
  848MOL0     C14352  10.206   7.882   8.617  0.4996 -0.0436  0.5243
  848MOL0     O14353  10.284   7.798   8.685  0.1774  0.8404 -0.6103
  848MOL0     C14354  10.416   7.837   8.735 -0.2885 -0.0969 -0.0558
  848MOL0     C14355  10.492   7.701   8.755  0.0190  0.3841  0.6494
  848MOL0     C14356  10.622   7.712   8.842 -0.1254  0.4051  0.4947
  848MOL0     C14357  10.721   7.593   8.811 -0.5993 -0.5876 -0.2987
  848MOL0     C14358  10.833   7.592   8.910 -0.0328  0.0589 -0.7223
  848MOL0     C14359  10.937   7.703   8.884  0.7576 -0.2175 -0.1575
  848MOL0     C14360  11.069   7.695   8.957  1.0533  0.1049  0.1467
  848MOL0     C14361  11.145   7.825   8.973  1.4337  0.1622 -0.6243
  848MOL0     N14362  11.265   7.779   9.040 -0.1059  0.1073  0.3266
  848MOL0     C14363  11.305   7.818   9.169 -0.5048 -0.5734  0.6188
  848MOL0     C14364  11.432   7.768   9.184 -1.0632  0.4652 -0.0935
  848MOL0     C14365  11.520   7.768   9.305 -0.4567 -0.4180 -0.7825
  848MOL0     C14366  11.486   7.870   9.419  0.0096  0.4076  0.0640
  848MOL0     C14367  11.583   7.859   9.538  0.3583 -0.3555  0.0655
  848MOL0     C14368  11.576   7.999   9.615 -0.1598 -0.2605 -0.2017
  848MOL0     O14369  11.680   8.086   9.585 -0.1686 -0.6575 -0.7032
  848MOL0     C14370  11.745   8.150   9.691 -1.0169  0.2437  0.1565
  848MOL0     C14371  11.790   8.283   9.684 -0.2563  0.2585  1.0950
  848MOL0     C14372  11.861   8.355   9.778  0.0392 -0.3659 -0.7517
  848MOL0     C14373  11.914   8.495   9.762 -0.0059 -0.3269 -0.0945
  848MOL0     C14374  11.879   8.289   9.904 -0.8615  0.7432 -1.0234
  848MOL0     C14375  11.941   8.345  10.024  0.1300 -0.1261  0.5588
  848MOL0     O14376  11.884   8.451  10.085 -0.3460 -0.1742  0.7403
  848MOL0     C14377  11.948   8.512  10.182 -0.1991 -0.0163 -0.4997
  848MOL0     C14378  12.003   8.449  10.297 -0.2668 -0.8300  0.0933
  848MOL0     C14379  12.066   8.528  10.391 -0.0950 -1.1679  0.8862
  848MOL0     C14380  12.090   8.671  10.367  0.9024  0.3726 -0.0793
  848MOL0     O14381  12.153   8.735  10.467 -0.3333  0.9001  0.1669
  848MOL0     C14382  12.210   8.857  10.443 -0.2527 -0.0707  0.7760
  848MOL0     C14383  12.126   8.973  10.487 -0.5861  0.6170  0.5430
  848MOL0     C14384  12.200   9.111  10.471  0.8930 -0.1352  0.0031
  848MOL0     C14385  12.238   9.152  10.331 -0.1307 -1.3577  0.4695
  848MOL0     C14386  12.347   9.265  10.328  0.3443  0.4529 -1.2567
  848MOL0     C14387  12.297   9.404  10.295 -0.2770  0.7323 -0.5484
  848MOL0     C14388  12.415   9.497  10.313 -0.1817 -0.5916  1.0588
  848MOL0     C14389  12.401   9.581  10.432 -0.5858 -0.5919 -0.5935
  848MOL0    Cl14390  12.371   9.483  10.572  0.1645  0.1812  0.7076
  848MOL0     C14391  12.025   8.735  10.256  0.2691  0.1954 -0.3221
  848MOL0     C14392  11.963   8.652  10.163 -0.3514  0.2251 -0.0422
  848MOL0     O14393  12.050   8.294  10.052  0.3556  0.1812 -0.0758
  848MOL0     C14394  11.842   8.152   9.916  0.0125 -0.0802  0.3580
  848MOL0     C14395  11.780   8.085   9.810  0.9124  0.8127 -0.4273
  848MOL0     N14396  11.472   7.713   9.066  0.3018 -0.6094 -0.9260
  848MOL0     N14397  11.371   7.712   8.986  0.2622  0.2720 -0.7341
  848MOL0     C14398  10.170   8.003   8.668 -0.4035  0.3438  0.1229
  848MOL0     C14399  10.073   8.077   8.610 -0.2461  0.3856 -0.7113
  848MOL0     C14400   9.776   8.318   8.380 -0.2729 -0.8415 -0.1467
  848MOL0     C14401   9.711   8.258   8.273  0.1414  0.0627  0.0840
  848MOL0     C14402   9.597   8.314   8.220  0.0286 -0.2495 -0.0478
  848MOL0     C14403   9.549   8.437   8.265  0.0746  0.2616 -0.0302
  848MOL0     O14404   9.432   8.498   8.227  0.8432  0.4533 -0.1762
  848MOL0     C14405   9.365   8.449   8.109 -0.6786  0.1171 -0.5274
  848MOL0     C14406   9.290   8.569   8.046  0.0121  0.1990 -0.4784
  848MOL0     C14407   9.377   8.694   8.030 -0.1243 -1.1388  0.3483
  848MOL0     C14408   9.354   8.781   7.901 -0.2091 -0.2189  0.4122
  848MOL0     C14409   9.216   8.800   7.917  1.4374 -0.6086 -0.0425
  848MOL0     C14410   9.102   8.833   7.935 -0.0962 -0.1720 -0.9447
  848MOL0     C14411   9.617   8.508   8.362 -0.5113  0.0684 -0.2505
  848MOL0     C14412   9.734   8.449   8.412  0.8060 -0.5963 -0.7291
  848MOL0     H14413   9.992   7.897   8.345  0.7374 -0.7992  0.0605
  848MOL0     H14414  10.168   7.745   8.443  0.4295  0.3827 -1.5295
  848MOL0     H14415  10.472   7.894   8.660 -1.6470  0.6382 -0.5448
  848MOL0     H14416  10.410   7.883   8.834 -0.3718 -3.2888  1.5575
  848MOL0     H14417  10.423   7.632   8.805  2.2010 -2.2424  0.3401
  848MOL0     H14418  10.517   7.667   8.654 -0.8142 -0.6180  0.7646
  848MOL0     H14419  10.671   7.803   8.806 -0.1374 -0.1048 -0.8599
  848MOL0     H14420  10.598   7.718   8.948 -2.1090  1.1833  0.0489
  848MOL0     H14421  10.677   7.494   8.822 -3.2246  0.7069  2.3380
  848MOL0     H14422  10.773   7.590   8.714  2.4766  1.2401  1.1388
  848MOL0     H14423  10.788   7.611   9.008  3.6212  1.1167  0.8887
  848MOL0     H14424  10.898   7.504   8.917 -0.5513 -0.1899  3.4152
  848MOL0     H14425  10.948   7.696   8.776 -1.5994 -3.1448 -0.3652
  848MOL0     H14426  10.897   7.802   8.907  3.2513  1.1894 -1.4684
  848MOL0     H14427  11.041   7.663   9.058 -0.4894  0.9557  0.0129
  848MOL0     H14428  11.138   7.625   8.909  1.9668  1.7753 -1.0966
  848MOL0     H14429  11.082   7.891   9.033  0.1573 -0.2160 -1.5193
  848MOL0     H14430  11.154   7.872   8.875 -2.1881  1.2030 -0.6223
  848MOL0     H14431  11.245   7.880   9.236 -1.7095 -1.4384  0.3811
  848MOL0     H14432  11.527   7.676   9.363 -0.3628  0.6417  0.9370
  848MOL0     H14433  11.618   7.789   9.262 -0.2166  0.4838  0.1933
  848MOL0     H14434  11.380   7.861   9.443  0.5789 -3.5465  1.8596
  848MOL0     H14435  11.495   7.974   9.385 -1.3647 -0.1773 -2.2756
  848MOL0     H14436  11.690   7.839   9.521  0.0584 -0.6853 -1.5867
  848MOL0     H14437  11.546   7.800   9.622 -0.4310  0.4819  0.3147
  848MOL0     H14438  11.576   7.978   9.722  0.0716  0.2899 -0.0907
  848MOL0     H14439  11.486   8.053   9.582  0.0325 -1.0887 -2.2305
  848MOL0     H14440  11.766   8.342   9.596 -2.7165 -0.1184  1.4387
  848MOL0     H14441  11.862   8.551   9.684  1.6651 -0.7109 -1.5508
  848MOL0     H14442  11.899   8.557   9.851  1.4704 -0.1111  0.0269
  848MOL0     H14443  12.019   8.508   9.737  0.8162 -0.8639  2.7065
  848MOL0     H14444  12.000   8.343  10.319  0.7326 -1.2970 -1.7715
  848MOL0     H14445  12.102   8.487  10.484  1.8772  1.6620  1.4998
  848MOL0     H14446  12.299   8.855  10.506 -1.5685 -0.5045  2.7274
  848MOL0     H14447  12.239   8.873  10.339  0.3035  1.2867  1.1142
  848MOL0     H14448  12.024   8.985  10.449 -0.2501  3.2310  0.2794
  848MOL0     H14449  12.109   8.962  10.595 -0.4405 -0.7357  0.4370
  848MOL0     H14450  12.285   9.084  10.535  0.9018 -2.2269 -0.8037
  848MOL0     H14451  12.146   9.200  10.505  3.7386  2.0789 -0.7875
  848MOL0     H14452  12.272   9.057  10.288 -5.0510 -2.9358 -0.5654
  848MOL0     H14453  12.149   9.185  10.278  0.1093 -0.4039  0.6399
  848MOL0     H14454  12.428   9.233  10.261  0.9559 -2.2989  0.6120
  848MOL0     H14455  12.384   9.263  10.431 -0.7430  1.8892 -0.8059
  848MOL0     H14456  12.259   9.410  10.192 -0.5775 -0.2138 -0.4979
  848MOL0     H14457  12.224   9.428  10.373  2.4323 -1.2896  2.9255
  848MOL0     H14458  12.427   9.565  10.228  0.3492 -0.4635  1.2267
  848MOL0     H14459  12.513   9.450  10.329 -0.3875 -0.9204  1.3592
  848MOL0     H14460  12.318   9.651  10.424 -0.8959 -1.1544 -3.9442
  848MOL0     H14461  12.490   9.642  10.452 -0.4759 -2.0391  5.1148
  848MOL0     H14462  12.005   8.840  10.239 -0.0178  0.1153 -0.4820
  848MOL0     H14463  11.919   8.698  10.076  0.9503  0.5347 -0.5704
  848MOL0     H14464  11.875   8.097  10.003 -0.3822 -2.9942 -1.2291
  848MOL0     H14465  11.768   7.977   9.812  1.7403  0.7204  0.0353
  848MOL0     H14466  10.229   8.033   8.754 -1.3332  0.1729  0.8348
  848MOL0     H14467  10.060   8.172   8.660  0.9598  0.0669  0.2715
  848MOL0     H14468   9.744   8.168   8.222 -0.7455  0.2013 -0.7691
  848MOL0     H14469   9.555   8.265   8.132  0.2078 -2.8009  1.2004
  848MOL0     H14470   9.434   8.409   8.034  0.7162  1.3876  0.0156
  848MOL0     H14471   9.300   8.367   8.141 -0.2648  0.0845  0.2747
  848MOL0     H14472   9.210   8.596   8.116 -1.6427 -3.7330 -0.5440
  848MOL0     H14473   9.258   8.536   7.947 -1.9072 -1.2432  0.5376
  848MOL0     H14474   9.484   8.672   8.042  0.3612  1.9234  2.9314
  848MOL0     H14475   9.349   8.768   8.105 -1.1768 -2.1913  1.0184
  848MOL0     H14476   9.383   8.734   7.807  2.6669  2.9870 -0.5082
  848MOL0     H14477   9.397   8.882   7.903 -3.1087  1.1118  0.9039
  848MOL0     H14478   9.002   8.861   7.959 -0.3497 -0.3383 -1.7763
  848MOL0     H14479   9.574   8.604   8.389 -0.3111 -0.2125  1.1275
  848MOL0     H14480   9.791   8.497   8.492  0.1325 -0.0231 -0.5875
  849MOL0     O14481   9.807   0.567   1.856 -0.0257 -0.3593 -0.1252
  849MOL0     C14482   9.896   0.516   1.783  0.3565 -0.6064  0.0693
  849MOL0     O14483   9.951   0.586   1.681  0.3800 -0.1693  0.8560
  849MOL0     C14484   9.872   0.678   1.605  0.7404  0.1221 -0.2566
  849MOL0     C14485   9.744   0.637   1.566  0.0441 -0.5899  0.8114
  849MOL0     C14486   9.657   0.727   1.496 -1.0155  0.1458  0.0447
  849MOL0     C14487   9.689   0.861   1.468  0.5438 -0.8284  0.3498
  849MOL0     O14488   9.606   0.948   1.395 -0.3176  1.6878  0.1571
  849MOL0     C14489   9.661   1.048   1.313  0.1780 -0.1258 -0.8955
  849MOL0     C14490   9.572   1.075   1.196  0.4464  0.0935  0.5041
  849MOL0     C14491   9.617   1.192   1.106  0.1215  0.2111 -0.4368
  849MOL0     C14492   9.555   1.174   0.966 -0.6248  0.0486 -0.2133
  849MOL0     C14493   9.599   1.290   0.874 -0.6276  0.7443  0.0241
  849MOL0     C14494   9.516   1.411   0.858 -0.2274 -0.3222 -0.2704
  849MOL0     C14495   9.577   1.536   0.792 -0.8152  0.3190 -0.3491
  849MOL0     C14496   9.559   1.536   0.640  0.4361  0.4584 -0.1728
  849MOL0     N14497   9.641   1.635   0.568  0.6164 -1.1387 -0.0721
  849MOL0     C14498   9.628   1.774   0.590 -0.0794 -0.1983  0.1161
  849MOL0     C14499   9.723   1.835   0.518  0.4410  0.3087  0.4311
  849MOL0     C14500   9.755   1.975   0.509 -0.2253 -0.1633 -0.3924
  849MOL0     C14501   9.821   2.024   0.633 -0.5134  0.2731 -0.5267
  849MOL0     C14502   9.974   2.001   0.629 -0.0233  0.5464 -1.1937
  849MOL0     C14503  10.058   2.126   0.588 -0.3639  0.5312 -0.7085
  849MOL0     O14504  10.024   2.173   0.450 -0.3291  0.7902 -1.6447
  849MOL0     C14505  10.085   2.291   0.408 -0.6699 -0.0587 -0.9279
  849MOL0     C14506  10.177   2.363   0.486 -0.6929  0.2801  0.0917
  849MOL0     C14507  10.233   2.493   0.442  0.3631  0.6283  1.1310
  849MOL0     C14508  10.341   2.550   0.540  0.6175  0.6904 -0.5372
  849MOL0     C14509  10.196   2.547   0.314  0.1161 -0.4281 -0.1542
  849MOL0     C14510  10.241   2.681   0.269 -0.5839  0.3946  0.9248
  849MOL0     O14511  10.163   2.742   0.179  1.0841  1.0744 -0.2487
  849MOL0     C14512  10.218   2.825   0.079  1.3563  1.0606 -0.0310
  849MOL0     C14513  10.284   2.942   0.116  0.3874  0.2460  0.6957
  849MOL0     C14514  10.338   3.023   0.011  0.8028  0.4983  0.2808
  849MOL0     C14515  10.333   2.990  -0.123 -0.2307  0.0335  0.8981
  849MOL0     O14516  10.400   3.075  -0.209 -1.0614 -0.6379 -0.5349
  849MOL0     C14517  10.413   3.030  -0.345 -0.3881 -0.4054  0.3488
  849MOL0     C14518  10.440   3.164  -0.415 -0.2947  0.5537  0.6180
  849MOL0     C14519  10.451   3.145  -0.565  0.6669 -0.5673  0.6717
  849MOL0     C14520  10.442   3.281  -0.630  0.1995 -0.2243 -0.3927
  849MOL0     C14521  10.498   3.291  -0.771  0.8366 -0.6517 -0.3003
  849MOL0     C14522  10.422   3.211  -0.882 -0.2549 -0.3456  0.0013
  849MOL0     C14523  10.296   3.296  -0.924  0.2678  0.2079  0.4911
  849MOL0     C14524  10.210   3.208  -1.012 -0.5636 -0.1444 -1.0402
  849MOL0    Cl14525  10.069   3.305  -1.063  0.1494 -0.0420  0.5665
  849MOL0     C14526  10.257   2.872  -0.155 -0.0961 -0.6647 -0.0568
  849MOL0     C14527  10.195   2.794  -0.052 -0.3710 -0.7046  1.4711
  849MOL0     O14528  10.340   2.732   0.318 -0.3891  0.6339 -0.1354
  849MOL0     C14529  10.088   2.482   0.251 -0.0934  0.3262  0.0771
  849MOL0     C14530  10.038   2.358   0.293 -0.5421  0.2603 -0.1015
  849MOL0     N14531   9.794   1.734   0.451 -0.2520  0.1808 -0.3486
  849MOL0     N14532   9.745   1.619   0.485  0.7278  0.6316  0.0812
  849MOL0     C14533   9.809   0.903   1.527 -0.7714  0.0705 -0.3669
  849MOL0     C14534   9.897   0.809   1.584  0.0418 -0.4354 -0.4508
  849MOL0     C14535   9.968   0.396   1.829 -0.4179 -0.4616  0.0541
  849MOL0     C14536  10.100   0.356   1.783  0.7814  0.4290  0.5422
  849MOL0     C14537  10.160   0.234   1.803 -0.3140 -0.6420 -0.3489
  849MOL0     C14538  10.104   0.133   1.881  0.1212 -0.0568 -0.3389
  849MOL0     O14539  10.172   0.014   1.880  0.9338  0.6337 -0.1902
  849MOL0     C14540  10.086  -0.104   1.884  0.2314 -0.4173 -0.1554
  849MOL0     C14541  10.018  -0.135   1.752  0.7678  0.6192  0.5568
  849MOL0     C14542  10.123  -0.166   1.640 -0.5092 -0.5154  0.2823
  849MOL0     C14543  10.058  -0.162   1.502  0.2349  0.3104 -0.2358
  849MOL0     C14544  10.059  -0.026   1.456  1.2064 -0.3022 -0.0473
  849MOL0     C14545  10.047   0.090   1.410  0.3507  0.0367 -0.3735
  849MOL0     C14546   9.976   0.175   1.941 -1.5576 -0.8329  0.3162
  849MOL0     C14547   9.913   0.305   1.922  0.3597 -0.5859 -0.5574
  849MOL0     H14548   9.698   0.539   1.573  0.2237 -0.6573  1.0891
  849MOL0     H14549   9.566   0.671   1.476 -0.4558 -2.2497  3.3642
  849MOL0     H14550   9.645   1.134   1.379  2.6318  0.6740 -1.2056
  849MOL0     H14551   9.767   1.027   1.291  0.2809 -3.3355  1.9263
  849MOL0     H14552   9.580   0.978   1.146  0.6049  0.3127  0.1043
  849MOL0     H14553   9.471   1.076   1.237  0.4550 -4.2559  1.1881
  849MOL0     H14554   9.606   1.293   1.146  2.5591  1.6468 -3.0487
  849MOL0     H14555   9.724   1.172   1.108  0.4412  1.7353  2.3603
  849MOL0     H14556   9.596   1.080   0.930  3.9736  0.2665  3.4983
  849MOL0     H14557   9.446   1.173   0.980 -0.5655  1.3956  0.5021
  849MOL0     H14558   9.697   1.326   0.908 -0.4633  0.1811  0.1470
  849MOL0     H14559   9.629   1.245   0.779  2.6649 -0.7796  1.6077
  849MOL0     H14560   9.430   1.386   0.795  1.0593 -0.6512 -1.9651
  849MOL0     H14561   9.473   1.426   0.957 -0.6501 -1.9409 -0.1949
  849MOL0     H14562   9.525   1.620   0.839 -2.9924 -0.1195 -1.7946
  849MOL0     H14563   9.685   1.536   0.811 -0.8914 -0.5305  0.1274
  849MOL0     H14564   9.452   1.557   0.633  0.2062 -0.7001 -0.2092
  849MOL0     H14565   9.575   1.435   0.603 -0.9220 -1.3494  3.6997
  849MOL0     H14566   9.562   1.826   0.659  0.7020  1.5939 -0.4152
  849MOL0     H14567   9.814   1.997   0.419  1.9725  0.8264  1.1984
  849MOL0     H14568   9.657   2.022   0.497 -0.2931 -0.7214 -2.3265
  849MOL0     H14569   9.786   1.972   0.723  4.8204 -2.9290  0.0857
  849MOL0     H14570   9.801   2.132   0.642 -0.5130  0.2654 -0.4304
  849MOL0     H14571  10.003   1.916   0.567 -0.7716 -2.0942  1.8505
  849MOL0     H14572  10.000   1.981   0.733 -1.2479  0.8908 -0.7949
  849MOL0     H14573  10.166   2.109   0.595 -0.2148  1.9763  1.5500
  849MOL0     H14574  10.029   2.201   0.662 -4.8846 -2.1099  0.6230
  849MOL0     H14575  10.214   2.312   0.574 -2.2218 -1.1989 -0.0564
  849MOL0     H14576  10.324   2.651   0.577  0.7292  1.4328 -2.4223
  849MOL0     H14577  10.357   2.477   0.620  4.7346  2.2193  0.2358
  849MOL0     H14578  10.439   2.545   0.493  1.6572 -0.5797  1.6153
  849MOL0     H14579  10.296   2.979   0.217 -0.9770 -0.2978  1.0737
  849MOL0     H14580  10.375   3.119   0.045 -0.2918  0.2069  2.4299
  849MOL0     H14581  10.499   2.963  -0.351  2.0421  2.5849 -3.0687
  849MOL0     H14582  10.319   2.980  -0.369 -1.9304  0.5680  3.7733
  849MOL0     H14583  10.360   3.236  -0.393 -1.6560 -0.0602 -2.0164
  849MOL0     H14584  10.527   3.214  -0.371 -0.1442  2.0526 -1.2885
  849MOL0     H14585  10.380   3.077  -0.614 -1.9304  1.6710  1.0725
  849MOL0     H14586  10.551   3.112  -0.595  0.4438  0.3004 -1.1881
  849MOL0     H14587  10.340   3.320  -0.634  0.9572  1.8364 -0.3454
  849MOL0     H14588  10.502   3.356  -0.578 -0.0354  0.2290 -0.7643
  849MOL0     H14589  10.607   3.278  -0.767  0.8403 -0.7149 -0.6000
  849MOL0     H14590  10.483   3.397  -0.795  2.2412 -0.8700 -2.3433
  849MOL0     H14591  10.483   3.189  -0.970  1.2281 -0.4213  1.0083
  849MOL0     H14592  10.403   3.109  -0.846  3.0342 -0.7072  1.0612
  849MOL0     H14593  10.316   3.389  -0.978  1.4758 -0.2439  0.1314
  849MOL0     H14594  10.236   3.327  -0.838 -0.5750  0.9970 -0.3480
  849MOL0     H14595  10.190   3.132  -0.936 -0.5343 -0.9393 -1.8049
  849MOL0     H14596  10.265   3.162  -1.095  2.7225 -0.7658  1.2860
  849MOL0     H14597  10.249   2.828  -0.254  3.4865 -1.4472 -0.1436
  849MOL0     H14598  10.151   2.701  -0.086 -0.6336  0.5667 -2.1142
  849MOL0     H14599  10.031   2.521   0.167  0.3451 -1.3466 -1.0545
  849MOL0     H14600   9.943   2.331   0.248 -2.3532  2.0072  2.3683
  849MOL0     H14601   9.839   1.007   1.531  1.9122 -0.3529 -4.0784
  849MOL0     H14602   9.981   0.839   1.645  0.0896 -2.9520  0.8406
  849MOL0     H14603  10.138   0.434   1.716 -0.5487  2.0509  1.6022
  849MOL0     H14604  10.253   0.208   1.753 -0.6576  0.6801 -1.7522
  849MOL0     H14605  10.150  -0.186   1.916 -0.1283 -0.2539  1.0240
  849MOL0     H14606  10.014  -0.091   1.965 -0.3152  1.5712 -0.9101
  849MOL0     H14607   9.938  -0.062   1.739  0.3980  0.0505 -0.4706
  849MOL0     H14608   9.975  -0.235   1.765  0.2848  0.7884  0.2567
  849MOL0     H14609  10.165  -0.266   1.653 -0.9259 -0.6838  0.3395
  849MOL0     H14610  10.207  -0.096   1.632  0.1405 -1.3789 -0.8129
  849MOL0     H14611   9.954  -0.198   1.511  0.4959  0.0068  2.4713
  849MOL0     H14612  10.109  -0.227   1.430 -0.7978  0.5880 -1.2518
  849MOL0     H14613  10.044   0.193   1.379  0.4169  0.0388 -0.3715
  849MOL0     H14614   9.904   0.114   1.994 -3.1744 -0.2517 -1.1335
  849MOL0     H14615   9.824   0.336   1.975  1.8689  0.3827  1.5590
  850MOL0     O14616   4.021   8.226   5.683  0.2584 -0.3168 -0.7750
  850MOL0     C14617   4.001   8.321   5.770 -0.4461 -0.3577 -1.1377
  850MOL0     O14618   3.960   8.296   5.898  0.5175  0.7716  0.0313
  850MOL0     C14619   3.918   8.167   5.937 -0.3942  0.0074 -0.0897
  850MOL0     C14620   3.807   8.112   5.871 -0.3826 -0.4466 -0.3990
  850MOL0     C14621   3.765   7.981   5.907 -0.4375 -0.8743  0.7445
  850MOL0     C14622   3.848   7.901   5.995  0.4011 -0.2700  0.0143
  850MOL0     O14623   3.803   7.787   6.054 -0.2055 -0.7154  0.3971
  850MOL0     C14624   3.665   7.786   6.095 -0.4125 -0.4595 -0.1386
  850MOL0     C14625   3.658   7.713   6.225  0.8068  0.9521  0.4509
  850MOL0     C14626   3.714   7.776   6.346  0.5968  0.4522  0.3157
  850MOL0     C14627   3.716   7.677   6.457  0.2894  0.9122 -0.3778
  850MOL0     C14628   3.776   7.729   6.586 -0.1417 -0.0729 -0.1366
  850MOL0     C14629   3.676   7.820   6.654  0.2238  0.7551  0.4086
  850MOL0     C14630   3.736   7.889   6.782 -1.2223 -0.0005  0.3407
  850MOL0     C14631   3.616   7.966   6.850  0.2700  0.1895  0.6254
  850MOL0     N14632   3.652   8.010   6.986 -0.3575 -0.0957  0.3610
  850MOL0     C14633   3.787   8.027   7.031  0.3224 -0.3308 -0.1684
  850MOL0     C14634   3.773   8.038   7.160  0.3009 -0.1912 -1.3799
  850MOL0     C14635   3.867   8.057   7.268 -0.1171 -0.3169  0.1673
  850MOL0     C14636   3.907   8.201   7.294  0.5500 -0.7732 -0.1968
  850MOL0     C14637   3.803   8.286   7.367  0.8735 -0.0044 -0.2761
  850MOL0     C14638   3.830   8.426   7.418 -0.4679 -0.4136  0.1350
  850MOL0     O14639   3.937   8.423   7.516 -0.8597 -0.3898  0.6078
  850MOL0     C14640   3.967   8.536   7.583  0.1202  0.7557  0.3617
  850MOL0     C14641   3.998   8.520   7.712 -0.4896  0.1830 -0.5640
  850MOL0     C14642   4.060   8.624   7.784  0.0755  0.6230  0.2604
  850MOL0     C14643   4.098   8.579   7.921 -1.1054 -0.3127 -1.1118
  850MOL0     C14644   4.067   8.746   7.736 -0.0687 -0.2719  0.0682
  850MOL0     C14645   4.102   8.859   7.814  0.1207 -1.1765 -0.1682
  850MOL0     O14646   4.141   8.963   7.740 -0.0230 -0.4997 -0.2626
  850MOL0     C14647   4.152   9.089   7.800  0.8129  0.3579  0.1053
  850MOL0     C14648   4.274   9.136   7.844  0.0761 -0.6204  0.3890
  850MOL0     C14649   4.272   9.258   7.922 -0.2984  0.1158  0.1238
  850MOL0     C14650   4.153   9.331   7.946 -0.6582  0.1155  0.5734
  850MOL0     O14651   4.160   9.445   8.023  0.1371 -0.3781  0.7250
  850MOL0     C14652   4.044   9.468   8.107 -0.0255 -0.3445  0.1626
  850MOL0     C14653   4.044   9.371   8.218  0.4843 -0.4024  0.0572
  850MOL0     C14654   3.980   9.419   8.350 -0.3240  0.4465  0.2735
  850MOL0     C14655   3.987   9.317   8.455 -0.3557  0.2519 -0.2088
  850MOL0     C14656   3.885   9.332   8.568 -0.2255 -0.8593 -0.4932
  850MOL0     C14657   3.895   9.487   8.613 -0.3040 -0.2064  0.0558
  850MOL0     C14658   3.835   9.513   8.754 -0.5764 -0.1859  0.2752
  850MOL0     C14659   3.913   9.615   8.835  0.5590  0.5897  1.0549
  850MOL0    Cl14660   4.079   9.552   8.866 -0.4288  0.0251 -0.1609
  850MOL0     C14661   4.034   9.286   7.887 -0.0171 -0.5755 -0.8788
  850MOL0     C14662   4.033   9.163   7.817 -0.5455 -1.8408  0.0578
  850MOL0     O14663   4.100   8.867   7.935  0.3858 -0.1013 -0.4391
  850MOL0     C14664   4.032   8.765   7.596 -0.2410  0.0784 -0.0272
  850MOL0     C14665   3.972   8.663   7.522  0.4391 -1.3704  0.2348
  850MOL0     N14666   3.640   8.046   7.197 -0.2802  0.7002 -0.3443
  850MOL0     N14667   3.569   8.028   7.091  1.0190 -0.1109 -0.6208
  850MOL0     C14668   3.962   7.965   6.048 -0.3244 -0.4845 -0.1377
  850MOL0     C14669   3.996   8.096   6.021 -0.0375  0.8360  0.5037
  850MOL0     C14670   4.024   8.461   5.723 -0.6058 -0.2243  0.7426
  850MOL0     C14671   3.988   8.584   5.789  0.6658  0.0291  0.6153
  850MOL0     C14672   4.014   8.704   5.734  0.3696  0.3272 -0.5420
  850MOL0     C14673   4.095   8.715   5.621 -0.3285  0.0084 -0.7561
  850MOL0     O14674   4.146   8.841   5.580  0.5312 -0.0301  0.7152
  850MOL0     C14675   4.130   8.967   5.647 -0.2955 -0.3952 -0.5053
  850MOL0     C14676   4.214   8.985   5.764  0.1857 -0.8424  0.1896
  850MOL0     C14677   4.357   9.003   5.727  0.4961 -0.7728  0.8053
  850MOL0     C14678   4.442   9.105   5.815  1.0276 -0.3528  0.1765
  850MOL0     C14679   4.568   9.127   5.749  0.9348 -0.1959  0.0460
  850MOL0     C14680   4.676   9.159   5.704 -0.4183  0.4514 -0.7554
  850MOL0     C14681   4.138   8.596   5.552 -0.4549  0.2789 -0.0779
  850MOL0     C14682   4.101   8.473   5.608 -0.2923 -0.5883 -0.7213
  850MOL0     H14683   3.752   8.173   5.800 -0.4311 -1.0206 -0.8654
  850MOL0     H14684   3.665   7.951   5.876 -0.7211  1.3896 -0.7657
  850MOL0     H14685   3.622   7.886   6.109 -0.7313 -0.6029 -0.0657
  850MOL0     H14686   3.602   7.750   6.013 -0.8777 -0.7496  0.3362
  850MOL0     H14687   3.549   7.707   6.239  0.8744 -0.0813  0.5998
  850MOL0     H14688   3.680   7.607   6.211 -1.2907  0.7803 -2.7885
  850MOL0     H14689   3.814   7.815   6.325  0.5276  0.6462  0.3430
  850MOL0     H14690   3.656   7.861   6.384 -1.1587 -1.2407  1.6167
  850MOL0     H14691   3.617   7.631   6.473 -0.0657  1.1808 -1.7134
  850MOL0     H14692   3.779   7.596   6.421  2.9178  3.0881 -0.9812
  850MOL0     H14693   3.817   7.644   6.640  0.1421  1.1780  1.7107
  850MOL0     H14694   3.862   7.795   6.566  0.1995 -0.9823 -1.9342
  850MOL0     H14695   3.658   7.900   6.582  1.2271 -0.7590 -1.6413
  850MOL0     H14696   3.581   7.773   6.681 -1.3994  1.8989 -2.7834
  850MOL0     H14697   3.781   7.813   6.846 -0.2614 -0.4455 -0.8165
  850MOL0     H14698   3.807   7.964   6.746 -1.3857 -0.0365 -0.0563
  850MOL0     H14699   3.518   7.917   6.849  0.5129 -0.3015  0.0688
  850MOL0     H14700   3.596   8.056   6.791 -1.2043  1.5553  3.0528
  850MOL0     H14701   3.881   8.031   6.977 -0.3712  1.6384 -1.3140
  850MOL0     H14702   3.837   8.017   7.365  0.5385  2.5098  1.6228
  850MOL0     H14703   3.954   7.994   7.244 -0.1199  0.4917 -2.2454
  850MOL0     H14704   3.949   8.249   7.205 -1.4013 -1.5626 -1.6192
  850MOL0     H14705   3.995   8.179   7.355 -1.6947 -4.0667  2.1790
  850MOL0     H14706   3.760   8.216   7.439  2.8901 -2.2001 -1.0954
  850MOL0     H14707   3.721   8.301   7.297  1.5821  1.2676 -0.8737
  850MOL0     H14708   3.734   8.462   7.457 -1.0029  1.4551 -2.6556
  850MOL0     H14709   3.851   8.481   7.326 -0.6694 -3.0864 -1.6333
  850MOL0     H14710   3.986   8.419   7.749 -0.4463 -0.4015 -2.0840
  850MOL0     H14711   4.122   8.472   7.916  0.6636  0.0881 -1.7714
  850MOL0     H14712   4.180   8.628   7.974 -0.7628 -0.5169 -1.4523
  850MOL0     H14713   4.016   8.594   7.993  0.7389  1.5467  0.7425
  850MOL0     H14714   4.363   9.074   7.838 -1.5952 -3.0215 -1.4086
  850MOL0     H14715   4.364   9.301   7.961 -1.6511  1.5677  1.9048
  850MOL0     H14716   4.047   9.567   8.154 -3.7993  0.2629 -0.6326
  850MOL0     H14717   3.950   9.456   8.054 -1.5428 -0.5698  2.7658
  850MOL0     H14718   4.007   9.271   8.195  1.6724 -0.4968 -1.6198
  850MOL0     H14719   4.153   9.355   8.223  0.6952  0.9055  0.1256
  850MOL0     H14720   3.876   9.444   8.329 -0.2554 -0.5746 -1.5576
  850MOL0     H14721   4.043   9.498   8.392  0.3325  0.9236 -1.5189
  850MOL0     H14722   3.972   9.213   8.424  0.2223 -1.2184  3.7477
  850MOL0     H14723   4.090   9.300   8.487 -0.5877 -1.0120 -0.0578
  850MOL0     H14724   3.905   9.275   8.659  1.2972  0.5141  0.0685
  850MOL0     H14725   3.788   9.287   8.544 -1.0342 -1.4107  3.2122
  850MOL0     H14726   3.999   9.523   8.617 -0.8243  1.6263 -1.4238
  850MOL0     H14727   3.848   9.554   8.540  0.1349  1.8832  1.5974
  850MOL0     H14728   3.836   9.418   8.808 -1.9665 -0.3649  0.0351
  850MOL0     H14729   3.729   9.540   8.740 -0.9029 -1.8882 -0.7539
  850MOL0     H14730   3.857   9.635   8.926  1.4156 -1.0701  1.9998
  850MOL0     H14731   3.911   9.707   8.777 -2.6008 -0.7902 -1.3342
  850MOL0     H14732   3.934   9.327   7.897 -0.8491 -3.0752  3.2487
  850MOL0     H14733   3.937   9.128   7.779 -0.1433 -4.7039  1.4395
  850MOL0     H14734   4.054   8.860   7.548  0.3843 -0.6255 -1.1528
  850MOL0     H14735   3.942   8.680   7.420 -0.9020 -2.0844  0.4791
  850MOL0     H14736   4.027   7.919   6.123  1.9641  0.1247 -1.6286
  850MOL0     H14737   4.084   8.132   6.074 -1.7480 -0.0083  4.2595
  850MOL0     H14738   3.935   8.583   5.884 -0.7340  1.7293 -0.0913
  850MOL0     H14739   3.995   8.795   5.789  2.7785 -1.7384  4.2804
  850MOL0     H14740   4.143   9.044   5.570 -2.2445  0.1592 -0.3488
  850MOL0     H14741   4.031   8.991   5.687  1.3871  1.5401  2.8926
  850MOL0     H14742   4.198   8.901   5.832 -1.6782 -2.3338 -1.9358
  850MOL0     H14743   4.194   9.080   5.815  0.7562  0.4186 -1.8124
  850MOL0     H14744   4.352   9.047   5.627 -1.4598 -0.5717  0.9563
  850MOL0     H14745   4.404   8.904   5.723 -0.3571 -1.2088  1.2407
  850MOL0     H14746   4.458   9.071   5.918  0.9137 -0.3366  0.1991
  850MOL0     H14747   4.380   9.194   5.830  1.0730 -0.4069  0.6966
  850MOL0     H14748   4.763   9.191   5.649  0.6227  0.7939  1.0335
  850MOL0     H14749   4.184   8.604   5.454  1.4781  0.6688  0.8111
  850MOL0     H14750   4.129   8.387   5.549 -0.7550 -0.9974 -0.3491
  851MOL0     O14751   8.538   6.390   2.132 -0.2777 -1.0810 -0.5166
  851MOL0     C14752   8.531   6.510   2.141  0.2654 -1.0032 -0.3239
  851MOL0     O14753   8.644   6.602   2.155  0.4450 -0.0780  0.4116
  851MOL0     C14754   8.780   6.561   2.169  0.0744  0.0375  0.4479
  851MOL0     C14755   8.871   6.633   2.259  1.0832  1.2888  0.4028
  851MOL0     C14756   9.006   6.596   2.258 -0.0546 -0.4114 -0.0207
  851MOL0     C14757   9.056   6.530   2.153  0.0228 -0.4980 -0.8577
  851MOL0     O14758   9.196   6.529   2.141 -0.3404  0.7138  0.5985
  851MOL0     C14759   9.271   6.418   2.073  0.3647 -0.8352  0.0481
  851MOL0     C14760   9.384   6.490   2.021 -0.6745 -0.8751  0.1949
  851MOL0     C14761   9.475   6.387   1.947 -0.4362 -0.2732  0.6900
  851MOL0     C14762   9.597   6.458   1.881 -0.1541  0.1555  0.2164
  851MOL0     C14763   9.637   6.392   1.750 -0.4733 -0.2397  1.0208
  851MOL0     C14764   9.668   6.248   1.791 -0.0895  0.0770  0.6397
  851MOL0     C14765   9.687   6.171   1.660 -0.2904  0.8347  0.7164
  851MOL0     C14766   9.555   6.113   1.596 -0.1591 -0.6579 -0.2452
  851MOL0     N14767   9.465   6.044   1.684  0.3393 -0.3809  0.0235
  851MOL0     C14768   9.504   5.931   1.745 -0.0992  0.6059  0.3109
  851MOL0     C14769   9.402   5.884   1.822 -1.0787 -0.6103  0.3346
  851MOL0     C14770   9.377   5.750   1.888  0.9616  0.0437  0.3370
  851MOL0     C14771   9.324   5.784   2.025 -0.1958 -0.0146 -0.0397
  851MOL0     C14772   9.429   5.825   2.123  0.8899 -0.6763 -0.1899
  851MOL0     C14773   9.375   5.812   2.271 -1.0846  1.2452  0.7156
  851MOL0     O14774   9.485   5.834   2.359  0.0032  0.4832  0.2756
  851MOL0     C14775   9.447   5.830   2.495  0.0058 -0.5068 -0.3397
  851MOL0     C14776   9.550   5.859   2.585  0.1063 -0.6796  0.0872
  851MOL0     C14777   9.546   5.845   2.724  0.2592 -0.5841  0.0641
  851MOL0     C14778   9.669   5.889   2.805  0.5871  0.9395  0.8579
  851MOL0     C14779   9.419   5.818   2.774 -0.3153  0.4792  0.2206
  851MOL0     C14780   9.391   5.839   2.927 -0.1029 -0.4729  0.1675
  851MOL0     O14781   9.346   5.961   2.968  0.3278 -0.3543 -0.1452
  851MOL0     C14782   9.370   6.062   2.885 -0.3482 -0.0706 -0.6107
  851MOL0     C14783   9.446   6.167   2.931 -1.1235  0.1637 -0.2860
  851MOL0     C14784   9.445   6.288   2.871 -0.5296  0.1296  0.3321
  851MOL0     C14785   9.371   6.310   2.754  1.4256 -0.9374 -0.3257
  851MOL0     O14786   9.374   6.440   2.701  0.2611 -0.5272 -0.8335
  851MOL0     C14787   9.309   6.449   2.570 -0.2707 -0.6386 -0.0180
  851MOL0     C14788   9.332   6.587   2.508 -0.8077  0.0204 -0.4838
  851MOL0     C14789   9.255   6.703   2.557 -0.2240 -0.2015 -0.1455
  851MOL0     C14790   9.297   6.752   2.693  0.1021 -0.0474 -0.8414
  851MOL0     C14791   9.228   6.866   2.755  0.4520  0.0151  0.7307
  851MOL0     C14792   9.308   6.912   2.876 -0.1996  0.0570 -0.8100
  851MOL0     C14793   9.218   7.021   2.943 -1.4153 -0.6353  0.2404
  851MOL0     C14794   9.298   7.122   3.025  0.7218 -0.6346 -0.1382
  851MOL0    Cl14795   9.180   7.211   3.109  0.5305  0.2048  0.0811
  851MOL0     C14796   9.305   6.205   2.693  0.0335 -0.4770 -0.7105
  851MOL0     C14797   9.295   6.094   2.763  0.5454 -0.3247 -0.2863
  851MOL0     O14798   9.398   5.739   2.991 -0.2683  0.2402  0.0443
  851MOL0     C14799   9.322   5.774   2.689 -0.2026  0.4349 -0.5637
  851MOL0     C14800   9.328   5.782   2.556  0.3951  0.5786 -0.0406
  851MOL0     N14801   9.309   5.988   1.811 -0.2481  1.1326  0.3008
  851MOL0     N14802   9.346   6.089   1.737 -0.3147 -0.0233  0.7721
  851MOL0     C14803   8.963   6.467   2.066 -0.5240  0.3149  0.9865
  851MOL0     C14804   8.826   6.477   2.074  0.3025  0.0821 -0.2705
  851MOL0     C14805   8.394   6.562   2.109 -1.0635  0.5520  1.0262
  851MOL0     C14806   8.365   6.690   2.155  0.3003 -0.4501  1.0099
  851MOL0     C14807   8.236   6.740   2.143 -0.2022 -0.3776 -0.2470
  851MOL0     C14808   8.132   6.671   2.083  0.3433 -0.2751 -0.0063
  851MOL0     O14809   8.015   6.734   2.045  0.4276 -0.3049 -0.4517
  851MOL0     C14810   7.919   6.752   2.154  0.1116 -0.4299  0.4865
  851MOL0     C14811   7.829   6.867   2.096  0.1465 -0.3863 -0.9185
  851MOL0     C14812   7.898   7.006   2.107 -0.3465 -0.4730 -0.3411
  851MOL0     C14813   7.861   7.083   2.235  0.0475 -0.5126 -0.6521
  851MOL0     C14814   7.910   7.025   2.356  0.1181  0.0519  0.2979
  851MOL0     C14815   7.956   6.986   2.455  0.1326 -0.3797 -0.6797
  851MOL0     C14816   8.160   6.536   2.037 -0.0331 -0.4192 -0.5436
  851MOL0     C14817   8.288   6.479   2.056  1.0140 -0.4440 -0.2258
  851MOL0     H14818   8.830   6.707   2.326 -1.0834  1.5710 -1.1151
  851MOL0     H14819   9.069   6.648   2.328  1.4389  0.3994 -1.8718
  851MOL0     H14820   9.311   6.338   2.136  0.3233  0.5931  1.9701
  851MOL0     H14821   9.206   6.372   1.998 -2.0508 -0.3406  1.7219
  851MOL0     H14822   9.353   6.552   1.937  0.2945 -2.0430 -1.0718
  851MOL0     H14823   9.428   6.563   2.089 -3.1938 -1.8952  3.1985
  851MOL0     H14824   9.506   6.306   2.013 -0.2471  0.0679  1.0284
  851MOL0     H14825   9.415   6.348   1.864  2.4714 -5.8969  0.7455
  851MOL0     H14826   9.571   6.560   1.849  1.0588  0.1139 -1.0299
  851MOL0     H14827   9.672   6.464   1.960  0.7764 -1.9080 -0.4470
  851MOL0     H14828   9.555   6.396   1.678  0.1778  0.4936  0.2967
  851MOL0     H14829   9.725   6.441   1.707 -1.5782 -0.7789 -2.0925
  851MOL0     H14830   9.759   6.258   1.851 -0.0940  3.0056  0.3322
  851MOL0     H14831   9.588   6.206   1.853 -2.8172  1.8900 -1.4133
  851MOL0     H14832   9.746   6.226   1.586 -2.0472  0.2449 -1.1865
  851MOL0     H14833   9.754   6.086   1.675  2.0568  2.3742 -0.3326
  851MOL0     H14834   9.569   6.047   1.510  1.3106  1.0142 -1.3610
  851MOL0     H14835   9.490   6.194   1.561 -0.2633  0.8749  3.0950
  851MOL0     H14836   9.602   5.885   1.741  0.9160  2.6148 -4.1312
  851MOL0     H14837   9.307   5.700   1.821  0.8779  2.0873 -1.2225
  851MOL0     H14838   9.471   5.694   1.890  2.0171  1.7166  0.0078
  851MOL0     H14839   9.292   5.687   2.065 -1.0257  0.5387  0.6669
  851MOL0     H14840   9.239   5.852   2.027 -2.7199 -2.9434  1.2254
  851MOL0     H14841   9.463   5.929   2.111 -0.0948  0.4788  4.9213
  851MOL0     H14842   9.523   5.770   2.117  0.5115 -1.3554  0.0440
  851MOL0     H14843   9.347   5.709   2.294 -3.0404  1.2415 -1.3789
  851MOL0     H14844   9.292   5.880   2.291 -3.0763 -0.2901 -1.7476
  851MOL0     H14845   9.649   5.891   2.553  0.3373  0.2051  1.5993
  851MOL0     H14846   9.714   5.974   2.753 -2.1896 -0.4766 -4.6438
  851MOL0     H14847   9.639   5.913   2.907  2.3101 -2.5762  2.3516
  851MOL0     H14848   9.747   5.812   2.813  1.5095  2.0235  2.8251
  851MOL0     H14849   9.501   6.146   3.023 -0.2130 -0.8862 -1.0367
  851MOL0     H14850   9.491   6.380   2.908  1.4737 -0.0845 -1.4347
  851MOL0     H14851   9.341   6.373   2.498 -2.4070 -1.8020  0.1876
  851MOL0     H14852   9.200   6.444   2.574 -0.3035 -0.3551 -0.3919
  851MOL0     H14853   9.437   6.616   2.510 -0.6427 -0.5877  1.7467
  851MOL0     H14854   9.299   6.576   2.404  0.3230 -0.9094 -0.7564
  851MOL0     H14855   9.148   6.685   2.547 -0.8503  2.8538  0.2827
  851MOL0     H14856   9.269   6.791   2.495 -2.0501  1.2980  1.4374
  851MOL0     H14857   9.289   6.673   2.769 -0.4838  0.6390 -0.1650
  851MOL0     H14858   9.401   6.786   2.686  0.8894 -0.7868  3.7629
  851MOL0     H14859   9.126   6.828   2.773 -0.0928  0.5447 -1.0407
  851MOL0     H14860   9.222   6.951   2.687 -1.9107  0.6499  1.6327
  851MOL0     H14861   9.334   6.832   2.947 -0.6094  2.7177  2.6048
  851MOL0     H14862   9.401   6.955   2.839 -1.1917  1.1695 -2.1198
  851MOL0     H14863   9.146   6.982   3.015 -2.9730  1.4280 -0.0876
  851MOL0     H14864   9.150   7.060   2.866 -0.0651 -1.7323 -1.6016
  851MOL0     H14865   9.340   7.209   2.973 -1.0742  2.5855  3.3144
  851MOL0     H14866   9.377   7.088   3.092  1.2810  0.2870 -0.3062
  851MOL0     H14867   9.245   6.219   2.604 -1.0721  0.1711  0.1023
  851MOL0     H14868   9.218   6.021   2.740 -0.2812 -1.1890  4.2699
  851MOL0     H14869   9.233   5.746   2.745  0.5418 -1.2849 -0.1973
  851MOL0     H14870   9.243   5.740   2.503  0.3383  1.5339 -0.7251
  851MOL0     H14871   9.004   6.414   1.980  0.3158  3.9107 -1.0423
  851MOL0     H14872   8.750   6.431   2.011  0.7364 -0.9959 -0.0136
  851MOL0     H14873   8.444   6.742   2.207  3.6564 -2.0047 -2.0839
  851MOL0     H14874   8.219   6.843   2.174  2.1752  0.8744 -2.7282
  851MOL0     H14875   7.854   6.665   2.171 -0.4764  0.1485  1.2736
  851MOL0     H14876   7.970   6.787   2.244  2.4650 -0.0901 -0.8820
  851MOL0     H14877   7.745   6.870   2.166  0.0041  0.2315 -1.1133
  851MOL0     H14878   7.797   6.839   1.995 -2.7341 -0.7788  0.0141
  851MOL0     H14879   7.885   7.070   2.019 -1.2232 -1.3111 -0.8351
  851MOL0     H14880   8.006   6.991   2.119  0.2959  3.4383  0.0637
  851MOL0     H14881   7.752   7.092   2.234  0.0308 -0.3996  0.5824
  851MOL0     H14882   7.904   7.182   2.219 -0.6230  0.2948  2.0352
  851MOL0     H14883   7.996   6.965   2.552  1.4935 -2.4558 -1.6311
  851MOL0     H14884   8.083   6.476   1.991  0.3210 -2.0085  0.8563
  851MOL0     H14885   8.296   6.375   2.027 -3.0930 -0.8548 -0.5334
  852MOL0     O14886   1.103   3.839   4.964  0.3794  0.2009  0.2927
  852MOL0     C14887   1.026   3.898   4.886 -0.1455 -0.2624 -0.7190
  852MOL0     O14888   0.951   3.842   4.787  0.0704 -0.2901 -0.3502
  852MOL0     C14889   0.934   3.706   4.792  0.5000 -0.2534  0.4109
  852MOL0     C14890   0.859   3.647   4.896 -0.5164  0.7681  0.6110
  852MOL0     C14891   0.850   3.499   4.904  0.5452  0.1646 -0.5606
  852MOL0     C14892   0.883   3.419   4.800 -0.5646  0.0159  0.5573
  852MOL0     O14893   0.845   3.288   4.807  0.1531  0.7806  0.2506
  852MOL0     C14894   0.888   3.193   4.695  0.0487 -0.5678  0.4925
  852MOL0     C14895   0.855   3.049   4.739  0.3427  0.1117  0.5274
  852MOL0     C14896   0.704   3.021   4.748 -0.0847 -0.0789  0.8081
  852MOL0     C14897   0.677   2.871   4.789 -0.5989 -0.1125  0.2751
  852MOL0     C14898   0.526   2.833   4.803  0.2843 -0.7549 -0.7799
  852MOL0     C14899   0.430   2.866   4.691  0.0820  1.0092 -0.8155
  852MOL0     C14900   0.485   2.800   4.566 -0.1390  0.4492 -0.1062
  852MOL0     C14901   0.485   2.653   4.584  0.5697  0.9943  0.0449
  852MOL0     N14902   0.520   2.578   4.462  0.4606 -0.6268  0.6357
  852MOL0     C14903   0.495   2.617   4.333  0.3658  0.7480 -0.5207
  852MOL0     C14904   0.558   2.519   4.259 -0.4421 -0.5021 -0.6021
  852MOL0     C14905   0.577   2.523   4.105 -0.4889 -0.1364  0.2834
  852MOL0     C14906   0.501   2.419   4.041  0.7362  0.5983  1.3320
  852MOL0     C14907   0.507   2.429   3.884  0.6299  0.4341  0.5191
  852MOL0     C14908   0.433   2.297   3.823 -0.4900  0.9372  0.3574
  852MOL0     O14909   0.524   2.183   3.810 -0.8695 -0.6682 -0.0150
  852MOL0     C14910   0.480   2.059   3.757  0.2410  0.4789  0.4804
  852MOL0     C14911   0.535   1.942   3.808  1.0733 -0.7446  1.1083
  852MOL0     C14912   0.491   1.814   3.766 -0.3593 -0.3400  0.0213
  852MOL0     C14913   0.571   1.694   3.828  0.5378 -0.8600  0.7046
  852MOL0     C14914   0.392   1.809   3.667  1.2426  0.8203 -0.4732
  852MOL0     C14915   0.339   1.664   3.631 -0.9829 -0.6963 -0.1666
  852MOL0     O14916   0.283   1.657   3.505  0.2154  0.6242  0.3611
  852MOL0     C14917   0.239   1.534   3.463  0.0169 -1.0061 -0.1423
  852MOL0     C14918   0.096   1.501   3.466  0.5698  0.1079  0.1900
  852MOL0     C14919   0.048   1.380   3.423  0.3170 -0.3293 -0.3908
  852MOL0     C14920   0.138   1.287   3.367 -0.7464  0.6529  0.4299
  852MOL0     O14921   0.078   1.170   3.329  0.0731  0.1492 -0.0750
  852MOL0     C14922   0.153   1.057   3.277  0.5030 -1.1704  0.9106
  852MOL0     C14923   0.093   0.943   3.194 -1.1928  0.3398  0.3504
  852MOL0     C14924  -0.018   0.875   3.272  0.3278  0.8167 -0.1061
  852MOL0     C14925  -0.058   0.738   3.219 -0.6147  1.3546  0.7021
  852MOL0     C14926  -0.098   0.739   3.073  0.1143 -0.5954 -0.5256
  852MOL0     C14927  -0.105   0.605   3.001  0.2412 -0.4835 -0.1591
  852MOL0     C14928  -0.152   0.621   2.849 -0.1359  0.2246 -0.4669
  852MOL0     C14929  -0.222   0.501   2.798  0.0633  1.1289  0.3718
  852MOL0    Cl14930  -0.235   0.506   2.620  0.1218  0.3981 -0.5554
  852MOL0     C14931   0.270   1.323   3.342  0.1110  0.3417  0.2429
  852MOL0     C14932   0.322   1.451   3.395 -0.1420  0.5124  0.6899
  852MOL0     O14933   0.336   1.576   3.715 -0.2775  0.1759  0.5607
  852MOL0     C14934   0.339   1.928   3.613  0.3849 -0.4697  0.1603
  852MOL0     C14935   0.378   2.052   3.656  0.0723 -0.2168 -0.3910
  852MOL0     N14936   0.624   2.438   4.349 -0.4664 -0.6960  0.4551
  852MOL0     N14937   0.605   2.474   4.469  0.1922 -0.5113 -0.3879
  852MOL0     C14938   0.961   3.475   4.696 -0.1701 -1.0196 -0.9601
  852MOL0     C14939   0.985   3.612   4.690 -0.5737 -0.8848 -0.8855
  852MOL0     C14940   1.028   4.048   4.866  0.9795  0.1537  0.4402
  852MOL0     C14941   0.937   4.106   4.782  0.6359 -0.3293  0.2649
  852MOL0     C14942   0.946   4.241   4.749 -0.3152  0.0419 -0.8988
  852MOL0     C14943   1.030   4.325   4.819  0.7097  0.8911 -0.0449
  852MOL0     O14944   1.026   4.462   4.804  0.2418 -0.3350 -0.2014
  852MOL0     C14945   0.937   4.525   4.723 -0.5172 -0.0435  0.8257
  852MOL0     C14946   0.918   4.671   4.764  0.2334 -0.0941 -0.2718
  852MOL0     C14947   1.048   4.749   4.786  0.3752  1.0735  1.5335
  852MOL0     C14948   1.082   4.792   4.930 -0.1537 -0.0343  0.0212
  852MOL0     C14949   1.119   4.679   5.014 -0.2938  0.2176  0.4418
  852MOL0     C14950   1.156   4.576   5.072  0.0094 -0.4973 -0.5548
  852MOL0     C14951   1.131   4.268   4.907 -0.1902 -0.1866  0.1319
  852MOL0     C14952   1.130   4.130   4.917  1.1902 -1.0046 -1.2507
  852MOL0     H14953   0.815   3.711   4.972 -3.1412  2.8587 -2.3911
  852MOL0     H14954   0.800   3.458   4.990  0.1173 -0.9755 -1.3253
  852MOL0     H14955   0.840   3.217   4.600  1.7932  2.4485  0.2275
  852MOL0     H14956   0.997   3.182   4.683  0.1949 -1.6073  2.4083
  852MOL0     H14957   0.891   2.986   4.658 -0.4106 -0.0631  0.3176
  852MOL0     H14958   0.908   3.023   4.831  1.3177  0.8682  0.1978
  852MOL0     H14959   0.653   3.089   4.816  0.6215  0.0666  1.2075
  852MOL0     H14960   0.652   3.041   4.654 -0.2714 -0.2280  0.8791
  852MOL0     H14961   0.731   2.807   4.719 -0.4925  1.6405 -1.3476
  852MOL0     H14962   0.706   2.842   4.890 -0.7925 -2.0073 -0.1710
  852MOL0     H14963   0.516   2.728   4.833  2.0240 -1.4136 -2.3243
  852MOL0     H14964   0.501   2.906   4.881 -2.5128 -0.4516 -1.8526
  852MOL0     H14965   0.333   2.825   4.722  0.7792 -0.1074 -0.0384
  852MOL0     H14966   0.422   2.973   4.674 -2.8729  0.7430 -1.6759
  852MOL0     H14967   0.414   2.826   4.488  1.8779  0.4859 -2.0167
  852MOL0     H14968   0.584   2.835   4.537 -0.5958  0.4839 -1.6940
  852MOL0     H14969   0.386   2.625   4.622  0.4733  1.5376  0.2072
  852MOL0     H14970   0.559   2.616   4.656 -1.6093 -1.6396  1.1195
  852MOL0     H14971   0.443   2.703   4.291 -0.1454 -0.0504 -1.5740
  852MOL0     H14972   0.545   2.618   4.060  0.9462  0.9128  1.3507
  852MOL0     H14973   0.680   2.506   4.071  0.3729  2.3269  1.4278
  852MOL0     H14974   0.398   2.421   4.080 -0.7549  2.0079 -2.2279
  852MOL0     H14975   0.543   2.321   4.064 -0.2793 -0.5186 -1.1921
  852MOL0     H14976   0.610   2.440   3.852  0.0124  0.8168 -1.4355
  852MOL0     H14977   0.446   2.516   3.859 -0.3310 -0.0242  1.1612
  852MOL0     H14978   0.376   2.321   3.733  1.5547  2.0294 -0.7098
  852MOL0     H14979   0.361   2.266   3.900 -0.5028 -2.1333 -0.7488
  852MOL0     H14980   0.601   1.955   3.893  0.4173 -0.3944  1.5731
  852MOL0     H14981   0.676   1.726   3.822 -0.5078  2.7313 -1.6202
  852MOL0     H14982   0.539   1.678   3.931 -1.3141  1.9634  0.6771
  852MOL0     H14983   0.561   1.605   3.764 -1.1503 -1.0356  1.1782
  852MOL0     H14984   0.022   1.574   3.498 -2.1403 -2.1705 -0.4986
  852MOL0     H14985  -0.058   1.359   3.430 -0.0070 -0.3923 -3.8656
  852MOL0     H14986   0.228   1.108   3.215  0.3542 -0.4499  1.3062
  852MOL0     H14987   0.207   1.013   3.361 -0.5132  0.4178  2.4662
  852MOL0     H14988   0.058   0.987   3.100  0.3133  0.1924 -0.3073
  852MOL0     H14989   0.183   0.885   3.169 -1.0613  1.3434 -1.7599
  852MOL0     H14990  -0.114   0.926   3.263 -1.5701 -2.4822 -0.2867
  852MOL0     H14991   0.002   0.857   3.378 -3.4949 -0.1731  0.6146
  852MOL0     H14992   0.018   0.662   3.241 -1.3110  0.6306  0.6704
  852MOL0     H14993  -0.137   0.693   3.281  0.4915  0.2145  1.3395
  852MOL0     H14994  -0.029   0.802   3.016  1.0370  0.7786  1.9941
  852MOL0     H14995  -0.197   0.786   3.068  0.0077 -0.6066  0.9785
  852MOL0     H14996  -0.003   0.568   2.986  0.6319  0.1777  0.7776
  852MOL0     H14997  -0.178   0.545   3.056 -0.2918  1.5969  1.5351
  852MOL0     H14998  -0.056   0.651   2.805  0.3211  2.6573  1.9004
  852MOL0     H14999  -0.225   0.702   2.845  0.2334  1.0422  3.8566
  852MOL0     H15000  -0.323   0.503   2.840  0.9039 -1.3018  2.7604
  852MOL0     H15001  -0.159   0.415   2.821  0.1292  1.4607  1.5123
  852MOL0     H15002   0.340   1.257   3.293 -1.9745 -2.3467  0.6635
  852MOL0     H15003   0.427   1.473   3.375 -0.2324  0.2199 -0.1340
  852MOL0     H15004   0.260   1.918   3.539 -0.0200  0.7434  0.4131
  852MOL0     H15005   0.336   2.144   3.616  0.6001  0.4160  0.4776
  852MOL0     H15006   1.002   3.417   4.613 -0.2774 -1.3045 -0.8168
  852MOL0     H15007   1.036   3.658   4.606 -0.8851 -1.6083 -1.4801
  852MOL0     H15008   0.859   4.048   4.735  1.3708 -0.1856 -1.2096
  852MOL0     H15009   0.892   4.276   4.662 -1.9649  1.7904  0.7385
  852MOL0     H15010   0.968   4.519   4.618  4.3433  1.0658  1.9407
  852MOL0     H15011   0.835   4.488   4.732 -1.7810  2.9058  0.0759
  852MOL0     H15012   0.860   4.677   4.857  0.3365  0.4400 -0.2370
  852MOL0     H15013   0.864   4.714   4.680  1.0708 -1.0806 -1.3568
  852MOL0     H15014   1.038   4.844   4.732 -2.6759 -0.5672 -1.1115
  852MOL0     H15015   1.130   4.696   4.736 -1.3510 -1.5653  1.3624
  852MOL0     H15016   1.000   4.842   4.983 -1.9650 -1.5651 -1.2052
  852MOL0     H15017   1.165   4.861   4.910  1.1936 -2.0489 -1.8769
  852MOL0     H15018   1.194   4.483   5.111  1.6631  0.8109  1.0963
  852MOL0     H15019   1.197   4.335   4.960  0.9168  0.5757 -2.0924
  852MOL0     H15020   1.215   4.088   4.970  1.5721 -1.8628 -2.5041
  853MOL0     O15021   8.540   9.594   1.312  0.1899  0.4860  0.8734
  853MOL0     C15022   8.585   9.704   1.321  0.1430 -0.3692  0.2988
  853MOL0     O15023   8.511   9.823   1.318  0.2011  0.4480  0.3144
  853MOL0     C15024   8.371   9.828   1.343  0.1002 -0.7259 -0.7434
  853MOL0     C15025   8.303   9.738   1.414  0.0700  0.7196 -0.3853
  853MOL0     C15026   8.167   9.761   1.446 -0.1481 -0.0116  0.5331
  853MOL0     C15027   8.097   9.884   1.416 -0.3545  0.9392 -0.4094
  853MOL0     O15028   7.967   9.905   1.462 -0.7400  0.6370  0.1502
  853MOL0     C15029   7.899  10.028   1.428 -0.0098  0.2608 -0.4407
  853MOL0     C15030   7.746  10.008   1.435 -0.6614 -0.2930  0.2516
  853MOL0     C15031   7.661  10.117   1.373  1.0390  0.9883  0.0588
  853MOL0     C15032   7.694  10.255   1.419 -0.1073 -0.9963  0.3271
  853MOL0     C15033   7.606  10.371   1.357  0.7486 -0.3895  0.1084
  853MOL0     C15034   7.475  10.416   1.432  0.0185 -0.3765  0.2100
  853MOL0     C15035   7.350  10.327   1.405  0.5141  0.9639 -0.9622
  853MOL0     C15036   7.332  10.297   1.248  0.8592 -0.5063  0.3744
  853MOL0     N15037   7.199  10.246   1.220 -0.3241  0.1220 -1.3748
  853MOL0     C15038   7.125  10.145   1.283  0.1810 -0.3364 -0.5845
  853MOL0     C15039   7.016  10.119   1.210  0.7500 -0.0119  0.2160
  853MOL0     C15040   6.908  10.003   1.222  0.0462 -0.5115  0.3886
  853MOL0     C15041   6.875   9.934   1.358  0.2240  0.2921 -0.5354
  853MOL0     C15042   6.912   9.778   1.358 -0.2355  0.0264 -1.1607
  853MOL0     C15043   6.872   9.720   1.496  0.0025  0.4839 -0.4140
  853MOL0     O15044   6.848   9.580   1.491 -1.0288  0.4380 -0.0374
  853MOL0     C15045   6.932   9.516   1.571  0.1303  0.3118  0.0514
  853MOL0     C15046   7.056   9.480   1.521  0.7098  0.3155  0.8794
  853MOL0     C15047   7.139   9.407   1.602 -1.7449  0.4147 -0.9349
  853MOL0     C15048   7.274   9.370   1.537  0.0251  0.1440 -1.2872
  853MOL0     C15049   7.107   9.380   1.738 -0.2288  1.3594 -0.2346
  853MOL0     C15050   7.193   9.330   1.842  0.9244 -0.0255 -0.1854
  853MOL0     O15051   7.323   9.350   1.837 -0.0071 -0.3300  0.1974
  853MOL0     C15052   7.386   9.409   1.941  0.7731 -0.1212 -0.8020
  853MOL0     C15053   7.524   9.407   1.935  0.2245  0.4012  0.6930
  853MOL0     C15054   7.603   9.464   2.036  0.4511  0.2806 -0.6334
  853MOL0     C15055   7.542   9.509   2.158  0.0059  0.0382  0.0611
  853MOL0     O15056   7.610   9.556   2.270  0.3778  0.4747 -0.1440
  853MOL0     C15057   7.745   9.581   2.277 -0.0158  0.6762 -0.6376
  853MOL0     C15058   7.794   9.645   2.411 -0.5779  0.0444  0.5885
  853MOL0     C15059   7.951   9.636   2.429  0.1617  0.2224  0.4216
  853MOL0     C15060   7.990   9.565   2.566 -0.3694 -0.1079  0.1870
  853MOL0     C15061   8.130   9.571   2.606  0.6319  0.5650 -0.0975
  853MOL0     C15062   8.159   9.468   2.715  0.2769  0.7570 -0.5563
  853MOL0     C15063   8.301   9.467   2.782 -0.1773  0.6152  0.3749
  853MOL0     C15064   8.326   9.362   2.888 -0.3895  0.4650  0.4769
  853MOL0    Cl15065   8.319   9.198   2.800 -0.2759 -1.0109 -0.2227
  853MOL0     C15066   7.402   9.513   2.161  0.2340 -0.0112  0.0445
  853MOL0     C15067   7.320   9.457   2.065 -0.5251  0.3730 -0.2665
  853MOL0     O15068   7.142   9.272   1.939 -0.6708  0.3748 -0.6415
  853MOL0     C15069   6.980   9.433   1.779 -0.4784  0.2779  0.5763
  853MOL0     C15070   6.901   9.494   1.700  0.5206 -1.4850  0.3557
  853MOL0     N15071   7.017  10.218   1.113  0.5038  1.4119 -0.1314
  853MOL0     N15072   7.128  10.282   1.112 -0.2657 -0.8937  0.2435
  853MOL0     C15073   8.180   9.977   1.346 -0.4100 -0.1741  0.7234
  853MOL0     C15074   8.309   9.952   1.310 -0.5495 -0.6458  0.1819
  853MOL0     C15075   8.735   9.703   1.318  0.0291  0.1467  0.0210
  853MOL0     C15076   8.811   9.827   1.335  0.6070 -0.3925  0.4272
  853MOL0     C15077   8.944   9.830   1.289 -0.3976  1.0378  1.1268
  853MOL0     C15078   9.023   9.705   1.270  0.3565  0.4523  0.6917
  853MOL0     O15079   9.157   9.723   1.253  0.1953 -0.6271 -0.3008
  853MOL0     C15080   9.234   9.616   1.209 -0.2384 -0.3081  0.4383
  853MOL0     C15081   9.375   9.661   1.189  0.3884 -0.3265  0.0091
  853MOL0     C15082   9.375   9.761   1.073  0.2166 -0.8062  0.5219
  853MOL0     C15083   9.524   9.798   1.046 -0.4048  0.8900  0.5626
  853MOL0     C15084   9.605   9.695   0.970 -0.2993  0.1142 -0.5716
  853MOL0     C15085   9.654   9.611   0.895  0.0302  0.5060  0.4697
  853MOL0     C15086   8.948   9.583   1.285  0.3879 -0.3749 -1.1046
  853MOL0     C15087   8.813   9.587   1.305  0.9330 -0.1581 -0.1421
  853MOL0     H15088   8.360   9.659   1.460  1.4409  2.0261  0.2061
  853MOL0     H15089   8.117   9.683   1.503  0.9350 -1.6517 -0.6897
  853MOL0     H15090   7.935  10.093   1.508 -1.6096  0.8911 -0.1875
  853MOL0     H15091   7.922  10.079   1.334  0.0044  3.2278  1.0578
  853MOL0     H15092   7.726   9.919   1.374 -1.5704  0.2898 -0.3301
  853MOL0     H15093   7.716   9.996   1.539 -2.6099  0.4333 -0.1915
  853MOL0     H15094   7.681  10.113   1.265  1.5819 -2.1022  0.1728
  853MOL0     H15095   7.556  10.092   1.390  0.3692  2.2795 -1.7822
  853MOL0     H15096   7.684  10.260   1.528  3.2667 -1.0593  0.7464
  853MOL0     H15097   7.798  10.277   1.393 -0.7763 -1.1600 -3.0334
  853MOL0     H15098   7.667  10.461   1.357  1.0816 -0.4713  3.3888
  853MOL0     H15099   7.588  10.336   1.255  3.0321  0.6435 -0.7018
  853MOL0     H15100   7.485  10.433   1.540  0.8656  0.1200  0.0641
  853MOL0     H15101   7.453  10.519   1.402  1.0628  1.7046  5.4423
  853MOL0     H15102   7.380  10.233   1.451  0.5867  0.9677 -1.0033
  853MOL0     H15103   7.263  10.375   1.450  0.7971  0.4009  0.2289
  853MOL0     H15104   7.395  10.230   1.190  1.6793 -0.8589  1.6275
  853MOL0     H15105   7.341  10.396   1.201 -2.4049 -0.2224  0.1192
  853MOL0     H15106   7.170  10.105   1.373  2.4480  0.8763 -1.0904
  853MOL0     H15107   6.815  10.033   1.174  0.1711  1.6290  1.3923
  853MOL0     H15108   6.937   9.923   1.153  1.0113 -0.1742  0.3890
  853MOL0     H15109   6.768   9.942   1.376  0.4932  0.2195  1.2720
  853MOL0     H15110   6.915   9.989   1.444 -4.0133  1.2401  1.0524
  853MOL0     H15111   7.012   9.743   1.329 -1.3303 -3.4360 -1.1885
  853MOL0     H15112   6.854   9.716   1.289  2.5855 -2.1455 -1.7638
  853MOL0     H15113   6.775   9.755   1.533  0.7337 -0.0571  2.2283
  853MOL0     H15114   6.952   9.760   1.561  2.6959  2.8154 -4.6819
  853MOL0     H15115   7.095   9.482   1.420  1.9967 -2.0899  1.2294
  853MOL0     H15116   7.333   9.303   1.600 -2.0067 -0.0607  0.5229
  853MOL0     H15117   7.251   9.315   1.445 -1.1350 -0.0138 -0.9264
  853MOL0     H15118   7.324   9.464   1.516 -2.4853  2.1959  1.1467
  853MOL0     H15119   7.556   9.362   1.841 -1.3649 -1.2104  0.8602
  853MOL0     H15120   7.711   9.459   2.028  0.4433 -0.3249 -0.3958
  853MOL0     H15121   7.802   9.487   2.279  1.3316  1.4208  2.4068
  853MOL0     H15122   7.797   9.632   2.196 -0.7861  1.2265 -0.7911
  853MOL0     H15123   7.769   9.751   2.400  0.8562  0.4266  0.7396
  853MOL0     H15124   7.748   9.601   2.500  0.3264 -0.1475  0.9761
  853MOL0     H15125   7.994   9.736   2.428  0.6947  0.0079 -0.9304
  853MOL0     H15126   7.996   9.586   2.342  3.1318  3.2376 -0.0039
  853MOL0     H15127   7.942   9.619   2.648  1.1572 -1.5210  2.1038
  853MOL0     H15128   7.939   9.468   2.573 -0.6673  0.1017  1.1676
  853MOL0     H15129   8.142   9.674   2.642 -0.2723 -0.0054  1.9851
  853MOL0     H15130   8.198   9.564   2.521  1.8468  1.4963  0.7561
  853MOL0     H15131   8.088   9.489   2.796  0.6879 -0.7876  0.2531
  853MOL0     H15132   8.132   9.366   2.686 -0.5746  0.2247  1.8103
  853MOL0     H15133   8.326   9.568   2.817  2.2014 -0.2820  1.4315
  853MOL0     H15134   8.371   9.434   2.705 -0.8067 -2.7921  1.1036
  853MOL0     H15135   8.255   9.374   2.970  1.2817  1.1805  1.8872
  853MOL0     H15136   8.428   9.368   2.928 -0.2528  1.9111 -0.0156
  853MOL0     H15137   7.351   9.534   2.255 -1.6758  2.0592 -1.3483
  853MOL0     H15138   7.215   9.462   2.089 -0.3817  0.5992  0.3312
  853MOL0     H15139   6.942   9.424   1.880 -3.3480  1.7449 -0.2650
  853MOL0     H15140   6.805   9.525   1.738 -0.2196 -0.8773 -1.8371
  853MOL0     H15141   8.136  10.075   1.329 -1.0452 -0.3522  1.2635
  853MOL0     H15142   8.368  10.028   1.261 -0.5311 -1.1584 -0.6022
  853MOL0     H15143   8.758   9.921   1.347  0.5208 -0.2648 -0.8311
  853MOL0     H15144   8.992   9.925   1.271 -0.1695  0.8405  0.6763
  853MOL0     H15145   9.228   9.541   1.288  0.1506 -0.8774 -0.0568
  853MOL0     H15146   9.196   9.578   1.113  0.3794 -1.0101  0.4609
  853MOL0     H15147   9.426   9.568   1.160 -0.4093 -0.2318 -1.8725
  853MOL0     H15148   9.409   9.705   1.283 -0.2245 -1.7443  0.9151
  853MOL0     H15149   9.308   9.842   1.104 -0.3763 -1.2927  0.5424
  853MOL0     H15150   9.338   9.729   0.975  0.3157 -1.6737  0.7616
  853MOL0     H15151   9.575   9.804   1.143 -0.4168 -3.7290  1.0625
  853MOL0     H15152   9.526   9.896   0.996  0.9177  0.5974 -0.0095
  853MOL0     H15153   9.678   9.532   0.826 -0.9759  1.4124 -0.9818
  853MOL0     H15154   8.994   9.486   1.300  0.2009 -0.4399 -0.9464
  853MOL0     H15155   8.750   9.499   1.305 -1.0879  1.2115 -1.1922
  854MOL0     O15156   4.372   2.381  11.203  0.2992 -0.1235 -0.8552
  854MOL0     C15157   4.387   2.421  11.318 -0.4185 -0.5521  0.0568
  854MOL0     O15158   4.505   2.404  11.397  0.6274 -0.3380  0.2703
  854MOL0     C15159   4.627   2.363  11.340  0.6584 -0.0499  0.6446
  854MOL0     C15160   4.685   2.421  11.241  0.2739 -0.0193  0.5204
  854MOL0     C15161   4.812   2.388  11.193 -0.0298  0.8335  0.0072
  854MOL0     C15162   4.880   2.286  11.272 -0.9847  0.3189  0.5017
  854MOL0     O15163   5.005   2.232  11.256  0.4302 -0.1976  0.1633
  854MOL0     C15164   5.094   2.293  11.168 -0.1572 -0.1309 -0.8121
  854MOL0     C15165   5.232   2.222  11.165  0.0457 -0.5686 -0.2378
  854MOL0     C15166   5.233   2.073  11.134  0.1956 -0.9098 -0.5136
  854MOL0     C15167   5.167   2.041  10.994 -0.1883 -0.3012  0.1050
  854MOL0     C15168   5.177   1.893  10.968  0.1308 -0.3236 -0.0586
  854MOL0     C15169   5.094   1.799  11.053 -0.8052  0.6968 -0.2554
  854MOL0     C15170   4.943   1.830  11.047  0.1649 -0.1388  0.4681
  854MOL0     C15171   4.914   1.915  11.169  0.1609  0.4384 -0.4094
  854MOL0     N15172   4.780   1.883  11.210 -0.6813  0.7236 -0.4297
  854MOL0     C15173   4.667   1.930  11.144  0.7130  0.7995 -0.9315
  854MOL0     C15174   4.570   1.911  11.238  0.1760  0.1370 -0.8647
  854MOL0     C15175   4.423   1.907  11.207  0.9853 -1.1383  0.0624
  854MOL0     C15176   4.349   2.046  11.226 -0.4865  0.4526  0.4248
  854MOL0     C15177   4.197   2.035  11.243 -0.9088  0.3088  0.6899
  854MOL0     C15178   4.126   2.169  11.248 -0.6474 -0.1050  0.5632
  854MOL0     O15179   3.990   2.131  11.246  0.6073  0.0233  0.1367
  854MOL0     C15180   3.892   2.229  11.216 -0.0354  0.5712  0.2716
  854MOL0     C15181   3.909   2.358  11.158 -0.3754  0.4466 -0.2893
  854MOL0     C15182   3.800   2.442  11.131  0.0662  0.2122  0.1969
  854MOL0     C15183   3.818   2.583  11.088 -0.6561 -0.6358  0.5914
  854MOL0     C15184   3.671   2.396  11.168 -0.9964  1.1614  0.8839
  854MOL0     C15185   3.553   2.481  11.153  1.4273  0.5031 -0.1300
  854MOL0     O15186   3.462   2.463  11.256  0.2829 -0.7862  0.5043
  854MOL0     C15187   3.323   2.475  11.223  0.2056 -0.6708  0.2286
  854MOL0     C15188   3.254   2.385  11.138  0.3872  0.0558 -0.3409
  854MOL0     C15189   3.121   2.411  11.111  0.2930  0.0101 -0.8107
  854MOL0     C15190   3.052   2.507  11.183 -0.7855 -0.6344  0.2944
  854MOL0     O15191   2.919   2.510  11.147 -0.6643 -0.4998 -1.3483
  854MOL0     C15192   2.815   2.583  11.213 -0.3399  0.2421  0.3539
  854MOL0     C15193   2.688   2.569  11.137 -0.5388  0.3169  1.0963
  854MOL0     C15194   2.655   2.675  11.025  0.7817 -0.4756  0.3236
  854MOL0     C15195   2.760   2.669  10.913 -0.2966 -0.4894 -0.9199
  854MOL0     C15196   2.704   2.705  10.779  0.8575 -0.6130  0.6534
  854MOL0     C15197   2.641   2.844  10.759  0.1347 -0.4682 -0.3118
  854MOL0     C15198   2.739   2.963  10.769 -0.5857 -0.5213  0.0330
  854MOL0     C15199   2.686   3.085  10.707  0.9465 -0.5074 -0.1602
  854MOL0    Cl15200   2.686   3.080  10.530  0.2091 -0.1071  0.1307
  854MOL0     C15201   3.120   2.582  11.283  0.7177 -0.5360  0.5000
  854MOL0     C15202   3.255   2.574  11.297 -0.6242 -0.4466 -0.0891
  854MOL0     O15203   3.544   2.558  11.061  0.3525 -0.0088 -0.1699
  854MOL0     C15204   3.647   2.268  11.221 -0.8732  0.9038  0.6969
  854MOL0     C15205   3.754   2.184  11.247 -0.5263  1.1775  0.8371
  854MOL0     N15206   4.625   1.850  11.349 -0.1421  0.1857 -0.6640
  854MOL0     N15207   4.748   1.841  11.340 -0.5213  0.2667 -0.5449
  854MOL0     C15208   4.810   2.226  11.377 -0.4967  0.3873  0.0724
  854MOL0     C15209   4.681   2.256  11.411  0.4299 -0.6912  0.4730
  854MOL0     C15210   4.274   2.487  11.394 -0.2535 -0.0491  0.1038
  854MOL0     C15211   4.175   2.550  11.319  0.5762  0.5800 -0.3846
  854MOL0     C15212   4.070   2.623  11.383 -0.7550  0.3147  0.1917
  854MOL0     C15213   4.064   2.624  11.525 -0.4924 -0.4825 -0.5328
  854MOL0     O15214   3.954   2.676  11.595 -0.8455 -0.4144 -0.0899
  854MOL0     C15215   3.859   2.753  11.523 -0.6551  0.7961 -0.0517
  854MOL0     C15216   3.745   2.788  11.615  0.5410  0.0146 -0.3174
  854MOL0     C15217   3.607   2.787  11.545  0.1321 -0.5262  0.5837
  854MOL0     C15218   3.601   2.911  11.460  0.1246 -0.0436  0.0989
  854MOL0     C15219   3.462   2.922  11.411 -0.9431  1.6392  0.4396
  854MOL0     C15220   3.351   2.924  11.368 -0.8503 -0.4388  0.6219
  854MOL0     C15221   4.160   2.558  11.597 -0.4790 -0.3461 -0.4709
  854MOL0     C15222   4.266   2.494  11.527  0.6362 -0.2307  0.0424
  854MOL0     H15223   4.632   2.497  11.185 -1.8489 -1.1296  0.9100
  854MOL0     H15224   4.861   2.435  11.109  2.3970  2.5365  2.1888
  854MOL0     H15225   5.064   2.292  11.063 -1.0753  2.0870 -0.6292
  854MOL0     H15226   5.121   2.396  11.195  3.7693 -1.7330  2.4153
  854MOL0     H15227   5.300   2.279  11.101 -0.6653  2.2585  1.3644
  854MOL0     H15228   5.274   2.245  11.264 -1.9990  2.3432  0.0612
  854MOL0     H15229   5.337   2.039  11.138  0.2360 -0.7198  0.0326
  854MOL0     H15230   5.186   2.022  11.219  1.1616  0.1824  0.7208
  854MOL0     H15231   5.065   2.079  10.984  0.3317  1.5568  1.2368
  854MOL0     H15232   5.220   2.100  10.918  2.0034 -0.7308  1.2186
  854MOL0     H15233   5.138   1.866  10.869  0.8609 -1.3773 -0.0773
  854MOL0     H15234   5.279   1.853  10.968  1.2902  2.2842 -2.6267
  854MOL0     H15235   5.110   1.698  11.016  0.4413  0.8392 -0.1504
  854MOL0     H15236   5.132   1.791  11.156 -0.2434 -2.3245 -0.6234
  854MOL0     H15237   4.920   1.878  10.951  0.1789  0.5549  0.7997
  854MOL0     H15238   4.879   1.743  11.056 -0.7825  0.5989  1.0941
  854MOL0     H15239   4.928   2.021  11.144 -0.1130  0.9549  1.4859
  854MOL0     H15240   4.982   1.894  11.252  2.7603 -0.1878 -2.5666
  854MOL0     H15241   4.649   1.947  11.039 -0.1137 -0.6306 -1.0536
  854MOL0     H15242   4.411   1.866  11.106  2.1197 -0.4397 -0.3703
  854MOL0     H15243   4.384   1.825  11.268 -0.2457 -0.8576 -0.3097
  854MOL0     H15244   4.366   2.109  11.139 -2.0073  0.8592  0.4002
  854MOL0     H15245   4.385   2.097  11.316  0.7579  1.1943 -0.4749
  854MOL0     H15246   4.181   1.975  11.333  2.5432  0.5085  1.5550
  854MOL0     H15247   4.161   1.973  11.160  0.2392 -0.9676  1.1130
  854MOL0     H15248   4.153   2.230  11.160  0.5640  2.5923  2.6522
  854MOL0     H15249   4.159   2.232  11.331  0.2592  0.5322 -0.2447
  854MOL0     H15250   4.003   2.406  11.138 -0.7719  2.5183  2.2954
  854MOL0     H15251   3.923   2.608  11.102 -0.6692 -0.0923 -0.2180
  854MOL0     H15252   3.798   2.575  10.981 -0.0973 -3.6401  0.6339
  854MOL0     H15253   3.757   2.666  11.126 -2.0540 -0.9769 -0.8007
  854MOL0     H15254   3.315   2.303  11.102  0.9191  0.5586 -0.5983
  854MOL0     H15255   3.072   2.346  11.039  0.1062  1.8385 -2.4166
  854MOL0     H15256   2.799   2.541  11.313 -1.1288 -2.4730 -0.8233
  854MOL0     H15257   2.844   2.688  11.217 -2.3538  0.8986 -1.0371
  854MOL0     H15258   2.682   2.476  11.080  0.2053  0.8321  0.1454
  854MOL0     H15259   2.611   2.574  11.214  1.0309 -0.0051  2.7507
  854MOL0     H15260   2.643   2.778  11.060  0.2059 -0.4293  0.0014
  854MOL0     H15261   2.560   2.642  10.981 -0.2880  1.2731  1.2134
  854MOL0     H15262   2.832   2.742  10.951 -1.4535  1.9365 -3.0582
  854MOL0     H15263   2.804   2.568  10.910  1.4305  0.2124 -0.5045
  854MOL0     H15264   2.634   2.623  10.762 -0.5960  1.1337 -2.8219
  854MOL0     H15265   2.785   2.694  10.706  0.7689  2.0181  0.0764
  854MOL0     H15266   2.584   2.862  10.667 -0.4737  1.5074  0.4009
  854MOL0     H15267   2.565   2.850  10.837  2.6513 -4.6106  2.9340
  854MOL0     H15268   2.840   2.945  10.731  0.2823  2.7571  0.4840
  854MOL0     H15269   2.748   2.984  10.876 -2.2308 -1.1184  0.3188
  854MOL0     H15270   2.728   3.172  10.758  1.7235 -1.2982  0.5646
  854MOL0     H15271   2.582   3.093  10.740  2.1124 -1.1600  4.2471
  854MOL0     H15272   3.059   2.665  11.318  1.9775  0.5213  0.2822
  854MOL0     H15273   3.311   2.640  11.362 -0.6332 -1.2847  0.7942
  854MOL0     H15274   3.543   2.239  11.229 -1.0457  0.7896 -1.4683
  854MOL0     H15275   3.732   2.087  11.291 -1.7550  1.5837  1.1749
  854MOL0     H15276   4.865   2.147  11.428 -1.9571  0.3607  1.6916
  854MOL0     H15277   4.623   2.207  11.488  0.8522 -1.0981  0.5319
  854MOL0     H15278   4.190   2.548  11.212  0.3148 -0.7581 -0.4192
  854MOL0     H15279   4.008   2.673  11.309 -0.5073  0.4914  0.0997
  854MOL0     H15280   3.891   2.843  11.470 -1.6419  0.0746 -1.9761
  854MOL0     H15281   3.830   2.700  11.432  0.9301  1.6520 -1.0956
  854MOL0     H15282   3.763   2.887  11.657 -1.9988 -0.3058  1.7548
  854MOL0     H15283   3.750   2.712  11.694  1.6820  0.8053  0.3921
  854MOL0     H15284   3.530   2.798  11.621 -2.4625 -2.6384 -1.5386
  854MOL0     H15285   3.603   2.695  11.485  2.0340 -0.2751 -0.0080
  854MOL0     H15286   3.682   2.911  11.387  0.4942 -0.1163  0.5014
  854MOL0     H15287   3.612   3.000  11.522  1.7654  0.8547 -1.4120
  854MOL0     H15288   3.254   2.943  11.326 -0.3336  1.0042  0.0273
  854MOL0     H15289   4.168   2.562  11.706 -0.0081  0.0199 -0.5161
  854MOL0     H15290   4.352   2.457  11.582  1.7611  3.9731  1.5462
  855MOL0     O15291   2.077   3.939   2.029  0.6237 -1.1720  0.1988
  855MOL0     C15292   2.162   3.966   1.937 -0.3226 -0.7440  0.5429
  855MOL0     O15293   2.262   4.052   1.956 -0.2793 -0.6139 -0.4387
  855MOL0     C15294   2.282   4.124   2.073  0.5685 -0.5027  0.9338
  855MOL0     C15295   2.277   4.077   2.204 -0.5963  0.8548 -0.0843
  855MOL0     C15296   2.293   4.152   2.321  0.2346  0.1887  0.7721
  855MOL0     C15297   2.303   4.291   2.306 -0.3866 -0.1132  1.1047
  855MOL0     O15298   2.345   4.347   2.421  1.0170  0.1208 -0.6319
  855MOL0     C15299   2.394   4.477   2.426  0.1174  0.2837 -0.8391
  855MOL0     C15300   2.400   4.498   2.581  0.1163 -0.5005  0.9222
  855MOL0     C15301   2.454   4.634   2.618  0.7921 -0.7541  0.0936
  855MOL0     C15302   2.347   4.745   2.609  0.3269 -0.4092 -0.0983
  855MOL0     C15303   2.399   4.891   2.630  0.5290 -0.4106  0.1092
  855MOL0     C15304   2.451   4.908   2.777  0.2368  0.3746 -0.4458
  855MOL0     C15305   2.346   4.885   2.894 -0.3286 -0.6797 -0.8252
  855MOL0     C15306   2.425   4.894   3.029  0.3343 -0.5018 -0.9462
  855MOL0     N15307   2.506   4.788   3.072 -0.4405 -0.1749 -0.0422
  855MOL0     C15308   2.648   4.787   3.057  0.5090 -0.1242  0.3551
  855MOL0     C15309   2.674   4.656   3.060 -0.4818  0.5622  0.7327
  855MOL0     C15310   2.803   4.592   3.054 -0.1258  0.7478  1.1363
  855MOL0     C15311   2.878   4.623   3.181  1.0054 -0.1273  0.1882
  855MOL0     C15312   2.781   4.605   3.306  0.0505 -0.1165  0.6895
  855MOL0     C15313   2.851   4.610   3.443 -0.6842  0.2916  0.4573
  855MOL0     O15314   2.949   4.503   3.453 -0.0443 -0.1641  0.1051
  855MOL0     C15315   3.083   4.523   3.428 -0.4954  0.0338  0.5816
  855MOL0     C15316   3.150   4.647   3.408  0.2378  0.1173  0.1784
  855MOL0     C15317   3.286   4.657   3.366 -0.0865 -0.7421  0.4797
  855MOL0     C15318   3.349   4.798   3.348 -0.1747 -0.5089 -0.0664
  855MOL0     C15319   3.365   4.544   3.332  0.0098  0.8222  0.6033
  855MOL0     C15320   3.507   4.553   3.284 -0.2394 -0.3571  0.5608
  855MOL0     O15321   3.599   4.481   3.354  0.7403 -0.0358 -0.1231
  855MOL0     C15322   3.731   4.510   3.327 -0.3920  0.0425  0.8269
  855MOL0     C15323   3.804   4.573   3.423 -0.8712 -0.7601  0.0893
  855MOL0     C15324   3.945   4.591   3.398  0.1131 -0.1903  0.2894
  855MOL0     C15325   4.007   4.545   3.286  0.8794 -0.1089  0.5849
  855MOL0     O15326   4.136   4.570   3.274  0.2943 -0.4981 -0.5796
  855MOL0     C15327   4.217   4.464   3.230  0.2458  0.2336  0.3497
  855MOL0     C15328   4.369   4.483   3.265  0.6096  0.9408 -0.3609
  855MOL0     C15329   4.372   4.481   3.417  0.2810 -0.2895 -1.5119
  855MOL0     C15330   4.504   4.493   3.495 -0.6724  0.2159  0.2724
  855MOL0     C15331   4.468   4.524   3.648  0.8326  1.2686 -0.3095
  855MOL0     C15332   4.590   4.565   3.745  0.2264  0.4851 -0.2191
  855MOL0     C15333   4.713   4.468   3.740 -0.9976 -0.5281 -0.1922
  855MOL0     C15334   4.823   4.539   3.825 -0.0653 -1.8167  0.4363
  855MOL0    Cl15335   4.882   4.688   3.729 -0.1933 -0.1895 -0.4172
  855MOL0     C15336   3.935   4.471   3.192 -0.2431  0.4732 -0.2023
  855MOL0     C15337   3.801   4.449   3.214  0.6326 -0.8702  0.6125
  855MOL0     O15338   3.537   4.634   3.192 -0.4503 -0.3162 -0.0906
  855MOL0     C15339   3.301   4.423   3.362  0.4864 -0.5093  0.4217
  855MOL0     C15340   3.166   4.409   3.405  0.3141  0.5331  0.3794
  855MOL0     N15341   2.558   4.581   3.074 -0.8559  1.2482 -0.1586
  855MOL0     N15342   2.462   4.662   3.081 -0.2327  0.1180  0.5805
  855MOL0     C15343   2.300   4.342   2.176 -0.3442 -0.5618 -0.5189
  855MOL0     C15344   2.291   4.265   2.058  0.7388  0.3172 -0.2463
  855MOL0     C15345   2.149   3.880   1.816 -0.2381 -0.8720 -0.2572
  855MOL0     C15346   2.234   3.890   1.711 -0.1717 -0.6423 -0.1243
  855MOL0     C15347   2.237   3.815   1.588  0.0689 -0.7146  0.1035
  855MOL0     C15348   2.131   3.731   1.563  0.1882 -0.9508 -1.2640
  855MOL0     O15349   2.112   3.687   1.433 -0.4481  0.1471  0.0798
  855MOL0     C15350   1.994   3.614   1.416 -0.0432 -0.8675  0.2773
  855MOL0     C15351   1.977   3.551   1.282 -0.5416  0.1230 -0.5464
  855MOL0     C15352   1.843   3.475   1.258 -0.3230 -1.0024 -0.7954
  855MOL0     C15353   1.806   3.475   1.112  0.6361  0.6832  1.1782
  855MOL0     C15354   1.913   3.432   1.024 -1.0827  0.6158  0.3724
  855MOL0     C15355   2.002   3.407   0.945 -0.8334  0.0135 -0.3474
  855MOL0     C15356   2.041   3.712   1.674  0.0019 -0.0373  0.3558
  855MOL0     C15357   2.060   3.777   1.799 -0.3164  0.7780 -1.1876
  855MOL0     H15358   2.258   3.972   2.228 -2.2313  1.7556  3.0986
  855MOL0     H15359   2.294   4.094   2.413  0.0080 -2.1034 -0.6059
  855MOL0     H15360   2.494   4.479   2.381  0.8405 -1.6197  0.5441
  855MOL0     H15361   2.328   4.549   2.377 -0.5542  0.7814  0.7449
  855MOL0     H15362   2.314   4.464   2.639  1.1223 -1.3235  1.9654
  855MOL0     H15363   2.480   4.430   2.610 -0.4411 -1.5687  0.0288
  855MOL0     H15364   2.494   4.637   2.720 -0.8932 -0.5010  0.7699
  855MOL0     H15365   2.540   4.666   2.560  1.0384  2.3619  1.9653
  855MOL0     H15366   2.302   4.742   2.509  1.6443  1.6852 -0.8286
  855MOL0     H15367   2.263   4.725   2.677  1.1470  2.2079  1.8495
  855MOL0     H15368   2.475   4.917   2.557 -0.3017 -0.1013 -0.6697
  855MOL0     H15369   2.324   4.968   2.608  2.5839  1.9324  0.8465
  855MOL0     H15370   2.540   4.846   2.787  1.0105  1.7111  1.5278
  855MOL0     H15371   2.490   5.009   2.796 -0.7559  0.4579  1.3508
  855MOL0     H15372   2.260   4.953   2.901 -1.3644 -2.1129  3.1660
  855MOL0     H15373   2.293   4.790   2.884 -3.0384  0.7128 -0.9019
  855MOL0     H15374   2.351   4.913   3.108 -2.4279  0.0285 -3.4794
  855MOL0     H15375   2.479   4.988   3.017  1.5957 -0.6948  2.2015
  855MOL0     H15376   2.711   4.871   3.031  0.1704 -0.2654 -0.9915
  855MOL0     H15377   2.797   4.483   3.046 -0.1849  0.8156  0.2120
  855MOL0     H15378   2.863   4.624   2.969 -0.7022 -0.7039  0.1511
  855MOL0     H15379   2.916   4.726   3.178 -0.5391  0.4692 -3.3986
  855MOL0     H15380   2.963   4.555   3.196 -0.9673 -2.9253 -0.5762
  855MOL0     H15381   2.734   4.506   3.307 -1.1166  0.4172  0.6354
  855MOL0     H15382   2.702   4.681   3.305  0.3742  0.2172  0.2602
  855MOL0     H15383   2.791   4.596   3.534  0.5664 -0.0706  1.2562
  855MOL0     H15384   2.896   4.710   3.453 -1.4424  0.9570 -2.0843
  855MOL0     H15385   3.097   4.738   3.435  0.1600 -0.5267  2.3894
  855MOL0     H15386   3.331   4.847   3.252 -1.0427 -2.2691 -0.8498
  855MOL0     H15387   3.323   4.863   3.432 -0.9329  0.2538 -0.8530
  855MOL0     H15388   3.458   4.791   3.351  0.0212  1.3270 -1.3341
  855MOL0     H15389   3.754   4.610   3.511  1.4375  0.6390  0.9152
  855MOL0     H15390   4.011   4.651   3.460 -1.5358  1.0815  0.9223
  855MOL0     H15391   4.181   4.369   3.273 -1.2381  0.4483 -0.3476
  855MOL0     H15392   4.209   4.452   3.122  0.9500 -0.6356  0.3833
  855MOL0     H15393   4.413   4.392   3.223 -0.3784  0.3196 -0.1021
  855MOL0     H15394   4.412   4.577   3.232  2.1540  0.4864  0.3050
  855MOL0     H15395   4.314   4.396   3.454  1.2844  0.4278  2.0982
  855MOL0     H15396   4.307   4.562   3.452 -0.6105 -1.9411  0.9417
  855MOL0     H15397   4.564   4.402   3.484  1.4803  1.7116 -1.4110
  855MOL0     H15398   4.561   4.575   3.450 -0.2322 -0.5112 -0.5360
  855MOL0     H15399   4.436   4.429   3.690  2.1965 -0.3266 -2.6519
  855MOL0     H15400   4.398   4.606   3.664  3.4671  3.5215  0.5869
  855MOL0     H15401   4.616   4.668   3.716 -1.3035  0.5602 -1.4559
  855MOL0     H15402   4.557   4.562   3.849 -1.4639 -0.0490 -0.7368
  855MOL0     H15403   4.748   4.442   3.640  3.4003 -3.6392  1.8149
  855MOL0     H15404   4.689   4.372   3.788  0.1588 -0.9011 -0.3348
  855MOL0     H15405   4.912   4.477   3.838  1.0413 -0.1521  1.1588
  855MOL0     H15406   4.771   4.566   3.918 -3.0193  1.2743 -1.8581
  855MOL0     H15407   3.979   4.412   3.113  2.1427  0.1186  1.2796
  855MOL0     H15408   3.735   4.399   3.143  2.2259  1.3892 -2.7481
  855MOL0     H15409   3.366   4.337   3.350  2.5817  0.8048  1.6293
  855MOL0     H15410   3.144   4.304   3.417 -1.0710  0.4576 -2.0286
  855MOL0     H15411   2.316   4.446   2.152  0.9982 -1.4333 -4.0654
  855MOL0     H15412   2.270   4.316   1.965 -0.0340  0.0813 -0.2056
  855MOL0     H15413   2.312   3.966   1.707  2.4749 -3.2174 -3.4063
  855MOL0     H15414   2.319   3.830   1.519  0.2589  2.6042  0.8792
  855MOL0     H15415   1.994   3.526   1.481  0.6617 -0.1396  1.2834
  855MOL0     H15416   1.912   3.686   1.420 -1.9156 -2.7752 -1.3641
  855MOL0     H15417   2.064   3.488   1.261 -0.5772 -1.0691  2.4062
  855MOL0     H15418   1.992   3.630   1.207 -1.3939  2.3253  1.4790
  855MOL0     H15419   1.769   3.524   1.323 -1.7466 -1.2200 -2.1897
  855MOL0     H15420   1.858   3.370   1.284 -0.6047 -1.3633 -2.0126
  855MOL0     H15421   1.762   3.570   1.082 -2.0801  0.5293  4.0943
  855MOL0     H15422   1.730   3.398   1.097  1.4652 -0.1900  1.3395
  855MOL0     H15423   2.087   3.388   0.882 -0.3876 -2.8515  0.9469
  855MOL0     H15424   1.958   3.643   1.663  1.8154 -2.1496 -1.0736
  855MOL0     H15425   1.995   3.751   1.883 -0.5293  1.3681 -1.1593
  856MOL0     O15426   3.640   7.483   3.975 -0.1289 -0.6066 -0.3413
  856MOL0     C15427   3.690   7.403   3.897  0.4355  0.1599  0.2235
  856MOL0     O15428   3.669   7.268   3.893  0.6999  0.1703  0.6293
  856MOL0     C15429   3.563   7.212   3.958  0.8250 -0.0902 -0.4464
  856MOL0     C15430   3.442   7.279   3.971 -0.3093 -0.2068  0.4995
  856MOL0     C15431   3.339   7.235   4.056 -0.3077  0.0287 -0.4229
  856MOL0     C15432   3.362   7.119   4.126 -0.2374 -0.5544 -0.3407
  856MOL0     O15433   3.253   7.065   4.194 -0.9804 -0.0388 -0.9335
  856MOL0     C15434   3.281   6.959   4.294  0.7882  0.0526 -0.1093
  856MOL0     C15435   3.145   6.927   4.361 -0.8648  0.6192  0.0765
  856MOL0     C15436   3.035   6.870   4.276  0.1098 -0.0888  0.5658
  856MOL0     C15437   2.924   6.807   4.368 -0.6978  0.3533  0.2311
  856MOL0     C15438   2.827   6.713   4.297  0.2946 -0.3527  0.5779
  856MOL0     C15439   2.708   6.655   4.388 -0.3127 -1.2293  0.1557
  856MOL0     C15440   2.620   6.567   4.305 -0.8770 -0.7913  0.1714
  856MOL0     C15441   2.522   6.470   4.384  0.0447  0.8513  0.1658
  856MOL0     N15442   2.460   6.522   4.509  0.7376  0.6367  0.7811
  856MOL0     C15443   2.363   6.615   4.507 -0.6465 -0.0994  0.9467
  856MOL0     C15444   2.344   6.640   4.638 -0.3660  0.3638  0.1388
  856MOL0     C15445   2.240   6.746   4.685 -0.4962 -0.5040  0.8305
  856MOL0     C15446   2.195   6.727   4.829 -0.1035  0.7300  0.9342
  856MOL0     C15447   2.278   6.811   4.923  0.3299  0.0106  0.1945
  856MOL0     C15448   2.234   6.814   5.076  0.5357  0.1816 -0.2178
  856MOL0     O15449   2.240   6.678   5.110 -0.4499 -1.0051 -0.5651
  856MOL0     C15450   2.215   6.637   5.237 -0.1663  0.3987 -0.0846
  856MOL0     C15451   2.263   6.511   5.269  0.5759 -0.1532 -0.0691
  856MOL0     C15452   2.242   6.442   5.387 -0.3546 -0.4256 -0.0751
  856MOL0     C15453   2.299   6.305   5.404  0.3342 -0.1591  0.1480
  856MOL0     C15454   2.162   6.512   5.479  0.1472  1.2310  0.6831
  856MOL0     C15455   2.130   6.457   5.612 -0.6157 -0.0769  0.0907
  856MOL0     O15456   2.018   6.511   5.677  0.0404  0.9902  0.6384
  856MOL0     C15457   1.980   6.460   5.803  0.4335 -0.3771 -0.1547
  856MOL0     C15458   2.076   6.456   5.911  1.0341 -0.4051  0.0263
  856MOL0     C15459   2.034   6.402   6.034  0.3620  0.3872  0.3170
  856MOL0     C15460   1.899   6.354   6.057 -0.1037  0.3677 -0.0625
  856MOL0     O15461   1.866   6.297   6.177  0.6341 -0.4865 -0.2243
  856MOL0     C15462   1.732   6.288   6.228  0.6826 -0.4679  1.2593
  856MOL0     C15463   1.734   6.238   6.363  0.0952 -0.3193 -0.8259
  856MOL0     C15464   1.806   6.106   6.378  0.1899  0.2558  0.2674
  856MOL0     C15465   1.726   5.992   6.315  0.4974 -0.7262 -0.1547
  856MOL0     C15466   1.777   5.857   6.358  0.4738  0.4529  0.0712
  856MOL0     C15467   1.727   5.745   6.261 -0.4231  0.9672 -0.5874
  856MOL0     C15468   1.799   5.612   6.285 -0.6454  0.3144 -0.2641
  856MOL0     C15469   1.752   5.545   6.418 -0.2112 -0.3901 -0.4553
  856MOL0    Cl15470   1.611   5.442   6.394 -0.5995 -0.2220  0.6817
  856MOL0     C15471   1.805   6.372   5.952 -0.6038  0.5758 -0.3607
  856MOL0     C15472   1.848   6.431   5.827  0.1967  0.4992 -0.4673
  856MOL0     O15473   2.209   6.374   5.660 -0.5965 -0.0946 -0.1500
  856MOL0     C15474   2.101   6.635   5.439  0.6748 -0.3661 -0.0112
  856MOL0     C15475   2.134   6.702   5.328  0.6296  0.8879  0.6242
  856MOL0     N15476   2.437   6.567   4.710 -0.1393  0.1361  0.0537
  856MOL0     N15477   2.500   6.493   4.629  0.5961 -0.4052 -0.2372
  856MOL0     C15478   3.484   7.049   4.123 -0.1461 -0.0674  0.1193
  856MOL0     C15479   3.571   7.090   4.034 -0.1279 -0.8616  0.7276
  856MOL0     C15480   3.780   7.458   3.798  0.3107 -0.0038  0.1991
  856MOL0     C15481   3.816   7.381   3.678  0.1886  0.3090  0.1243
  856MOL0     C15482   3.896   7.445   3.582  1.4928  0.6875  0.2916
  856MOL0     C15483   3.938   7.578   3.589 -0.4114  0.3472 -0.4734
  856MOL0     O15484   4.011   7.643   3.490  0.3738  0.7568  0.5863
  856MOL0     C15485   4.120   7.584   3.421  0.2453  0.3556 -0.6261
  856MOL0     C15486   4.108   7.610   3.271 -0.0038 -0.0546  0.2246
  856MOL0     C15487   4.219   7.548   3.182 -0.4586  0.0354  0.6440
  856MOL0     C15488   4.198   7.609   3.048 -1.1940  0.4744  1.5503
  856MOL0     C15489   4.260   7.523   2.949 -0.1572  0.5787  1.0191
  856MOL0     C15490   4.315   7.443   2.877 -0.0112 -0.6795  0.0310
  856MOL0     C15491   3.886   7.659   3.700  0.0749 -0.2616  0.0195
  856MOL0     C15492   3.818   7.595   3.803 -0.5090  0.4004  0.0315
  856MOL0     H15493   3.419   7.369   3.915  0.9085 -0.8094 -1.0544
  856MOL0     H15494   3.243   7.286   4.065  0.4170  1.3267  0.2760
  856MOL0     H15495   3.301   6.858   4.257 -1.5161 -0.1385 -0.9479
  856MOL0     H15496   3.355   6.994   4.367 -0.2299  3.4821 -0.5182
  856MOL0     H15497   3.158   6.866   4.451  2.5308  3.6055  1.8703
  856MOL0     H15498   3.107   7.022   4.397  3.3935  3.1854 -1.4216
  856MOL0     H15499   2.989   6.951   4.219  1.9188  0.2865 -0.4438
  856MOL0     H15500   3.068   6.794   4.204  1.5638  0.3391  0.7530
  856MOL0     H15501   2.962   6.742   4.447 -2.7874 -1.2443  0.0024
  856MOL0     H15502   2.854   6.880   4.409 -2.3580 -1.2001  0.2412
  856MOL0     H15503   2.780   6.777   4.222 -3.8496  0.7356  3.7410
  856MOL0     H15504   2.897   6.640   4.254 -1.2243  0.2910 -3.4790
  856MOL0     H15505   2.764   6.601   4.466  1.1372  1.0080  0.7630
  856MOL0     H15506   2.648   6.730   4.440 -0.1915 -1.1785  0.2231
  856MOL0     H15507   2.559   6.629   4.239  4.2130  1.7374 -2.7843
  856MOL0     H15508   2.682   6.508   4.236 -0.5351 -2.1636  1.5880
  856MOL0     H15509   2.581   6.381   4.406  1.5448  1.4026 -1.4129
  856MOL0     H15510   2.443   6.446   4.312  0.7050  0.6082 -0.4984
  856MOL0     H15511   2.306   6.643   4.418 -0.3120  0.6874  0.9696
  856MOL0     H15512   2.288   6.842   4.666  2.7272 -1.9075  1.1281
  856MOL0     H15513   2.150   6.737   4.624 -1.4207  1.9443  1.7369
  856MOL0     H15514   2.213   6.623   4.857  1.9847  1.6159  3.1832
  856MOL0     H15515   2.087   6.743   4.837 -0.2927 -0.0850  0.1987
  856MOL0     H15516   2.274   6.917   4.894  2.8208  0.0991 -0.1055
  856MOL0     H15517   2.384   6.783   4.920  0.2663 -0.3627  1.1145
  856MOL0     H15518   2.136   6.858   5.099  0.6150 -0.6456  1.9374
  856MOL0     H15519   2.302   6.870   5.140 -1.8156  2.0670  0.8001
  856MOL0     H15520   2.313   6.472   5.180 -0.6638 -0.3506 -0.7065
  856MOL0     H15521   2.335   6.261   5.310 -0.4411 -1.8105  0.6042
  856MOL0     H15522   2.393   6.310   5.461  0.1948 -2.1653  0.6012
  856MOL0     H15523   2.237   6.223   5.439  2.3658 -2.5456 -1.4887
  856MOL0     H15524   2.177   6.491   5.894  1.3740 -2.7776 -4.0758
  856MOL0     H15525   2.108   6.388   6.112  3.1070  0.8483 -2.0311
  856MOL0     H15526   1.680   6.384   6.220 -0.5876 -1.2686 -1.7994
  856MOL0     H15527   1.680   6.214   6.166 -0.3250  0.9327  0.3840
  856MOL0     H15528   1.781   6.316   6.423 -3.1242  1.5991 -0.5350
  856MOL0     H15529   1.635   6.221   6.407  0.8180 -0.1988  0.9497
  856MOL0     H15530   1.830   6.080   6.482  2.7848 -1.9172 -0.7399
  856MOL0     H15531   1.903   6.119   6.328 -0.6310 -3.0727 -2.5727
  856MOL0     H15532   1.624   5.995   6.354  0.1920 -5.1493 -0.0190
  856MOL0     H15533   1.734   5.997   6.206  1.0163  3.7629 -0.0614
  856MOL0     H15534   1.750   5.841   6.463  4.0343  0.2399  1.0561
  856MOL0     H15535   1.885   5.867   6.351  0.2880  2.1171 -0.9159
  856MOL0     H15536   1.618   5.746   6.277 -0.4534  0.5240 -0.7443
  856MOL0     H15537   1.739   5.781   6.158  0.8019  0.4594 -0.6355
  856MOL0     H15538   1.906   5.634   6.296 -0.6970  0.8024 -0.7012
  856MOL0     H15539   1.783   5.540   6.205  1.1299 -0.3165 -0.1053
  856MOL0     H15540   1.733   5.628   6.488  0.8194 -3.1967  3.5298
  856MOL0     H15541   1.829   5.483   6.465 -0.5806  0.2272  1.0338
  856MOL0     H15542   1.701   6.341   5.961  0.4311 -3.1937  0.1526
  856MOL0     H15543   1.771   6.454   5.754 -0.0092  0.3578 -0.2932
  856MOL0     H15544   2.029   6.688   5.500 -0.8161  0.9715 -2.7736
  856MOL0     H15545   2.093   6.801   5.310  0.5173  1.0368  1.6746
  856MOL0     H15546   3.480   6.957   4.181 -7.3352 -0.7110 -0.4917
  856MOL0     H15547   3.665   7.039   4.013 -0.5979 -1.1230 -0.9380
  856MOL0     H15548   3.787   7.277   3.667  1.3869  0.1057 -1.5328
  856MOL0     H15549   3.919   7.383   3.496  0.9679  1.4688 -0.4401
  856MOL0     H15550   4.217   7.618   3.458  0.5849 -2.5026  1.4497
  856MOL0     H15551   4.117   7.476   3.436 -4.8294  0.5239  1.6085
  856MOL0     H15552   4.106   7.716   3.244 -2.5083 -0.6228 -2.2315
  856MOL0     H15553   4.014   7.569   3.232  0.4758  0.0316 -1.0493
  856MOL0     H15554   4.216   7.439   3.177  0.7499  0.0476 -1.6897
  856MOL0     H15555   4.320   7.567   3.220  0.1627 -0.8290 -0.5311
  856MOL0     H15556   4.269   7.692   3.039  1.2055 -1.3276  2.7559
  856MOL0     H15557   4.093   7.628   3.022 -1.7573  0.8253  3.8460
  856MOL0     H15558   4.383   7.378   2.825 -0.4024  1.6533 -3.8177
  856MOL0     H15559   3.897   7.767   3.701  0.0726 -0.1018 -3.4631
  856MOL0     H15560   3.787   7.646   3.893 -1.6672 -1.2948  0.6623
  857MOL0     O15561   4.040   0.067   8.129 -0.4645 -0.5467  0.4608
  857MOL0     C15562   4.088   0.018   8.227 -0.4089  0.7227  0.4992
  857MOL0     O15563   4.138  -0.111   8.231 -0.4817 -0.1173 -0.2380
  857MOL0     C15564   4.137  -0.200   8.118 -1.1486  0.4844 -0.3390
  857MOL0     C15565   4.250  -0.241   8.043  0.2766 -0.2069  0.1436
  857MOL0     C15566   4.228  -0.306   7.922 -1.6235 -0.6739 -0.4179
  857MOL0     C15567   4.099  -0.339   7.881 -0.8725  0.4711 -0.3374
  857MOL0     O15568   4.090  -0.402   7.763  0.5448 -0.2788  0.6656
  857MOL0     C15569   3.966  -0.396   7.685  0.1975  0.5144  0.8010
  857MOL0     C15570   3.900  -0.538   7.686  1.0902 -0.7447  0.4713
  857MOL0     C15571   3.809  -0.562   7.570 -0.3281 -0.0841 -0.2740
  857MOL0     C15572   3.878  -0.620   7.457 -0.1143  0.4812  0.7084
  857MOL0     C15573   3.769  -0.683   7.370 -0.3753  0.0785 -0.1439
  857MOL0     C15574   3.690  -0.564   7.298 -0.0092  0.4847 -0.0464
  857MOL0     C15575   3.631  -0.612   7.166  0.5181 -0.1318 -0.5375
  857MOL0     C15576   3.543  -0.507   7.100 -0.4785  0.0645  0.5223
  857MOL0     N15577   3.426  -0.472   7.188  0.6899 -0.0084  0.2336
  857MOL0     C15578   3.408  -0.380   7.289  0.2066  0.2748  0.1772
  857MOL0     C15579   3.274  -0.393   7.314 -0.0640 -0.7058 -0.4335
  857MOL0     C15580   3.215  -0.336   7.446 -0.2154 -1.0191 -0.3404
  857MOL0     C15581   3.246  -0.436   7.557 -0.0291 -0.3889  0.5325
  857MOL0     C15582   3.272  -0.366   7.692 -0.4324  0.8641 -0.0606
  857MOL0     C15583   3.269  -0.461   7.810  0.3681  0.1411  0.3787
  857MOL0     O15584   3.142  -0.518   7.817 -0.1741 -0.0137  0.6465
  857MOL0     C15585   3.091  -0.549   7.939 -0.2315  0.1466 -0.8147
  857MOL0     C15586   3.079  -0.676   7.979  0.0660  0.2641 -0.7778
  857MOL0     C15587   3.050  -0.714   8.113  0.1052 -0.5424  0.6640
  857MOL0     C15588   3.048  -0.857   8.147 -0.1300  0.0711  0.5988
  857MOL0     C15589   3.023  -0.610   8.208  0.7583  0.2144 -0.0486
  857MOL0     C15590   2.981  -0.631   8.352 -0.1288  0.7690 -0.1951
  857MOL0     O15591   2.967  -0.523   8.430  0.0206  0.6252  0.2888
  857MOL0     C15592   2.920  -0.546   8.551  0.0079 -0.8343 -0.2045
  857MOL0     C15593   3.004  -0.585   8.656 -0.0395 -0.2928 -0.7890
  857MOL0     C15594   2.964  -0.602   8.785  0.5758 -0.2281 -0.1248
  857MOL0     C15595   2.826  -0.583   8.822 -0.2851 -0.4458  0.8588
  857MOL0     O15596   2.787  -0.593   8.952 -0.9889  0.2711  0.3182
  857MOL0     C15597   2.650  -0.626   8.976 -0.1991 -0.2964 -0.1527
  857MOL0     C15598   2.633  -0.655   9.123 -0.3153 -0.0079  0.4702
  857MOL0     C15599   2.658  -0.536   9.224 -0.7214 -0.0688  0.4820
  857MOL0     C15600   2.812  -0.510   9.257 -0.4495  0.5495  0.1679
  857MOL0     C15601   2.882  -0.633   9.327  0.2355  0.0821  0.3321
  857MOL0     C15602   3.011  -0.590   9.385  0.6696  1.0144 -0.2719
  857MOL0     C15603   3.095  -0.697   9.466 -0.2444 -0.1790  0.4364
  857MOL0     C15604   3.087  -0.833   9.406  0.8968  0.0626  0.0190
  857MOL0    Cl15605   3.167  -0.971   9.491  0.3673  0.1542 -0.6007
  857MOL0     C15606   2.739  -0.548   8.711  0.1806 -0.2264  0.2579
  857MOL0     C15607   2.788  -0.536   8.581  0.2918  0.5086  0.5465
  857MOL0     O15608   2.976  -0.748   8.394 -0.6776 -0.1718  0.5197
  857MOL0     C15609   3.027  -0.480   8.164  0.5735 -0.4011  0.3853
  857MOL0     C15610   3.067  -0.442   8.030  0.1065 -0.7467  0.1285
  857MOL0     N15611   3.208  -0.463   7.219  1.0619  0.2880  0.0680
  857MOL0     N15612   3.301  -0.507   7.150  0.0458  0.4155  0.6389
  857MOL0     C15613   3.995  -0.318   7.967  0.2028 -0.5020  0.5806
  857MOL0     C15614   4.013  -0.252   8.084 -0.8877 -0.4225 -0.2720
  857MOL0     C15615   4.117   0.104   8.342 -0.3874  0.1381  0.5655
  857MOL0     C15616   4.090   0.239   8.334  0.1050 -0.2724 -0.0484
  857MOL0     C15617   4.141   0.320   8.439 -0.0865 -0.0138 -0.7415
  857MOL0     C15618   4.198   0.269   8.560 -0.1899 -0.0396 -0.6474
  857MOL0     O15619   4.234   0.361   8.660 -0.8225  0.4008 -0.1716
  857MOL0     C15620   4.262   0.308   8.789 -0.5356  0.1120 -0.5473
  857MOL0     C15621   4.252   0.417   8.906 -0.1147 -0.2245 -1.0577
  857MOL0     C15622   4.257   0.366   9.056  0.5219 -0.3377  1.1666
  857MOL0     C15623   4.234   0.489   9.151 -0.1614 -0.2001 -0.4405
  857MOL0     C15624   4.247   0.439   9.290 -0.5231  0.0549 -0.8510
  857MOL0     C15625   4.254   0.389   9.392 -0.6275 -0.9230  0.0053
  857MOL0     C15626   4.203   0.125   8.574  0.3549 -0.6280  0.5045
  857MOL0     C15627   4.173   0.047   8.462  0.3071 -0.3911 -0.3036
  857MOL0     H15628   4.351  -0.227   8.079  1.0007  0.9991 -2.1249
  857MOL0     H15629   4.317  -0.339   7.871 -1.6844 -0.1548 -0.8608
  857MOL0     H15630   3.899  -0.315   7.717  1.4061  1.7350  0.3744
  857MOL0     H15631   3.981  -0.369   7.580 -3.4129 -1.8017 -0.4861
  857MOL0     H15632   3.975  -0.616   7.702  0.7313 -1.4266 -1.0006
  857MOL0     H15633   3.832  -0.536   7.772  1.1410  0.8351  0.5177
  857MOL0     H15634   3.745  -0.637   7.616  0.7215 -0.9790 -0.2220
  857MOL0     H15635   3.749  -0.473   7.552 -0.1552 -0.2093 -1.6402
  857MOL0     H15636   3.930  -0.552   7.389 -1.2924 -0.0272 -0.7652
  857MOL0     H15637   3.952  -0.690   7.497  1.2234  1.4540  0.0309
  857MOL0     H15638   3.797  -0.753   7.291 -1.1755  1.0671 -1.3413
  857MOL0     H15639   3.697  -0.742   7.428 -1.3748  0.9343 -0.4945
  857MOL0     H15640   3.619  -0.533   7.374  0.6873  0.7979  0.4857
  857MOL0     H15641   3.754  -0.478   7.275  4.0526 -2.3043 -0.3000
  857MOL0     H15642   3.712  -0.641   7.098 -1.0517 -1.8667 -1.7591
  857MOL0     H15643   3.568  -0.699   7.185 -2.6114  1.6861 -1.8251
  857MOL0     H15644   3.504  -0.538   7.002 -3.2032 -0.1229  1.5650
  857MOL0     H15645   3.595  -0.412   7.083 -3.2647  1.3596 -1.6725
  857MOL0     H15646   3.476  -0.322   7.351 -2.8343 -0.0910  4.2942
  857MOL0     H15647   3.251  -0.239   7.480 -0.4539 -0.6617 -1.0834
  857MOL0     H15648   3.107  -0.330   7.432 -0.0516  0.6063 -1.2020
  857MOL0     H15649   3.331  -0.501   7.534 -0.1129 -1.3670  2.7027
  857MOL0     H15650   3.156  -0.497   7.549 -2.0121  2.5912 -2.2175
  857MOL0     H15651   3.197  -0.287   7.695 -1.3894 -0.0418  0.8917
  857MOL0     H15652   3.371  -0.325   7.674 -1.4217  1.8869 -4.0814
  857MOL0     H15653   3.282  -0.399   7.899  1.2448  1.8602 -0.8717
  857MOL0     H15654   3.351  -0.533   7.802  1.7905  1.8161 -1.6935
  857MOL0     H15655   3.105  -0.754   7.909 -4.1200 -2.9160  0.7995
  857MOL0     H15656   3.111  -0.888   8.231  2.6506 -1.3765 -1.8303
  857MOL0     H15657   2.944  -0.885   8.163 -0.4158 -1.8924 -3.4447
  857MOL0     H15658   3.072  -0.920   8.061 -0.8957 -0.4922  0.7910
  857MOL0     H15659   3.104  -0.616   8.628 -0.7068 -2.4723 -0.9889
  857MOL0     H15660   3.034  -0.635   8.860 -0.7132 -0.0745  1.1985
  857MOL0     H15661   2.582  -0.546   8.945 -2.0934 -1.5705  0.4761
  857MOL0     H15662   2.623  -0.716   8.920  1.7861 -2.9942  2.9002
  857MOL0     H15663   2.527  -0.682   9.129  0.1138 -2.1998 -0.9389
  857MOL0     H15664   2.701  -0.740   9.134  1.4017  0.8565 -2.4285
  857MOL0     H15665   2.601  -0.555   9.316  0.8733 -1.9713  1.1583
  857MOL0     H15666   2.607  -0.445   9.191 -2.4349  1.4764  6.1776
  857MOL0     H15667   2.871  -0.494   9.166  1.7196 -2.4574  0.8542
  857MOL0     H15668   2.815  -0.429   9.331 -2.6384  1.6769 -0.9051
  857MOL0     H15669   2.901  -0.701   9.244  0.3029 -0.4703  0.7915
  857MOL0     H15670   2.824  -0.681   9.407  2.2875  0.1417  1.9403
  857MOL0     H15671   3.073  -0.540   9.309  0.1208  0.3690 -1.1595
  857MOL0     H15672   2.981  -0.516   9.460 -0.2930  0.2504  0.1127
  857MOL0     H15673   3.051  -0.715   9.565 -2.3114  1.8541 -0.0319
  857MOL0     H15674   3.199  -0.668   9.483  0.0137 -1.4319  1.1656
  857MOL0     H15675   3.122  -0.839   9.303 -0.8864 -2.8512 -0.5398
  857MOL0     H15676   2.984  -0.869   9.400  1.3718 -1.0458 -2.8323
  857MOL0     H15677   2.634  -0.529   8.730 -1.0585 -2.3879 -3.2889
  857MOL0     H15678   2.722  -0.535   8.494 -0.2253 -1.7352  0.8443
  857MOL0     H15679   3.006  -0.402   8.236  0.5059 -0.1468  0.0903
  857MOL0     H15680   3.077  -0.336   8.005 -0.3079 -0.4467  1.1689
  857MOL0     H15681   3.894  -0.351   7.947  0.8265 -1.4754 -1.2131
  857MOL0     H15682   3.936  -0.227   8.156  0.0307 -0.9503  0.9195
  857MOL0     H15683   4.048   0.296   8.251 -0.2233 -0.5934 -0.1059
  857MOL0     H15684   4.127   0.428   8.439  3.0763  0.5417  1.5877
  857MOL0     H15685   4.175   0.242   8.800 -2.4220  2.4364 -0.5515
  857MOL0     H15686   4.353   0.248   8.797 -1.4832 -1.6684 -2.3573
  857MOL0     H15687   4.156   0.466   8.888  0.9366  3.3034  1.8132
  857MOL0     H15688   4.325   0.498   8.900 -0.2310  0.1719  1.7694
  857MOL0     H15689   4.351   0.314   9.075  2.1513  1.3559 -1.5232
  857MOL0     H15690   4.172   0.297   9.053 -1.1381  1.6569 -0.7277
  857MOL0     H15691   4.144   0.546   9.126  0.5389  0.0576 -2.5465
  857MOL0     H15692   4.317   0.557   9.132  0.0480 -0.6474 -1.1526
  857MOL0     H15693   4.273   0.349   9.489  0.0872  1.0445  0.7250
  857MOL0     H15694   4.220   0.087   8.675 -1.1780  0.8092  1.3679
  857MOL0     H15695   4.201  -0.057   8.455 -1.6043 -0.8595 -5.5803
  858MOL0     O15696  11.281   3.640   4.800 -0.3070  0.5229  0.3180
  858MOL0     C15697  11.357   3.549   4.826  0.3982  0.2422  0.6626
  858MOL0     O15698  11.477   3.565   4.892 -0.0033 -0.4308 -0.1192
  858MOL0     C15699  11.542   3.688   4.916 -0.7450 -1.0454  0.0089
  858MOL0     C15700  11.498   3.810   4.859  0.2381 -1.0040 -0.2154
  858MOL0     C15701  11.565   3.927   4.886  0.1868  0.6266 -0.2608
  858MOL0     C15702  11.695   3.930   4.957  0.7156 -0.9701 -0.0178
  858MOL0     O15703  11.753   4.054   4.980  0.5002  0.0100 -0.8386
  858MOL0     C15704  11.898   4.064   4.979 -0.8789 -0.1637 -0.1042
  858MOL0     C15705  11.952   4.189   5.038  1.1829 -1.0182 -0.1779
  858MOL0     C15706  12.104   4.188   5.005  0.8218  0.0934 -0.1801
  858MOL0     C15707  12.182   4.286   5.093 -0.1638 -0.0749 -0.2742
  858MOL0     C15708  12.292   4.213   5.167 -0.4871  0.0196 -0.1187
  858MOL0     C15709  12.387   4.299   5.253 -0.0184 -0.6742 -0.0306
  858MOL0     C15710  12.323   4.374   5.371  0.7426  0.3811 -0.6695
  858MOL0     C15711  12.390   4.514   5.390 -0.3850 -0.5411 -0.5189
  858MOL0     N15712  12.353   4.578   5.512 -0.2340 -0.5630  0.1671
  858MOL0     C15713  12.227   4.574   5.567 -0.5451 -0.5048  0.0021
  858MOL0     C15714  12.229   4.670   5.670 -0.7034 -0.2106 -0.8097
  858MOL0     C15715  12.110   4.697   5.754  0.4410 -0.0861 -0.6178
  858MOL0     C15716  12.017   4.806   5.701  0.0961  0.0248  0.0268
  858MOL0     C15717  12.089   4.934   5.660  0.7546 -0.0606  0.3913
  858MOL0     C15718  11.994   5.041   5.613 -0.3845  0.5721  0.4785
  858MOL0     O15719  11.953   5.015   5.481 -0.6891  0.7231 -0.0952
  858MOL0     C15720  11.912   5.116   5.399  0.3168 -0.0908 -0.1817
  858MOL0     C15721  11.923   5.088   5.252  0.7112 -0.1091 -0.0733
  858MOL0     C15722  11.893   5.183   5.157 -0.9767 -0.5477 -0.3988
  858MOL0     C15723  11.912   5.153   5.006  0.7079  0.2886 -0.1133
  858MOL0     C15724  11.848   5.314   5.199 -0.4748  0.4125  0.6895
  858MOL0     C15725  11.813   5.425   5.103  0.3219  0.2414 -0.7412
  858MOL0     O15726  11.759   5.539   5.165 -0.0137 -0.4431 -0.0083
  858MOL0     C15727  11.716   5.650   5.105  0.6749  0.1351  0.0014
  858MOL0     C15728  11.608   5.720   5.160  0.1716 -0.4299  0.4618
  858MOL0     C15729  11.547   5.831   5.088 -0.0225  0.8367  0.3911
  858MOL0     C15730  11.605   5.886   4.970 -0.6396  0.1578 -0.0685
  858MOL0     O15731  11.555   5.978   4.879 -0.0867  0.3230  0.4534
  858MOL0     C15732  11.537   6.112   4.935 -0.1467 -0.0047  0.4042
  858MOL0     C15733  11.453   6.198   4.848  0.2111  0.1061 -0.8607
  858MOL0     C15734  11.323   6.131   4.858  0.5030  0.2050 -0.0309
  858MOL0     C15735  11.215   6.213   4.803  0.4544 -0.1036  0.3072
  858MOL0     C15736  11.079   6.135   4.821 -0.2028 -0.3127  0.8729
  858MOL0     C15737  10.975   6.195   4.718  0.6970 -0.3309 -0.1182
  858MOL0     C15738  10.939   6.349   4.741 -0.0118 -0.6371 -0.1371
  858MOL0     C15739  10.831   6.406   4.637  0.5081  0.0807  0.0655
  858MOL0    Cl15740  10.811   6.580   4.664 -0.1471 -0.0441  0.2982
  858MOL0     C15741  11.724   5.832   4.925 -0.2179  0.0991 -0.7350
  858MOL0     C15742  11.775   5.711   4.990  0.9277 -0.0371  0.2821
  858MOL0     O15743  11.842   5.419   4.982  0.3285 -0.4698 -0.2572
  858MOL0     C15744  11.833   5.339   5.342 -0.6514 -0.1369  0.6509
  858MOL0     C15745  11.871   5.241   5.434 -0.2005 -0.3922  0.5310
  858MOL0     N15746  12.361   4.717   5.679 -0.4590  0.1569  0.3857
  858MOL0     N15747  12.432   4.661   5.586 -0.4496  0.1826  0.0434
  858MOL0     C15748  11.741   3.806   5.012  0.5332 -0.3082 -0.7419
  858MOL0     C15749  11.668   3.690   4.993  0.6363  0.8281  0.5764
  858MOL0     C15750  11.325   3.412   4.789 -0.0723  0.7017  0.1979
  858MOL0     C15751  11.197   3.358   4.822 -0.1213  0.6585 -0.4020
  858MOL0     C15752  11.155   3.226   4.787 -0.7672  0.3517 -0.1074
  858MOL0     C15753  11.238   3.139   4.717  0.0116 -0.5828  0.5916
  858MOL0     O15754  11.186   3.016   4.701 -0.1285  0.6464  0.2660
  858MOL0     C15755  11.264   2.919   4.629 -0.4304  0.4089  0.4333
  858MOL0     C15756  11.192   2.786   4.626 -0.3567 -0.0371 -0.5157
  858MOL0     C15757  11.172   2.735   4.764 -0.3411 -0.3034  0.1248
  858MOL0     C15758  11.156   2.583   4.766  0.4357 -0.2321 -0.8785
  858MOL0     C15759  11.086   2.545   4.893  1.0351  0.6957  0.3807
  858MOL0     C15760  11.030   2.537   5.001 -0.5722  0.2841 -0.8141
  858MOL0     C15761  11.358   3.193   4.669 -0.2851 -0.1517 -0.1208
  858MOL0     C15762  11.397   3.326   4.702 -0.5767  1.2605  0.2078
  858MOL0     H15763  11.406   3.817   4.801 -0.3340  1.4368  0.8892
  858MOL0     H15764  11.522   4.014   4.838  0.6923  1.7427  1.2425
  858MOL0     H15765  11.936   3.982   5.041  0.5993  2.0722  2.1439
  858MOL0     H15766  11.940   4.054   4.879  1.0323  0.2681  0.6067
  858MOL0     H15767  11.896   4.272   4.994 -0.0035 -0.4824  2.1986
  858MOL0     H15768  11.926   4.197   5.144  0.0374  3.2046 -0.5879
  858MOL0     H15769  12.150   4.089   5.018 -0.1327 -0.2069  1.0477
  858MOL0     H15770  12.122   4.212   4.899 -1.7443  0.6461 -0.5546
  858MOL0     H15771  12.228   4.370   5.040  0.7672 -0.0577  0.5442
  858MOL0     H15772  12.120   4.338   5.166  3.5504 -0.5511  3.5691
  858MOL0     H15773  12.246   4.134   5.228  0.1167 -0.0302  0.2772
  858MOL0     H15774  12.353   4.170   5.088 -0.0132 -2.4327  1.4761
  858MOL0     H15775  12.466   4.234   5.291  2.8603  1.3773 -2.1374
  858MOL0     H15776  12.440   4.372   5.192  1.7187  0.5574  2.7385
  858MOL0     H15777  12.218   4.392   5.349  0.2580 -1.8782 -0.4482
  858MOL0     H15778  12.319   4.324   5.468 -1.0954 -1.3893 -1.5778
  858MOL0     H15779  12.370   4.578   5.304 -1.1563 -0.0284  0.0250
  858MOL0     H15780  12.499   4.511   5.397 -0.4924 -1.2626  2.3819
  858MOL0     H15781  12.144   4.512   5.535 -0.1185 -0.6313 -0.8950
  858MOL0     H15782  12.055   4.604   5.774  1.4446 -0.5884 -0.1434
  858MOL0     H15783  12.149   4.725   5.852 -1.1815 -0.7335  0.2544
  858MOL0     H15784  11.944   4.835   5.777 -1.2415  1.5980 -1.7418
  858MOL0     H15785  11.967   4.755   5.617  1.3657 -0.3203 -0.5450
  858MOL0     H15786  12.155   4.901   5.579 -0.1455  0.3213 -0.5110
  858MOL0     H15787  12.159   4.968   5.738 -3.3326 -0.2737  4.5762
  858MOL0     H15788  12.062   5.127   5.606  1.7993 -1.1606 -1.6103
  858MOL0     H15789  11.913   5.045   5.685  0.9913 -2.3028  2.3916
  858MOL0     H15790  11.968   4.996   5.216  1.9399  1.4177 -2.7881
  858MOL0     H15791  11.992   5.213   4.962  1.3892 -1.0774 -0.7763
  858MOL0     H15792  11.934   5.047   4.996 -0.2949  0.1033 -0.5178
  858MOL0     H15793  11.816   5.153   4.954 -1.0548 -1.1083  2.8736
  858MOL0     H15794  11.572   5.692   5.258  1.1135 -1.5715  0.5061
  858MOL0     H15795  11.462   5.896   5.110 -0.2707  1.5789 -2.3659
  858MOL0     H15796  11.499   6.111   5.038  0.7364  0.2741  0.7418
  858MOL0     H15797  11.634   6.161   4.945  0.1580 -0.1975 -1.3949
  858MOL0     H15798  11.445   6.297   4.893  3.2031 -0.7033  1.8901
  858MOL0     H15799  11.477   6.205   4.742 -1.3228  0.4588 -1.2001
  858MOL0     H15800  11.300   6.100   4.961  2.7382 -1.2199  0.1118
  858MOL0     H15801  11.322   6.035   4.807  0.1569 -0.1127  0.5567
  858MOL0     H15802  11.209   6.304   4.863 -1.0054  0.9512 -1.3127
  858MOL0     H15803  11.233   6.235   4.697  1.5018  1.7350  0.8326
  858MOL0     H15804  11.037   6.143   4.922 -1.2812 -0.4746  0.4527
  858MOL0     H15805  11.092   6.031   4.791 -2.1634 -0.9810  2.1189
  858MOL0     H15806  11.007   6.176   4.616 -0.3399 -0.4691 -0.4264
  858MOL0     H15807  10.885   6.134   4.731  1.0376 -1.3889 -2.3132
  858MOL0     H15808  11.028   6.411   4.729  0.1995 -1.3172 -2.6314
  858MOL0     H15809  10.906   6.346   4.846 -0.0895 -1.7898 -0.1846
  858MOL0     H15810  10.735   6.352   4.636 -0.7080  2.1281  0.2293
  858MOL0     H15811  10.864   6.390   4.534 -1.6652 -0.2800 -0.6415
  858MOL0     H15812  11.751   5.863   4.824 -1.5763 -1.1726 -1.5324
  858MOL0     H15813  11.855   5.658   4.940  0.6221  0.8894 -1.2520
  858MOL0     H15814  11.802   5.436   5.379 -0.7959  0.0450  0.0699
  858MOL0     H15815  11.845   5.253   5.538 -0.2989  0.0715  0.4566
  858MOL0     H15816  11.831   3.807   5.072 -1.1554 -4.5345  2.4321
  858MOL0     H15817  11.706   3.600   5.041  0.0132  0.8918  1.2070
  858MOL0     H15818  11.138   3.419   4.891 -1.9671 -3.9323  2.5112
  858MOL0     H15819  11.056   3.195   4.820 -0.6566 -1.5168 -1.3895
  858MOL0     H15820  11.283   2.948   4.525 -0.0306  0.1328  0.4262
  858MOL0     H15821  11.365   2.901   4.667  0.1564  0.2940 -1.1076
  858MOL0     H15822  11.248   2.710   4.571  1.3591 -0.9600  2.2836
  858MOL0     H15823  11.095   2.806   4.581 -1.0391 -1.5365  0.2023
  858MOL0     H15824  11.090   2.791   4.810 -0.4137  0.2044 -0.6097
  858MOL0     H15825  11.261   2.754   4.825  0.5288 -1.4416 -0.7607
  858MOL0     H15826  11.255   2.536   4.768  1.1942  1.3389  0.3050
  858MOL0     H15827  11.092   2.547   4.684 -2.0957  1.7885  0.0571
  858MOL0     H15828  10.984   2.520   5.096  0.0213 -4.7926 -1.1473
  858MOL0     H15829  11.421   3.120   4.619 -1.4602 -1.9351  0.8924
  858MOL0     H15830  11.495   3.345   4.659  0.8616 -2.9188  1.1671
  859MOL0     O15831  11.323   9.441   8.546  0.2785  0.2807  0.3415
  859MOL0     C15832  11.209   9.503   8.558 -0.9189  0.7937  0.5381
  859MOL0     O15833  11.134   9.519   8.671  0.2708 -0.4742  0.1351
  859MOL0     C15834  11.188   9.484   8.788 -0.8952  1.0259  0.1985
  859MOL0     C15835  11.321   9.507   8.835  0.1165 -0.3443  0.2519
  859MOL0     C15836  11.358   9.484   8.967  0.6775 -1.1950 -0.6916
  859MOL0     C15837  11.269   9.415   9.056 -0.2840 -0.4391 -0.3401
  859MOL0     O15838  11.311   9.397   9.186 -0.0896  0.3840 -0.2012
  859MOL0     C15839  11.235   9.314   9.278 -0.6339  0.5465 -0.5246
  859MOL0     C15840  11.255   9.162   9.241  1.0498  0.5343  0.2660
  859MOL0     C15841  11.170   9.076   9.331  0.6505  0.9764  0.6171
  859MOL0     C15842  11.209   8.918   9.320  0.1434 -0.6508  0.1873
  859MOL0     C15843  11.087   8.831   9.296  0.0687 -0.0894 -0.8719
  859MOL0     C15844  10.996   8.830   9.416  0.6603 -0.7512 -0.5367
  859MOL0     C15845  10.882   8.734   9.412 -0.4314  0.2642  0.6395
  859MOL0     C15846  10.788   8.736   9.290 -0.4044 -0.4073  0.5381
  859MOL0     N15847  10.656   8.762   9.337 -0.3582 -0.1659 -0.8488
  859MOL0     C15848  10.576   8.831   9.251  0.0567  0.7181  0.2189
  859MOL0     C15849  10.451   8.782   9.267 -0.3021  0.0494  0.3053
  859MOL0     C15850  10.326   8.823   9.189 -0.3028 -0.1229 -1.0028
  859MOL0     C15851  10.358   8.874   9.044  0.5736 -0.4650 -0.2310
  859MOL0     C15852  10.411   8.766   8.947 -0.2006 -0.0543 -0.2040
  859MOL0     C15853  10.558   8.726   8.963 -0.6549 -0.5090  0.0079
  859MOL0     O15854  10.636   8.845   8.954  0.1653  0.5714  0.0160
  859MOL0     C15855  10.776   8.849   8.955  0.0447 -0.3823  0.0872
  859MOL0     C15856  10.856   8.731   8.946  0.1380 -0.3554 -1.5303
  859MOL0     C15857  10.990   8.741   8.944 -0.6506 -0.5131 -0.0068
  859MOL0     C15858  11.058   8.603   8.953 -0.2506  0.1119  0.0292
  859MOL0     C15859  11.062   8.870   8.936 -0.0761  0.5180  0.3916
  859MOL0     C15860  11.210   8.886   8.938 -0.3705 -0.1142 -0.1266
  859MOL0     O15861  11.257   9.015   8.925  0.0529  0.3308  0.3033
  859MOL0     C15862  11.389   9.031   8.890  1.0194  0.0483 -0.5538
  859MOL0     C15863  11.488   8.989   8.972 -0.6998 -0.6184  0.5516
  859MOL0     C15864  11.625   8.991   8.932  0.2715  0.7029 -0.7021
  859MOL0     C15865  11.659   9.048   8.809 -0.5056 -1.1703 -0.0779
  859MOL0     O15866  11.786   9.071   8.767 -0.2909 -0.4149 -0.4852
  859MOL0     C15867  11.891   9.014   8.859 -0.7319 -1.3479  0.3788
  859MOL0     C15868  12.032   9.075   8.804 -0.8305 -0.2870 -0.3928
  859MOL0     C15869  12.040   9.228   8.823 -0.1383 -0.5311 -0.0468
  859MOL0     C15870  12.076   9.259   8.971 -0.2394  0.5796 -0.1731
  859MOL0     C15871  12.214   9.203   9.026  0.4722 -0.9930 -0.2022
  859MOL0     C15872  12.248   9.239   9.173  0.0933 -0.0537  0.2997
  859MOL0     C15873  12.387   9.175   9.196  0.4307  0.2682 -0.1012
  859MOL0     C15874  12.502   9.260   9.180 -0.1514 -0.2942 -0.5143
  859MOL0    Cl15875  12.508   9.360   9.039 -0.2918  0.2780  0.0921
  859MOL0     C15876  11.555   9.095   8.727 -0.8083 -0.5150  0.7899
  859MOL0     C15877  11.422   9.085   8.764  0.8559  0.1341  0.6217
  859MOL0     O15878  11.282   8.788   8.971  0.1785 -1.0315 -0.8401
  859MOL0     C15879  10.980   8.983   8.945  0.0324  0.5162  0.9011
  859MOL0     C15880  10.845   8.968   8.943 -0.3298  0.3934 -0.1256
  859MOL0     N15881  10.457   8.686   9.368 -0.1159 -0.4410 -0.0368
  859MOL0     N15882  10.575   8.679   9.407 -0.5824  0.8862  0.6919
  859MOL0     C15883  11.138   9.395   9.012 -0.1846 -0.0543  0.1494
  859MOL0     C15884  11.098   9.428   8.881 -0.1716 -1.3203 -0.0414
  859MOL0     C15885  11.153   9.557   8.433  0.2426 -0.1856  0.2445
  859MOL0     C15886  11.225   9.558   8.311  0.6696 -0.4277  0.1716
  859MOL0     C15887  11.174   9.627   8.200 -0.1424  0.8035 -0.6018
  859MOL0     C15888  11.053   9.696   8.198  0.4317  1.1087 -0.5910
  859MOL0     O15889  11.012   9.749   8.076  0.4639  0.4605  0.1558
  859MOL0     C15890  10.877   9.782   8.055 -0.7391 -0.1645 -0.7268
  859MOL0     C15891  10.875   9.859   7.918  0.0396  0.1309 -0.4585
  859MOL0     C15892  10.954   9.801   7.803 -1.4854  0.3719 -0.4301
  859MOL0     C15893  11.075   9.896   7.763 -0.9086 -0.0258  1.0121
  859MOL0     C15894  11.194   9.901   7.856  0.4617  0.4117  0.8028
  859MOL0     C15895  11.294   9.902   7.927 -0.6114  0.2585  0.1550
  859MOL0     C15896  10.977   9.694   8.318 -0.6342  0.5449 -0.7385
  859MOL0     C15897  11.029   9.634   8.433 -0.9402 -0.0401 -0.3229
  859MOL0     H15898  11.396   9.566   8.783  0.1505  0.4963  1.2184
  859MOL0     H15899  11.447   9.522   9.017  0.5122  1.9057 -2.4623
  859MOL0     H15900  11.277   9.340   9.376  0.7307  3.4314 -1.7665
  859MOL0     H15901  11.127   9.332   9.283 -0.3990  1.9583  0.0857
  859MOL0     H15902  11.229   9.145   9.136  3.7677  1.7867 -0.6913
  859MOL0     H15903  11.361   9.137   9.249  0.2156 -3.7535  0.1079
  859MOL0     H15904  11.183   9.101   9.437 -3.6445 -2.4137  2.2404
  859MOL0     H15905  11.066   9.094   9.302  0.8947 -0.0950 -1.0521
  859MOL0     H15906  11.274   8.916   9.232 -0.1041  0.4049 -0.0318
  859MOL0     H15907  11.271   8.886   9.404 -0.8291 -0.3447  1.0519
  859MOL0     H15908  11.033   8.873   9.211 -0.0059  1.3338 -0.1496
  859MOL0     H15909  11.112   8.729   9.267  0.6852 -0.0419 -0.5170
  859MOL0     H15910  11.063   8.783   9.489 -0.6739 -0.1264  1.1628
  859MOL0     H15911  10.972   8.934   9.441 -0.3762 -0.9908 -0.4601
  859MOL0     H15912  10.936   8.639   9.402 -0.2118  0.4985 -0.5179
  859MOL0     H15913  10.823   8.733   9.504  0.2687 -2.0211  1.1383
  859MOL0     H15914  10.792   8.632   9.259 -3.5864 -1.0186  1.8014
  859MOL0     H15915  10.827   8.799   9.210 -0.6511 -1.8890 -0.7815
  859MOL0     H15916  10.601   8.901   9.172 -2.0747  3.3829  1.7324
  859MOL0     H15917  10.253   8.743   9.173 -2.6510  1.8946 -1.0055
  859MOL0     H15918  10.276   8.911   9.230 -0.5149  0.1710 -1.8727
  859MOL0     H15919  10.425   8.961   9.049  0.2877 -0.2645  0.2947
  859MOL0     H15920  10.264   8.913   9.004  0.3801  0.3689  0.9580
  859MOL0     H15921  10.390   8.791   8.843  0.4620  0.6943 -0.1727
  859MOL0     H15922  10.360   8.670   8.956  2.6572 -1.5920  0.8101
  859MOL0     H15923  10.573   8.661   8.877 -0.4641  0.7304 -0.9215
  859MOL0     H15924  10.575   8.666   9.053 -6.0983 -2.2736  0.2514
  859MOL0     H15925  10.799   8.639   8.940 -1.4264  0.4111  0.5568
  859MOL0     H15926  11.086   8.587   9.058  0.1094  0.8563  0.0563
  859MOL0     H15927  10.993   8.521   8.922  0.6443 -1.2882  1.6369
  859MOL0     H15928  11.155   8.600   8.903 -0.2443  4.3686 -0.5295
  859MOL0     H15929  11.464   8.968   9.076 -1.6391  0.3179  0.5363
  859MOL0     H15930  11.698   8.948   8.999  0.5315  2.2057  0.0164
  859MOL0     H15931  11.879   9.048   8.962  2.1561  3.0139 -0.4578
  859MOL0     H15932  11.900   8.905   8.854  1.1784 -1.2385  0.5845
  859MOL0     H15933  12.113   9.017   8.850 -1.4099 -2.3273 -1.7705
  859MOL0     H15934  12.035   9.075   8.694 -3.0586  2.0380 -0.5492
  859MOL0     H15935  11.949   9.273   8.782  1.0514 -0.2441 -2.5077
  859MOL0     H15936  12.116   9.270   8.757 -1.5933 -0.8685 -2.0239
  859MOL0     H15937  12.068   9.368   8.972  2.3583  0.8213 -0.5499
  859MOL0     H15938  11.999   9.231   9.044  0.6936  1.5691  1.2336
  859MOL0     H15939  12.283   9.251   8.956 -2.9768 -0.8670 -3.9061
  859MOL0     H15940  12.211   9.095   9.010  1.9578 -0.7436 -2.6579
  859MOL0     H15941  12.243   9.347   9.193  1.4120 -0.1004  0.9759
  859MOL0     H15942  12.169   9.198   9.235 -0.0538 -0.3944 -0.1076
  859MOL0     H15943  12.411   9.096   9.125 -1.4853  1.8565 -2.6883
  859MOL0     H15944  12.383   9.127   9.295  0.0657  0.2453 -0.1252
  859MOL0     H15945  12.601   9.213   9.180  0.5667  1.1571 -0.1067
  859MOL0     H15946  12.486   9.328   9.264  0.2620  1.7248 -1.9960
  859MOL0     H15947  11.593   9.152   8.642 -0.4612  0.0629  1.3248
  859MOL0     H15948  11.346   9.125   8.698  0.9998  1.2287  1.0880
  859MOL0     H15949  11.012   9.087   8.951  3.0310 -0.2110 -0.9863
  859MOL0     H15950  10.789   9.061   8.943 -0.6562  0.2250  1.5275
  859MOL0     H15951  11.065   9.355   9.082 -1.4535  0.4942 -0.8111
  859MOL0     H15952  10.996   9.409   8.850 -0.5201 -0.2865  0.4005
  859MOL0     H15953  11.320   9.505   8.315  1.9294  1.3045 -3.0899
  859MOL0     H15954  11.243   9.624   8.116  2.2350  2.0212  1.1734
  859MOL0     H15955  10.809   9.696   8.050 -1.6467 -0.2848  5.5429
  859MOL0     H15956  10.838   9.844   8.136 -0.0595 -3.2757  2.1826
  859MOL0     H15957  10.911   9.962   7.929 -1.9119  0.5643  3.2411
  859MOL0     H15958  10.772   9.866   7.882  0.6337 -0.0331 -2.3359
  859MOL0     H15959  10.886   9.789   7.718 -1.5260 -2.9640 -0.0419
  859MOL0     H15960  11.008   9.712   7.836 -2.7072 -0.9405 -1.7909
  859MOL0     H15961  11.045   9.995   7.728 -1.9590 -0.9313 -0.8917
  859MOL0     H15962  11.125   9.849   7.678 -1.0185  1.3414  0.1570
  859MOL0     H15963  11.367   9.891   8.005 -0.9894 -1.3316  0.3332
  859MOL0     H15964  10.875   9.729   8.313 -1.7633 -2.4666 -0.5589
  859MOL0     H15965  10.982   9.649   8.530  0.9319 -1.4899  0.8778
  860MOL0     O15966   1.894   9.148   9.730  0.1366  0.9481 -0.3179
  860MOL0     C15967   1.878   9.094   9.616 -0.3650  0.2000  0.3067
  860MOL0     O15968   1.811   8.979   9.603  0.6067 -0.1805  0.1622
  860MOL0     C15969   1.724   8.921   9.701  0.1613  0.3519 -0.1596
  860MOL0     C15970   1.647   8.991   9.786  1.3083  0.0082 -0.9447
  860MOL0     C15971   1.584   8.927   9.890 -0.1291 -0.3821 -0.7069
  860MOL0     C15972   1.574   8.787   9.902  0.6245 -0.5879  0.6433
  860MOL0     O15973   1.494   8.726  10.004  0.1975  1.2699  0.4788
  860MOL0     C15974   1.550   8.612  10.074 -0.4231 -0.4715 -0.7572
  860MOL0     C15975   1.684   8.642  10.150 -0.2637 -1.0099  0.2135
  860MOL0     C15976   1.673   8.772  10.227  0.7971 -0.4582  0.5656
  860MOL0     C15977   1.790   8.781  10.330  0.2269  0.6453 -0.4019
  860MOL0     C15978   1.820   8.902  10.419 -0.3827 -0.6929 -0.0242
  860MOL0     C15979   1.932   8.895  10.524 -0.3260  0.5242 -0.0615
  860MOL0     C15980   2.070   8.877  10.470  0.3595 -0.9636  0.6506
  860MOL0     C15981   2.124   8.984  10.362  0.0012  0.4446  0.6634
  860MOL0     N15982   2.139   9.111  10.433 -0.0826  0.0128  0.2379
  860MOL0     C15983   2.038   9.203  10.452  0.2271 -0.9445  0.3986
  860MOL0     C15984   2.092   9.312  10.514  0.3615 -0.9553 -0.4590
  860MOL0     C15985   2.023   9.438  10.560 -0.1924 -0.4421 -0.3575
  860MOL0     C15986   2.014   9.455  10.709  0.3740  0.2047  0.0332
  860MOL0     C15987   1.926   9.350  10.774 -0.2232 -0.4993  0.0982
  860MOL0     C15988   1.847   9.397  10.900 -0.3696  0.1094 -0.2548
  860MOL0     O15989   1.766   9.284  10.943  0.3657 -0.5162 -0.4571
  860MOL0     C15990   1.699   9.283  11.062  0.3863 -1.1018 -0.5427
  860MOL0     C15991   1.639   9.164  11.098  0.0056 -0.3817  0.1311
  860MOL0     C15992   1.549   9.160  11.202 -0.5111 -0.0106 -0.2190
  860MOL0     C15993   1.481   9.029  11.216  0.5541  0.1266  0.4053
  860MOL0     C15994   1.512   9.274  11.280 -0.9003  0.0811  1.0496
  860MOL0     C15995   1.423   9.282  11.395  0.4525  0.6380 -1.4943
  860MOL0     O15996   1.427   9.394  11.475 -0.3540 -0.0735  0.3769
  860MOL0     C15997   1.362   9.406  11.589  0.1550  0.0526 -0.3973
  860MOL0     C15998   1.243   9.478  11.589 -0.3108 -0.1560 -0.0421
  860MOL0     C15999   1.197   9.525  11.707  0.1740 -1.0769 -0.5312
  860MOL0     C16000   1.248   9.491  11.837  0.1954 -0.5332 -0.2003
  860MOL0     O16001   1.195   9.535  11.960 -0.1575  0.0358  0.1866
  860MOL0     C16002   1.118   9.657  11.969 -0.5311  0.7423 -0.3500
  860MOL0     C16003   1.093   9.702  12.117 -0.1975  0.0671  0.0508
  860MOL0     C16004   0.984   9.641  12.202 -0.2499  0.5220 -0.1548
  860MOL0     C16005   0.941   9.736  12.313 -0.4631  0.4351 -0.3456
  860MOL0     C16006   0.852   9.665  12.418  1.2945  0.0555  0.4455
  860MOL0     C16007   0.807   9.767  12.522  0.4280 -0.7578  0.3406
  860MOL0     C16008   0.693   9.716  12.597  0.0554 -0.4715  0.0273
  860MOL0     C16009   0.685   9.801  12.729  0.2605  0.3948 -0.6570
  860MOL0    Cl16010   0.615   9.959  12.674  0.5392  0.0969 -0.3599
  860MOL0     C16011   1.359   9.408  11.828  0.6794  0.1416 -1.1792
  860MOL0     C16012   1.408   9.353  11.706  0.0756  0.5672  0.7697
  860MOL0     O16013   1.351   9.187  11.425  0.0035  0.0134  0.0626
  860MOL0     C16014   1.581   9.390  11.241  0.4183 -0.3113 -0.0117
  860MOL0     C16015   1.667   9.397  11.137 -0.6094 -0.4670 -0.1313
  860MOL0     N16016   2.225   9.287  10.512  0.1457  1.3040  0.1498
  860MOL0     N16017   2.259   9.167  10.470  0.2128  0.5950 -0.4498
  860MOL0     C16018   1.644   8.719   9.805 -0.2367  0.1236  0.4999
  860MOL0     C16019   1.722   8.789   9.707  0.0010  0.4400  0.2129
  860MOL0     C16020   1.935   9.156   9.498 -0.5068  0.6393  0.0086
  860MOL0     C16021   1.983   9.071   9.396 -0.2184  0.2042 -0.4866
  860MOL0     C16022   2.040   9.119   9.282 -0.3940  0.3044 -0.0022
  860MOL0     C16023   2.061   9.260   9.272 -0.2362  0.5090  0.3167
  860MOL0     O16024   2.137   9.311   9.170 -0.8229 -0.6763 -0.0789
  860MOL0     C16025   2.094   9.320   9.036  0.8055  1.0825 -0.5930
  860MOL0     C16026   2.141   9.439   8.957 -0.1526  0.1706  0.0275
  860MOL0     C16027   2.294   9.438   8.950 -0.4200 -0.3688  0.3590
  860MOL0     C16028   2.352   9.550   8.861  0.4808  0.5614  0.3258
  860MOL0     C16029   2.321   9.539   8.712  0.2837  0.4274 -0.2573
  860MOL0     C16030   2.312   9.537   8.591 -0.7907  0.0424  0.5454
  860MOL0     C16031   2.015   9.338   9.380  1.0059 -0.0030  0.6920
  860MOL0     C16032   1.946   9.288   9.493 -0.8970  0.1253  0.7254
  860MOL0     H16033   1.640   9.099   9.783 -0.0512 -0.0126  0.3613
  860MOL0     H16034   1.535   8.979   9.971 -2.0850 -1.6746 -0.9730
  860MOL0     H16035   1.475   8.584  10.148 -2.4138  3.0337 -1.2102
  860MOL0     H16036   1.572   8.529  10.007  3.2720 -2.6471  2.7384
  860MOL0     H16037   1.705   8.564  10.224 -0.7548 -2.0100 -0.6809
  860MOL0     H16038   1.776   8.645  10.090  0.2729 -1.1454  1.0093
  860MOL0     H16039   1.666   8.858  10.160  2.5212  0.2237  1.2107
  860MOL0     H16040   1.591   8.777  10.300  1.6059 -2.6275  1.7172
  860MOL0     H16041   1.780   8.694  10.396 -1.1459  0.5690 -0.6891
  860MOL0     H16042   1.883   8.771  10.273  1.5473  3.0497  1.1852
  860MOL0     H16043   1.845   8.986  10.354 -0.6543 -1.7295 -1.5211
  860MOL0     H16044   1.741   8.928  10.491  0.1981  0.0247  0.3652
  860MOL0     H16045   1.930   8.977  10.596 -0.1025  1.4367 -1.0655
  860MOL0     H16046   1.901   8.806  10.579  0.0993  0.8747  0.7537
  860MOL0     H16047   2.138   8.874  10.555  0.6089  1.5040  0.6235
  860MOL0     H16048   2.064   8.775  10.430  0.9740 -0.9083  0.3979
  860MOL0     H16049   2.057   8.987  10.276 -1.2030 -0.9903  1.5002
  860MOL0     H16050   2.224   8.969  10.321  0.2976  3.7812 -0.0807
  860MOL0     H16051   1.935   9.183  10.424 -0.1615 -0.8541  1.7009
  860MOL0     H16052   2.071   9.527  10.517 -3.0247  1.5730  0.3198
  860MOL0     H16053   1.916   9.442  10.537 -2.1473 -2.5516  6.1954
  860MOL0     H16054   1.983   9.555  10.741 -0.8937 -0.8410  2.3873
  860MOL0     H16055   2.115   9.447  10.749  0.7298  1.4993 -0.5479
  860MOL0     H16056   1.977   9.263  10.816 -1.8666 -1.0164  1.1592
  860MOL0     H16057   1.856   9.308  10.701 -2.2937  2.5648  0.1132
  860MOL0     H16058   1.785   9.484  10.878  1.4937  1.5454  0.0193
  860MOL0     H16059   1.911   9.424  10.984 -1.3403  1.4426  0.0961
  860MOL0     H16060   1.654   9.080  11.030 -3.4458 -0.5211 -0.6598
  860MOL0     H16061   1.483   9.001  11.321  0.5767 -1.7866 -0.0712
  860MOL0     H16062   1.376   9.030  11.183  1.4223  0.2552 -2.6970
  860MOL0     H16063   1.526   8.949  11.157  2.5318  0.1118  1.8651
  860MOL0     H16064   1.209   9.526  11.498  0.5378  2.7653  1.0710
  860MOL0     H16065   1.110   9.590  11.693 -0.5389 -1.6644  1.0400
  860MOL0     H16066   1.167   9.742  11.920 -3.3520  0.9257 -3.2186
  860MOL0     H16067   1.023   9.624  11.926 -0.8634  1.2220  0.0089
  860MOL0     H16068   1.179   9.678  12.180  1.0384  1.0212 -1.1854
  860MOL0     H16069   1.083   9.811  12.114 -0.6745  0.0154 -0.2891
  860MOL0     H16070   1.017   9.548  12.248  1.2848  1.2417  0.2978
  860MOL0     H16071   0.901   9.611  12.139  1.3609 -5.0759 -0.1425
  860MOL0     H16072   1.028   9.759  12.376 -0.8355  2.8937 -0.6424
  860MOL0     H16073   0.908   9.827  12.264  0.3233 -1.4712 -4.9646
  860MOL0     H16074   0.903   9.581  12.465  2.8368  0.3661 -0.5894
  860MOL0     H16075   0.758   9.629  12.377  0.9479  1.7425 -0.3402
  860MOL0     H16076   0.893   9.795  12.583  0.8646  1.8970 -1.3353
  860MOL0     H16077   0.775   9.853  12.463  1.2552 -0.9925 -0.4615
  860MOL0     H16078   0.691   9.610  12.623 -0.6813  0.4113  4.2231
  860MOL0     H16079   0.598   9.727  12.544 -0.5729 -2.3782  0.6900
  860MOL0     H16080   0.778   9.801  12.787  1.1377 -1.6303 -1.9389
  860MOL0     H16081   0.613   9.760  12.800 -1.6611 -0.2555 -2.8732
  860MOL0     H16082   1.404   9.375  11.920 -0.5617 -1.4654 -1.1060
  860MOL0     H16083   1.496   9.290  11.716  0.1125  0.2520 -1.2658
  860MOL0     H16084   1.566   9.477  11.305 -0.4665  0.8279 -1.6937
  860MOL0     H16085   1.706   9.496  11.113 -2.6860 -0.1998 -2.9796
  860MOL0     H16086   1.658   8.612   9.798  0.1816  0.1518  0.8938
  860MOL0     H16087   1.782   8.737   9.634 -4.2209 -2.3898 -1.6229
  860MOL0     H16088   1.967   8.965   9.413 -0.6096  0.4111  0.5518
  860MOL0     H16089   2.060   9.040   9.210  1.9914 -1.6614  2.5992
  860MOL0     H16090   2.128   9.223   8.997 -0.3522  0.9514 -1.3277
  860MOL0     H16091   1.985   9.333   9.037  0.7264  0.6915  1.3029
  860MOL0     H16092   2.111   9.534   9.002 -1.8641  0.7946 -2.2705
  860MOL0     H16093   2.100   9.443   8.856  0.3610  2.8583 -0.1541
  860MOL0     H16094   2.327   9.344   8.904  2.3752  0.5998  0.2174
  860MOL0     H16095   2.334   9.453   9.050 -1.5407  0.9080  0.6511
  860MOL0     H16096   2.459   9.547   8.880  0.4894 -2.6728  0.4742
  860MOL0     H16097   2.318   9.648   8.894 -2.9024 -0.5546  0.5850
  860MOL0     H16098   2.326   9.539   8.485 -0.7027 -0.7743  0.5370
  860MOL0     H16099   2.040   9.443   9.384  1.3469 -0.0785  0.6046
  860MOL0     H16100   1.898   9.341   9.575  0.3087  2.2028  0.1594
  861MOL0     O16101   4.185   1.667   3.911 -0.1851  0.6841  0.5036
  861MOL0     C16102   4.078   1.690   3.954  1.2374 -0.3150  0.6622
  861MOL0     O16103   4.040   1.706   4.083  0.5091 -0.7933 -0.4080
  861MOL0     C16104   4.119   1.681   4.196  0.1294 -0.9616 -0.1742
  861MOL0     C16105   4.064   1.711   4.321  0.6149  0.0965 -0.2597
  861MOL0     C16106   4.122   1.678   4.448  0.0987 -0.6728  0.5216
  861MOL0     C16107   4.239   1.609   4.454 -0.2632  0.2669  0.7974
  861MOL0     O16108   4.302   1.581   4.571 -0.9639  0.2558 -0.3232
  861MOL0     C16109   4.236   1.573   4.699 -0.1410 -0.4517  0.5794
  861MOL0     C16110   4.337   1.516   4.807 -0.3518  0.2597  0.8895
  861MOL0     C16111   4.370   1.370   4.793  0.1483 -0.4724 -0.6037
  861MOL0     C16112   4.481   1.319   4.888 -0.2123 -0.1440  0.1598
  861MOL0     C16113   4.531   1.174   4.855  0.1113  0.1807 -0.6890
  861MOL0     C16114   4.649   1.150   4.948 -0.4287 -0.5746  0.7315
  861MOL0     C16115   4.711   1.008   4.911  0.6704 -0.1902  0.1567
  861MOL0     C16116   4.841   0.991   4.991  0.1128  1.1752  0.5811
  861MOL0     N16117   4.913   0.866   4.943 -0.1865 -0.0045 -1.0021
  861MOL0     C16118   4.857   0.743   4.923  0.9741 -1.1228 -0.0503
  861MOL0     C16119   4.951   0.667   4.877 -0.3139 -0.0020  0.3596
  861MOL0     C16120   4.933   0.521   4.839  1.3207  0.0457  0.5564
  861MOL0     C16121   5.052   0.428   4.852  0.5620  0.2055  0.1466
  861MOL0     C16122   5.034   0.289   4.796  0.3004 -0.1211 -0.3048
  861MOL0     C16123   5.149   0.239   4.703 -0.9017  0.2611 -0.9580
  861MOL0     O16124   5.107   0.125   4.628 -0.1857 -0.1094 -0.0906
  861MOL0     C16125   5.106  -0.000   4.688 -0.2798  0.8654  0.8661
  861MOL0     C16126   4.997  -0.055   4.750  0.0506 -0.7387 -0.4384
  861MOL0     C16127   5.014  -0.178   4.814  0.5349  0.1602  0.1240
  861MOL0     C16128   4.896  -0.225   4.895 -0.4392  0.0572 -0.4503
  861MOL0     C16129   5.129  -0.254   4.798  0.3403  0.1143  0.2385
  861MOL0     C16130   5.147  -0.393   4.843  0.1943 -0.1945  1.0610
  861MOL0     O16131   5.030  -0.473   4.855 -0.5280 -0.5075  0.1426
  861MOL0     C16132   5.059  -0.593   4.912  0.2660  0.2819 -0.6671
  861MOL0     C16133   5.052  -0.713   4.831  0.2743  0.0633 -0.6688
  861MOL0     C16134   5.076  -0.836   4.890  0.0364 -0.0418 -0.0485
  861MOL0     C16135   5.110  -0.858   5.025  0.2879  0.0973 -1.1036
  861MOL0     O16136   5.119  -0.979   5.093  0.0293  0.2105 -0.0103
  861MOL0     C16137   5.102  -1.100   5.021  0.9640 -0.1317 -0.8911
  861MOL0     C16138   5.127  -1.214   5.127 -0.0950  0.0301 -0.8068
  861MOL0     C16139   4.990  -1.256   5.195 -0.1986  0.1072 -0.5283
  861MOL0     C16140   4.953  -1.157   5.297 -0.4904 -0.7102  0.4045
  861MOL0     C16141   4.908  -1.217   5.432 -1.5476 -0.4863  0.3910
  861MOL0     C16142   4.781  -1.288   5.408  0.6271  0.3698  0.6907
  861MOL0     C16143   4.740  -1.395   5.508  0.3124  0.3039 -0.3249
  861MOL0     C16144   4.622  -1.484   5.458  0.4531  0.1366 -0.0512
  861MOL0    Cl16145   4.652  -1.575   5.310  0.2011  0.3282 -0.1220
  861MOL0     C16146   5.111  -0.734   5.097  0.8409  0.7055 -0.3449
  861MOL0     C16147   5.085  -0.606   5.049 -0.6996 -0.0752 -0.6135
  861MOL0     O16148   5.261  -0.427   4.866  0.0064 -0.1759  0.6501
  861MOL0     C16149   5.241  -0.194   4.722  0.7606  0.3759 -0.1611
  861MOL0     C16150   5.225  -0.069   4.680  0.3821 -0.5741  0.3844
  861MOL0     N16151   5.071   0.747   4.878  0.0155 -1.3070  0.2149
  861MOL0     N16152   5.047   0.871   4.916 -0.6617 -0.2806  0.4602
  861MOL0     C16153   4.300   1.579   4.333  0.3070 -0.2849  0.9669
  861MOL0     C16154   4.242   1.606   4.203  0.3110 -0.0471  0.0658
  861MOL0     C16155   3.963   1.699   3.858 -0.8163  0.0795  0.7363
  861MOL0     C16156   3.963   1.650   3.723  0.1132  0.0046 -0.8504
  861MOL0     C16157   3.850   1.660   3.637  0.4027  0.5083 -0.2264
  861MOL0     C16158   3.739   1.728   3.676  0.4757 -1.0508  0.7524
  861MOL0     O16159   3.614   1.725   3.614 -0.7740 -1.0775 -0.0348
  861MOL0     C16160   3.608   1.788   3.488 -0.7147 -0.2489  0.3143
  861MOL0     C16161   3.474   1.766   3.420  0.1607  0.5848 -0.0621
  861MOL0     C16162   3.470   1.791   3.273  0.5005 -0.6937  0.6525
  861MOL0     C16163   3.538   1.684   3.191 -0.3955  0.3684 -0.1227
  861MOL0     C16164   3.680   1.709   3.186 -0.2383 -0.4797 -0.1192
  861MOL0     C16165   3.802   1.719   3.161 -0.1492 -0.4389  0.5030
  861MOL0     C16166   3.737   1.771   3.806 -0.0255 -0.9042  1.1860
  861MOL0     C16167   3.844   1.757   3.893 -0.0188 -0.3058 -0.7923
  861MOL0     H16168   3.963   1.749   4.331  0.4133 -0.4399 -0.1762
  861MOL0     H16169   4.061   1.711   4.531 -2.8808  0.7421 -2.0525
  861MOL0     H16170   4.197   1.670   4.729  1.2666  0.8114 -1.4794
  861MOL0     H16171   4.150   1.508   4.676 -0.6401  0.1169  0.8254
  861MOL0     H16172   4.437   1.560   4.803  0.7390 -1.9983  1.3663
  861MOL0     H16173   4.297   1.536   4.907 -0.3641 -1.2064  1.1941
  861MOL0     H16174   4.289   1.305   4.827  2.5540 -2.2253  2.4091
  861MOL0     H16175   4.394   1.346   4.689  1.9778  2.2679 -0.9137
  861MOL0     H16176   4.561   1.394   4.885 -0.6590  0.2884 -1.4169
  861MOL0     H16177   4.450   1.306   4.993  0.9441  0.7529  0.6378
  861MOL0     H16178   4.450   1.101   4.868  0.4516 -0.2242 -0.8232
  861MOL0     H16179   4.557   1.151   4.751 -2.0940  1.2290 -1.5384
  861MOL0     H16180   4.720   1.228   4.920 -0.2255 -0.8109  0.5841
  861MOL0     H16181   4.622   1.156   5.054  0.2835  2.7115  0.8129
  861MOL0     H16182   4.639   0.935   4.948 -0.9237  1.7512  1.1226
  861MOL0     H16183   4.724   1.006   4.802 -1.1966  6.3791 -0.6223
  861MOL0     H16184   4.840   0.954   5.094  3.3933  0.7448  0.5459
  861MOL0     H16185   4.902   1.082   4.992  2.6339 -0.4049  0.1478
  861MOL0     H16186   4.751   0.719   4.932  0.3360  0.8158 -1.6702
  861MOL0     H16187   4.853   0.482   4.903 -1.4445  2.6390 -1.0517
  861MOL0     H16188   4.911   0.533   4.733  3.0770  3.6097  0.4585
  861MOL0     H16189   5.095   0.433   4.953 -4.1385  0.9303  2.3967
  861MOL0     H16190   5.123   0.466   4.778 -1.4937  1.6157 -1.2176
  861MOL0     H16191   4.936   0.279   4.748  1.8066 -1.0833 -3.4137
  861MOL0     H16192   5.039   0.215   4.877  0.2950  2.3762  2.1180
  861MOL0     H16193   5.240   0.218   4.759 -0.5113 -2.3154 -2.4012
  861MOL0     H16194   5.158   0.328   4.639 -0.3804  1.4913  0.7359
  861MOL0     H16195   4.908   0.006   4.752  0.0669 -0.6740  2.4161
  861MOL0     H16196   4.934  -0.286   4.978 -0.4701 -1.1792 -1.3280
  861MOL0     H16197   4.834  -0.155   4.951 -1.3641 -3.3090  3.2343
  861MOL0     H16198   4.834  -0.290   4.832 -1.7107  1.2155 -0.4484
  861MOL0     H16199   5.016  -0.703   4.729 -0.4060  0.4794 -0.3930
  861MOL0     H16200   5.062  -0.930   4.838  1.3388 -1.5557  2.1532
  861MOL0     H16201   5.000  -1.113   4.985 -0.9573  2.8105  2.8155
  861MOL0     H16202   5.159  -1.113   4.929 -0.5524  0.1119 -1.9020
  861MOL0     H16203   5.164  -1.303   5.075 -1.0411 -0.9825  0.1743
  861MOL0     H16204   5.192  -1.180   5.207 -2.1412 -0.0958  1.0013
  861MOL0     H16205   4.998  -1.342   5.261  0.3193  1.0078  0.6186
  861MOL0     H16206   4.916  -1.284   5.120  3.4734 -3.6831 -3.1926
  861MOL0     H16207   5.032  -1.083   5.309  1.9022 -2.6060 -2.2767
  861MOL0     H16208   4.882  -1.093   5.243  1.5341  0.9548 -0.4376
  861MOL0     H16209   4.912  -1.148   5.517 -0.7701 -2.6612  2.2046
  861MOL0     H16210   4.985  -1.292   5.453  0.0789  0.1667 -2.6405
  861MOL0     H16211   4.704  -1.211   5.401  0.9015  0.9182  2.9086
  861MOL0     H16212   4.778  -1.333   5.308 -2.7850  0.0835  0.8117
  861MOL0     H16213   4.710  -1.352   5.604 -6.8080 -0.6347 -1.5681
  861MOL0     H16214   4.827  -1.459   5.528  0.5091  0.7446  0.2805
  861MOL0     H16215   4.532  -1.424   5.447  0.0881 -0.7001 -2.0212
  861MOL0     H16216   4.605  -1.560   5.535  0.2918  0.1117 -0.1114
  861MOL0     H16217   5.140  -0.743   5.202  2.5687 -1.9268 -0.9504
  861MOL0     H16218   5.075  -0.521   5.115 -0.6777 -1.2840  1.0154
  861MOL0     H16219   5.336  -0.246   4.719  0.7303  0.3290 -0.3571
  861MOL0     H16220   5.304  -0.029   4.616  0.4877  1.3835  1.6744
  861MOL0     H16221   4.396   1.529   4.336  0.7146  0.5196  2.0405
  861MOL0     H16222   4.287   1.568   4.112 -0.9483  1.9711 -1.4684
  861MOL0     H16223   4.060   1.617   3.689  0.1943 -1.7422  0.8847
  861MOL0     H16224   3.861   1.599   3.548 -2.1021 -1.2621  0.5585
  861MOL0     H16225   3.632   1.894   3.498 -1.1788 -0.3248  2.7027
  861MOL0     H16226   3.686   1.750   3.420 -1.9033 -0.0145 -1.2298
  861MOL0     H16227   3.406   1.832   3.475  1.9071  1.8487  0.6791
  861MOL0     H16228   3.443   1.662   3.432  3.8139 -1.0311 -2.8062
  861MOL0     H16229   3.501   1.893   3.248  3.5936 -1.7907 -0.4678
  861MOL0     H16230   3.365   1.791   3.242  1.0068  0.3857 -1.1792
  861MOL0     H16231   3.492   1.697   3.093 -0.5910  1.5834  0.1009
  861MOL0     H16232   3.528   1.582   3.228 -0.2115  0.8969  1.4940
  861MOL0     H16233   3.904   1.749   3.167 -1.2862  3.8600  3.7813
  861MOL0     H16234   3.650   1.825   3.842 -1.1963 -1.8566 -0.1077
  861MOL0     H16235   3.827   1.788   3.995  2.1207 -0.1624 -0.4329
  862MOL0     O16236   1.880   8.307   6.423  1.2845 -0.8264  0.7371
  862MOL0     C16237   1.984   8.261   6.464  0.4688 -0.3418 -0.6353
  862MOL0     O16238   2.103   8.242   6.391 -0.0486  0.2635  0.2648
  862MOL0     C16239   2.088   8.270   6.253  0.4026 -0.4828 -0.4776
  862MOL0     C16240   2.032   8.188   6.162  0.1753  0.8130 -0.0549
  862MOL0     C16241   2.006   8.231   6.030 -0.6587  0.0678 -0.4092
  862MOL0     C16242   2.054   8.358   5.989 -0.0580  0.3612 -0.3052
  862MOL0     O16243   2.026   8.380   5.854  0.0264  0.1644 -0.0851
  862MOL0     C16244   1.997   8.519   5.826 -0.6286  0.0722 -0.5571
  862MOL0     C16245   1.853   8.569   5.830  0.0485  0.2964 -0.3414
  862MOL0     C16246   1.794   8.556   5.974  1.6634 -0.3889  0.3280
  862MOL0     C16247   1.653   8.629   5.976 -0.1260 -0.3960 -0.1204
  862MOL0     C16248   1.575   8.603   6.102 -0.9844 -0.2811 -0.7568
  862MOL0     C16249   1.509   8.459   6.092 -0.6216  0.4738 -0.1936
  862MOL0     C16250   1.467   8.410   6.236  0.6200  0.1833  0.3732
  862MOL0     C16251   1.411   8.267   6.225  0.2838  0.2061 -0.1376
  862MOL0     N16252   1.281   8.272   6.158  0.0674 -0.0247  0.3864
  862MOL0     C16253   1.157   8.308   6.210  0.0362  0.7080 -1.0147
  862MOL0     C16254   1.069   8.274   6.114 -0.1794  0.4727  0.5962
  862MOL0     C16255   0.922   8.267   6.133 -0.0113 -0.1766 -0.4409
  862MOL0     C16256   0.860   8.357   6.237 -0.5725  0.5760  0.3928
  862MOL0     C16257   0.865   8.507   6.204 -0.6700  0.2129  0.0402
  862MOL0     C16258   0.995   8.567   6.147 -0.2525  0.3828 -0.0479
  862MOL0     O16259   0.970   8.708   6.152  0.0249  0.4370 -0.3406
  862MOL0     C16260   1.073   8.797   6.106 -0.0113  1.2031 -0.9393
  862MOL0     C16261   1.161   8.758   6.010  0.4645 -0.3352 -0.4361
  862MOL0     C16262   1.267   8.841   5.957 -0.5522  0.0281 -1.0721
  862MOL0     C16263   1.345   8.779   5.838 -0.5805 -0.3715 -0.2617
  862MOL0     C16264   1.287   8.971   6.026 -0.7140 -0.7982 -0.3993
  862MOL0     C16265   1.396   9.073   6.010 -0.1626  0.1232 -0.2731
  862MOL0     O16266   1.358   9.201   6.035  0.3325 -0.1814 -0.5229
  862MOL0     C16267   1.456   9.274   6.082 -0.3135  0.0714 -0.3482
  862MOL0     C16268   1.566   9.322   6.019  0.2988  0.2011  0.2670
  862MOL0     C16269   1.657   9.412   6.085  0.0435 -0.3394  0.2690
  862MOL0     C16270   1.631   9.452   6.219 -0.6336  0.4284 -0.4155
  862MOL0     O16271   1.726   9.532   6.282  0.0194 -0.1699  1.0531
  862MOL0     C16272   1.692   9.605   6.395 -0.2061  0.3795 -0.8934
  862MOL0     C16273   1.818   9.676   6.456  0.0049 -0.2881 -0.3715
  862MOL0     C16274   1.870   9.763   6.341  0.4229 -0.3859 -0.5203
  862MOL0     C16275   2.016   9.810   6.375  0.3727 -0.9653 -0.4701
  862MOL0     C16276   2.081   9.894   6.267 -0.3542  0.7895  0.0576
  862MOL0     C16277   2.100   9.808   6.142 -0.4081  0.3434 -0.1911
  862MOL0     C16278   2.149   9.884   6.015  0.5258 -0.7467  0.0593
  862MOL0     C16279   2.165   9.779   5.906 -0.1739 -1.1023 -0.6695
  862MOL0    Cl16280   2.009   9.726   5.844  0.0723 -0.6799 -0.2327
  862MOL0     C16281   1.520   9.406   6.276 -0.0360 -1.0743  0.0536
  862MOL0     C16282   1.431   9.318   6.211  0.2665 -0.3917  0.0858
  862MOL0     O16283   1.509   9.033   5.974 -0.3188  0.0018  0.4273
  862MOL0     C16284   1.200   9.006   6.138 -0.5384  0.0904 -0.4333
  862MOL0     C16285   1.097   8.921   6.176  0.1941  0.7628  0.0968
  862MOL0     N16286   1.142   8.215   6.010  0.0152 -1.6313  0.4419
  862MOL0     N16287   1.268   8.219   6.038  0.2370  1.1706 -0.3150
  862MOL0     C16288   2.130   8.439   6.077  1.1838  0.0750 -0.4437
  862MOL0     C16289   2.145   8.387   6.205 -0.2572  0.0660 -0.7992
  862MOL0     C16290   1.993   8.235   6.609 -0.6371 -0.5349  1.4908
  862MOL0     C16291   2.114   8.219   6.670 -0.4311  0.2105  0.0440
  862MOL0     C16292   2.113   8.194   6.809  0.9204 -1.1454 -0.2545
  862MOL0     C16293   2.002   8.178   6.883  0.8964  0.0716  0.0333
  862MOL0     O16294   2.010   8.143   7.013 -0.4411 -0.2472  0.1795
  862MOL0     C16295   1.950   8.242   7.097 -0.0371  0.2938  0.7368
  862MOL0     C16296   1.859   8.181   7.200 -0.0224  0.0000 -0.5681
  862MOL0     C16297   1.763   8.279   7.274  0.2260 -0.8614  0.0944
  862MOL0     C16298   1.673   8.363   7.170  0.3604  0.2083  0.7856
  862MOL0     C16299   1.592   8.272   7.083  0.3117 -0.7323 -0.3279
  862MOL0     C16300   1.534   8.180   7.025 -0.1459 -0.4657 -0.6540
  862MOL0     C16301   1.876   8.191   6.818 -0.1864  0.1200 -0.5691
  862MOL0     C16302   1.877   8.212   6.678 -0.3132  0.5322 -0.3656
  862MOL0     H16303   1.999   8.093   6.202  3.6163 -0.7618 -0.6055
  862MOL0     H16304   1.942   8.177   5.961 -1.2222  0.5396 -0.2588
  862MOL0     H16305   2.056   8.583   5.892 -0.4562 -1.9259  1.3397
  862MOL0     H16306   2.040   8.527   5.726  1.3142  3.2049  0.3801
  862MOL0     H16307   1.867   8.674   5.803 -0.3391  0.6316  0.7048
  862MOL0     H16308   1.791   8.524   5.752 -0.2319 -0.0391  0.0767
  862MOL0     H16309   1.786   8.456   6.015 -0.2021  0.0398  1.0929
  862MOL0     H16310   1.862   8.603   6.046  1.4268  2.3849 -1.0832
  862MOL0     H16311   1.669   8.736   5.959 -0.1670 -0.6319 -1.9177
  862MOL0     H16312   1.599   8.597   5.886  0.9796 -1.4537 -0.4340
  862MOL0     H16313   1.638   8.627   6.188 -0.6618  0.0547 -1.0795
  862MOL0     H16314   1.491   8.672   6.097 -1.4810 -0.9466 -2.5089
  862MOL0     H16315   1.419   8.462   6.030 -2.5141 -3.2875  2.0022
  862MOL0     H16316   1.590   8.398   6.052  0.0293 -0.9443  2.9723
  862MOL0     H16317   1.554   8.400   6.302 -0.0529 -1.9659  1.0114
  862MOL0     H16318   1.388   8.467   6.285 -1.4531 -2.3158  0.1689
  862MOL0     H16319   1.388   8.226   6.324 -0.3700 -0.7976 -0.6989
  862MOL0     H16320   1.480   8.206   6.166  0.8686 -0.6960  1.4214
  862MOL0     H16321   1.134   8.344   6.310  2.0890 -3.3265  1.1928
  862MOL0     H16322   0.871   8.291   6.039  1.4140 -0.2722 -1.2662
  862MOL0     H16323   0.895   8.164   6.160  0.9864  0.5138  3.9715
  862MOL0     H16324   0.894   8.327   6.336  2.1045  0.1845 -0.5697
  862MOL0     H16325   0.755   8.327   6.236 -0.7698  1.2566  0.3803
  862MOL0     H16326   0.826   8.559   6.293 -0.8899  3.9236 -2.0298
  862MOL0     H16327   0.794   8.529   6.124 -0.1644 -1.3580 -0.8892
  862MOL0     H16328   1.010   8.526   6.047 -0.2976  0.4932 -0.1008
  862MOL0     H16329   1.095   8.555   6.191  1.3126 -0.2589 -3.4576
  862MOL0     H16330   1.147   8.654   5.985 -1.1891 -0.9375  2.5161
  862MOL0     H16331   1.367   8.673   5.854  0.0349 -0.2090  0.0071
  862MOL0     H16332   1.288   8.785   5.745 -0.9469 -1.4372 -0.1278
  862MOL0     H16333   1.439   8.833   5.822  0.0077 -0.6253  1.9596
  862MOL0     H16334   1.593   9.291   5.918  3.5308 -2.0904  1.6764
  862MOL0     H16335   1.744   9.449   6.033  0.3378 -0.6466  0.5400
  862MOL0     H16336   1.619   9.676   6.356  0.1173  0.7475 -0.8263
  862MOL0     H16337   1.650   9.536   6.469  0.8335  2.5991  1.9347
  862MOL0     H16338   1.808   9.739   6.544  5.4161 -0.4050  0.6348
  862MOL0     H16339   1.896   9.606   6.485 -1.5011 -2.2399 -0.7705
  862MOL0     H16340   1.797   9.842   6.317  1.5110  0.3585 -1.4909
  862MOL0     H16341   1.877   9.701   6.251 -0.1692 -0.2999 -0.6313
  862MOL0     H16342   2.016   9.870   6.466  0.2574  1.5799 -2.0540
  862MOL0     H16343   2.071   9.722   6.410  2.2134 -0.2036 -1.3447
  862MOL0     H16344   2.180   9.933   6.293  1.0468 -1.7461 -1.0319
  862MOL0     H16345   2.003   9.969   6.251 -2.0827 -1.1795 -1.1239
  862MOL0     H16346   2.167   9.724   6.165 -2.9706 -1.4391  1.3201
  862MOL0     H16347   2.008   9.756   6.114 -0.9163  2.6339 -3.2970
  862MOL0     H16348   2.248   9.927   6.034  0.8115 -0.2501 -2.1947
  862MOL0     H16349   2.090   9.965   5.972  1.0081  0.3930  1.4658
  862MOL0     H16350   2.208   9.690   5.953 -1.2304 -1.3594 -0.1566
  862MOL0     H16351   2.222   9.819   5.822  1.8614 -1.2469  0.5786
  862MOL0     H16352   1.489   9.446   6.372  2.6525  2.4071 -0.3045
  862MOL0     H16353   1.340   9.283   6.259 -1.4928  3.8597  0.2322
  862MOL0     H16354   1.209   9.096   6.199 -3.1864  1.7859 -2.3265
  862MOL0     H16355   1.035   8.940   6.264 -1.0371  3.0904 -1.1552
  862MOL0     H16356   2.162   8.540   6.053 -0.0851  0.6740  0.2866
  862MOL0     H16357   2.200   8.440   6.282  2.4904 -1.6472 -1.4175
  862MOL0     H16358   2.207   8.209   6.615 -0.9948  1.0806 -1.1007
  862MOL0     H16359   2.206   8.177   6.864 -0.2527  0.5874  2.4591
  862MOL0     H16360   2.033   8.288   7.151  2.1249 -3.1406  0.5950
  862MOL0     H16361   1.892   8.317   7.042  1.1400  2.6218  2.5142
  862MOL0     H16362   1.920   8.111   7.258 -1.0417 -0.0217  0.5145
  862MOL0     H16363   1.782   8.119   7.152 -0.9823  0.3810  0.4271
  862MOL0     H16364   1.821   8.345   7.340  1.2441  0.1441 -1.7369
  862MOL0     H16365   1.686   8.235   7.338 -0.7565  1.2733  0.4800
  862MOL0     H16366   1.733   8.424   7.102  0.1206 -0.2694  0.1318
  862MOL0     H16367   1.603   8.427   7.225  0.7592 -0.4971  2.1636
  862MOL0     H16368   1.482   8.099   6.978 -1.1009 -1.0541  1.2975
  862MOL0     H16369   1.786   8.185   6.877 -0.1862 -2.7867 -0.7604
  862MOL0     H16370   1.783   8.243   6.633 -0.0937 -0.3252 -1.4494
  863MOL0     O16371   1.251   7.253   7.327  0.1122  0.3126 -0.9436
  863MOL0     C16372   1.351   7.227   7.258  0.7604 -0.3983  0.1930
  863MOL0     O16373   1.342   7.183   7.124 -0.2716 -0.0679 -0.6831
  863MOL0     C16374   1.212   7.152   7.077 -0.1180  0.8243  0.5465
  863MOL0     C16375   1.147   7.028   7.090 -0.5609  0.0806 -0.4217
  863MOL0     C16376   1.022   7.009   7.038  0.0219 -0.2642  0.3590
  863MOL0     C16377   0.958   7.102   6.957 -0.5353 -1.1340  0.2993
  863MOL0     O16378   0.838   7.075   6.906 -0.7950  0.7318 -0.6420
  863MOL0     C16379   0.818   7.126   6.774 -0.2077 -0.1961  0.1559
  863MOL0     C16380   0.694   7.059   6.711  0.2709 -0.0240  0.2014
  863MOL0     C16381   0.566   7.087   6.797  1.0992 -0.5370 -1.6829
  863MOL0     C16382   0.434   7.069   6.723  0.5531 -0.1080 -0.6888
  863MOL0     C16383   0.397   7.185   6.637 -1.0313 -0.8028 -0.2172
  863MOL0     C16384   0.373   7.309   6.720  0.6894 -0.6447  0.3969
  863MOL0     C16385   0.303   7.419   6.637  0.4023  0.3122  1.0242
  863MOL0     C16386   0.225   7.523   6.726 -0.3071  0.3677 -0.6006
  863MOL0     N16387   0.168   7.635   6.650  0.1743 -1.5951  0.0312
  863MOL0     C16388   0.063   7.638   6.558 -0.3570 -0.4249 -0.1972
  863MOL0     C16389   0.021   7.763   6.561 -0.0521 -0.4891  0.5235
  863MOL0     C16390  -0.079   7.830   6.472 -0.2813  0.5766  0.1345
  863MOL0     C16391  -0.009   7.944   6.392 -0.2269 -0.2240 -1.3198
  863MOL0     C16392   0.008   8.077   6.474  0.4917  0.4552 -0.8541
  863MOL0     C16393   0.041   8.195   6.370 -0.4560  0.3322 -0.8827
  863MOL0     O16394   0.162   8.148   6.306  0.2481 -0.6009  0.6525
  863MOL0     C16395   0.230   8.228   6.216  0.6845 -0.2664 -0.7654
  863MOL0     C16396   0.183   8.354   6.172 -0.1348  0.1228  0.3674
  863MOL0     C16397   0.242   8.436   6.076 -0.2698 -0.6941 -0.2640
  863MOL0     C16398   0.163   8.560   6.023 -0.9992  0.7152 -0.2118
  863MOL0     C16399   0.373   8.405   6.038 -1.4626 -0.2462  0.7221
  863MOL0     C16400   0.466   8.490   5.957  0.0812 -0.5774 -0.6445
  863MOL0     O16401   0.533   8.426   5.859  0.4478  1.3172 -0.4316
  863MOL0     C16402   0.633   8.475   5.783 -0.0316  0.1809 -0.0891
  863MOL0     C16403   0.671   8.396   5.674 -0.2605 -0.1117 -0.4305
  863MOL0     C16404   0.780   8.435   5.591  1.7290  0.6542 -0.8951
  863MOL0     C16405   0.863   8.534   5.646 -0.5195  0.2805 -0.3526
  863MOL0     O16406   0.989   8.552   5.601 -0.8014  0.2828  0.3764
  863MOL0     C16407   1.095   8.479   5.665  0.1195 -0.0445 -0.3151
  863MOL0     C16408   1.234   8.474   5.606 -0.2520 -0.8254  0.6390
  863MOL0     C16409   1.312   8.340   5.642  0.1194 -0.8293  0.3614
  863MOL0     C16410   1.450   8.333   5.596  0.6164 -0.1035  0.4918
  863MOL0     C16411   1.524   8.225   5.660 -0.6070  0.2617 -0.4049
  863MOL0     C16412   1.663   8.204   5.589  0.0052  0.1413  0.0319
  863MOL0     C16413   1.747   8.095   5.642  1.1417  0.1034  0.5404
  863MOL0     C16414   1.894   8.106   5.617 -0.3527 -0.0488 -0.2239
  863MOL0    Cl16415   1.997   7.981   5.682  0.1589  0.4490 -0.3771
  863MOL0     C16416   0.820   8.608   5.755 -0.0205  1.0983  0.0147
  863MOL0     C16417   0.702   8.590   5.820 -0.1673  0.1685  0.5711
  863MOL0     O16418   0.462   8.611   5.973  1.0608  0.1510  0.4895
  863MOL0     C16419   0.430   8.283   6.097 -0.0956 -0.6243  0.3542
  863MOL0     C16420   0.353   8.191   6.163 -0.1482  0.1802  0.4081
  863MOL0     N16421   0.076   7.831   6.667 -0.8430 -1.2189 -0.1614
  863MOL0     N16422   0.168   7.759   6.717  0.0910  0.1997  0.6350
  863MOL0     C16423   1.019   7.229   6.945 -0.4089 -0.4483 -0.6165
  863MOL0     C16424   1.146   7.255   7.007 -0.4977  0.4363  0.5733
  863MOL0     C16425   1.485   7.271   7.307 -0.0451  0.8177 -0.5190
  863MOL0     C16426   1.517   7.344   7.431  0.1165 -0.1378  0.4497
  863MOL0     C16427   1.641   7.387   7.460 -0.9009  0.4137  0.1133
  863MOL0     C16428   1.749   7.345   7.379  0.3518 -0.3818 -0.2691
  863MOL0     O16429   1.872   7.392   7.427  0.2128  0.1629  0.1049
  863MOL0     C16430   1.983   7.324   7.364 -0.2554  0.7169  0.5484
  863MOL0     C16431   2.114   7.345   7.443 -0.1629 -0.3164 -0.2604
  863MOL0     C16432   2.231   7.264   7.375  1.0728 -0.3723 -0.2712
  863MOL0     C16433   2.355   7.237   7.460  1.1058  0.9561  0.1636
  863MOL0     C16434   2.309   7.166   7.586  0.0139 -0.0861  0.0489
  863MOL0     C16435   2.277   7.097   7.679 -0.3298 -0.3182 -0.6831
  863MOL0     C16436   1.720   7.276   7.260 -0.6806 -0.2106  0.2690
  863MOL0     C16437   1.589   7.238   7.224 -0.0335  0.4059  0.3707
  863MOL0     H16438   1.197   6.950   7.146 -1.1213 -0.0747 -0.1279
  863MOL0     H16439   0.969   6.915   7.047  1.8465 -1.2627  1.3252
  863MOL0     H16440   0.796   7.233   6.777 -0.2160 -0.2029  0.4126
  863MOL0     H16441   0.902   7.109   6.707  0.7486 -0.7579  1.4452
  863MOL0     H16442   0.693   7.101   6.611 -2.1723 -0.6004 -0.0691
  863MOL0     H16443   0.694   6.950   6.705  1.3575 -0.1510  1.7479
  863MOL0     H16444   0.549   7.018   6.881 -1.3011 -0.2333 -1.8386
  863MOL0     H16445   0.574   7.184   6.848 -3.0748 -1.6473  1.7254
  863MOL0     H16446   0.447   6.978   6.663  1.8681 -0.6927  0.4163
  863MOL0     H16447   0.351   7.044   6.790  1.0636 -2.0417 -0.7254
  863MOL0     H16448   0.484   7.209   6.575  0.3258  2.8175  2.7249
  863MOL0     H16449   0.310   7.161   6.576 -0.9398 -1.9451  0.0764
  863MOL0     H16450   0.323   7.280   6.813  4.4829 -1.7202  2.3134
  863MOL0     H16451   0.468   7.361   6.732 -0.2252  2.3406 -3.2777
  863MOL0     H16452   0.380   7.471   6.579 -0.8627  1.0883 -0.0355
  863MOL0     H16453   0.233   7.370   6.568  3.4691 -0.2879 -1.9220
  863MOL0     H16454   0.291   7.554   6.806  0.4134  1.2454 -1.5120
  863MOL0     H16455   0.139   7.473   6.773 -0.8406  1.2593 -0.6096
  863MOL0     H16456   0.023   7.559   6.496  0.5019 -2.5407  1.7904
  863MOL0     H16457  -0.122   7.754   6.407  1.4430  0.6508 -1.1782
  863MOL0     H16458  -0.156   7.871   6.537 -1.2362  0.4542 -0.9029
  863MOL0     H16459  -0.077   7.968   6.310 -0.6079 -0.8087 -1.1812
  863MOL0     H16460   0.087   7.916   6.349  1.0725  0.7819  0.7593
  863MOL0     H16461   0.098   8.058   6.533 -0.3446 -2.4685 -0.3749
  863MOL0     H16462  -0.081   8.108   6.531  0.6228  1.6740 -1.2722
  863MOL0     H16463   0.044   8.282   6.436 -1.8671 -0.6579  0.5910
  863MOL0     H16464  -0.039   8.207   6.297  1.0550 -2.4312 -3.1826
  863MOL0     H16465   0.082   8.376   6.204  0.1652 -0.5149  1.8458
  863MOL0     H16466   0.193   8.577   5.920 -2.1462 -1.3691 -0.9389
  863MOL0     H16467   0.055   8.543   6.019 -0.9878  0.0795  1.3208
  863MOL0     H16468   0.188   8.649   6.082  1.3201 -0.4062  0.6538
  863MOL0     H16469   0.609   8.309   5.658  0.6097 -0.6015 -1.2412
  863MOL0     H16470   0.802   8.389   5.495  0.0219  2.2147 -2.1176
  863MOL0     H16471   1.108   8.531   5.760 -0.1488  0.0381 -0.3227
  863MOL0     H16472   1.074   8.372   5.679 -1.6699  0.4102  0.8871
  863MOL0     H16473   1.225   8.475   5.497  1.8819  0.8607  0.4105
  863MOL0     H16474   1.286   8.570   5.619 -2.1087  0.3602 -0.1417
  863MOL0     H16475   1.260   8.259   5.589  2.7588 -0.2599 -3.5109
  863MOL0     H16476   1.302   8.331   5.751  2.3921  2.7216  1.0382
  863MOL0     H16477   1.451   8.318   5.488 -0.4329 -1.9715  0.7026
  863MOL0     H16478   1.502   8.428   5.616  2.8676 -0.5236 -2.7699
  863MOL0     H16479   1.468   8.132   5.655 -0.3474  0.0313  0.7209
  863MOL0     H16480   1.536   8.249   5.766 -1.5095 -2.1820  0.2910
  863MOL0     H16481   1.647   8.188   5.482 -1.5046  3.4429 -0.3412
  863MOL0     H16482   1.733   8.288   5.599 -0.1675  0.3614 -0.6243
  863MOL0     H16483   1.732   7.999   5.592  0.5373  0.8804 -0.8429
  863MOL0     H16484   1.733   8.092   5.750  0.5737  1.1836  0.5077
  863MOL0     H16485   1.931   8.200   5.658  2.2475 -0.5590 -1.2364
  863MOL0     H16486   1.917   8.109   5.510 -1.3589  0.7200 -0.4413
  863MOL0     H16487   0.898   8.657   5.811  0.1048 -1.1297  1.9748
  863MOL0     H16488   0.699   8.641   5.916  0.0973 -1.4165  1.4484
  863MOL0     H16489   0.534   8.253   6.081 -0.4465 -2.1985  0.8738
  863MOL0     H16490   0.400   8.095   6.178  0.6079  0.9570  4.1112
  863MOL0     H16491   0.979   7.309   6.884  1.9817  0.0978 -1.5762
  863MOL0     H16492   1.189   7.354   7.000 -1.9076  1.0762  0.5269
  863MOL0     H16493   1.448   7.379   7.507  1.2117  4.1496 -0.2625
  863MOL0     H16494   1.664   7.448   7.546  3.7121  0.4455 -0.8498
  863MOL0     H16495   1.970   7.215   7.366  2.1203  0.3950  0.4390
  863MOL0     H16496   1.993   7.373   7.267  2.8995 -0.0387  0.3822
  863MOL0     H16497   2.092   7.306   7.542  0.9763 -0.1863  0.0609
  863MOL0     H16498   2.140   7.449   7.464  1.1518 -0.5245 -0.7543
  863MOL0     H16499   2.257   7.310   7.279  0.4037  0.8923  0.1257
  863MOL0     H16500   2.201   7.162   7.351  2.0953 -1.1603  1.5676
  863MOL0     H16501   2.402   7.331   7.490  0.4661  0.4195  3.1730
  863MOL0     H16502   2.424   7.171   7.407  1.9641  2.4009 -0.5677
  863MOL0     H16503   2.248   7.025   7.752 -0.3129 -0.1147 -0.4748
  863MOL0     H16504   1.803   7.242   7.200 -0.0486 -0.0798  1.0511
  863MOL0     H16505   1.571   7.185   7.131 -0.0655 -1.1063  1.2058
  864MOL0     O16506  10.502   7.269   3.246  0.1056  0.0460  0.0489
  864MOL0     C16507  10.602   7.264   3.177 -0.6144  0.1941  0.4740
  864MOL0     O16508  10.665   7.148   3.135 -0.4328 -0.9301 -0.1928
  864MOL0     C16509  10.608   7.025   3.161 -0.3741 -0.1043 -0.2185
  864MOL0     C16510  10.575   6.936   3.062 -0.4959  0.6615 -0.7520
  864MOL0     C16511  10.529   6.804   3.084  0.0774  0.6104 -0.9578
  864MOL0     C16512  10.514   6.763   3.219 -0.1872  0.3381 -0.0230
  864MOL0     O16513  10.466   6.631   3.238  0.4635 -0.1541 -0.9663
  864MOL0     C16514  10.547   6.549   3.329  0.3921  0.3145 -0.9261
  864MOL0     C16515  10.507   6.406   3.310 -0.4065  0.4764 -0.2476
  864MOL0     C16516  10.410   6.347   3.413  0.6002 -0.3834 -0.0259
  864MOL0     C16517  10.270   6.417   3.399  0.1004  0.1098  0.1347
  864MOL0     C16518  10.167   6.340   3.483 -0.8612 -0.6647  0.6173
  864MOL0     C16519  10.139   6.195   3.449 -0.7763 -0.5421 -0.5640
  864MOL0     C16520  10.050   6.127   3.560 -0.0322 -0.2098  0.6717
  864MOL0     C16521  10.019   5.995   3.498  0.1774  0.7933 -0.5442
  864MOL0     N16522   9.905   5.943   3.575 -0.2532  0.6298  0.6033
  864MOL0     C16523   9.916   5.865   3.690 -0.9980  0.5852 -0.1688
  864MOL0     C16524   9.796   5.796   3.691  0.0117  0.0798 -0.0256
  864MOL0     C16525   9.739   5.694   3.775 -0.1064  0.0540 -0.4967
  864MOL0     C16526   9.812   5.653   3.898  0.5287 -0.6288 -0.7669
  864MOL0     C16527   9.853   5.772   3.992  0.1366  1.0214 -0.4545
  864MOL0     C16528   9.733   5.839   4.047  0.7661 -0.7362  0.4356
  864MOL0     O16529   9.677   5.917   3.944 -0.6972 -0.0357  0.0575
  864MOL0     C16530   9.582   6.017   3.958 -0.0939  0.3940 -0.0538
  864MOL0     C16531   9.529   6.068   4.071 -1.0245 -0.3349 -0.5220
  864MOL0     C16532   9.437   6.166   4.077  0.4187 -0.1788 -0.4213
  864MOL0     C16533   9.381   6.194   4.221  0.3224  0.0976 -0.8213
  864MOL0     C16534   9.380   6.223   3.954 -0.3132  0.0930  0.9179
  864MOL0     C16535   9.287   6.337   3.943  0.0872 -0.0516  0.1062
  864MOL0     O16536   9.226   6.369   3.830  0.3650  0.1220  0.1990
  864MOL0     C16537   9.166   6.488   3.799  0.2566  0.0019 -0.5455
  864MOL0     C16538   9.082   6.477   3.686  0.0768 -0.5482  0.4594
  864MOL0     C16539   9.029   6.596   3.623 -0.1184  0.4827  0.4561
  864MOL0     C16540   9.046   6.721   3.681  0.1359  0.2932 -0.1046
  864MOL0     O16541   8.987   6.833   3.623  0.1052 -0.2404 -0.5040
  864MOL0     C16542   8.844   6.855   3.631  0.2513 -0.8460 -0.0182
  864MOL0     C16543   8.779   6.845   3.494 -0.1038  0.8715 -0.0818
  864MOL0     C16544   8.628   6.832   3.521 -0.3292 -0.5530 -0.4509
  864MOL0     C16545   8.545   6.853   3.395 -0.3738  0.1484  1.1673
  864MOL0     C16546   8.400   6.809   3.426 -0.4265  0.1982 -0.6282
  864MOL0     C16547   8.332   6.912   3.514  0.1683 -0.4334 -0.2566
  864MOL0     C16548   8.274   7.041   3.444 -0.5035  1.1413 -0.3121
  864MOL0     C16549   8.220   7.147   3.538 -0.2000  0.0587 -0.3812
  864MOL0    Cl16550   8.313   7.143   3.688 -0.0084  0.5988 -0.2281
  864MOL0     C16551   9.124   6.726   3.797  0.3745  0.3447 -0.0691
  864MOL0     C16552   9.185   6.607   3.852  0.2688  0.5315  0.2142
  864MOL0     O16553   9.291   6.412   4.044  0.0301 -0.0743 -0.1665
  864MOL0     C16554   9.444   6.177   3.829  0.7090 -0.1151  0.4591
  864MOL0     C16555   9.537   6.073   3.838  0.6452  0.3791 -0.3109
  864MOL0     N16556   9.720   5.851   3.586  0.2281  0.6511  0.0238
  864MOL0     N16557   9.776   5.944   3.522 -0.2610  0.6391 -0.4692
  864MOL0     C16558  10.544   6.850   3.324 -0.1662 -0.1874 -0.2247
  864MOL0     C16559  10.595   6.977   3.297  1.0773  0.2656  0.1699
  864MOL0     C16560  10.654   7.394   3.139 -0.1344  0.3299 -0.0421
  864MOL0     C16561  10.642   7.499   3.233  0.1709  0.5683  0.4370
  864MOL0     C16562  10.692   7.627   3.205 -0.1358 -0.2488  1.1856
  864MOL0     C16563  10.758   7.650   3.083  0.4809  0.2173 -0.0997
  864MOL0     O16564  10.829   7.771   3.057  0.9172  0.6025 -0.5862
  864MOL0     C16565  10.759   7.840   2.954 -1.0848  0.7850 -0.6011
  864MOL0     C16566  10.851   7.930   2.880  0.0629 -0.1345 -0.0979
  864MOL0     C16567  10.908   8.045   2.967  1.1328  0.5591  1.0950
  864MOL0     C16568  11.014   8.117   2.882 -0.4286  0.0736  0.7183
  864MOL0     C16569  11.050   8.228   2.969 -0.7296 -0.4860 -0.3827
  864MOL0     C16570  11.067   8.334   3.034  0.5114  0.7329  0.5928
  864MOL0     C16571  10.780   7.541   2.996 -0.0620  0.1410  0.2230
  864MOL0     C16572  10.737   7.416   3.029  0.1348  0.2724 -0.0601
  864MOL0     H16573  10.580   6.958   2.956 -0.4981  2.4704 -0.3935
  864MOL0     H16574  10.499   6.738   3.004  0.7623  0.5168 -1.1477
  864MOL0     H16575  10.651   6.561   3.299 -0.0352  2.0314 -1.8861
  864MOL0     H16576  10.547   6.582   3.434  3.5594 -1.5001 -0.2218
  864MOL0     H16577  10.478   6.388   3.206 -3.2615 -0.8959  0.6781
  864MOL0     H16578  10.604   6.358   3.324  0.7519  3.1576  1.6226
  864MOL0     H16579  10.411   6.238   3.402  1.0100 -0.1370 -3.2997
  864MOL0     H16580  10.445   6.380   3.511 -0.2281  0.6535 -0.0612
  864MOL0     H16581  10.281   6.520   3.434 -1.8921  0.0991  0.9311
  864MOL0     H16582  10.241   6.409   3.294  1.2855  1.5082 -0.3197
  864MOL0     H16583  10.196   6.338   3.588 -2.3180  0.9175  1.1003
  864MOL0     H16584  10.078   6.404   3.485 -1.4765 -1.5216  1.7762
  864MOL0     H16585  10.090   6.198   3.351 -1.7684  0.7982 -0.0483
  864MOL0     H16586  10.226   6.128   3.441 -1.0195 -1.1270  1.3275
  864MOL0     H16587  10.102   6.128   3.656 -0.8993  0.0615  1.1495
  864MOL0     H16588   9.961   6.187   3.578 -0.4838 -0.8107  0.4884
  864MOL0     H16589  10.109   5.933   3.500  0.1519  0.7458 -0.8758
  864MOL0     H16590   9.993   6.003   3.392  2.0591  0.9645 -1.0275
  864MOL0     H16591  10.010   5.864   3.745  0.6146  2.0102 -2.7285
  864MOL0     H16592   9.634   5.711   3.802 -0.4465 -3.7054  1.2575
  864MOL0     H16593   9.715   5.604   3.717 -0.6044  0.0532 -0.3001
  864MOL0     H16594   9.902   5.598   3.866  3.1706  3.5174 -1.2876
  864MOL0     H16595   9.749   5.590   3.961 -1.4501  2.4449  0.5625
  864MOL0     H16596   9.910   5.839   3.927 -0.6224  0.4340 -1.7753
  864MOL0     H16597   9.905   5.725   4.076  2.5102 -0.7509 -2.6868
  864MOL0     H16598   9.760   5.902   4.132 -0.3986  0.4837 -0.0562
  864MOL0     H16599   9.654   5.771   4.081 -0.3668  1.0546  1.6057
  864MOL0     H16600   9.559   6.028   4.167  2.0710 -0.2322 -1.3526
  864MOL0     H16601   9.275   6.221   4.221  0.0260 -0.6718  1.9704
  864MOL0     H16602   9.397   6.116   4.297  1.0359  3.0860  2.3836
  864MOL0     H16603   9.437   6.280   4.260  1.0418  0.4010 -2.4323
  864MOL0     H16604   9.056   6.377   3.653  0.2260 -0.9930  1.6399
  864MOL0     H16605   8.953   6.578   3.547 -0.9987 -1.3246  1.6898
  864MOL0     H16606   8.793   6.786   3.699  2.0935  0.1791  2.5933
  864MOL0     H16607   8.825   6.956   3.671 -2.7289 -1.8910  1.5364
  864MOL0     H16608   8.805   6.936   3.438  2.1086 -0.4617 -1.3700
  864MOL0     H16609   8.821   6.761   3.437  1.5522  2.4079 -1.2558
  864MOL0     H16610   8.608   6.903   3.602  0.3285 -1.4023  0.4791
  864MOL0     H16611   8.608   6.733   3.566 -1.2558  1.3438  3.8884
  864MOL0     H16612   8.539   6.956   3.358  2.9258 -0.5663 -2.0173
  864MOL0     H16613   8.592   6.795   3.315 -0.0329  2.0245 -0.0679
  864MOL0     H16614   8.407   6.710   3.473 -0.6398  0.6457  0.3628
  864MOL0     H16615   8.341   6.803   3.334 -0.0690 -0.5091 -0.8201
  864MOL0     H16616   8.255   6.865   3.576 -0.5268  3.1379  1.8584
  864MOL0     H16617   8.408   6.947   3.585  0.5699 -2.2067  0.2488
  864MOL0     H16618   8.193   7.013   3.376 -1.8596  0.6596  1.4400
  864MOL0     H16619   8.350   7.083   3.377 -1.4418  0.6772 -1.7136
  864MOL0     H16620   8.117   7.123   3.565  0.8028 -0.9624  3.0273
  864MOL0     H16621   8.229   7.241   3.483  0.6663 -2.8447 -5.9831
  864MOL0     H16622   9.138   6.827   3.836 -1.0014  1.1947 -1.6468
  864MOL0     H16623   9.244   6.628   3.941 -1.2633  0.9768  1.1546
  864MOL0     H16624   9.410   6.231   3.742  0.9996 -1.1914 -0.3452
  864MOL0     H16625   9.581   6.029   3.749  3.2836  1.3393  0.4456
  864MOL0     H16626  10.518   6.809   3.421  0.1938  2.7287  1.2050
  864MOL0     H16627  10.630   7.045   3.375  0.3118  1.0631 -0.1660
  864MOL0     H16628  10.590   7.489   3.328  0.2200 -0.8175  0.3410
  864MOL0     H16629  10.682   7.704   3.281  1.3814 -0.6056  1.7827
  864MOL0     H16630  10.713   7.775   2.880 -2.7242  1.7074 -0.4341
  864MOL0     H16631  10.675   7.901   2.988 -1.3522  0.5251 -0.7933
  864MOL0     H16632  10.816   7.968   2.784  1.4805  0.3824 -0.4396
  864MOL0     H16633  10.934   7.864   2.852 -1.0476 -2.3394  1.5894
  864MOL0     H16634  10.938   8.015   3.068  3.1707  0.4482  0.5072
  864MOL0     H16635  10.820   8.107   2.984 -0.9516 -0.9415 -2.9074
  864MOL0     H16636  10.969   8.156   2.790 -1.0705  1.2547  1.5074
  864MOL0     H16637  11.102   8.057   2.854 -0.5340  0.7752 -1.2650
  864MOL0     H16638  11.078   8.418   3.100 -2.2541  1.3414  0.4252
  864MOL0     H16639  10.835   7.554   2.903  0.9046 -0.9400  0.6280
  864MOL0     H16640  10.764   7.336   2.960  0.7446 -0.2368  0.7517
  865MOL0     O16641  10.431   8.950   4.761 -0.1533  0.0419 -0.9448
  865MOL0     C16642  10.424   8.994   4.648  0.5540 -0.3439 -0.6563
  865MOL0     O16643  10.463   9.116   4.618  0.0798 -0.0924  0.5706
  865MOL0     C16644  10.472   9.212   4.714 -0.2781  0.0975  0.4477
  865MOL0     C16645  10.577   9.309   4.694 -0.2366 -0.1145  0.1114
  865MOL0     C16646  10.591   9.420   4.775 -0.7985 -0.4004  0.3773
  865MOL0     C16647  10.504   9.437   4.884 -0.4081  0.7179  0.3988
  865MOL0     O16648  10.511   9.530   4.988 -0.9224  0.0980 -0.6029
  865MOL0     C16649  10.578   9.653   4.947  0.4209  0.0695  0.5383
  865MOL0     C16650  10.592   9.763   5.052  0.1913 -0.5516  0.3122
  865MOL0     C16651  10.646   9.707   5.186 -0.0213  0.2641  0.3918
  865MOL0     C16652  10.666   9.822   5.294  0.4364 -0.3313  0.8363
  865MOL0     C16653  10.539   9.895   5.354  0.6702  1.0278  0.1520
  865MOL0     C16654  10.468   9.806   5.457  0.5682  0.4930  0.3164
  865MOL0     C16655  10.377   9.889   5.551 -0.1552 -0.2698  0.0796
  865MOL0     C16656  10.280   9.807   5.637 -0.3512 -0.7106 -0.3001
  865MOL0     N16657  10.356   9.712   5.721  0.1424  0.3105 -0.4099
  865MOL0     C16658  10.446   9.750   5.810 -0.2666 -0.2189 -0.2155
  865MOL0     C16659  10.525   9.643   5.830 -0.2807  0.3339 -0.1612
  865MOL0     C16660  10.654   9.627   5.901 -0.4155 -0.0351 -0.9740
  865MOL0     C16661  10.635   9.628   6.053 -1.1625 -0.0283  0.6479
  865MOL0     C16662  10.633   9.490   6.117 -0.1575  0.1425  0.4474
  865MOL0     C16663  10.508   9.402   6.093  0.0978  0.3500  0.4953
  865MOL0     O16664  10.495   9.288   6.174  0.5439 -0.2644 -0.0920
  865MOL0     C16665  10.373   9.210   6.164  0.6594 -0.0451  0.4500
  865MOL0     C16666  10.267   9.255   6.084  0.2645 -0.8383 -0.1248
  865MOL0     C16667  10.145   9.184   6.065 -0.7970  0.5615 -0.1547
  865MOL0     C16668  10.024   9.252   5.999  0.5139 -0.6759 -0.3402
  865MOL0     C16669  10.135   9.053   6.122  0.5541 -0.1442  0.4749
  865MOL0     C16670  10.012   8.974   6.121  1.1214  0.2789 -0.5117
  865MOL0     O16671  10.042   8.839   6.124  0.1263 -0.1246  0.1304
  865MOL0     C16672   9.960   8.746   6.066 -0.0302  0.1862 -0.0227
  865MOL0     C16673   9.920   8.645   6.144 -0.7062 -0.0960 -0.2661
  865MOL0     C16674   9.830   8.546   6.095  0.4670  0.3659 -0.5308
  865MOL0     C16675   9.788   8.551   5.964  0.8527 -0.8854  0.5156
  865MOL0     O16676   9.711   8.442   5.920  0.3103 -0.9599  0.3338
  865MOL0     C16677   9.665   8.433   5.782 -0.1118 -0.6654 -0.4769
  865MOL0     C16678   9.599   8.302   5.772  1.2888 -0.0215  0.0694
  865MOL0     C16679   9.531   8.280   5.642  0.0304 -0.2885  0.6979
  865MOL0     C16680   9.458   8.147   5.627  0.8375  0.7578 -0.1506
  865MOL0     C16681   9.385   8.130   5.498  0.6621 -0.0317 -0.0600
  865MOL0     C16682   9.479   8.113   5.378  0.3280 -1.0483 -0.6646
  865MOL0     C16683   9.409   8.061   5.261 -0.7047 -0.1167  1.6643
  865MOL0     C16684   9.489   8.082   5.131 -0.8140 -0.3149 -0.0386
  865MOL0    Cl16685   9.549   8.249   5.114  0.0281  0.1497 -0.1094
  865MOL0     C16686   9.831   8.655   5.883 -0.3089  0.2552  1.0569
  865MOL0     C16687   9.915   8.758   5.933 -0.6891  0.2799  0.2385
  865MOL0     O16688   9.900   9.010   6.128 -0.0886 -0.1462 -0.6360
  865MOL0     C16689  10.246   9.009   6.195  0.3371  0.2142  0.2632
  865MOL0     C16690  10.358   9.085   6.225  0.8123 -0.3039 -0.6381
  865MOL0     N16691  10.473   9.542   5.759  0.4517  1.2034 -0.0282
  865MOL0     N16692  10.375   9.582   5.682 -1.1252 -0.0286  0.0845
  865MOL0     C16693  10.407   9.342   4.912  0.8767  0.7490 -0.2392
  865MOL0     C16694  10.393   9.234   4.825 -0.6222  1.1354  0.0523
  865MOL0     C16695  10.401   8.904   4.540 -0.0499 -0.6230  1.0810
  865MOL0     C16696  10.310   8.796   4.546 -0.2340  0.5340 -1.2125
  865MOL0     C16697  10.304   8.696   4.450  0.4279 -0.1023  0.4746
  865MOL0     C16698  10.378   8.710   4.331  0.0590 -0.5011 -0.3495
  865MOL0     O16699  10.361   8.611   4.238 -0.2462 -0.2734  0.4379
  865MOL0     C16700  10.444   8.608   4.123 -0.4973  0.6906 -0.2934
  865MOL0     C16701  10.382   8.500   4.030 -0.2677  0.0275  0.0174
  865MOL0     C16702  10.449   8.486   3.899  0.6816  0.4283 -0.0826
  865MOL0     C16703  10.581   8.406   3.877  0.2598 -0.5070 -0.1660
  865MOL0     C16704  10.679   8.484   3.947 -0.8863 -0.9255 -0.8907
  865MOL0     C16705  10.762   8.560   3.994  0.5381  0.1856  1.2025
  865MOL0     C16706  10.474   8.818   4.321  0.3396  0.8564  0.4850
  865MOL0     C16707  10.488   8.904   4.427  1.1692  0.1638 -0.4240
  865MOL0     H16708  10.651   9.304   4.615 -2.1698  1.9989 -2.0097
  865MOL0     H16709  10.670   9.491   4.752 -1.5874  1.3129  2.6160
  865MOL0     H16710  10.677   9.630   4.908  0.0396  0.1755 -0.5252
  865MOL0     H16711  10.526   9.694   4.860 -0.5321 -0.0684  1.0307
  865MOL0     H16712  10.663   9.835   5.011  0.9550 -0.6111  1.4961
  865MOL0     H16713  10.501   9.818   5.074  0.9466  0.0912  1.9627
  865MOL0     H16714  10.575   9.630   5.219 -0.8812  0.7024 -0.3590
  865MOL0     H16715  10.743   9.661   5.170  1.6647  3.3090  1.0484
  865MOL0     H16716  10.728   9.785   5.377 -1.4347  1.2542  3.0963
  865MOL0     H16717  10.714   9.905   5.242  1.7366 -0.8438  1.1755
  865MOL0     H16718  10.565   9.992   5.396  1.2292  0.9041  0.0938
  865MOL0     H16719  10.472   9.926   5.273  1.7449  1.9178 -0.4215
  865MOL0     H16720  10.402   9.747   5.393 -1.0376  1.8759  0.6019
  865MOL0     H16721  10.544   9.752   5.514 -0.8825  0.1877  2.0757
  865MOL0     H16722  10.441   9.950   5.615 -1.4108  1.0648  0.1143
  865MOL0     H16723  10.322   9.956   5.484  0.8777  1.0948  0.5418
  865MOL0     H16724  10.221   9.751   5.564 -0.7539 -0.2001 -0.3720
  865MOL0     H16725  10.218   9.876   5.695  1.5739  0.3968  0.5099
  865MOL0     H16726  10.461   9.848   5.855 -0.1095 -0.0251 -0.6931
  865MOL0     H16727  10.697   9.533   5.866 -0.9901 -0.5669 -0.2909
  865MOL0     H16728  10.723   9.704   5.867 -0.5241 -0.8136 -3.1129
  865MOL0     H16729  10.536   9.673   6.067 -1.9517 -0.7098 -2.1797
  865MOL0     H16730  10.714   9.687   6.099  0.1102  2.0440 -3.7188
  865MOL0     H16731  10.649   9.519   6.222  1.2915  3.2620 -0.5168
  865MOL0     H16732  10.727   9.440   6.094  1.4209  0.9104  4.3518
  865MOL0     H16733  10.497   9.376   5.987  1.2287  0.6979  0.2779
  865MOL0     H16734  10.419   9.463   6.113 -1.1966 -1.3225  0.1219
  865MOL0     H16735  10.263   9.348   6.028  2.2642 -0.3917  0.3841
  865MOL0     H16736   9.960   9.186   5.940 -0.9000  0.9216 -0.6780
  865MOL0     H16737   9.959   9.295   6.076 -0.5461 -1.4267 -0.7881
  865MOL0     H16738  10.057   9.328   5.928  2.4608 -1.1586 -0.0121
  865MOL0     H16739   9.954   8.653   6.247  0.6413 -0.4748 -0.6630
  865MOL0     H16740   9.804   8.462   6.158 -1.2600  2.0842  1.1954
  865MOL0     H16741   9.601   8.520   5.765  3.4741  1.8011 -3.0370
  865MOL0     H16742   9.744   8.434   5.706 -1.6899 -2.1388 -2.2433
  865MOL0     H16743   9.680   8.229   5.771  0.5204 -0.8877 -0.0314
  865MOL0     H16744   9.532   8.288   5.858  2.0516  1.5909  0.9726
  865MOL0     H16745   9.600   8.289   5.557  0.1766 -0.5032  0.7944
  865MOL0     H16746   9.460   8.362   5.623 -0.4098 -0.7760  0.1671
  865MOL0     H16747   9.517   8.057   5.643 -1.7814 -1.7036 -3.0645
  865MOL0     H16748   9.377   8.145   5.702 -0.3011  0.5049 -1.3447
  865MOL0     H16749   9.323   8.217   5.475  1.7342  1.0751  1.0405
  865MOL0     H16750   9.315   8.047   5.503  1.4967 -0.8192 -0.9252
  865MOL0     H16751   9.522   8.210   5.351  0.6039 -1.1219 -0.4849
  865MOL0     H16752   9.568   8.052   5.390  0.7909  0.0087  2.1623
  865MOL0     H16753   9.306   8.098   5.254 -2.0237 -3.5661  0.7901
  865MOL0     H16754   9.381   7.955   5.270 -1.3595 -0.2582 -1.0956
  865MOL0     H16755   9.418   8.060   5.051 -0.2629  0.6631 -0.8270
  865MOL0     H16756   9.575   8.015   5.125  1.0770  1.9971 -0.2252
  865MOL0     H16757   9.806   8.653   5.778 -1.2264 -0.5578  1.2726
  865MOL0     H16758   9.940   8.839   5.865 -1.0726  0.8658  0.7868
  865MOL0     H16759  10.231   8.913   6.243  2.7695  0.1175  0.9546
  865MOL0     H16760  10.427   9.052   6.302  0.1331 -1.1549 -0.3686
  865MOL0     H16761  10.344   9.358   4.999  0.4766  4.6768 -1.0543
  865MOL0     H16762  10.316   9.158   4.832  1.4222 -1.1151 -0.5309
  865MOL0     H16763  10.253   8.796   4.638  0.4067 -1.4038 -0.7810
  865MOL0     H16764  10.227   8.620   4.446  0.0961  0.2654 -2.1285
  865MOL0     H16765  10.441   8.705   4.073 -2.1333 -0.5711 -2.8000
  865MOL0     H16766  10.545   8.587   4.160 -1.0383  1.4267  1.7450
  865MOL0     H16767  10.276   8.523   4.022 -0.2430  0.0199 -0.3327
  865MOL0     H16768  10.371   8.402   4.077 -2.5285  0.6004  0.7920
  865MOL0     H16769  10.464   8.584   3.853  1.8862 -0.4079 -1.5961
  865MOL0     H16770  10.379   8.434   3.834  1.7723 -0.3324 -0.6942
  865MOL0     H16771  10.600   8.396   3.769 -1.1587 -2.2832 -0.3098
  865MOL0     H16772  10.580   8.308   3.925  0.8666  0.2678  1.5042
  865MOL0     H16773  10.836   8.632   4.021  0.9672  0.8459 -1.4979
  865MOL0     H16774  10.525   8.836   4.227 -3.8653 -0.9827 -2.4480
  865MOL0     H16775  10.560   8.985   4.427 -0.1624  1.3910 -0.4109
  866MOL0     O16776  10.931   2.836   6.445 -0.7260  0.8074 -0.4607
  866MOL0     C16777  10.881   2.726   6.419 -0.0962  0.1434  0.5182
  866MOL0     O16778  10.845   2.691   6.294  0.7917 -0.7897 -0.0483
  866MOL0     C16779  10.869   2.765   6.184  0.5537  1.1049 -1.0515
  866MOL0     C16780  10.991   2.829   6.146 -1.6404 -0.2517 -1.5297
  866MOL0     C16781  11.013   2.904   6.032  0.3357  0.9501 -0.1156
  866MOL0     C16782  10.911   2.920   5.943 -0.4975  0.7074  0.2878
  866MOL0     O16783  10.948   2.994   5.832  0.7174 -0.1734 -0.2635
  866MOL0     C16784  10.910   2.940   5.698  0.0369  0.7517  0.4079
  866MOL0     C16785  11.025   2.926   5.597  0.1668 -0.3553  0.2446
  866MOL0     C16786  11.137   3.019   5.624 -0.7428  0.3274  0.1112
  866MOL0     C16787  11.246   2.970   5.538  0.0923 -1.2583  0.5415
  866MOL0     C16788  11.368   3.067   5.540 -0.9248  0.2499  1.0641
  866MOL0     C16789  11.491   2.986   5.482  0.0546 -0.4494  0.0336
  866MOL0     C16790  11.604   3.077   5.460 -0.1696 -0.2648 -0.1056
  866MOL0     C16791  11.733   3.008   5.435 -0.4087 -0.1131  0.7329
  866MOL0     N16792  11.855   3.092   5.453 -0.3208  0.3199  0.9962
  866MOL0     C16793  11.918   3.169   5.347  0.5508 -0.5585  0.5956
  866MOL0     C16794  12.019   3.234   5.407  0.1525 -0.2747  0.4409
  866MOL0     C16795  12.121   3.322   5.335 -0.2238 -0.0810 -0.1066
  866MOL0     C16796  12.095   3.472   5.357 -0.3186  1.0065  0.1746
  866MOL0     C16797  11.960   3.514   5.292  0.2780  0.4647 -0.7148
  866MOL0     C16798  11.957   3.488   5.144  0.1842  0.1485 -0.6676
  866MOL0     O16799  11.883   3.371   5.107  0.4527 -0.3543  0.4637
  866MOL0     C16800  11.875   3.346   4.970  0.8113  0.9003 -0.7996
  866MOL0     C16801  11.957   3.397   4.870 -0.0953  0.2625 -0.9861
  866MOL0     C16802  11.938   3.357   4.732  0.6078 -0.6792  1.1424
  866MOL0     C16803  12.033   3.414   4.627  0.4601  1.5374 -0.2822
  866MOL0     C16804  11.840   3.266   4.701 -0.2830  0.6724 -0.7244
  866MOL0     C16805  11.823   3.202   4.566  0.8471  0.1800  0.0725
  866MOL0     O16806  11.921   3.220   4.467  1.0732  0.0288 -0.4686
  866MOL0     C16807  11.912   3.146   4.353 -0.0897  0.2106 -0.2932
  866MOL0     C16808  11.799   3.118   4.278  0.5004 -0.2110  0.5055
  866MOL0     C16809  11.813   3.035   4.168  0.2198  0.1891 -0.0588
  866MOL0     C16810  11.918   2.957   4.137  0.0078  0.4861 -0.2169
  866MOL0     O16811  11.924   2.865   4.030 -1.0169 -0.6634 -0.6425
  866MOL0     C16812  12.006   2.903   3.919 -0.0677 -0.3533  0.0002
  866MOL0     C16813  11.976   2.811   3.811  0.1293  0.2926 -0.1428
  866MOL0     C16814  12.026   2.855   3.673 -0.5857 -0.6088  0.8247
  866MOL0     C16815  11.956   2.782   3.560 -1.1471 -0.0201  0.9114
  866MOL0     C16816  11.855   2.857   3.463 -0.2271  0.2186 -1.4708
  866MOL0     C16817  11.883   3.007   3.452 -0.3148 -0.4426  0.0252
  866MOL0     C16818  11.828   3.076   3.327  0.4945  0.1263 -0.6528
  866MOL0     C16819  11.675   3.108   3.334 -0.3711  0.0631 -0.4421
  866MOL0    Cl16820  11.648   3.228   3.470  0.4002 -0.2802  0.2679
  866MOL0     C16821  12.040   2.985   4.201 -0.6232  0.5841  0.3564
  866MOL0     C16822  12.035   3.084   4.304  0.4649 -0.3580 -0.4920
  866MOL0     O16823  11.726   3.122   4.549  0.6303  0.6516  0.6752
  866MOL0     C16824  11.757   3.215   4.797  0.1755 -0.4218 -1.0349
  866MOL0     C16825  11.775   3.254   4.928 -0.1793 -0.0713 -1.2592
  866MOL0     N16826  12.017   3.217   5.541  0.7239 -0.1440 -0.5762
  866MOL0     N16827  11.923   3.125   5.564 -0.1674  0.0272 -1.1381
  866MOL0     C16828  10.783   2.872   5.977  0.2999  0.5270  0.2703
  866MOL0     C16829  10.765   2.786   6.087 -0.0242 -0.1064  0.2387
  866MOL0     C16830  10.858   2.632   6.527  1.1727 -0.2776 -0.1291
  866MOL0     C16831  10.921   2.639   6.652  0.0170  0.5541 -0.8711
  866MOL0     C16832  10.893   2.554   6.762  0.0438 -0.4518  1.1607
  866MOL0     C16833  10.798   2.455   6.745 -0.1873 -0.3552  0.1764
  866MOL0     O16834  10.784   2.362   6.847 -0.3194 -0.5200 -0.3392
  866MOL0     C16835  10.656   2.357   6.904  0.0719 -0.0186  0.3079
  866MOL0     C16836  10.601   2.214   6.924  0.1431 -0.9420 -0.0757
  866MOL0     C16837  10.693   2.123   7.005 -0.6425  0.8213  0.1579
  866MOL0     C16838  10.624   1.990   7.029  0.1375  0.1109  0.3274
  866MOL0     C16839  10.533   2.015   7.130  0.1067  0.1121 -0.6037
  866MOL0     C16840  10.489   2.045   7.242 -0.4707 -0.2303 -0.0310
  866MOL0     C16841  10.737   2.449   6.622  0.1817  0.4395  0.1296
  866MOL0     C16842  10.773   2.522   6.509  0.2644  0.1204 -0.0954
  866MOL0     H16843  11.080   2.799   6.198 -1.6098 -1.6097 -2.3154
  866MOL0     H16844  11.112   2.946   6.016  1.3369 -1.0556  0.5206
  866MOL0     H16845  10.862   2.842   5.707  1.3674  0.1960  1.8696
  866MOL0     H16846  10.826   3.001   5.663  1.8558  2.4633 -1.2325
  866MOL0     H16847  11.055   2.821   5.602  0.4563 -0.3502 -0.9827
  866MOL0     H16848  10.996   2.946   5.493 -0.8051 -4.6851 -0.5473
  866MOL0     H16849  11.098   3.119   5.603  0.1669  0.6332 -0.1854
  866MOL0     H16850  11.183   3.023   5.723  1.8117 -0.6416 -0.9348
  866MOL0     H16851  11.273   2.869   5.571 -0.2141 -1.6693 -0.4362
  866MOL0     H16852  11.200   2.966   5.439  0.2451  1.0571  0.3234
  866MOL0     H16853  11.336   3.157   5.486  1.3669  1.7932  2.1443
  866MOL0     H16854  11.377   3.100   5.644 -2.8932 -1.8983  2.0061
  866MOL0     H16855  11.511   2.910   5.558  1.9516  0.1309  0.1595
  866MOL0     H16856  11.458   2.947   5.385 -3.6225  1.2643  0.4119
  866MOL0     H16857  11.583   3.138   5.371 -3.8341 -0.4086  0.5302
  866MOL0     H16858  11.617   3.137   5.550  2.1552 -1.3428  0.3377
  866MOL0     H16859  11.721   2.972   5.332 -0.9828 -2.1477  1.4749
  866MOL0     H16860  11.751   2.911   5.482  0.9275 -2.2571 -3.5741
  866MOL0     H16861  11.888   3.182   5.244 -2.4324 -0.4514  1.3781
  866MOL0     H16862  12.217   3.293   5.378  1.1893  3.0490 -0.8567
  866MOL0     H16863  12.125   3.303   5.228 -1.3948  0.3602 -0.2498
  866MOL0     H16864  12.171   3.538   5.315 -0.5553 -1.5397 -5.0884
  866MOL0     H16865  12.089   3.492   5.464 -1.5722 -0.5942  0.4460
  866MOL0     H16866  11.960   3.623   5.304  1.3018  0.2318  2.2791
  866MOL0     H16867  11.868   3.471   5.331  0.4250 -1.4172 -2.3169
  866MOL0     H16868  12.061   3.469   5.116  0.1809 -3.2492  1.0871
  866MOL0     H16869  11.930   3.577   5.086 -0.3111  0.8769  0.6554
  866MOL0     H16870  12.024   3.476   4.903 -0.8173  0.4135  0.1776
  866MOL0     H16871  11.974   3.480   4.562 -2.2274 -0.2087  0.2149
  866MOL0     H16872  12.110   3.468   4.682  1.4690 -1.2941  1.2711
  866MOL0     H16873  12.081   3.327   4.581 -0.6090 -2.1372  4.6634
  866MOL0     H16874  11.701   3.150   4.311  0.7442 -2.1845  3.5795
  866MOL0     H16875  11.723   3.029   4.107  0.6601  1.9557 -0.9254
  866MOL0     H16876  11.967   3.002   3.895 -0.1835 -0.4906 -0.3797
  866MOL0     H16877  12.113   2.916   3.939  0.2113  1.0769 -2.1021
  866MOL0     H16878  12.005   2.707   3.828 -3.0962 -0.3562  2.5149
  866MOL0     H16879  11.867   2.808   3.802 -0.0618  1.6669  1.1649
  866MOL0     H16880  12.134   2.858   3.657 -0.7374  1.4016 -0.1691
  866MOL0     H16881  12.006   2.962   3.664  1.3423 -0.2283  0.5663
  866MOL0     H16882  12.029   2.740   3.490  0.5880 -0.1145  2.6740
  866MOL0     H16883  11.900   2.697   3.598 -1.3804  1.1145  3.2870
  866MOL0     H16884  11.756   2.845   3.509  1.7907  0.1079  3.4217
  866MOL0     H16885  11.852   2.806   3.366 -3.4320  0.7400 -1.7697
  866MOL0     H16886  11.857   3.054   3.548 -4.1428 -0.1010 -1.0108
  866MOL0     H16887  11.988   3.036   3.448 -0.9618  2.0804 -0.5596
  866MOL0     H16888  11.850   3.014   3.240  1.2111  0.9873 -1.1049
  866MOL0     H16889  11.875   3.175   3.322 -1.1868  1.1111  1.3032
  866MOL0     H16890  11.619   3.015   3.351 -1.0462  0.7248  1.1283
  866MOL0     H16891  11.651   3.144   3.234 -1.0213 -0.1358 -0.3662
  866MOL0     H16892  12.128   2.930   4.168 -2.1573 -1.3590 -0.6943
  866MOL0     H16893  12.136   3.100   4.340  0.9924 -1.7608 -1.2746
  866MOL0     H16894  11.686   3.137   4.774  0.9698 -1.1944 -0.9042
  866MOL0     H16895  11.714   3.215   5.009 -2.9252  1.3362 -2.5019
  866MOL0     H16896  10.705   2.869   5.902 -0.8979 -2.0626  1.4598
  866MOL0     H16897  10.674   2.733   6.114 -1.0218  1.7885  0.8306
  866MOL0     H16898  10.989   2.722   6.667  0.1837  0.5555 -1.5586
  866MOL0     H16899  10.948   2.567   6.855 -0.3983  1.0558  1.2307
  866MOL0     H16900  10.652   2.407   7.000  0.1850  2.4945 -0.9253
  866MOL0     H16901  10.581   2.407   6.842 -0.0452  0.1949  0.6206
  866MOL0     H16902  10.581   2.169   6.827 -1.8233 -1.8184  0.6855
  866MOL0     H16903  10.499   2.218   6.964 -0.5366 -2.6147 -1.5340
  866MOL0     H16904  10.718   2.174   7.098 -1.5176  2.7164 -0.5775
  866MOL0     H16905  10.779   2.101   6.941 -0.7512 -1.1854  0.6520
  866MOL0     H16906  10.688   1.906   7.057 -3.0866 -1.7484  2.7023
  866MOL0     H16907  10.572   1.963   6.937  1.8435 -3.4446  0.2562
  866MOL0     H16908  10.451   2.055   7.341  1.1805  0.9308  0.5302
  866MOL0     H16909  10.662   2.373   6.603 -2.4979  3.4545 -2.4550
  866MOL0     H16910  10.721   2.510   6.414 -0.4014 -0.3839  0.3224
  867MOL0     O16911   5.784   1.184   8.944 -0.0082 -0.2901  0.1045
  867MOL0     C16912   5.877   1.112   8.941 -0.0842  0.3781  0.2622
  867MOL0     O16913   6.004   1.153   8.977 -0.7418 -0.0590  0.6974
  867MOL0     C16914   6.023   1.283   9.011 -0.7305 -0.6566 -0.3953
  867MOL0     C16915   5.945   1.333   9.117 -0.9149  0.0921 -1.6729
  867MOL0     C16916   5.952   1.467   9.159  0.3048 -0.5398 -0.0260
  867MOL0     C16917   6.033   1.558   9.098 -1.0211  0.3820  0.0114
  867MOL0     O16918   6.021   1.687   9.157 -0.3524 -0.1593  0.2110
  867MOL0     C16919   6.082   1.804   9.096 -0.1479  0.1030  0.7929
  867MOL0     C16920   6.056   1.937   9.173  0.3390  0.3361 -0.2112
  867MOL0     C16921   5.919   2.003   9.150  0.5315  0.0264  0.9242
  867MOL0     C16922   5.928   2.141   9.207  0.1121  0.0174 -0.3005
  867MOL0     C16923   5.799   2.215   9.168  0.6200  0.1887 -0.5224
  867MOL0     C16924   5.798   2.344   9.246 -0.0480 -0.2673  1.1935
  867MOL0     C16925   5.672   2.425   9.232  0.5609 -0.3942  0.1611
  867MOL0     C16926   5.576   2.418   9.350  0.2287 -0.1157  0.5165
  867MOL0     N16927   5.479   2.534   9.346  0.1407 -0.3156  0.0313
  867MOL0     C16928   5.452   2.616   9.240  0.6580 -0.1498 -0.1510
  867MOL0     C16929   5.390   2.722   9.284  0.3326  1.0377  0.1948
  867MOL0     C16930   5.338   2.836   9.203 -0.1048  0.7643 -1.5156
  867MOL0     C16931   5.198   2.814   9.130  0.6888  0.0963 -0.1958
  867MOL0     C16932   5.080   2.809   9.223  0.2134 -0.0659  0.5492
  867MOL0     C16933   5.045   2.937   9.299 -0.3762  0.0946  0.2943
  867MOL0     O16934   4.923   2.979   9.243  0.0631  0.0105 -0.3721
  867MOL0     C16935   4.873   3.095   9.287  0.5831 -0.4539  0.0148
  867MOL0     C16936   4.794   3.159   9.200  0.0039  0.7799 -0.5826
  867MOL0     C16937   4.735   3.278   9.227 -0.2384 -0.2701  0.3473
  867MOL0     C16938   4.640   3.330   9.114  0.8444 -0.9351 -0.2168
  867MOL0     C16939   4.747   3.339   9.355  0.0650  0.2245 -0.2573
  867MOL0     C16940   4.697   3.466   9.400  0.2233 -0.6966 -0.2306
  867MOL0     O16941   4.584   3.520   9.348 -0.1630  0.1224  0.1095
  867MOL0     C16942   4.525   3.620   9.415  0.4848 -0.3210 -0.6015
  867MOL0     C16943   4.394   3.602   9.471  0.9448  0.8262 -0.3381
  867MOL0     C16944   4.345   3.716   9.527  0.0749  0.9039 -0.3783
  867MOL0     C16945   4.402   3.838   9.537 -0.6847  0.7871  0.3275
  867MOL0     O16946   4.319   3.942   9.584  0.5358 -0.5896 -0.7048
  867MOL0     C16947   4.290   4.038   9.482  0.2468 -0.4046  0.4878
  867MOL0     C16948   4.187   4.148   9.547 -0.3093  0.1721  0.1729
  867MOL0     C16949   4.148   4.269   9.463  0.0763 -0.3529 -0.5115
  867MOL0     C16950   4.205   4.258   9.313 -0.7885 -0.9368  0.2087
  867MOL0     C16951   4.154   4.384   9.236 -0.7014  0.9500 -0.2918
  867MOL0     C16952   3.998   4.414   9.232  1.4308 -0.1032 -0.6367
  867MOL0     C16953   3.958   4.520   9.137  0.5591  0.1911  1.0471
  867MOL0     C16954   4.021   4.658   9.152  0.0099  0.4464  0.0143
  867MOL0    Cl16955   3.948   4.763   9.277  0.0924  0.2182  0.5132
  867MOL0     C16956   4.530   3.859   9.489  0.6034 -0.3482 -0.3361
  867MOL0     C16957   4.593   3.747   9.427 -0.5423 -0.1557 -0.0289
  867MOL0     O16958   4.754   3.523   9.498  0.4836  0.0417  0.1980
  867MOL0     C16959   4.817   3.258   9.455  0.2260 -1.1131 -0.0335
  867MOL0     C16960   4.885   3.147   9.418 -0.3130  0.1901  1.4521
  867MOL0     N16961   5.381   2.706   9.423  0.4512  0.0493 -0.0728
  867MOL0     N16962   5.436   2.600   9.456  0.4813 -0.5544 -0.6308
  867MOL0     C16963   6.094   1.519   8.981 -0.3037  0.2342  0.0667
  867MOL0     C16964   6.096   1.381   8.940  0.4345  0.1704  0.4741
  867MOL0     C16965   5.861   0.972   8.889  0.1597  0.3892  0.4647
  867MOL0     C16966   5.732   0.921   8.847 -0.2625  0.2638  0.2135
  867MOL0     C16967   5.715   0.783   8.814 -0.6955  0.1422  0.6766
  867MOL0     C16968   5.826   0.698   8.817 -0.3747  0.1911  0.4296
  867MOL0     O16969   5.832   0.567   8.780  0.3078 -0.8484 -0.9176
  867MOL0     C16970   5.703   0.503   8.782  0.1038 -0.5494  0.4359
  867MOL0     C16971   5.631   0.503   8.916 -0.1239 -0.5226  0.6958
  867MOL0     C16972   5.724   0.423   9.012  0.4316  0.1654 -0.1569
  867MOL0     C16973   5.651   0.382   9.136 -0.6331 -0.9243 -0.1170
  867MOL0     C16974   5.694   0.470   9.246  0.3541  0.4743 -0.3776
  867MOL0     C16975   5.735   0.542   9.326 -0.3044  0.2903 -0.0101
  867MOL0     C16976   5.945   0.748   8.853  0.7267  0.3125  0.2105
  867MOL0     C16977   5.972   0.880   8.882 -0.6234  0.0876  0.3100
  867MOL0     H16978   5.889   1.263   9.179  1.3722 -0.5493 -0.1952
  867MOL0     H16979   5.894   1.509   9.240  0.8210  2.2236 -0.9990
  867MOL0     H16980   6.188   1.777   9.103 -0.7913 -2.4160  1.8662
  867MOL0     H16981   6.051   1.808   8.991 -0.0357  0.7358  0.7821
  867MOL0     H16982   6.074   1.914   9.278  4.1492  2.1555 -0.3175
  867MOL0     H16983   6.142   2.001   9.153  1.0666  0.1833  2.1146
  867MOL0     H16984   5.918   2.019   9.042  3.5029 -0.1716  0.7788
  867MOL0     H16985   5.834   1.945   9.188 -0.5751  0.2142 -1.1021
  867MOL0     H16986   5.953   2.129   9.313  0.1525 -1.4225 -0.4624
  867MOL0     H16987   6.018   2.193   9.172  1.3090 -1.2586  0.7441
  867MOL0     H16988   5.803   2.233   9.060  0.9287  1.0772 -0.3717
  867MOL0     H16989   5.711   2.162   9.206 -0.5008  1.7300 -0.8942
  867MOL0     H16990   5.838   2.334   9.347  0.6994 -2.7228  0.7155
  867MOL0     H16991   5.870   2.400   9.186 -2.5971  1.4145 -0.5235
  867MOL0     H16992   5.714   2.526   9.235  0.8425 -0.4856  3.7618
  867MOL0     H16993   5.626   2.401   9.136 -1.4311 -0.3806  1.0741
  867MOL0     H16994   5.645   2.413   9.434  2.2846  0.1451 -1.0829
  867MOL0     H16995   5.512   2.330   9.334 -2.3204  1.4657  1.3638
  867MOL0     H16996   5.471   2.591   9.136 -1.8557 -1.4858 -0.3577
  867MOL0     H16997   5.325   2.915   9.277  0.3258 -0.4080 -0.1341
  867MOL0     H16998   5.420   2.864   9.137  1.8507 -2.4962 -0.6898
  867MOL0     H16999   5.199   2.720   9.075 -3.5518 -0.7593  0.8472
  867MOL0     H17000   5.174   2.901   9.066 -1.6935  1.1487  1.9316
  867MOL0     H17001   5.090   2.738   9.306  2.4510  0.0842  0.4762
  867MOL0     H17002   4.997   2.781   9.159  0.6282  0.2113 -0.1206
  867MOL0     H17003   5.123   3.014   9.301 -1.0678  0.8089  0.0184
  867MOL0     H17004   5.036   2.908   9.404  2.5015 -3.5110 -0.2029
  867MOL0     H17005   4.781   3.104   9.107 -1.3039  0.5383 -0.2826
  867MOL0     H17006   4.670   3.431   9.082  1.3481 -1.1471 -0.4273
  867MOL0     H17007   4.640   3.268   9.024  0.2847  0.4611 -1.2120
  867MOL0     H17008   4.542   3.345   9.160  2.2231  0.5348  2.4578
  867MOL0     H17009   4.349   3.504   9.484 -1.4774  1.8387 -0.6385
  867MOL0     H17010   4.250   3.704   9.579 -0.3467 -0.9767 -1.5114
  867MOL0     H17011   4.382   4.081   9.439  0.3034 -0.7697  0.2432
  867MOL0     H17012   4.237   3.990   9.400 -0.7975  1.7580 -0.1658
  867MOL0     H17013   4.093   4.096   9.563 -0.2633 -2.3799 -5.3629
  867MOL0     H17014   4.229   4.180   9.643  0.8919 -0.6085 -0.0633
  867MOL0     H17015   4.189   4.359   9.509  0.8859  0.3683 -2.5185
  867MOL0     H17016   4.040   4.285   9.469  0.1180 -0.5802  1.3679
  867MOL0     H17017   4.314   4.241   9.311 -0.4950  0.7942 -1.3627
  867MOL0     H17018   4.162   4.165   9.276  1.5870 -3.2863  2.8017
  867MOL0     H17019   4.187   4.371   9.132 -1.0256 -0.7970 -0.1948
  867MOL0     H17020   4.206   4.473   9.273  1.7016 -0.8171  0.7525
  867MOL0     H17021   3.948   4.320   9.204 -1.4606 -0.0879  3.6239
  867MOL0     H17022   3.970   4.442   9.334  0.5119 -0.8522 -0.6670
  867MOL0     H17023   3.850   4.535   9.127  0.1387 -1.5166  2.4868
  867MOL0     H17024   3.993   4.478   9.042 -1.0588 -0.7999  0.8529
  867MOL0     H17025   4.010   4.714   9.059 -0.3466 -0.0466 -0.2458
  867MOL0     H17026   4.126   4.650   9.182  0.3484  0.5704 -1.0771
  867MOL0     H17027   4.584   3.952   9.497  1.8285 -1.1560  1.5190
  867MOL0     H17028   4.685   3.759   9.372 -0.5726  0.0618 -0.0313
  867MOL0     H17029   4.820   3.290   9.559 -0.4678  0.0582 -0.3571
  867MOL0     H17030   4.940   3.106   9.503 -1.0270 -0.4500  1.6160
  867MOL0     H17031   6.143   1.597   8.925 -0.3704 -0.6208 -1.2387
  867MOL0     H17032   6.140   1.350   8.845 -1.7978  1.4388 -1.0739
  867MOL0     H17033   5.650   0.992   8.856 -0.3554 -0.0954  7.2640
  867MOL0     H17034   5.624   0.756   8.761 -0.4181  2.3915 -1.0920
  867MOL0     H17035   5.644   0.556   8.706 -0.2060 -1.0230  0.3386
  867MOL0     H17036   5.709   0.397   8.757  0.5981 -0.7621  1.4200
  867MOL0     H17037   5.528   0.470   8.900 -0.5596  0.5090  1.2987
  867MOL0     H17038   5.636   0.603   8.960 -3.3257  1.8944 -3.6337
  867MOL0     H17039   5.812   0.481   9.041 -0.0951  0.1003  1.7289
  867MOL0     H17040   5.770   0.336   8.964  0.9523  1.3368 -1.8367
  867MOL0     H17041   5.689   0.289   9.179 -0.5966 -0.5110  0.7887
  867MOL0     H17042   5.544   0.357   9.134 -0.8467 -1.0074  3.7064
  867MOL0     H17043   5.776   0.594   9.410  2.4816 -3.7846  1.4562
  867MOL0     H17044   6.031   0.682   8.857 -1.0084 -2.0512  1.2202
  867MOL0     H17045   6.065   0.922   8.917 -1.0933  1.6728 -0.2482
  868MOL0     O17046   8.741   6.363   6.109  0.8419  0.8018 -0.4223
  868MOL0     C17047   8.767   6.292   6.010  0.2585 -0.2489 -0.8160
  868MOL0     O17048   8.720   6.167   5.984  0.7468 -0.1715 -0.2400
  868MOL0     C17049   8.632   6.090   6.059  0.1216  0.1394 -0.6709
  868MOL0     C17050   8.662   6.053   6.191 -0.0597 -0.5112  0.1494
  868MOL0     C17051   8.568   5.983   6.272 -1.0388 -0.0796 -0.7328
  868MOL0     C17052   8.457   5.926   6.217  0.3515 -0.2122 -0.8545
  868MOL0     O17053   8.371   5.845   6.285  0.4361  0.5682  0.1476
  868MOL0     C17054   8.389   5.833   6.428  0.9934 -0.5099 -0.1140
  868MOL0     C17055   8.293   5.739   6.492  0.4742 -0.8078 -0.4738
  868MOL0     C17056   8.288   5.606   6.426  0.2670  0.0942 -0.0351
  868MOL0     C17057   8.201   5.503   6.504 -0.6369 -0.3702 -0.0014
  868MOL0     C17058   8.197   5.378   6.424 -0.0527  0.7466  0.2249
  868MOL0     C17059   8.128   5.254   6.489  0.2497 -0.4265 -0.3734
  868MOL0     C17060   8.210   5.207   6.606  0.1967 -0.1570 -0.4551
  868MOL0     C17061   8.145   5.076   6.653  0.2279  0.3311 -0.3040
  868MOL0     N17062   8.017   5.102   6.712 -0.1032 -0.2753  0.1151
  868MOL0     C17063   7.994   5.191   6.805  0.6703  0.0445 -0.1594
  868MOL0     C17064   7.861   5.173   6.832  0.2431  0.4191 -0.5555
  868MOL0     C17065   7.788   5.253   6.944  1.1576 -0.5635  0.0898
  868MOL0     C17066   7.668   5.327   6.889 -0.1524 -0.2794  0.7828
  868MOL0     C17067   7.694   5.445   6.805  0.0305 -0.4386  0.8562
  868MOL0     C17068   7.559   5.485   6.737  0.8518 -0.3522  0.1587
  868MOL0     O17069   7.578   5.621   6.696  0.3792  0.4482  0.3018
  868MOL0     C17070   7.466   5.681   6.639  0.4382  1.2992  1.3564
  868MOL0     C17071   7.354   5.618   6.585 -0.4440 -0.8494 -0.6565
  868MOL0     C17072   7.237   5.686   6.555  0.0104  0.3436 -0.1629
  868MOL0     C17073   7.128   5.599   6.494 -0.7426  0.3624  0.4344
  868MOL0     C17074   7.219   5.831   6.597  0.2382  0.4645  0.5973
  868MOL0     C17075   7.105   5.914   6.573  0.3243 -0.1173 -0.2264
  868MOL0     O17076   7.019   5.881   6.473 -0.1903  0.2460  0.2884
  868MOL0     C17077   6.903   5.951   6.479 -0.4140  0.6172  0.3226
  868MOL0     C17078   6.806   5.926   6.579 -0.8183 -0.8389 -0.9016
  868MOL0     C17079   6.678   5.993   6.570 -0.6483  0.2347 -0.6130
  868MOL0     C17080   6.647   6.062   6.454 -0.1516  0.3269 -0.4171
  868MOL0     O17081   6.518   6.108   6.456 -0.0603  0.2353 -0.4428
  868MOL0     C17082   6.471   6.165   6.331  0.3922  0.1874 -0.9486
  868MOL0     C17083   6.323   6.220   6.340  0.2138  0.1474 -0.3839
  868MOL0     C17084   6.319   6.328   6.445 -0.7534  0.5890 -0.8261
  868MOL0     C17085   6.183   6.342   6.515 -0.0057  0.9800 -0.4593
  868MOL0     C17086   6.174   6.456   6.613  0.4491  0.3606 -0.9114
  868MOL0     C17087   6.148   6.592   6.547 -1.5517 -0.4821 -0.0014
  868MOL0     C17088   6.100   6.688   6.646  0.0804 -0.0919  0.3178
  868MOL0     C17089   6.024   6.794   6.577  0.3519  1.0764 -0.1603
  868MOL0    Cl17090   6.006   6.934   6.685 -0.5805 -0.1479 -0.1025
  868MOL0     C17091   6.734   6.080   6.350 -0.4288 -0.5674  0.0225
  868MOL0     C17092   6.869   6.032   6.376  0.1032  0.2928 -0.1274
  868MOL0     O17093   7.091   6.017   6.643  0.0058  0.1727  0.1118
  868MOL0     C17094   7.330   5.885   6.657  0.1286  0.7513 -0.3122
  868MOL0     C17095   7.451   5.813   6.672 -0.7277 -0.7918 -1.0619
  868MOL0     N17096   7.807   5.080   6.745 -0.1526 -0.8055 -0.6194
  868MOL0     N17097   7.900   5.032   6.672 -0.4584  0.1270 -0.0726
  868MOL0     C17098   8.440   5.948   6.080 -0.6896  0.2854  0.6494
  868MOL0     C17099   8.520   6.038   6.007  0.4841 -0.3524 -0.5574
  868MOL0     C17100   8.876   6.353   5.930  0.6055 -0.1928 -0.3649
  868MOL0     C17101   8.970   6.269   5.871 -0.1383 -0.3653 -0.0971
  868MOL0     C17102   9.083   6.326   5.797  0.8663 -0.3163 -0.4176
  868MOL0     C17103   9.089   6.469   5.790  0.0834 -0.0555 -0.1049
  868MOL0     O17104   9.175   6.535   5.703 -0.1591  0.3227 -0.3079
  868MOL0     C17105   9.315   6.524   5.745 -0.0899  0.0608 -1.2678
  868MOL0     C17106   9.390   6.513   5.617 -0.3222  0.1966  0.6725
  868MOL0     C17107   9.541   6.504   5.627  0.3947  0.0164  0.3784
  868MOL0     C17108   9.602   6.462   5.759  0.1260  0.7344 -0.1699
  868MOL0     C17109   9.746   6.477   5.744 -0.0560  0.6373  0.0898
  868MOL0     C17110   9.859   6.481   5.706 -0.9194  0.0444 -0.1860
  868MOL0     C17111   8.994   6.554   5.852  0.7009  0.6255  0.1170
  868MOL0     C17112   8.894   6.496   5.929  0.2487  0.8172 -0.8062
  868MOL0     H17113   8.756   6.096   6.223  2.6964 -4.5416 -1.7853
  868MOL0     H17114   8.597   5.974   6.377 -0.7390 -0.6150 -0.8592
  868MOL0     H17115   8.493   5.802   6.447  0.6675 -1.1347  0.7663
  868MOL0     H17116   8.369   5.935   6.460 -1.2102 -1.1728  0.7724
  868MOL0     H17117   8.321   5.719   6.596  1.6352  1.6308 -0.2391
  868MOL0     H17118   8.201   5.797   6.496  1.8345  1.5284  4.0417
  868MOL0     H17119   8.251   5.613   6.323  3.2126 -1.0051 -1.2915
  868MOL0     H17120   8.387   5.560   6.416  0.8123  0.5628  2.6381
  868MOL0     H17121   8.237   5.492   6.607  1.3734  2.2364 -0.3224
  868MOL0     H17122   8.103   5.548   6.521 -1.9579 -3.6493  1.8898
  868MOL0     H17123   8.145   5.386   6.328 -4.5218 -2.3994  2.0573
  868MOL0     H17124   8.298   5.342   6.406 -1.2125 -1.6331 -2.2576
  868MOL0     H17125   8.031   5.286   6.529  2.0404  0.6508  3.5662
  868MOL0     H17126   8.120   5.174   6.415  0.9992  0.8876 -1.9529
  868MOL0     H17127   8.311   5.180   6.572  0.7357  0.7873  0.3468
  868MOL0     H17128   8.211   5.274   6.692 -2.5758  1.7579 -1.7719
  868MOL0     H17129   8.191   5.024   6.738 -2.4016 -1.6488  0.0464
  868MOL0     H17130   8.138   5.001   6.574 -0.1138 -1.1649  1.0773
  868MOL0     H17131   8.058   5.259   6.860 -1.0703  1.8744 -0.3179
  868MOL0     H17132   7.755   5.183   7.021  1.0132 -1.8757 -1.0996
  868MOL0     H17133   7.862   5.313   6.996  0.2795  0.9599 -0.3673
  868MOL0     H17134   7.607   5.354   6.976 -0.2766 -0.2029  0.6703
  868MOL0     H17135   7.605   5.253   6.839 -0.1832 -1.2978  2.2610
  868MOL0     H17136   7.756   5.421   6.718 -2.5403  0.0709 -1.2730
  868MOL0     H17137   7.749   5.530   6.847  0.4693 -0.1364 -0.2677
  868MOL0     H17138   7.481   5.467   6.811  0.0995 -0.6569 -0.6829
  868MOL0     H17139   7.538   5.415   6.656 -2.1407 -0.3488  0.8263
  868MOL0     H17140   7.353   5.512   6.565 -1.6279 -0.7712 -1.0547
  868MOL0     H17141   7.027   5.622   6.529 -1.6479 -1.3949 -0.8820
  868MOL0     H17142   7.125   5.604   6.385  0.2283  3.7168  0.4536
  868MOL0     H17143   7.152   5.494   6.515  3.2831  0.9841 -0.1999
  868MOL0     H17144   6.826   5.871   6.671  1.4113  0.6308 -0.4156
  868MOL0     H17145   6.597   5.977   6.641 -2.6007  0.5303 -2.6345
  868MOL0     H17146   6.528   6.252   6.294  0.4136  0.7133  0.2842
  868MOL0     H17147   6.465   6.081   6.261  0.2197  0.1013 -0.8289
  868MOL0     H17148   6.287   6.254   6.243 -2.6099  2.7633  1.3773
  868MOL0     H17149   6.254   6.140   6.368  0.4304 -0.3417 -1.2150
  868MOL0     H17150   6.346   6.427   6.406  0.8278  1.2010  1.6038
  868MOL0     H17151   6.395   6.307   6.521 -0.9677  1.2873 -0.3990
  868MOL0     H17152   6.107   6.345   6.436  0.3279  0.6264 -0.8035
  868MOL0     H17153   6.174   6.249   6.571 -3.0732  0.5447 -1.5134
  868MOL0     H17154   6.259   6.455   6.683 -2.2391  1.0604  2.6355
  868MOL0     H17155   6.090   6.442   6.681  1.3781 -0.8535  0.0247
  868MOL0     H17156   6.240   6.635   6.507 -1.4532  0.3545  1.0792
  868MOL0     H17157   6.074   6.573   6.469  1.4507 -1.9215 -2.7411
  868MOL0     H17158   6.186   6.736   6.694  1.6368 -1.3154 -1.1174
  868MOL0     H17159   6.031   6.632   6.709  0.2188 -0.4530  0.1463
  868MOL0     H17160   5.925   6.750   6.561  0.6380 -0.9168  2.6424
  868MOL0     H17161   6.079   6.822   6.487  3.5719  0.5246  1.4616
  868MOL0     H17162   6.719   6.126   6.253 -1.2741 -0.3114  0.2606
  868MOL0     H17163   6.930   6.044   6.287 -4.0089 -0.0489 -3.3588
  868MOL0     H17164   7.322   5.989   6.685 -4.3810  0.5572 -0.1371
  868MOL0     H17165   7.527   5.869   6.726 -2.4087 -1.9191  2.8428
  868MOL0     H17166   8.361   5.892   6.030  0.1630  0.9256 -1.5063
  868MOL0     H17167   8.500   6.043   5.900 -0.4805 -2.3560 -0.5115
  868MOL0     H17168   8.965   6.160   5.876  1.3095 -0.4177  0.5074
  868MOL0     H17169   9.163   6.268   5.754  3.6542  2.2326  0.9365
  868MOL0     H17170   9.349   6.606   5.809 -1.2235  0.5038 -1.2077
  868MOL0     H17171   9.333   6.431   5.799 -1.7485 -2.2555 -4.3426
  868MOL0     H17172   9.354   6.571   5.532  1.0342  1.6214  1.0374
  868MOL0     H17173   9.373   6.411   5.581 -2.4169  1.0956 -1.1509
  868MOL0     H17174   9.573   6.607   5.612 -3.2565  1.0529 -1.5859
  868MOL0     H17175   9.577   6.443   5.544  1.8269 -2.6406  2.7848
  868MOL0     H17176   9.589   6.356   5.779  3.9579 -0.0670 -1.0695
  868MOL0     H17177   9.559   6.518   5.842 -2.4236 -1.4169  0.0896
  868MOL0     H17178   9.958   6.478   5.664 -0.5673  2.5164  0.3339
  868MOL0     H17179   9.004   6.661   5.846 -1.4430  0.7923 -3.1923
  868MOL0     H17180   8.811   6.553   5.970 -1.2960 -2.7627  1.5551
  869MOL0     O17181   1.846   1.127   6.103  0.1161  0.8023 -0.3125
  869MOL0     C17182   1.958   1.188   6.087  0.2316  0.3924 -0.5924
  869MOL0     O17183   2.014   1.246   5.973 -0.0321  0.9866 -0.4406
  869MOL0     C17184   1.942   1.226   5.852 -0.4186  0.4293  0.6557
  869MOL0     C17185   1.931   1.098   5.801 -0.0628  0.5663 -0.3193
  869MOL0     C17186   1.849   1.075   5.688 -0.3344 -0.3263  0.5964
  869MOL0     C17187   1.793   1.189   5.616 -0.8064 -0.0076 -0.6614
  869MOL0     O17188   1.708   1.159   5.508  0.2443  0.5504  0.1704
  869MOL0     C17189   1.682   1.260   5.399  0.0482 -0.5993 -0.1659
  869MOL0     C17190   1.799   1.254   5.298 -0.1020 -0.8108 -0.7872
  869MOL0     C17191   1.776   1.358   5.189  1.1863 -0.6144 -0.1042
  869MOL0     C17192   1.792   1.506   5.241 -0.7829 -0.5838 -0.1331
  869MOL0     C17193   1.934   1.547   5.285  0.2961  0.1428 -0.5191
  869MOL0     C17194   1.937   1.687   5.346  0.4933 -0.4550  0.2421
  869MOL0     C17195   2.081   1.745   5.364  0.0151 -0.5317 -0.2541
  869MOL0     C17196   2.144   1.707   5.487  0.1352  0.4485 -0.0716
  869MOL0     N17197   2.282   1.758   5.486 -0.2470 -0.1610 -0.6474
  869MOL0     C17198   2.321   1.894   5.478 -0.3569  0.6313 -0.1099
  869MOL0     C17199   2.452   1.901   5.520  0.5144  0.1054  0.9810
  869MOL0     C17200   2.529   2.019   5.549  0.8672 -0.8966 -0.0700
  869MOL0     C17201   2.598   2.068   5.413  0.5621 -1.2327 -0.8252
  869MOL0     C17202   2.677   2.209   5.448  0.1408  0.4249  0.4946
  869MOL0     C17203   2.721   2.261   5.323  0.7468 -0.6139  0.7165
  869MOL0     O17204   2.802   2.387   5.339  0.5411  0.0655  0.4663
  869MOL0     C17205   2.848   2.452   5.229 -0.5336  0.4000  0.8043
  869MOL0     C17206   2.847   2.396   5.093 -0.6469 -0.6513 -0.4629
  869MOL0     C17207   2.891   2.464   4.982 -0.8065 -0.0697  0.6598
  869MOL0     C17208   2.854   2.398   4.847 -0.4181  0.0804  0.3282
  869MOL0     C17209   2.941   2.596   5.000 -1.4357  0.3158  0.9418
  869MOL0     C17210   2.995   2.687   4.885 -0.3972 -0.3374  0.3201
  869MOL0     O17211   3.004   2.633   4.762 -0.0648  0.7855  0.0433
  869MOL0     C17212   3.018   2.716   4.648  0.8327  0.0141  0.1893
  869MOL0     C17213   2.922   2.822   4.635 -0.3661  0.0243 -0.8146
  869MOL0     C17214   2.927   2.904   4.525 -0.4935 -0.9593  0.1235
  869MOL0     C17215   3.032   2.889   4.428  0.3014  0.8069  0.2806
  869MOL0     O17216   3.044   2.976   4.328  0.7095 -0.4789  0.0403
  869MOL0     C17217   3.173   2.993   4.266  0.2282 -0.8767  0.1043
  869MOL0     C17218   3.171   3.105   4.164  0.0798  0.1985  0.4173
  869MOL0     C17219   3.124   3.237   4.219 -0.6335 -0.6425 -0.3564
  869MOL0     C17220   3.094   3.331   4.101  0.6725  0.1991  1.0442
  869MOL0     C17221   2.989   3.437   4.153 -0.5120 -0.9195  0.1030
  869MOL0     C17222   2.942   3.525   4.035 -0.4781 -0.4279 -0.0557
  869MOL0     C17223   2.841   3.634   4.070  0.5107  0.2616  0.4702
  869MOL0     C17224   2.818   3.725   3.943  0.2657 -1.2329 -0.4458
  869MOL0    Cl17225   2.713   3.866   3.989 -0.1899  0.2288  0.2907
  869MOL0     C17226   3.117   2.782   4.439 -0.2128  1.7539 -0.4137
  869MOL0     C17227   3.107   2.690   4.547 -0.2580 -1.0489 -0.3184
  869MOL0     O17228   3.036   2.801   4.923 -0.2404  0.1348 -0.1490
  869MOL0     C17229   2.947   2.649   5.131 -0.5193 -0.0262 -0.6781
  869MOL0     C17230   2.902   2.586   5.243  0.0941  0.0341  0.0932
  869MOL0     N17231   2.495   1.772   5.556 -0.1858  0.4791  0.3032
  869MOL0     N17232   2.386   1.696   5.541 -0.5210  0.5579 -0.1155
  869MOL0     C17233   1.818   1.322   5.663  0.1957  0.4144 -0.3044
  869MOL0     C17234   1.879   1.330   5.789 -0.4903 -0.0775 -0.2970
  869MOL0     C17235   2.029   1.204   6.224 -0.4608 -0.0689 -0.3962
  869MOL0     C17236   1.991   1.147   6.350 -0.1653  0.2183 -0.5562
  869MOL0     C17237   2.072   1.170   6.462  0.6339 -0.0282  0.4118
  869MOL0     C17238   2.197   1.238   6.453 -0.1165 -0.2444  0.0917
  869MOL0     O17239   2.277   1.257   6.567  0.2766  0.1961 -0.5934
  869MOL0     C17240   2.356   1.141   6.614 -0.5959  0.3801 -1.0583
  869MOL0     C17241   2.295   1.072   6.737 -0.4921  0.0282  1.0717
  869MOL0     C17242   2.296   1.171   6.856 -1.1907 -0.0987 -0.2405
  869MOL0     C17243   2.246   1.122   6.988  0.0432 -0.2265  0.7571
  869MOL0     C17244   2.098   1.107   6.978 -1.0390 -0.7657 -0.3350
  869MOL0     C17245   1.985   1.098   6.959  0.3715 -0.7369  0.2567
  869MOL0     C17246   2.237   1.283   6.330 -0.3948  0.5735 -0.1065
  869MOL0     C17247   2.154   1.264   6.222  0.3538 -1.2112 -0.0961
  869MOL0     H17248   1.980   1.015   5.852 -2.4347 -1.3323 -0.9565
  869MOL0     H17249   1.824   0.977   5.649 -0.2292 -0.1463  0.0701
  869MOL0     H17250   1.581   1.248   5.358 -0.0510  0.0388 -0.1169
  869MOL0     H17251   1.673   1.361   5.440  0.7500  0.3848 -2.3079
  869MOL0     H17252   1.892   1.279   5.350 -0.4090  0.6189 -0.8728
  869MOL0     H17253   1.793   1.154   5.255  0.5399 -0.6855 -1.1868
  869MOL0     H17254   1.851   1.336   5.113  0.4649 -0.2602 -0.9364
  869MOL0     H17255   1.677   1.340   5.146  0.6264 -1.8785  1.5900
  869MOL0     H17256   1.769   1.573   5.157  1.6270 -2.6588 -2.6193
  869MOL0     H17257   1.722   1.519   5.325  0.2135  2.5049  0.3404
  869MOL0     H17258   1.970   1.474   5.359  0.7274  0.5114 -0.3640
  869MOL0     H17259   2.000   1.533   5.199 -0.5937  0.1733 -1.2192
  869MOL0     H17260   1.889   1.751   5.272  2.2685  2.5082  1.4906
  869MOL0     H17261   1.884   1.691   5.441 -0.6953 -0.0598 -0.4273
  869MOL0     H17262   2.139   1.717   5.276 -2.1282 -0.3353 -1.8176
  869MOL0     H17263   2.072   1.854   5.351 -0.5821 -0.8288 -2.9376
  869MOL0     H17264   2.140   1.598   5.494 -0.8464  0.3395 -1.7727
  869MOL0     H17265   2.099   1.736   5.582  1.1432  1.1030  0.2213
  869MOL0     H17266   2.256   1.976   5.451  1.6419  2.0796 -0.7059
  869MOL0     H17267   2.460   2.090   5.594  0.6325 -1.7575  0.9642
  869MOL0     H17268   2.599   1.997   5.630  1.5752 -1.6982 -0.8669
  869MOL0     H17269   2.520   2.089   5.340 -0.7722 -0.1656  0.8368
  869MOL0     H17270   2.670   1.995   5.374  0.3574 -0.2765 -3.1530
  869MOL0     H17271   2.758   2.189   5.518 -1.0512 -0.2839  1.7267
  869MOL0     H17272   2.610   2.279   5.499 -0.7402  2.2646 -2.9006
  869MOL0     H17273   2.633   2.302   5.273  1.8131 -0.0104 -0.7471
  869MOL0     H17274   2.779   2.189   5.264  1.5245 -0.8032  1.6682
  869MOL0     H17275   2.797   2.302   5.071 -1.7408 -0.8782  2.4938
  869MOL0     H17276   2.902   2.449   4.763 -0.1278  1.4041  1.2695
  869MOL0     H17277   2.884   2.293   4.852 -2.0614 -0.4529 -0.1661
  869MOL0     H17278   2.746   2.390   4.830 -0.4246 -1.7679  1.0532
  869MOL0     H17279   2.856   2.843   4.719 -3.2649  1.2671 -3.2056
  869MOL0     H17280   2.864   2.992   4.512  1.9452  0.7098 -1.1047
  869MOL0     H17281   3.248   3.020   4.342  2.1265 -2.3423 -1.1504
  869MOL0     H17282   3.219   2.901   4.229  1.3399 -1.8186  3.4173
  869MOL0     H17283   3.273   3.111   4.125  1.1060 -1.1679  2.6753
  869MOL0     H17284   3.102   3.060   4.092 -0.7898 -0.3335  1.5409
  869MOL0     H17285   3.195   3.276   4.292 -2.4650 -1.5679  2.0548
  869MOL0     H17286   3.033   3.226   4.278  0.0277 -0.2552  0.7786
  869MOL0     H17287   3.186   3.380   4.070 -0.0611  0.8746 -0.1448
  869MOL0     H17288   3.055   3.275   4.015  1.1957  0.3301  0.7218
  869MOL0     H17289   3.035   3.507   4.224 -1.9299  1.0508 -0.8078
  869MOL0     H17290   2.907   3.385   4.202 -2.7084 -0.3198 -2.6812
  869MOL0     H17291   3.033   3.563   3.988 -1.1102 -0.5641 -1.4324
  869MOL0     H17292   2.907   3.464   3.951  1.9594  1.0370 -2.2897
  869MOL0     H17293   2.878   3.694   4.153  0.0597 -1.9567  2.4127
  869MOL0     H17294   2.745   3.588   4.097  1.0863 -0.5643  1.1694
  869MOL0     H17295   2.774   3.674   3.857  2.9972 -2.4461 -1.2241
  869MOL0     H17296   2.917   3.764   3.917 -0.8387  1.6110 -0.7780
  869MOL0     H17297   3.194   2.768   4.364 -2.0218  0.8107 -2.1821
  869MOL0     H17298   3.174   2.609   4.573  2.7869  1.5739  0.5973
  869MOL0     H17299   2.983   2.750   5.147 -0.6270 -0.3585  2.2465
  869MOL0     H17300   2.917   2.621   5.345  0.8813 -0.6530  0.2296
  869MOL0     H17301   1.772   1.411   5.622  0.2283  1.2460  1.3736
  869MOL0     H17302   1.881   1.432   5.827 -0.1012 -1.3101  3.4682
  869MOL0     H17303   1.895   1.099   6.361 -1.8712  3.5309  0.3012
  869MOL0     H17304   2.040   1.130   6.558 -1.7063  1.6509  0.4366
  869MOL0     H17305   2.369   1.066   6.536 -0.0562  0.8333 -1.4185
  869MOL0     H17306   2.457   1.175   6.641 -1.3102  0.8739  1.1296
  869MOL0     H17307   2.361   0.988   6.760 -2.6787 -1.9198  0.6442
  869MOL0     H17308   2.196   1.031   6.714 -0.0171 -0.3670 -0.3302
  869MOL0     H17309   2.264   1.274   6.838  0.5207  0.5656  0.3306
  869MOL0     H17310   2.404   1.177   6.866 -0.4604 -1.3817 -4.8897
  869MOL0     H17311   2.281   1.203   7.052 -3.2126  0.3024  2.0939
  869MOL0     H17312   2.290   1.029   7.024 -0.0588 -0.4011  0.4283
  869MOL0     H17313   1.881   1.071   6.951  0.7105 -1.7528 -1.1209
  869MOL0     H17314   2.336   1.329   6.332  0.4511 -1.0912 -1.3098
  869MOL0     H17315   2.194   1.303   6.129 -0.4810 -1.0704 -0.4010
  870MOL0     O17316   1.234  10.506   5.216 -0.8740  0.0830  0.3571
  870MOL0     C17317   1.177  10.536   5.112 -0.7978  0.1065 -0.1765
  870MOL0     O17318   1.228  10.512   4.979  0.4888  0.3911 -0.6765
  870MOL0     C17319   1.349  10.445   4.975  0.7921 -0.5406  0.1686
  870MOL0     C17320   1.464  10.527   4.971  0.2916  0.0518  0.1206
  870MOL0     C17321   1.591  10.465   4.950  0.8149  0.6763  0.1254
  870MOL0     C17322   1.613  10.324   4.945  0.5603  0.1272  0.4123
  870MOL0     O17323   1.743  10.285   4.930  0.0950 -0.2747 -0.2471
  870MOL0     C17324   1.789  10.188   5.017  0.3003  0.3321  0.6864
  870MOL0     C17325   1.792  10.054   4.953  0.3453  0.7133 -0.1327
  870MOL0     C17326   1.872   9.957   5.028 -0.6347  0.2541  0.2612
  870MOL0     C17327   2.024   9.984   5.002 -0.6450  0.0833 -0.6198
  870MOL0     C17328   2.121   9.878   5.078 -0.3216 -0.3961 -1.0888
  870MOL0     C17329   2.101   9.893   5.230 -0.3456  0.9575  0.6606
  870MOL0     C17330   2.200   9.812   5.319  0.4794 -0.1842  0.5951
  870MOL0     C17331   2.172   9.659   5.311  0.2950  0.0063 -0.3850
  870MOL0     N17332   2.281   9.581   5.366  0.1860 -0.7197 -0.4071
  870MOL0     C17333   2.309   9.546   5.502 -0.1246  0.7047  0.6005
  870MOL0     C17334   2.434   9.502   5.493  0.1799  0.1138  0.2363
  870MOL0     C17335   2.519   9.455   5.601  0.1498 -0.9375 -1.7950
  870MOL0     C17336   2.580   9.578   5.672 -0.8272 -0.3018 -0.1448
  870MOL0     C17337   2.686   9.550   5.778  0.1849 -0.0525  0.8243
  870MOL0     C17338   2.639   9.454   5.887 -0.0695  0.3219  0.2694
  870MOL0     O17339   2.542   9.513   5.977 -0.1747 -0.1365 -0.3056
  870MOL0     C17340   2.586   9.584   6.087 -0.3838 -0.1073  0.2367
  870MOL0     C17341   2.487   9.614   6.183 -0.0916 -0.4416 -0.1243
  870MOL0     C17342   2.524   9.681   6.292 -0.5274 -0.4205 -0.1791
  870MOL0     C17343   2.419   9.700   6.397  0.4198 -0.5951 -0.1797
  870MOL0     C17344   2.662   9.709   6.312  0.4900 -0.6994 -0.3984
  870MOL0     C17345   2.704   9.770   6.435 -0.5290 -0.3488  0.9514
  870MOL0     O17346   2.821   9.725   6.466  0.4906 -0.4499  0.4134
  870MOL0     C17347   2.889   9.796   6.565  0.4635  0.5081  0.4192
  870MOL0     C17348   2.994   9.877   6.545  0.0216 -0.8023  0.6618
  870MOL0     C17349   3.055   9.944   6.641 -0.5431 -0.1578 -0.2181
  870MOL0     C17350   3.002   9.952   6.769  0.5652  0.1529 -0.4963
  870MOL0     O17351   3.048  10.032   6.871  0.9665 -0.1486  0.3334
  870MOL0     C17352   3.037  10.164   6.826  0.2201 -0.7335  0.6452
  870MOL0     C17353   3.029  10.269   6.947  0.5191  0.2465 -1.3968
  870MOL0     C17354   2.904  10.236   7.037 -0.1620  0.5912 -0.0433
  870MOL0     C17355   2.923  10.310   7.175  0.6431  0.1738  0.6383
  870MOL0     C17356   2.813  10.280   7.279 -0.7326 -0.7597  0.3684
  870MOL0     C17357   2.841  10.352   7.409  0.5977  0.6063  0.1394
  870MOL0     C17358   2.772  10.486   7.414  0.2569  0.3951 -0.5008
  870MOL0     C17359   2.771  10.554   7.551 -0.6689  0.0249 -0.2881
  870MOL0    Cl17360   2.744  10.430   7.686  0.2526  0.1591 -0.0727
  870MOL0     C17361   2.889   9.874   6.793 -0.9621 -0.2536  0.1416
  870MOL0     C17362   2.841   9.793   6.698 -0.2369 -0.0290  0.2120
  870MOL0     O17363   2.651   9.871   6.478 -0.5290  0.8109 -0.4784
  870MOL0     C17364   2.758   9.687   6.214  0.8025 -0.0017  0.2235
  870MOL0     C17365   2.723   9.621   6.104  0.1511 -0.1587  0.6249
  870MOL0     N17366   2.482   9.511   5.370 -0.0413  0.6300 -0.0238
  870MOL0     N17367   2.388   9.556   5.289  0.9490  0.1017 -0.4923
  870MOL0     C17368   1.497  10.242   4.955  1.0003  0.3560 -0.8673
  870MOL0     C17369   1.363  10.309   4.973 -0.5234 -0.2189 -0.8317
  870MOL0     C17370   1.049  10.614   5.117 -0.1458  0.1471 -0.5316
  870MOL0     C17371   0.995  10.671   4.998 -0.6731 -0.4239  0.2161
  870MOL0     C17372   0.875  10.752   4.994  0.5152 -0.2156 -1.1602
  870MOL0     C17373   0.807  10.776   5.115 -0.0715  0.4473  0.7544
  870MOL0     O17374   0.699  10.864   5.126  0.1770  0.2171  0.7203
  870MOL0     C17375   0.621  10.896   5.009  0.4693  0.7046 -0.0951
  870MOL0     C17376   0.513  10.994   5.059 -0.1243  0.0602 -0.7352
  870MOL0     C17377   0.432  11.076   4.962  0.7578  0.0210  0.1097
  870MOL0     C17378   0.309  10.997   4.920 -0.0215  1.2585 -0.0936
  870MOL0     C17379   0.249  11.059   4.809  0.0775  0.7835  0.5872
  870MOL0     C17380   0.202  11.080   4.692 -0.0762  0.2959 -0.7638
  870MOL0     C17381   0.855  10.715   5.233 -0.0939 -0.0572 -0.1502
  870MOL0     C17382   0.973  10.639   5.237 -0.5358 -0.0830  0.5797
  870MOL0     H17383   1.437  10.632   4.984 -4.2026 -0.8412 -0.1695
  870MOL0     H17384   1.679  10.527   4.937  1.8910 -1.2264 -2.1284
  870MOL0     H17385   1.883  10.218   5.065 -0.5648  1.2704  1.8631
  870MOL0     H17386   1.724  10.186   5.104  1.0234 -0.6437  1.2218
  870MOL0     H17387   1.695  10.006   4.947  0.8365 -0.2928 -0.2212
  870MOL0     H17388   1.822  10.067   4.848  0.6913  0.4697 -0.0671
  870MOL0     H17389   1.837   9.948   5.132 -0.5604  2.2161  0.5112
  870MOL0     H17390   1.852   9.855   4.996  3.4975 -0.1928 -1.4470
  870MOL0     H17391   2.042   9.982   4.894  0.4569 -0.7631 -0.4298
  870MOL0     H17392   2.045  10.085   5.038 -0.9009 -0.4797  1.2472
  870MOL0     H17393   2.098   9.775   5.049 -0.2306 -0.6863 -0.1780
  870MOL0     H17394   2.225   9.901   5.054  0.2664  1.2587  2.3416
  870MOL0     H17395   2.115  10.000   5.252  1.6780  0.9299 -0.2877
  870MOL0     H17396   2.005   9.852   5.262  0.6507 -3.6130 -1.4151
  870MOL0     H17397   2.305   9.826   5.291 -0.0631  3.3698 -0.0111
  870MOL0     H17398   2.192   9.843   5.423 -1.0803  1.1768  0.1050
  870MOL0     H17399   2.156   9.643   5.204 -1.0465  3.2439 -0.7699
  870MOL0     H17400   2.082   9.641   5.371  0.7022  2.2976  1.0387
  870MOL0     H17401   2.253   9.560   5.595 -1.1132  2.3788 -0.1967
  870MOL0     H17402   2.464   9.395   5.674 -1.5276  0.4709 -1.8456
  870MOL0     H17403   2.598   9.393   5.557  1.7739  0.1618 -0.5741
  870MOL0     H17404   2.503   9.637   5.723  1.3548  1.5318  1.1896
  870MOL0     H17405   2.628   9.653   5.610 -0.4512  0.2677  0.8202
  870MOL0     H17406   2.735   9.640   5.817  1.0801  0.3891 -1.1877
  870MOL0     H17407   2.768   9.493   5.732 -0.0654  0.9330 -0.9476
  870MOL0     H17408   2.721   9.435   5.957 -0.0841  3.4909  1.3006
  870MOL0     H17409   2.599   9.366   5.836 -0.5291  0.4438  0.4096
  870MOL0     H17410   2.381   9.593   6.168 -0.7770  1.3748  1.6843
  870MOL0     H17411   2.420   9.806   6.426  0.1644 -0.9566  1.2175
  870MOL0     H17412   2.317   9.671   6.372 -1.0568 -0.4736  4.6985
  870MOL0     H17413   2.456   9.636   6.478  0.1170  1.0508  1.3142
  870MOL0     H17414   3.024   9.900   6.443 -0.1810 -0.5575  0.6557
  870MOL0     H17415   3.133  10.018   6.639 -1.7352  1.3199  2.5043
  870MOL0     H17416   3.122  10.194   6.764  0.5358 -0.0856  1.3800
  870MOL0     H17417   2.946  10.177   6.767  2.3872 -1.3534 -3.1768
  870MOL0     H17418   3.118  10.280   7.009 -1.3017  4.0818  0.8599
  870MOL0     H17419   3.022  10.374   6.917 -1.3614  1.4867  2.5922
  870MOL0     H17420   2.894  10.129   7.054 -4.3957  0.4467 -2.2384
  870MOL0     H17421   2.812  10.267   6.987 -1.4605 -1.3484  1.0285
  870MOL0     H17422   3.022  10.284   7.213  1.2092 -0.2815 -1.0327
  870MOL0     H17423   2.926  10.417   7.155 -2.1151 -0.0101 -1.3267
  870MOL0     H17424   2.816  10.173   7.299  4.6273 -1.2240 -1.1768
  870MOL0     H17425   2.718  10.310   7.234 -0.1196 -1.4098 -1.4369
  870MOL0     H17426   2.800  10.292   7.490  1.7861 -1.6394 -0.8444
  870MOL0     H17427   2.950  10.358   7.414  0.4759  3.2217  3.3797
  870MOL0     H17428   2.665  10.469   7.395  0.4051  0.1687 -1.1515
  870MOL0     H17429   2.803  10.562   7.341  0.9107  0.3189 -0.3004
  870MOL0     H17430   2.687  10.623   7.554 -0.3808  0.3562  2.0803
  870MOL0     H17431   2.865  10.608   7.569 -1.5913  1.9326 -0.9157
  870MOL0     H17432   2.840   9.878   6.890 -1.7248  2.3611 -0.2815
  870MOL0     H17433   2.757   9.728   6.720 -3.2091  2.5057 -2.6041
  870MOL0     H17434   2.863   9.712   6.227  1.5413 -2.8406  0.3307
  870MOL0     H17435   2.806   9.610   6.036 -0.4056 -1.6270  0.1408
  870MOL0     H17436   1.497  10.135   4.933 -1.1659  0.0478  0.3723
  870MOL0     H17437   1.276  10.244   4.973  0.5568 -1.7349  0.6164
  870MOL0     H17438   1.046  10.657   4.903 -2.4332 -2.2672 -0.5177
  870MOL0     H17439   0.848  10.812   4.908  0.9124 -1.0514 -1.8843
  870MOL0     H17440   0.675  10.936   4.923 -1.4418 -2.4400 -3.0110
  870MOL0     H17441   0.568  10.807   4.976 -1.7041  1.7503  0.3581
  870MOL0     H17442   0.566  11.067   5.121 -1.1450  1.6135 -1.6315
  870MOL0     H17443   0.439  10.939   5.119 -0.2771 -0.0084 -0.9873
  870MOL0     H17444   0.500  11.114   4.885  3.2163 -2.2401  0.9989
  870MOL0     H17445   0.392  11.162   5.015  1.2144  0.3474 -0.0619
  870MOL0     H17446   0.243  10.987   5.007  1.2864 -0.9681  0.7251
  870MOL0     H17447   0.339  10.895   4.891  0.9873  1.5941 -0.2793
  870MOL0     H17448   0.168  11.103   4.593 -1.7312 -0.2795 -0.3712
  870MOL0     H17449   0.813  10.735   5.331  2.4573  0.1563  0.9758
  870MOL0     H17450   1.023  10.623   5.332  4.2082 -1.6075 -1.8672
  871MOL0     O17451   6.764   5.498   7.421 -0.3633 -0.3850  0.3775
  871MOL0     C17452   6.780   5.428   7.321  0.2766 -0.4172 -0.5930
  871MOL0     O17453   6.899   5.380   7.281  1.0558 -0.5840  0.2912
  871MOL0     C17454   7.017   5.450   7.291 -0.3852  0.3138 -0.2064
  871MOL0     C17455   7.133   5.376   7.306 -0.6793  0.1970  0.1028
  871MOL0     C17456   7.257   5.442   7.317 -0.1280 -0.1656  0.2877
  871MOL0     C17457   7.262   5.582   7.334  1.2794  1.1070 -0.8552
  871MOL0     O17458   7.380   5.645   7.336  0.4369 -0.2142 -0.3970
  871MOL0     C17459   7.442   5.671   7.208  0.2881 -0.8645  0.2877
  871MOL0     C17460   7.534   5.791   7.210  0.0843  0.2303 -0.0953
  871MOL0     C17461   7.584   5.834   7.068  0.1107  0.1515  0.0532
  871MOL0     C17462   7.675   5.953   7.074 -0.2916 -0.9546  0.7369
  871MOL0     C17463   7.726   6.004   6.942  0.0367 -1.1673  0.5287
  871MOL0     C17464   7.803   5.891   6.877 -0.0141 -0.0431  0.3579
  871MOL0     C17465   7.909   5.946   6.781 -0.0051 -0.2069  0.4305
  871MOL0     C17466   7.988   5.837   6.707 -0.2603 -0.8922 -0.5952
  871MOL0     N17467   8.053   5.739   6.796  0.0693 -0.8361  0.7651
  871MOL0     C17468   8.168   5.761   6.859 -0.6138  1.7242  0.2980
  871MOL0     C17469   8.206   5.634   6.891 -0.2032 -0.1279  0.3544
  871MOL0     C17470   8.327   5.586   6.957  0.3204  0.5796 -0.5202
  871MOL0     C17471   8.309   5.457   7.042 -0.3497  0.4652 -0.1244
  871MOL0     C17472   8.219   5.478   7.171 -0.0735 -0.3568 -0.3890
  871MOL0     C17473   8.192   5.366   7.260  0.4488  0.6152 -0.4683
  871MOL0     O17474   8.140   5.250   7.187 -0.2079  0.0523 -0.8268
  871MOL0     C17475   8.015   5.205   7.236 -0.8909  0.3136  0.0660
  871MOL0     C17476   7.985   5.077   7.265  0.2046 -1.4279 -1.1649
  871MOL0     C17477   7.862   5.035   7.318 -0.2709  0.1547 -1.1559
  871MOL0     C17478   7.864   4.899   7.359 -0.6472  0.1485  0.0425
  871MOL0     C17479   7.747   5.130   7.317  0.9967 -0.2950 -0.2600
  871MOL0     C17480   7.619   5.107   7.370  0.2379  0.2313 -0.2367
  871MOL0     O17481   7.618   5.029   7.483 -0.3091 -0.7203 -0.1889
  871MOL0     C17482   7.496   4.975   7.519  1.0461  0.5603 -0.0673
  871MOL0     C17483   7.409   5.047   7.609 -0.2308  0.9782  0.6939
  871MOL0     C17484   7.309   4.967   7.664 -0.6414  0.1208 -0.0477
  871MOL0     C17485   7.288   4.830   7.639 -0.1373  0.8899  0.0354
  871MOL0     O17486   7.192   4.762   7.705  0.6775  0.5510  0.9877
  871MOL0     C17487   7.179   4.622   7.688 -0.5558 -0.0688  0.2850
  871MOL0     C17488   7.035   4.563   7.727 -0.1989 -1.1069  0.4096
  871MOL0     C17489   7.024   4.547   7.878  0.7645 -0.1684 -0.0164
  871MOL0     C17490   6.885   4.585   7.945  0.6042  0.4111  0.3752
  871MOL0     C17491   6.837   4.735   7.950  0.2520 -0.1821 -0.2031
  871MOL0     C17492   6.946   4.837   7.979 -0.3822  0.2623 -0.2249
  871MOL0     C17493   6.885   4.972   8.013 -1.2720  0.3137  0.3770
  871MOL0     C17494   6.983   5.076   8.070  0.4877 -0.5266  0.4579
  871MOL0    Cl17495   7.056   5.035   8.226 -0.2926 -0.0566 -0.0264
  871MOL0     C17496   7.376   4.776   7.545 -0.7172  0.7221  1.2807
  871MOL0     C17497   7.480   4.839   7.491 -0.4389 -0.7920  0.8518
  871MOL0     O17498   7.519   5.154   7.320 -0.2627 -0.0545 -0.0353
  871MOL0     C17499   7.779   5.261   7.285 -0.3683  0.7086  0.5044
  871MOL0     C17500   7.907   5.295   7.247  0.9504 -0.7495 -0.0623
  871MOL0     N17501   8.110   5.547   6.856  0.1464  0.6306 -0.2125
  871MOL0     N17502   8.019   5.611   6.797 -0.8992  0.5330  0.9532
  871MOL0     C17503   7.146   5.655   7.350  0.4665  0.8413  0.7966
  871MOL0     C17504   7.027   5.589   7.328  0.0191 -0.5863 -0.4455
  871MOL0     C17505   6.661   5.385   7.243  0.3402 -0.3957  0.3206
  871MOL0     C17506   6.529   5.391   7.290  0.5651  0.7190  0.0425
  871MOL0     C17507   6.417   5.351   7.213  0.2307  0.0839 -0.1796
  871MOL0     C17508   6.437   5.328   7.077  0.2551 -0.1599  0.1080
  871MOL0     O17509   6.336   5.316   6.987  0.2298  0.5078 -0.3056
  871MOL0     C17510   6.361   5.287   6.844  0.2779 -0.0581  0.1257
  871MOL0     C17511   6.231   5.280   6.771  0.1271  0.3934 -1.0222
  871MOL0     C17512   6.247   5.197   6.643  0.1554 -0.3423 -0.0255
  871MOL0     C17513   6.124   5.179   6.560 -0.1451  0.5079 -0.0673
  871MOL0     C17514   6.068   5.309   6.530  0.4520 -0.1686  0.1414
  871MOL0     C17515   6.037   5.426   6.498 -1.1485 -0.0223  0.5395
  871MOL0     C17516   6.573   5.316   7.032  0.3632  0.4066 -0.1461
  871MOL0     C17517   6.688   5.352   7.103  0.7416  0.6723 -0.6431
  871MOL0     H17518   7.131   5.271   7.278  1.0822  0.2310 -0.2558
  871MOL0     H17519   7.350   5.388   7.310 -1.4825 -2.4065 -1.9928
  871MOL0     H17520   7.508   5.591   7.175 -1.1071 -1.7598 -0.4673
  871MOL0     H17521   7.367   5.685   7.130 -0.2027  0.0364  0.8978
  871MOL0     H17522   7.479   5.874   7.255 -0.3069 -1.1588  2.1369
  871MOL0     H17523   7.622   5.754   7.263  0.0835 -1.3346 -1.1371
  871MOL0     H17524   7.618   5.740   7.024  1.2680 -0.1785  1.5768
  871MOL0     H17525   7.492   5.860   7.015 -1.2624 -1.7539  1.3654
  871MOL0     H17526   7.622   6.042   7.109  0.2958 -0.9281  1.5836
  871MOL0     H17527   7.757   5.928   7.142  2.1335  0.9640 -1.3131
  871MOL0     H17528   7.646   6.045   6.879  0.5000 -3.3971 -1.6682
  871MOL0     H17529   7.802   6.082   6.951 -1.0109 -0.2691  1.9950
  871MOL0     H17530   7.857   5.848   6.962  1.0097  3.5655  1.7136
  871MOL0     H17531   7.730   5.825   6.829 -0.1299 -0.9242  1.6866
  871MOL0     H17532   7.854   6.004   6.706  1.8301 -0.7323 -1.4174
  871MOL0     H17533   7.969   6.016   6.840 -3.8556  1.8609  2.2602
  871MOL0     H17534   8.061   5.892   6.647 -0.7536  1.3885  0.7735
  871MOL0     H17535   7.915   5.796   6.637 -0.4640  2.2975 -2.4416
  871MOL0     H17536   8.224   5.854   6.864  0.1929  1.2051  1.9730
  871MOL0     H17537   8.404   5.565   6.883 -0.0209  2.7633 -1.5898
  871MOL0     H17538   8.360   5.658   7.032 -2.7287  1.5968 -0.0130
  871MOL0     H17539   8.411   5.436   7.075 -0.2898  0.8361 -0.0637
  871MOL0     H17540   8.260   5.373   6.992  0.3766  1.4970 -2.7109
  871MOL0     H17541   8.123   5.515   7.133 -1.1334 -1.0116  1.5386
  871MOL0     H17542   8.267   5.555   7.233 -1.3409  0.2130 -0.0833
  871MOL0     H17543   8.123   5.411   7.332 -0.9809 -0.3263 -1.2101
  871MOL0     H17544   8.283   5.335   7.312  0.4734  0.4340 -0.6174
  871MOL0     H17545   8.073   5.013   7.267  1.1090 -0.2258 -0.0886
  871MOL0     H17546   7.910   4.897   7.457 -0.3921  0.3845 -0.0707
  871MOL0     H17547   7.764   4.854   7.364  0.2838 -1.9459  1.1099
  871MOL0     H17548   7.921   4.835   7.291 -0.2663 -1.0685  1.4645
  871MOL0     H17549   7.428   5.152   7.633  3.1947  0.2204  1.7562
  871MOL0     H17550   7.244   5.023   7.729 -0.0048  0.8880 -0.0593
  871MOL0     H17551   7.198   4.596   7.583  1.4277 -1.3172  0.8837
  871MOL0     H17552   7.264   4.581   7.745 -0.3700 -0.7393 -0.4456
  871MOL0     H17553   6.960   4.633   7.688  0.9389  0.4370  0.8746
  871MOL0     H17554   7.019   4.477   7.661 -0.1970  0.2077 -1.3578
  871MOL0     H17555   7.103   4.610   7.919  2.9535 -1.4732 -1.9483
  871MOL0     H17556   7.062   4.445   7.889  3.3677  0.3967 -2.4104
  871MOL0     H17557   6.800   4.525   7.910 -0.5752 -0.1149  3.8001
  871MOL0     H17558   6.902   4.563   8.050 -2.6738  1.1188  1.1882
  871MOL0     H17559   6.759   4.749   8.026 -0.0973  0.5376 -0.6868
  871MOL0     H17560   6.795   4.766   7.854 -1.8579  2.0698  1.3169
  871MOL0     H17561   7.004   4.789   8.058  2.6264  1.7688 -1.3502
  871MOL0     H17562   7.011   4.839   7.892 -1.9016 -1.4334 -1.4821
  871MOL0     H17563   6.811   4.948   8.090  0.5240 -2.9098  1.2546
  871MOL0     H17564   6.847   4.999   7.914  1.2086 -0.5631 -0.9099
  871MOL0     H17565   6.928   5.170   8.077  2.0556  0.4769 -0.3063
  871MOL0     H17566   7.063   5.096   7.998 -0.7698  0.9118 -0.6009
  871MOL0     H17567   7.357   4.676   7.507 -1.8954  0.2381  2.9995
  871MOL0     H17568   7.529   4.797   7.404 -0.3311  3.3124 -1.3382
  871MOL0     H17569   7.708   5.342   7.269 -1.2640  0.0245  0.9239
  871MOL0     H17570   7.923   5.397   7.214  1.0351 -0.7733 -0.0941
  871MOL0     H17571   7.136   5.757   7.386  1.0211  1.7843 -1.4973
  871MOL0     H17572   6.943   5.657   7.337 -0.1824 -0.9499  0.6123
  871MOL0     H17573   6.498   5.420   7.390  0.0102 -0.4579  0.2323
  871MOL0     H17574   6.314   5.362   7.245 -0.5716 -0.1298 -2.4569
  871MOL0     H17575   6.421   5.366   6.797 -0.0568  1.3102  1.8769
  871MOL0     H17576   6.415   5.192   6.838 -0.3474 -0.4646  0.7582
  871MOL0     H17577   6.204   5.385   6.755 -0.3072  0.4878  0.2441
  871MOL0     H17578   6.152   5.235   6.831 -0.7644 -1.2213 -3.2538
  871MOL0     H17579   6.264   5.092   6.669 -3.2988 -1.1867 -0.6221
  871MOL0     H17580   6.329   5.235   6.581  0.3957 -1.7171 -0.5979
  871MOL0     H17581   6.041   5.124   6.604 -3.1053  1.9896 -3.2434
  871MOL0     H17582   6.155   5.131   6.467 -1.4657  2.2428 -1.4975
  871MOL0     H17583   6.010   5.525   6.467 -1.8999 -1.0149 -2.2643
  871MOL0     H17584   6.607   5.284   6.934  1.8793 -3.6066  1.4722
  871MOL0     H17585   6.780   5.351   7.046  1.2054 -2.9090 -0.0854
  872MOL0     O17586   1.996   2.790   0.284  0.6332 -0.3603  0.3534
  872MOL0     C17587   2.010   2.898   0.232 -0.8584 -0.9376  1.0774
  872MOL0     O17588   2.021   3.023   0.306  0.0556  0.3943  0.1327
  872MOL0     C17589   2.071   3.031   0.441 -0.5256 -0.3798  1.1422
  872MOL0     C17590   2.056   3.160   0.503 -0.4453  0.1906  0.2213
  872MOL0     C17591   2.095   3.169   0.633  0.7856 -0.2670 -0.2295
  872MOL0     C17592   2.122   3.062   0.714 -0.4569  0.4491 -0.2545
  872MOL0     O17593   2.141   3.093   0.851 -0.3311 -0.0599  0.1629
  872MOL0     C17594   2.147   2.991   0.938  0.0831  0.7106  0.8594
  872MOL0     C17595   2.115   3.028   1.081 -0.1570 -0.2913  0.4545
  872MOL0     C17596   2.211   3.126   1.157 -1.3134  0.3559 -0.1269
  872MOL0     C17597   2.150   3.191   1.281  1.1090  1.0345  0.3417
  872MOL0     C17598   2.138   3.074   1.384 -0.8292  0.6933 -0.6348
  872MOL0     C17599   2.187   3.124   1.521  0.3821 -0.3826  0.3087
  872MOL0     C17600   2.141   3.033   1.633 -0.4614 -1.2888 -0.4547
  872MOL0     C17601   2.220   3.054   1.758 -0.1955 -0.1408  0.0442
  872MOL0     N17602   2.344   2.971   1.735 -0.0323 -0.2411 -0.6413
  872MOL0     C17603   2.470   3.005   1.720 -0.4449  0.2680 -0.8062
  872MOL0     C17604   2.541   2.897   1.701 -0.4300 -0.8999  0.4803
  872MOL0     C17605   2.692   2.887   1.681  0.3625 -0.3439  0.3675
  872MOL0     C17606   2.750   2.984   1.574  0.9269 -0.0040  0.3857
  872MOL0     C17607   2.896   2.973   1.531  0.3218 -0.4262  1.0883
  872MOL0     C17608   2.987   3.005   1.647  0.5982  0.4390  0.4487
  872MOL0     O17609   3.106   3.048   1.597  0.0455  0.3021 -0.2435
  872MOL0     C17610   3.203   3.105   1.674  0.1399  0.7754 -0.8645
  872MOL0     C17611   3.185   3.132   1.814 -0.5535  1.2842  0.4717
  872MOL0     C17612   3.281   3.191   1.886  0.0635 -0.3263 -0.1486
  872MOL0     C17613   3.258   3.179   2.042 -0.1990 -0.6807 -0.1928
  872MOL0     C17614   3.400   3.240   1.815  0.9968 -0.1270 -0.2817
  872MOL0     C17615   3.509   3.305   1.890  0.4649 -0.3076 -0.1785
  872MOL0     O17616   3.624   3.310   1.823 -0.7576  1.0489  0.7631
  872MOL0     C17617   3.745   3.366   1.870  0.5709  0.4436  0.1119
  872MOL0     C17618   3.772   3.495   1.831 -0.5435 -0.0846  0.0660
  872MOL0     C17619   3.899   3.549   1.856  0.1133 -0.0717 -0.7343
  872MOL0     C17620   3.996   3.472   1.929  0.4453 -0.0884 -0.8556
  872MOL0     O17621   4.115   3.530   1.959  0.2535  0.1199  0.1510
  872MOL0     C17622   4.210   3.439   2.019 -0.6698 -0.0160  0.4697
  872MOL0     C17623   4.346   3.512   2.018 -0.1316 -0.1096  1.1582
  872MOL0     C17624   4.341   3.640   2.101 -0.0413 -0.4808 -0.4645
  872MOL0     C17625   4.440   3.748   2.041  0.6769 -0.7396 -0.2522
  872MOL0     C17626   4.431   3.897   2.082 -0.8316  0.8894  0.8319
  872MOL0     C17627   4.547   3.983   2.015 -0.6739  0.2320 -0.7007
  872MOL0     C17628   4.514   4.125   2.000  0.4937  0.8848  1.0811
  872MOL0     C17629   4.500   4.207   2.126  0.9339 -0.6343  0.8344
  872MOL0    Cl17630   4.491   4.386   2.094 -0.6005 -0.5174  0.4792
  872MOL0     C17631   3.960   3.338   1.969  0.0891  0.1694 -0.2069
  872MOL0     C17632   3.839   3.279   1.935  0.5061  0.0886  0.7429
  872MOL0     O17633   3.487   3.359   1.995 -0.3110 -0.0161  0.3227
  872MOL0     C17634   3.411   3.226   1.675  0.9810  0.3536 -0.8394
  872MOL0     C17635   3.313   3.154   1.601  0.3491  0.6297 -0.3919
  872MOL0     N17636   2.452   2.794   1.703 -0.2686  0.9041  0.3379
  872MOL0     N17637   2.340   2.838   1.732 -0.3019  0.9147 -0.1315
  872MOL0     C17638   2.133   2.938   0.649 -0.0860 -0.0674 -0.1559
  872MOL0     C17639   2.114   2.920   0.512  0.2669  0.5426 -0.3850
  872MOL0     C17640   2.036   2.916   0.085  0.4339 -0.3328 -0.8270
  872MOL0     C17641   2.061   3.045   0.035 -0.0686  0.1179  0.8220
  872MOL0     C17642   2.059   3.068  -0.104 -0.1276 -0.2728  0.3440
  872MOL0     C17643   2.035   2.971  -0.200  0.2389 -0.1030 -0.3406
  872MOL0     O17644   2.031   3.002  -0.336  0.3432 -1.1605 -0.0520
  872MOL0     C17645   1.903   2.981  -0.401 -0.5133 -0.2946 -0.4483
  872MOL0     C17646   1.924   2.902  -0.533 -0.1626  0.0110  0.9742
  872MOL0     C17647   2.012   2.980  -0.635  0.9456  0.6087 -0.8785
  872MOL0     C17648   2.020   2.900  -0.764  0.2406  1.2787  0.0232
  872MOL0     C17649   2.157   2.908  -0.820 -0.1795  0.0590 -0.7691
  872MOL0     C17650   2.265   2.930  -0.866 -0.6022 -0.0990  1.1914
  872MOL0     C17651   2.027   2.836  -0.149 -0.1441  0.1687  0.6588
  872MOL0     C17652   2.027   2.812  -0.006  0.3891 -0.5964  0.1411
  872MOL0     H17653   2.035   3.253   0.451  0.5947  1.3891  1.8574
  872MOL0     H17654   2.093   3.270   0.674  3.2682 -0.4694  0.5254
  872MOL0     H17655   2.060   2.929   0.916 -0.2607  1.3540  0.3581
  872MOL0     H17656   2.245   2.948   0.917 -0.3507  0.6524 -1.3192
  872MOL0     H17657   2.016   3.074   1.074 -1.1034 -2.3508 -0.5740
  872MOL0     H17658   2.104   2.940   1.145 -0.4006  2.1258  4.0228
  872MOL0     H17659   2.307   3.080   1.181 -1.0850  1.9300  2.3207
  872MOL0     H17660   2.226   3.206   1.083  1.2709 -1.4343 -1.7156
  872MOL0     H17661   2.228   3.263   1.308  5.2720 -2.8555 -0.0788
  872MOL0     H17662   2.067   3.262   1.266  0.6029  0.4267  0.2202
  872MOL0     H17663   2.038   3.032   1.394  0.2172 -1.3707  2.3303
  872MOL0     H17664   2.210   2.994   1.363 -3.1424 -2.5176  2.4647
  872MOL0     H17665   2.295   3.117   1.529  0.3401 -1.7224  0.0041
  872MOL0     H17666   2.160   3.228   1.538  0.4142 -0.2622 -0.3446
  872MOL0     H17667   2.037   3.062   1.652  0.7219  3.0836  0.6196
  872MOL0     H17668   2.138   2.931   1.595  0.5209 -1.1963 -0.8173
  872MOL0     H17669   2.171   3.001   1.841  1.7393  0.6751  1.7965
  872MOL0     H17670   2.238   3.157   1.790 -0.1871 -1.0888  3.5313
  872MOL0     H17671   2.507   3.107   1.732  1.5292 -0.5612  0.6215
  872MOL0     H17672   2.742   2.911   1.775  0.4104 -1.5341  0.6524
  872MOL0     H17673   2.716   2.784   1.656 -3.3390 -1.5347  1.0536
  872MOL0     H17674   2.727   3.086   1.609 -3.0317 -1.0413  1.3502
  872MOL0     H17675   2.693   2.966   1.482 -0.1668 -0.3477  1.1089
  872MOL0     H17676   2.921   3.058   1.466  1.4993  0.9503  3.2321
  872MOL0     H17677   2.914   2.872   1.492 -1.2231  0.0998 -1.1900
  872MOL0     H17678   3.023   2.921   1.707  2.0635 -0.9569 -2.2265
  872MOL0     H17679   2.929   3.067   1.717 -0.5215  0.6754 -0.6612
  872MOL0     H17680   3.097   3.100   1.868  1.1146 -0.1345  2.5299
  872MOL0     H17681   3.154   3.150   2.061 -0.4152  1.0555  1.5104
  872MOL0     H17682   3.323   3.101   2.082 -0.4348  0.5191  2.7220
  872MOL0     H17683   3.257   3.271   2.101 -4.6139  0.1002 -1.1267
  872MOL0     H17684   3.698   3.559   1.784  1.4470  3.2201  1.0845
  872MOL0     H17685   3.930   3.651   1.833  1.6425 -0.8308 -2.3408
  872MOL0     H17686   4.167   3.429   2.119 -0.1404 -0.3288  0.6711
  872MOL0     H17687   4.211   3.341   1.972 -3.4473  1.1511 -2.3648
  872MOL0     H17688   4.422   3.449   2.064  0.9541  2.9023  3.8200
  872MOL0     H17689   4.372   3.533   1.914 -0.7763  1.7632  1.3226
  872MOL0     H17690   4.377   3.634   2.204  0.1899  2.3826 -0.2997
  872MOL0     H17691   4.236   3.672   2.105  0.1782  0.3670 -1.1595
  872MOL0     H17692   4.544   3.715   2.051  0.7327 -1.4398 -2.5262
  872MOL0     H17693   4.430   3.753   1.932  0.3488  1.2140 -0.1599
  872MOL0     H17694   4.436   3.901   2.191  0.5009  1.1385  0.7805
  872MOL0     H17695   4.337   3.945   2.055 -1.1963 -2.0910 -4.6163
  872MOL0     H17696   4.619   3.988   2.096 -0.0011  1.1827 -1.3317
  872MOL0     H17697   4.596   3.937   1.928 -0.2245  0.1140 -0.3867
  872MOL0     H17698   4.425   4.141   1.938  0.2862  1.3935  1.4947
  872MOL0     H17699   4.603   4.167   1.951 -0.1001  1.9555  0.8837
  872MOL0     H17700   4.584   4.179   2.191 -1.1257  0.0701  4.0657
  872MOL0     H17701   4.402   4.182   2.168  0.4697 -0.7291 -0.2706
  872MOL0     H17702   4.028   3.273   2.023  0.3633  0.4363 -0.2266
  872MOL0     H17703   3.817   3.173   1.926 -2.3075  0.7124 -0.5448
  872MOL0     H17704   3.493   3.260   1.613 -0.9716  3.4917 -1.9423
  872MOL0     H17705   3.312   3.123   1.497  0.5624  0.5918 -0.3833
  872MOL0     H17706   2.146   2.849   0.710 -1.1367 -0.6126 -0.6883
  872MOL0     H17707   2.130   2.821   0.472 -0.7133 -1.2742  3.3018
  872MOL0     H17708   2.088   3.131   0.095 -1.0572  1.1613 -0.1863
  872MOL0     H17709   2.068   3.171  -0.137 -1.4471 -0.2055  0.1680
  872MOL0     H17710   1.839   2.922  -0.334  0.9004 -2.9416 -1.2990
  872MOL0     H17711   1.849   3.073  -0.422  0.3487 -0.1015 -1.9564
  872MOL0     H17712   1.832   2.884  -0.589  0.8204 -2.1183 -0.0725
  872MOL0     H17713   1.963   2.802  -0.511 -1.3413 -0.3617  1.4323
  872MOL0     H17714   2.108   3.003  -0.587 -0.1604 -1.2029  2.5144
  872MOL0     H17715   1.967   3.078  -0.653 -2.2240 -1.1619 -3.8068
  872MOL0     H17716   1.940   2.933  -0.830 -0.4407 -0.9449 -0.3516
  872MOL0     H17717   2.004   2.798  -0.727 -1.7638  0.6015 -2.4271
  872MOL0     H17718   2.359   2.951  -0.912 -1.2430 -0.3608 -0.2789
  872MOL0     H17719   2.005   2.752  -0.213 -0.3907 -0.4191  1.4915
  872MOL0     H17720   2.018   2.712   0.034  1.8367 -1.7593 -2.2394
  873MOL0     O17721   5.773   1.102   4.107  0.1515 -0.4873  0.4370
  873MOL0     C17722   5.674   1.052   4.161  0.1634 -0.4064  0.5167
  873MOL0     O17723   5.545   1.090   4.133  0.0858  0.7347 -1.2616
  873MOL0     C17724   5.535   1.196   4.057 -0.1972 -1.0749 -0.2419
  873MOL0     C17725   5.525   1.328   4.104 -0.0599  1.4624 -0.5011
  873MOL0     C17726   5.503   1.440   4.022 -0.3031  0.7061  0.0281
  873MOL0     C17727   5.530   1.417   3.884 -1.0033  0.4758 -0.2803
  873MOL0     O17728   5.545   1.512   3.789  0.5303  0.5480  0.1781
  873MOL0     C17729   5.463   1.627   3.799  0.5341  0.9863 -0.0273
  873MOL0     C17730   5.480   1.708   3.680  0.2852 -0.9640 -0.1017
  873MOL0     C17731   5.467   1.637   3.534  0.5446 -0.3718 -0.9348
  873MOL0     C17732   5.344   1.540   3.513 -0.2322  0.1934 -0.5825
  873MOL0     C17733   5.327   1.498   3.362  0.2838 -0.3478 -0.9530
  873MOL0     C17734   5.180   1.518   3.329  0.7592  0.6875 -0.1143
  873MOL0     C17735   5.139   1.453   3.192 -1.2560 -0.7979  0.1558
  873MOL0     C17736   5.204   1.511   3.065  0.2438  0.4074  0.0844
  873MOL0     N17737   5.147   1.451   2.936 -0.0201 -0.3232 -0.2390
  873MOL0     C17738   5.065   1.531   2.851 -0.4510  1.1328  0.3042
  873MOL0     C17739   5.013   1.436   2.762  0.4204  0.0023  0.4687
  873MOL0     C17740   4.939   1.469   2.632 -0.3563 -0.5056 -1.1059
  873MOL0     C17741   5.016   1.572   2.550  1.3855 -1.3652  0.4727
  873MOL0     C17742   4.934   1.643   2.439  0.5493  0.3942  0.2388
  873MOL0     C17743   4.855   1.757   2.499 -0.4072  0.4824  0.3158
  873MOL0     O17744   4.764   1.819   2.411  0.0488  0.4900 -0.2806
  873MOL0     C17745   4.639   1.757   2.399  0.3782  0.6886 -0.2266
  873MOL0     C17746   4.562   1.805   2.301  0.1107  0.1739  0.2578
  873MOL0     C17747   4.441   1.740   2.264 -0.4182 -0.1912  0.6916
  873MOL0     C17748   4.356   1.788   2.153  0.0398 -0.0467  0.6851
  873MOL0     C17749   4.396   1.628   2.342 -0.2985  0.3210 -0.0662
  873MOL0     C17750   4.275   1.561   2.320 -0.0924 -0.0923  0.6609
  873MOL0     O17751   4.191   1.538   2.429  0.6919 -0.3138  0.1676
  873MOL0     C17752   4.060   1.520   2.404  0.7886 -0.1107  0.1583
  873MOL0     C17753   3.979   1.606   2.324  0.2822  0.6115 -0.0296
  873MOL0     C17754   3.837   1.583   2.306 -0.0655 -0.6964  0.2406
  873MOL0     C17755   3.772   1.484   2.372  0.1451 -0.2397  0.0586
  873MOL0     O17756   3.633   1.469   2.374  0.1836 -0.0722  0.1460
  873MOL0     C17757   3.561   1.539   2.268  0.4411  0.8997 -0.6490
  873MOL0     C17758   3.419   1.474   2.262 -0.2624 -0.9754 -0.1001
  873MOL0     C17759   3.366   1.473   2.402  1.0969 -0.1428 -0.2864
  873MOL0     C17760   3.301   1.607   2.434 -0.4543 -0.0350  0.4340
  873MOL0     C17761   3.224   1.599   2.569  0.4419 -0.5667  0.0955
  873MOL0     C17762   3.328   1.560   2.680  0.6042  0.1838  0.3706
  873MOL0     C17763   3.439   1.658   2.740  1.0705  0.3243  0.2492
  873MOL0     C17764   3.540   1.595   2.833 -0.1306  0.5211  0.0102
  873MOL0    Cl17765   3.636   1.472   2.741  0.1497  0.2190 -0.5380
  873MOL0     C17766   3.851   1.394   2.447  0.1221 -0.1994 -0.3848
  873MOL0     C17767   3.985   1.414   2.466  0.0592  1.1177  0.3261
  873MOL0     O17768   4.248   1.516   2.211  0.7061  0.1017 -0.1165
  873MOL0     C17769   4.482   1.575   2.437 -0.0258  0.8648 -0.1763
  873MOL0     C17770   4.602   1.639   2.468  0.3603  0.1597  0.3465
  873MOL0     N17771   5.048   1.307   2.804  0.6933  0.5081  0.6907
  873MOL0     N17772   5.118   1.322   2.905 -0.4012 -0.3798 -0.2379
  873MOL0     C17773   5.568   1.287   3.841  0.3662 -0.3241 -0.4728
  873MOL0     C17774   5.557   1.175   3.921  0.1431  0.1317  0.1073
  873MOL0     C17775   5.707   0.967   4.274  0.6333 -0.4436 -0.4070
  873MOL0     C17776   5.592   0.905   4.334  0.1210  0.0535 -0.4320
  873MOL0     C17777   5.621   0.801   4.430  0.1965  0.1190 -0.0185
  873MOL0     C17778   5.759   0.769   4.469  0.6121  1.0608  0.3090
  873MOL0     O17779   5.787   0.679   4.572  0.2846  0.4337 -0.1067
  873MOL0     C17780   5.782   0.541   4.551 -0.0475  0.5916 -0.3696
  873MOL0     C17781   5.914   0.485   4.507  1.2820  0.3636 -0.2385
  873MOL0     C17782   5.914   0.330   4.505 -0.1145  0.2044 -0.0781
  873MOL0     C17783   5.934   0.278   4.641  0.1956  0.6467  0.2420
  873MOL0     C17784   5.982   0.136   4.649  0.2798 -0.0717 -0.9639
  873MOL0     C17785   6.009   0.017   4.643 -0.3344 -0.6024  1.3075
  873MOL0     C17786   5.857   0.835   4.408  0.0597 -0.6747 -1.1737
  873MOL0     C17787   5.832   0.933   4.309 -0.8314 -0.0873 -0.5859
  873MOL0     H17788   5.507   1.337   4.211 -2.3274  0.0654 -0.7074
  873MOL0     H17789   5.474   1.534   4.067 -1.8503 -0.7908  2.3507
  873MOL0     H17790   5.358   1.597   3.803 -0.3366  3.7778  0.2378
  873MOL0     H17791   5.468   1.679   3.895 -3.0420 -0.3967  1.0976
  873MOL0     H17792   5.410   1.791   3.676  0.6910 -0.5899  0.3072
  873MOL0     H17793   5.580   1.755   3.681  0.1293 -0.6251  0.2243
  873MOL0     H17794   5.465   1.708   3.450 -0.5986  0.0075 -0.6014
  873MOL0     H17795   5.562   1.583   3.524  1.4047  0.3457  2.1242
  873MOL0     H17796   5.355   1.454   3.580  1.1175 -0.0441 -1.0717
  873MOL0     H17797   5.248   1.576   3.551 -1.3840 -2.6502 -0.5818
  873MOL0     H17798   5.383   1.567   3.299  1.9074 -1.8193 -1.1846
  873MOL0     H17799   5.367   1.398   3.343 -1.4190 -1.5031  1.0792
  873MOL0     H17800   5.113   1.470   3.401  0.8821  3.1877  1.7950
  873MOL0     H17801   5.161   1.625   3.322  1.2097  0.6800 -2.3504
  873MOL0     H17802   5.173   1.350   3.201  0.6746 -0.0574  2.3037
  873MOL0     H17803   5.030   1.461   3.187 -1.1194  3.2876  0.4211
  873MOL0     H17804   5.310   1.489   3.072  0.7818  1.6671 -2.6370
  873MOL0     H17805   5.190   1.620   3.061  4.7099  1.1995 -4.8984
  873MOL0     H17806   5.065   1.638   2.836 -0.8179  1.0550 -0.2798
  873MOL0     H17807   4.925   1.379   2.572 -0.4977 -0.2340 -1.4795
  873MOL0     H17808   4.840   1.500   2.666  1.2071  1.8680  1.7366
  873MOL0     H17809   5.102   1.519   2.508  1.9345 -0.7862  0.8407
  873MOL0     H17810   5.066   1.650   2.609 -0.2199 -0.5942  0.8757
  873MOL0     H17811   4.880   1.565   2.385 -1.4190 -0.1711  2.8262
  873MOL0     H17812   5.009   1.687   2.373  0.3719 -0.2465 -0.4010
  873MOL0     H17813   4.922   1.842   2.517 -0.8957  1.2613 -1.3453
  873MOL0     H17814   4.813   1.738   2.598 -2.3618 -1.9252 -0.8806
  873MOL0     H17815   4.600   1.890   2.246 -2.1548  0.3861 -1.1170
  873MOL0     H17816   4.321   1.700   2.098 -0.7229  0.8393 -0.2962
  873MOL0     H17817   4.275   1.850   2.193  0.0429  2.5414 -2.8606
  873MOL0     H17818   4.418   1.853   2.091 -1.9770  1.6635  0.3382
  873MOL0     H17819   4.028   1.689   2.275 -1.3988  2.9135  1.9166
  873MOL0     H17820   3.798   1.659   2.239  0.3466  0.6406  1.4455
  873MOL0     H17821   3.563   1.644   2.297  1.5148  0.4408  1.1058
  873MOL0     H17822   3.613   1.525   2.173 -0.9315 -1.1745 -1.1767
  873MOL0     H17823   3.351   1.527   2.196  1.0131  0.5964 -0.1967
  873MOL0     H17824   3.430   1.369   2.231 -1.2725 -0.8043 -1.0850
  873MOL0     H17825   3.438   1.438   2.476  0.1687 -1.6507 -0.0436
  873MOL0     H17826   3.293   1.391   2.401  0.0961  0.6851  1.0925
  873MOL0     H17827   3.378   1.685   2.440  1.0939 -1.0793 -3.0565
  873MOL0     H17828   3.236   1.639   2.352  1.3670  3.4692  0.1616
  873MOL0     H17829   3.140   1.531   2.552 -0.8392  1.0776 -0.2713
  873MOL0     H17830   3.165   1.688   2.588 -2.7903 -2.1743 -1.6278
  873MOL0     H17831   3.260   1.538   2.763  1.5001 -1.8009  0.6553
  873MOL0     H17832   3.379   1.465   2.658 -1.5588 -1.0394  0.3250
  873MOL0     H17833   3.393   1.738   2.798 -0.2107  1.0436 -1.6388
  873MOL0     H17834   3.491   1.702   2.654 -1.1980  0.2199 -1.2427
  873MOL0     H17835   3.479   1.532   2.899 -2.8124 -2.2708 -4.5417
  873MOL0     H17836   3.603   1.664   2.890 -0.5559  0.1547  0.9491
  873MOL0     H17837   3.804   1.315   2.507  0.7698  1.5650  2.6677
  873MOL0     H17838   4.035   1.364   2.549  0.5970  0.7828 -0.1906
  873MOL0     H17839   4.467   1.480   2.487 -1.0720  0.9888 -0.2315
  873MOL0     H17840   4.677   1.598   2.535 -1.1813 -2.1816  0.7788
  873MOL0     H17841   5.581   1.275   3.734 -0.6220  3.7780 -1.2200
  873MOL0     H17842   5.575   1.071   3.893 -0.6579  0.5972 -2.4142
  873MOL0     H17843   5.494   0.921   4.292 -2.0411 -2.5457  3.0692
  873MOL0     H17844   5.542   0.765   4.495  1.0455  0.6977  1.3752
  873MOL0     H17845   5.752   0.500   4.648  3.3574  0.2258  0.6598
  873MOL0     H17846   5.714   0.509   4.472  1.9588  0.0513 -1.9602
  873MOL0     H17847   6.000   0.522   4.564 -0.0978  0.4219  1.8938
  873MOL0     H17848   5.922   0.529   4.407 -1.4445  2.3363  0.2972
  873MOL0     H17849   6.007   0.316   4.450  0.6059  3.5538  0.1081
  873MOL0     H17850   5.829   0.285   4.453 -1.6636 -0.8862  3.1243
  873MOL0     H17851   5.840   0.277   4.696 -1.0790 -1.6144 -1.7818
  873MOL0     H17852   6.004   0.347   4.688  0.3381 -1.6150  3.6631
  873MOL0     H17853   6.033  -0.086   4.652  2.3048 -0.0094  1.8572
  873MOL0     H17854   5.960   0.823   4.438 -0.5663 -1.0863  0.9757
  873MOL0     H17855   5.928   0.980   4.287  1.7862 -3.5054  2.3020
  874MOL0     O17856   1.600   9.343  10.678  0.8400 -0.2902  0.0518
  874MOL0     C17857   1.519   9.359  10.585  0.1257 -1.0233  0.1672
  874MOL0     O17858   1.382   9.369  10.599  0.4429 -0.3116 -0.5959
  874MOL0     C17859   1.318   9.351  10.720  0.4818 -1.5455 -0.5374
  874MOL0     C17860   1.183   9.400  10.725  0.1851 -0.3615 -0.0568
  874MOL0     C17861   1.104   9.398  10.833  0.3242  0.5717 -0.3382
  874MOL0     C17862   1.155   9.337  10.952  0.7582 -0.9483  0.1350
  874MOL0     O17863   1.063   9.325  11.051  0.6477 -0.1523 -0.1903
  874MOL0     C17864   1.105   9.266  11.171  0.4977  0.3948 -0.0545
  874MOL0     C17865   0.991   9.266  11.277 -0.4518 -0.0936  0.4730
  874MOL0     C17866   1.025   9.203  11.411 -0.1508 -0.2299  0.1602
  874MOL0     C17867   0.900   9.174  11.498 -0.0035 -0.4626  0.6187
  874MOL0     C17868   0.945   9.092  11.623  0.9852 -0.2586 -0.2988
  874MOL0     C17869   1.005   9.179  11.736 -0.1728 -0.4717  0.2102
  874MOL0     C17870   0.936   9.167  11.872  0.5044 -0.6202  0.0548
  874MOL0     C17871   0.979   9.296  11.956  0.3060  0.2838 -0.0967
  874MOL0     N17872   0.934   9.275  12.096 -0.2312 -0.5375 -0.0126
  874MOL0     C17873   0.803   9.274  12.135  0.4691 -0.4114  0.2458
  874MOL0     C17874   0.808   9.234  12.266 -0.1034  0.4065  0.2233
  874MOL0     C17875   0.689   9.205  12.348  0.1504  0.5728  0.4193
  874MOL0     C17876   0.584   9.313  12.353  0.3119  0.0839  0.0450
  874MOL0     C17877   0.466   9.275  12.463  0.1904  0.5646  0.6935
  874MOL0     C17878   0.365   9.397  12.456 -0.5537  0.1596 -0.0087
  874MOL0     O17879   0.252   9.384  12.538  0.4533  0.2063 -0.3269
  874MOL0     C17880   0.255   9.435  12.668  0.0474  0.5797  0.8776
  874MOL0     C17881   0.254   9.353  12.773 -1.0059  0.3215  0.0756
  874MOL0     C17882   0.250   9.403  12.906  0.2429 -0.2118  0.1379
  874MOL0     C17883   0.230   9.292  13.005  0.7673  0.3678 -0.3117
  874MOL0     C17884   0.247   9.549  12.930  0.5955  0.5093  0.2772
  874MOL0     C17885   0.244   9.615  13.064  0.1122 -0.0155 -0.2860
  874MOL0     O17886   0.227   9.743  13.053 -0.3180 -0.4480 -0.0741
  874MOL0     C17887   0.244   9.836  13.159  0.9844  0.4067  1.4159
  874MOL0     C17888   0.367   9.875  13.199  0.1497  0.3676  0.3498
  874MOL0     C17889   0.384   9.951  13.317 -0.3461 -1.0186 -0.6812
  874MOL0     C17890   0.280  10.002  13.392  1.2244 -0.1156  0.3987
  874MOL0     O17891   0.309  10.070  13.507 -0.4481  0.8984 -0.0188
  874MOL0     C17892   0.212  10.080  13.614  0.7680  0.0591  0.5783
  874MOL0     C17893   0.277  10.106  13.745 -0.7625  0.3405 -0.1092
  874MOL0     C17894   0.409  10.021  13.763  0.8192 -0.1178  0.1963
  874MOL0     C17895   0.453  10.022  13.909 -0.5795  0.0467 -0.2894
  874MOL0     C17896   0.570   9.930  13.933  0.0504  0.4710  0.1722
  874MOL0     C17897   0.644   9.982  14.066 -0.1902  0.0771 -0.2549
  874MOL0     C17898   0.717   9.857  14.127  0.3813 -0.1706  0.5169
  874MOL0     C17899   0.843   9.820  14.044 -0.1317 -0.1753  1.2588
  874MOL0    Cl17900   0.992   9.874  14.129  0.3866 -0.2347  0.0867
  874MOL0     C17901   0.145   9.960  13.353 -0.3882 -0.2340  0.1093
  874MOL0     C17902   0.126   9.883  13.236 -0.1566 -0.4269 -1.4474
  874MOL0     O17903   0.262   9.548  13.165  0.2960  0.5783  0.0007
  874MOL0     C17904   0.248   9.630  12.811 -0.5698 -0.9337  0.1664
  874MOL0     C17905   0.267   9.571  12.684  1.6694  0.1647 -0.1435
  874MOL0     N17906   0.936   9.210  12.308 -0.4723  0.0793  0.6373
  874MOL0     N17907   1.008   9.231  12.200  0.5109  0.2563  0.4824
  874MOL0     C17908   1.284   9.292  10.951 -0.1577  0.2655  0.1529
  874MOL0     C17909   1.368   9.310  10.845  0.0294  0.0985 -1.2003
  874MOL0     C17910   1.586   9.391  10.459  0.5799 -0.5397 -0.6771
  874MOL0     C17911   1.524   9.482  10.371  0.8018 -0.0573  0.0121
  874MOL0     C17912   1.575   9.510  10.246  0.2060 -0.4491 -0.6078
  874MOL0     C17913   1.689   9.454  10.198 -0.2159  0.1575  0.0566
  874MOL0     O17914   1.723   9.492  10.076  0.3445  0.1181  0.0175
  874MOL0     C17915   1.675   9.405   9.973  0.2426 -0.0236 -0.1797
  874MOL0     C17916   1.682   9.483   9.841  0.3562  0.1219  1.5471
  874MOL0     C17917   1.600   9.405   9.725 -0.5397 -0.3252  0.2986
  874MOL0     C17918   1.576   9.473   9.593  0.2667 -0.1567  0.2501
  874MOL0     C17919   1.691   9.539   9.533  0.2222 -0.2734 -1.1514
  874MOL0     C17920   1.781   9.595   9.473 -0.2157 -0.2234  1.0319
  874MOL0     C17921   1.746   9.348  10.279  0.8563  0.1570  0.0134
  874MOL0     C17922   1.701   9.329  10.413  0.1028  0.7433  0.0831
  874MOL0     H17923   1.147   9.455  10.639  0.2954  0.7299  0.5649
  874MOL0     H17924   1.002   9.435  10.828  0.2729  1.1135  2.7129
  874MOL0     H17925   1.114   9.158  11.161 -0.9366  0.3207 -0.7759
  874MOL0     H17926   1.191   9.322  11.209  0.9004  1.2715 -2.0930
  874MOL0     H17927   0.969   9.370  11.301  0.8232 -0.0256  1.4643
  874MOL0     H17928   0.899   9.221  11.238 -1.3571 -0.0894  2.5288
  874MOL0     H17929   1.074   9.106  11.395 -2.3258 -1.5544  0.9609
  874MOL0     H17930   1.093   9.265  11.470  0.3682 -1.2024  0.6218
  874MOL0     H17931   0.836   9.258  11.527 -1.5499 -1.0268 -0.9652
  874MOL0     H17932   0.838   9.117  11.428  1.8699 -1.5371 -0.2261
  874MOL0     H17933   0.850   9.051  11.659 -0.4560  1.0753 -2.2729
  874MOL0     H17934   1.006   9.009  11.587 -1.6448 -1.6269 -1.9364
  874MOL0     H17935   1.112   9.159  11.744  0.0354  1.0070  1.5721
  874MOL0     H17936   1.003   9.285  11.710  0.8052 -0.8361 -1.5014
  874MOL0     H17937   0.829   9.186  11.855  0.7985  3.1647  1.4489
  874MOL0     H17938   0.963   9.074  11.922 -1.4846 -1.1255  0.2858
  874MOL0     H17939   0.937   9.395  11.935 -0.0580  1.0271  3.4993
  874MOL0     H17940   1.088   9.302  11.957  0.3788 -0.8908  0.8696
  874MOL0     H17941   0.708   9.285  12.084 -0.2263 -0.3570  1.5206
  874MOL0     H17942   0.653   9.111  12.305  1.0524 -0.2023  1.3275
  874MOL0     H17943   0.719   9.180  12.450  0.2065 -3.4244 -0.4309
  874MOL0     H17944   0.528   9.314  12.259  0.2578  1.6583  0.0659
  874MOL0     H17945   0.617   9.414  12.379  0.0186  0.2006 -0.0208
  874MOL0     H17946   0.491   9.267  12.569 -1.0820 -0.9666  0.9088
  874MOL0     H17947   0.419   9.183  12.427  1.8371  0.7561 -2.2904
  874MOL0     H17948   0.317   9.389  12.358 -1.3477 -0.7951  0.4446
  874MOL0     H17949   0.419   9.491  12.473  3.9845 -2.2426  0.4546
  874MOL0     H17950   0.260   9.244  12.773 -0.0764  0.3675 -0.0252
  874MOL0     H17951   0.303   9.290  13.086  1.9454 -1.6357 -1.3451
  874MOL0     H17952   0.130   9.305  13.049 -0.8128 -0.5150 -3.2973
  874MOL0     H17953   0.231   9.191  12.962  3.0509  0.5150 -0.6933
  874MOL0     H17954   0.454   9.850  13.139  0.5129  3.6237 -0.6841
  874MOL0     H17955   0.489   9.965  13.343 -0.3463 -2.3431  0.1740
  874MOL0     H17956   0.129  10.152  13.612 -1.9999 -2.8464  2.0413
  874MOL0     H17957   0.163   9.983  13.626 -0.6561  0.2975 -2.4771
  874MOL0     H17958   0.308  10.212  13.744 -1.4823  0.5502 -0.5182
  874MOL0     H17959   0.208  10.092  13.829 -1.2115  0.8446 -0.3873
  874MOL0     H17960   0.478  10.057  13.687  1.7583  0.9498  1.5195
  874MOL0     H17961   0.388   9.917  13.735 -3.3672  1.1777 -2.3596
  874MOL0     H17962   0.494  10.120  13.936 -0.2914 -1.1843  4.6636
  874MOL0     H17963   0.377   9.992  13.981  0.5160 -2.4765 -0.1006
  874MOL0     H17964   0.640   9.923  13.850 -1.5088  2.2134 -1.3846
  874MOL0     H17965   0.528   9.830  13.946  0.2795  0.6011  2.4415
  874MOL0     H17966   0.709  10.069  14.052  0.2946 -0.3129 -0.4588
  874MOL0     H17967   0.573  10.017  14.142  1.2284  4.4757 -0.6581
  874MOL0     H17968   0.648   9.773  14.137  0.6390 -0.9442 -3.0112
  874MOL0     H17969   0.747   9.883  14.229 -1.5782  1.4291  0.7581
  874MOL0     H17970   0.838   9.875  13.950 -1.1405 -0.7442  0.9697
  874MOL0     H17971   0.840   9.713  14.021 -0.5627  0.4920 -2.2473
  874MOL0     H17972   0.059  10.003  13.403 -1.6735 -0.4617 -1.8026
  874MOL0     H17973   0.028   9.851  13.203 -0.3876  0.4379 -1.6341
  874MOL0     H17974   0.245   9.738  12.823  1.0568 -1.0626  2.4517
  874MOL0     H17975   0.275   9.638  12.599  0.8355  3.3336  2.0541
  874MOL0     H17976   1.327   9.260  11.045  1.7313 -1.4071 -1.1684
  874MOL0     H17977   1.472   9.281  10.856 -0.3965 -1.1130 -0.0962
  874MOL0     H17978   1.429   9.529  10.392  0.0918 -1.3762 -0.1505
  874MOL0     H17979   1.511   9.586  10.201 -1.1734 -0.1813  1.6244
  874MOL0     H17980   1.730   9.310   9.975 -4.0724 -2.7442  0.1459
  874MOL0     H17981   1.572   9.375   9.992  0.4132 -0.6095 -0.1686
  874MOL0     H17982   1.781   9.491   9.797  0.9163 -1.3169  2.4983
  874MOL0     H17983   1.636   9.581   9.857  0.0389  0.4357 -0.8637
  874MOL0     H17984   1.505   9.379   9.773  0.7109  0.0494  3.1854
  874MOL0     H17985   1.653   9.311   9.710  1.4345  0.5549  1.3374
  874MOL0     H17986   1.514   9.560   9.614  0.4479  0.1036 -0.2788
  874MOL0     H17987   1.527   9.407   9.521  1.4297 -1.8743  0.9555
  874MOL0     H17988   1.864   9.645   9.428  0.0046  0.7321  2.4569
  874MOL0     H17989   1.826   9.295  10.227  4.0320  2.9040  1.7202
  874MOL0     H17990   1.749   9.261  10.482 -0.0379  0.2933 -0.2569
  875MOL0     O17991  11.195   6.671   9.591 -0.7058  0.3798  0.3888
  875MOL0     C17992  11.274   6.729   9.665  0.8915 -0.0876 -0.1638
  875MOL0     O17993  11.236   6.839   9.747 -0.1607  0.7607 -0.6427
  875MOL0     C17994  11.134   6.923   9.708  0.2539 -0.4482 -0.1666
  875MOL0     C17995  11.048   6.975   9.811  0.5663 -0.0427 -1.0778
  875MOL0     C17996  10.943   7.061   9.775  0.5604 -0.0635  0.0603
  875MOL0     C17997  10.914   7.099   9.634 -0.2722 -0.5294  0.9686
  875MOL0     O17998  10.806   7.175   9.590  0.1128  0.1308  0.1418
  875MOL0     C17999  10.690   7.181   9.682 -0.8581 -0.2763 -0.3155
  875MOL0     C18000  10.563   7.219   9.614  0.3346  0.5835  0.0100
  875MOL0     C18001  10.520   7.111   9.511  0.9673 -0.5809  0.7383
  875MOL0     C18002  10.379   7.154   9.447 -0.3186 -0.2489  0.4292
  875MOL0     C18003  10.332   7.041   9.348  0.2595 -0.7864 -0.5367
  875MOL0     C18004  10.255   7.102   9.232 -0.8256 -0.3253  0.1667
  875MOL0     C18005  10.199   7.001   9.127  0.1807  0.9722  0.8507
  875MOL0     C18006  10.053   7.032   9.091  0.0617 -0.0599 -1.2335
  875MOL0     N18007  10.007   6.921   9.007 -1.3052 -0.4872 -0.0937
  875MOL0     C18008   9.967   6.801   9.049  0.6537  0.1292 -0.6411
  875MOL0     C18009   9.932   6.740   8.935 -0.0504  0.2195  0.1122
  875MOL0     C18010   9.912   6.589   8.940  0.3216  0.2048  0.2146
  875MOL0     C18011   9.769   6.545   8.940  0.4057 -0.8745  0.3254
  875MOL0     C18012   9.760   6.399   8.910  0.1087  0.3970 -0.1070
  875MOL0     C18013   9.839   6.300   8.992  0.0901  0.1553 -0.9987
  875MOL0     O18014   9.799   6.158   8.974 -0.0769 -0.2293  0.1608
  875MOL0     C18015   9.869   6.048   9.023 -0.5487  0.1294  0.3598
  875MOL0     C18016   9.825   5.920   8.985  0.6649 -0.3364 -0.0831
  875MOL0     C18017   9.908   5.813   9.016  0.1466  0.1214  0.7694
  875MOL0     C18018   9.863   5.677   8.955  0.3685 -0.5828 -0.4614
  875MOL0     C18019  10.030   5.827   9.085 -0.0435  0.2010 -0.4537
  875MOL0     C18020  10.115   5.710   9.127  0.0750 -0.0661  0.0743
  875MOL0     O18021  10.181   5.736   9.244 -0.1911  0.0411  0.2382
  875MOL0     C18022  10.279   5.643   9.275 -0.0328  0.7154 -0.6094
  875MOL0     C18023  10.242   5.520   9.323  0.4366  1.4640  0.4313
  875MOL0     C18024  10.341   5.417   9.338  0.0913 -0.1520 -0.9066
  875MOL0     C18025  10.476   5.442   9.316  0.5412  0.2181  0.9413
  875MOL0     O18026  10.557   5.342   9.349 -0.6996 -0.2984  0.0011
  875MOL0     C18027  10.676   5.365   9.420  0.4247  1.1524 -0.7084
  875MOL0     C18028  10.802   5.372   9.330  0.0914  0.0094 -0.3739
  875MOL0     C18029  10.938   5.407   9.396  0.7363  0.0628 -0.4299
  875MOL0     C18030  10.977   5.300   9.499 -0.6452 -0.3096 -0.0465
  875MOL0     C18031  11.106   5.350   9.569 -0.7278  0.4684 -0.3667
  875MOL0     C18032  11.151   5.248   9.670 -0.2579  0.2859 -0.5284
  875MOL0     C18033  11.273   5.293   9.755  1.1063  0.0972  0.0283
  875MOL0     C18034  11.306   5.183   9.850  0.3622 -0.9908 -0.1778
  875MOL0    Cl18035  11.434   5.071   9.798  0.1642 -0.4609 -0.2566
  875MOL0     C18036  10.510   5.572   9.271  0.2763  0.1703  1.2661
  875MOL0     C18037  10.408   5.671   9.239 -0.3845  0.0314  0.0259
  875MOL0     O18038  10.118   5.606   9.060  0.8052 -0.3454  0.3585
  875MOL0     C18039  10.069   5.957   9.119  0.6049 -0.3308 -0.0527
  875MOL0     C18040   9.988   6.067   9.092 -0.1552  0.2972  0.1761
  875MOL0     N18041   9.957   6.815   8.826  0.3518  0.4771  0.0083
  875MOL0     N18042  10.011   6.923   8.871  0.4776  1.0854  0.0683
  875MOL0     C18043  11.007   7.055   9.543  0.5299 -1.1622 -0.6281
  875MOL0     C18044  11.115   6.973   9.582  0.4414  0.3844  0.3308
  875MOL0     C18045  11.419   6.699   9.657  0.2415  1.2435  1.4370
  875MOL0     C18046  11.511   6.780   9.720  0.3000  0.0615  0.2525
  875MOL0     C18047  11.648   6.761   9.712 -0.8435  0.2140 -0.3837
  875MOL0     C18048  11.696   6.647   9.642 -0.3340 -0.7790  0.1154
  875MOL0     O18049  11.828   6.607   9.644  0.1381 -0.1346  0.3402
  875MOL0     C18050  11.928   6.669   9.724  0.0827  0.1173  0.1373
  875MOL0     C18051  12.050   6.588   9.691  0.2031  0.0881  0.4009
  875MOL0     C18052  12.178   6.654   9.743  0.2493 -0.8494  0.8830
  875MOL0     C18053  12.305   6.591   9.704 -0.2556  0.0612  0.5453
  875MOL0     C18054  12.345   6.484   9.795  0.9365  0.4609  0.0816
  875MOL0     C18055  12.374   6.382   9.856  0.4953 -0.3002 -0.7862
  875MOL0     C18056  11.602   6.568   9.569  0.2109  0.6796 -0.4172
  875MOL0     C18057  11.471   6.593   9.585  0.2509 -0.3265 -0.3905
  875MOL0     H18058  11.052   6.939   9.913  2.9485  1.4187 -0.5737
  875MOL0     H18059  10.869   7.084   9.851  2.4818  1.5770  1.5584
  875MOL0     H18060  10.682   7.082   9.728  0.5739  0.1890  1.0097
  875MOL0     H18061  10.725   7.253   9.756 -0.1557 -0.5764 -0.3551
  875MOL0     H18062  10.482   7.220   9.687  0.2297  1.4345 -0.1082
  875MOL0     H18063  10.573   7.319   9.570 -1.1361 -0.3359 -2.6490
  875MOL0     H18064  10.587   7.096   9.426 -0.8487 -4.3811 -0.2062
  875MOL0     H18065  10.516   7.010   9.551 -1.9091 -0.1383  1.8413
  875MOL0     H18066  10.317   7.156   9.537  0.4920 -2.2884  1.0841
  875MOL0     H18067  10.404   7.246   9.394  1.5997 -0.8786  0.1339
  875MOL0     H18068  10.413   6.991   9.295 -0.7280  0.1407 -3.0915
  875MOL0     H18069  10.269   6.973   9.405 -0.4070  1.4278  1.5882
  875MOL0     H18070  10.174   7.167   9.266 -0.7871  0.3567 -0.9746
  875MOL0     H18071  10.331   7.169   9.189 -1.2064  1.9925  2.8409
  875MOL0     H18072  10.247   7.020   9.031 -2.7868  3.7669 -0.2666
  875MOL0     H18073  10.223   6.900   9.160  4.6937  1.2920 -0.6728
  875MOL0     H18074  10.064   7.125   9.034 -1.1678  0.5867 -0.4745
  875MOL0     H18075   9.994   7.042   9.183  3.0256 -0.7638  0.8824
  875MOL0     H18076   9.957   6.764   9.150 -1.2246 -0.2937 -0.9457
  875MOL0     H18077   9.961   6.545   8.852  0.7519  3.7905 -1.5278
  875MOL0     H18078   9.976   6.547   9.018 -0.0368  1.0344  0.9726
  875MOL0     H18079   9.706   6.597   8.867  2.7671  1.3792 -0.2832
  875MOL0     H18080   9.726   6.575   9.036  0.3674 -1.5837  0.5349
  875MOL0     H18081   9.782   6.366   8.807 -2.9500  0.6251 -0.9324
  875MOL0     H18082   9.655   6.374   8.926  0.6516 -1.1209  1.3212
  875MOL0     H18083   9.805   6.318   9.094  1.7621 -1.9798  0.0296
  875MOL0     H18084   9.944   6.329   8.997  0.5333 -1.4837  0.2505
  875MOL0     H18085   9.738   5.895   8.925  0.2671 -1.8974  1.0972
  875MOL0     H18086   9.757   5.678   8.930 -0.3830  1.4922  2.2722
  875MOL0     H18087   9.933   5.656   8.873  2.6760 -0.4759  1.3803
  875MOL0     H18088   9.877   5.588   9.017  1.7183 -1.8597 -2.4665
  875MOL0     H18089  10.137   5.498   9.336  0.5949 -0.6151 -1.2184
  875MOL0     H18090  10.322   5.316   9.373 -0.3810  0.4787  0.7735
  875MOL0     H18091  10.669   5.451   9.486  0.1789 -0.4018  1.3979
  875MOL0     H18092  10.686   5.275   9.481 -0.5602  1.7585  0.3699
  875MOL0     H18093  10.816   5.286   9.264 -0.1256 -0.6342  0.4069
  875MOL0     H18094  10.774   5.454   9.263 -1.1195  1.0518  1.3281
  875MOL0     H18095  10.914   5.500   9.449 -0.1072 -0.6318  0.4606
  875MOL0     H18096  11.015   5.432   9.323  1.1198  2.5658  0.7233
  875MOL0     H18097  10.897   5.286   9.572 -1.0539  2.1993  0.0725
  875MOL0     H18098  10.990   5.203   9.450 -1.2927 -2.7749  4.1990
  875MOL0     H18099  11.082   5.448   9.610  0.0776  0.3895  0.3024
  875MOL0     H18100  11.189   5.353   9.498  0.0867 -0.8198  0.4967
  875MOL0     H18101  11.069   5.222   9.739 -0.3866  0.2943 -0.6787
  875MOL0     H18102  11.177   5.159   9.612  1.2084  1.6612 -2.0917
  875MOL0     H18103  11.246   5.383   9.811 -3.4800 -0.4173 -0.9751
  875MOL0     H18104  11.364   5.300   9.694  0.8362 -0.0056 -0.3874
  875MOL0     H18105  11.222   5.113   9.859  2.3853 -3.4668  0.8184
  875MOL0     H18106  11.327   5.232   9.946  0.6744  3.6174 -2.3332
  875MOL0     H18107  10.607   5.610   9.240 -0.4263  1.8720  1.0058
  875MOL0     H18108  10.441   5.760   9.186 -2.2372 -0.8874 -2.9543
  875MOL0     H18109  10.166   5.967   9.166  0.8653 -1.8553 -0.2326
  875MOL0     H18110  10.033   6.159   9.126  0.1214  0.6319 -1.0258
  875MOL0     H18111  10.993   7.079   9.439 -2.7030 -0.3247 -0.0896
  875MOL0     H18112  11.196   6.953   9.512  1.2187 -0.2703  1.3918
  875MOL0     H18113  11.475   6.865   9.778 -0.0660 -1.1597  1.8530
  875MOL0     H18114  11.723   6.822   9.762 -0.0421 -0.8964 -0.2127
  875MOL0     H18115  11.947   6.773   9.696 -0.7298 -0.0423 -1.0813
  875MOL0     H18116  11.897   6.674   9.829 -1.0939  1.7433 -0.2469
  875MOL0     H18117  12.054   6.579   9.582  3.9261  1.5005  0.2695
  875MOL0     H18118  12.050   6.488   9.736  2.7518 -0.9137 -1.5946
  875MOL0     H18119  12.188   6.656   9.851  1.4034  1.2134  0.7968
  875MOL0     H18120  12.174   6.761   9.717 -4.0101 -1.0572  0.0888
  875MOL0     H18121  12.387   6.664   9.700  2.1232 -2.4285  0.7086
  875MOL0     H18122  12.301   6.558   9.599 -0.8651 -0.0060  0.5884
  875MOL0     H18123  12.388   6.297   9.919  1.9428  0.5504  0.1016
  875MOL0     H18124  11.637   6.486   9.507  0.7681 -0.4688  1.3386
  875MOL0     H18125  11.407   6.522   9.533  0.7708 -0.4565 -0.8721
  876MOL0     O18126  11.253  11.435  10.340 -0.4689  0.5022 -1.1216
  876MOL0     C18127  11.290  11.512  10.429  0.5193  0.4533 -0.7592
  876MOL0     O18128  11.344  11.634  10.416  0.2223  0.2405  0.1309
  876MOL0     C18129  11.375  11.682  10.289 -0.3028 -0.7025  0.3596
  876MOL0     C18130  11.403  11.821  10.277 -0.6328 -0.0636  0.3357
  876MOL0     C18131  11.456  11.882  10.160 -0.0610 -0.3778 -0.1091
  876MOL0     C18132  11.483  11.795  10.046  0.1444  1.0945 -0.2009
  876MOL0     O18133  11.531  11.832   9.923  0.0131  1.2746 -0.1664
  876MOL0     C18134  11.598  11.956   9.913 -0.7110 -0.7518  0.1208
  876MOL0     C18135  11.654  11.987   9.771  0.3294 -0.2446  0.7419
  876MOL0     C18136  11.714  12.128   9.753  1.1189  0.0522  0.6183
  876MOL0     C18137  11.809  12.153   9.868  0.9459 -0.2410 -0.4297
  876MOL0     C18138  11.891  12.281   9.832  0.0858  0.5832 -0.0392
  876MOL0     C18139  12.010  12.237   9.756  0.2871  0.0630  0.4396
  876MOL0     C18140  12.104  12.352   9.715  0.3843  0.6778 -0.5957
  876MOL0     C18141  12.234  12.310   9.652  0.5208  0.0679 -0.3724
  876MOL0     N18142  12.299  12.423   9.592  0.0336  0.1158 -0.6501
  876MOL0     C18143  12.306  12.545   9.652  0.0343 -0.6467  0.1383
  876MOL0     C18144  12.340  12.626   9.552  0.1550 -0.3680  0.3651
  876MOL0     C18145  12.349  12.768   9.576  0.4470 -1.1985 -0.5461
  876MOL0     C18146  12.488  12.817   9.593  0.2925 -0.1820 -0.8552
  876MOL0     C18147  12.537  12.783   9.737 -0.0987 -0.8375 -0.5614
  876MOL0     C18148  12.681  12.829   9.751 -0.2319 -0.4558 -0.3009
  876MOL0     O18149  12.716  12.850   9.896  0.0377 -0.1666  0.8152
  876MOL0     C18150  12.710  12.985   9.933 -0.0757  0.5090 -1.5281
  876MOL0     C18151  12.650  13.091   9.879 -0.9880  0.2148  0.0617
  876MOL0     C18152  12.656  13.220   9.934 -0.7464 -0.3745 -0.1740
  876MOL0     C18153  12.565  13.322   9.869 -0.0287 -0.0251 -0.9220
  876MOL0     C18154  12.732  13.246  10.053 -0.4612 -0.5950 -0.1906
  876MOL0     C18155  12.752  13.384  10.117  0.8785  0.8602 -0.9953
  876MOL0     O18156  12.783  13.386  10.245 -0.8232 -1.0046 -0.7230
  876MOL0     C18157  12.865  13.481  10.306  0.0049  0.6131  1.3683
  876MOL0     C18158  12.925  13.595  10.241  0.0865  0.7993  0.0791
  876MOL0     C18159  13.000  13.682  10.320 -0.1463 -0.1231  0.4990
  876MOL0     C18160  13.024  13.660  10.451  0.0740 -0.1786 -1.1193
  876MOL0     O18161  13.107  13.750  10.524 -0.2349 -0.7746 -0.1187
  876MOL0     C18162  13.243  13.783  10.477 -0.5204 -0.8906  0.1432
  876MOL0     C18163  13.315  13.862  10.590 -0.2570  0.0645  0.0514
  876MOL0     C18164  13.372  13.769  10.691  0.4783  0.0889 -0.9243
  876MOL0     C18165  13.418  13.846  10.811  0.8311 -0.7776  0.6086
  876MOL0     C18166  13.541  13.948  10.793  0.4191 -0.1021  0.6914
  876MOL0     C18167  13.576  14.010  10.929 -0.4293 -0.0470 -0.6001
  876MOL0     C18168  13.698  14.112  10.924  0.7479  0.3782  0.5375
  876MOL0     C18169  13.718  14.197  11.043 -0.4756  0.0135 -0.1878
  876MOL0    Cl18170  13.749  14.115  11.205  0.2492  0.3701  0.1869
  876MOL0     C18171  12.957  13.553  10.515  0.4702  0.5336  0.1576
  876MOL0     C18172  12.883  13.459  10.445 -0.2517  0.2136  0.7542
  876MOL0     O18173  12.715  13.486  10.053 -0.3948  0.6509 -0.0347
  876MOL0     C18174  12.771  13.128  10.130 -0.3105  0.6319  0.8818
  876MOL0     C18175  12.754  13.001  10.068  0.4029  0.0338  0.4232
  876MOL0     N18176  12.359  12.561   9.436 -0.3825  0.2390  0.2180
  876MOL0     N18177  12.333  12.443   9.463  0.4212  0.8445 -0.5930
  876MOL0     C18178  11.453  11.654  10.061 -0.0529 -0.4229  0.0235
  876MOL0     C18179  11.400  11.602  10.175  0.4474  0.7202  0.0617
  876MOL0     C18180  11.274  11.462  10.569 -0.6411 -0.1976  0.1740
  876MOL0     C18181  11.237  11.331  10.598 -0.1507 -0.3499 -0.1690
  876MOL0     C18182  11.215  11.281  10.726  0.1837  0.2838 -1.4316
  876MOL0     C18183  11.222  11.366  10.831 -0.3434 -0.0822  0.3799
  876MOL0     O18184  11.209  11.341  10.966  0.6135  0.5507  0.8643
  876MOL0     C18185  11.338  11.305  11.017 -0.5949  0.2014  0.2660
  876MOL0     C18186  11.316  11.196  11.123  0.0729  0.5062  0.0634
  876MOL0     C18187  11.448  11.152  11.171 -0.4129  0.1989 -0.4002
  876MOL0     C18188  11.433  11.047  11.274  0.5362 -0.8911 -0.1715
  876MOL0     C18189  11.360  11.085  11.392  0.2301  0.4664 -0.6647
  876MOL0     C18190  11.293  11.127  11.483 -1.6208 -0.1900  0.4277
  876MOL0     C18191  11.259  11.503  10.804 -0.2185  0.6388 -0.5549
  876MOL0     C18192  11.280  11.550  10.676 -0.3099  0.4253 -0.2130
  876MOL0     H18193  11.401  11.892  10.359  1.1071 -1.1256  1.3461
  876MOL0     H18194  11.467  11.990  10.161  1.0663 -0.4772  0.1976
  876MOL0     H18195  11.543  12.042   9.953 -0.9108  0.7023 -3.0186
  876MOL0     H18196  11.682  11.941   9.982 -1.9676 -0.7304  1.7275
  876MOL0     H18197  11.730  11.909   9.760  1.1574  0.2122  2.6912
  876MOL0     H18198  11.569  11.982   9.703  0.0974  3.0163  0.6095
  876MOL0     H18199  11.768  12.136   9.659 -0.6655  0.1489 -0.4561
  876MOL0     H18200  11.637  12.206   9.743  0.8850 -0.5048 -4.8694
  876MOL0     H18201  11.764  12.167   9.967 -0.7324 -1.5805 -0.9458
  876MOL0     H18202  11.879  12.069   9.873  0.7699 -0.3498  0.2317
  876MOL0     H18203  11.828  12.357   9.787 -1.7936 -0.4562  0.7050
  876MOL0     H18204  11.933  12.324   9.923 -1.5324  2.9120 -0.3290
  876MOL0     H18205  12.062  12.153   9.803 -0.2071 -1.4567 -1.5945
  876MOL0     H18206  11.966  12.209   9.660 -1.4224 -0.0199  1.2209
  876MOL0     H18207  12.053  12.424   9.650  1.4719  2.9791  0.9506
  876MOL0     H18208  12.109  12.418   9.802  0.3724  2.8083 -2.1209
  876MOL0     H18209  12.214  12.243   9.568 -2.5653  3.3137 -2.5255
  876MOL0     H18210  12.288  12.259   9.732 -0.1186 -1.5854 -0.9408
  876MOL0     H18211  12.291  12.585   9.752  2.3069  0.3724  0.1182
  876MOL0     H18212  12.303  12.809   9.486 -0.1463 -0.3672  0.1213
  876MOL0     H18213  12.292  12.795   9.665  1.6827 -1.2216  0.2761
  876MOL0     H18214  12.500  12.924   9.575 -0.5689  0.1162  0.2264
  876MOL0     H18215  12.565  12.762   9.538  3.0639  2.4689  0.1005
  876MOL0     H18216  12.527  12.675   9.751 -0.5969 -0.4840  2.3870
  876MOL0     H18217  12.470  12.825   9.812  1.9992 -1.0151  1.5519
  876MOL0     H18218  12.697  12.916   9.687 -1.8804 -1.5299 -2.2977
  876MOL0     H18219  12.740  12.751   9.701 -1.0079 -1.0581 -0.3127
  876MOL0     H18220  12.584  13.080   9.794 -1.4651  0.7412  0.3582
  876MOL0     H18221  12.512  13.372   9.951  0.9306 -1.3425  0.5593
  876MOL0     H18222  12.608  13.396   9.802  0.5896 -2.0403 -2.8617
  876MOL0     H18223  12.487  13.269   9.813  2.1838 -2.1812 -2.1345
  876MOL0     H18224  12.931  13.604  10.133  1.2319 -2.8813 -0.2867
  876MOL0     H18225  13.049  13.756  10.258 -0.2581 -1.2807 -1.0138
  876MOL0     H18226  13.303  13.701  10.437  1.0638  0.5254 -0.4980
  876MOL0     H18227  13.223  13.856  10.398  0.3076  1.8206  2.2775
  876MOL0     H18228  13.387  13.924  10.536 -0.1768  0.2308  0.3493
  876MOL0     H18229  13.237  13.920  10.641 -1.2699 -1.0194 -0.1973
  876MOL0     H18230  13.467  13.728  10.654  2.1593  1.0431  2.0412
  876MOL0     H18231  13.310  13.682  10.716  0.2666 -0.1449 -2.1826
  876MOL0     H18232  13.333  13.908  10.839  0.5562 -0.2438 -1.2673
  876MOL0     H18233  13.440  13.782  10.897 -0.4924 -0.1019  1.4774
  876MOL0     H18234  13.511  14.037  10.737  0.9580 -0.6026 -0.4365
  876MOL0     H18235  13.621  13.903  10.733 -0.5137 -3.7347  1.9217
  876MOL0     H18236  13.490  14.060  10.974  2.6364  2.1884  3.5487
  876MOL0     H18237  13.610  13.930  10.996 -0.1557  0.8052  0.3081
  876MOL0     H18238  13.676  14.182  10.843  1.8615 -1.3438 -1.3543
  876MOL0     H18239  13.789  14.064  10.886  0.0388  0.0490 -0.8535
  876MOL0     H18240  13.632  14.262  11.065 -2.1922 -1.7054 -1.4728
  876MOL0     H18241  13.798  14.266  11.015 -2.6219  2.2737 -1.1713
  876MOL0     H18242  12.978  13.530  10.619  2.0994 -2.2522 -0.6955
  876MOL0     H18243  12.833  13.374  10.491 -4.3523  0.7840 -2.0688
  876MOL0     H18244  12.816  13.135  10.229 -0.8433 -2.6589  1.4686
  876MOL0     H18245  12.772  12.913  10.129 -0.6377  1.8937  3.6862
  876MOL0     H18246  11.481  11.597   9.974 -1.6146  0.4257 -1.0812
  876MOL0     H18247  11.379  11.496  10.167 -0.3265  0.8804 -0.0903
  876MOL0     H18248  11.228  11.264  10.513  0.7032 -0.5414 -0.1190
  876MOL0     H18249  11.187  11.179  10.748 -0.6990  0.7044 -0.5177
  876MOL0     H18250  11.402  11.252  10.945 -0.4451  1.6576 -0.7200
  876MOL0     H18251  11.403  11.388  11.045 -1.8000  1.4077 -0.4170
  876MOL0     H18252  11.263  11.111  11.079 -1.7227  2.0254 -0.8600
  876MOL0     H18253  11.262  11.235  11.210  0.9815 -1.3856  1.5342
  876MOL0     H18254  11.495  11.233  11.227 -0.2475 -0.5253  0.5408
  876MOL0     H18255  11.524  11.108  11.107 -2.5527 -1.7017 -1.7959
  876MOL0     H18256  11.533  11.028  11.316  1.0803  3.1595  0.7822
  876MOL0     H18257  11.396  10.950  11.238 -1.5462 -1.5940  3.4371
  876MOL0     H18258  11.238  11.166  11.566 -2.8626 -1.7883  0.4005
  876MOL0     H18259  11.265  11.566  10.892  2.6729 -2.5289  1.8057
  876MOL0     H18260  11.306  11.654  10.657  0.2305  0.5725  1.2126
  877MOL0     O18261   5.391  10.054   2.569 -0.4974  0.1857 -0.4258
  877MOL0     C18262   5.307  10.141   2.571  0.2316 -0.0435 -0.9426
  877MOL0     O18263   5.326  10.278   2.607  1.0266  0.3875 -0.2714
  877MOL0     C18264   5.436  10.317   2.678 -0.5820  0.3559  0.8473
  877MOL0     C18265   5.546  10.373   2.612  0.3973 -0.7174  0.4353
  877MOL0     C18266   5.667  10.385   2.683 -0.9551 -0.2705  0.6737
  877MOL0     C18267   5.674  10.351   2.819  0.4430 -1.0020  0.2221
  877MOL0     O18268   5.787  10.376   2.896 -0.4763 -0.6232 -0.3597
  877MOL0     C18269   5.929  10.366   2.839  0.6738  0.1252  1.0334
  877MOL0     C18270   6.030  10.353   2.949 -0.9990 -0.3752 -0.2445
  877MOL0     C18271   6.006  10.463   3.058  1.3537  0.0769 -0.3716
  877MOL0     C18272   6.116  10.477   3.156 -0.4280 -0.1673  1.0912
  877MOL0     C18273   6.111  10.398   3.287 -0.4926  1.4053 -0.7009
  877MOL0     C18274   6.108  10.246   3.262 -0.5512  0.2660 -0.5766
  877MOL0     C18275   6.173  10.146   3.365 -0.3764  0.5836 -0.5364
  877MOL0     C18276   6.111  10.157   3.505 -0.0584  0.7965  0.9750
  877MOL0     N18277   6.177  10.260   3.585 -0.4507 -0.4649 -0.2171
  877MOL0     C18278   6.123  10.374   3.643  0.5829  0.3816  0.5578
  877MOL0     C18279   6.218  10.445   3.705 -0.5044  0.0745 -0.5887
  877MOL0     C18280   6.192  10.577   3.771  0.9462 -0.7906 -0.2637
  877MOL0     C18281   6.251  10.690   3.679 -0.4094  0.3849  0.5495
  877MOL0     C18282   6.178  10.691   3.547  0.0581  0.6206  0.2232
  877MOL0     C18283   6.257  10.784   3.464  0.0865 -0.9615  0.5191
  877MOL0     O18284   6.211  10.766   3.326 -0.1084  0.2672 -0.1012
  877MOL0     C18285   6.208  10.874   3.234 -0.2131 -0.4864 -0.4166
  877MOL0     C18286   6.288  10.987   3.265  0.1579  0.3097  1.1213
  877MOL0     C18287   6.294  11.090   3.166  0.4240 -0.4618 -0.7177
  877MOL0     C18288   6.369  11.219   3.215 -0.6632  0.1049 -0.6407
  877MOL0     C18289   6.219  11.083   3.050 -0.0551 -0.7190  0.4437
  877MOL0     C18290   6.197  11.201   2.962  0.9951  0.3848  0.4767
  877MOL0     O18291   6.299  11.280   2.934 -0.1992 -0.0631 -0.8340
  877MOL0     C18292   6.263  11.414   2.914 -0.1856 -0.5961 -0.3655
  877MOL0     C18293   6.314  11.471   2.794 -0.1383  0.8690 -0.0022
  877MOL0     C18294   6.277  11.599   2.764 -0.0293 -0.3975  0.1650
  877MOL0     C18295   6.208  11.677   2.863 -1.0716  0.7774 -1.1129
  877MOL0     O18296   6.197  11.806   2.809  1.1326  0.9897  0.5121
  877MOL0     C18297   6.066  11.869   2.843  0.1169 -0.3659  0.5963
  877MOL0     C18298   6.032  11.987   2.745  0.8635  0.6903  0.0526
  877MOL0     C18299   5.968  11.928   2.611  0.4299 -0.0086  0.6279
  877MOL0     C18300   6.067  11.859   2.507  0.3283 -0.1589  0.3020
  877MOL0     C18301   6.183  11.942   2.459 -0.0282  0.3895  0.1416
  877MOL0     C18302   6.243  11.886   2.331  0.4145  0.0447  1.4347
  877MOL0     C18303   6.384  11.937   2.299  1.1292 -0.2336 -0.4586
  877MOL0     C18304   6.488  11.848   2.365 -0.1133 -0.4018 -0.7232
  877MOL0    Cl18305   6.554  11.719   2.257 -0.1110  0.2349 -0.2905
  877MOL0     C18306   6.174  11.623   2.987 -0.4805 -1.5138  0.0840
  877MOL0     C18307   6.215  11.495   3.017  0.5560 -0.1114 -0.3075
  877MOL0     O18308   6.083  11.223   2.920 -0.6944 -0.0307  0.1777
  877MOL0     C18309   6.154  10.970   3.019 -0.1751  1.4882  0.8370
  877MOL0     C18310   6.141  10.868   3.111  0.1312 -0.4661  0.5024
  877MOL0     N18311   6.338  10.370   3.691  0.1204 -0.2305  0.1148
  877MOL0     N18312   6.309  10.260   3.616 -0.8639 -0.3918 -0.2406
  877MOL0     C18313   5.559  10.316   2.887 -0.0206 -0.9330 -0.2220
  877MOL0     C18314   5.439  10.289   2.815 -0.2185  0.2209 -0.2745
  877MOL0     C18315   5.178  10.091   2.521 -0.3558 -0.0845 -1.0855
  877MOL0     C18316   5.079  10.182   2.482 -0.5760  0.4388 -0.9617
  877MOL0     C18317   4.953  10.140   2.423  0.0671  0.3922 -0.5346
  877MOL0     C18318   4.932  10.006   2.396  0.4605 -0.3376 -0.1806
  877MOL0     O18319   4.820   9.974   2.333 -0.3987  0.4752  0.1736
  877MOL0     C18320   4.751   9.864   2.392 -0.1943  0.2632 -0.5189
  877MOL0     C18321   4.785   9.746   2.301  0.0406 -0.2461 -0.5757
  877MOL0     C18322   4.755   9.604   2.369 -1.0206 -0.0040 -0.2830
  877MOL0     C18323   4.757   9.478   2.283 -0.4686 -0.5776  0.0756
  877MOL0     C18324   4.876   9.457   2.202  0.5281 -0.2122 -0.1992
  877MOL0     C18325   4.975   9.422   2.147 -0.1808 -0.2296 -0.8062
  877MOL0     C18326   5.032   9.913   2.431  0.3975  0.2575 -1.3826
  877MOL0     C18327   5.145   9.955   2.505  0.1748  0.3675  0.3720
  877MOL0     H18328   5.552  10.399   2.506  0.6422 -1.5265  0.2477
  877MOL0     H18329   5.751  10.419   2.622 -0.5821 -0.2382  1.2042
  877MOL0     H18330   5.936  10.275   2.780  1.4404 -0.2363  1.6560
  877MOL0     H18331   5.953  10.453   2.778 -1.3417 -1.8613 -3.0148
  877MOL0     H18332   6.037  10.257   3.001  1.1795 -1.6630 -2.6590
  877MOL0     H18333   6.125  10.370   2.897 -1.6284  1.6909 -0.8206
  877MOL0     H18334   6.012  10.561   3.010  4.5254 -1.3185 -3.2892
  877MOL0     H18335   5.909  10.458   3.108  1.8304  0.1843  0.5818
  877MOL0     H18336   6.201  10.449   3.094 -1.1914 -0.0680 -0.0405
  877MOL0     H18337   6.124  10.582   3.188 -2.3536  1.1138 -2.1709
  877MOL0     H18338   6.199  10.418   3.349 -0.1335 -2.1213  0.1463
  877MOL0     H18339   6.027  10.424   3.353  1.0461 -0.3602  2.1539
  877MOL0     H18340   6.004  10.222   3.238 -1.0990 -2.7182  3.6797
  877MOL0     H18341   6.169  10.237   3.171 -0.6933 -1.8693 -0.5100
  877MOL0     H18342   6.173  10.043   3.328  4.0326  0.5024 -0.9084
  877MOL0     H18343   6.280  10.170   3.361  0.0603 -1.0494  0.3974
  877MOL0     H18344   6.116  10.055   3.542 -0.3415 -0.1129 -1.3119
  877MOL0     H18345   6.005  10.181   3.490  0.2346  0.8445 -1.4960
  877MOL0     H18346   6.018  10.403   3.639 -0.7627 -3.3786  3.1942
  877MOL0     H18347   6.085  10.582   3.791  0.8953 -0.2649 -0.6385
  877MOL0     H18348   6.242  10.568   3.868  1.3323  1.6079 -0.1785
  877MOL0     H18349   6.357  10.671   3.664 -0.1855  2.5060 -1.0266
  877MOL0     H18350   6.241  10.789   3.725  1.3179  0.2420  1.3063
  877MOL0     H18351   6.072  10.717   3.552 -0.4047 -1.3887  2.2596
  877MOL0     H18352   6.185  10.594   3.497 -0.0891  0.5315  0.3780
  877MOL0     H18353   6.364  10.761   3.459  1.3744  3.7010  1.6829
  877MOL0     H18354   6.250  10.888   3.497  1.6344  0.1091 -2.1406
  877MOL0     H18355   6.363  10.998   3.342  1.0187 -0.1599  0.3787
  877MOL0     H18356   6.433  11.274   3.144 -0.7732 -0.0641 -0.8707
  877MOL0     H18357   6.290  11.278   3.262 -1.4386 -1.1441 -0.3326
  877MOL0     H18358   6.440  11.195   3.294 -0.4149  1.5898 -0.3686
  877MOL0     H18359   6.359  11.401   2.725  1.8393 -1.1425  3.0661
  877MOL0     H18360   6.301  11.650   2.671  0.5154  0.9190  1.0086
  877MOL0     H18361   5.979  11.804   2.856  0.7019 -1.2992 -0.0732
  877MOL0     H18362   6.089  11.914   2.940 -0.7257 -2.9421  2.1039
  877MOL0     H18363   5.960  12.057   2.789  0.5732 -1.1547  2.7807
  877MOL0     H18364   6.126  12.039   2.726  1.5874 -0.2273  0.9830
  877MOL0     H18365   5.920  12.012   2.561  2.9004  1.1430  0.0488
  877MOL0     H18366   5.893  11.854   2.641  0.1325  0.4003  0.8990
  877MOL0     H18367   6.101  11.761   2.542  1.2947  0.4845  1.2536
  877MOL0     H18368   6.007  11.852   2.416  1.9608  1.5800 -0.9859
  877MOL0     H18369   6.261  11.955   2.535  0.4601 -0.3934 -0.2137
  877MOL0     H18370   6.144  12.042   2.439 -0.8129  0.4543  1.7978
  877MOL0     H18371   6.257  11.777   2.333  2.2158  0.1588 -0.6611
  877MOL0     H18372   6.169  11.920   2.258  1.2822  2.7337  1.7174
  877MOL0     H18373   6.399  12.033   2.348 -0.6246  1.3479 -2.7861
  877MOL0     H18374   6.387  11.948   2.190 -1.5936 -0.1470 -0.6163
  877MOL0     H18375   6.442  11.815   2.458  2.0302  4.6245  2.6239
  877MOL0     H18376   6.571  11.915   2.390  0.1364 -1.0863  0.3514
  877MOL0     H18377   6.122  11.659   3.075 -0.0146 -3.2826  1.1326
  877MOL0     H18378   6.198  11.446   3.112 -1.4194 -1.2233 -1.1667
  877MOL0     H18379   6.083  10.948   2.939  0.5382 -3.5227  1.2516
  877MOL0     H18380   6.069  10.790   3.090  0.8011 -0.3722 -2.5476
  877MOL0     H18381   5.552  10.304   2.994  1.0919 -2.7884 -0.3111
  877MOL0     H18382   5.350  10.251   2.864  0.0008 -0.0116 -0.0529
  877MOL0     H18383   5.102  10.284   2.512 -0.7765  0.2743 -0.2276
  877MOL0     H18384   4.880  10.216   2.398  1.3179  2.4607  1.7722
  877MOL0     H18385   4.783   9.842   2.494 -1.4966  1.1924  0.1249
  877MOL0     H18386   4.642   9.877   2.389 -0.1936  0.1785 -1.2594
  877MOL0     H18387   4.892   9.751   2.276  0.9622 -0.5864  2.8136
  877MOL0     H18388   4.723   9.756   2.212 -0.8688  4.1809  0.3122
  877MOL0     H18389   4.663   9.613   2.427 -0.2270 -0.2147  1.0537
  877MOL0     H18390   4.834   9.597   2.445 -1.5804  4.2921  0.9647
  877MOL0     H18391   4.677   9.482   2.209  0.9147 -0.5063 -1.4568
  877MOL0     H18392   4.737   9.393   2.350  1.5352 -1.5246 -0.4517
  877MOL0     H18393   5.061   9.400   2.088  0.3992 -1.7313  0.5397
  877MOL0     H18394   5.027   9.811   2.395 -2.9055 -0.3495  0.3836
  877MOL0     H18395   5.204   9.868   2.536 -0.5784 -0.5751 -0.7526
  878MOL0     O18396   3.291   7.977   0.845 -1.0888 -0.7595  0.3310
  878MOL0     C18397   3.222   8.004   0.745 -0.1592  0.5163 -0.7406
  878MOL0     O18398   3.206   8.125   0.689 -0.2329  0.1918 -0.1636
  878MOL0     C18399   3.220   8.248   0.764 -0.5923 -0.3705  0.1788
  878MOL0     C18400   3.242   8.251   0.905 -0.3544 -0.5770 -0.2039
  878MOL0     C18401   3.251   8.380   0.971  0.1532  0.0220  0.1802
  878MOL0     C18402   3.255   8.494   0.894  0.5835 -0.0022  0.1566
  878MOL0     O18403   3.262   8.610   0.969  0.3432  0.2994  0.1527
  878MOL0     C18404   3.364   8.696   0.917  0.3325  0.1333  0.3253
  878MOL0     C18405   3.408   8.806   1.025  0.1248 -0.1581 -0.5994
  878MOL0     C18406   3.305   8.926   1.040  0.2533 -0.4900  0.4407
  878MOL0     C18407   3.376   9.032   1.124  0.3075 -0.3463  0.8953
  878MOL0     C18408   3.287   9.154   1.159 -0.2785  0.5455 -0.8296
  878MOL0     C18409   3.341   9.240   1.276 -0.8777 -0.1138  0.9893
  878MOL0     C18410   3.232   9.325   1.333 -0.0149 -0.1118  0.3102
  878MOL0     C18411   3.293   9.458   1.391 -0.4322  0.9433  1.2782
  878MOL0     N18412   3.204   9.536   1.469  0.5063 -1.0778 -0.2942
  878MOL0     C18413   3.166   9.506   1.601  1.2809 -0.1409 -0.2406
  878MOL0     C18414   3.121   9.626   1.649  0.3689  0.6676 -0.1627
  878MOL0     C18415   3.078   9.644   1.791  0.2096  0.4972 -0.0724
  878MOL0     C18416   3.166   9.719   1.875  0.0744  0.1186 -1.0129
  878MOL0     C18417   3.168   9.870   1.842 -0.0379 -0.1826 -0.1472
  878MOL0     C18418   3.273   9.946   1.935  0.1699  0.1845  0.5005
  878MOL0     O18419   3.223   9.940   2.069  0.0406  0.9682  0.2217
  878MOL0     C18420   3.277   9.867   2.173 -0.6651 -0.7054 -0.6652
  878MOL0     C18421   3.407   9.838   2.185 -0.0322  0.9762  0.8977
  878MOL0     C18422   3.462   9.776   2.289 -0.1953  0.7799 -0.7635
  878MOL0     C18423   3.602   9.742   2.267  1.1479  0.1707 -0.0698
  878MOL0     C18424   3.388   9.739   2.402  0.9283 -0.0756 -0.5766
  878MOL0     C18425   3.445   9.670   2.526  0.3481 -0.3728  0.1047
  878MOL0     O18426   3.544   9.741   2.589 -0.6790 -0.2401  0.2323
  878MOL0     C18427   3.598   9.700   2.707  1.0006  0.0578  0.1360
  878MOL0     C18428   3.723   9.750   2.724  1.0095  0.4485 -0.5055
  878MOL0     C18429   3.784   9.737   2.844 -0.3895  0.8632 -0.6948
  878MOL0     C18430   3.726   9.667   2.953  0.5793 -0.3806  0.6401
  878MOL0     O18431   3.792   9.639   3.070  0.1127  0.2389 -0.0113
  878MOL0     C18432   3.858   9.754   3.146  0.4720  0.6874 -0.4851
  878MOL0     C18433   3.862   9.719   3.295  0.1270  0.0312 -0.7769
  878MOL0     C18434   3.897   9.850   3.376  0.5355  0.4790 -0.0926
  878MOL0     C18435   3.872   9.826   3.528  0.1207  0.3655 -0.0636
  878MOL0     C18436   3.869   9.963   3.618 -0.2029  0.2505  0.5189
  878MOL0     C18437   4.000  10.037   3.621  0.4054  0.3484  0.4202
  878MOL0     C18438   3.990  10.165   3.706  0.2033 -0.4853 -0.1984
  878MOL0     C18439   4.126  10.231   3.739  0.1788 -0.2757  0.5183
  878MOL0    Cl18440   4.221  10.277   3.597 -0.0889 -0.0690 -0.1060
  878MOL0     C18441   3.598   9.618   2.933 -0.2660  0.2738 -0.1326
  878MOL0     C18442   3.529   9.639   2.816  0.4047  0.1093  0.9072
  878MOL0     O18443   3.381   9.581   2.582 -0.7622 -0.0307 -0.5945
  878MOL0     C18444   3.248   9.767   2.393  0.0163 -0.4062  0.2739
  878MOL0     C18445   3.201   9.834   2.280 -0.4979  0.2741 -0.8838
  878MOL0     N18446   3.137   9.728   1.543 -0.3706  0.3495 -0.3925
  878MOL0     N18447   3.190   9.672   1.446  0.7869 -0.7263  0.0305
  878MOL0     C18448   3.248   8.491   0.751  1.3464  0.3370 -0.6628
  878MOL0     C18449   3.230   8.362   0.690  1.0073  0.8290 -0.2015
  878MOL0     C18450   3.175   7.899   0.649  0.8448 -0.5489  0.0053
  878MOL0     C18451   3.183   7.766   0.689  0.0448  0.1603 -0.6717
  878MOL0     C18452   3.137   7.667   0.608  0.3038  0.9587  0.6037
  878MOL0     C18453   3.107   7.687   0.476 -0.0940 -1.1255 -0.0884
  878MOL0     O18454   3.072   7.591   0.383  0.4621 -0.3144 -0.4257
  878MOL0     C18455   3.077   7.457   0.425 -0.3500 -0.2820  0.6675
  878MOL0     C18456   3.088   7.343   0.314  0.7420  0.0657  0.0819
  878MOL0     C18457   2.944   7.334   0.249  0.4226 -0.2353 -0.2896
  878MOL0     C18458   2.840   7.265   0.339 -0.1727  0.2166  0.6122
  878MOL0     C18459   2.851   7.126   0.342 -0.2768 -0.4665  0.1185
  878MOL0     C18460   2.857   7.011   0.336 -0.4687  0.4711 -0.1615
  878MOL0     C18461   3.103   7.824   0.430  0.9077  0.1636  0.2152
  878MOL0     C18462   3.142   7.925   0.515  0.7150 -0.4106  0.0850
  878MOL0     H18463   3.229   8.156   0.955  2.2740 -2.7856 -3.2951
  878MOL0     H18464   3.248   8.400   1.077 -2.0320  0.4948  0.0645
  878MOL0     H18465   3.450   8.632   0.893 -0.5594 -0.5525 -1.1747
  878MOL0     H18466   3.333   8.751   0.828  0.8184  1.5646  1.0035
  878MOL0     H18467   3.416   8.752   1.120 -0.0878  0.9844  0.0794
  878MOL0     H18468   3.503   8.846   0.989  0.9143  1.0351  2.4858
  878MOL0     H18469   3.281   8.962   0.940  1.2668  1.0160  0.7082
  878MOL0     H18470   3.208   8.899   1.082 -0.6889  2.3953  0.3415
  878MOL0     H18471   3.436   8.993   1.206  3.7349 -1.0281 -1.7034
  878MOL0     H18472   3.455   9.072   1.059  3.1414 -3.0523  2.4372
  878MOL0     H18473   3.273   9.214   1.069  0.6860  2.7375  0.3869
  878MOL0     H18474   3.187   9.123   1.190 -0.7745  2.8992  0.1564
  878MOL0     H18475   3.400   9.188   1.352  4.3980  0.5919 -2.1418
  878MOL0     H18476   3.415   9.309   1.235 -1.9259  0.7213  0.4235
  878MOL0     H18477   3.152   9.348   1.262  1.4098  1.9482 -0.7276
  878MOL0     H18478   3.191   9.268   1.417 -2.1364 -1.2723 -1.3997
  878MOL0     H18479   3.341   9.513   1.309  1.5192 -3.3459 -0.7355
  878MOL0     H18480   3.378   9.437   1.456 -1.4721 -1.0916  2.0487
  878MOL0     H18481   3.171   9.414   1.659  1.7864  0.6246  0.9668
  878MOL0     H18482   2.976   9.682   1.794 -0.3498 -0.5600 -2.7542
  878MOL0     H18483   3.070   9.542   1.830 -0.5055  0.7446  0.4641
  878MOL0     H18484   3.265   9.679   1.851  1.7172  3.0046  0.4200
  878MOL0     H18485   3.148   9.706   1.982 -0.8960  0.9972 -1.0522
  878MOL0     H18486   3.070   9.916   1.858 -0.4009 -0.5961 -1.1371
  878MOL0     H18487   3.188   9.885   1.735 -0.3065 -2.5918 -0.5960
  878MOL0     H18488   3.281  10.053   1.913 -0.2074  0.6110  2.2552
  878MOL0     H18489   3.374   9.905   1.924  1.2268  2.4288  1.1796
  878MOL0     H18490   3.469   9.893   2.116 -0.2875  0.5082  0.2807
  878MOL0     H18491   3.651   9.813   2.335 -0.8055 -0.5048  2.1648
  878MOL0     H18492   3.618   9.644   2.313 -2.7819 -0.9348 -0.7389
  878MOL0     H18493   3.647   9.751   2.168  0.3827  3.7106 -0.2249
  878MOL0     H18494   3.774   9.805   2.646  0.0973  0.1061 -1.3625
  878MOL0     H18495   3.886   9.774   2.851  0.4447 -1.5336  1.1497
  878MOL0     H18496   3.960   9.779   3.116 -0.5500  3.7879 -1.7792
  878MOL0     H18497   3.801   9.848   3.143 -2.3718 -0.9225 -0.0985
  878MOL0     H18498   3.762   9.691   3.328  0.4351  1.2209  1.3454
  878MOL0     H18499   3.926   9.635   3.327 -4.6255 -3.9799 -0.6004
  878MOL0     H18500   3.832   9.936   3.355  0.2357  0.2845  0.0337
  878MOL0     H18501   4.004   9.870   3.364  1.5533 -3.5678  0.8308
  878MOL0     H18502   3.770   9.787   3.529 -0.0767  0.8644 -0.3189
  878MOL0     H18503   3.936   9.748   3.570 -0.7675 -1.4457 -1.9455
  878MOL0     H18504   3.837   9.940   3.720 -0.6120  0.7314  0.5077
  878MOL0     H18505   3.781  10.016   3.578 -2.2623 -3.4832 -0.4105
  878MOL0     H18506   4.082   9.969   3.648  0.6831  0.3435 -0.4072
  878MOL0     H18507   4.036  10.070   3.523 -2.9564  2.1623 -0.3446
  878MOL0     H18508   3.943  10.143   3.802  1.4309 -2.1326  0.0707
  878MOL0     H18509   3.927  10.241   3.658 -1.7222 -1.1469  1.1334
  878MOL0     H18510   4.179  10.161   3.805  0.9899 -0.7680 -0.6315
  878MOL0     H18511   4.116  10.324   3.796 -0.9897  0.9566 -1.5824
  878MOL0     H18512   3.555   9.564   3.017  0.3960 -0.4454 -0.2467
  878MOL0     H18513   3.429   9.600   2.832  0.1619  0.7042  0.8437
  878MOL0     H18514   3.172   9.747   2.467 -1.1161 -1.1811 -1.0456
  878MOL0     H18515   3.096   9.860   2.275 -0.9921 -1.7888 -2.9161
  878MOL0     H18516   3.236   8.582   0.692  2.4654  0.5604 -0.5775
  878MOL0     H18517   3.203   8.355   0.585 -0.9818 -4.8221  0.3211
  878MOL0     H18518   3.205   7.749   0.794 -1.4687  0.8941 -0.2024
  878MOL0     H18519   3.135   7.563   0.640  0.2723  0.4640 -0.9153
  878MOL0     H18520   3.168   7.444   0.486  1.5616  2.3626 -1.3848
  878MOL0     H18521   2.991   7.451   0.492 -0.0953 -0.7399  0.9659
  878MOL0     H18522   3.122   7.246   0.351  2.2588  0.9434  1.1160
  878MOL0     H18523   3.162   7.378   0.241 -0.2998  3.7336  0.6174
  878MOL0     H18524   2.948   7.276   0.157 -1.5655 -1.5008  0.3607
  878MOL0     H18525   2.890   7.429   0.237 -1.7081 -1.2366  0.7739
  878MOL0     H18526   2.743   7.301   0.304 -0.4702 -0.6330  0.5288
  878MOL0     H18527   2.853   7.289   0.445 -0.3756  2.2207  0.2071
  878MOL0     H18528   2.863   6.904   0.340 -1.4429  0.4418  3.2417
  878MOL0     H18529   3.078   7.842   0.326 -0.7222  0.9362  0.7072
  878MOL0     H18530   3.130   8.028   0.485 -2.2642 -1.1384 -1.5702
  879MOL0     O18531  10.466   1.279   8.345 -0.7071 -0.1760  0.9215
  879MOL0     C18532  10.360   1.260   8.283  0.0855 -0.5659  0.0985
  879MOL0     O18533  10.341   1.281   8.146 -0.3516 -0.0450 -0.4753
  879MOL0     C18534  10.441   1.308   8.061 -0.8902 -0.0766  0.3246
  879MOL0     C18535  10.541   1.213   8.032 -1.6780 -0.0620 -0.0486
  879MOL0     C18536  10.652   1.245   7.953  0.1109 -0.2606  0.3864
  879MOL0     C18537  10.664   1.375   7.904 -0.9041  0.1982 -0.3235
  879MOL0     O18538  10.771   1.399   7.820 -0.2308  0.4661  1.9291
  879MOL0     C18539  10.763   1.483   7.703 -0.2032  0.9631  0.2270
  879MOL0     C18540  10.821   1.407   7.595  0.1382 -0.4103 -0.1704
  879MOL0     C18541  10.976   1.388   7.613 -0.1015  0.2531 -0.1750
  879MOL0     C18542  11.058   1.494   7.544 -0.4166  0.4263  0.9018
  879MOL0     C18543  11.212   1.477   7.557  0.9602  0.5816  0.2363
  879MOL0     C18544  11.252   1.444   7.703  0.1943 -0.3091 -0.6842
  879MOL0     C18545  11.406   1.480   7.734 -0.0419 -0.3468 -0.6381
  879MOL0     C18546  11.443   1.469   7.886 -0.0162  0.0371 -0.2927
  879MOL0     N18547  11.398   1.586   7.964  0.4757  0.3395  0.6403
  879MOL0     C18548  11.271   1.609   8.011 -0.3178 -0.1225  0.5295
  879MOL0     C18549  11.276   1.730   8.070  0.3373 -0.5737 -0.0444
  879MOL0     C18550  11.164   1.796   8.145  0.2802 -0.3211  0.4011
  879MOL0     C18551  11.021   1.751   8.104 -0.6650 -0.6363 -0.3302
  879MOL0     C18552  10.929   1.840   8.186  0.3732 -0.8129 -0.3546
  879MOL0     C18553  10.780   1.810   8.140  0.9432  0.1074 -0.6957
  879MOL0     O18554  10.696   1.877   8.238  0.3976 -0.1098  0.5477
  879MOL0     C18555  10.566   1.844   8.229  0.4060  0.1878 -0.5327
  879MOL0     C18556  10.507   1.832   8.351 -0.0076  0.3022 -0.3592
  879MOL0     C18557  10.374   1.780   8.371 -0.0663 -0.8735 -0.7722
  879MOL0     C18558  10.334   1.763   8.524 -0.9749  0.4595  0.1076
  879MOL0     C18559  10.307   1.728   8.259 -0.1185  0.3395  0.2412
  879MOL0     C18560  10.173   1.658   8.269 -0.6048 -0.6843 -0.0909
  879MOL0     O18561  10.143   1.579   8.167 -0.1593  0.5056  0.1015
  879MOL0     C18562  10.021   1.515   8.167 -0.5109  0.2150 -0.3855
  879MOL0     C18563   9.953   1.496   8.051  0.3844  0.8139 -0.5019
  879MOL0     C18564   9.820   1.448   8.050 -0.3922  0.3281 -0.8602
  879MOL0     C18565   9.758   1.403   8.169 -0.2487 -0.4521 -0.1390
  879MOL0     O18566   9.638   1.338   8.154 -0.2795 -0.4819 -0.6556
  879MOL0     C18567   9.544   1.342   8.269  0.3393  0.0023 -0.0639
  879MOL0     C18568   9.399   1.294   8.240 -0.2492 -0.1424  0.1677
  879MOL0     C18569   9.342   1.377   8.122 -0.5631 -0.8214  0.4931
  879MOL0     C18570   9.216   1.305   8.079  0.4351  0.1655  0.0532
  879MOL0     C18571   9.147   1.386   7.974  0.5737 -0.0131  0.2651
  879MOL0     C18572   9.080   1.508   8.030 -0.0670 -0.6318  0.0360
  879MOL0     C18573   9.003   1.584   7.919  0.8817 -0.2309  0.2023
  879MOL0     C18574   8.950   1.718   7.962  0.4351  0.4371 -0.7474
  879MOL0    Cl18575   8.860   1.796   7.827  0.2899  0.2212  0.7268
  879MOL0     C18576   9.832   1.412   8.284  1.3540  0.8176  0.0026
  879MOL0     C18577   9.962   1.460   8.285  0.5024  0.1708 -0.2159
  879MOL0     O18578  10.103   1.690   8.363 -0.2784  0.3444 -0.0306
  879MOL0     C18579  10.364   1.751   8.137  0.2886 -0.2114 -0.5223
  879MOL0     C18580  10.494   1.797   8.122  0.4708  0.2067 -0.5398
  879MOL0     N18581  11.392   1.788   8.027 -1.0252 -0.1986 -0.2662
  879MOL0     N18582  11.470   1.692   7.978 -0.0110  0.9042  0.6160
  879MOL0     C18583  10.571   1.477   7.938  0.0909 -0.3708  0.8712
  879MOL0     C18584  10.454   1.443   8.013 -0.5540 -0.5029  0.0803
  879MOL0     C18585  10.235   1.229   8.363  0.9953 -0.6927  0.3906
  879MOL0     C18586  10.121   1.176   8.286  0.1383  0.6685 -0.1750
  879MOL0     C18587  10.003   1.145   8.363 -0.0328 -0.2259  0.7054
  879MOL0     C18588   9.993   1.165   8.504 -0.6110 -0.2856 -0.2875
  879MOL0     O18589   9.867   1.138   8.567  0.2658  0.3631  0.1842
  879MOL0     C18590   9.866   1.102   8.703  0.3412 -1.2166  0.7519
  879MOL0     C18591   9.741   1.021   8.735  0.2972 -0.4159 -0.3591
  879MOL0     C18592   9.720   1.005   8.885  0.3361 -0.3841 -0.3542
  879MOL0     C18593   9.580   0.947   8.916  0.1015 -0.0022  0.5397
  879MOL0     C18594   9.554   0.907   9.056 -0.1577 -0.3902 -0.4172
  879MOL0     C18595   9.557   0.905   9.183  0.0057 -0.4923  0.3796
  879MOL0     C18596  10.102   1.220   8.570  0.0184 -0.6778 -0.2678
  879MOL0     C18597  10.222   1.259   8.503  0.0859  0.0441 -0.3193
  879MOL0     H18598  10.527   1.110   8.064 -1.9499 -0.1957 -0.5788
  879MOL0     H18599  10.726   1.166   7.956 -1.3373 -1.6923  3.7633
  879MOL0     H18600  10.663   1.518   7.679  0.2229  1.6579 -0.6126
  879MOL0     H18601  10.819   1.577   7.709 -2.6577  2.6923 -1.9643
  879MOL0     H18602  10.774   1.308   7.602  0.3336 -0.5302 -0.4994
  879MOL0     H18603  10.796   1.457   7.501  0.1077  1.5067  0.8111
  879MOL0     H18604  11.002   1.378   7.719 -1.5656 -0.6863  0.1292
  879MOL0     H18605  11.012   1.298   7.563  1.9208  1.3404 -0.7492
  879MOL0     H18606  11.033   1.506   7.438 -3.6172  0.1789  1.5108
  879MOL0     H18607  11.021   1.588   7.587 -0.0629  2.1692 -2.3216
  879MOL0     H18608  11.247   1.395   7.493 -3.6468  0.1003 -2.0624
  879MOL0     H18609  11.265   1.567   7.525  1.1460  1.3003  2.3573
  879MOL0     H18610  11.190   1.501   7.773 -2.2049 -2.3237 -1.0591
  879MOL0     H18611  11.225   1.340   7.722 -0.4226  0.3977  3.1234
  879MOL0     H18612  11.472   1.414   7.678  1.7504  0.3714  0.5422
  879MOL0     H18613  11.427   1.582   7.701 -3.3976 -0.1096 -2.5150
  879MOL0     H18614  11.552   1.472   7.895 -0.1410 -0.1802  1.6504
  879MOL0     H18615  11.414   1.380   7.942 -2.4681  0.8415 -0.2061
  879MOL0     H18616  11.187   1.540   8.013  0.8360 -1.6142 -0.0044
  879MOL0     H18617  11.178   1.785   8.253 -0.9380 -1.7039  0.4437
  879MOL0     H18618  11.183   1.903   8.133  0.9529 -0.0626  3.1626
  879MOL0     H18619  11.012   1.644   8.126  1.2410 -0.9165 -0.7443
  879MOL0     H18620  11.024   1.782   8.000  2.9361  1.9576  0.3682
  879MOL0     H18621  10.955   1.943   8.162  0.9491 -0.4669  1.5597
  879MOL0     H18622  10.950   1.816   8.291 -0.2567 -0.9935 -0.2607
  879MOL0     H18623  10.759   1.703   8.142 -3.4031  0.6731  3.7250
  879MOL0     H18624  10.765   1.852   8.040 -1.8147  0.1525 -0.3359
  879MOL0     H18625  10.561   1.852   8.444 -0.1323 -1.7842  0.1971
  879MOL0     H18626  10.372   1.837   8.594 -4.0419  2.0899  0.2261
  879MOL0     H18627  10.227   1.763   8.547 -0.6866  0.2963  1.5319
  879MOL0     H18628  10.365   1.661   8.548 -2.2296  0.3935  1.6040
  879MOL0     H18629   9.998   1.534   7.960  2.7342  1.2462  0.7474
  879MOL0     H18630   9.763   1.434   7.958 -0.5714  1.5157 -0.9503
  879MOL0     H18631   9.591   1.272   8.338  0.4534  0.5557  0.4217
  879MOL0     H18632   9.550   1.440   8.315  0.9050  0.5100 -1.1710
  879MOL0     H18633   9.407   1.188   8.217  1.3838 -0.0823  0.3211
  879MOL0     H18634   9.339   1.302   8.331 -1.5535 -1.9046 -0.4945
  879MOL0     H18635   9.415   1.386   8.041 -0.3529  2.3733  0.8891
  879MOL0     H18636   9.323   1.480   8.155 -2.5117 -0.6328 -1.0142
  879MOL0     H18637   9.252   1.211   8.036  3.5955  0.1927  2.2712
  879MOL0     H18638   9.150   1.280   8.162  1.2652  0.5133  0.8396
  879MOL0     H18639   9.067   1.328   7.926 -1.9341  1.9748  1.7512
  879MOL0     H18640   9.222   1.415   7.900  1.5789 -2.3190  0.3005
  879MOL0     H18641   9.016   1.481   8.114  1.6037  3.0197  2.7302
  879MOL0     H18642   9.161   1.574   8.062  0.0714 -0.5497 -0.4710
  879MOL0     H18643   8.921   1.516   7.898  1.8577 -1.3826  0.0271
  879MOL0     H18644   9.056   1.600   7.825 -0.1904  3.2916  0.0358
  879MOL0     H18645   9.035   1.772   8.006  0.3537 -1.5291  2.0819
  879MOL0     H18646   8.877   1.710   8.043 -1.3091 -0.1149 -2.3191
  879MOL0     H18647   9.790   1.368   8.374 -0.2894 -1.8779 -1.9388
  879MOL0     H18648  10.022   1.454   8.375 -4.0631 -0.3607  3.0992
  879MOL0     H18649  10.306   1.716   8.052  0.9746 -1.1772 -0.6144
  879MOL0     H18650  10.554   1.793   8.031 -1.7357 -0.3178 -2.0576
  879MOL0     H18651  10.563   1.576   7.894 -3.7268  0.6335  3.3207
  879MOL0     H18652  10.381   1.521   8.035 -0.1513  0.8734 -2.9459
  879MOL0     H18653  10.119   1.146   8.181 -4.4107 -1.6282  0.3479
  879MOL0     H18654   9.922   1.119   8.295 -2.1385  3.7557  1.3516
  879MOL0     H18655   9.943   1.026   8.723  0.8871 -1.8819 -3.1760
  879MOL0     H18656   9.870   1.192   8.765 -0.3257 -1.0640  0.5770
  879MOL0     H18657   9.755   0.916   8.709 -5.5669 -1.9744  1.2696
  879MOL0     H18658   9.649   1.052   8.685 -1.3826  0.9667  3.1943
  879MOL0     H18659   9.728   1.102   8.935  1.8135 -0.3004 -0.7219
  879MOL0     H18660   9.792   0.947   8.943 -1.4283 -0.8121  1.5185
  879MOL0     H18661   9.576   0.849   8.866  0.1887 -0.8526  2.1578
  879MOL0     H18662   9.502   1.006   8.865 -0.9096 -2.1527 -0.5702
  879MOL0     H18663   9.559   0.891   9.289 -0.9651 -0.5885  0.3875
  879MOL0     H18664  10.098   1.246   8.676 -1.3310  1.0508 -0.6996
  879MOL0     H18665  10.308   1.289   8.563  0.7466 -3.3340  0.6151
  880MOL0     O18666   0.081   7.128   4.219 -0.5908 -0.1820  0.0123
  880MOL0     C18667  -0.015   7.119   4.292 -0.0382 -0.0634 -0.2443
  880MOL0     O18668  -0.088   7.000   4.312 -0.0337 -0.0842 -0.2038
  880MOL0     C18669  -0.054   6.885   4.248  0.3378 -0.8062 -0.0635
  880MOL0     C18670   0.028   6.792   4.311 -0.8359  0.6085  0.2732
  880MOL0     C18671   0.055   6.667   4.246 -0.2161 -1.0023 -0.1085
  880MOL0     C18672  -0.018   6.641   4.121 -0.3254  0.1128  0.2818
  880MOL0     O18673  -0.009   6.509   4.074 -0.2925 -0.4888 -0.3679
  880MOL0     C18674  -0.074   6.481   3.949  0.0482 -0.5683  0.3333
  880MOL0     C18675   0.022   6.553   3.831  0.1368 -0.5975 -0.4016
  880MOL0     C18676  -0.025   6.509   3.690 -0.2238  0.4502  0.7624
  880MOL0     C18677   0.070   6.568   3.589 -0.6635  0.6805  0.2909
  880MOL0     C18678   0.034   6.535   3.446  0.3964  0.4098 -1.2167
  880MOL0     C18679  -0.089   6.614   3.396  0.1583 -0.9305 -0.1584
  880MOL0     C18680  -0.098   6.609   3.245 -0.8472 -0.5000 -0.3869
  880MOL0     C18681  -0.169   6.734   3.186  0.2880  0.5521  0.8252
  880MOL0     N18682  -0.182   6.730   3.041 -0.1180  0.4946  0.1405
  880MOL0     C18683  -0.192   6.621   2.960  0.7674  0.2160 -0.4066
  880MOL0     C18684  -0.172   6.667   2.837  0.7078  0.3423  0.2230
  880MOL0     C18685  -0.164   6.574   2.720 -0.8387  0.7473  0.1814
  880MOL0     C18686  -0.290   6.577   2.634 -0.9646 -0.6694  0.6124
  880MOL0     C18687  -0.278   6.458   2.534  0.5187 -0.6695 -0.0877
  880MOL0     C18688  -0.362   6.470   2.406  0.1302  0.3530  0.2385
  880MOL0     O18689  -0.505   6.470   2.428  0.2170  0.3404 -0.2420
  880MOL0     C18690  -0.573   6.350   2.417  1.1973  0.3314  0.0014
  880MOL0     C18691  -0.531   6.227   2.363 -0.4480 -0.3310  0.1656
  880MOL0     C18692  -0.603   6.112   2.369 -0.1061  1.1311  0.2585
  880MOL0     C18693  -0.547   5.982   2.324 -0.9177  0.3031 -0.0566
  880MOL0     C18694  -0.734   6.122   2.416  0.1576  0.3430 -0.6012
  880MOL0     C18695  -0.832   6.011   2.420 -0.9740  0.0540 -0.0384
  880MOL0     O18696  -0.934   5.997   2.514  0.2478  0.2334 -0.6150
  880MOL0     C18697  -0.994   5.876   2.522 -0.8178  0.6353 -0.4576
  880MOL0     C18698  -0.921   5.755   2.549 -0.0993  0.8396  0.4010
  880MOL0     C18699  -0.989   5.633   2.576 -0.9870  0.3451 -0.0683
  880MOL0     C18700  -1.130   5.632   2.581 -0.5313 -0.1408 -0.2746
  880MOL0     O18701  -1.188   5.516   2.620  0.4588  0.1080 -0.3579
  880MOL0     C18702  -1.329   5.504   2.614  0.4525  0.1709 -0.4633
  880MOL0     C18703  -1.375   5.362   2.637 -0.6146  0.3100  0.1760
  880MOL0     C18704  -1.338   5.315   2.776 -0.0619 -0.0968 -0.8236
  880MOL0     C18705  -1.375   5.162   2.801 -0.8277 -0.6495  0.0247
  880MOL0     C18706  -1.304   5.091   2.924 -0.3266  0.7953 -0.8982
  880MOL0     C18707  -1.379   4.981   2.991  0.3528 -0.5585  0.7516
  880MOL0     C18708  -1.502   5.020   3.078  0.0932 -0.1440  0.0321
  880MOL0     C18709  -1.470   5.116   3.188  0.5480 -0.0063  0.6687
  880MOL0    Cl18710  -1.369   5.019   3.301 -0.0109 -0.2107  0.3388
  880MOL0     C18711  -1.195   5.750   2.556 -0.4026 -0.3253 -0.6181
  880MOL0     C18712  -1.132   5.872   2.515 -0.3559  0.9499 -0.3415
  880MOL0     O18713  -0.826   5.940   2.324  0.1596  0.4166  0.1871
  880MOL0     C18714  -0.782   6.246   2.469 -0.1435 -0.5138 -0.0349
  880MOL0     C18715  -0.703   6.352   2.464  0.1804 -0.1487 -0.0263
  880MOL0     N18716  -0.146   6.798   2.838 -0.2346  0.1375 -0.0635
  880MOL0     N18717  -0.157   6.837   2.960 -0.3375 -0.1160 -0.2152
  880MOL0     C18718  -0.095   6.745   4.059 -0.1869  0.2942 -0.3814
  880MOL0     C18719  -0.112   6.874   4.117  0.1876  0.5547 -0.0886
  880MOL0     C18720  -0.060   7.239   4.373 -0.3653  1.0343  0.8202
  880MOL0     C18721  -0.142   7.231   4.486  0.8726 -0.4119  0.4552
  880MOL0     C18722  -0.172   7.344   4.560 -0.6439  0.3747 -0.1788
  880MOL0     C18723  -0.145   7.470   4.508 -0.4620  0.0961  1.0352
  880MOL0     O18724  -0.175   7.583   4.578  0.5500 -0.2909  0.4930
  880MOL0     C18725  -0.152   7.587   4.724  1.3097  0.9672 -0.0735
  880MOL0     C18726  -0.011   7.547   4.781 -0.3936 -0.0285 -0.2090
  880MOL0     C18727   0.105   7.624   4.708 -0.0325  0.5229  1.1440
  880MOL0     C18728   0.094   7.773   4.702 -0.8977 -1.1302 -0.0132
  880MOL0     C18729   0.224   7.821   4.652 -0.4124 -0.4590  0.2612
  880MOL0     C18730   0.336   7.851   4.609  0.1749 -0.2504  0.4640
  880MOL0     C18731  -0.083   7.481   4.377  0.2533 -0.3623 -0.0903
  880MOL0     C18732  -0.039   7.360   4.317 -0.0686 -0.5765  0.9916
  880MOL0     H18733   0.079   6.830   4.399 -0.2088 -1.1647  0.7210
  880MOL0     H18734   0.128   6.597   4.285  0.0822 -0.3488  0.5416
  880MOL0     H18735  -0.072   6.374   3.927 -2.7497 -0.7344  0.5069
  880MOL0     H18736  -0.174   6.523   3.946 -0.3016 -1.1588  2.2920
  880MOL0     H18737   0.028   6.662   3.835 -0.5497 -0.4930 -1.7309
  880MOL0     H18738   0.125   6.516   3.842  1.2091  2.3745  0.7540
  880MOL0     H18739  -0.016   6.400   3.687 -2.7813  0.2055 -0.2264
  880MOL0     H18740  -0.125   6.546   3.666  0.3281  2.4821  1.4797
  880MOL0     H18741   0.077   6.677   3.596 -0.1977  0.6276  0.7048
  880MOL0     H18742   0.172   6.542   3.620 -0.8347  1.7858  1.8947
  880MOL0     H18743   0.120   6.569   3.387 -0.3244  3.0530 -0.8599
  880MOL0     H18744   0.028   6.426   3.434  1.3441  0.2110 -0.0851
  880MOL0     H18745  -0.182   6.567   3.430  0.9815 -1.5759  1.3219
  880MOL0     H18746  -0.088   6.720   3.424 -1.5580 -0.0196 -3.0919
  880MOL0     H18747   0.003   6.614   3.204 -0.3569  0.5579  0.8741
  880MOL0     H18748  -0.133   6.510   3.213  0.8537 -0.4853 -2.5229
  880MOL0     H18749  -0.125   6.829   3.220  1.4416 -0.0746  1.1147
  880MOL0     H18750  -0.270   6.740   3.228 -1.1528 -2.6634 -1.7838
  880MOL0     H18751  -0.214   6.518   2.984  1.4194  0.1195 -0.1815
  880MOL0     H18752  -0.080   6.601   2.656 -3.4456  0.4993 -3.7329
  880MOL0     H18753  -0.154   6.471   2.756 -2.7801  0.2472 -0.5295
  880MOL0     H18754  -0.291   6.675   2.585 -2.0064 -0.6494  0.6599
  880MOL0     H18755  -0.377   6.546   2.692 -0.0521 -2.4243  1.1041
  880MOL0     H18756  -0.317   6.370   2.586 -2.4373  0.2612 -0.5510
  880MOL0     H18757  -0.172   6.452   2.508  0.2351 -0.9981 -1.2311
  880MOL0     H18758  -0.331   6.387   2.341 -2.3652 -0.4983  0.0281
  880MOL0     H18759  -0.341   6.565   2.357  0.5362  0.4257  0.5478
  880MOL0     H18760  -0.438   6.210   2.310  0.7929 -1.1044  2.4526
  880MOL0     H18761  -0.558   5.905   2.401  1.9553  1.9016  2.1376
  880MOL0     H18762  -0.574   5.953   2.222 -0.9926 -2.1908  0.6004
  880MOL0     H18763  -0.440   5.999   2.313 -0.7623  0.5962  1.6765
  880MOL0     H18764  -0.813   5.765   2.549  0.0149  0.0615  2.5462
  880MOL0     H18765  -0.934   5.542   2.600  2.4706  2.1017 -0.6219
  880MOL0     H18766  -1.379   5.572   2.683 -3.7913 -1.9532 -1.1703
  880MOL0     H18767  -1.367   5.540   2.518  3.4236  0.6934 -1.5771
  880MOL0     H18768  -1.484   5.365   2.625 -0.4162  0.3221 -1.9699
  880MOL0     H18769  -1.330   5.310   2.552 -0.6819  1.9898 -0.9352
  880MOL0     H18770  -1.385   5.366   2.860  1.2616 -0.3665  0.1219
  880MOL0     H18771  -1.230   5.337   2.778 -0.5325  2.5468 -0.3510
  880MOL0     H18772  -1.484   5.159   2.817 -0.3620 -1.9399  4.2170
  880MOL0     H18773  -1.346   5.114   2.707  1.3804  1.9575 -0.7574
  880MOL0     H18774  -1.271   5.164   2.999 -1.4842  0.3143  0.1090
  880MOL0     H18775  -1.211   5.056   2.879 -0.4798  4.1054 -4.2842
  880MOL0     H18776  -1.407   4.913   2.910  0.4720  0.5668 -0.2583
  880MOL0     H18777  -1.315   4.916   3.050  2.0340 -1.9558 -2.3541
  880MOL0     H18778  -1.536   4.928   3.126  1.6039 -0.9658 -0.4029
  880MOL0     H18779  -1.583   5.061   3.018  1.2929 -0.1764 -1.7061
  880MOL0     H18780  -1.568   5.148   3.226  0.9402  2.3109 -0.1113
  880MOL0     H18781  -1.426   5.209   3.152 -1.4134  1.1080  0.9620
  880MOL0     H18782  -1.303   5.759   2.552 -0.2538  1.3748 -1.6341
  880MOL0     H18783  -1.200   5.956   2.509 -2.7029 -0.8614 -0.3834
  880MOL0     H18784  -0.884   6.276   2.488 -0.0833 -0.5862  0.4211
  880MOL0     H18785  -0.753   6.443   2.493 -2.6964 -1.4150 -0.6537
  880MOL0     H18786  -0.144   6.729   3.964 -3.1369  0.5770  0.9622
  880MOL0     H18787  -0.165   6.953   4.064 -0.5368 -1.2640 -2.2365
  880MOL0     H18788  -0.171   7.128   4.508  0.1927 -0.1748  0.6813
  880MOL0     H18789  -0.221   7.326   4.656  1.6767  2.3475  1.5007
  880MOL0     H18790  -0.165   7.693   4.749 -5.4942  0.7835 -0.9888
  880MOL0     H18791  -0.226   7.527   4.777  1.4051  4.3616  4.5570
  880MOL0     H18792   0.010   7.441   4.768 -0.2948  0.1906 -2.0544
  880MOL0     H18793   0.001   7.561   4.889  2.2041 -1.3329 -0.2489
  880MOL0     H18794   0.113   7.578   4.609 -4.4371  0.7986  0.4879
  880MOL0     H18795   0.201   7.600   4.755 -0.0144  1.0943  1.4104
  880MOL0     H18796   0.090   7.815   4.803 -1.9716 -2.0917  0.3704
  880MOL0     H18797   0.013   7.810   4.638  0.9288 -0.1959 -1.9053
  880MOL0     H18798   0.431   7.891   4.578  0.1444 -0.9478 -0.5653
  880MOL0     H18799  -0.063   7.581   4.340 -0.1829 -0.3639 -0.3406
  880MOL0     H18800   0.021   7.371   4.227 -1.5007  0.4085  0.1168
  881MOL0     O18801   2.724   6.151   1.373 -0.1977  0.0739  0.0771
  881MOL0     C18802   2.619   6.142   1.323  1.3114  0.1108 -0.1270
  881MOL0     O18803   2.587   6.201   1.205  0.2726 -0.4486 -0.5552
  881MOL0     C18804   2.677   6.239   1.114  0.8584 -0.2756 -0.6267
  881MOL0     C18805   2.773   6.154   1.073 -0.4896 -0.0531 -1.0378
  881MOL0     C18806   2.867   6.190   0.977  0.1456  0.0089 -0.1308
  881MOL0     C18807   2.876   6.318   0.931  0.0499 -0.4391 -0.6931
  881MOL0     O18808   2.962   6.325   0.828 -1.2190 -0.0734  0.1130
  881MOL0     C18809   3.037   6.445   0.803  0.1413  0.8709 -0.0798
  881MOL0     C18810   3.038   6.501   0.658  0.5298  0.0714 -0.4593
  881MOL0     C18811   3.071   6.392   0.551 -0.8860  0.3378 -0.7763
  881MOL0     C18812   3.080   6.467   0.418  0.9036  0.3787  0.1188
  881MOL0     C18813   3.072   6.366   0.300  0.6110  0.2384 -1.4227
  881MOL0     C18814   3.055   6.442   0.177  1.0859  0.6442 -0.0450
  881MOL0     C18815   3.016   6.342   0.073 -0.1129  0.2132 -0.1988
  881MOL0     C18816   3.037   6.383  -0.077  0.6155  0.1403 -0.3376
  881MOL0     N18817   2.961   6.500  -0.126  0.0101  0.0651  1.0253
  881MOL0     C18818   2.827   6.528  -0.096 -0.1047 -0.8062 -0.4663
  881MOL0     C18819   2.807   6.653  -0.147  0.4602  0.1167 -0.1645
  881MOL0     C18820   2.680   6.740  -0.128  0.1268 -0.0057 -0.1950
  881MOL0     C18821   2.715   6.836  -0.017 -0.0973  0.0263 -0.5644
  881MOL0     C18822   2.603   6.922   0.040  0.9359  0.1425  0.5761
  881MOL0     C18823   2.507   6.843   0.129 -0.4829 -0.1572 -0.4149
  881MOL0     O18824   2.583   6.779   0.235  0.0975 -0.0765  0.5699
  881MOL0     C18825   2.523   6.669   0.305  0.6297  0.5181  0.4884
  881MOL0     C18826   2.601   6.624   0.406 -0.2943 -0.4526  0.0508
  881MOL0     C18827   2.561   6.512   0.488 -0.5404 -1.0226  0.0305
  881MOL0     C18828   2.649   6.485   0.608  0.7425 -0.0621 -0.1775
  881MOL0     C18829   2.437   6.450   0.468  0.6981 -0.5032  0.5140
  881MOL0     C18830   2.381   6.351   0.565  0.2307  0.4797 -0.1067
  881MOL0     O18831   2.292   6.268   0.496 -0.3270  0.2536  0.1624
  881MOL0     C18832   2.231   6.161   0.552 -0.2233  1.4008  0.4939
  881MOL0     C18833   2.235   6.039   0.487 -1.0087  0.1868  0.1815
  881MOL0     C18834   2.188   5.917   0.546  1.0969 -0.2464  0.1963
  881MOL0     C18835   2.136   5.925   0.675 -0.4392 -0.6686 -0.0538
  881MOL0     O18836   2.078   5.825   0.751  0.1543  0.3224 -0.8077
  881MOL0     C18837   2.056   5.701   0.689  0.6402 -0.6526  0.4054
  881MOL0     C18838   2.167   5.595   0.696 -0.8989  0.5468 -0.0869
  881MOL0     C18839   2.154   5.474   0.603 -0.0209 -0.2845  0.4568
  881MOL0     C18840   2.163   5.502   0.451 -0.6790  0.4885 -0.0972
  881MOL0     C18841   2.307   5.542   0.414  0.0229  1.3224 -0.2382
  881MOL0     C18842   2.323   5.555   0.264 -0.0439 -1.0556 -0.3523
  881MOL0     C18843   2.464   5.609   0.237  0.1542 -0.0189  0.5282
  881MOL0     C18844   2.478   5.650   0.086  0.0486 -0.7031  0.3129
  881MOL0    Cl18845   2.372   5.788   0.034 -0.0709  0.5344 -0.0723
  881MOL0     C18846   2.112   6.051   0.735  0.7801 -0.6692  0.1095
  881MOL0     C18847   2.163   6.165   0.677  0.5516  0.2420  0.7720
  881MOL0     O18848   2.399   6.338   0.688 -0.1130 -0.5430  0.6875
  881MOL0     C18849   2.355   6.497   0.361  0.8939  0.2067  1.4099
  881MOL0     C18850   2.394   6.607   0.281 -0.0462  0.3169 -0.9766
  881MOL0     N18851   2.927   6.686  -0.208 -0.7624  0.9734 -0.1428
  881MOL0     N18852   3.016   6.591  -0.205  0.8736 -0.0363 -0.2859
  881MOL0     C18853   2.769   6.400   0.968 -0.5872 -0.2475  0.6399
  881MOL0     C18854   2.676   6.368   1.058 -0.1355  0.4920 -0.7397
  881MOL0     C18855   2.515   6.070   1.408  0.0823  0.2025  0.6529
  881MOL0     C18856   2.543   6.037   1.544  0.7094 -0.6887 -0.1794
  881MOL0     C18857   2.441   5.981   1.624  0.5111 -0.3083 -0.4005
  881MOL0     C18858   2.312   5.965   1.582 -0.9008 -0.3109 -1.1899
  881MOL0     O18859   2.220   5.910   1.663  0.6536  0.0150  0.3301
  881MOL0     C18860   2.201   5.956   1.799  0.4505 -0.0520  0.6623
  881MOL0     C18861   2.067   5.954   1.857  0.9303 -0.2232 -0.1642
  881MOL0     C18862   1.954   6.034   1.782  0.8797 -0.2769 -0.4162
  881MOL0     C18863   1.971   6.186   1.782 -0.2124 -0.1706 -0.0609
  881MOL0     C18864   2.047   6.223   1.660  0.1769 -0.5430 -0.1509
  881MOL0     C18865   2.104   6.256   1.556 -0.2112 -1.0629 -0.1806
  881MOL0     C18866   2.302   5.974   1.444  0.7582 -0.3472  1.3753
  881MOL0     C18867   2.391   6.029   1.355 -0.2022 -0.5123 -0.2041
  881MOL0     H18868   2.768   6.055   1.117  2.5388 -0.4359 -1.3684
  881MOL0     H18869   2.944   6.116   0.960 -0.8908 -1.5804  1.6330
  881MOL0     H18870   3.029   6.513   0.889  1.3187  1.0380 -0.0862
  881MOL0     H18871   3.139   6.410   0.821 -1.0148 -3.0147 -0.1826
  881MOL0     H18872   2.944   6.554   0.645 -1.4671 -2.3518  2.5726
  881MOL0     H18873   3.120   6.573   0.666  2.0381 -1.2713 -2.7319
  881MOL0     H18874   3.167   6.356   0.589 -0.3014  1.9762 -0.6320
  881MOL0     H18875   2.996   6.312   0.552  0.4534 -1.0546  2.3798
  881MOL0     H18876   3.006   6.548   0.422  0.2372 -0.2421  1.1749
  881MOL0     H18877   3.170   6.525   0.399  0.2442  1.8262  1.2154
  881MOL0     H18878   3.162   6.304   0.304  1.2421  1.1987  0.4574
  881MOL0     H18879   2.993   6.292   0.314  1.4164 -0.2364  1.4431
  881MOL0     H18880   2.978   6.519   0.191  1.1408  1.1507 -2.2186
  881MOL0     H18881   3.135   6.506   0.137 -0.4444  2.1144 -0.8791
  881MOL0     H18882   3.067   6.245   0.071  2.5318  1.5127 -1.4327
  881MOL0     H18883   2.910   6.318   0.075  0.4658 -2.6035  0.4647
  881MOL0     H18884   3.025   6.299  -0.146 -0.4904  1.4440 -1.8112
  881MOL0     H18885   3.145   6.400  -0.082  0.6482  0.1498  0.3718
  881MOL0     H18886   2.766   6.478  -0.022 -0.7084 -0.3521 -0.6543
  881MOL0     H18887   2.654   6.805  -0.211  0.4349  3.9414  2.4934
  881MOL0     H18888   2.590   6.682  -0.107  0.2051  0.3055  1.1369
  881MOL0     H18889   2.796   6.899  -0.054 -2.3484  2.9831 -0.7971
  881MOL0     H18890   2.761   6.775   0.062  2.3216 -0.1468 -2.0031
  881MOL0     H18891   2.546   6.963  -0.044 -0.5075 -0.6967  1.1181
  881MOL0     H18892   2.628   7.011   0.099  1.2470 -0.1400  0.8693
  881MOL0     H18893   2.447   6.769   0.077 -1.1250 -1.7751  2.4388
  881MOL0     H18894   2.437   6.918   0.167 -2.0649 -1.0748 -1.4405
  881MOL0     H18895   2.692   6.676   0.435 -2.1961  1.1913  3.6380
  881MOL0     H18896   2.683   6.381   0.614 -0.4916 -0.7060 -2.8681
  881MOL0     H18897   2.745   6.536   0.598  2.4390 -3.3932 -3.5570
  881MOL0     H18898   2.598   6.509   0.702 -0.1129  4.0593 -1.4537
  881MOL0     H18899   2.284   6.049   0.390 -1.2656 -0.9453 -0.0729
  881MOL0     H18900   2.188   5.823   0.492  0.6847 -0.4160  0.4806
  881MOL0     H18901   1.961   5.654   0.716 -0.6694  1.5943 -0.0620
  881MOL0     H18902   2.043   5.710   0.581  0.0017 -1.2798  0.4261
  881MOL0     H18903   2.263   5.646   0.684 -1.7871  1.9641 -1.6847
  881MOL0     H18904   2.147   5.552   0.795  2.1498 -0.1152  0.3220
  881MOL0     H18905   2.057   5.426   0.623  0.4537 -1.3333  0.3045
  881MOL0     H18906   2.233   5.400   0.611 -0.4989 -1.4773 -3.7369
  881MOL0     H18907   2.128   5.409   0.406 -1.4331  0.5186  0.4003
  881MOL0     H18908   2.099   5.580   0.409  1.5311  2.5750  0.1791
  881MOL0     H18909   2.389   5.482   0.453 -0.3861  0.0584 -1.2331
  881MOL0     H18910   2.317   5.638   0.464  0.6408  0.0020  2.3942
  881MOL0     H18911   2.299   5.465   0.206 -2.8985  0.1920 -1.3049
  881MOL0     H18912   2.239   5.619   0.235 -1.1345 -2.5362 -0.5943
  881MOL0     H18913   2.538   5.533   0.265  3.8707  3.2492  0.3106
  881MOL0     H18914   2.475   5.702   0.294 -1.9673 -0.2469  1.4147
  881MOL0     H18915   2.449   5.575   0.012 -2.3978  1.5836 -1.2406
  881MOL0     H18916   2.584   5.673   0.071 -0.7859  2.0894 -2.4056
  881MOL0     H18917   2.055   6.053   0.828 -1.0425 -3.3001 -0.8306
  881MOL0     H18918   2.149   6.261   0.725  1.6021 -0.0873  1.8052
  881MOL0     H18919   2.253   6.464   0.342  0.6526  1.8453 -0.5169
  881MOL0     H18920   2.318   6.651   0.217 -2.8346 -1.1151  1.1210
  881MOL0     H18921   2.770   6.494   0.912 -0.1739 -1.5041 -1.5986
  881MOL0     H18922   2.597   6.435   1.090 -0.5713 -0.6651  0.7433
  881MOL0     H18923   2.627   6.083   1.594 -0.9420  0.4167  1.7270
  881MOL0     H18924   2.482   5.948   1.720 -1.4783 -1.7643  0.0094
  881MOL0     H18925   2.263   5.883   1.853  0.6164 -2.2005 -2.1863
  881MOL0     H18926   2.244   6.056   1.811 -0.5742  0.3062  1.4836
  881MOL0     H18927   2.082   5.978   1.963 -0.4113 -0.2802  0.0601
  881MOL0     H18928   2.026   5.853   1.854 -1.1939  0.5646 -0.0589
  881MOL0     H18929   1.861   6.017   1.837 -0.6352  0.4452 -2.6051
  881MOL0     H18930   1.938   5.996   1.681 -0.2663  1.5159 -0.9495
  881MOL0     H18931   2.026   6.226   1.867 -0.3018  0.3969 -0.2656
  881MOL0     H18932   1.872   6.233   1.777  0.2023  0.6496 -1.0430
  881MOL0     H18933   2.146   6.292   1.464 -1.4870  2.1636  0.3747
  881MOL0     H18934   2.211   5.935   1.399  1.3348  1.4531 -1.5994
  881MOL0     H18935   2.355   6.032   1.253  0.8005  1.5511 -0.5267
  882MOL0     O18936   2.945   8.798   6.314  0.1758  0.5034  1.2202
  882MOL0     C18937   3.016   8.701   6.290 -0.2006  0.4856  0.1537
  882MOL0     O18938   2.992   8.600   6.205  1.1864 -0.1903  0.3572
  882MOL0     C18939   2.871   8.592   6.134  0.1116 -0.0692 -0.9625
  882MOL0     C18940   2.828   8.694   6.044  0.2250 -0.8181 -0.2653
  882MOL0     C18941   2.712   8.676   5.961 -0.7893 -0.1310 -0.0560
  882MOL0     C18942   2.633   8.564   5.962 -0.5020 -0.0509 -1.3392
  882MOL0     O18943   2.534   8.553   5.877  0.7819 -0.1079  0.1999
  882MOL0     C18944   2.457   8.431   5.860 -0.6088  0.6108 -0.0818
  882MOL0     C18945   2.400   8.439   5.712 -0.2211 -0.7086  0.6674
  882MOL0     C18946   2.346   8.312   5.668 -0.0395 -0.0200  0.2705
  882MOL0     C18947   2.447   8.224   5.605  0.7503  0.7146  0.6145
  882MOL0     C18948   2.413   8.074   5.594  0.3871 -0.0326  0.2708
  882MOL0     C18949   2.300   8.046   5.482 -0.3645 -0.3806 -0.2040
  882MOL0     C18950   2.291   7.901   5.451 -0.5634 -0.3115  0.2512
  882MOL0     C18951   2.259   7.869   5.305 -0.1169  0.5368  0.3998
  882MOL0     N18952   2.122   7.912   5.269 -1.1119 -0.3428  0.7240
  882MOL0     C18953   2.071   7.922   5.140  0.4683  0.0463 -0.4835
  882MOL0     C18954   1.943   7.946   5.151  0.8361 -0.2288  0.3649
  882MOL0     C18955   1.847   7.969   5.034  0.5570 -0.2833 -0.2360
  882MOL0     C18956   1.776   8.104   5.052  0.3456 -0.0768 -0.3759
  882MOL0     C18957   1.654   8.139   4.958  0.1071 -0.4030 -0.0408
  882MOL0     C18958   1.692   8.244   4.854 -0.2565  1.1904  1.2664
  882MOL0     O18959   1.721   8.360   4.931 -0.1278  0.0823  0.4850
  882MOL0     C18960   1.814   8.453   4.887  0.5975 -0.0364 -0.0843
  882MOL0     C18961   1.906   8.515   4.971  0.2214 -0.9376 -0.0193
  882MOL0     C18962   1.994   8.603   4.932 -0.7769 -1.6049  0.0669
  882MOL0     C18963   2.087   8.653   5.041 -0.2628 -0.2361 -1.6120
  882MOL0     C18964   1.994   8.645   4.799 -0.1982  0.2540  0.0119
  882MOL0     C18965   2.095   8.743   4.746  0.6593  0.8079  0.1302
  882MOL0     O18966   2.093   8.767   4.610 -0.0313  0.1901  0.1183
  882MOL0     C18967   2.187   8.856   4.570 -0.6988 -0.1478  0.1025
  882MOL0     C18968   2.332   8.817   4.585  0.4205 -0.7647 -0.1305
  882MOL0     C18969   2.439   8.911   4.542  0.2495  0.5591  0.2898
  882MOL0     C18970   2.399   9.036   4.493 -0.0483  0.0068  0.6553
  882MOL0     O18971   2.497   9.126   4.449  0.1818  1.0415 -0.8933
  882MOL0     C18972   2.589   9.073   4.359  1.3419  0.2246  0.5771
  882MOL0     C18973   2.646   9.174   4.257 -0.0424 -0.3377 -0.5204
  882MOL0     C18974   2.703   9.309   4.326  0.2001  0.9351  0.1507
  882MOL0     C18975   2.792   9.388   4.233 -0.2304 -0.0365  0.2780
  882MOL0     C18976   2.855   9.523   4.284  0.2545 -0.6431  0.2406
  882MOL0     C18977   2.932   9.604   4.183  0.0357  0.2251  0.2954
  882MOL0     C18978   2.875   9.616   4.041  0.5160  0.8453 -0.2365
  882MOL0     C18979   2.932   9.741   3.961 -0.2264 -0.5798  0.4669
  882MOL0    Cl18980   2.862   9.894   4.026  0.6543  0.0103  0.0731
  882MOL0     C18981   2.265   9.065   4.466  0.6952 -0.0214  0.1115
  882MOL0     C18982   2.158   8.975   4.507 -0.3480 -0.5837 -0.0253
  882MOL0     O18983   2.175   8.793   4.821  0.2241  0.2352  0.2253
  882MOL0     C18984   1.911   8.581   4.706  0.3378 -1.3115  0.6095
  882MOL0     C18985   1.817   8.482   4.748 -0.5757 -0.3414  0.5013
  882MOL0     N18986   1.917   7.961   5.291 -0.6578  0.2811 -1.0024
  882MOL0     N18987   2.026   7.943   5.354  0.6976 -1.0133  0.0231
  882MOL0     C18988   2.683   8.456   6.047  0.0360 -0.5122 -0.5237
  882MOL0     C18989   2.795   8.477   6.137  0.1573  0.1379 -0.2155
  882MOL0     C18990   3.126   8.664   6.379 -0.0095 -0.2238  0.0675
  882MOL0     C18991   3.157   8.737   6.493 -0.8612  0.3466  0.1728
  882MOL0     C18992   3.266   8.713   6.573  0.3682 -0.7154 -0.3014
  882MOL0     C18993   3.352   8.609   6.542 -0.0285  0.6610 -0.2132
  882MOL0     O18994   3.466   8.598   6.622 -0.2503  0.1800  0.2829
  882MOL0     C18995   3.557   8.487   6.595 -0.8780 -0.0073  0.1279
  882MOL0     C18996   3.668   8.463   6.710  0.4963  0.7530 -0.3606
  882MOL0     C18997   3.600   8.463   6.849 -0.0876  0.0316  0.0101
  882MOL0     C18998   3.698   8.443   6.957  0.1434  0.5571  0.1264
  882MOL0     C18999   3.781   8.551   6.986 -0.0590  0.5812 -0.1286
  882MOL0     C19000   3.839   8.656   7.015 -0.3421  0.8797 -0.1129
  882MOL0     C19001   3.330   8.540   6.426 -0.8132  0.0185 -0.5057
  882MOL0     C19002   3.222   8.571   6.342 -0.0712 -0.0514 -0.2178
  882MOL0     H19003   2.884   8.787   6.052  0.4157 -1.0796  2.6520
  882MOL0     H19004   2.694   8.755   5.888 -0.2069  0.5282  0.4949
  882MOL0     H19005   2.536   8.356   5.868  3.2798  4.1480 -1.2545
  882MOL0     H19006   2.381   8.409   5.935 -0.3774  1.0543  0.2856
  882MOL0     H19007   2.327   8.520   5.705  1.0183  0.4431  0.6394
  882MOL0     H19008   2.482   8.470   5.646  0.9689  0.5805  2.6362
  882MOL0     H19009   2.307   8.261   5.757  0.6667  2.0121  1.8208
  882MOL0     H19010   2.268   8.332   5.594  1.8308  0.4491 -1.6822
  882MOL0     H19011   2.479   8.266   5.508 -1.1583  1.5119  0.2814
  882MOL0     H19012   2.532   8.215   5.673 -0.9473 -0.2484  2.7273
  882MOL0     H19013   2.502   8.016   5.568  0.4081 -0.5437  1.3922
  882MOL0     H19014   2.379   8.044   5.694  1.2713 -1.5199  0.1591
  882MOL0     H19015   2.201   8.076   5.517  0.4358  0.5273  1.4000
  882MOL0     H19016   2.318   8.105   5.392 -2.2589 -2.1456 -1.8332
  882MOL0     H19017   2.389   7.854   5.465 -0.5446 -0.4030 -0.1836
  882MOL0     H19018   2.211   7.864   5.516 -2.3161 -0.0033 -1.6252
  882MOL0     H19019   2.269   7.762   5.285  1.3340  1.1199 -2.6505
  882MOL0     H19020   2.334   7.916   5.240 -1.5522  0.2185 -1.5927
  882MOL0     H19021   2.130   7.915   5.049 -0.0266  1.5885 -0.9570
  882MOL0     H19022   1.906   7.975   4.942 -2.0928  2.4983 -1.9700
  882MOL0     H19023   1.775   7.888   5.015  0.1752  0.2043 -0.9095
  882MOL0     H19024   1.856   8.178   5.050 -0.0619  0.4308  0.8896
  882MOL0     H19025   1.745   8.112   5.157  0.2339 -0.3334 -0.3881
  882MOL0     H19026   1.571   8.179   5.016  0.3465 -0.1502  0.1282
  882MOL0     H19027   1.618   8.045   4.916 -2.7363 -0.8898  3.0798
  882MOL0     H19028   1.606   8.266   4.790 -1.0888  0.9701  2.2693
  882MOL0     H19029   1.769   8.200   4.791 -1.2365 -0.4140  1.1280
  882MOL0     H19030   1.888   8.476   5.070 -0.1327 -0.9907 -0.1008
  882MOL0     H19031   2.100   8.762   5.044  1.2514 -0.3968  0.0682
  882MOL0     H19032   2.045   8.618   5.136  5.1744 -0.0079  1.2956
  882MOL0     H19033   2.186   8.611   5.019  0.3084  0.2250 -0.0676
  882MOL0     H19034   2.375   8.725   4.624 -3.1875 -3.3553 -1.6728
  882MOL0     H19035   2.540   8.872   4.548 -0.9275 -3.6315 -2.4095
  882MOL0     H19036   2.673   9.030   4.415  1.1152 -1.7158 -0.4971
  882MOL0     H19037   2.549   8.988   4.303  1.2501  0.9498 -0.4819
  882MOL0     H19038   2.725   9.119   4.205 -1.5604 -1.1009 -2.1193
  882MOL0     H19039   2.566   9.198   4.186 -0.3909  0.7955  0.2262
  882MOL0     H19040   2.748   9.282   4.422 -0.3078 -3.0120 -0.5718
  882MOL0     H19041   2.616   9.372   4.349  0.2621  1.3971 -0.8504
  882MOL0     H19042   2.875   9.324   4.199 -1.2176 -0.7742 -0.8596
  882MOL0     H19043   2.743   9.410   4.138 -0.3202 -1.1634  0.0469
  882MOL0     H19044   2.912   9.507   4.375 -2.3227 -1.8375  1.7497
  882MOL0     H19045   2.775   9.588   4.319  2.4404  3.0113 -0.9569
  882MOL0     H19046   2.947   9.705   4.224  1.6004  0.3018 -0.3918
  882MOL0     H19047   3.028   9.557   4.160 -0.3641 -1.2285  1.4678
  882MOL0     H19048   2.768   9.633   4.049  0.4796  0.4875  0.0935
  882MOL0     H19049   2.896   9.522   3.988 -0.9962  2.4147 -3.9605
  882MOL0     H19050   2.905   9.736   3.855  1.6335  1.0305 -0.1508
  882MOL0     H19051   3.041   9.732   3.961 -0.1289 -0.1091 -1.8365
  882MOL0     H19052   2.245   9.158   4.412  2.0853 -0.0235 -0.4577
  882MOL0     H19053   2.058   9.013   4.492  1.4481  4.4237 -1.1195
  882MOL0     H19054   1.907   8.602   4.599 -0.6288 -1.4511  0.6156
  882MOL0     H19055   1.774   8.420   4.670 -1.0335 -0.2888  0.7043
  882MOL0     H19056   2.630   8.361   6.053  0.4347 -0.6726  0.7053
  882MOL0     H19057   2.833   8.396   6.199 -0.3445  0.1257  0.0778
  882MOL0     H19058   3.081   8.809   6.520 -0.0249  1.2754  0.1182
  882MOL0     H19059   3.301   8.778   6.653  0.4083  1.6857 -2.1468
  882MOL0     H19060   3.505   8.393   6.579  0.0509 -0.9986  2.5026
  882MOL0     H19061   3.597   8.511   6.496 -0.6495 -1.4913 -0.1570
  882MOL0     H19062   3.748   8.537   6.709 -1.1443  2.8581  3.0109
  882MOL0     H19063   3.701   8.359   6.700 -4.0487 -1.3451  2.8012
  882MOL0     H19064   3.535   8.375   6.843  4.4262 -3.7740  0.1023
  882MOL0     H19065   3.541   8.554   6.859  0.0183  0.0816  0.1800
  882MOL0     H19066   3.764   8.359   6.934 -1.9896 -1.0895 -0.3735
  882MOL0     H19067   3.650   8.407   7.048  0.4278 -0.7868 -0.2268
  882MOL0     H19068   3.872   8.752   7.050 -1.2045  0.1626  2.9781
  882MOL0     H19069   3.394   8.458   6.394  1.1967  0.5718  1.8229
  882MOL0     H19070   3.230   8.519   6.247 -1.9189 -3.3645  1.2556
  883MOL0     O19071  10.333   9.039   7.938 -0.2790  0.5033  0.2247
  883MOL0     C19072  10.290   8.951   7.861  0.0275  0.7635  0.4331
  883MOL0     O19073  10.326   8.816   7.851 -0.5811  0.3627 -0.3969
  883MOL0     C19074  10.432   8.764   7.922 -0.7378  0.2435 -0.7865
  883MOL0     C19075  10.429   8.731   8.060  0.9179 -0.6688  0.1338
  883MOL0     C19076  10.542   8.676   8.122  0.8532 -0.1675 -0.0286
  883MOL0     C19077  10.659   8.640   8.050 -0.5395  0.4295 -0.1463
  883MOL0     O19078  10.771   8.571   8.101 -0.3466 -0.7507  0.2991
  883MOL0     C19079  10.743   8.485   8.200 -0.1472  0.0276 -0.9732
  883MOL0     C19080  10.868   8.401   8.225  0.0205 -0.0863 -0.6113
  883MOL0     C19081  10.865   8.334   8.362  0.0944  0.7007 -0.0909
  883MOL0     C19082  10.998   8.271   8.402  0.5009  0.6980  0.3975
  883MOL0     C19083  11.009   8.257   8.553  0.6012  0.6432 -1.0424
  883MOL0     C19084  11.159   8.219   8.592  1.3578 -0.2491 -0.0847
  883MOL0     C19085  11.161   8.207   8.737 -1.4175  0.2381  0.6150
  883MOL0     C19086  11.307   8.199   8.782  0.0439  0.3639  0.6587
  883MOL0     N19087  11.309   8.217   8.931  0.1844  0.1064  0.4476
  883MOL0     C19088  11.336   8.335   9.009 -0.7258 -0.3629 -1.0601
  883MOL0     C19089  11.323   8.296   9.134 -1.0151 -0.5695 -0.2309
  883MOL0     C19090  11.360   8.390   9.244 -0.2424  0.1963  0.7471
  883MOL0     C19091  11.395   8.321   9.383  0.1627 -0.2291  0.6409
  883MOL0     C19092  11.434   8.438   9.477  1.3949  0.0039 -0.1852
  883MOL0     C19093  11.475   8.399   9.624  0.7714  0.5282  1.1018
  883MOL0     O19094  11.351   8.370   9.694  1.0189  0.2591 -0.2636
  883MOL0     C19095  11.350   8.360   9.830 -0.3372 -0.7825 -0.5262
  883MOL0     C19096  11.456   8.399   9.919  0.4276 -1.1555  0.4581
  883MOL0     C19097  11.460   8.363  10.054 -0.3503 -0.1668 -0.0591
  883MOL0     C19098  11.576   8.407  10.137  0.4353 -0.1752 -0.1975
  883MOL0     C19099  11.346   8.309  10.116 -1.6261  0.0665  0.0098
  883MOL0     C19100  11.330   8.268  10.255 -0.1687  0.1752 -0.9434
  883MOL0     O19101  11.236   8.170  10.285 -0.2172  0.7596 -0.6231
  883MOL0     C19102  11.261   8.083  10.392  0.1282  0.0254 -0.8170
  883MOL0     C19103  11.384   8.022  10.415 -0.4375 -0.1609  0.0999
  883MOL0     C19104  11.409   7.925  10.516  0.1379  0.4542 -1.0937
  883MOL0     C19105  11.315   7.902  10.615  0.1625  0.6028  0.6057
  883MOL0     O19106  11.338   7.823  10.725  0.2556 -0.2227  0.3033
  883MOL0     C19107  11.435   7.880  10.813  1.0164  0.7732  0.0990
  883MOL0     C19108  11.412   7.860  10.968  0.1733 -0.4797 -0.4190
  883MOL0     C19109  11.277   7.891  11.018 -0.1571 -1.3362 -0.0966
  883MOL0     C19110  11.230   8.034  10.967  0.7572  0.6747  0.7372
  883MOL0     C19111  11.093   8.057  11.029 -0.4205  0.0843 -0.8882
  883MOL0     C19112  11.012   8.166  10.969 -0.6458 -0.7083  0.7516
  883MOL0     C19113  10.874   8.191  11.039  0.0228 -1.0109 -0.2618
  883MOL0     C19114  10.872   8.335  11.102  0.4770 -0.8069 -0.1498
  883MOL0    Cl19115  10.706   8.388  11.100  0.4552  0.1936  0.0585
  883MOL0     C19116  11.182   7.945  10.583 -0.5546 -0.6799 -0.4858
  883MOL0     C19117  11.158   8.038  10.483  0.2852 -0.1918  0.4853
  883MOL0     O19118  11.403   8.314  10.344  0.1524  1.2586 -0.2819
  883MOL0     C19119  11.233   8.293  10.037  0.7332 -0.2705  0.0591
  883MOL0     C19120  11.237   8.319   9.896  0.4516  0.5590  0.4419
  883MOL0     N19121  11.267   8.169   9.141 -0.3065 -0.4449 -0.0379
  883MOL0     N19122  11.272   8.122   9.014  0.6160 -0.0593 -0.7607
  883MOL0     C19123  10.671   8.681   7.915  0.8788  0.0652 -0.4516
  883MOL0     C19124  10.557   8.748   7.853  0.3059 -0.0611 -0.2007
  883MOL0     C19125  10.190   8.989   7.755 -0.1896 -0.2204 -0.5376
  883MOL0     C19126  10.074   9.054   7.789  0.3550  0.8412  0.1062
  883MOL0     C19127   9.970   9.057   7.696 -0.1675 -0.4029 -0.0866
  883MOL0     C19128   9.987   9.024   7.560  0.2548 -0.3273 -0.5451
  883MOL0     O19129   9.877   9.066   7.483 -0.3176  0.3729 -0.1882
  883MOL0     C19130   9.870   9.003   7.349  0.6074 -1.1942  0.1441
  883MOL0     C19131   9.756   9.044   7.260 -0.1299 -1.4576  0.3712
  883MOL0     C19132   9.731   9.200   7.252  0.7296  0.3108  0.1920
  883MOL0     C19133   9.853   9.266   7.196 -0.0737 -0.2756 -0.1943
  883MOL0     C19134   9.811   9.400   7.148 -0.7511 -0.0874  0.2734
  883MOL0     C19135   9.761   9.501   7.126 -0.6344  0.5989 -1.5436
  883MOL0     C19136  10.108   8.970   7.517 -1.0639  0.2432 -1.4180
  883MOL0     C19137  10.207   8.955   7.619 -1.3491 -0.1793  0.2504
  883MOL0     H19138  10.342   8.762   8.118  0.1487  1.6923 -2.1038
  883MOL0     H19139  10.535   8.652   8.227 -2.5560 -1.7164 -0.4748
  883MOL0     H19140  10.707   8.533   8.291 -0.4018  1.8488 -1.9800
  883MOL0     H19141  10.678   8.408   8.158  1.8531 -1.3339 -1.7065
  883MOL0     H19142  10.872   8.316   8.156  1.5280 -1.7615  1.4072
  883MOL0     H19143  10.956   8.465   8.220 -2.7947  4.5654  2.0876
  883MOL0     H19144  10.830   8.402   8.439  1.0928 -0.2609  1.2459
  883MOL0     H19145  10.783   8.261   8.356  0.7674  0.0129 -1.4849
  883MOL0     H19146  10.997   8.174   8.350 -3.3350  1.0213 -0.4073
  883MOL0     H19147  11.080   8.330   8.361  2.1602 -1.1183  0.9703
  883MOL0     H19148  10.989   8.354   8.599 -1.0313 -0.9287  1.8338
  883MOL0     H19149  10.943   8.177   8.587  0.6832  1.0993  0.2524
  883MOL0     H19150  11.193   8.128   8.541 -1.7369 -1.0396 -0.9543
  883MOL0     H19151  11.225   8.296   8.549  0.2272  0.4532 -0.5997
  883MOL0     H19152  11.107   8.281   8.797  1.0839  1.4116  1.5590
  883MOL0     H19153  11.128   8.104   8.754 -1.5567 -0.8803 -4.7280
  883MOL0     H19154  11.356   8.283   8.732 -1.2958  0.7174 -0.1315
  883MOL0     H19155  11.351   8.107   8.743  0.4565  0.0083  1.9234
  883MOL0     H19156  11.383   8.421   8.961 -3.6956 -0.0492 -3.7352
  883MOL0     H19157  11.450   8.444   9.212 -0.0266  0.3172  1.5425
  883MOL0     H19158  11.276   8.460   9.246  0.2996  0.8739  0.3683
  883MOL0     H19159  11.477   8.250   9.369  0.5570 -0.1859  2.4414
  883MOL0     H19160  11.302   8.275   9.419 -0.4342  0.3696 -0.1251
  883MOL0     H19161  11.347   8.504   9.491 -0.4657 -1.9154 -2.1334
  883MOL0     H19162  11.504   8.504   9.424  1.3739 -1.1299 -1.6806
  883MOL0     H19163  11.534   8.482   9.664  1.3740  1.8691 -2.2262
  883MOL0     H19164  11.527   8.302   9.625 -0.2914 -0.0538  1.4387
  883MOL0     H19165  11.547   8.439   9.875 -1.6475 -0.2428 -3.5231
  883MOL0     H19166  11.532   8.461  10.221  1.0341  1.0099 -0.6155
  883MOL0     H19167  11.631   8.323  10.179 -1.8990 -1.4469  0.4935
  883MOL0     H19168  11.632   8.480  10.078  0.1650 -1.8946 -2.7522
  883MOL0     H19169  11.472   8.050  10.359 -0.9369  1.7488  0.1716
  883MOL0     H19170  11.513   7.895  10.524 -0.0813  0.2208  1.2993
  883MOL0     H19171  11.523   7.815  10.806 -0.6523 -1.5707 -0.4197
  883MOL0     H19172  11.456   7.986  10.794 -0.5734  0.7043 -2.7056
  883MOL0     H19173  11.433   7.761  11.011 -0.7241 -0.4289  0.1668
  883MOL0     H19174  11.486   7.921  11.020  2.5092 -0.6101 -3.3048
  883MOL0     H19175  11.277   7.882  11.127  1.6306 -4.2196 -0.2352
  883MOL0     H19176  11.215   7.809  10.978 -1.7498  1.2915 -3.6433
  883MOL0     H19177  11.308   8.109  10.983  0.7450  1.2722 -1.6417
  883MOL0     H19178  11.214   8.036  10.859  1.1787  1.2458  0.6815
  883MOL0     H19179  11.118   8.085  11.132 -0.8973  1.3079 -1.0886
  883MOL0     H19180  11.038   7.964  11.042 -1.6638  1.0636  1.2275
  883MOL0     H19181  11.074   8.256  10.971  2.1919 -2.4243 -1.6718
  883MOL0     H19182  10.989   8.134  10.867  1.0860 -0.2073  0.1653
  883MOL0     H19183  10.864   8.125  11.125 -1.1915 -0.9277 -0.3318
  883MOL0     H19184  10.789   8.166  10.974  0.1932 -4.1089  0.5513
  883MOL0     H19185  10.920   8.411  11.039 -1.4919  1.2546  0.6812
  883MOL0     H19186  10.905   8.332  11.206  2.3016  0.5354 -0.6356
  883MOL0     H19187  11.112   7.919  10.662 -0.4122 -0.9875 -0.4601
  883MOL0     H19188  11.064   8.087  10.460  0.3144 -0.5995 -0.5609
  883MOL0     H19189  11.133   8.271  10.073  0.8479  1.7167  1.8215
  883MOL0     H19190  11.144   8.306   9.842  0.0895  4.4700 -0.1574
  883MOL0     H19191  10.769   8.673   7.867  1.1216 -1.5133  0.2257
  883MOL0     H19192  10.568   8.778   7.750  1.3050 -0.8609 -0.3425
  883MOL0     H19193  10.060   9.085   7.893  2.7493 -3.1061  1.8525
  883MOL0     H19194   9.876   9.105   7.723  0.0134 -0.3659  0.4900
  883MOL0     H19195   9.965   9.014   7.295 -0.2076 -1.0705 -1.3022
  883MOL0     H19196   9.869   8.895   7.368  3.5828 -1.2604  0.3646
  883MOL0     H19197   9.669   8.981   7.282  0.1233 -1.6041  0.9491
  883MOL0     H19198   9.782   9.002   7.162  0.6185 -1.9775  0.7826
  883MOL0     H19199   9.700   9.251   7.344 -0.2273 -0.6495  0.4297
  883MOL0     H19200   9.640   9.211   7.193  0.7273  0.5479  0.2353
  883MOL0     H19201   9.899   9.203   7.119 -0.4974 -0.4814 -0.2854
  883MOL0     H19202   9.919   9.283   7.281 -2.7254 -1.0948  2.1886
  883MOL0     H19203   9.720   9.598   7.105  1.1843  2.6432  3.0787
  883MOL0     H19204  10.125   8.955   7.410  0.6321 -1.0649 -1.0273
  883MOL0     H19205  10.303   8.916   7.587 -0.6669  0.9251  0.8820
  884MOL0     O19206   5.394   2.669   2.838 -0.6699 -0.2285  0.0587
  884MOL0     C19207   5.297   2.620   2.891 -0.4466  0.1372  0.0182
  884MOL0     O19208   5.177   2.601   2.832 -0.3178 -0.7442  0.6920
  884MOL0     C19209   5.158   2.648   2.702  0.3799  0.0960 -0.4482
  884MOL0     C19210   5.242   2.606   2.592 -0.0142  0.2484 -0.6671
  884MOL0     C19211   5.224   2.664   2.462 -0.7147 -0.4985 -0.5917
  884MOL0     C19212   5.130   2.769   2.450 -0.0159  0.3289  0.4148
  884MOL0     O19213   5.115   2.838   2.333  0.9617 -0.4279  0.4448
  884MOL0     C19214   5.230   2.883   2.270 -0.4343 -0.0290 -0.8187
  884MOL0     C19215   5.320   2.958   2.360  1.2070 -0.1351 -0.4566
  884MOL0     C19216   5.413   3.041   2.276  0.5158 -0.3652  0.1686
  884MOL0     C19217   5.541   3.085   2.352 -1.0858  0.0314  0.8382
  884MOL0     C19218   5.643   3.181   2.278  0.3604  0.1796 -0.2287
  884MOL0     C19219   5.730   3.092   2.182  0.2232 -0.5641 -0.6325
  884MOL0     C19220   5.836   3.014   2.267 -0.2439 -0.3842  0.2304
  884MOL0     C19221   5.963   2.969   2.186  0.0219  0.4259  0.3951
  884MOL0     N19222   6.046   2.865   2.252  0.1716 -0.1739 -0.7782
  884MOL0     C19223   6.100   2.882   2.371 -0.1565 -0.8863 -0.3968
  884MOL0     C19224   6.170   2.770   2.405 -0.0936  0.3513  0.1312
  884MOL0     C19225   6.269   2.762   2.526  0.4406 -0.8601  0.4588
  884MOL0     C19226   6.219   2.667   2.644 -0.5065 -0.4809  0.5930
  884MOL0     C19227   6.084   2.726   2.688 -0.0193 -0.4191 -0.2583
  884MOL0     C19228   6.021   2.665   2.810  0.0031  0.9861 -0.6394
  884MOL0     O19229   5.914   2.749   2.853  0.0697  0.1384 -0.4002
  884MOL0     C19230   5.868   2.735   2.981  0.1622  0.8802 -0.5434
  884MOL0     C19231   5.834   2.857   3.026  0.2340 -0.9566 -0.3141
  884MOL0     C19232   5.788   2.873   3.158  0.4744  0.2716 -0.1157
  884MOL0     C19233   5.760   3.018   3.197 -0.7507  0.2217  0.0461
  884MOL0     C19234   5.789   2.768   3.256  0.2464 -1.0079  0.4326
  884MOL0     C19235   5.746   2.769   3.396 -0.0989  0.5027 -0.4918
  884MOL0     O19236   5.746   2.658   3.471  0.1509  0.5670 -0.1845
  884MOL0     C19237   5.700   2.646   3.602 -0.6361  0.2624 -0.2093
  884MOL0     C19238   5.742   2.522   3.658 -0.1465  0.4183 -0.0070
  884MOL0     C19239   5.703   2.484   3.782  0.2710 -0.8323 -0.4232
  884MOL0     C19240   5.608   2.564   3.867  0.0217  0.0762  0.5082
  884MOL0     O19241   5.579   2.517   3.992 -0.4085  0.4730 -0.2957
  884MOL0     C19242   5.445   2.524   4.041 -0.1181 -0.2980 -0.7166
  884MOL0     C19243   5.452   2.461   4.182 -0.4321  0.2661  0.1798
  884MOL0     C19244   5.365   2.526   4.279  0.7001  0.1266  0.7711
  884MOL0     C19245   5.407   2.495   4.423  0.1567  0.7190  0.1203
  884MOL0     C19246   5.494   2.602   4.494  0.5437  0.6512 -1.3431
  884MOL0     C19247   5.508   2.557   4.638 -0.6419  0.4546  0.4778
  884MOL0     C19248   5.598   2.433   4.680  0.2189 -0.3418  0.1110
  884MOL0     C19249   5.742   2.443   4.643 -0.1720 -0.4445 -0.2278
  884MOL0    Cl19250   5.847   2.557   4.740 -0.3121 -0.1609 -0.1672
  884MOL0     C19251   5.569   2.690   3.815 -0.3054  0.0508  0.4229
  884MOL0     C19252   5.619   2.727   3.684 -0.9448  0.4270 -0.9761
  884MOL0     O19253   5.692   2.873   3.432 -0.1980 -0.5572  0.3732
  884MOL0     C19254   5.834   2.647   3.203 -0.0121 -0.4300  0.0455
  884MOL0     C19255   5.880   2.629   3.072  0.5571  0.5471 -0.0661
  884MOL0     N19256   6.145   2.686   2.297 -0.3193 -0.2366 -0.3699
  884MOL0     N19257   6.077   2.743   2.208  0.2602  0.2274 -0.3461
  884MOL0     C19258   5.050   2.811   2.562  0.2192 -0.2530  0.3982
  884MOL0     C19259   5.065   2.747   2.688  0.0053  0.4674  0.0038
  884MOL0     C19260   5.310   2.578   3.029  0.1796  1.5384  0.2102
  884MOL0     C19261   5.202   2.523   3.103  0.1605 -0.1637  0.2446
  884MOL0     C19262   5.228   2.460   3.224 -0.1951  0.3484 -0.8026
  884MOL0     C19263   5.349   2.469   3.284  0.4688  0.3085 -0.3836
  884MOL0     O19264   5.359   2.386   3.399 -0.0815  0.2938  0.5086
  884MOL0     C19265   5.487   2.368   3.463  0.3424  0.2275  0.5754
  884MOL0     C19266   5.526   2.223   3.468 -0.8631  0.2584 -0.0745
  884MOL0     C19267   5.627   2.178   3.573 -1.0655 -0.4139 -0.0760
  884MOL0     C19268   5.683   2.042   3.544  0.9024 -0.0086  0.1327
  884MOL0     C19269   5.799   2.015   3.624 -0.0326  0.6589 -0.2508
  884MOL0     C19270   5.885   1.985   3.697 -0.3873 -0.0760 -0.0484
  884MOL0     C19271   5.448   2.554   3.236 -0.0271  1.0346  0.2943
  884MOL0     C19272   5.430   2.594   3.101 -0.4605  0.4772 -0.2367
  884MOL0     H19273   5.311   2.524   2.607 -0.3890 -0.0776 -0.7067
  884MOL0     H19274   5.282   2.623   2.380  2.1620 -2.5134  2.2182
  884MOL0     H19275   5.290   2.802   2.227  1.9322  1.8416 -1.2875
  884MOL0     H19276   5.206   2.948   2.185  3.2165  1.2967 -1.0246
  884MOL0     H19277   5.267   3.014   2.437 -0.8919 -1.8733 -0.5365
  884MOL0     H19278   5.373   2.876   2.410  0.9787 -0.7444 -1.1933
  884MOL0     H19279   5.436   2.996   2.179 -0.9054  1.8615 -1.2928
  884MOL0     H19280   5.369   3.135   2.241  2.1013 -0.2071 -1.5780
  884MOL0     H19281   5.516   3.138   2.445 -1.6430 -0.3410  0.9047
  884MOL0     H19282   5.580   2.992   2.395 -0.9784  0.1940  1.1010
  884MOL0     H19283   5.593   3.254   2.214  1.1687 -0.8108 -2.0865
  884MOL0     H19284   5.703   3.236   2.352  1.2472  0.0891 -0.8541
  884MOL0     H19285   5.656   3.020   2.146 -2.0710  0.1303  2.3471
  884MOL0     H19286   5.781   3.151   2.105 -0.5700  0.5669 -0.3094
  884MOL0     H19287   5.861   3.085   2.346 -1.8826  0.7936 -0.2660
  884MOL0     H19288   5.788   2.927   2.314 -0.8528 -0.2965 -0.2289
  884MOL0     H19289   6.015   3.059   2.152  0.5733 -0.2122 -0.5110
  884MOL0     H19290   5.935   2.928   2.089  4.5822 -0.2621 -0.8444
  884MOL0     H19291   6.101   2.979   2.419  1.2508 -0.7297 -0.6774
  884MOL0     H19292   6.369   2.740   2.486 -0.0974  0.7707 -1.9560
  884MOL0     H19293   6.259   2.865   2.562 -0.5203  0.2297 -2.6760
  884MOL0     H19294   6.300   2.657   2.716 -0.1062  2.5666  0.7103
  884MOL0     H19295   6.207   2.562   2.616  2.2223 -0.9812  1.0490
  884MOL0     H19296   6.009   2.702   2.612 -0.4307 -3.5986  0.9735
  884MOL0     H19297   6.094   2.834   2.689 -0.1649 -0.2243 -4.3972
  884MOL0     H19298   6.095   2.662   2.890 -0.9289  1.1377  0.2444
  884MOL0     H19299   5.982   2.564   2.794  0.1631  0.4468  1.9643
  884MOL0     H19300   5.854   2.949   2.972  1.9829 -1.9297 -1.4134
  884MOL0     H19301   5.788   3.086   3.117  2.6702  1.3543  1.9926
  884MOL0     H19302   5.653   3.032   3.213 -1.0448  0.8226 -2.1034
  884MOL0     H19303   5.824   3.052   3.279 -1.3968 -1.1917  1.1779
  884MOL0     H19304   5.810   2.449   3.617  0.3442  0.9462 -0.1551
  884MOL0     H19305   5.733   2.384   3.813 -0.8030 -0.6928  1.1928
  884MOL0     H19306   5.417   2.629   4.058 -1.0749 -0.8120  1.0231
  884MOL0     H19307   5.369   2.469   3.985 -1.0408 -0.4177  0.6037
  884MOL0     H19308   5.434   2.354   4.179  0.8614 -0.0205  1.5872
  884MOL0     H19309   5.555   2.466   4.221  1.2050 -0.2014 -3.6430
  884MOL0     H19310   5.267   2.482   4.263  1.0735 -1.3245  2.2074
  884MOL0     H19311   5.353   2.634   4.270 -1.4786 -0.1507 -0.1385
  884MOL0     H19312   5.314   2.495   4.481 -1.6678 -2.8731 -2.4060
  884MOL0     H19313   5.446   2.394   4.437  0.1313  0.6577 -0.2318
  884MOL0     H19314   5.449   2.702   4.488  0.7269  0.9164  0.8169
  884MOL0     H19315   5.591   2.620   4.448  1.2006  1.2158  0.1990
  884MOL0     H19316   5.553   2.649   4.678 -0.0643  0.4388 -0.1074
  884MOL0     H19317   5.412   2.537   4.687 -1.1208  0.5425 -0.3973
  884MOL0     H19318   5.562   2.337   4.641  2.8405 -0.1888 -3.1488
  884MOL0     H19319   5.601   2.425   4.789 -0.9540  1.3553  0.3107
  884MOL0     H19320   5.747   2.478   4.539 -0.5031 -0.0730 -0.1182
  884MOL0     H19321   5.790   2.345   4.649 -3.1393 -1.9095  1.7940
  884MOL0     H19322   5.508   2.756   3.876  2.2365  0.4134  2.7274
  884MOL0     H19323   5.552   2.803   3.647 -1.3819 -0.8713 -3.0498
  884MOL0     H19324   5.831   2.555   3.261 -1.7878  0.8637  2.1941
  884MOL0     H19325   5.912   2.528   3.047  1.2024  0.8625 -0.5350
  884MOL0     H19326   4.968   2.882   2.555 -0.1279 -0.7906 -2.3319
  884MOL0     H19327   5.013   2.754   2.783  1.3729 -4.2485  1.3478
  884MOL0     H19328   5.101   2.522   3.062 -1.1357 -0.4369  3.2115
  884MOL0     H19329   5.155   2.402   3.279 -0.4549 -0.7340 -2.2069
  884MOL0     H19330   5.566   2.432   3.423  0.0078  0.6184  0.5345
  884MOL0     H19331   5.468   2.402   3.565 -2.5763  2.4613 -0.5707
  884MOL0     H19332   5.560   2.186   3.371  0.7665  2.3081 -0.3795
  884MOL0     H19333   5.441   2.160   3.493 -1.0346 -0.0852 -1.4677
  884MOL0     H19334   5.576   2.183   3.669 -2.8309  0.1103 -0.9827
  884MOL0     H19335   5.710   2.247   3.587 -1.6615 -0.2743  3.6550
  884MOL0     H19336   5.702   2.028   3.437  0.6677 -0.0149  0.0896
  884MOL0     H19337   5.604   1.969   3.565 -0.8070  1.0782 -2.0749
  884MOL0     H19338   5.972   1.962   3.755  1.9809  2.1733 -2.4424
  884MOL0     H19339   5.532   2.593   3.293 -0.5179  1.9244  0.4305
  884MOL0     H19340   5.506   2.646   3.043 -0.8865 -0.2063 -1.4486
  885MOL0     O19341   6.478   0.838   3.003 -0.0717 -0.3119 -0.1458
  885MOL0     C19342   6.547   0.880   3.097  0.5915  0.1301 -0.7333
  885MOL0     O19343   6.589   0.807   3.203  0.1250 -0.1244  0.5476
  885MOL0     C19344   6.526   0.689   3.225  0.0220  0.1801  0.2268
  885MOL0     C19345   6.526   0.586   3.127 -0.4539 -0.5725  0.3253
  885MOL0     C19346   6.478   0.460   3.159 -0.8760  0.5201 -0.1928
  885MOL0     C19347   6.434   0.427   3.295  0.3332 -0.1409  0.6069
  885MOL0     O19348   6.383   0.306   3.346  1.1814 -1.1788 -0.5408
  885MOL0     C19349   6.408   0.182   3.274 -0.1159 -0.6591 -0.4908
  885MOL0     C19350   6.552   0.128   3.298  0.5180  0.9214 -0.2438
  885MOL0     C19351   6.558   0.059   3.437  0.5837 -0.4936 -0.3390
  885MOL0     C19352   6.691  -0.017   3.432  0.2564 -0.2635  0.1147
  885MOL0     C19353   6.744  -0.067   3.564  0.7433 -1.0190  0.8983
  885MOL0     C19354   6.877  -0.153   3.551 -0.3369 -0.0266 -1.0960
  885MOL0     C19355   6.908  -0.205   3.694  0.2546 -0.7823  0.1404
  885MOL0     C19356   7.047  -0.283   3.688  0.3392 -0.0336 -0.5396
  885MOL0     N19357   7.172  -0.209   3.648  0.2800  0.4016 -0.6038
  885MOL0     C19358   7.226  -0.222   3.524 -0.1509 -0.0709 -0.2569
  885MOL0     C19359   7.317  -0.123   3.508  0.0412  0.0117 -0.4761
  885MOL0     C19360   7.383  -0.095   3.375  0.7710 -0.3968  0.2848
  885MOL0     C19361   7.320   0.022   3.295 -0.3688  0.0711 -0.3178
  885MOL0     C19362   7.415   0.081   3.193  0.0200  1.2393 -0.4459
  885MOL0     C19363   7.467  -0.021   3.093 -0.4534 -0.2325 -1.7784
  885MOL0     O19364   7.379  -0.128   3.052 -0.7838 -0.1164  0.4372
  885MOL0     C19365   7.277  -0.099   2.970  0.8273 -0.3426 -0.3050
  885MOL0     C19366   7.252   0.016   2.895  0.6083  0.1754  0.4375
  885MOL0     C19367   7.148   0.023   2.807  0.9108  0.1882 -0.0239
  885MOL0     C19368   7.138   0.162   2.762  0.5930 -0.3481  0.5449
  885MOL0     C19369   7.057  -0.086   2.789 -0.2456  0.3425  0.0046
  885MOL0     C19370   6.949  -0.079   2.689  0.1829 -0.2938 -0.2227
  885MOL0     O19371   6.851  -0.173   2.692  0.7442  0.4093 -0.5109
  885MOL0     C19372   6.737  -0.158   2.621 -0.0332 -0.4665 -0.2609
  885MOL0     C19373   6.671  -0.268   2.559 -0.5185 -0.1330 -0.1909
  885MOL0     C19374   6.563  -0.255   2.473 -1.1172 -0.3648  0.2176
  885MOL0     C19375   6.510  -0.129   2.450 -0.8923  0.7046 -0.1949
  885MOL0     O19376   6.404  -0.105   2.363  0.4215 -0.7452  0.3421
  885MOL0     C19377   6.429  -0.130   2.225 -0.2781  0.5922 -0.9218
  885MOL0     C19378   6.300  -0.098   2.153 -0.2221 -0.7195 -1.4209
  885MOL0     C19379   6.337  -0.095   2.004  1.3684  0.0417  0.2851
  885MOL0     C19380   6.230  -0.067   1.905  0.3302  0.1858 -0.1741
  885MOL0     C19381   6.153  -0.191   1.857  1.5512  0.1977  1.0109
  885MOL0     C19382   6.054  -0.241   1.959  0.2830 -0.6604  1.3984
  885MOL0     C19383   5.947  -0.346   1.911  0.4398  0.8960  0.1574
  885MOL0     C19384   5.996  -0.494   1.892 -0.0623 -0.5117  0.8003
  885MOL0    Cl19385   6.023  -0.570   2.050 -0.3257 -0.0858 -0.1247
  885MOL0     C19386   6.556  -0.022   2.519  0.1225 -0.0207  0.3161
  885MOL0     C19387   6.675  -0.023   2.599 -0.1820  1.0783 -0.2426
  885MOL0     O19388   6.959   0.004   2.598 -0.3931  0.8084  0.2345
  885MOL0     C19389   7.074  -0.199   2.873  0.0320 -0.5677  0.0403
  885MOL0     C19390   7.190  -0.203   2.948 -0.0120  0.0702  0.2806
  885MOL0     N19391   7.329  -0.063   3.633 -0.7995 -0.3889 -0.0230
  885MOL0     N19392   7.241  -0.110   3.716  0.6754  0.8324  0.3173
  885MOL0     C19393   6.437   0.533   3.383 -0.0909  0.3609 -0.2941
  885MOL0     C19394   6.479   0.663   3.354 -0.1544 -0.6094  0.4713
  885MOL0     C19395   6.592   1.016   3.092 -0.2995 -0.3036  0.5542
  885MOL0     C19396   6.547   1.102   2.993 -1.1121  0.1026  0.4786
  885MOL0     C19397   6.597   1.232   2.974 -0.0184  0.2080  0.4413
  885MOL0     C19398   6.704   1.273   3.056 -0.5355  0.1774 -0.7508
  885MOL0     O19399   6.757   1.396   3.036  0.8128  0.2343 -0.3760
  885MOL0     C19400   6.901   1.404   3.005 -0.0224  0.6365  0.2631
  885MOL0     C19401   6.962   1.527   3.064 -0.3668 -0.1486 -0.2909
  885MOL0     C19402   7.110   1.558   3.026  0.0672  0.9991 -0.4545
  885MOL0     C19403   7.218   1.466   3.083  0.3902 -0.0247  0.1518
  885MOL0     C19404   7.231   1.326   3.039  0.0553 -0.2322  0.0332
  885MOL0     C19405   7.242   1.203   3.026  0.7955 -0.0876 -0.1928
  885MOL0     C19406   6.758   1.189   3.151 -0.3763 -0.3053  0.7120
  885MOL0     C19407   6.697   1.063   3.179  0.7910 -0.5487  0.4605
  885MOL0     H19408   6.566   0.618   3.031  3.8990  5.6291  3.5244
  885MOL0     H19409   6.484   0.385   3.081 -0.7194 -0.8207  1.0723
  885MOL0     H19410   6.343   0.097   3.293 -0.6880  0.2919  2.3734
  885MOL0     H19411   6.406   0.200   3.166  0.0273 -1.0484 -0.5581
  885MOL0     H19412   6.566   0.057   3.216  5.6284  2.6829 -1.2458
  885MOL0     H19413   6.636   0.195   3.284  1.6360 -0.5192 -0.7199
  885MOL0     H19414   6.567   0.131   3.518 -0.9238 -0.9568  0.2753
  885MOL0     H19415   6.472  -0.009   3.436 -0.6351  0.9611 -2.1285
  885MOL0     H19416   6.671  -0.100   3.363 -0.9879 -0.4321  0.6605
  885MOL0     H19417   6.765   0.054   3.393 -2.0317  1.6548 -1.0643
  885MOL0     H19418   6.763   0.022   3.625 -0.4637 -1.5872  2.1821
  885MOL0     H19419   6.665  -0.125   3.614  2.0825 -4.3855 -0.5536
  885MOL0     H19420   6.863  -0.236   3.481  0.1308 -0.0965 -1.1096
  885MOL0     H19421   6.957  -0.086   3.518 -0.3140  1.7507  2.0966
  885MOL0     H19422   6.911  -0.118   3.760 -3.0453  0.7578 -1.4628
  885MOL0     H19423   6.830  -0.275   3.728  0.0496 -1.1222 -0.9756
  885MOL0     H19424   7.033  -0.376   3.633 -1.8730 -0.7039  1.0050
  885MOL0     H19425   7.065  -0.323   3.788 -1.1198  1.7355  0.4886
  885MOL0     H19426   7.191  -0.283   3.441  0.1455  1.6484 -1.7148
  885MOL0     H19427   7.487  -0.071   3.397  0.5330  1.8768 -0.7960
  885MOL0     H19428   7.392  -0.187   3.318  2.6882  0.4518 -0.8626
  885MOL0     H19429   7.288   0.102   3.364 -3.1256 -0.6122 -0.6908
  885MOL0     H19430   7.225  -0.018   3.258 -0.4578  1.5239 -1.7844
  885MOL0     H19431   7.501   0.129   3.241  0.0367 -0.7059  1.5982
  885MOL0     H19432   7.375   0.165   3.135 -0.2975  2.5106  1.5175
  885MOL0     H19433   7.559  -0.062   3.137  2.0208  1.7664 -4.6717
  885MOL0     H19434   7.515   0.032   3.011 -2.1067 -0.4670 -2.9306
  885MOL0     H19435   7.318   0.100   2.916 -1.3508  0.9510  4.4441
  885MOL0     H19436   7.129   0.179   2.654 -1.3084  1.0526  0.8522
  885MOL0     H19437   7.057   0.211   2.818  0.4306  2.0665 -1.6122
  885MOL0     H19438   7.226   0.223   2.785 -1.1443  1.9313  1.5711
  885MOL0     H19439   6.721  -0.364   2.555  1.4538  0.8767 -1.7234
  885MOL0     H19440   6.518  -0.341   2.425  1.3176 -1.5409 -0.1202
  885MOL0     H19441   6.508  -0.056   2.210  1.4060 -1.0219 -0.4396
  885MOL0     H19442   6.459  -0.230   2.191  0.5023  1.0245 -1.5316
  885MOL0     H19443   6.227  -0.177   2.169 -0.7661  0.4119  2.9892
  885MOL0     H19444   6.257   0.000   2.176  2.6121  0.9354 -2.6655
  885MOL0     H19445   6.384  -0.192   1.987  1.3523 -0.1879  1.4859
  885MOL0     H19446   6.406  -0.011   1.992 -0.3737  1.7525  1.7734
  885MOL0     H19447   6.172   0.008   1.960  1.9399  2.6266 -1.6220
  885MOL0     H19448   6.277  -0.016   1.820 -1.9600 -1.2496 -2.4491
  885MOL0     H19449   6.222  -0.269   1.823  0.1074 -0.4657 -0.5350
  885MOL0     H19450   6.100  -0.165   1.765  0.7907  3.3582  2.2253
  885MOL0     H19451   6.117  -0.292   2.033 -0.9730 -1.9557  1.6218
  885MOL0     H19452   5.994  -0.164   2.009  0.2952  0.4735 -0.2622
  885MOL0     H19453   5.902  -0.295   1.825  0.4941  1.6084  0.5410
  885MOL0     H19454   5.878  -0.360   1.994  1.8356 -0.0463  1.2068
  885MOL0     H19455   6.096  -0.484   1.849  0.0734 -1.4214  0.8821
  885MOL0     H19456   5.939  -0.563   1.828  2.9735 -1.1058 -1.5088
  885MOL0     H19457   6.507   0.074   2.510 -1.5914 -0.5368  2.9519
  885MOL0     H19458   6.700   0.069   2.651 -3.1104  1.0678  1.3784
  885MOL0     H19459   7.002  -0.280   2.872 -0.0477 -0.5254  1.1734
  885MOL0     H19460   7.207  -0.293   3.007  0.0066 -0.1985 -0.1325
  885MOL0     H19461   6.379   0.515   3.473 -1.9388  2.3467 -1.0014
  885MOL0     H19462   6.481   0.740   3.432  2.2009  0.3866 -0.4778
  885MOL0     H19463   6.482   1.052   2.922 -0.5638 -1.7971  1.2298
  885MOL0     H19464   6.544   1.299   2.906 -0.1785  0.2120  0.5691
  885MOL0     H19465   6.961   1.316   3.032 -2.6714 -1.7829 -1.1998
  885MOL0     H19466   6.911   1.423   2.898 -2.8339  0.3798 -0.1272
  885MOL0     H19467   6.945   1.521   3.171  1.2589  0.0874  0.0100
  885MOL0     H19468   6.906   1.613   3.024  3.2902  2.8535  0.4199
  885MOL0     H19469   7.126   1.657   3.069  0.6667 -0.1045  2.0657
  885MOL0     H19470   7.116   1.570   2.917 -5.4016 -1.2641 -1.3685
  885MOL0     H19471   7.208   1.458   3.192  1.8519  2.2042  0.5323
  885MOL0     H19472   7.309   1.525   3.070  0.2457  0.8146  2.3885
  885MOL0     H19473   7.253   1.096   3.021  2.9489  0.1359 -4.1094
  885MOL0     H19474   6.840   1.240   3.201 -0.7738  1.3629 -0.2892
  885MOL0     H19475   6.745   1.002   3.255  1.1907  0.6839  1.2351
  886MOL0     O19476  10.957   8.923  11.042 -0.4774 -1.1468 -0.7447
  886MOL0     C19477  10.870   8.845  11.027 -1.1846  0.2654 -0.1649
  886MOL0     O19478  10.872   8.715  11.057  0.1624  0.2635 -0.2925
  886MOL0     C19479  10.983   8.656  11.110 -0.7536  0.4386  0.4795
  886MOL0     C19480  10.981   8.589  11.236  0.2443  0.5149 -0.5890
  886MOL0     C19481  11.091   8.518  11.276 -0.0359 -0.2713 -0.7351
  886MOL0     C19482  11.212   8.517  11.198 -0.2776 -0.9241  0.0944
  886MOL0     O19483  11.326   8.447  11.220  0.7590 -0.0605  0.0913
  886MOL0     C19484  11.308   8.339  11.317 -0.8627 -0.7772  0.5200
  886MOL0     C19485  11.393   8.221  11.271 -0.6853 -0.3015 -0.2680
  886MOL0     C19486  11.545   8.261  11.275  0.3652 -0.2214  0.0893
  886MOL0     C19487  11.622   8.174  11.370 -0.8641  0.2825  0.1429
  886MOL0     C19488  11.565   8.202  11.514 -0.6316 -0.1763 -0.2020
  886MOL0     C19489  11.615   8.087  11.610  0.2764 -0.7430 -0.8276
  886MOL0     C19490  11.594   8.135  11.757  0.7552 -0.0590 -0.0633
  886MOL0     C19491  11.451   8.102  11.799  0.1216 -0.7559  0.5719
  886MOL0     N19492  11.361   8.212  11.766 -0.3492 -0.1291  0.7736
  886MOL0     C19493  11.352   8.329  11.830 -0.0383  0.7953 -0.4122
  886MOL0     C19494  11.254   8.397  11.770 -0.1544 -0.6016  0.6988
  886MOL0     C19495  11.218   8.540  11.791 -0.1635 -0.6505 -0.1082
  886MOL0     C19496  11.317   8.636  11.722  0.9910 -0.6317 -0.2802
  886MOL0     C19497  11.264   8.668  11.581  0.5983  0.1641  0.1372
  886MOL0     C19498  11.363   8.719  11.477  0.0324  0.2923  0.1457
  886MOL0     O19499  11.466   8.806  11.542 -0.3670  0.1520 -0.3658
  886MOL0     C19500  11.457   8.940  11.528 -0.1990  0.9187 -0.8899
  886MOL0     C19501  11.413   9.024  11.639  0.5881 -0.2021 -0.1650
  886MOL0     C19502  11.402   9.166  11.616 -1.4147  0.3851 -0.3404
  886MOL0     C19503  11.357   9.239  11.740 -0.1691  0.3129 -0.1024
  886MOL0     C19504  11.435   9.220  11.489 -0.0181 -0.5235  0.7313
  886MOL0     C19505  11.426   9.361  11.453  0.4090 -0.0440 -0.1936
  886MOL0     O19506  11.507   9.398  11.345  0.5957 -0.0268 -0.2228
  886MOL0     C19507  11.516   9.525  11.294 -0.4620 -0.8903  1.1211
  886MOL0     C19508  11.634   9.537  11.222  0.0140  0.1619 -0.3568
  886MOL0     C19509  11.667   9.650  11.152 -0.0148  0.1851  1.0935
  886MOL0     C19510  11.586   9.762  11.162 -0.5882 -0.2231  0.3808
  886MOL0     O19511  11.632   9.873  11.101  0.0904 -0.2925  0.6977
  886MOL0     C19512  11.644   9.989  11.188  0.7826 -0.7145  0.4929
  886MOL0     C19513  11.702  10.108  11.113 -0.6089 -0.5713  0.1636
  886MOL0     C19514  11.852  10.093  11.080 -0.0444 -0.1258  0.2396
  886MOL0     C19515  11.937  10.078  11.205 -0.0962  0.1390 -0.2213
  886MOL0     C19516  12.084  10.102  11.165 -0.2905  0.2929  0.3532
  886MOL0     C19517  12.187  10.094  11.276 -1.1983  0.0917 -0.1891
  886MOL0     C19518  12.333  10.119  11.227  0.5974 -0.6567  0.2985
  886MOL0     C19519  12.411   9.993  11.167  0.1173  0.8197 -0.1859
  886MOL0    Cl19520  12.555  10.036  11.080 -0.3060 -0.0162 -0.0197
  886MOL0     C19521  11.462   9.755  11.238 -0.4935 -0.7519 -0.8492
  886MOL0     C19522  11.418   9.629  11.296 -0.1696  1.0596 -0.6422
  886MOL0     O19523  11.354   9.439  11.507  0.6483 -0.8725 -0.4263
  886MOL0     C19524  11.475   9.127  11.377 -0.0628 -0.7531 -0.9696
  886MOL0     C19525  11.475   8.993  11.395 -0.2171  0.9430 -0.9713
  886MOL0     N19526  11.208   8.315  11.668  0.1251 -0.1392 -0.0286
  886MOL0     N19527  11.275   8.203  11.665 -0.4610  0.0581  0.6661
  886MOL0     C19528  11.208   8.587  11.086  0.2391  0.4244  0.5121
  886MOL0     C19529  11.097   8.654  11.030  0.6191 -0.7382 -0.4476
  886MOL0     C19530  10.755   8.899  10.959  0.1966 -0.3767 -0.3005
  886MOL0     C19531  10.749   9.031  10.900  0.5157 -0.0650  0.6402
  886MOL0     C19532  10.638   9.073  10.831  0.8116  0.9910  0.7587
  886MOL0     C19533  10.522   8.994  10.825 -0.2600 -0.5081  0.1530
  886MOL0     O19534  10.418   9.050  10.753 -0.3464 -0.5421 -0.6659
  886MOL0     C19535  10.377   8.979  10.631 -0.4817  0.2740 -0.7601
  886MOL0     C19536  10.318   9.070  10.538  0.6412  0.4784  0.4826
  886MOL0     C19537  10.238   9.004  10.425  0.5220 -0.5010 -0.4656
  886MOL0     C19538  10.182   9.109  10.331  0.0241  0.3750 -0.8379
  886MOL0     C19539  10.146   9.056  10.202 -0.1593 -0.1389 -0.3405
  886MOL0     C19540  10.115   9.027  10.091  0.7880 -0.8461 -1.1553
  886MOL0     C19541  10.513   8.861  10.881 -0.5617 -0.7284  0.1337
  886MOL0     C19542  10.643   8.818  10.942  0.0604  0.7021 -0.2186
  886MOL0     H19543  10.889   8.586  11.295 -0.1129  0.5176 -1.1382
  886MOL0     H19544  11.088   8.470  11.374 -1.2875  1.6539  0.2116
  886MOL0     H19545  11.328   8.387  11.413  0.5842  3.0401 -1.4925
  886MOL0     H19546  11.207   8.296  11.321 -0.4648 -1.8386 -0.1853
  886MOL0     H19547  11.361   8.125  11.312  0.6593 -1.5469 -1.9623
  886MOL0     H19548  11.371   8.215  11.164 -2.6037  1.2613 -0.0083
  886MOL0     H19549  11.602   8.258  11.182  3.9346 -1.7676  2.0870
  886MOL0     H19550  11.542   8.359  11.323 -1.9908 -1.1384  2.0679
  886MOL0     H19551  11.613   8.067  11.347 -0.7087  0.1686  0.6063
  886MOL0     H19552  11.730   8.190  11.372 -0.8731  0.3996 -0.2104
  886MOL0     H19553  11.601   8.302  11.540 -0.7441 -0.4194  0.9642
  886MOL0     H19554  11.456   8.201  11.510 -0.7968  3.9819 -1.6641
  886MOL0     H19555  11.564   7.991  11.602 -3.9164  1.0714  1.1466
  886MOL0     H19556  11.720   8.061  11.598  0.7648  0.0938  1.1494
  886MOL0     H19557  11.658   8.082  11.827 -1.2273  1.1656  2.8779
  886MOL0     H19558  11.610   8.243  11.766  0.5394 -0.1384  1.5317
  886MOL0     H19559  11.443   8.087  11.908  0.6321  2.0927  1.0659
  886MOL0     H19560  11.426   8.011  11.745  1.0568  0.3729 -1.8867
  886MOL0     H19561  11.417   8.361  11.911 -1.7083  0.6882  1.0320
  886MOL0     H19562  11.115   8.564  11.762  0.7085  1.5284 -1.6634
  886MOL0     H19563  11.217   8.565  11.897  1.2769  1.2427 -0.4778
  886MOL0     H19564  11.418   8.596  11.710  0.2682 -2.9447  0.8247
  886MOL0     H19565  11.330   8.729  11.778  3.6434  1.1533 -3.5097
  886MOL0     H19566  11.179   8.737  11.580  0.2298 -0.2877 -0.2839
  886MOL0     H19567  11.221   8.576  11.542  0.8631  0.8588 -1.9389
  886MOL0     H19568  11.322   8.774  11.392  3.7531  0.1305 -1.9636
  886MOL0     H19569  11.408   8.630  11.433  0.7237  0.1892  1.0342
  886MOL0     H19570  11.397   8.981  11.737  3.6131 -1.2976 -0.0543
  886MOL0     H19571  11.419   9.207  11.823 -1.3108 -1.6733  0.0390
  886MOL0     H19572  11.362   9.348  11.727 -0.4264  0.4458  0.8365
  886MOL0     H19573  11.256   9.207  11.768 -0.8090 -0.8065 -3.2862
  886MOL0     H19574  11.703   9.453  11.229 -1.0176 -0.6147  0.8370
  886MOL0     H19575  11.749   9.659  11.082  1.1639  1.0017  2.5218
  886MOL0     H19576  11.542  10.014  11.221 -0.2101 -2.1033 -1.3624
  886MOL0     H19577  11.698   9.963  11.280  2.1324 -1.4135 -0.4779
  886MOL0     H19578  11.646  10.128  11.021  0.0421  0.4482 -0.0236
  886MOL0     H19579  11.695  10.195  11.178  1.4947 -1.5797  1.8793
  886MOL0     H19580  11.884  10.176  11.016 -1.5864  0.9581  0.8264
  886MOL0     H19581  11.869  10.001  11.023  0.1108 -1.4260  2.2690
  886MOL0     H19582  11.912  10.160  11.274  0.7546 -0.1194  0.4107
  886MOL0     H19583  11.931   9.984  11.260 -1.4470  0.7675  0.7559
  886MOL0     H19584  12.100  10.199  11.117  0.0720 -0.5767 -1.3868
  886MOL0     H19585  12.117  10.026  11.094  3.0336  0.4437  1.5521
  886MOL0     H19586  12.160  10.167  11.352 -1.2182  0.9615 -1.0102
  886MOL0     H19587  12.182   9.997  11.327 -0.0472  0.7391  1.2315
  886MOL0     H19588  12.390  10.141  11.318  1.0831 -3.8480  0.8872
  886MOL0     H19589  12.321  10.208  11.165 -2.4793  1.2861  3.2814
  886MOL0     H19590  12.349   9.933  11.098 -1.5822 -0.8592  2.6065
  886MOL0     H19591  12.440   9.927  11.249  3.7695 -1.4689 -2.9730
  886MOL0     H19592  11.400   9.844  11.250  0.3095 -0.1542 -1.0383
  886MOL0     H19593  11.326   9.630  11.354 -1.2418  3.0445 -2.2720
  886MOL0     H19594  11.485   9.149  11.272 -2.2911 -6.0774 -2.6258
  886MOL0     H19595  11.490   8.920  11.317 -0.6334  1.4625 -1.5465
  886MOL0     H19596  11.302   8.582  11.031  0.6258  5.5528  0.2428
  886MOL0     H19597  11.088   8.698  10.932 -2.7277 -2.6917 -1.1743
  886MOL0     H19598  10.837   9.094  10.896 -1.2850  2.8112  2.7179
  886MOL0     H19599  10.635   9.170  10.781  1.6378  0.9126  0.5402
  886MOL0     H19600  10.468   8.939  10.585 -0.4502 -3.8151  2.2706
  886MOL0     H19601  10.323   8.888  10.661  4.0437 -2.5002 -0.0406
  886MOL0     H19602  10.399   9.133  10.499 -0.3571  2.1943  1.0408
  886MOL0     H19603  10.258   9.143  10.595 -3.4194  1.2667 -4.0573
  886MOL0     H19604  10.155   8.946  10.468 -1.6638  1.6105 -1.6294
  886MOL0     H19605  10.306   8.932  10.377  0.0460 -0.7207 -0.8180
  886MOL0     H19606  10.259   9.186  10.317  1.4350 -0.2819  2.3948
  886MOL0     H19607  10.090   9.150  10.374  0.1019 -0.2233 -0.0756
  886MOL0     H19608  10.074   9.011   9.993 -1.3294 -3.6259  0.0563
  886MOL0     H19609  10.419   8.809  10.873 -1.0339  0.2348 -0.7557
  886MOL0     H19610  10.653   8.714  10.971 -2.5061  0.0992 -1.2519
  887MOL0     O19611   1.312   0.724   7.962 -1.2081  0.3381 -0.6849
  887MOL0     C19612   1.277   0.811   8.039 -0.1300 -0.5272  0.0708
  887MOL0     O19613   1.178   0.896   8.011  0.2749 -0.1612 -0.4709
  887MOL0     C19614   1.118   0.896   7.878 -0.3036  0.0606  0.4925
  887MOL0     C19615   0.984   0.943   7.864 -0.0360 -0.1687 -0.3774
  887MOL0     C19616   0.934   0.965   7.734 -0.6940  0.5919  0.2627
  887MOL0     C19617   1.007   0.931   7.621 -0.4289 -1.0846  0.3250
  887MOL0     O19618   0.973   0.943   7.494 -0.6531 -0.3962 -0.2196
  887MOL0     C19619   0.893   1.049   7.443  0.2118  0.3326  0.0548
  887MOL0     C19620   0.773   1.011   7.369 -1.1496 -0.4311  0.8460
  887MOL0     C19621   0.768   0.920   7.236 -0.3518 -0.1149  0.2693
  887MOL0     C19622   0.632   0.860   7.213  0.0773  0.0812 -0.5687
  887MOL0     C19623   0.637   0.733   7.129  0.2693  0.4565  0.4360
  887MOL0     C19624   0.739   0.715   7.008  0.6731 -0.6110 -0.3421
  887MOL0     C19625   0.722   0.592   6.912 -0.5289 -0.5981 -0.9030
  887MOL0     C19626   0.601   0.575   6.824 -0.0540  0.5502  0.2576
  887MOL0     N19627   0.560   0.701   6.755  0.7317 -0.2415 -0.0173
  887MOL0     C19628   0.585   0.730   6.625  0.1084 -0.4880  0.0994
  887MOL0     C19629   0.530   0.856   6.611 -0.8607  0.3635  0.9013
  887MOL0     C19630   0.534   0.922   6.473 -0.4554 -0.6467 -0.8740
  887MOL0     C19631   0.437   1.040   6.486  0.1767  0.0657  0.8689
  887MOL0     C19632   0.428   1.106   6.342  0.3929  0.1534  0.8896
  887MOL0     C19633   0.345   1.236   6.349 -0.3947  0.5835  1.0342
  887MOL0     O19634   0.311   1.296   6.224 -0.7633  0.1746  0.2085
  887MOL0     C19635   0.311   1.435   6.215  0.3672  0.1712 -0.3465
  887MOL0     C19636   0.288   1.506   6.332 -0.5519 -0.0308 -0.0361
  887MOL0     C19637   0.266   1.646   6.320 -0.2975 -0.7881 -0.1472
  887MOL0     C19638   0.242   1.721   6.449 -0.6218 -0.0310 -0.5946
  887MOL0     C19639   0.278   1.720   6.194  0.1046 -0.0942  0.3976
  887MOL0     C19640   0.263   1.862   6.186 -0.1522 -0.3347 -0.3780
  887MOL0     O19641   0.328   1.920   6.074  0.0441  0.6740  0.5807
  887MOL0     C19642   0.309   2.053   6.050 -0.5658 -0.1041 -0.8598
  887MOL0     C19643   0.216   2.083   5.947 -1.0388  0.5199  0.6727
  887MOL0     C19644   0.188   2.216   5.924  0.1533  0.0799  0.2876
  887MOL0     C19645   0.244   2.321   5.983 -0.4315  0.6630 -0.4471
  887MOL0     O19646   0.216   2.454   5.965  0.2099  0.7446 -0.3027
  887MOL0     C19647   0.096   2.488   5.901 -0.3287 -0.0164  0.0004
  887MOL0     C19648   0.044   2.631   5.941 -0.0157 -0.3282  0.3358
  887MOL0     C19649   0.153   2.753   5.933 -0.3729 -0.9649  0.3298
  887MOL0     C19650   0.100   2.879   5.880 -0.3932  0.1410  1.0749
  887MOL0     C19651   0.204   2.993   5.857 -0.6416 -0.5154 -0.8517
  887MOL0     C19652   0.248   3.047   5.991 -0.3354 -0.0065 -1.2380
  887MOL0     C19653   0.358   3.159   5.973 -0.1690  1.0630  0.3971
  887MOL0     C19654   0.378   3.236   6.108 -0.3827  0.3409  0.1276
  887MOL0    Cl19655   0.226   3.306   6.176 -0.3421 -0.0813 -0.3780
  887MOL0     C19656   0.334   2.297   6.084 -0.6077  0.1221 -0.0414
  887MOL0     C19657   0.360   2.161   6.124  0.0629  1.4864  0.1625
  887MOL0     O19658   0.190   1.927   6.257 -0.4367 -0.3993  0.0037
  887MOL0     C19659   0.319   1.638   6.085  0.3867 -0.2613  0.4850
  887MOL0     C19660   0.327   1.497   6.099  0.3269 -0.4095 -0.1006
  887MOL0     N19661   0.459   0.895   6.728 -0.0408  0.1992  0.3453
  887MOL0     N19662   0.489   0.807   6.811  0.1943  0.1004  0.2281
  887MOL0     C19663   1.130   0.873   7.635 -0.0354  0.3901 -0.6685
  887MOL0     C19664   1.186   0.864   7.758  1.0106  0.9752 -0.6214
  887MOL0     C19665   1.341   0.816   8.175  0.2981 -0.0683 -0.1318
  887MOL0     C19666   1.299   0.916   8.267  0.2931 -0.6913  0.8002
  887MOL0     C19667   1.339   0.914   8.396  0.2262 -0.2936  0.2542
  887MOL0     C19668   1.416   0.815   8.449 -0.3988 -0.1488 -0.1906
  887MOL0     O19669   1.434   0.804   8.586  0.0437 -0.2338  0.0720
  887MOL0     C19670   1.540   0.723   8.633  0.4147  0.8534  0.4527
  887MOL0     C19671   1.562   0.748   8.777  0.1219 -0.4568 -0.2420
  887MOL0     C19672   1.598   0.900   8.790  0.3257  0.7000  0.1987
  887MOL0     C19673   1.566   0.943   8.932 -0.2580 -0.2984  0.5514
  887MOL0     C19674   1.623   0.864   9.038 -1.4893  0.7986 -0.3307
  887MOL0     C19675   1.660   0.805   9.137  0.3534 -0.1445 -0.2006
  887MOL0     C19676   1.467   0.723   8.355 -0.3592 -0.6128 -0.9224
  887MOL0     C19677   1.435   0.733   8.221 -0.3475 -0.4467 -0.2911
  887MOL0     H19678   0.922   0.979   7.946  1.4788  0.1600  0.6726
  887MOL0     H19679   0.833   0.998   7.713 -0.9619 -0.7436 -0.6369
  887MOL0     H19680   0.866   1.112   7.529 -1.0560 -1.9936  1.4737
  887MOL0     H19681   0.971   1.089   7.378  0.9134 -1.3705 -0.2125
  887MOL0     H19682   0.702   0.974   7.444 -1.4873  0.6555  1.0794
  887MOL0     H19683   0.741   1.100   7.314 -2.4685 -1.1392  0.4194
  887MOL0     H19684   0.797   0.986   7.154  3.3413  2.3855  3.2186
  887MOL0     H19685   0.850   0.848   7.244 -0.6587 -0.2856  2.9224
  887MOL0     H19686   0.578   0.840   7.306  2.4899 -0.5422  0.7813
  887MOL0     H19687   0.572   0.931   7.155 -0.2511 -2.4120 -3.6094
  887MOL0     H19688   0.655   0.645   7.191 -0.6249 -1.3200 -1.7215
  887MOL0     H19689   0.535   0.734   7.091  1.3871 -0.2332 -2.9149
  887MOL0     H19690   0.733   0.808   6.951 -2.3427 -0.4529  0.1102
  887MOL0     H19691   0.844   0.709   7.039  0.5377 -1.3831 -0.0078
  887MOL0     H19692   0.810   0.611   6.850 -1.7826  2.2564 -1.9943
  887MOL0     H19693   0.741   0.496   6.961 -2.3237 -1.0087 -0.9522
  887MOL0     H19694   0.517   0.551   6.889  0.1683 -1.2269 -0.0662
  887MOL0     H19695   0.622   0.489   6.760  1.4605 -0.3245  1.8522
  887MOL0     H19696   0.630   0.676   6.543 -1.5611 -1.7075 -0.0695
  887MOL0     H19697   0.637   0.957   6.460 -0.0500 -0.5610  1.8255
  887MOL0     H19698   0.498   0.858   6.392 -0.5543 -1.3418 -0.2957
  887MOL0     H19699   0.475   1.103   6.566  2.5550  0.0528 -0.1554
  887MOL0     H19700   0.339   1.006   6.521 -1.7241 -1.1832 -4.6107
  887MOL0     H19701   0.384   1.044   6.264  1.9693  1.0330 -0.7976
  887MOL0     H19702   0.528   1.142   6.316  1.5416 -1.3709  2.8947
  887MOL0     H19703   0.406   1.300   6.414  2.1053 -3.1226  2.6687
  887MOL0     H19704   0.251   1.211   6.398 -1.1036  2.0134  0.4643
  887MOL0     H19705   0.274   1.452   6.425  2.0417 -2.6081 -1.0240
  887MOL0     H19706   0.142   1.764   6.449 -1.3978 -1.6890  1.3509
  887MOL0     H19707   0.268   1.655   6.533  2.9951  1.8908  0.0209
  887MOL0     H19708   0.323   1.792   6.468 -2.0793  0.8958  2.8687
  887MOL0     H19709   0.179   2.005   5.882  1.3050 -1.2911  1.4019
  887MOL0     H19710   0.127   2.238   5.837  0.5303 -4.1123 -1.2744
  887MOL0     H19711   0.107   2.479   5.792  1.2886 -1.5852  0.2515
  887MOL0     H19712   0.022   2.410   5.923  0.9076 -1.3122 -0.2823
  887MOL0     H19713  -0.046   2.635   5.879  1.4677  0.1209 -1.9276
  887MOL0     H19714   0.022   2.621   6.048 -0.4636  0.9896  0.3865
  887MOL0     H19715   0.243   2.738   5.873 -1.7018  0.8459 -2.3080
  887MOL0     H19716   0.186   2.770   6.036 -0.9212  2.2743  0.0934
  887MOL0     H19717   0.047   2.853   5.788  3.1200 -0.4496 -0.9171
  887MOL0     H19718   0.023   2.906   5.954 -1.8149 -1.5173  0.2663
  887MOL0     H19719   0.156   3.077   5.808 -2.6704 -0.2180  1.4496
  887MOL0     H19720   0.283   2.948   5.796 -0.3296 -2.4060  0.8205
  887MOL0     H19721   0.157   3.087   6.036  0.0763  1.2622 -1.4844
  887MOL0     H19722   0.291   2.966   6.050  0.5523  0.1032 -1.7123
  887MOL0     H19723   0.322   3.232   5.900  2.3011  0.1042 -1.9660
  887MOL0     H19724   0.449   3.114   5.933 -0.4211  1.2280 -0.3796
  887MOL0     H19725   0.451   3.315   6.089 -1.8429  1.5989 -0.5169
  887MOL0     H19726   0.418   3.169   6.184 -0.3877  0.5833  0.3442
  887MOL0     H19727   0.377   2.387   6.126  0.7284 -0.6402  0.2602
  887MOL0     H19728   0.423   2.143   6.211 -1.7772 -3.4991  0.7958
  887MOL0     H19729   0.327   1.694   5.992 -2.6307  0.3560  0.5203
  887MOL0     H19730   0.343   1.429   6.016  1.4767 -0.9590  0.5443
  887MOL0     H19731   1.199   0.857   7.553 -0.6865 -1.3684 -0.9191
  887MOL0     H19732   1.288   0.827   7.752  0.7082 -1.1938  3.5514
  887MOL0     H19733   1.230   0.992   8.235  1.3984 -1.3517 -3.8920
  887MOL0     H19734   1.294   0.978   8.471  2.2742 -0.0413  1.3416
  887MOL0     H19735   1.516   0.618   8.617  0.0212  1.1312 -0.9602
  887MOL0     H19736   1.636   0.743   8.584 -0.7767 -0.1622 -2.5143
  887MOL0     H19737   1.653   0.694   8.805  0.3663  0.1543  0.1566
  887MOL0     H19738   1.481   0.730   8.848  0.1116  2.9486  0.7892
  887MOL0     H19739   1.545   0.969   8.724 -1.5581  1.7653  2.6515
  887MOL0     H19740   1.702   0.922   8.768  0.5636 -0.0605  0.5080
  887MOL0     H19741   1.457   0.949   8.931 -0.2010  3.0287 -1.1537
  887MOL0     H19742   1.602   1.046   8.935 -3.0283  0.7594 -0.0559
  887MOL0     H19743   1.683   0.739   9.219  2.4667 -0.3911 -0.9196
  887MOL0     H19744   1.527   0.642   8.395  2.0622  2.2761  1.8142
  887MOL0     H19745   1.488   0.665   8.154 -0.9737 -1.9223  0.6460
  888MOL0     O19746   3.629   5.457   0.321 -0.0187  1.1488  0.8639
  888MOL0     C19747   3.576   5.480   0.212  0.0843  0.1503  0.5895
  888MOL0     O19748   3.451   5.443   0.176  0.1461  0.2006  0.1736
  888MOL0     C19749   3.362   5.388   0.265 -0.4326 -0.0784 -0.2722
  888MOL0     C19750   3.340   5.436   0.393  0.2348  1.0196 -0.5941
  888MOL0     C19751   3.234   5.381   0.466  0.9981  0.9967 -0.4428
  888MOL0     C19752   3.163   5.271   0.432 -0.7576  0.4410  0.2883
  888MOL0     O19753   3.073   5.220   0.518  0.2244 -0.2953 -0.7249
  888MOL0     C19754   3.036   5.086   0.515  0.1759  0.1157 -0.5226
  888MOL0     C19755   2.913   5.061   0.609  0.5681  0.3560 -0.7408
  888MOL0     C19756   2.957   5.017   0.754  0.3934 -0.1271  0.1831
  888MOL0     C19757   2.830   5.008   0.839 -0.1836 -0.7474 -0.0108
  888MOL0     C19758   2.873   4.973   0.979 -0.3877 -0.0656 -0.3886
  888MOL0     C19759   2.744   4.966   1.064  0.1741  0.0113  0.2534
  888MOL0     C19760   2.783   4.941   1.214  0.8857  1.0344 -0.2679
  888MOL0     C19761   2.668   4.942   1.310 -0.2815 -0.3809  0.8771
  888MOL0     N19762   2.578   4.831   1.298  0.5177  0.2038  0.9583
  888MOL0     C19763   2.440   4.838   1.291 -0.2297  0.2698 -0.3452
  888MOL0     C19764   2.392   4.720   1.255  0.0173  0.5311  0.4133
  888MOL0     C19765   2.249   4.663   1.227  0.0247 -0.7508 -0.3716
  888MOL0     C19766   2.152   4.680   1.342  0.8283 -0.2753  0.0387
  888MOL0     C19767   2.165   4.572   1.448 -0.2452 -0.3616 -1.1704
  888MOL0     C19768   2.082   4.610   1.576  0.2955  0.7474 -0.8388
  888MOL0     O19769   2.064   4.497   1.664 -0.1105 -0.3665  0.2991
  888MOL0     C19770   2.014   4.529   1.790 -0.2277  0.3099 -0.5804
  888MOL0     C19771   1.962   4.651   1.836 -0.2461  1.0111  0.0442
  888MOL0     C19772   1.920   4.672   1.967  0.0238 -0.2311 -0.6201
  888MOL0     C19773   1.868   4.812   1.995  0.2062 -0.0784  0.2350
  888MOL0     C19774   1.938   4.567   2.063 -0.8937 -1.0944 -0.2730
  888MOL0     C19775   1.910   4.570   2.215 -0.4028 -0.3493  0.0772
  888MOL0     O19776   1.949   4.462   2.281  0.2179  0.0147 -0.1129
  888MOL0     C19777   1.944   4.463   2.421 -0.9041  1.2826  0.4143
  888MOL0     C19778   2.010   4.564   2.491 -0.3338  0.1793 -0.2210
  888MOL0     C19779   2.010   4.568   2.624 -0.1585 -0.3452 -0.0671
  888MOL0     C19780   1.947   4.468   2.700  0.1089  0.0210  0.7539
  888MOL0     O19781   1.950   4.462   2.837  0.3388 -0.7742 -0.2473
  888MOL0     C19782   2.069   4.487   2.906 -0.2323  0.1284 -0.2189
  888MOL0     C19783   2.033   4.513   3.057 -0.9609  0.1940  0.2413
  888MOL0     C19784   1.977   4.387   3.126 -0.1593 -0.1242 -0.8873
  888MOL0     C19785   1.998   4.395   3.273 -0.1797 -0.5453  0.6026
  888MOL0     C19786   1.931   4.282   3.334 -0.2521  0.6813 -0.1554
  888MOL0     C19787   1.951   4.297   3.487  0.4906  0.4931 -0.2042
  888MOL0     C19788   1.855   4.206   3.565 -0.4307  1.0148 -0.6887
  888MOL0     C19789   1.906   4.167   3.704  0.1538 -0.2324 -0.1425
  888MOL0    Cl19790   1.947   4.305   3.804 -0.0836  0.3484  0.4259
  888MOL0     C19791   1.869   4.377   2.633 -0.1055  0.6516 -0.8478
  888MOL0     C19792   1.884   4.359   2.493  0.6260 -0.3608 -0.4825
  888MOL0     O19793   1.860   4.670   2.262 -0.5690 -0.0745  0.0209
  888MOL0     C19794   1.977   4.436   2.011  0.4654  0.3463  0.3619
  888MOL0     C19795   2.010   4.421   1.876  0.2909  0.2020  0.1006
  888MOL0     N19796   2.500   4.635   1.243 -0.9810 -0.5030 -0.6436
  888MOL0     N19797   2.610   4.698   1.270  0.3071 -0.7438  0.5908
  888MOL0     C19798   3.191   5.211   0.300 -1.5881  0.1897  0.0966
  888MOL0     C19799   3.297   5.275   0.221  1.0387 -0.6714 -0.0192
  888MOL0     C19800   3.650   5.550   0.108  0.0749 -0.8201 -0.7820
  888MOL0     C19801   3.587   5.588  -0.012  0.7489  0.4467  0.0057
  888MOL0     C19802   3.663   5.656  -0.111  0.1568 -0.5418 -0.4779
  888MOL0     C19803   3.799   5.678  -0.107 -0.4748  0.7324 -0.9024
  888MOL0     O19804   3.865   5.754  -0.200 -0.0873  0.1495  0.4886
  888MOL0     C19805   3.887   5.894  -0.173  0.8054  0.0275 -0.4351
  888MOL0     C19806   3.775   5.992  -0.216  0.5943 -0.3748 -0.1870
  888MOL0     C19807   3.758   6.011  -0.366 -0.7498  0.1745 -0.1094
  888MOL0     C19808   3.687   5.892  -0.436 -0.0886 -0.1418 -0.1481
  888MOL0     C19809   3.679   5.935  -0.583 -0.0448 -0.6009  0.8635
  888MOL0     C19810   3.692   5.958  -0.701  0.2680 -0.1854  0.7398
  888MOL0     C19811   3.862   5.637   0.013  0.0146 -0.5330 -0.0340
  888MOL0     C19812   3.788   5.583   0.118  0.8261 -0.4787 -0.1555
  888MOL0     H19813   3.385   5.532   0.419 -1.0033  1.1823  1.1835
  888MOL0     H19814   3.211   5.434   0.557  1.3273  1.0423 -0.3855
  888MOL0     H19815   3.010   5.062   0.412  0.3240  1.0405 -0.7754
  888MOL0     H19816   3.114   5.018   0.552  0.3147 -0.1549 -1.3063
  888MOL0     H19817   2.850   5.150   0.620 -1.0275 -0.8983  0.8616
  888MOL0     H19818   2.846   4.979   0.582  0.2499 -0.0834  1.2727
  888MOL0     H19819   2.993   4.914   0.752  2.4696  0.5500  0.1592
  888MOL0     H19820   3.035   5.075   0.804  1.5507 -0.5142 -1.1396
  888MOL0     H19821   2.773   5.101   0.847  0.9258 -0.2155  2.7794
  888MOL0     H19822   2.757   4.931   0.810  0.8142 -2.3121  1.4055
  888MOL0     H19823   2.936   4.883   0.977 -2.4638 -1.5674 -1.0309
  888MOL0     H19824   2.928   5.061   1.014 -2.7874  0.7981  1.4998
  888MOL0     H19825   2.703   5.067   1.061  0.1699  0.0113  0.3188
  888MOL0     H19826   2.679   4.886   1.026  2.6658 -1.7615 -0.5843
  888MOL0     H19827   2.817   4.838   1.222  0.7233  1.1002  1.7058
  888MOL0     H19828   2.847   5.025   1.240 -2.4826  3.1841  1.9372
  888MOL0     H19829   2.605   5.031   1.301  0.1214 -0.3038 -2.2464
  888MOL0     H19830   2.709   4.955   1.410 -0.8803  0.8341  0.9803
  888MOL0     H19831   2.380   4.926   1.311 -1.5945 -0.6167 -0.4110
  888MOL0     H19832   2.192   4.723   1.156 -2.3247 -0.6922  1.4532
  888MOL0     H19833   2.242   4.562   1.186  0.0828 -0.3651 -1.3550
  888MOL0     H19834   2.048   4.666   1.311 -0.6619  2.4909  3.1470
  888MOL0     H19835   2.165   4.784   1.375  1.9683 -1.1370  2.5081
  888MOL0     H19836   2.270   4.562   1.477  0.0535  0.4606 -1.9091
  888MOL0     H19837   2.120   4.482   1.405 -1.2111 -1.6453  2.2570
  888MOL0     H19838   1.986   4.647   1.538  0.2275 -0.3138 -1.7808
  888MOL0     H19839   2.141   4.682   1.632  0.1475 -0.2783  0.7000
  888MOL0     H19840   1.954   4.728   1.759  2.7756  0.3203 -1.1112
  888MOL0     H19841   1.847   4.863   1.900  3.6464 -0.0595 -0.6534
  888MOL0     H19842   1.781   4.809   2.061 -0.7506  1.8142 -0.8538
  888MOL0     H19843   1.933   4.883   2.048 -1.7369  1.0703  1.2128
  888MOL0     H19844   2.050   4.652   2.441  0.4358  0.6672  1.2142
  888MOL0     H19845   2.065   4.646   2.676  0.6965 -2.9183  3.2467
  888MOL0     H19846   2.122   4.392   2.893 -1.2364 -0.4725  0.0017
  888MOL0     H19847   2.117   4.580   2.873 -1.4046  1.3415  1.3247
  888MOL0     H19848   2.125   4.550   3.103 -1.0825 -0.2104  0.8167
  888MOL0     H19849   1.962   4.595   3.051 -0.0513  0.9725 -0.1492
  888MOL0     H19850   2.037   4.303   3.089  1.9548  1.0313 -0.2615
  888MOL0     H19851   1.872   4.367   3.102 -0.8552  0.4379  1.4495
  888MOL0     H19852   2.103   4.381   3.298 -0.1905  0.2643  1.1375
  888MOL0     H19853   1.960   4.493   3.303 -0.8195 -0.5090 -0.2885
  888MOL0     H19854   1.976   4.188   3.299  0.6852  0.7714  0.7740
  888MOL0     H19855   1.825   4.277   3.306 -0.7483  1.3337  1.5248
  888MOL0     H19856   2.053   4.259   3.503  0.6175  0.0778 -1.8379
  888MOL0     H19857   1.933   4.397   3.527 -1.2663 -0.4078  1.4083
  888MOL0     H19858   1.852   4.116   3.502 -0.5912  2.1218 -2.3257
  888MOL0     H19859   1.751   4.239   3.568 -0.3164  1.4594 -1.2457
  888MOL0     H19860   1.996   4.105   3.696  0.6873  0.6239 -1.0283
  888MOL0     H19861   1.838   4.089   3.740 -0.3043 -0.4970 -1.5209
  888MOL0     H19862   1.818   4.310   2.702  1.5824 -0.1302 -0.2925
  888MOL0     H19863   1.823   4.283   2.446 -0.7591  1.0810 -1.1082
  888MOL0     H19864   1.978   4.347   2.074  1.9531 -0.5200 -0.8097
  888MOL0     H19865   2.020   4.320   1.838  0.3142  0.1879  0.1438
  888MOL0     H19866   3.144   5.120   0.264 -0.1480 -0.2950 -0.6362
  888MOL0     H19867   3.339   5.230   0.132  0.8085  0.1857 -0.5817
  888MOL0     H19868   3.482   5.564  -0.027  1.0758 -1.5114  0.5031
  888MOL0     H19869   3.601   5.677  -0.198 -2.7962 -0.3906  1.4906
  888MOL0     H19870   3.894   5.893  -0.064  0.1440 -0.5012 -0.3894
  888MOL0     H19871   3.980   5.923  -0.222  0.5196 -1.4825 -1.9918
  888MOL0     H19872   3.813   6.085  -0.172  4.3822 -1.7360 -0.2421
  888MOL0     H19873   3.678   5.964  -0.175  0.7595 -0.0149  0.4683
  888MOL0     H19874   3.856   6.022  -0.415 -1.0542 -1.8661 -1.2673
  888MOL0     H19875   3.704   6.107  -0.368 -1.2721 -0.0575  1.6632
  888MOL0     H19876   3.588   5.857  -0.404 -1.1482  0.5820 -2.4132
  888MOL0     H19877   3.755   5.807  -0.434 -1.3921 -1.2356  2.4695
  888MOL0     H19878   3.706   5.971  -0.806 -3.4895  0.2623  0.1412
  888MOL0     H19879   3.968   5.642   0.034  0.1202 -1.8451 -0.1753
  888MOL0     H19880   3.835   5.578   0.216  0.5331  0.4822  0.0444
  889MOL0     O19881   3.938   0.966   5.277 -0.0600  0.3663  0.1506
  889MOL0     C19882   3.918   0.981   5.160  0.1676 -1.0716  0.7184
  889MOL0     O19883   3.809   1.047   5.102 -0.0056 -1.0550  0.2280
  889MOL0     C19884   3.703   1.058   5.187  0.5072 -0.6629  1.7299
  889MOL0     C19885   3.611   0.955   5.206 -0.2425 -0.2712 -0.1542
  889MOL0     C19886   3.499   0.976   5.285 -0.4180 -0.2304 -0.5711
  889MOL0     C19887   3.479   1.093   5.357 -0.4198 -0.1384  0.7728
  889MOL0     O19888   3.362   1.115   5.412 -0.0197 -0.0704 -0.0087
  889MOL0     C19889   3.327   1.027   5.524 -1.5382  0.5196  0.3215
  889MOL0     C19890   3.385   1.071   5.661 -0.2810  0.1772  1.0040
  889MOL0     C19891   3.340   0.987   5.780  0.7538  0.3535  1.1139
  889MOL0     C19892   3.418   1.013   5.906 -0.4016 -0.1542  0.3831
  889MOL0     C19893   3.355   0.947   6.023 -0.1041  0.5642 -0.4540
  889MOL0     C19894   3.433   0.981   6.163 -0.2655  0.9000 -0.5155
  889MOL0     C19895   3.400   0.877   6.280 -0.1467 -0.4197  0.4528
  889MOL0     C19896   3.252   0.826   6.278 -0.6945  0.1150  1.2029
  889MOL0     N19897   3.190   0.788   6.400 -0.4328 -0.2584 -0.2664
  889MOL0     C19898   3.207   0.671   6.479  0.1858  0.5219  0.0587
  889MOL0     C19899   3.122   0.686   6.588 -0.2136 -1.0948 -0.2443
  889MOL0     C19900   3.087   0.586   6.691  0.9477 -0.3665 -0.6681
  889MOL0     C19901   3.061   0.654   6.833  0.3853 -1.4931  0.6484
  889MOL0     C19902   3.188   0.681   6.911  0.3011 -0.1308 -0.0930
  889MOL0     C19903   3.309   0.726   6.824  0.6517 -0.4270 -0.5976
  889MOL0     O19904   3.430   0.706   6.891  0.2926  0.2662 -0.1305
  889MOL0     C19905   3.462   0.783   6.996 -0.9553 -0.0441 -0.1208
  889MOL0     C19906   3.387   0.895   7.033  0.0789  0.5111 -0.6078
  889MOL0     C19907   3.425   0.971   7.143 -0.1259 -0.1930 -0.6957
  889MOL0     C19908   3.357   1.111   7.167  0.3558 -0.2639  1.1048
  889MOL0     C19909   3.528   0.921   7.235 -0.2826  0.2696  0.2582
  889MOL0     C19910   3.561   0.979   7.374  0.3958 -0.0776 -0.0509
  889MOL0     O19911   3.621   0.892   7.456 -0.4274 -0.1290 -1.0122
  889MOL0     C19912   3.666   0.920   7.584 -0.1575  0.1675  1.0563
  889MOL0     C19913   3.629   0.830   7.689  0.7871  0.0347  0.1837
  889MOL0     C19914   3.692   0.835   7.808 -0.3648 -0.6277  0.1471
  889MOL0     C19915   3.796   0.933   7.826 -0.6134 -0.1461  0.9935
  889MOL0     O19916   3.873   0.944   7.934 -0.0336 -0.0471 -0.5695
  889MOL0     C19917   3.936   0.825   7.998 -0.1111  0.1749  0.2701
  889MOL0     C19918   4.073   0.800   7.925 -0.4852 -0.4131  0.2801
  889MOL0     C19919   4.100   0.647   7.910 -0.3155 -0.3970  0.3420
  889MOL0     C19920   4.228   0.638   7.825  0.9193  0.0448  0.4171
  889MOL0     C19921   4.289   0.497   7.827  0.4884 -0.6034  0.6382
  889MOL0     C19922   4.228   0.399   7.722 -0.8619 -0.6145 -0.0602
  889MOL0     C19923   4.312   0.261   7.721 -0.1931 -0.5644 -0.2495
  889MOL0     C19924   4.274   0.171   7.845 -0.0364 -0.2543 -0.0413
  889MOL0    Cl19925   4.393   0.033   7.869 -0.1649  0.0662 -0.5062
  889MOL0     C19926   3.827   1.028   7.730 -0.1680 -0.3864  0.3057
  889MOL0     C19927   3.759   1.022   7.609 -0.8139 -0.0377  0.4340
  889MOL0     O19928   3.557   1.100   7.391  0.4590 -0.6368  0.2443
  889MOL0     C19929   3.591   0.796   7.202 -0.3146  0.3714  0.5209
  889MOL0     C19930   3.556   0.736   7.079 -1.0487 -0.1651  0.6100
  889MOL0     N19931   3.066   0.808   6.587  0.3956 -0.1181  1.1701
  889MOL0     N19932   3.114   0.868   6.481 -0.2001 -0.0024  0.4071
  889MOL0     C19933   3.580   1.191   5.348 -0.3702 -0.5329 -0.0557
  889MOL0     C19934   3.682   1.170   5.269 -0.3675  0.0293  0.7243
  889MOL0     C19935   4.025   0.937   5.059 -0.1074  0.2054 -0.3008
  889MOL0     C19936   3.989   0.912   4.927  1.1936  0.3247  0.7676
  889MOL0     C19937   4.076   0.853   4.836 -0.1090 -0.7357 -0.0244
  889MOL0     C19938   4.202   0.826   4.868 -0.6558  0.2915 -0.7376
  889MOL0     O19939   4.290   0.780   4.770  0.0137 -0.3716 -0.0988
  889MOL0     C19940   4.426   0.759   4.790 -0.2782 -0.4895  0.2878
  889MOL0     C19941   4.476   0.683   4.668 -0.5712 -0.5188  1.1769
  889MOL0     C19942   4.509   0.779   4.555  0.2713 -0.2291 -0.6046
  889MOL0     C19943   4.545   0.701   4.428 -0.9716 -0.0703 -0.5306
  889MOL0     C19944   4.675   0.641   4.455  0.0829 -0.4409  0.0916
  889MOL0     C19945   4.775   0.580   4.482 -0.4955 -0.0896 -0.2322
  889MOL0     C19946   4.244   0.851   5.002 -0.0662 -0.5791 -0.6171
  889MOL0     C19947   4.150   0.900   5.097 -0.5472 -0.3519 -0.0016
  889MOL0     H19948   3.628   0.860   5.156  0.2311  0.9850 -2.5088
  889MOL0     H19949   3.424   0.898   5.280  1.4803 -2.1437 -4.6348
  889MOL0     H19950   3.219   1.033   5.539 -2.3124 -3.1461 -2.2627
  889MOL0     H19951   3.357   0.923   5.503  0.8361  0.7699  2.0344
  889MOL0     H19952   3.494   1.059   5.660 -0.3159 -0.2019 -0.5754
  889MOL0     H19953   3.362   1.177   5.679 -1.6207  0.4317 -1.7923
  889MOL0     H19954   3.236   0.998   5.811  0.3554 -3.0518  1.3567
  889MOL0     H19955   3.357   0.884   5.747 -0.2090  0.0031  1.6645
  889MOL0     H19956   3.519   0.971   5.910  0.5412  1.9293  4.9612
  889MOL0     H19957   3.423   1.121   5.923  0.4723 -0.3700  1.6622
  889MOL0     H19958   3.247   0.963   6.029 -0.1458 -0.1187  1.3463
  889MOL0     H19959   3.380   0.846   5.989  0.1002  0.6443 -0.5423
  889MOL0     H19960   3.541   0.989   6.150 -0.5000  1.6134 -2.2699
  889MOL0     H19961   3.402   1.080   6.197 -1.6666  0.8074 -1.4308
  889MOL0     H19962   3.473   0.796   6.269  0.8871  0.6696 -1.1419
  889MOL0     H19963   3.415   0.930   6.374 -0.0216  1.5823 -0.6258
  889MOL0     H19964   3.257   0.745   6.205  2.5868  1.2616 -0.0108
  889MOL0     H19965   3.190   0.902   6.229  0.6222  0.3515 -0.1651
  889MOL0     H19966   3.273   0.591   6.446  1.5034  2.1573 -1.4671
  889MOL0     H19967   2.989   0.548   6.661  0.9369 -0.7647 -0.1475
  889MOL0     H19968   3.166   0.510   6.688 -0.3718 -1.8362 -4.5577
  889MOL0     H19969   2.989   0.598   6.891 -1.1864 -0.5713 -0.3330
  889MOL0     H19970   3.007   0.747   6.815 -1.8610 -3.0354 -1.1109
  889MOL0     H19971   3.214   0.586   6.958 -2.0287 -1.3984 -1.1888
  889MOL0     H19972   3.176   0.747   6.997 -0.0619  2.3987 -1.9355
  889MOL0     H19973   3.303   0.830   6.791 -0.3847  1.6823  5.2085
  889MOL0     H19974   3.323   0.653   6.743 -1.4234 -2.7152  0.9709
  889MOL0     H19975   3.310   0.933   6.967  0.3770 -0.6560 -1.6808
  889MOL0     H19976   3.329   1.135   7.270  0.9754  0.9045  1.0117
  889MOL0     H19977   3.427   1.184   7.125 -2.2781  0.8485 -1.7436
  889MOL0     H19978   3.266   1.121   7.107  1.0256 -2.4236 -0.4122
  889MOL0     H19979   3.562   0.748   7.666  1.7916 -1.3728  2.0735
  889MOL0     H19980   3.682   0.757   7.883  1.3745  0.1854  1.3076
  889MOL0     H19981   3.943   0.847   8.105 -1.9848 -0.0310  0.4741
  889MOL0     H19982   3.871   0.737   7.992  1.1605 -0.8067  0.6525
  889MOL0     H19983   4.066   0.845   7.825  0.4541  0.8820  0.7607
  889MOL0     H19984   4.162   0.843   7.971  0.2071 -0.2789 -1.1237
  889MOL0     H19985   4.020   0.607   7.847  0.2120  0.2776 -0.7938
  889MOL0     H19986   4.095   0.604   8.010 -1.4766  0.3052  0.6133
  889MOL0     H19987   4.210   0.667   7.721  1.4190 -0.8691  0.0568
  889MOL0     H19988   4.306   0.708   7.855  0.1020  1.6459 -1.0535
  889MOL0     H19989   4.273   0.454   7.926 -0.9547 -0.5085  0.4811
  889MOL0     H19990   4.396   0.504   7.805  0.2084 -0.1035 -0.6788
  889MOL0     H19991   4.123   0.384   7.748 -0.2897 -2.2827  1.4954
  889MOL0     H19992   4.239   0.438   7.620 -0.3654 -0.6748 -0.0327
  889MOL0     H19993   4.419   0.286   7.727 -0.6091  0.9973  1.7342
  889MOL0     H19994   4.268   0.212   7.634 -2.8143  0.3063  0.5103
  889MOL0     H19995   4.173   0.127   7.844  0.1389 -1.0178 -4.2873
  889MOL0     H19996   4.292   0.233   7.932  1.1608  0.3356 -0.6922
  889MOL0     H19997   3.911   1.096   7.741  1.3614 -2.4094  2.0718
  889MOL0     H19998   3.785   1.093   7.532 -0.9879 -0.0441  0.3678
  889MOL0     H19999   3.659   0.743   7.269 -0.7029 -2.5455 -1.1964
  889MOL0     H20000   3.601   0.641   7.052 -1.6710 -1.0101  2.3857
  889MOL0     H20001   3.566   1.283   5.403  2.2340  0.7720 -1.3947
  889MOL0     H20002   3.759   1.246   5.262 -2.4940  2.1519 -3.1506
  889MOL0     H20003   3.888   0.926   4.890  1.8941  0.3843 -1.2447
  889MOL0     H20004   4.044   0.826   4.736 -0.7358  3.8564 -1.2998
  889MOL0     H20005   4.471   0.858   4.797 -0.6779 -0.1919 -1.0347
  889MOL0     H20006   4.434   0.698   4.880  0.1181 -0.1838  0.4588
  889MOL0     H20007   4.393   0.619   4.635 -0.2233 -0.4582  0.1420
  889MOL0     H20008   4.571   0.633   4.685 -0.0121 -0.1569 -0.6662
  889MOL0     H20009   4.585   0.852   4.585 -0.0234  0.7912 -2.2044
  889MOL0     H20010   4.424   0.842   4.527 -0.3580 -1.0537 -0.5790
  889MOL0     H20011   4.557   0.762   4.338  0.6716 -0.5095 -0.6296
  889MOL0     H20012   4.469   0.625   4.407  0.4709 -1.9747  0.8763
  889MOL0     H20013   4.872   0.540   4.504  0.3355  1.5055 -0.7639
  889MOL0     H20014   4.336   0.808   5.041 -0.5200  0.0560  1.2456
  889MOL0     H20015   4.186   0.892   5.199 -0.5594  0.3060  0.0589
  890MOL0     O20016   2.158   2.729   9.124  0.6725  0.7455  1.4856
  890MOL0     C20017   2.212   2.843   9.143  0.9725  1.2766 -0.2725
  890MOL0     O20018   2.330   2.874   9.094 -0.1785  0.0085 -0.1548
  890MOL0     C20019   2.410   2.784   9.037 -0.0421  0.1741  0.8784
  890MOL0     C20020   2.429   2.764   8.901 -0.2793  0.3197  0.1545
  890MOL0     C20021   2.518   2.661   8.865 -0.7040  0.4881 -0.2069
  890MOL0     C20022   2.592   2.583   8.961 -0.3903 -0.9307  0.4390
  890MOL0     O20023   2.686   2.493   8.931  0.0635 -0.0005  0.5373
  890MOL0     C20024   2.769   2.519   8.818 -0.5880 -0.2777 -1.2367
  890MOL0     C20025   2.899   2.428   8.819 -0.6160  0.0623 -0.4667
  890MOL0     C20026   2.963   2.413   8.956  0.8304  0.0479  0.8015
  890MOL0     C20027   2.991   2.273   8.996  0.4065  0.4846 -0.2052
  890MOL0     C20028   3.034   2.250   9.146  0.9924  0.2148  0.2687
  890MOL0     C20029   3.179   2.289   9.154 -0.5507  0.0635  0.8681
  890MOL0     C20030   3.215   2.295   9.301  0.5348 -0.5695 -0.6632
  890MOL0     C20031   3.206   2.159   9.372 -0.6275  0.0475  0.0196
  890MOL0     N20032   3.277   2.180   9.499 -0.4114  0.0415 -0.1792
  890MOL0     C20033   3.415   2.200   9.516  0.5618 -0.1267 -0.2616
  890MOL0     C20034   3.424   2.224   9.651  0.7031  0.1551  0.3836
  890MOL0     C20035   3.544   2.267   9.726  0.1860  0.8124 -0.7899
  890MOL0     C20036   3.627   2.150   9.780 -0.0469 -0.5274  1.0887
  890MOL0     C20037   3.740   2.192   9.880 -0.6610 -0.3558  0.8008
  890MOL0     C20038   3.822   2.087   9.954  0.9480 -0.1031 -0.7346
  890MOL0     O20039   3.915   2.016   9.865 -0.4036  0.0057  0.7544
  890MOL0     C20040   3.871   1.907   9.792  0.1970  0.4001 -0.2507
  890MOL0     C20041   3.956   1.881   9.680  0.6747 -0.2946 -0.2175
  890MOL0     C20042   3.940   1.768   9.597 -0.5330  0.9823 -0.1323
  890MOL0     C20043   4.038   1.762   9.478 -0.1563 -0.5904 -0.7678
  890MOL0     C20044   3.849   1.669   9.632  0.2337 -0.0577  0.4548
  890MOL0     C20045   3.832   1.543   9.562 -0.6740  0.3211 -0.3658
  890MOL0     O20046   3.728   1.455   9.600  0.2704 -0.5053 -0.0580
  890MOL0     C20047   3.716   1.337   9.534 -0.0598  0.1449 -0.0767
  890MOL0     C20048   3.637   1.333   9.424 -0.6945 -0.9510  0.1116
  890MOL0     C20049   3.613   1.226   9.340  0.6369  0.1874 -0.2646
  890MOL0     C20050   3.670   1.105   9.370 -0.2435  0.0438 -0.8567
  890MOL0     O20051   3.668   0.989   9.289  0.1908 -0.9063 -0.7720
  890MOL0     C20052   3.643   0.994   9.154 -1.1504  0.4106 -0.2384
  890MOL0     C20053   3.623   0.853   9.090 -0.5825  0.4084 -0.1615
  890MOL0     C20054   3.595   0.863   8.940  0.0693  0.0826  0.2248
  890MOL0     C20055   3.599   0.734   8.870 -0.3041  0.8099  0.0635
  890MOL0     C20056   3.535   0.744   8.723  0.2291 -0.2181 -0.0033
  890MOL0     C20057   3.408   0.656   8.714 -0.1764 -0.1396  0.3415
  890MOL0     C20058   3.354   0.656   8.570  0.3825 -0.4424  0.2279
  890MOL0     C20059   3.270   0.527   8.543  0.3532 -0.2850 -0.0372
  890MOL0    Cl20060   3.386   0.407   8.484 -0.3479  0.1467  0.2441
  890MOL0     C20061   3.746   1.103   9.492  0.1754 -0.5631 -0.0684
  890MOL0     C20062   3.780   1.221   9.563 -0.2389 -0.1290 -0.7609
  890MOL0     O20063   3.906   1.523   9.464  0.0721 -0.1981 -0.0900
  890MOL0     C20064   3.760   1.698   9.737  0.5054 -0.0230 -0.7347
  890MOL0     C20065   3.767   1.821   9.814  0.7688  0.5659  0.1037
  890MOL0     N20066   3.296   2.212   9.711 -0.3041 -0.2600  0.8286
  890MOL0     N20067   3.215   2.188   9.615 -0.4983  0.1788  0.0412
  890MOL0     C20068   2.570   2.612   9.094  0.1951 -0.2823 -0.0461
  890MOL0     C20069   2.484   2.711   9.131  0.6194 -0.0013  0.6798
  890MOL0     C20070   2.122   2.953   9.198  0.1284 -0.2918  1.0771
  890MOL0     C20071   2.169   3.090   9.191 -0.2764  0.6289 -0.5170
  890MOL0     C20072   2.095   3.196   9.240 -0.0226 -1.0015  0.5729
  890MOL0     C20073   1.967   3.172   9.293 -0.7231  0.2791 -0.2782
  890MOL0     O20074   1.896   3.287   9.342 -1.4987 -0.2122  1.3498
  890MOL0     C20075   1.748   3.278   9.323  0.3290 -0.5373 -0.6306
  890MOL0     C20076   1.706   3.413   9.268  0.9195 -0.6674 -0.4331
  890MOL0     C20077   1.784   3.471   9.143  0.8503 -0.3937 -0.4619
  890MOL0     C20078   1.747   3.399   9.009  0.2866 -0.6381  0.1278
  890MOL0     C20079   1.820   3.274   8.995  0.3246  0.3439 -0.2849
  890MOL0     C20080   1.855   3.173   8.945  0.3512  0.0678 -1.3337
  890MOL0     C20081   1.917   3.044   9.288 -0.5779 -0.0762  0.4985
  890MOL0     C20082   1.998   2.930   9.247  0.4728  0.4104 -0.2329
  890MOL0     H20083   2.370   2.825   8.833 -2.0341  2.1822  3.1374
  890MOL0     H20084   2.527   2.633   8.760 -3.2831 -1.3388 -0.0295
  890MOL0     H20085   2.704   2.493   8.734 -4.1412  0.4474  1.0613
  890MOL0     H20086   2.803   2.623   8.826 -0.7672 -0.3569  1.7703
  890MOL0     H20087   2.868   2.330   8.783 -1.8933 -0.4524  1.8433
  890MOL0     H20088   2.977   2.456   8.747  1.0741 -2.5019  0.2010
  890MOL0     H20089   3.056   2.469   8.970  1.1154  0.0172 -0.7723
  890MOL0     H20090   2.900   2.456   9.035  1.8656  2.5516  0.3624
  890MOL0     H20091   2.907   2.207   8.977  1.1290 -1.4719  2.6466
  890MOL0     H20092   3.075   2.244   8.932 -0.5164  3.2289 -2.9223
  890MOL0     H20093   2.964   2.308   9.206  1.7279  0.7991  0.5672
  890MOL0     H20094   3.027   2.144   9.175  2.8448  0.1569  0.6521
  890MOL0     H20095   3.243   2.216   9.104 -2.7638  0.2840 -2.6655
  890MOL0     H20096   3.200   2.385   9.105  1.8164 -1.7299 -1.9428
  890MOL0     H20097   3.321   2.322   9.305 -0.1994  2.6149  0.3023
  890MOL0     H20098   3.155   2.372   9.350 -0.8658 -1.4518 -0.9355
  890MOL0     H20099   3.252   2.085   9.305 -1.6402  1.2339 -2.0652
  890MOL0     H20100   3.107   2.122   9.401  0.3600 -1.3344  1.8302
  890MOL0     H20101   3.505   2.195   9.456  1.7042 -1.5458  1.4789
  890MOL0     H20102   3.604   2.334   9.664  3.8419 -0.2244  1.3183
  890MOL0     H20103   3.510   2.322   9.815 -0.1890  0.4541 -0.7099
  890MOL0     H20104   3.667   2.086   9.701 -0.4271 -0.8643  1.1663
  890MOL0     H20105   3.548   2.096   9.833 -4.6119  0.9669 -3.3444
  890MOL0     H20106   3.695   2.264   9.950 -1.4407 -0.1724  0.1286
  890MOL0     H20107   3.815   2.244   9.821  0.6212 -2.1502  0.7833
  890MOL0     H20108   3.754   2.014   9.998 -0.8902  2.3867  0.8419
  890MOL0     H20109   3.871   2.142  10.035 -0.8292  0.2742  0.1368
  890MOL0     H20110   4.029   1.961   9.669 -1.5394  1.8575 -0.1901
  890MOL0     H20111   4.102   1.851   9.475  3.0552 -2.7470 -1.0295
  890MOL0     H20112   4.110   1.681   9.486 -0.1573 -0.5257 -0.0053
  890MOL0     H20113   3.982   1.754   9.385  0.5279  1.3370 -1.3960
  890MOL0     H20114   3.589   1.429   9.403 -0.3154 -0.7782  0.0236
  890MOL0     H20115   3.565   1.249   9.245 -0.5254  2.4764  0.8050
  890MOL0     H20116   3.555   1.055   9.128 -1.8532 -1.1094 -1.5642
  890MOL0     H20117   3.726   1.046   9.106 -0.7687 -0.8582 -0.9678
  890MOL0     H20118   3.721   0.809   9.110 -0.0085  1.6758 -0.1385
  890MOL0     H20119   3.550   0.785   9.134  1.0612 -0.6582  1.0425
  890MOL0     H20120   3.656   0.935   8.886 -0.6921  0.4657 -0.1485
  890MOL0     H20121   3.493   0.894   8.917 -0.1386 -2.4699 -3.1468
  890MOL0     H20122   3.706   0.713   8.855  0.0012  1.4901  1.1523
  890MOL0     H20123   3.548   0.660   8.933  0.5271 -0.9833 -1.2895
  890MOL0     H20124   3.613   0.701   8.659  0.8619  0.4990  0.2800
  890MOL0     H20125   3.512   0.848   8.701  1.5912  0.2667  0.7492
  890MOL0     H20126   3.439   0.556   8.747 -0.4450 -0.0998  0.7109
  890MOL0     H20127   3.324   0.681   8.778  1.2568 -0.4175  2.4417
  890MOL0     H20128   3.428   0.667   8.491 -0.0378  1.5383  0.0566
  890MOL0     H20129   3.273   0.729   8.561 -1.6005 -2.7932 -3.1635
  890MOL0     H20130   3.191   0.538   8.468 -1.6775 -4.0219  1.3388
  890MOL0     H20131   3.212   0.498   8.631  2.0901 -0.8449  0.9701
  890MOL0     H20132   3.790   1.013   9.534  0.5112  0.8976  2.9574
  890MOL0     H20133   3.854   1.233   9.641 -2.3000  2.0868  1.0187
  890MOL0     H20134   3.679   1.633   9.767 -0.5031  1.7655  0.6468
  890MOL0     H20135   3.700   1.850   9.895  0.4963 -0.8173  0.3923
  890MOL0     H20136   2.609   2.550   9.174  1.8388  0.2418 -0.3940
  890MOL0     H20137   2.471   2.732   9.237  3.0450  0.7327  0.8982
  890MOL0     H20138   2.269   3.115   9.157  0.1571 -1.7357 -1.1583
  890MOL0     H20139   2.116   3.303   9.239  1.4950 -1.2793  0.3074
  890MOL0     H20140   1.712   3.200   9.256 -1.8062 -0.9775  0.8932
  890MOL0     H20141   1.711   3.253   9.423  0.0094 -0.9391 -0.8460
  890MOL0     H20142   1.729   3.479   9.353 -1.6814  1.6653 -1.3737
  890MOL0     H20143   1.599   3.414   9.246  1.4520 -2.3104 -3.5210
  890MOL0     H20144   1.892   3.482   9.157  0.5845  0.3548  1.1907
  890MOL0     H20145   1.761   3.576   9.122  2.0614 -0.3922 -1.9914
  890MOL0     H20146   1.772   3.478   8.937 -0.0263 -0.4230  0.2549
  890MOL0     H20147   1.641   3.376   9.005  0.2019 -0.1097 -1.7313
  890MOL0     H20148   1.897   3.082   8.905 -0.2264  0.2115 -2.2890
  890MOL0     H20149   1.817   3.017   9.319 -1.2012 -1.8557 -2.6373
  890MOL0     H20150   1.952   2.832   9.240 -1.8634  1.3259  0.9979
  891MOL0     O20151   4.182   5.857   5.693  0.2753  0.3633 -0.1261
  891MOL0     C20152   4.184   5.762   5.767  0.0398 -0.1429  1.1391
  891MOL0     O20153   4.277   5.658   5.760  0.6330  0.2336  0.4759
  891MOL0     C20154   4.359   5.648   5.650  0.1298  0.0474  0.8993
  891MOL0     C20155   4.329   5.683   5.512 -0.1013 -0.3756  0.2206
  891MOL0     C20156   4.415   5.649   5.405  0.2266 -1.1374 -0.3875
  891MOL0     C20157   4.547   5.607   5.426 -0.2979  0.5038 -0.4874
  891MOL0     O20158   4.632   5.593   5.318  0.1961 -0.2953 -0.0724
  891MOL0     C20159   4.731   5.489   5.338  0.0428 -0.5223  0.5677
  891MOL0     C20160   4.802   5.449   5.211 -1.1652  0.4862 -0.7995
  891MOL0     C20161   4.854   5.567   5.135  0.5547 -0.5859  0.5597
  891MOL0     C20162   4.897   5.529   5.001 -0.2501  0.1860  0.1381
  891MOL0     C20163   5.020   5.625   4.966  0.3641  0.0465 -0.0274
  891MOL0     C20164   5.065   5.587   4.833 -0.5357 -0.0489  0.2990
  891MOL0     C20165   5.189   5.654   4.768  0.2342  0.1274  0.7586
  891MOL0     C20166   5.333   5.597   4.814 -0.5044  0.5761 -0.6465
  891MOL0     N20167   5.391   5.686   4.915  0.1690  0.4311  0.3270
  891MOL0     C20168   5.454   5.802   4.890  1.0867  0.1982 -0.2761
  891MOL0     C20169   5.496   5.840   5.013  0.4887  0.4863  0.2854
  891MOL0     C20170   5.583   5.952   5.037  0.8816  0.4553  0.1129
  891MOL0     C20171   5.560   6.035   5.163  0.2049  0.8439 -0.5043
  891MOL0     C20172   5.648   6.164   5.190  0.3209  0.3300  0.8604
  891MOL0     C20173   5.647   6.209   5.333  0.0436  0.8035  1.3746
  891MOL0     O20174   5.513   6.261   5.362 -0.6197 -1.1569  0.2413
  891MOL0     C20175   5.494   6.389   5.344 -0.1518  0.3868 -0.4091
  891MOL0     C20176   5.410   6.428   5.250  0.4969 -1.0918  0.3926
  891MOL0     C20177   5.378   6.567   5.237 -0.4961  0.3854  0.0645
  891MOL0     C20178   5.301   6.599   5.112 -0.0081 -0.2108 -0.2878
  891MOL0     C20179   5.449   6.656   5.319  0.8985  0.5608  0.9971
  891MOL0     C20180   5.426   6.803   5.298 -0.2470  0.0640  0.4931
  891MOL0     O20181   5.362   6.867   5.403 -0.0824 -0.3310 -0.8108
  891MOL0     C20182   5.354   7.001   5.390 -0.6482  0.2646 -0.3141
  891MOL0     C20183   5.271   7.060   5.297 -0.5482  0.7585  0.2016
  891MOL0     C20184   5.273   7.206   5.272  0.4141 -0.3200  0.1050
  891MOL0     C20185   5.332   7.295   5.369 -0.3261 -0.1523  0.0540
  891MOL0     O20186   5.333   7.430   5.362  0.1748  0.5774 -0.5657
  891MOL0     C20187   5.243   7.484   5.265 -0.3119  0.7043 -0.4523
  891MOL0     C20188   5.262   7.639   5.283  0.1708  0.1687  0.0793
  891MOL0     C20189   5.232   7.681   5.429  0.4879 -1.0469  1.2045
  891MOL0     C20190   5.214   7.842   5.420 -0.0401  0.2655  0.2568
  891MOL0     C20191   5.152   7.894   5.554 -0.9233  0.3249  0.0172
  891MOL0     C20192   5.009   7.886   5.547  0.1726 -0.2324  0.0433
  891MOL0     C20193   4.931   7.907   5.681  1.0581  0.2226 -0.1989
  891MOL0     C20194   4.791   7.966   5.649  0.6170 -0.0909 -0.0828
  891MOL0    Cl20195   4.814   8.137   5.577  0.1293 -0.4064  0.4766
  891MOL0     C20196   5.403   7.227   5.472  0.0539 -0.7008  0.1384
  891MOL0     C20197   5.419   7.084   5.476 -0.1638 -0.3848 -0.0128
  891MOL0     O20198   5.463   6.856   5.193 -1.0356  0.0707 -0.4462
  891MOL0     C20199   5.537   6.618   5.412 -0.6799 -0.1331 -0.0229
  891MOL0     C20200   5.565   6.483   5.420 -0.0950 -0.6923 -1.2097
  891MOL0     N20201   5.438   5.760   5.105  0.3335 -0.8118  0.6980
  891MOL0     N20202   5.381   5.664   5.046 -0.1645  0.3725 -1.2040
  891MOL0     C20203   4.587   5.586   5.565  1.6199  0.1119  0.0423
  891MOL0     C20204   4.487   5.605   5.671 -0.5898  0.6646 -0.2771
  891MOL0     C20205   4.085   5.744   5.872 -0.2702 -0.5234 -0.4014
  891MOL0     C20206   3.997   5.851   5.925 -0.3014  0.1785  0.5048
  891MOL0     C20207   3.904   5.826   6.028 -0.5796  0.6571 -0.2876
  891MOL0     C20208   3.895   5.696   6.081  0.5935 -0.3574 -0.2874
  891MOL0     O20209   3.798   5.658   6.179 -0.0794 -0.2350 -0.1664
  891MOL0     C20210   3.666   5.699   6.160 -0.9096 -0.1534 -0.4524
  891MOL0     C20211   3.624   5.799   6.277 -0.7284  0.2710 -0.2708
  891MOL0     C20212   3.646   5.756   6.426 -0.4854 -0.0378  0.6797
  891MOL0     C20213   3.661   5.884   6.517  0.0387  0.2262  0.6403
  891MOL0     C20214   3.577   5.999   6.500 -0.0092 -0.2861  0.1956
  891MOL0     C20215   3.498   6.097   6.499 -0.6761  0.5762 -0.6116
  891MOL0     C20216   3.990   5.602   6.047 -0.6257 -0.1877 -0.7645
  891MOL0     C20217   4.093   5.625   5.956  0.5964 -0.2779  0.6952
  891MOL0     H20218   4.234   5.734   5.500  0.9563  1.9275  1.0924
  891MOL0     H20219   4.364   5.669   5.311 -2.0919 -2.8811  0.4051
  891MOL0     H20220   4.797   5.532   5.414 -0.2424 -1.6979  1.5092
  891MOL0     H20221   4.678   5.401   5.376 -0.0625  0.3176  2.5147
  891MOL0     H20222   4.882   5.376   5.230 -2.6067 -0.9395  0.0639
  891MOL0     H20223   4.726   5.398   5.150  0.1028 -1.2168 -1.0552
  891MOL0     H20224   4.777   5.642   5.115  1.7309  1.3727  2.8101
  891MOL0     H20225   4.936   5.605   5.198  0.4989 -3.1540  2.3440
  891MOL0     H20226   4.926   5.423   4.999  3.5246  1.0651  0.3605
  891MOL0     H20227   4.820   5.555   4.928  0.9808 -0.3470 -1.4105
  891MOL0     H20228   5.002   5.733   4.968  0.6421  0.1422 -1.3486
  891MOL0     H20229   5.091   5.602   5.046 -2.4463 -1.9903  2.1159
  891MOL0     H20230   5.076   5.478   4.836 -1.5273 -0.1669  0.1216
  891MOL0     H20231   4.985   5.583   4.758  1.8891 -4.9835 -2.5820
  891MOL0     H20232   5.181   5.628   4.662 -1.1510 -0.4045  0.9655
  891MOL0     H20233   5.180   5.763   4.774 -1.8044  0.4474 -3.7242
  891MOL0     H20234   5.390   5.607   4.721 -0.0989  1.3112 -0.3237
  891MOL0     H20235   5.327   5.493   4.848  0.4101 -0.6065 -3.7597
  891MOL0     H20236   5.473   5.848   4.795  1.3747  1.5516  0.4185
  891MOL0     H20237   5.684   5.913   5.026  0.6331  0.0119 -0.6995
  891MOL0     H20238   5.571   6.024   4.954 -1.3002 -0.1241 -0.1427
  891MOL0     H20239   5.584   5.961   5.239  1.3104  2.3622  0.6924
  891MOL0     H20240   5.459   6.077   5.168  0.0030  0.3188 -0.1668
  891MOL0     H20241   5.601   6.240   5.126 -0.0105  1.3771  2.3067
  891MOL0     H20242   5.746   6.137   5.148 -0.9584 -0.6558 -1.7190
  891MOL0     H20243   5.719   6.290   5.347 -0.0693  0.7916  2.0665
  891MOL0     H20244   5.676   6.124   5.395  0.8188 -1.4034 -1.8024
  891MOL0     H20245   5.361   6.348   5.195  1.3453 -0.1833 -1.7867
  891MOL0     H20246   5.243   6.690   5.130 -0.9940 -0.9388  0.3668
  891MOL0     H20247   5.366   6.622   5.028  0.2207  1.6235  0.3406
  891MOL0     H20248   5.226   6.521   5.095 -1.5036  0.6669  1.8428
  891MOL0     H20249   5.218   7.001   5.223  0.4889  2.5513 -2.0843
  891MOL0     H20250   5.229   7.237   5.178 -2.8599  1.9185  2.1430
  891MOL0     H20251   5.262   7.448   5.164  3.1337 -1.0631  0.6601
  891MOL0     H20252   5.139   7.457   5.287 -0.0142 -0.7081 -0.6543
  891MOL0     H20253   5.364   7.672   5.261 -0.1841  1.0138 -0.3196
  891MOL0     H20254   5.193   7.684   5.212  2.1706  2.1837 -0.6727
  891MOL0     H20255   5.316   7.655   5.494  0.4889 -2.8126  0.5489
  891MOL0     H20256   5.137   7.631   5.452 -1.1420 -0.5136 -3.3747
  891MOL0     H20257   5.320   7.867   5.409  0.0872 -0.7987 -1.1772
  891MOL0     H20258   5.147   7.866   5.337 -3.2369  0.8486  2.8209
  891MOL0     H20259   5.185   7.997   5.567  0.0896  0.4466 -2.8135
  891MOL0     H20260   5.197   7.833   5.634 -0.0801  0.4243 -0.3658
  891MOL0     H20261   4.980   7.955   5.467  1.7373 -1.3158 -1.5278
  891MOL0     H20262   4.979   7.787   5.513 -0.7781 -1.8720  4.8506
  891MOL0     H20263   4.982   7.970   5.755  0.9159 -2.1622  2.0524
  891MOL0     H20264   4.910   7.813   5.732 -0.2975  2.2400  3.4001
  891MOL0     H20265   4.721   7.959   5.733 -1.7593 -2.6071 -2.1049
  891MOL0     H20266   4.752   7.905   5.567  0.9203  0.5352 -0.7119
  891MOL0     H20267   5.463   7.294   5.532 -0.8272  0.6249 -0.4019
  891MOL0     H20268   5.502   7.059   5.541  1.7850 -2.3258 -3.0067
  891MOL0     H20269   5.582   6.699   5.469  0.4571 -0.0364 -1.0147
  891MOL0     H20270   5.622   6.434   5.499  0.3055 -2.3624 -2.4755
  891MOL0     H20271   4.693   5.570   5.579  1.5049 -0.8098 -0.0553
  891MOL0     H20272   4.511   5.587   5.776 -6.8446 -3.5148  0.9742
  891MOL0     H20273   4.013   5.953   5.893  0.8687 -0.6433 -1.7091
  891MOL0     H20274   3.854   5.910   6.074 -0.4570  1.0016 -0.7761
  891MOL0     H20275   3.649   5.754   6.067  1.9875  0.3667 -0.7785
  891MOL0     H20276   3.596   5.615   6.170 -1.8746  0.4743 -1.6019
  891MOL0     H20277   3.521   5.832   6.260 -0.0662  1.8393 -1.5091
  891MOL0     H20278   3.683   5.890   6.269  0.2847 -0.3950 -0.7173
  891MOL0     H20279   3.733   5.689   6.424  0.0784  0.6151 -2.6927
  891MOL0     H20280   3.562   5.701   6.471 -0.7313  1.5639  2.3295
  891MOL0     H20281   3.765   5.913   6.500  0.2642 -0.9675 -0.2156
  891MOL0     H20282   3.630   5.844   6.613 -1.4527 -0.5760 -0.1349
  891MOL0     H20283   3.431   6.180   6.496 -0.5424  0.6662 -3.5057
  891MOL0     H20284   4.005   5.509   6.100 -0.4584 -0.1854 -0.8052
  891MOL0     H20285   4.169   5.549   5.940  3.8932  3.0786 -1.0938
  892MOL0     O20286   3.640   5.250  11.296  0.1696 -0.3578 -0.6252
  892MOL0     C20287   3.742   5.182  11.278 -0.3475  0.1109  0.9124
  892MOL0     O20288   3.812   5.106  11.370 -0.1296  0.4789 -0.6054
  892MOL0     C20289   3.745   5.061  11.477  0.5394  0.4051 -0.5685
  892MOL0     C20290   3.706   4.925  11.479 -0.3587 -0.6016  0.1428
  892MOL0     C20291   3.607   4.880  11.572 -1.3021  1.1408 -0.5933
  892MOL0     C20292   3.560   4.968  11.674 -0.1228  0.2327 -0.3343
  892MOL0     O20293   3.486   4.905  11.774  0.8074 -0.9738  0.1727
  892MOL0     C20294   3.511   4.962  11.899 -0.1305 -0.5000 -0.7306
  892MOL0     C20295   3.426   4.891  12.002  0.0541 -0.1592  0.1414
  892MOL0     C20296   3.436   4.970  12.140 -0.0983 -0.0716  0.0144
  892MOL0     C20297   3.333   4.904  12.240 -0.9540 -1.6584  0.5915
  892MOL0     C20298   3.344   4.968  12.378 -0.2218  0.1288  0.2049
  892MOL0     C20299   3.270   4.894  12.487  1.1070  0.3063  0.5022
  892MOL0     C20300   3.303   4.940  12.624 -0.5462  0.0077 -0.0548
  892MOL0     C20301   3.215   4.857  12.715  0.6096 -0.1795 -0.9276
  892MOL0     N20302   3.255   4.850  12.857 -0.3534  0.0619  0.2515
  892MOL0     C20303   3.330   4.747  12.916 -0.4178 -0.3211  0.1552
  892MOL0     C20304   3.345   4.790  13.047 -0.8224  0.4798  0.6619
  892MOL0     C20305   3.407   4.708  13.158  0.5172 -0.1602  0.0618
  892MOL0     C20306   3.315   4.606  13.236 -0.4142 -0.2189  0.3731
  892MOL0     C20307   3.241   4.519  13.127  0.2081  0.1645 -0.2449
  892MOL0     C20308   3.149   4.417  13.200  0.6549  0.3212  0.7560
  892MOL0     O20309   3.222   4.299  13.242 -0.0166 -0.1364  0.0715
  892MOL0     C20310   3.240   4.196  13.151 -0.3437 -0.5469 -0.6893
  892MOL0     C20311   3.218   4.209  13.019  0.1758  0.4401  0.5908
  892MOL0     C20312   3.221   4.095  12.933  0.2454 -0.3489  0.1761
  892MOL0     C20313   3.171   4.108  12.794 -1.8112 -0.1640  0.3828
  892MOL0     C20314   3.265   3.968  12.984 -0.1081  0.3813  0.0298
  892MOL0     C20315   3.286   3.832  12.906 -0.0311  0.3325 -0.2782
  892MOL0     O20316   3.313   3.731  12.984  0.6232  0.1622 -0.6013
  892MOL0     C20317   3.341   3.607  12.938  0.2058  0.1994 -1.2945
  892MOL0     C20318   3.477   3.568  12.949  0.3227  0.3049  0.5138
  892MOL0     C20319   3.529   3.455  12.886 -0.0644  0.6800  0.0075
  892MOL0     C20320   3.442   3.377  12.795  0.2984 -0.3623 -0.4334
  892MOL0     O20321   3.481   3.270  12.720 -0.4115  0.1744 -0.3883
  892MOL0     C20322   3.617   3.259  12.686  0.5726  0.3545  0.3743
  892MOL0     C20323   3.627   3.197  12.543  0.2541 -0.3258 -0.0665
  892MOL0     C20324   3.557   3.067  12.524 -0.0865 -0.9799 -0.3692
  892MOL0     C20325   3.559   3.033  12.377  1.0228 -0.0255  0.5761
  892MOL0     C20326   3.419   3.008  12.322  0.4757  0.0723 -0.9228
  892MOL0     C20327   3.434   2.997  12.169  0.2179 -0.5706 -0.6559
  892MOL0     C20328   3.298   2.953  12.101 -0.1095 -0.3502 -0.0834
  892MOL0     C20329   3.330   2.883  11.967  0.1645  0.2027 -0.0693
  892MOL0    Cl20330   3.409   3.001  11.853 -0.2473 -0.4081 -0.1568
  892MOL0     C20331   3.301   3.407  12.806  0.3321 -0.7616  0.1470
  892MOL0     C20332   3.251   3.516  12.876 -0.3388 -0.8109  0.3561
  892MOL0     O20333   3.294   3.827  12.782 -0.5701 -0.0577  0.5968
  892MOL0     C20334   3.304   3.963  13.120 -0.1444  0.1404  0.2703
  892MOL0     C20335   3.282   4.077  13.201  0.1431 -1.2990 -0.6378
  892MOL0     N20336   3.264   4.904  13.065  0.4481  0.0818  0.0285
  892MOL0     N20337   3.210   4.935  12.949  0.0218 -0.0945  0.3609
  892MOL0     C20338   3.614   5.102  11.675 -0.0340  0.1124  0.0509
  892MOL0     C20339   3.697   5.145  11.575  0.9226  0.4475  0.0365
  892MOL0     C20340   3.816   5.190  11.155  0.0853 -0.1797 -0.1008
  892MOL0     C20341   3.896   5.079  11.107 -0.0170  0.6605 -0.1911
  892MOL0     C20342   3.970   5.092  10.988 -0.3153 -0.1960  1.2102
  892MOL0     C20343   3.962   5.209  10.909 -0.1462 -0.6692  0.0689
  892MOL0     O20344   4.024   5.201  10.780  0.1384  0.1420 -0.1898
  892MOL0     C20345   4.009   5.313  10.700  0.1725 -0.0790  0.9401
  892MOL0     C20346   4.061   5.266  10.557 -0.9286 -0.2016 -0.0231
  892MOL0     C20347   4.076   5.392  10.480  0.0133 -1.0716  0.2176
  892MOL0     C20348   4.167   5.366  10.358  0.0306 -0.2648  0.7499
  892MOL0     C20349   4.095   5.294  10.252 -0.0362 -0.1342 -0.1236
  892MOL0     C20350   4.029   5.226  10.171 -0.6581  0.3060 -0.4526
  892MOL0     C20351   3.889   5.319  10.963  0.9508 -0.6491  0.9148
  892MOL0     C20352   3.811   5.309  11.080 -0.8726 -0.2063 -0.2907
  892MOL0     H20353   3.739   4.851  11.407 -4.4234 -2.4102 -0.1464
  892MOL0     H20354   3.562   4.782  11.565  0.3956  0.0985  1.9509
  892MOL0     H20355   3.615   4.951  11.933 -1.1701 -1.2308  2.5269
  892MOL0     H20356   3.482   5.068  11.892 -1.3228 -0.8128 -0.6878
  892MOL0     H20357   3.324   4.900  11.962 -0.3183  0.5593  1.2141
  892MOL0     H20358   3.477   4.795  12.015  3.8099  1.8229  1.3183
  892MOL0     H20359   3.538   4.968  12.180 -0.9945 -0.2206  2.4938
  892MOL0     H20360   3.409   5.076  12.137 -0.8925 -0.1052  2.9194
  892MOL0     H20361   3.230   4.916  12.205 -0.2663  2.6859 -0.5382
  892MOL0     H20362   3.367   4.800  12.239  2.4231 -0.6608 -0.3646
  892MOL0     H20363   3.451   4.960  12.396  0.3830 -1.9265 -3.3603
  892MOL0     H20364   3.325   5.076  12.378 -0.8719  0.0246 -0.4614
  892MOL0     H20365   3.161   4.896  12.476  1.2204  2.1099 -0.7959
  892MOL0     H20366   3.301   4.791  12.466 -0.6852 -0.0777 -0.4439
  892MOL0     H20367   3.405   4.904  12.613 -1.4801 -1.9389 -4.9894
  892MOL0     H20368   3.292   5.047  12.645  0.5474  0.1960 -0.4043
  892MOL0     H20369   3.206   4.755  12.676 -2.4124 -0.8852  1.2665
  892MOL0     H20370   3.115   4.899  12.710  1.9457  3.1848 -1.9573
  892MOL0     H20371   3.360   4.653  12.871  3.2113  1.8577 -2.5005
  892MOL0     H20372   3.498   4.665  13.116 -0.3650 -2.1003  0.0397
  892MOL0     H20373   3.433   4.787  13.229 -0.1301 -1.1189  1.4097
  892MOL0     H20374   3.252   4.675  13.292  0.0860  0.1943  0.4367
  892MOL0     H20375   3.378   4.543  13.300  2.5739  0.7050 -1.4071
  892MOL0     H20376   3.320   4.468  13.070  0.8573 -1.5159  2.0284
  892MOL0     H20377   3.176   4.577  13.061  0.8407  1.8271  0.5421
  892MOL0     H20378   3.063   4.386  13.140  1.4232  0.6012 -0.5541
  892MOL0     H20379   3.120   4.469  13.292 -0.7668 -0.1814  0.6108
  892MOL0     H20380   3.182   4.302  12.977 -0.1832 -1.1335 -2.8918
  892MOL0     H20381   3.095   4.036  12.764 -0.9658  0.2204 -2.9939
  892MOL0     H20382   3.131   4.208  12.778  0.9525  0.8536 -0.7219
  892MOL0     H20383   3.252   4.091  12.723 -1.1737  2.5057  0.3691
  892MOL0     H20384   3.552   3.634  12.991  1.7784  0.6399 -2.3567
  892MOL0     H20385   3.636   3.443  12.896  0.1878  1.7897 -1.1732
  892MOL0     H20386   3.671   3.354  12.687 -1.6188  1.9628 -4.5037
  892MOL0     H20387   3.667   3.190  12.755  2.3190 -1.6524 -2.6485
  892MOL0     H20388   3.593   3.268  12.467 -0.2632 -1.3440 -0.8128
  892MOL0     H20389   3.734   3.188  12.524 -0.1168 -4.7242 -1.3659
  892MOL0     H20390   3.454   3.074  12.559 -0.4238  0.8875 -1.5757
  892MOL0     H20391   3.598   2.981  12.578  1.6457 -1.0684 -1.7343
  892MOL0     H20392   3.603   3.112  12.316 -0.2552  2.7783  3.0385
  892MOL0     H20393   3.617   2.941  12.365  0.4424 -0.0668 -2.9600
  892MOL0     H20394   3.344   3.080  12.355 -0.4416 -2.3617  3.0349
  892MOL0     H20395   3.385   2.919  12.375 -0.1319  1.0196  0.3362
  892MOL0     H20396   3.477   3.086  12.122  1.0903 -0.5651  0.1237
  892MOL0     H20397   3.513   2.923  12.151  2.2316  1.1498  0.6723
  892MOL0     H20398   3.233   3.039  12.081  0.0818 -0.1761  0.0413
  892MOL0     H20399   3.250   2.892  12.178 -1.3226  0.7118  0.0336
  892MOL0     H20400   3.240   2.845  11.917  0.1586  0.3090 -0.1414
  892MOL0     H20401   3.396   2.796  11.967  1.8230  1.4231  0.3431
  892MOL0     H20402   3.227   3.347  12.754  1.3299 -0.2230 -2.0135
  892MOL0     H20403   3.150   3.555  12.874 -0.0796 -0.1192  0.3237
  892MOL0     H20404   3.332   3.872  13.171 -0.7619  0.0579  0.4776
  892MOL0     H20405   3.293   4.072  13.309  1.7935 -1.0616 -0.7570
  892MOL0     H20406   3.589   5.165  11.761 -0.1699 -1.2199  1.0174
  892MOL0     H20407   3.744   5.242  11.570  3.1149 -0.5642 -0.3483
  892MOL0     H20408   3.915   4.999  11.178  0.3019  0.2245 -0.7611
  892MOL0     H20409   4.035   5.015  10.947  1.7251  0.5834  2.8306
  892MOL0     H20410   3.903   5.338  10.688  0.4775  0.9144  0.1788
  892MOL0     H20411   4.069   5.395  10.741 -0.2619  0.2342  0.9653
  892MOL0     H20412   3.984   5.205  10.509  0.7690 -0.4860 -2.6304
  892MOL0     H20413   4.147   5.199  10.556 -2.8544 -2.9051  1.5031
  892MOL0     H20414   4.120   5.476  10.534  0.6080 -1.6421  0.6232
  892MOL0     H20415   3.979   5.412  10.432 -0.2458 -3.2347 -0.2730
  892MOL0     H20416   4.256   5.307  10.383 -0.6354 -0.3875  3.1065
  892MOL0     H20417   4.186   5.470  10.328  0.5724 -0.3404  0.8187
  892MOL0     H20418   3.961   5.175  10.106  0.3349 -1.4661 -0.1668
  892MOL0     H20419   3.890   5.409  10.901 -0.9854  1.3136  3.5054
  892MOL0     H20420   3.765   5.401  11.115 -0.4166 -0.0481 -0.0875
  893MOL0     O20421   7.371   1.882   4.404 -0.4991 -0.3228 -0.2899
  893MOL0     C20422   7.446   1.818   4.476  0.3862 -0.1086  0.1377
  893MOL0     O20423   7.513   1.867   4.576 -0.1936 -0.4468 -0.3795
  893MOL0     C20424   7.508   1.997   4.619 -0.6437  0.2525  0.4506
  893MOL0     C20425   7.424   2.029   4.727  0.3036  0.2940 -0.4544
  893MOL0     C20426   7.422   2.153   4.787 -1.1587  0.4346  0.5793
  893MOL0     C20427   7.514   2.250   4.741 -0.8602  0.9108 -0.5043
  893MOL0     O20428   7.505   2.386   4.792 -0.4174 -0.1371  0.0183
  893MOL0     C20429   7.563   2.404   4.929  0.2401 -0.0599  1.3393
  893MOL0     C20430   7.710   2.388   4.946 -0.0132 -0.3410 -0.1283
  893MOL0     C20431   7.797   2.461   4.844 -0.3858 -0.2421 -0.2231
  893MOL0     C20432   7.937   2.388   4.852 -0.6824 -0.1563 -0.4215
  893MOL0     C20433   7.941   2.259   4.775 -0.8270  0.2260  0.5396
  893MOL0     C20434   7.971   2.279   4.627  0.4435 -0.3643  0.5796
  893MOL0     C20435   8.112   2.268   4.573 -0.3058 -0.0115 -1.0933
  893MOL0     C20436   8.174   2.127   4.580 -0.6822 -0.3846 -0.3958
  893MOL0     N20437   8.085   2.015   4.537  0.3761  0.1809 -0.3301
  893MOL0     C20438   8.024   1.924   4.625  0.6615 -0.4206  0.6880
  893MOL0     C20439   7.953   1.844   4.536 -0.1541 -0.0672  0.3810
  893MOL0     C20440   7.847   1.729   4.558  0.3096  0.0597  0.4935
  893MOL0     C20441   7.913   1.598   4.506 -0.1853  0.3829 -0.1918
  893MOL0     C20442   8.014   1.542   4.603  0.0222 -1.1539 -0.8161
  893MOL0     C20443   7.962   1.506   4.739 -0.7322  0.4475  0.0163
  893MOL0     O20444   8.061   1.441   4.823  0.2191  0.9327  0.1867
  893MOL0     C20445   8.064   1.303   4.805  0.6754 -0.9591 -0.0669
  893MOL0     C20446   8.137   1.236   4.907 -0.8000  0.5340  0.9022
  893MOL0     C20447   8.133   1.096   4.931 -0.6516 -0.0525  0.5248
  893MOL0     C20448   8.218   1.038   5.038  0.2774  0.2137 -0.4100
  893MOL0     C20449   8.052   1.019   4.843 -0.2184 -0.2897 -0.6072
  893MOL0     C20450   8.055   0.871   4.852  0.0124  0.2750  0.3071
  893MOL0     O20451   8.043   0.817   4.969  0.8096 -0.3232 -0.2089
  893MOL0     C20452   7.980   0.697   4.984 -0.9036  0.5315 -0.3522
  893MOL0     C20453   8.005   0.636   5.109  0.7002  0.4968  0.0052
  893MOL0     C20454   7.930   0.521   5.151 -0.7559  0.4007  0.3764
  893MOL0     C20455   7.832   0.465   5.059  0.0439  0.3386 -0.5793
  893MOL0     O20456   7.771   0.348   5.101 -0.6769  0.5853  0.4663
  893MOL0     C20457   7.710   0.280   4.996  0.3219  0.9885  0.3901
  893MOL0     C20458   7.623   0.165   5.053  0.2138  0.2257 -0.4159
  893MOL0     C20459   7.707   0.057   5.127 -0.3026  0.2884  0.5761
  893MOL0     C20460   7.840   0.019   5.055 -0.2345  0.3406 -0.5928
  893MOL0     C20461   7.816  -0.072   4.929  0.3941  0.5036 -1.1325
  893MOL0     C20462   7.944  -0.140   4.889 -1.5223 -0.2730 -0.2036
  893MOL0     C20463   8.061  -0.046   4.869  0.2324 -0.5790  1.0905
  893MOL0     C20464   8.184  -0.079   4.782  0.2570 -0.6286 -0.0104
  893MOL0    Cl20465   8.291  -0.189   4.876 -0.0502  0.1519 -0.3444
  893MOL0     C20466   7.814   0.526   4.932  0.7742  0.0373 -0.2907
  893MOL0     C20467   7.892   0.633   4.896 -0.4577 -0.0864  0.0589
  893MOL0     O20468   8.068   0.814   4.739 -0.4512  0.3817 -0.5488
  893MOL0     C20469   7.982   1.085   4.741  0.5514  0.0351  0.4664
  893MOL0     C20470   7.980   1.222   4.726 -0.1123  0.5513  0.9606
  893MOL0     N20471   7.966   1.891   4.402  0.1602 -0.0346  0.5074
  893MOL0     N20472   8.040   1.996   4.409  0.3627 -0.6999  1.1734
  893MOL0     C20473   7.597   2.216   4.636  0.1137  0.0542 -1.0893
  893MOL0     C20474   7.591   2.090   4.572 -0.1635  0.4070 -0.0566
  893MOL0     C20475   7.464   1.675   4.458  0.4505 -0.7191  0.1099
  893MOL0     C20476   7.457   1.593   4.575 -0.3866 -0.2282  0.5295
  893MOL0     C20477   7.498   1.460   4.566  0.6098 -0.9179 -0.0428
  893MOL0     C20478   7.529   1.402   4.444  0.4121 -0.1496 -0.0952
  893MOL0     O20479   7.572   1.277   4.407 -0.3157  0.3848 -0.5035
  893MOL0     C20480   7.557   1.167   4.505  0.6457  0.6168 -0.0813
  893MOL0     C20481   7.573   1.037   4.421  0.3591  0.0906 -0.7041
  893MOL0     C20482   7.619   0.911   4.501  0.1500  0.5006 -0.9497
  893MOL0     C20483   7.535   0.888   4.633  0.7006 -0.2043 -0.4425
  893MOL0     C20484   7.394   0.898   4.605 -0.1863  0.1060  0.5456
  893MOL0     C20485   7.276   0.908   4.572 -0.6969 -0.1638  0.4014
  893MOL0     C20486   7.523   1.484   4.327 -0.7238  0.7725 -0.1354
  893MOL0     C20487   7.490   1.617   4.332  0.2521 -0.6138 -0.3543
  893MOL0     H20488   7.353   1.953   4.761 -0.7917  1.3828 -0.2236
  893MOL0     H20489   7.342   2.171   4.857 -0.0044  1.6310  1.6320
  893MOL0     H20490   7.533   2.503   4.964 -0.5733  1.2427 -2.5388
  893MOL0     H20491   7.509   2.335   4.995  0.3603 -0.1459  1.3481
  893MOL0     H20492   7.740   2.422   5.045 -0.8855  0.5343 -0.1443
  893MOL0     H20493   7.717   2.279   4.946 -0.7772 -0.4440  2.2921
  893MOL0     H20494   7.750   2.470   4.745  0.1472  5.5042 -0.3454
  893MOL0     H20495   7.809   2.566   4.873  3.1672 -1.1974  2.4435
  893MOL0     H20496   8.016   2.443   4.801  3.5854 -3.8672  1.4501
  893MOL0     H20497   7.951   2.367   4.959 -2.9043 -1.4392 -0.3064
  893MOL0     H20498   8.029   2.203   4.810  1.2604  2.6440 -0.4743
  893MOL0     H20499   7.854   2.194   4.790  1.5103 -3.3491 -0.0499
  893MOL0     H20500   7.905   2.210   4.573 -0.1067  1.0429 -0.6400
  893MOL0     H20501   7.942   2.379   4.592  0.3099 -0.1244  1.3584
  893MOL0     H20502   8.129   2.308   4.472  3.6029 -0.0424 -0.5902
  893MOL0     H20503   8.166   2.330   4.645 -0.4807  1.2821 -2.0209
  893MOL0     H20504   8.207   2.110   4.683 -2.1696 -0.4434  0.0812
  893MOL0     H20505   8.265   2.122   4.518  0.7759  4.4201  0.9383
  893MOL0     H20506   8.026   1.902   4.732 -0.3480 -1.7450  0.4638
  893MOL0     H20507   7.802   1.718   4.657  0.5983  3.5855  1.1723
  893MOL0     H20508   7.761   1.752   4.494 -0.3247 -0.8026  1.0099
  893MOL0     H20509   7.967   1.608   4.412  2.2583  1.6507  1.2413
  893MOL0     H20510   7.830   1.528   4.499 -1.2284  1.3071  1.9060
  893MOL0     H20511   8.098   1.611   4.614  0.5952 -1.6104 -2.1116
  893MOL0     H20512   8.056   1.455   4.551 -0.5717 -1.6026 -0.5544
  893MOL0     H20513   7.873   1.442   4.734  1.8317 -3.7501  2.0313
  893MOL0     H20514   7.945   1.594   4.801  1.1325  1.9773 -1.5269
  893MOL0     H20515   8.208   1.298   4.960 -0.2026  1.5659 -1.0357
  893MOL0     H20516   8.254   1.133   5.079 -0.2798  1.0041 -1.7053
  893MOL0     H20517   8.162   0.987   5.118  1.4950  4.1693  3.3476
  893MOL0     H20518   8.311   0.989   5.008  1.2057  1.9539 -0.4600
  893MOL0     H20519   8.087   0.681   5.163  0.9880 -0.6973  0.6049
  893MOL0     H20520   7.948   0.460   5.239 -4.3269 -2.0395 -0.3471
  893MOL0     H20521   7.642   0.336   4.932 -2.0365 -0.2522  1.6341
  893MOL0     H20522   7.781   0.245   4.921 -0.2659  1.1228 -0.2382
  893MOL0     H20523   7.540   0.210   5.108 -1.7022 -0.3144 -2.6692
  893MOL0     H20524   7.577   0.120   4.964  0.3095  4.1981 -2.7173
  893MOL0     H20525   7.641  -0.030   5.135 -0.2493  0.0274 -1.5000
  893MOL0     H20526   7.720   0.097   5.228 -1.7363  2.7928 -0.1350
  893MOL0     H20527   7.905   0.105   5.037 -0.8851  1.3691  1.5709
  893MOL0     H20528   7.903  -0.029   5.130 -1.9241 -1.6161 -0.3382
  893MOL0     H20529   7.777  -0.012   4.846  1.9723  1.2698 -1.3552
  893MOL0     H20530   7.738  -0.144   4.956  0.5341  1.4490  2.2976
  893MOL0     H20531   7.971  -0.191   4.982  0.3077  1.5741  0.3563
  893MOL0     H20532   7.941  -0.222   4.817 -2.8850  0.4395 -0.9971
  893MOL0     H20533   8.104  -0.025   4.967 -2.0666 -0.2404  2.0831
  893MOL0     H20534   8.018   0.041   4.819 -0.0516 -0.7673  1.0014
  893MOL0     H20535   8.238   0.011   4.750 -1.2553  0.3797  0.1167
  893MOL0     H20536   8.156  -0.135   4.692  1.2835 -1.7481  0.3492
  893MOL0     H20537   7.772   0.478   4.845  2.9166 -2.0269 -0.2743
  893MOL0     H20538   7.871   0.665   4.795 -2.5047 -2.5657 -0.3913
  893MOL0     H20539   7.921   1.025   4.674 -1.6422  0.6148  1.8177
  893MOL0     H20540   7.916   1.272   4.654 -0.4460 -0.2540  0.6950
  893MOL0     H20541   7.668   2.289   4.600  0.5372  0.3199  0.2292
  893MOL0     H20542   7.647   2.053   4.487 -1.9128 -1.8429 -0.3094
  893MOL0     H20543   7.427   1.643   4.666 -0.6257  0.9399 -0.1623
  893MOL0     H20544   7.504   1.403   4.658 -1.9651 -2.0055 -0.4799
  893MOL0     H20545   7.633   1.164   4.583  0.9362 -2.5746 -0.3487
  893MOL0     H20546   7.460   1.169   4.555  1.8654  2.7625  2.4326
  893MOL0     H20547   7.637   1.056   4.334 -0.9924  1.0085 -1.5166
  893MOL0     H20548   7.476   1.015   4.377 -0.8512  1.1879  1.2921
  893MOL0     H20549   7.723   0.919   4.532 -0.2973 -1.7074  1.4322
  893MOL0     H20550   7.598   0.828   4.432 -3.2723  0.8119 -0.4656
  893MOL0     H20551   7.573   0.965   4.702  0.3935  0.4853 -1.0269
  893MOL0     H20552   7.562   0.793   4.680 -1.0623 -0.2548  0.5471
  893MOL0     H20553   7.179   0.913   4.529  0.5582 -5.6631 -4.2021
  893MOL0     H20554   7.552   1.446   4.230  0.4552 -0.4186  0.6365
  893MOL0     H20555   7.484   1.668   4.237  0.7782 -1.3025 -0.7670
  894MOL0     O20556   9.936   7.808   3.846 -0.6484 -0.4298 -0.0022
  894MOL0     C20557   9.966   7.752   3.741 -0.2061 -0.1286 -0.6201
  894MOL0     O20558   9.938   7.623   3.706  0.4812  0.2660  0.2717
  894MOL0     C20559   9.866   7.537   3.792 -1.3825 -0.3998  0.3092
  894MOL0     C20560   9.748   7.467   3.756 -0.4178 -0.5159  1.1184
  894MOL0     C20561   9.673   7.395   3.845  0.5363  0.3606  0.0242
  894MOL0     C20562   9.719   7.387   3.979 -0.1221 -0.7132 -0.2616
  894MOL0     O20563   9.645   7.318   4.076  0.3840 -0.0787 -0.5423
  894MOL0     C20564   9.654   7.364   4.208  0.0305 -0.4349 -0.7212
  894MOL0     C20565   9.535   7.316   4.289  0.5975 -0.4408 -0.0611
  894MOL0     C20566   9.559   7.173   4.322 -0.6299  0.5568  0.3065
  894MOL0     C20567   9.438   7.111   4.380  0.3913  0.3682 -0.2332
  894MOL0     C20568   9.456   6.964   4.409  0.5185 -0.0363  0.3581
  894MOL0     C20569   9.347   6.918   4.511  0.3109  0.4529  0.4030
  894MOL0     C20570   9.354   6.771   4.545  0.9654 -0.7297  0.1809
  894MOL0     C20571   9.312   6.674   4.432 -0.4372 -0.1089 -0.6244
  894MOL0     N20572   9.387   6.551   4.436 -0.1247 -1.2030  0.4459
  894MOL0     C20573   9.523   6.537   4.407  0.2087  0.2966 -0.8404
  894MOL0     C20574   9.556   6.418   4.464  0.6077  0.4605  0.7081
  894MOL0     C20575   9.692   6.352   4.470  0.6525  0.2761 -0.4572
  894MOL0     C20576   9.795   6.398   4.367  0.1150  0.1712 -0.0149
  894MOL0     C20577   9.879   6.280   4.321 -0.8091 -0.2721 -0.6394
  894MOL0     C20578   9.973   6.242   4.442  0.0497 -0.7727 -0.1487
  894MOL0     O20579  10.090   6.182   4.388 -0.2572  0.6791 -0.1630
  894MOL0     C20580  10.105   6.046   4.389 -0.3074  0.0050  0.2376
  894MOL0     C20581  10.003   5.950   4.416  0.5823 -0.5969 -0.1758
  894MOL0     C20582  10.017   5.810   4.412  0.5262 -0.8163  0.2488
  894MOL0     C20583   9.897   5.727   4.445  0.3881  0.1481  0.1837
  894MOL0     C20584  10.148   5.766   4.390  1.4699 -0.2732  0.1624
  894MOL0     C20585  10.179   5.630   4.428 -0.0700 -0.4016  0.8962
  894MOL0     O20586  10.116   5.575   4.533 -0.5037  0.6110 -0.2938
  894MOL0     C20587  10.149   5.445   4.564 -0.3075 -1.2573  0.5513
  894MOL0     C20588  10.059   5.340   4.560  0.1366 -0.4126  0.4924
  894MOL0     C20589  10.095   5.212   4.609 -0.3627 -0.0418  0.3800
  894MOL0     C20590  10.215   5.192   4.658  0.4854 -0.4282  0.7250
  894MOL0     O20591  10.269   5.065   4.692 -0.4722 -0.0331 -0.3019
  894MOL0     C20592  10.236   4.945   4.612 -0.7439  0.2499 -0.7536
  894MOL0     C20593  10.298   4.956   4.469 -0.3626  0.4227 -0.1995
  894MOL0     C20594  10.456   4.966   4.461 -0.2210  0.2300  0.2076
  894MOL0     C20595  10.516   4.924   4.328  0.5210 -0.1830  0.1436
  894MOL0     C20596  10.665   4.958   4.323  0.1309 -0.2614  0.1085
  894MOL0     C20597  10.748   4.904   4.434 -0.2391  0.3869 -0.2021
  894MOL0     C20598  10.753   4.754   4.416  0.2419  0.8033 -0.0391
  894MOL0     C20599  10.826   4.675   4.520 -0.3538 -0.2394  0.7467
  894MOL0    Cl20600  11.000   4.696   4.519 -0.0388  0.0715  0.6307
  894MOL0     C20601  10.313   5.296   4.661  1.4372  0.4214 -0.2158
  894MOL0     C20602  10.276   5.421   4.622  0.4659 -0.8979  0.4751
  894MOL0     O20603  10.268   5.576   4.367  0.3355  0.4213  0.1898
  894MOL0     C20604  10.255   5.853   4.363 -0.6899  0.0029  0.5660
  894MOL0     C20605  10.234   5.993   4.361 -0.4577 -0.0362  0.3254
  894MOL0     N20606   9.441   6.365   4.526  0.2024  0.6258  0.0027
  894MOL0     N20607   9.347   6.450   4.514  0.2090  0.2687 -0.1538
  894MOL0     C20608   9.842   7.434   4.010  0.3756  0.1764  0.0157
  894MOL0     C20609   9.920   7.508   3.916 -1.0970 -0.2198  0.0612
  894MOL0     C20610  10.044   7.828   3.645 -1.1393 -0.3053  0.5222
  894MOL0     C20611  10.074   7.770   3.516  0.1749  0.2145 -0.0660
  894MOL0     C20612  10.136   7.847   3.410  0.1397 -0.0544 -0.2325
  894MOL0     C20613  10.180   7.977   3.428 -0.0428 -0.6754  0.4280
  894MOL0     O20614  10.231   8.043   3.314 -0.3543 -0.6944 -0.3445
  894MOL0     C20615  10.275   8.179   3.333  1.4654  1.3186  0.3740
  894MOL0     C20616  10.171   8.282   3.337  0.9794 -0.3468  0.2895
  894MOL0     C20617  10.093   8.270   3.206 -0.0935 -0.9862  0.0262
  894MOL0     C20618  10.043   8.403   3.162  0.4062 -0.8518  1.1952
  894MOL0     C20619   9.952   8.456   3.260  0.3517 -0.0502 -0.9774
  894MOL0     C20620   9.873   8.508   3.334 -0.4264 -0.1483 -0.5621
  894MOL0     C20621  10.172   8.027   3.559  0.4866 -0.8144  0.2667
  894MOL0     C20622  10.101   7.957   3.662 -0.3127 -0.1175  0.7210
  894MOL0     H20623   9.713   7.472   3.653  3.7634  2.3701 -0.4425
  894MOL0     H20624   9.577   7.352   3.819  0.4452  0.5374  0.0673
  894MOL0     H20625   9.750   7.325   4.243 -0.1091 -0.5875 -0.5121
  894MOL0     H20626   9.671   7.472   4.205  0.6086 -0.4927  0.1407
  894MOL0     H20627   9.521   7.386   4.373  0.8784  1.8783 -1.8453
  894MOL0     H20628   9.443   7.335   4.233 -0.1948  3.1959  2.1072
  894MOL0     H20629   9.597   7.112   4.239  4.2046  1.0466  1.8303
  894MOL0     H20630   9.639   7.179   4.397  1.1794 -0.5134 -1.4470
  894MOL0     H20631   9.406   7.156   4.475  1.4187 -1.4832  1.0625
  894MOL0     H20632   9.351   7.120   4.315 -0.0344  1.1045  0.4098
  894MOL0     H20633   9.460   6.911   4.313 -2.0083  1.9368 -0.9607
  894MOL0     H20634   9.553   6.948   4.458  0.0343  2.7239  2.4394
  894MOL0     H20635   9.363   6.960   4.610  2.2191  0.8862 -0.0473
  894MOL0     H20636   9.254   6.955   4.466  1.5174  2.2065 -0.7737
  894MOL0     H20637   9.448   6.739   4.591  0.5501  0.3879  1.8850
  894MOL0     H20638   9.280   6.768   4.625  0.8894 -0.7307  0.1108
  894MOL0     H20639   9.324   6.715   4.331  0.0002 -1.4287 -1.1312
  894MOL0     H20640   9.211   6.633   4.439  0.4456 -2.7481 -1.9632
  894MOL0     H20641   9.581   6.605   4.346  2.0655  1.0907  1.6328
  894MOL0     H20642   9.729   6.379   4.570 -0.1434  1.2269 -0.4055
  894MOL0     H20643   9.677   6.245   4.455 -0.2784  0.4436 -0.7784
  894MOL0     H20644   9.860   6.464   4.424 -1.6565  0.0374  2.3243
  894MOL0     H20645   9.744   6.438   4.280 -5.1342 -1.3911  1.9619
  894MOL0     H20646   9.942   6.308   4.236  0.6818  1.9124  1.0553
  894MOL0     H20647   9.814   6.193   4.307 -1.3383 -0.7930  3.7315
  894MOL0     H20648   9.912   6.178   4.506  0.6883 -0.4628  0.7754
  894MOL0     H20649  10.008   6.328   4.499  0.2988  2.2523 -4.3612
  894MOL0     H20650   9.909   5.987   4.454  1.2627  0.2502  0.7276
  894MOL0     H20651   9.804   5.784   4.436  0.0926 -0.4910 -0.9627
  894MOL0     H20652   9.882   5.656   4.364 -1.4578  0.0809  0.5392
  894MOL0     H20653   9.911   5.679   4.542 -0.9868  0.0645  0.3620
  894MOL0     H20654   9.963   5.356   4.513 -0.0620 -2.2588  0.1906
  894MOL0     H20655  10.026   5.128   4.602  1.6354 -1.8488  1.1184
  894MOL0     H20656  10.274   4.858   4.665 -0.0613 -0.1129 -1.8024
  894MOL0     H20657  10.130   4.939   4.585 -0.3458  0.8729 -2.6441
  894MOL0     H20658  10.257   4.867   4.420  0.1866 -3.0315  4.8728
  894MOL0     H20659  10.258   5.047   4.423  1.0596  1.9642  1.4861
  894MOL0     H20660  10.501   4.907   4.541  0.7514 -0.9782 -1.1797
  894MOL0     H20661  10.478   5.073   4.468 -1.8571  0.5969  0.1630
  894MOL0     H20662  10.495   4.820   4.304 -2.1439  1.1043 -4.2606
  894MOL0     H20663  10.466   4.983   4.250 -1.0555 -0.0691  1.2059
  894MOL0     H20664  10.690   5.065   4.329 -3.0675  0.6625 -0.7387
  894MOL0     H20665  10.696   4.928   4.222  0.5112 -0.2686  0.2270
  894MOL0     H20666  10.849   4.941   4.413 -1.1585  2.7171 -0.8886
  894MOL0     H20667  10.724   4.930   4.537  2.1286  2.3675 -0.0547
  894MOL0     H20668  10.788   4.740   4.314 -1.3809  0.4274 -0.5647
  894MOL0     H20669  10.651   4.714   4.414 -0.8092  3.2899 -1.7161
  894MOL0     H20670  10.797   4.570   4.508 -0.7247 -0.3739  2.5360
  894MOL0     H20671  10.790   4.696   4.622 -2.3520 -1.0627  0.2641
  894MOL0     H20672  10.406   5.256   4.698  1.5099 -0.9601 -1.7557
  894MOL0     H20673  10.350   5.500   4.630 -1.1844  0.8465 -0.7032
  894MOL0     H20674  10.351   5.803   4.360  1.1089  3.1728  1.4844
  894MOL0     H20675  10.321   6.051   4.332 -0.2122 -1.1451 -1.2749
  894MOL0     H20676   9.879   7.433   4.112 -4.4879 -2.3324  2.1128
  894MOL0     H20677  10.013   7.558   3.942  0.1265 -1.6894 -1.2495
  894MOL0     H20678  10.028   7.673   3.501  2.6404 -1.2826  1.3873
  894MOL0     H20679  10.127   7.806   3.310 -1.2432  3.5212 -1.7314
  894MOL0     H20680  10.346   8.186   3.416  3.3576  0.6079 -1.1044
  894MOL0     H20681  10.344   8.198   3.250  2.7806  1.7527  1.5338
  894MOL0     H20682  10.210   8.382   3.360  1.1141 -0.6814  1.5971
  894MOL0     H20683  10.104   8.265   3.421 -1.2705 -0.6151 -1.4777
  894MOL0     H20684  10.007   8.203   3.202 -1.0508  0.1713  0.6249
  894MOL0     H20685  10.147   8.232   3.119  1.1967  0.6325  0.0659
  894MOL0     H20686   9.976   8.375   3.080  0.5537 -2.9662  1.7456
  894MOL0     H20687  10.117   8.479   3.136 -1.3655  0.6457  0.2247
  894MOL0     H20688   9.816   8.554   3.413  0.6346  0.3226 -0.0557
  894MOL0     H20689  10.209   8.129   3.567  0.8923 -0.8341 -1.0033
  894MOL0     H20690  10.083   8.000   3.760 -1.6520 -0.4631  0.6468
  895MOL0     O20691   9.035   4.843   4.528  0.6049  0.7910 -0.3543
  895MOL0     C20692   8.936   4.864   4.457  0.8693  0.2205 -0.2670
  895MOL0     O20693   8.884   4.777   4.370 -0.5724  0.4107  0.7709
  895MOL0     C20694   8.945   4.664   4.346  0.0422  0.0907 -0.5086
  895MOL0     C20695   9.005   4.638   4.217  0.3132  0.0491 -0.3663
  895MOL0     C20696   9.051   4.506   4.188 -0.2902 -0.1570 -0.2314
  895MOL0     C20697   9.038   4.412   4.284  1.0808  0.5921 -0.1660
  895MOL0     O20698   9.070   4.285   4.255 -0.4619  0.7650  0.6826
  895MOL0     C20699   8.973   4.189   4.269 -0.5616 -0.1560  0.7570
  895MOL0     C20700   9.008   4.070   4.187  0.6728  0.7333 -0.1125
  895MOL0     C20701   9.120   3.995   4.258 -0.1708 -0.1337 -0.0131
  895MOL0     C20702   9.079   3.883   4.358  0.0875  0.4031  0.4471
  895MOL0     C20703   9.201   3.798   4.400 -0.2312  0.1819  0.6677
  895MOL0     C20704   9.166   3.690   4.497  0.4267  0.1298 -1.0775
  895MOL0     C20705   9.281   3.594   4.536 -0.5885 -0.6368 -0.8202
  895MOL0     C20706   9.267   3.537   4.677 -0.0120  1.4431  0.4683
  895MOL0     N20707   9.147   3.450   4.681  0.4018 -0.6462  0.1794
  895MOL0     C20708   9.121   3.334   4.618  0.4110  0.9713  0.1636
  895MOL0     C20709   8.994   3.304   4.636 -0.6828 -0.6952 -0.1084
  895MOL0     C20710   8.929   3.189   4.583 -0.3995  0.0778 -0.1512
  895MOL0     C20711   8.848   3.209   4.455  0.1645  0.0353  0.0630
  895MOL0     C20712   8.934   3.240   4.334 -0.2292 -0.0296 -0.6818
  895MOL0     C20713   8.936   3.398   4.305 -0.3832  0.1131  0.0368
  895MOL0     O20714   8.808   3.448   4.285  0.1180 -0.5878 -0.4080
  895MOL0     C20715   8.789   3.583   4.311 -0.2680 -0.7685 -0.0019
  895MOL0     C20716   8.789   3.636   4.439 -0.3018 -0.7313 -0.0462
  895MOL0     C20717   8.753   3.765   4.469  0.1854 -0.2796 -0.3424
  895MOL0     C20718   8.769   3.814   4.610  0.3836 -0.4376 -0.3592
  895MOL0     C20719   8.703   3.857   4.369 -0.2671 -0.0033 -0.0809
  895MOL0     C20720   8.636   3.987   4.394  0.2620  0.1349 -0.4764
  895MOL0     O20721   8.622   4.067   4.277 -0.9016  0.8453 -0.5042
  895MOL0     C20722   8.570   4.197   4.270  0.2831 -0.3413  0.2348
  895MOL0     C20723   8.605   4.261   4.156 -0.3643  0.0705  0.5002
  895MOL0     C20724   8.559   4.392   4.127 -0.5786 -0.5243 -0.0571
  895MOL0     C20725   8.488   4.458   4.226 -0.0474  0.9794 -0.6173
  895MOL0     O20726   8.445   4.588   4.196  0.3455 -0.8730  0.2928
  895MOL0     C20727   8.482   4.701   4.277  0.3081  0.6243 -0.2281
  895MOL0     C20728   8.367   4.788   4.304 -0.2584 -0.3966  0.2537
  895MOL0     C20729   8.306   4.846   4.182  0.3714 -0.8580  0.0898
  895MOL0     C20730   8.201   4.947   4.209 -0.5460  0.6699  0.5677
  895MOL0     C20731   8.149   5.024   4.088  0.3532 -0.5817 -0.1148
  895MOL0     C20732   8.074   4.930   3.997  0.0498 -0.7093  0.6516
  895MOL0     C20733   8.031   4.988   3.866 -0.4281  0.5722  0.4514
  895MOL0     C20734   7.898   4.949   3.808 -0.2758  0.4656 -0.8898
  895MOL0    Cl20735   7.768   4.995   3.923  0.0597  0.1277  0.2212
  895MOL0     C20736   8.457   4.391   4.345  0.3658 -0.3363 -0.8275
  895MOL0     C20737   8.495   4.257   4.364  0.1380 -0.0348 -0.0449
  895MOL0     O20738   8.588   4.015   4.504  1.2934 -0.6487 -0.1385
  895MOL0     C20739   8.698   3.809   4.234  0.6914  0.0856 -1.0759
  895MOL0     C20740   8.744   3.676   4.210  0.6874  0.3884  0.6315
  895MOL0     N20741   8.948   3.408   4.708  0.2107  0.2880 -0.4351
  895MOL0     N20742   9.036   3.490   4.746  0.8118  0.8928  0.0259
  895MOL0     C20743   8.981   4.439   4.413  0.9522  0.3576  0.0460
  895MOL0     C20744   8.934   4.564   4.435  0.1953 -0.7665  0.4954
  895MOL0     C20745   8.856   4.983   4.467 -0.5744  0.0673 -0.5042
  895MOL0     C20746   8.746   5.006   4.385 -0.7491 -0.1241  0.7918
  895MOL0     C20747   8.664   5.122   4.403 -0.2433  0.4264 -0.5181
  895MOL0     C20748   8.699   5.210   4.507  0.2405  0.6129 -0.8157
  895MOL0     O20749   8.639   5.332   4.522 -0.0396  0.0287  0.5048
  895MOL0     C20750   8.673   5.408   4.411 -0.1409  0.1077  0.8485
  895MOL0     C20751   8.668   5.562   4.437  0.1236  1.1921  0.5856
  895MOL0     C20752   8.817   5.596   4.463  0.4177 -0.8221 -0.6432
  895MOL0     C20753   8.841   5.724   4.529  0.0451 -0.3759  0.4078
  895MOL0     C20754   8.969   5.742   4.606 -0.0668 -0.8283  0.0049
  895MOL0     C20755   9.062   5.753   4.680 -0.8685 -0.5687  0.0803
  895MOL0     C20756   8.804   5.180   4.591  0.4143 -0.5709  0.1837
  895MOL0     C20757   8.885   5.069   4.574 -0.3766 -0.4729 -0.0048
  895MOL0     H20758   9.016   4.733   4.164  1.5341  2.6559  4.0317
  895MOL0     H20759   9.101   4.474   4.097 -0.5325 -0.4977 -0.2460
  895MOL0     H20760   8.979   4.163   4.375 -1.8500 -1.4409  0.5479
  895MOL0     H20761   8.874   4.229   4.243  0.0300 -0.4527 -2.3187
  895MOL0     H20762   8.914   4.013   4.180 -0.4025  2.5485 -1.4445
  895MOL0     H20763   9.046   4.109   4.092  0.6831  1.1934  0.0827
  895MOL0     H20764   9.181   3.941   4.185  1.3503  0.9779  0.3831
  895MOL0     H20765   9.188   4.070   4.299 -1.9489  2.2849 -1.2695
  895MOL0     H20766   9.038   3.946   4.438 -2.4663  0.9625 -1.1972
  895MOL0     H20767   8.999   3.819   4.321  0.4938  0.3232 -0.3066
  895MOL0     H20768   9.232   3.745   4.310 -1.2760 -0.4335  0.6533
  895MOL0     H20769   9.288   3.858   4.429 -0.9413  2.6795 -1.9640
  895MOL0     H20770   9.124   3.732   4.588  2.5082 -1.4059  0.7234
  895MOL0     H20771   9.083   3.631   4.459 -0.3080 -0.5727  1.4043
  895MOL0     H20772   9.292   3.510   4.467 -2.0702  0.1585 -2.0811
  895MOL0     H20773   9.375   3.651   4.533 -0.9383  0.2872  1.9807
  895MOL0     H20774   9.250   3.624   4.741 -3.0256  0.5446  1.0813
  895MOL0     H20775   9.360   3.484   4.695  0.2451  1.2060 -1.3059
  895MOL0     H20776   9.187   3.278   4.554 -1.6787 -0.1496 -1.1159
  895MOL0     H20777   9.008   3.115   4.575  0.3255  0.9186 -1.0082
  895MOL0     H20778   8.862   3.164   4.666  0.2719 -0.2852  0.2861
  895MOL0     H20779   8.770   3.285   4.461  0.5158  0.3594  0.6013
  895MOL0     H20780   8.784   3.120   4.445 -1.4042  1.2334 -1.0188
  895MOL0     H20781   8.895   3.182   4.249  0.4449 -0.9811 -0.3566
  895MOL0     H20782   9.039   3.210   4.343 -0.0136  0.8646 -0.1326
  895MOL0     H20783   8.989   3.427   4.214  2.4977  0.8925  1.8213
  895MOL0     H20784   8.988   3.442   4.390  0.0554 -2.1871  1.0436
  895MOL0     H20785   8.825   3.566   4.514 -1.4655 -0.9310  0.3445
  895MOL0     H20786   8.675   3.829   4.664  0.7001  0.9891 -0.1526
  895MOL0     H20787   8.831   3.751   4.674  1.8293 -0.0235 -1.3060
  895MOL0     H20788   8.806   3.917   4.613  1.1499 -0.7078 -0.2271
  895MOL0     H20789   8.655   4.204   4.079 -1.4771 -0.2218 -0.0293
  895MOL0     H20790   8.600   4.453   4.047  1.0867  0.4152  1.4389
  895MOL0     H20791   8.518   4.663   4.373  0.0085  0.5532 -0.1452
  895MOL0     H20792   8.554   4.769   4.230 -1.5924  3.5320  0.7521
  895MOL0     H20793   8.293   4.741   4.370  2.3181 -1.0254  2.9024
  895MOL0     H20794   8.413   4.870   4.361 -0.9016 -0.3941  0.7853
  895MOL0     H20795   8.248   4.769   4.131  1.0256  0.8343 -3.5622
  895MOL0     H20796   8.389   4.879   4.118  0.9718 -2.4714 -0.0106
  895MOL0     H20797   8.115   4.896   4.254  0.1876  0.6445  2.0073
  895MOL0     H20798   8.251   5.020   4.273  1.2574  0.0710 -0.1110
  895MOL0     H20799   8.235   5.060   4.031  0.5150  2.0739  1.6303
  895MOL0     H20800   8.085   5.109   4.114 -0.5435 -1.0009 -0.8843
  895MOL0     H20801   8.134   4.842   3.972  0.2704 -0.0684 -1.2240
  895MOL0     H20802   7.979   4.899   4.042 -0.2217  1.7693  1.9813
  895MOL0     H20803   8.111   4.978   3.793 -0.7407  3.8306 -0.4880
  895MOL0     H20804   8.036   5.096   3.881  1.3784  0.4817  0.6721
  895MOL0     H20805   7.900   4.841   3.789 -0.5545  0.0335  1.2625
  895MOL0     H20806   7.875   5.008   3.719 -0.2418  1.2555 -0.3935
  895MOL0     H20807   8.400   4.448   4.418  2.4744  1.2362 -0.3168
  895MOL0     H20808   8.463   4.208   4.455 -0.2564  0.8152  0.2895
  895MOL0     H20809   8.673   3.874   4.151  1.1694  1.4546 -0.2010
  895MOL0     H20810   8.754   3.646   4.107 -0.6617  0.0959  0.5625
  895MOL0     H20811   8.974   4.362   4.488  1.1959 -0.4750 -0.7744
  895MOL0     H20812   8.897   4.591   4.534  0.1630  1.8690 -0.1525
  895MOL0     H20813   8.714   4.933   4.311 -0.6035 -2.8750  3.2957
  895MOL0     H20814   8.594   5.144   4.323 -1.1147  0.8342  0.3454
  895MOL0     H20815   8.779   5.392   4.388  0.5066  1.4544  2.6408
  895MOL0     H20816   8.610   5.382   4.326  2.7223  0.9104 -1.7113
  895MOL0     H20817   8.607   5.577   4.527 -2.0207 -1.2972 -0.2943
  895MOL0     H20818   8.630   5.618   4.351  0.2158 -3.1457 -2.6267
  895MOL0     H20819   8.883   5.585   4.376  0.7685  1.9884 -0.8165
  895MOL0     H20820   8.854   5.514   4.524  0.8074 -0.4883 -0.4245
  895MOL0     H20821   8.757   5.752   4.593  0.1068  4.3158 -1.1886
  895MOL0     H20822   8.827   5.807   4.460  0.2186  0.0768  0.9066
  895MOL0     H20823   9.153   5.753   4.736 -0.9746 -0.6987  0.2519
  895MOL0     H20824   8.829   5.261   4.659  1.8846  1.8950 -3.0137
  895MOL0     H20825   8.983   5.077   4.621  1.3437  1.2567 -3.5257
  896MOL0     O20826   0.210   9.656   2.430  0.0873  0.2451 -0.6396
  896MOL0     C20827   0.175   9.743   2.354 -0.5698  0.0552 -0.4580
  896MOL0     O20828   0.232   9.759   2.228  1.1005  0.6801 -0.2478
  896MOL0     C20829   0.318   9.660   2.177 -0.3929 -0.1372 -0.8782
  896MOL0     C20830   0.307   9.617   2.046 -0.1048  0.1758  0.8661
  896MOL0     C20831   0.378   9.507   1.995 -0.5532  0.4296 -0.7955
  896MOL0     C20832   0.482   9.445   2.071  0.4884 -1.2233 -0.0818
  896MOL0     O20833   0.546   9.331   2.033 -0.2417  0.8351 -0.3368
  896MOL0     C20834   0.490   9.241   1.937  0.2551 -0.3287 -0.0002
  896MOL0     C20835   0.560   9.105   1.974  0.0020  0.6422 -0.0668
  896MOL0     C20836   0.512   9.044   2.105 -0.8475  0.2593 -0.6360
  896MOL0     C20837   0.624   8.949   2.150  1.1506  0.5038  0.0754
  896MOL0     C20838   0.762   9.008   2.174 -0.3193 -0.9663  0.0354
  896MOL0     C20839   0.786   9.115   2.280  0.2321  0.1452 -0.6728
  896MOL0     C20840   0.931   9.139   2.310  0.9944  0.1178 -0.1452
  896MOL0     C20841   0.938   9.237   2.432  0.4629  0.1533 -0.0228
  896MOL0     N20842   0.897   9.370   2.394 -0.9039 -0.3262  0.6748
  896MOL0     C20843   0.981   9.455   2.322  0.3766  0.8171 -0.6939
  896MOL0     C20844   0.923   9.573   2.310  0.4778  0.1860 -0.1131
  896MOL0     C20845   0.978   9.694   2.244 -0.4402  0.0005 -0.4052
  896MOL0     C20846   0.881   9.757   2.144 -0.7548  0.4645  0.1753
  896MOL0     C20847   0.799   9.657   2.068  0.6428  0.2505  0.0346
  896MOL0     C20848   0.679   9.725   1.998 -0.2844  1.3431  0.0292
  896MOL0     O20849   0.742   9.808   1.898 -0.7495  0.1078 -0.5453
  896MOL0     C20850   0.772   9.749   1.779 -0.4824 -0.6493  0.2311
  896MOL0     C20851   0.687   9.662   1.715  0.1539  0.3295  0.1163
  896MOL0     C20852   0.730   9.581   1.607  1.4926 -0.0002 -0.0939
  896MOL0     C20853   0.628   9.472   1.558  0.6900  0.1742  0.4116
  896MOL0     C20854   0.852   9.591   1.550 -0.1508 -0.2295 -0.0840
  896MOL0     C20855   0.906   9.510   1.435 -0.2020  0.0187  0.1960
  896MOL0     O20856   1.043   9.515   1.424  0.1964  0.3979  1.1170
  896MOL0     C20857   1.097   9.488   1.296 -0.0946  0.6954  0.0613
  896MOL0     C20858   1.237   9.474   1.308 -0.1501  0.6895  0.4158
  896MOL0     C20859   1.307   9.420   1.206  0.4780 -0.1977  0.7132
  896MOL0     C20860   1.246   9.377   1.086 -0.8486 -0.3515 -0.5210
  896MOL0     O20861   1.343   9.317   1.009  0.1497  0.4187 -0.4850
  896MOL0     C20862   1.301   9.266   0.883 -0.4786  0.0949 -0.5869
  896MOL0     C20863   1.413   9.190   0.820 -0.4782 -0.0971  0.2854
  896MOL0     C20864   1.385   9.157   0.676 -0.2077  0.2601  0.0860
  896MOL0     C20865   1.507   9.099   0.612  0.1773 -0.1150  0.4433
  896MOL0     C20866   1.480   9.021   0.475 -0.2549 -0.4162  0.5954
  896MOL0     C20867   1.593   9.042   0.377  0.2778  0.8406  0.2027
  896MOL0     C20868   1.573   8.946   0.260 -0.6751  0.7874  0.2232
  896MOL0     C20869   1.465   8.984   0.154 -0.5773 -0.1739  0.2021
  896MOL0    Cl20870   1.330   8.861   0.168  0.6664 -0.6047  0.3212
  896MOL0     C20871   1.107   9.395   1.069 -1.0804  0.0853  0.3408
  896MOL0     C20872   1.034   9.448   1.175  0.1240  0.8726  0.0714
  896MOL0     O20873   0.834   9.426   1.382  0.5930 -0.2518  0.4820
  896MOL0     C20874   0.936   9.696   1.603 -0.1037  0.3698 -0.0137
  896MOL0     C20875   0.902   9.777   1.716 -0.2045  0.4267 -0.8161
  896MOL0     N20876   0.804   9.564   2.385  0.4290  0.0339  0.5760
  896MOL0     N20877   0.797   9.446   2.449  0.5299 -0.3811 -0.2578
  896MOL0     C20878   0.502   9.503   2.194 -0.1014 -0.0978  0.8820
  896MOL0     C20879   0.435   9.618   2.241  0.1797  0.1603  0.2475
  896MOL0     C20880   0.067   9.833   2.399 -0.1873  0.1936  0.1194
  896MOL0     C20881  -0.034   9.875   2.317  0.7052 -0.4395  0.5080
  896MOL0     C20882  -0.133   9.966   2.369  0.1604 -0.2377 -0.1486
  896MOL0     C20883  -0.123  10.005   2.498  0.0252 -0.7587 -0.7929
  896MOL0     O20884  -0.219  10.074   2.555 -0.2076 -0.5585  0.6848
  896MOL0     C20885  -0.259  10.195   2.495 -0.3335 -0.6240 -0.2407
  896MOL0     C20886  -0.144  10.293   2.474 -0.8033 -0.0403 -0.5534
  896MOL0     C20887  -0.085  10.331   2.607 -0.2768  0.4130  0.1825
  896MOL0     C20888   0.068  10.322   2.615 -1.2540  0.8432  0.9686
  896MOL0     C20889   0.140  10.375   2.499 -0.1866 -0.1008  0.7443
  896MOL0     C20890   0.204  10.432   2.422 -0.4783 -1.7987 -1.2649
  896MOL0     C20891  -0.016   9.971   2.575 -0.5194  0.9186 -0.3531
  896MOL0     C20892   0.078   9.877   2.525  0.3962 -0.6800 -0.0688
  896MOL0     H20893   0.236   9.667   1.981  0.3503  0.2125  0.3943
  896MOL0     H20894   0.359   9.472   1.894 -0.8533  0.4744 -0.7551
  896MOL0     H20895   0.382   9.224   1.945  0.3933 -2.4872 -1.6200
  896MOL0     H20896   0.525   9.275   1.839  0.1144  2.2413  0.7627
  896MOL0     H20897   0.551   9.022   1.903  0.5268  1.3222 -0.9581
  896MOL0     H20898   0.668   9.116   1.963  0.1092  0.2871  0.5919
  896MOL0     H20899   0.501   9.122   2.181 -0.8437 -1.0064  0.6965
  896MOL0     H20900   0.416   8.996   2.084 -1.7170  1.4760  0.3625
  896MOL0     H20901   0.579   8.908   2.241  1.6921 -0.4516 -0.0716
  896MOL0     H20902   0.625   8.875   2.068  2.0937  2.0520 -1.3853
  896MOL0     H20903   0.822   8.922   2.204 -1.1709 -1.7193 -0.4064
  896MOL0     H20904   0.821   9.028   2.084  0.5940 -3.7825 -0.0706
  896MOL0     H20905   0.739   9.210   2.256 -1.4857 -0.4080  0.3617
  896MOL0     H20906   0.733   9.087   2.371  3.8149  0.9645  1.8926
  896MOL0     H20907   0.979   9.045   2.340  0.3756 -0.3782 -0.6763
  896MOL0     H20908   0.991   9.189   2.233  1.5007  0.4270  0.4434
  896MOL0     H20909   1.037   9.231   2.478 -0.7306  1.5250  2.9791
  896MOL0     H20910   0.870   9.205   2.512 -2.0462 -4.3196 -3.4482
  896MOL0     H20911   1.075   9.419   2.280  0.4581 -1.0486  0.9498
  896MOL0     H20912   0.991   9.759   2.331 -0.6749 -4.0710  2.9639
  896MOL0     H20913   1.072   9.685   2.188  0.3523 -2.5445  1.2035
  896MOL0     H20914   0.940   9.824   2.082 -2.2558  0.9704 -0.7649
  896MOL0     H20915   0.812   9.825   2.196 -0.0288  1.5839 -0.2967
  896MOL0     H20916   0.740   9.594   2.135 -2.5101  1.3972 -1.4743
  896MOL0     H20917   0.866   9.594   2.010  2.2490  1.4773  0.4868
  896MOL0     H20918   0.622   9.788   2.068 -1.7878  3.2555 -2.7473
  896MOL0     H20919   0.607   9.652   1.958  1.4738 -0.9839  0.8823
  896MOL0     H20920   0.592   9.649   1.765 -0.3249 -0.9772 -1.0824
  896MOL0     H20921   0.677   9.374   1.568  1.0151 -0.0991 -2.9503
  896MOL0     H20922   0.538   9.467   1.620  0.5609 -1.0218  0.1617
  896MOL0     H20923   0.608   9.502   1.455 -0.3954  5.1134  1.7959
  896MOL0     H20924   1.282   9.514   1.399  2.9563 -0.4911 -0.4810
  896MOL0     H20925   1.414   9.407   1.216  0.5807 -0.6886 -0.7288
  896MOL0     H20926   1.221   9.193   0.902 -0.1989  0.2629  1.4490
  896MOL0     H20927   1.263   9.341   0.814  1.3549  0.1959 -1.5450
  896MOL0     H20928   1.502   9.254   0.824 -0.7496  0.2933  0.1458
  896MOL0     H20929   1.441   9.108   0.886  1.5106 -0.0203 -0.4043
  896MOL0     H20930   1.349   9.245   0.621  0.7101  0.5280 -0.1195
  896MOL0     H20931   1.314   9.074   0.677  5.2052 -5.1006 -0.2158
  896MOL0     H20932   1.563   9.180   0.565 -2.3297 -0.9776 -4.7044
  896MOL0     H20933   1.567   9.044   0.685  1.9658  0.9981 -0.1435
  896MOL0     H20934   1.395   9.067   0.425 -0.0811 -1.6120 -0.8685
  896MOL0     H20935   1.446   8.917   0.487 -1.5024  0.2676  4.1868
  896MOL0     H20936   1.577   9.141   0.332 -3.3392 -0.5840 -2.1175
  896MOL0     H20937   1.692   9.036   0.423  0.9399  4.0755 -0.4970
  896MOL0     H20938   1.560   8.842   0.291 -3.4101  0.6015 -1.2378
  896MOL0     H20939   1.668   8.950   0.206 -0.5681  0.1766  0.3580
  896MOL0     H20940   1.506   8.973   0.053 -3.1721 -1.8132 -0.7576
  896MOL0     H20941   1.425   9.085   0.163 -0.1358  0.3304 -2.4798
  896MOL0     H20942   1.065   9.364   0.974  0.7715 -2.4664  0.2443
  896MOL0     H20943   0.926   9.447   1.164 -0.3006 -2.5712  2.8449
  896MOL0     H20944   1.034   9.725   1.568  0.0644  0.4253  0.4934
  896MOL0     H20945   0.954   9.855   1.770  1.5623 -0.3582 -1.3233
  896MOL0     H20946   0.586   9.473   2.256  1.6364 -0.8950 -1.6940
  896MOL0     H20947   0.484   9.669   2.324  0.1118  2.0149 -0.8135
  896MOL0     H20948  -0.048   9.845   2.213 -2.2756  3.1838 -0.3574
  896MOL0     H20949  -0.215  10.001   2.307 -0.1346 -0.2084  0.2549
  896MOL0     H20950  -0.307  10.180   2.398  1.1158 -2.2206 -0.7583
  896MOL0     H20951  -0.331  10.237   2.566  0.2597 -0.2131  0.1261
  896MOL0     H20952  -0.178  10.384   2.424 -1.3120  0.3895  0.5340
  896MOL0     H20953  -0.061  10.255   2.413 -0.1533  2.6709 -1.4849
  896MOL0     H20954  -0.129  10.275   2.690  3.3188 -1.9610  0.6993
  896MOL0     H20955  -0.117  10.432   2.633  0.6013  0.7700 -0.0964
  896MOL0     H20956   0.102  10.218   2.619  1.0000  1.5233  1.1620
  896MOL0     H20957   0.104  10.365   2.709  2.9373  2.4414 -1.1261
  896MOL0     H20958   0.261  10.481   2.346 -2.3014  2.3471 -0.2230
  896MOL0     H20959  -0.026   9.993   2.681 -1.3575  1.2692 -0.4918
  896MOL0     H20960   0.154   9.832   2.589  0.3655 -1.3492 -0.4976
  897MOL0     O20961   1.380   8.558   8.870  0.0368 -0.0335 -0.6674
  897MOL0     C20962   1.307   8.647   8.830  0.2103 -0.2278 -0.0296
  897MOL0     O20963   1.168   8.648   8.855  0.1209  0.4830  0.9469
  897MOL0     C20964   1.118   8.551   8.938  0.4683 -0.3362 -0.0010
  897MOL0     C20965   1.155   8.533   9.074 -1.5814  0.1843 -0.3846
  897MOL0     C20966   1.097   8.449   9.157  0.0669  0.3559  0.4734
  897MOL0     C20967   0.979   8.391   9.119  0.7291  0.0051  0.6946
  897MOL0     O20968   0.919   8.311   9.210  0.0460  0.8467  0.2143
  897MOL0     C20969   0.779   8.271   9.187 -0.7444  0.3173  1.2344
  897MOL0     C20970   0.731   8.210   9.320  0.0166 -0.8931  0.0917
  897MOL0     C20971   0.590   8.162   9.327  0.8067 -0.6448  0.1092
  897MOL0     C20972   0.483   8.268   9.286  0.1025  0.0581  0.2226
  897MOL0     C20973   0.330   8.234   9.295 -0.3797  0.3187  0.6364
  897MOL0     C20974   0.286   8.082   9.259 -0.0234 -0.3111  0.4325
  897MOL0     C20975   0.299   8.033   9.107 -0.2116 -0.9244 -0.5197
  897MOL0     C20976   0.172   8.078   9.045  0.0357 -0.1387  0.1929
  897MOL0     N20977   0.185   8.069   8.903  0.6421 -0.3648  0.6766
  897MOL0     C20978   0.133   7.967   8.828  0.7719  0.2591 -0.9718
  897MOL0     C20979   0.180   7.983   8.703  0.1003  0.2052  0.3316
  897MOL0     C20980   0.139   7.907   8.584 -0.6529  0.0623 -0.0587
  897MOL0     C20981   0.068   7.776   8.609 -1.5584  0.6454  0.7003
  897MOL0     C20982  -0.074   7.802   8.661 -0.3219 -0.6641  0.0169
  897MOL0     C20983  -0.192   7.804   8.560 -0.2004  0.7882 -0.0348
  897MOL0     O20984  -0.322   7.802   8.627  0.1444 -0.4019 -0.5747
  897MOL0     C20985  -0.429   7.830   8.547  0.2090 -0.3456  0.7567
  897MOL0     C20986  -0.443   7.790   8.409  0.1593  0.6422 -0.3652
  897MOL0     C20987  -0.552   7.832   8.337 -0.0840  0.4522  0.6826
  897MOL0     C20988  -0.547   7.784   8.188 -0.4263  0.4009  0.2603
  897MOL0     C20989  -0.667   7.891   8.394 -0.0771  0.5087  0.1288
  897MOL0     C20990  -0.788   7.942   8.320 -0.0877  0.6182 -0.7904
  897MOL0     O20991  -0.857   8.047   8.369 -0.4957 -0.2761 -0.5248
  897MOL0     C20992  -0.956   8.086   8.280 -0.0010 -0.5406  0.1791
  897MOL0     C20993  -0.917   8.158   8.164  0.0685  0.0679  0.8480
  897MOL0     C20994  -1.019   8.209   8.076  0.0271  1.1133 -0.6391
  897MOL0     C20995  -1.153   8.194   8.108  0.6522  0.2278  0.3053
  897MOL0     O20996  -1.258   8.246   8.034  0.1322 -0.9078 -0.8252
  897MOL0     C20997  -1.229   8.369   7.957 -0.2799 -0.4054  0.6223
  897MOL0     C20998  -1.367   8.432   7.906 -0.2917  0.2054  0.3702
  897MOL0     C20999  -1.391   8.405   7.754 -0.8138  0.3168 -0.1613
  897MOL0     C21000  -1.309   8.482   7.652 -0.7241 -0.0020  0.2377
  897MOL0     C21001  -1.383   8.502   7.513  0.7570  1.0735 -0.1901
  897MOL0     C21002  -1.307   8.600   7.415 -0.9911  0.7119 -0.4346
  897MOL0     C21003  -1.169   8.548   7.371  0.8973 -0.8089 -0.4869
  897MOL0     C21004  -1.111   8.593   7.242  0.4116  1.2560  0.9118
  897MOL0    Cl21005  -1.061   8.762   7.262 -0.0411  0.0419 -0.0682
  897MOL0     C21006  -1.184   8.153   8.237  1.1490  0.8410  0.1899
  897MOL0     C21007  -1.092   8.089   8.313 -0.0092  0.0791 -0.3296
  897MOL0     O21008  -0.813   7.876   8.220  0.3034  0.0752  0.3060
  897MOL0     C21009  -0.658   7.929   8.527 -0.6788 -0.5271 -0.2852
  897MOL0     C21010  -0.541   7.900   8.600  0.3097  0.2735 -0.4838
  897MOL0     N21011   0.266   8.093   8.701  0.5020 -0.1781  0.2335
  897MOL0     N21012   0.266   8.139   8.821  1.1188 -0.7507  0.4134
  897MOL0     C21013   0.933   8.400   8.992  0.2185  1.1565  0.4263
  897MOL0     C21014   0.989   8.490   8.898  0.4309  0.6074 -0.1576
  897MOL0     C21015   1.360   8.766   8.772 -0.0631  0.1266  0.1843
  897MOL0     C21016   1.495   8.803   8.767  0.2820 -0.7372 -0.1834
  897MOL0     C21017   1.536   8.919   8.695  0.9687 -0.5426  0.1487
  897MOL0     C21018   1.442   8.999   8.626  0.0680 -0.4645 -0.4156
  897MOL0     O21019   1.485   9.107   8.557 -0.1861  1.0435 -0.1207
  897MOL0     C21020   1.561   9.207   8.620 -0.3179 -1.1419 -0.3506
  897MOL0     C21021   1.702   9.212   8.569  0.1006 -0.6305  0.4471
  897MOL0     C21022   1.790   9.314   8.657  1.0710  0.7041 -0.7996
  897MOL0     C21023   1.753   9.464   8.635  0.1408  0.2112  0.2166
  897MOL0     C21024   1.863   9.556   8.675  0.3383  0.1868 -0.3117
  897MOL0     C21025   1.951   9.637   8.704 -0.5781  0.3764 -0.1265
  897MOL0     C21026   1.308   8.957   8.620 -0.1920  0.1361 -0.6319
  897MOL0     C21027   1.267   8.842   8.698 -0.6251 -0.1899  0.9852
  897MOL0     H21028   1.243   8.571   9.125 -2.7859 -1.9437  3.7551
  897MOL0     H21029   1.142   8.418   9.251 -0.1901 -0.3781  0.3645
  897MOL0     H21030   0.719   8.350   9.140 -0.2458  1.1201  1.9020
  897MOL0     H21031   0.784   8.193   9.110  0.0749 -0.9939  2.5747
  897MOL0     H21032   0.794   8.122   9.335 -2.8971 -3.4641 -1.5163
  897MOL0     H21033   0.732   8.282   9.402 -4.2582 -1.3632  0.7976
  897MOL0     H21034   0.579   8.071   9.266  0.1003  0.0193 -0.7733
  897MOL0     H21035   0.558   8.141   9.429 -3.1559 -0.1976 -0.8879
  897MOL0     H21036   0.504   8.358   9.345 -0.1146 -0.5061  1.1860
  897MOL0     H21037   0.500   8.295   9.182  2.4606 -2.0377 -0.0205
  897MOL0     H21038   0.287   8.271   9.389 -1.4012 -1.7047  1.0158
  897MOL0     H21039   0.273   8.282   9.214 -3.1444 -1.5763  1.3196
  897MOL0     H21040   0.330   8.017   9.336 -0.3883 -0.2943  0.6590
  897MOL0     H21041   0.185   8.080   9.299  0.6486  0.3527  2.2786
  897MOL0     H21042   0.388   8.077   9.060  0.0992 -0.2091  0.6779
  897MOL0     H21043   0.303   7.924   9.116 -1.5961 -0.9322  0.3249
  897MOL0     H21044   0.153   8.182   9.074  1.2417 -0.5205  2.6706
  897MOL0     H21045   0.093   8.010   9.075 -1.0484 -0.4802 -3.0825
  897MOL0     H21046   0.069   7.891   8.872 -0.2968  1.6225 -0.0717
  897MOL0     H21047   0.077   7.974   8.523 -0.1017  3.1965  2.5744
  897MOL0     H21048   0.226   7.893   8.519  1.2424  4.3977  1.2051
  897MOL0     H21049   0.119   7.715   8.685 -4.4340  0.0803  2.3006
  897MOL0     H21050   0.062   7.714   8.519  0.8955  2.3404 -0.7727
  897MOL0     H21051  -0.089   7.894   8.718 -3.1477 -0.0329 -1.5485
  897MOL0     H21052  -0.083   7.715   8.727  2.7369 -1.0336  0.0769
  897MOL0     H21053  -0.185   7.720   8.490 -0.4860  0.9674 -0.2775
  897MOL0     H21054  -0.193   7.887   8.490  0.5465 -0.0923 -1.1248
  897MOL0     H21055  -0.366   7.728   8.364 -0.9817 -1.7147  0.7633
  897MOL0     H21056  -0.608   7.693   8.184  0.3631 -0.2038  1.5404
  897MOL0     H21057  -0.589   7.845   8.108  1.7233 -2.4649 -3.4135
  897MOL0     H21058  -0.443   7.773   8.155 -0.2436  1.5724  0.4109
  897MOL0     H21059  -0.817   8.153   8.122 -0.8950 -0.9936 -1.4711
  897MOL0     H21060  -0.993   8.256   7.982  0.2816  2.7995  0.2348
  897MOL0     H21061  -1.174   8.438   8.021 -0.6192  1.3414 -0.8958
  897MOL0     H21062  -1.167   8.351   7.869 -1.9935 -0.5366 -0.6042
  897MOL0     H21063  -1.452   8.382   7.953  0.1581 -1.8989 -0.9213
  897MOL0     H21064  -1.379   8.539   7.924  0.9471  0.4049  0.1357
  897MOL0     H21065  -1.497   8.430   7.740 -0.8836 -1.3946 -4.4651
  897MOL0     H21066  -1.378   8.296   7.748 -0.3444  0.1624  2.5224
  897MOL0     H21067  -1.296   8.584   7.689  1.7199  0.4827 -1.6108
  897MOL0     H21068  -1.208   8.439   7.649  0.2774  2.2751 -0.8952
  897MOL0     H21069  -1.485   8.538   7.531  0.1169 -0.7124 -0.0844
  897MOL0     H21070  -1.389   8.409   7.456  0.4814  1.6888 -1.1852
  897MOL0     H21071  -1.371   8.609   7.326  1.0976 -3.2389 -2.6392
  897MOL0     H21072  -1.298   8.698   7.463  1.2750  1.3140 -1.9491
  897MOL0     H21073  -1.192   8.441   7.358 -1.6981 -0.3928  0.0623
  897MOL0     H21074  -1.108   8.569   7.459 -1.4127  4.1259  0.2589
  897MOL0     H21075  -1.165   8.579   7.149  0.7891  1.1502  0.7047
  897MOL0     H21076  -1.026   8.523   7.241  2.1467  3.2513  0.9635
  897MOL0     H21077  -1.289   8.148   8.266  1.0099  0.7504 -0.3071
  897MOL0     H21078  -1.133   8.057   8.409 -6.9940 -0.9688 -3.0281
  897MOL0     H21079  -0.743   7.981   8.570  1.1794  0.3000  2.7437
  897MOL0     H21080  -0.541   7.926   8.705 -3.5563  0.8768 -0.4935
  897MOL0     H21081   0.857   8.338   8.947 -1.1885  3.7828 -1.0703
  897MOL0     H21082   0.959   8.498   8.794  0.8787 -0.3738 -0.3730
  897MOL0     H21083   1.569   8.737   8.811  0.4095 -2.6183 -2.9209
  897MOL0     H21084   1.642   8.939   8.699  0.8878 -0.0530 -0.1007
  897MOL0     H21085   1.523   9.309   8.608  0.1303 -1.0751 -1.2496
  897MOL0     H21086   1.570   9.190   8.728 -0.0662  2.5320  0.3329
  897MOL0     H21087   1.695   9.256   8.470 -1.5764  0.0027  0.8217
  897MOL0     H21088   1.753   9.117   8.547  0.5236  0.4135 -3.9576
  897MOL0     H21089   1.898   9.304   8.639  0.8526 -1.3953 -1.1653
  897MOL0     H21090   1.793   9.284   8.762  0.6874  1.3586 -0.5968
  897MOL0     H21091   1.668   9.479   8.703 -0.6354 -0.8507 -0.4926
  897MOL0     H21092   1.740   9.493   8.531 -4.0812  2.1442  1.0740
  897MOL0     H21093   2.035   9.696   8.735 -1.2570  2.5111 -2.0477
  897MOL0     H21094   1.239   9.025   8.572 -2.8406 -1.8277  0.2053
  897MOL0     H21095   1.161   8.815   8.695 -0.9783  1.1600  0.7269
  898MOL0     O21096   9.041   7.252   9.202  0.0369 -0.5342 -0.1846
  898MOL0     C21097   9.004   7.280   9.083 -1.1232 -0.2761 -0.0049
  898MOL0     O21098   8.970   7.188   8.988  0.1711 -0.0982  0.4664
  898MOL0     C21099   9.005   7.061   9.014  1.0056  0.7077  0.9086
  898MOL0     C21100   9.124   7.000   8.974  0.4208  0.2310  0.4747
  898MOL0     C21101   9.153   6.873   8.995  0.2698  0.5686 -0.2397
  898MOL0     C21102   9.060   6.788   9.056  1.7168  0.1848 -1.5376
  898MOL0     O21103   9.076   6.659   9.083  0.4962 -0.1002  0.9964
  898MOL0     C21104   8.993   6.575   8.997  0.8373 -0.4405  0.2991
  898MOL0     C21105   8.945   6.445   9.057 -0.6281  0.6274  0.9789
  898MOL0     C21106   9.039   6.356   9.144  0.6830 -0.3550 -0.5899
  898MOL0     C21107   8.976   6.234   9.203 -0.1422  0.0523  0.2278
  898MOL0     C21108   9.085   6.153   9.268  0.2160  0.4610 -0.2466
  898MOL0     C21109   9.021   6.038   9.354 -1.0280  0.5577  0.3804
  898MOL0     C21110   9.126   5.934   9.410  1.1869 -0.0457  0.1792
  898MOL0     C21111   9.214   5.867   9.299 -0.2293  0.4982 -0.1609
  898MOL0     N21112   9.146   5.756   9.233 -0.0547 -0.0369 -0.1969
  898MOL0     C21113   9.072   5.763   9.121 -0.2497 -0.5820  0.1508
  898MOL0     C21114   9.038   5.639   9.082 -0.2797 -0.8020 -0.7306
  898MOL0     C21115   8.949   5.605   8.971  0.4560 -0.2378  0.4561
  898MOL0     C21116   8.826   5.696   8.934 -0.4340  0.1690  0.0723
  898MOL0     C21117   8.712   5.671   9.043  0.4488 -0.0881  0.4627
  898MOL0     C21118   8.575   5.703   8.976 -0.1305  0.4340 -0.5691
  898MOL0     O21119   8.564   5.833   8.908 -0.3697  0.6634 -0.5264
  898MOL0     C21120   8.558   5.953   8.971 -0.3269  0.2370  0.3242
  898MOL0     C21121   8.576   5.980   9.107  0.0098  0.3063  0.1092
  898MOL0     C21122   8.586   6.112   9.154  0.0476  0.5338 -0.2194
  898MOL0     C21123   8.608   6.124   9.303 -1.0312 -0.3717  0.9087
  898MOL0     C21124   8.595   6.215   9.061 -0.1822 -0.6983  0.3602
  898MOL0     C21125   8.605   6.359   9.098 -0.5546 -1.0121  0.5844
  898MOL0     O21126   8.588   6.387   9.224 -0.1809 -0.7282  0.2498
  898MOL0     C21127   8.525   6.502   9.253  0.1332  0.3716  0.3043
  898MOL0     C21128   8.388   6.487   9.270  0.4339 -0.6205 -0.2168
  898MOL0     C21129   8.316   6.593   9.325 -0.9440 -0.5372  0.3202
  898MOL0     C21130   8.379   6.722   9.351 -0.2430 -0.5163 -0.3507
  898MOL0     O21131   8.318   6.828   9.413  1.0698 -0.1304  0.5116
  898MOL0     C21132   8.334   6.955   9.345  0.3942 -0.4184  0.3535
  898MOL0     C21133   8.230   7.054   9.409 -0.3774  1.4606  0.7831
  898MOL0     C21134   8.232   7.193   9.367 -0.8535 -0.5656  0.4420
  898MOL0     C21135   8.172   7.293   9.476 -0.0010  0.0396  0.4034
  898MOL0     C21136   8.236   7.430   9.455 -0.2727 -0.5756 -0.4892
  898MOL0     C21137   8.170   7.548   9.528  0.6482  0.0911 -0.0523
  898MOL0     C21138   8.200   7.674   9.461 -0.8133 -0.4520 -0.1537
  898MOL0     C21139   8.182   7.799   9.542  1.1555 -0.0635  0.2488
  898MOL0    Cl21140   8.302   7.798   9.668  0.3820  0.4978  0.1669
  898MOL0     C21141   8.514   6.729   9.316 -0.0496 -0.2862 -0.3646
  898MOL0     C21142   8.587   6.622   9.274  0.7224  1.0894 -1.2129
  898MOL0     O21143   8.623   6.438   9.005  0.1232 -0.1036  0.2927
  898MOL0     C21144   8.593   6.188   8.922 -0.2838  0.8145  0.1257
  898MOL0     C21145   8.562   6.059   8.878  0.5236 -0.2197  0.1298
  898MOL0     N21146   9.086   5.562   9.187  0.2175 -0.3404 -0.3073
  898MOL0     N21147   9.137   5.635   9.284  0.9577 -0.8486 -0.9679
  898MOL0     C21148   8.942   6.847   9.111 -0.1859 -0.2748 -0.3581
  898MOL0     C21149   8.911   6.983   9.087  0.0386  0.5409  0.1648
  898MOL0     C21150   8.999   7.427   9.040 -0.2207 -0.3730  0.4770
  898MOL0     C21151   8.962   7.441   8.904 -0.8390 -0.6072  0.2447
  898MOL0     C21152   8.952   7.571   8.848 -0.5052 -0.2722 -1.1511
  898MOL0     C21153   8.976   7.685   8.923 -0.2580 -0.1285 -0.0763
  898MOL0     O21154   8.976   7.801   8.854  0.0485 -0.0625  0.4429
  898MOL0     C21155   9.020   7.927   8.924  0.3610 -0.2312  0.7836
  898MOL0     C21156   9.062   8.040   8.826 -0.2930  0.4617  0.7970
  898MOL0     C21157   9.180   7.992   8.735 -0.6010  0.4701 -0.2633
  898MOL0     C21158   9.232   8.108   8.644  0.2341 -0.5752  0.2294
  898MOL0     C21159   9.376   8.090   8.619  0.5273  0.0272  0.9269
  898MOL0     C21160   9.498   8.073   8.621  0.0659  1.3457 -0.3322
  898MOL0     C21161   9.010   7.678   9.057  0.7179 -0.7928  0.2036
  898MOL0     C21162   9.024   7.544   9.114  0.0074 -0.1615 -0.0814
  898MOL0     H21163   9.184   7.058   8.905  1.6170 -3.9346 -2.4087
  898MOL0     H21164   9.245   6.826   8.960 -1.3773 -4.7081  1.6084
  898MOL0     H21165   8.904   6.631   8.967 -2.2241 -2.1222  5.0457
  898MOL0     H21166   9.059   6.560   8.911  1.6800  1.5329  0.5342
  898MOL0     H21167   8.881   6.474   9.140  0.5315  1.5068  1.5868
  898MOL0     H21168   8.903   6.384   8.975 -3.1074  4.4477 -0.8899
  898MOL0     H21169   9.123   6.315   9.088  0.5499  1.2042 -1.9804
  898MOL0     H21170   9.071   6.413   9.232  1.3769 -0.9861 -0.4227
  898MOL0     H21171   8.894   6.255   9.272  0.3114 -1.3018  1.2206
  898MOL0     H21172   8.930   6.176   9.123 -2.0602  1.9549 -0.1341
  898MOL0     H21173   9.174   6.119   9.214 -2.8094 -3.6940 -3.3129
  898MOL0     H21174   9.140   6.223   9.331 -0.8114  3.6548 -2.6268
  898MOL0     H21175   8.950   6.083   9.423 -1.1995  0.1532  0.4762
  898MOL0     H21176   8.959   5.986   9.280  0.5101 -0.4625 -0.2642
  898MOL0     H21177   9.179   5.976   9.495  1.3051 -2.3402  1.3303
  898MOL0     H21178   9.065   5.854   9.453  1.9990 -1.2864 -0.8703
  898MOL0     H21179   9.308   5.836   9.344  1.2600 -0.2980 -3.5051
  898MOL0     H21180   9.252   5.934   9.221 -0.6962  1.3110  0.2934
  898MOL0     H21181   9.043   5.851   9.065  2.3304  0.0169 -0.3608
  898MOL0     H21182   9.015   5.601   8.884 -2.1968  1.5664 -1.8251
  898MOL0     H21183   8.915   5.501   8.977  5.2894 -1.9981  1.5310
  898MOL0     H21184   8.798   5.679   8.830 -2.8258 -2.4855  0.9941
  898MOL0     H21185   8.844   5.803   8.933 -1.7239  0.4466  1.8013
  898MOL0     H21186   8.721   5.733   9.132 -1.0960  2.5703 -1.0852
  898MOL0     H21187   8.707   5.568   9.082 -4.1090  0.0648  0.7828
  898MOL0     H21188   8.498   5.687   9.053 -1.0327  1.6840 -1.1648
  898MOL0     H21189   8.545   5.638   8.894 -2.3273  1.5227 -0.7181
  898MOL0     H21190   8.580   5.910   9.189 -0.5033  0.8803  0.6398
  898MOL0     H21191   8.525   6.167   9.360 -0.9191 -0.9435  1.5143
  898MOL0     H21192   8.629   6.025   9.345 -2.5809 -1.7917 -1.3882
  898MOL0     H21193   8.692   6.192   9.316  0.6076 -2.4832  1.8882
  898MOL0     H21194   8.342   6.397   9.231 -1.0810 -0.2965  0.7500
  898MOL0     H21195   8.210   6.570   9.331 -1.0665  0.3956  2.8441
  898MOL0     H21196   8.435   6.993   9.362 -0.4479  0.3013  5.3490
  898MOL0     H21197   8.312   6.941   9.239 -1.2915 -0.9744  0.7549
  898MOL0     H21198   8.131   7.007   9.401  1.5058 -2.6587 -1.4443
  898MOL0     H21199   8.257   7.056   9.515 -1.2115 -1.8727  1.1724
  898MOL0     H21200   8.162   7.195   9.283  1.5705  2.1797 -1.7152
  898MOL0     H21201   8.326   7.231   9.327 -1.4646  0.9542  0.3919
  898MOL0     H21202   8.063   7.301   9.468 -0.3556 -3.4766  0.3957
  898MOL0     H21203   8.195   7.251   9.574  4.5374  3.0285  0.9240
  898MOL0     H21204   8.211   7.458   9.353  3.2667  1.2661 -1.0200
  898MOL0     H21205   8.345   7.426   9.471  0.1839 -3.0774 -3.2302
  898MOL0     H21206   8.063   7.525   9.522  0.9189 -1.1013 -0.4707
  898MOL0     H21207   8.211   7.565   9.628  4.3876 -1.7307 -1.1298
  898MOL0     H21208   8.135   7.671   9.372  0.9835 -0.7963 -1.5134
  898MOL0     H21209   8.303   7.668   9.423 -0.1712 -0.8084  1.5709
  898MOL0     H21210   8.082   7.811   9.584  0.7104  2.0805 -1.2641
  898MOL0     H21211   8.207   7.886   9.481  1.4031  0.2465  0.7793
  898MOL0     H21212   8.581   6.814   9.332 -0.8372  0.0245  1.5684
  898MOL0     H21213   8.695   6.623   9.263  0.9821 -0.5575  0.5754
  898MOL0     H21214   8.598   6.262   8.842 -2.6835  0.4449 -0.4271
  898MOL0     H21215   8.553   6.058   8.770 -1.2839 -0.8204  0.2555
  898MOL0     H21216   8.885   6.779   9.174  1.9626 -2.0097 -0.1347
  898MOL0     H21217   8.828   7.021   9.144 -2.2414  1.5414 -3.4560
  898MOL0     H21218   8.937   7.360   8.836 -2.2472  1.9516 -2.5143
  898MOL0     H21219   8.946   7.570   8.739  0.7805 -0.9371 -1.2396
  898MOL0     H21220   8.940   7.973   8.982 -0.8726  0.2113 -1.1562
  898MOL0     H21221   9.111   7.900   8.978  0.1247 -1.0377  0.7922
  898MOL0     H21222   9.093   8.132   8.878 -0.7051 -0.4669  2.7765
  898MOL0     H21223   8.969   8.073   8.780  0.8124 -2.0363 -3.8255
  898MOL0     H21224   9.146   7.910   8.671  0.6290 -0.8544  0.7340
  898MOL0     H21225   9.260   7.948   8.795 -0.7057 -1.0598 -1.1874
  898MOL0     H21226   9.218   8.200   8.702  2.4136 -0.6799  1.0258
  898MOL0     H21227   9.177   8.113   8.550 -3.0091  2.5187  2.0349
  898MOL0     H21228   9.602   8.048   8.620 -0.3823 -1.0758  2.2283
  898MOL0     H21229   9.030   7.764   9.121 -1.3998  0.2338 -0.4024
  898MOL0     H21230   9.074   7.531   9.209 -0.5568  1.3918  0.4633
  899MOL0     O21231  10.411   2.545   4.990  0.2378  0.9631  0.0718
  899MOL0     C21232  10.393   2.503   4.876 -0.7380 -0.1627 -0.5135
  899MOL0     O21233  10.304   2.408   4.848  0.1374  0.9557 -0.1218
  899MOL0     C21234  10.202   2.388   4.939  0.1726  0.2576 -0.0807
  899MOL0     C21235  10.125   2.486   5.000  0.3403  0.3123 -0.0310
  899MOL0     C21236  10.054   2.450   5.113 -0.1053 -0.0657  0.0028
  899MOL0     C21237  10.035   2.313   5.148 -0.2363  0.2564  0.4614
  899MOL0     O21238   9.963   2.287   5.267 -0.1518 -0.0607  0.7149
  899MOL0     C21239   9.920   2.157   5.297  0.3043  0.7313 -0.2236
  899MOL0     C21240   9.800   2.127   5.383 -1.0087  1.0165 -0.8847
  899MOL0     C21241   9.662   2.131   5.319 -0.3699  0.8804 -0.5409
  899MOL0     C21242   9.559   2.058   5.411  0.5119  0.1590 -0.5776
  899MOL0     C21243   9.416   2.100   5.381 -0.3510  0.6912  1.2937
  899MOL0     C21244   9.320   1.993   5.425  0.0645 -1.2407  0.3382
  899MOL0     C21245   9.167   2.008   5.399  0.5620  0.5153  0.0218
  899MOL0     C21246   9.134   2.045   5.251 -0.9436  0.5397 -1.0135
  899MOL0     N21247   9.197   1.946   5.156  0.4501 -0.1501 -0.8333
  899MOL0     C21248   9.298   1.976   5.071 -0.1761  0.3348 -0.5481
  899MOL0     C21249   9.328   1.866   5.008  0.7885  0.5655  0.3376
  899MOL0     C21250   9.414   1.857   4.890  0.5514 -0.2179  0.0301
  899MOL0     C21251   9.334   1.906   4.770 -0.1137 -0.2887 -0.4501
  899MOL0     C21252   9.408   1.886   4.634 -0.4734  0.2818 -0.5070
  899MOL0     C21253   9.333   1.956   4.523  0.6872 -0.2950 -0.3998
  899MOL0     O21254   9.344   2.099   4.556  0.3835  0.7758  0.2235
  899MOL0     C21255   9.233   2.175   4.537  0.1509  0.2313  0.5956
  899MOL0     C21256   9.155   2.169   4.424 -0.5936  0.9659 -0.3126
  899MOL0     C21257   9.036   2.243   4.416 -0.7861 -0.7703  0.2296
  899MOL0     C21258   8.942   2.217   4.293  0.7843 -1.1482 -0.5144
  899MOL0     C21259   9.001   2.337   4.519 -0.1126  0.3272 -0.7475
  899MOL0     C21260   8.886   2.426   4.537  1.2590 -0.1327  0.6840
  899MOL0     O21261   8.892   2.524   4.632 -0.3000  1.0321  0.3757
  899MOL0     C21262   8.819   2.641   4.637  0.1184  0.2901  0.4955
  899MOL0     C21263   8.760   2.699   4.519 -0.9248 -0.8296 -0.3567
  899MOL0     C21264   8.694   2.821   4.530 -0.3839  0.4086  0.8155
  899MOL0     C21265   8.679   2.884   4.652  0.0449  0.1155  0.4637
  899MOL0     O21266   8.607   3.003   4.638 -0.2485  0.0490 -0.3161
  899MOL0     C21267   8.574   3.090   4.758 -0.3578 -0.1417 -0.3411
  899MOL0     C21268   8.497   3.219   4.709 -0.0456 -0.2087  0.4496
  899MOL0     C21269   8.551   3.348   4.766 -0.4708 -0.2752  0.2925
  899MOL0     C21270   8.476   3.470   4.723  0.4015  0.6149 -0.5828
  899MOL0     C21271   8.559   3.593   4.776 -1.2932  0.0865  0.1738
  899MOL0     C21272   8.457   3.706   4.805 -0.5046 -0.6486  0.2842
  899MOL0     C21273   8.394   3.765   4.684  0.3278 -0.4282 -0.0728
  899MOL0     C21274   8.285   3.873   4.713  0.6297  0.2739  0.4199
  899MOL0    Cl21275   8.190   3.920   4.571 -0.2904  0.3510 -0.0384
  899MOL0     C21276   8.728   2.826   4.771  0.4095  0.8019  0.8583
  899MOL0     C21277   8.800   2.707   4.755  0.0260 -0.5906 -1.0879
  899MOL0     O21278   8.797   2.405   4.457  0.2249  0.4240 -0.9104
  899MOL0     C21279   9.096   2.348   4.625 -0.3467 -0.0388 -0.2218
  899MOL0     C21280   9.213   2.269   4.628  0.9109 -0.3332 -0.0250
  899MOL0     N21281   9.244   1.759   5.050  0.6795 -0.3186  0.4947
  899MOL0     N21282   9.171   1.815   5.140 -0.3884  0.9752 -0.7156
  899MOL0     C21283  10.097   2.216   5.081 -0.1076 -1.0261 -0.3437
  899MOL0     C21284  10.180   2.249   4.977  0.1841 -0.1490  0.6582
  899MOL0     C21285  10.490   2.547   4.776  0.1190 -0.7507 -0.2975
  899MOL0     C21286  10.451   2.545   4.642  0.2381  0.2751 -0.1684
  899MOL0     C21287  10.528   2.619   4.548 -0.0698 -0.1923 -0.0487
  899MOL0     C21288  10.654   2.664   4.590  0.8180  1.2394  1.1282
  899MOL0     O21289  10.741   2.718   4.504 -0.6761 -0.0822  0.1647
  899MOL0     C21290  10.695   2.771   4.378 -0.0767  0.0894  0.5793
  899MOL0     C21291  10.805   2.843   4.290 -0.3871  0.7788 -0.0451
  899MOL0     C21292  10.934   2.894   4.369  0.7666  0.1358  0.0849
  899MOL0     C21293  11.059   2.850   4.295 -0.6436  0.3335 -1.1456
  899MOL0     C21294  11.058   2.915   4.168  0.1481  0.5061  0.5957
  899MOL0     C21295  11.058   2.962   4.053  0.1963 -0.0168  1.2811
  899MOL0     C21296  10.705   2.635   4.719 -0.2411  0.1077 -0.0211
  899MOL0     C21297  10.613   2.588   4.816 -0.2812 -0.5755  0.6764
  899MOL0     H21298  10.139   2.593   4.986 -0.2435  0.4220  0.2372
  899MOL0     H21299  10.011   2.529   5.174 -2.3321 -0.5043 -0.9081
  899MOL0     H21300   9.908   2.086   5.215 -3.1185 -2.8738  2.9870
  899MOL0     H21301  10.007   2.115   5.348  0.0075 -0.1677 -0.4546
  899MOL0     H21302   9.816   2.023   5.411 -0.5254  0.4795 -2.9548
  899MOL0     H21303   9.805   2.196   5.468  2.3327 -1.3768  1.0887
  899MOL0     H21304   9.643   2.239   5.307  0.0150  1.0110  0.0093
  899MOL0     H21305   9.664   2.075   5.226  0.4674 -2.5226  1.3841
  899MOL0     H21306   9.579   1.951   5.414  0.3899  0.1079 -1.3364
  899MOL0     H21307   9.576   2.098   5.512  0.6918  1.3119 -1.0407
  899MOL0     H21308   9.399   2.192   5.438  1.2286  1.4899  0.5445
  899MOL0     H21309   9.407   2.124   5.275 -1.9762 -1.0045  0.9999
  899MOL0     H21310   9.354   1.902   5.376 -1.7985 -2.0336  0.4604
  899MOL0     H21311   9.334   1.987   5.533  3.4713  2.2812  0.3637
  899MOL0     H21312   9.125   1.908   5.415  2.8059 -0.8083 -1.6906
  899MOL0     H21313   9.124   2.084   5.465  2.7498 -0.1316  2.3293
  899MOL0     H21314   9.174   2.146   5.240  5.2975 -1.3168  0.2969
  899MOL0     H21315   9.026   2.033   5.249 -1.3390  3.3295 -0.6212
  899MOL0     H21316   9.346   2.071   5.049  2.0370 -0.5261  0.3190
  899MOL0     H21317   9.514   1.897   4.909  0.3545  1.1232 -1.6043
  899MOL0     H21318   9.425   1.749   4.875  0.9548 -0.5441  2.2457
  899MOL0     H21319   9.300   2.009   4.782  1.2363 -0.0947  2.5713
  899MOL0     H21320   9.249   1.839   4.759 -0.3719  0.4066 -3.5855
  899MOL0     H21321   9.410   1.778   4.622 -1.6831  0.1892 -0.0766
  899MOL0     H21322   9.505   1.936   4.627 -0.9405  1.6662  1.7151
  899MOL0     H21323   9.231   1.923   4.503  0.9579 -1.3989 -0.0533
  899MOL0     H21324   9.380   1.942   4.425 -0.5382  0.1178 -1.0608
  899MOL0     H21325   9.168   2.097   4.344  1.1072  1.8965 -0.9254
  899MOL0     H21326   8.916   2.305   4.235  1.9745  0.3980  1.1694
  899MOL0     H21327   8.977   2.139   4.225 -1.5471 -1.0360 -1.9596
  899MOL0     H21328   8.846   2.175   4.325 -0.1986  0.4610 -1.2444
  899MOL0     H21329   8.773   2.667   4.416 -0.9847 -0.4016 -0.4972
  899MOL0     H21330   8.652   2.874   4.444 -1.2055  0.1831  1.0655
  899MOL0     H21331   8.519   3.026   4.828 -0.1358 -1.2256 -1.1333
  899MOL0     H21332   8.674   3.111   4.798  0.4855 -1.7766 -1.4711
  899MOL0     H21333   8.503   3.217   4.600 -0.5585  0.7905  0.3983
  899MOL0     H21334   8.391   3.207   4.735 -0.2375 -0.1846 -0.3008
  899MOL0     H21335   8.653   3.359   4.727 -0.1986 -0.5677  0.8958
  899MOL0     H21336   8.555   3.342   4.875 -0.0232  1.4547  0.3934
  899MOL0     H21337   8.469   3.475   4.614 -1.4600  0.3345 -0.5131
  899MOL0     H21338   8.372   3.463   4.755  0.9489 -1.6541  0.9146
  899MOL0     H21339   8.639   3.625   4.709 -0.1029 -1.7059  0.6463
  899MOL0     H21340   8.616   3.562   4.864  0.0856  0.0179 -0.7175
  899MOL0     H21341   8.385   3.689   4.885 -1.4618  4.1364  0.7022
  899MOL0     H21342   8.526   3.782   4.844 -0.9994  0.1809 -0.4207
  899MOL0     H21343   8.353   3.678   4.630  1.6207 -0.2024 -1.4863
  899MOL0     H21344   8.458   3.810   4.607 -1.2808  1.9331 -0.1453
  899MOL0     H21345   8.348   3.954   4.748  0.0873 -0.5080  3.4700
  899MOL0     H21346   8.210   3.849   4.789  1.8403  2.0793  2.2759
  899MOL0     H21347   8.730   2.883   4.864  3.7660  0.0691  1.3406
  899MOL0     H21348   8.865   2.678   4.837  1.7175  1.5031 -1.6006
  899MOL0     H21349   9.078   2.421   4.704 -1.5128 -1.1900  0.6369
  899MOL0     H21350   9.288   2.290   4.703 -0.7050  0.9655  1.3150
  899MOL0     H21351  10.084   2.111   5.106 -0.4997 -0.3469  2.6853
  899MOL0     H21352  10.251   2.176   4.941  0.4749  0.3863  0.1188
  899MOL0     H21353  10.356   2.509   4.603  1.0785 -1.7719 -0.4282
  899MOL0     H21354  10.498   2.626   4.443  2.2640 -0.7020 -0.8043
  899MOL0     H21355  10.671   2.684   4.316 -0.0386  0.6028 -0.1818
  899MOL0     H21356  10.605   2.830   4.399 -1.1459 -2.0294  2.3237
  899MOL0     H21357  10.764   2.930   4.237  2.5868 -0.0224 -4.1302
  899MOL0     H21358  10.829   2.781   4.203 -1.4678 -2.4666  1.7938
  899MOL0     H21359  10.924   2.858   4.472  0.3252  0.5567  0.1901
  899MOL0     H21360  10.926   3.003   4.375  1.1391  0.1104  1.3603
  899MOL0     H21361  11.066   2.741   4.294  0.0058  0.3292  0.3790
  899MOL0     H21362  11.149   2.886   4.348  0.0535 -0.9624 -1.4100
  899MOL0     H21363  11.046   2.997   3.953 -0.5172 -2.9318  0.2553
  899MOL0     H21364  10.808   2.656   4.746 -0.4573  0.0745  0.8634
  899MOL0     H21365  10.648   2.583   4.918  1.7586  2.2852  0.2357
  900MOL0     O21366   2.589   1.768   6.978 -0.8057 -1.2412 -0.9197
  900MOL0     C21367   2.612   1.873   6.924  0.1108 -1.3164 -0.6374
  900MOL0     O21368   2.546   1.916   6.805  0.0503 -0.8392 -0.6579
  900MOL0     C21369   2.477   1.825   6.721  0.1822 -0.5904  0.0986
  900MOL0     C21370   2.397   1.886   6.629  0.1724  0.3254 -0.0161
  900MOL0     C21371   2.321   1.817   6.532 -0.5269  0.0020 -0.1502
  900MOL0     C21372   2.334   1.671   6.523  0.6660 -1.0260  0.0771
  900MOL0     O21373   2.271   1.588   6.430  0.5375 -0.0970 -0.6471
  900MOL0     C21374   2.161   1.634   6.349  0.1509 -0.1422  0.1586
  900MOL0     C21375   2.029   1.600   6.415  0.0202 -0.5620  0.4362
  900MOL0     C21376   1.903   1.589   6.310 -0.8199  0.9069 -0.2818
  900MOL0     C21377   1.774   1.551   6.378  0.2906  0.7406  0.0570
  900MOL0     C21378   1.704   1.458   6.290  0.8170 -0.0696  0.4774
  900MOL0     C21379   1.692   1.511   6.145 -0.6263 -0.8116  1.2403
  900MOL0     C21380   1.615   1.652   6.143  0.1477  0.5674 -0.0236
  900MOL0     C21381   1.539   1.693   6.016  0.4004  0.8175 -0.1196
  900MOL0     N21382   1.630   1.703   5.895 -0.0480  0.1388  0.7208
  900MOL0     C21383   1.671   1.820   5.838 -0.4707 -0.1338 -0.4668
  900MOL0     C21384   1.736   1.785   5.724  0.6777 -1.1123  0.2847
  900MOL0     C21385   1.821   1.875   5.641 -0.5553 -0.4916  0.4637
  900MOL0     C21386   1.744   1.933   5.524 -0.4558 -0.6944  1.1392
  900MOL0     C21387   1.648   2.057   5.549 -0.4705  0.0088  0.4950
  900MOL0     C21388   1.580   2.090   5.415  0.7094 -0.4993 -0.5887
  900MOL0     O21389   1.466   2.176   5.418 -0.7607  0.1202 -0.6910
  900MOL0     C21390   1.497   2.301   5.466  0.0842 -0.1139  0.8736
  900MOL0     C21391   1.617   2.376   5.472 -0.8770  0.2316 -0.1425
  900MOL0     C21392   1.627   2.496   5.526 -0.6727  0.6956 -0.9077
  900MOL0     C21393   1.764   2.555   5.526  0.8908 -0.7042 -1.6207
  900MOL0     C21394   1.512   2.555   5.576  0.6373  0.5436  0.7297
  900MOL0     C21395   1.524   2.685   5.641 -0.6005  0.8551 -0.9639
  900MOL0     O21396   1.440   2.703   5.746  1.1521 -0.4619  0.0636
  900MOL0     C21397   1.425   2.826   5.804  0.7942  0.1684 -0.1099
  900MOL0     C21398   1.292   2.869   5.805 -0.0509  0.6385 -0.9487
  900MOL0     C21399   1.261   2.993   5.852  0.3115  0.6630 -0.2306
  900MOL0     C21400   1.367   3.082   5.901 -0.1003 -0.6448  0.0920
  900MOL0     O21401   1.352   3.212   5.952  0.1787 -0.2566  0.0160
  900MOL0     C21402   1.219   3.266   5.983  0.0752 -1.4339  0.6206
  900MOL0     C21403   1.236   3.373   6.088  0.3162  0.5462 -1.0120
  900MOL0     C21404   1.260   3.516   6.017 -0.5082  0.7163 -0.8500
  900MOL0     C21405   1.311   3.623   6.107 -0.3903  0.5628 -0.0413
  900MOL0     C21406   1.191   3.678   6.179  0.5231  0.2419  0.4398
  900MOL0     C21407   1.216   3.793   6.269  0.3706  0.5436  0.5523
  900MOL0     C21408   1.291   3.913   6.198 -0.3882  0.4697  0.4721
  900MOL0     C21409   1.323   4.029   6.285 -0.1754  0.8090  0.7421
  900MOL0    Cl21410   1.168   4.098   6.349 -0.4409  0.1563  0.1593
  900MOL0     C21411   1.499   3.042   5.882 -0.8887  0.5022  0.3758
  900MOL0     C21412   1.529   2.913   5.836  0.2640  0.2379 -0.8742
  900MOL0     O21413   1.588   2.773   5.585  0.1864 -0.7577 -0.5266
  900MOL0     C21414   1.387   2.495   5.558 -0.0325 -0.9650  0.3301
  900MOL0     C21415   1.380   2.361   5.503 -0.1831 -0.4390  0.2575
  900MOL0     N21416   1.712   1.646   5.704  0.6480  0.0404 -0.2650
  900MOL0     N21417   1.655   1.599   5.809 -0.2148 -0.6697  0.1543
  900MOL0     C21418   2.412   1.615   6.624  0.3252  0.0923  0.4882
  900MOL0     C21419   2.484   1.690   6.726 -0.9739  0.5591  0.4700
  900MOL0     C21420   2.695   1.971   6.996  0.1150  0.0753  0.1599
  900MOL0     C21421   2.734   1.959   7.137 -0.8342  0.3189  0.7525
  900MOL0     C21422   2.804   2.055   7.205  0.2774  0.7115  0.3757
  900MOL0     C21423   2.828   2.179   7.150 -0.5107  0.0773 -0.0888
  900MOL0     O21424   2.905   2.276   7.212  0.0969 -0.1566 -0.2475
  900MOL0     C21425   2.822   2.391   7.262 -0.0040  0.2177 -0.2665
  900MOL0     C21426   2.909   2.520   7.288  0.1877  0.5018 -0.0059
  900MOL0     C21427   2.993   2.559   7.173 -0.1626 -0.1921  0.2994
  900MOL0     C21428   3.039   2.705   7.159  0.2158  0.3864 -0.1443
  900MOL0     C21429   3.152   2.709   7.255 -0.1216 -0.4268  0.4937
  900MOL0     C21430   3.244   2.708   7.342 -0.1113  0.4204  0.3373
  900MOL0     C21431   2.806   2.193   7.016 -0.3374  0.0483  0.5427
  900MOL0     C21432   2.737   2.096   6.943 -1.2660 -0.1195  0.2588
  900MOL0     H21433   2.389   1.995   6.629 -1.8982  0.3366 -3.5819
  900MOL0     H21434   2.259   1.877   6.467  0.5108 -0.0183 -1.1805
  900MOL0     H21435   2.173   1.738   6.319  3.2273  0.6854  3.4887
  900MOL0     H21436   2.172   1.579   6.255  1.2084  0.0654  0.1470
  900MOL0     H21437   2.035   1.508   6.474  0.2623  0.0357  1.3526
  900MOL0     H21438   2.004   1.680   6.485  0.1781  0.0532 -0.1975
  900MOL0     H21439   1.903   1.680   6.250 -0.0203  1.8717  1.1183
  900MOL0     H21440   1.929   1.503   6.248 -0.9936  1.9902 -1.9190
  900MOL0     H21441   1.787   1.495   6.471 -0.0192  0.8283  0.1554
  900MOL0     H21442   1.716   1.643   6.393  1.3468  1.3499  0.5903
  900MOL0     H21443   1.744   1.356   6.290  0.6426 -0.1645  1.7966
  900MOL0     H21444   1.604   1.440   6.330 -0.1611 -0.4294 -1.9409
  900MOL0     H21445   1.787   1.528   6.095 -1.7390  1.5757 -0.2919
  900MOL0     H21446   1.640   1.442   6.078 -1.8176  1.8597 -0.8288
  900MOL0     H21447   1.540   1.641   6.222 -1.3789 -0.1715 -1.4984
  900MOL0     H21448   1.695   1.722   6.168  3.4300 -2.7034 -0.5436
  900MOL0     H21449   1.483   1.784   6.038  2.5162  2.1134  0.1815
  900MOL0     H21450   1.477   1.612   5.977  4.1598 -2.6754  0.4520
  900MOL0     H21451   1.671   1.913   5.895 -1.5107 -1.3997  1.7698
  900MOL0     H21452   1.857   1.953   5.708  2.2136 -1.6647  0.5004
  900MOL0     H21453   1.908   1.828   5.593  1.8303  2.2022  1.8237
  900MOL0     H21454   1.686   1.853   5.478  1.6706  0.3817 -4.1501
  900MOL0     H21455   1.821   1.962   5.451 -1.0968  0.7889  1.0198
  900MOL0     H21456   1.709   2.145   5.574 -0.7517  0.4211 -0.2419
  900MOL0     H21457   1.576   2.026   5.626 -2.5828 -1.6600 -1.9977
  900MOL0     H21458   1.532   1.998   5.379 -1.1179 -0.7099  2.0776
  900MOL0     H21459   1.656   2.129   5.347  1.0229  0.8313  0.4881
  900MOL0     H21460   1.704   2.337   5.421 -1.3117  0.3083 -0.9609
  900MOL0     H21461   1.843   2.479   5.531 -1.1171 -2.8074  1.8891
  900MOL0     H21462   1.778   2.616   5.436  0.4262  0.1828 -1.1065
  900MOL0     H21463   1.773   2.618   5.614 -0.8490 -0.8108 -1.3357
  900MOL0     H21464   1.217   2.803   5.762  0.7027 -1.5373  0.8591
  900MOL0     H21465   1.158   3.027   5.846  1.1665  3.9792  1.3770
  900MOL0     H21466   1.161   3.303   5.899 -1.3223 -1.3747  1.5746
  900MOL0     H21467   1.153   3.189   6.024 -3.2774  2.4561  3.4080
  900MOL0     H21468   1.146   3.381   6.150  0.0346 -1.6004 -1.0589
  900MOL0     H21469   1.323   3.357   6.152  0.9417  0.0694 -1.9567
  900MOL0     H21470   1.166   3.550   5.974 -0.4091 -0.3021 -1.9372
  900MOL0     H21471   1.334   3.502   5.937  1.8777  1.1429  1.1485
  900MOL0     H21472   1.386   3.582   6.176 -0.7759 -1.6065 -0.8445
  900MOL0     H21473   1.364   3.700   6.050  2.5595 -0.5103  1.0398
  900MOL0     H21474   1.149   3.597   6.240  0.6797  0.4732  0.8634
  900MOL0     H21475   1.129   3.713   6.096  0.4986  0.7663  0.6784
  900MOL0     H21476   1.119   3.833   6.299 -1.4588 -3.5827  0.9565
  900MOL0     H21477   1.265   3.757   6.360 -1.4751  0.8858  1.7322
  900MOL0     H21478   1.249   3.941   6.101  4.9762  1.5446 -1.9373
  900MOL0     H21479   1.389   3.872   6.171 -0.3308 -0.9993  2.6725
  900MOL0     H21480   1.372   4.116   6.241  0.0356  0.7866  0.9336
  900MOL0     H21481   1.385   3.997   6.369 -1.0306  0.1203  1.1243
  900MOL0     H21482   1.577   3.114   5.904  1.1330 -1.1590 -0.9676
  900MOL0     H21483   1.628   2.879   5.808 -0.1155  0.2914 -2.3596
  900MOL0     H21484   1.295   2.552   5.576 -0.6889 -0.6289 -3.3211
  900MOL0     H21485   1.279   2.333   5.475  0.3386 -0.7994 -1.3787
  900MOL0     H21486   2.406   1.508   6.645  1.6018  0.1022  0.9922
  900MOL0     H21487   2.536   1.636   6.804 -2.5283 -1.9009 -0.0886
  900MOL0     H21488   2.716   1.867   7.193 -0.3004  0.0102  0.4202
  900MOL0     H21489   2.836   2.037   7.308 -0.0626  0.3436  0.4187
  900MOL0     H21490   2.742   2.416   7.191  1.2944  2.4852 -1.0199
  900MOL0     H21491   2.775   2.372   7.359 -0.5793  0.1912 -0.5482
  900MOL0     H21492   2.968   2.537   7.379  1.8034  1.1968 -1.1291
  900MOL0     H21493   2.836   2.600   7.301 -0.5523 -0.1582 -0.0722
  900MOL0     H21494   2.934   2.544   7.082 -0.6741 -2.1990  0.8991
  900MOL0     H21495   3.082   2.497   7.160  1.3969  2.2739 -1.5421
  900MOL0     H21496   2.957   2.772   7.185 -3.0531 -3.9048  1.9176
  900MOL0     H21497   3.064   2.720   7.053 -2.6732  1.5739 -0.7646
  900MOL0     H21498   3.337   2.696   7.395 -0.5652 -1.4162  0.7960
  900MOL0     H21499   2.827   2.291   6.975 -1.7485  1.2063  2.4446
  900MOL0     H21500   2.703   2.126   6.844 -2.5339 -2.5639 -0.1429
  901MOL0     O21501   2.514   2.383   0.321 -0.0856 -0.6932 -0.2654
  901MOL0     C21502   2.488   2.312   0.225  0.3598 -0.0793 -0.2247
  901MOL0     O21503   2.558   2.214   0.178 -0.2192 -1.0082 -0.1802
  901MOL0     C21504   2.690   2.231   0.209 -0.6222 -0.8277 -1.0948
  901MOL0     C21505   2.744   2.160   0.314 -0.1921  0.5134 -0.0585
  901MOL0     C21506   2.881   2.163   0.338 -0.0617 -0.7759 -0.5462
  901MOL0     C21507   2.964   2.244   0.266  0.4373  0.6438  0.3656
  901MOL0     O21508   3.097   2.270   0.292 -0.8828  0.4346 -0.2404
  901MOL0     C21509   3.156   2.248   0.417  0.1180 -0.5257  0.0013
  901MOL0     C21510   3.295   2.303   0.409 -1.1067 -0.0112 -0.0249
  901MOL0     C21511   3.359   2.238   0.287 -0.0692 -0.0881  0.0867
  901MOL0     C21512   3.507   2.254   0.296  0.8489  0.3664 -0.1893
  901MOL0     C21513   3.562   2.237   0.153 -0.1767 -0.6063 -0.4810
  901MOL0     C21514   3.707   2.310   0.147  0.6890  0.1939 -0.5595
  901MOL0     C21515   3.819   2.241   0.231  1.0151  0.4070  0.3516
  901MOL0     C21516   3.939   2.329   0.243  0.1608 -0.2831  1.2466
  901MOL0     N21517   4.049   2.252   0.290  1.0369 -0.1466  0.0919
  901MOL0     C21518   4.126   2.183   0.204 -0.0655  1.5858  0.2765
  901MOL0     C21519   4.225   2.126   0.274  0.6490  0.6993  0.8066
  901MOL0     C21520   4.341   2.043   0.227  0.0828  0.2716  1.0039
  901MOL0     C21521   4.472   2.097   0.292  0.5399  0.1645  0.0549
  901MOL0     C21522   4.587   1.997   0.282 -0.1376 -0.3606  0.1612
  901MOL0     C21523   4.704   2.027   0.372  0.0892 -0.2756 -0.0897
  901MOL0     O21524   4.680   1.991   0.500  0.9947 -0.7534  0.8241
  901MOL0     C21525   4.719   1.874   0.558 -0.4259 -0.2390 -0.4061
  901MOL0     C21526   4.851   1.828   0.546  0.1498  0.5543  0.2629
  901MOL0     C21527   4.895   1.710   0.612  0.7873  0.7925  1.0256
  901MOL0     C21528   5.035   1.664   0.589  0.7028 -0.3886 -0.2429
  901MOL0     C21529   4.806   1.636   0.697  0.3044 -0.1811 -0.1660
  901MOL0     C21530   4.844   1.519   0.781 -0.1485 -0.0149 -0.9279
  901MOL0     O21531   4.741   1.467   0.867  0.2552  0.1982  0.6674
  901MOL0     C21532   4.758   1.353   0.933  1.5619 -0.0435  0.1529
  901MOL0     C21533   4.826   1.351   1.053  0.0819  0.6783  0.9623
  901MOL0     C21534   4.858   1.227   1.105 -0.8270 -0.0315 -0.2036
  901MOL0     C21535   4.829   1.106   1.042 -0.0291  0.1110 -0.0496
  901MOL0     O21536   4.884   0.991   1.107 -0.2137  0.2123  0.5700
  901MOL0     C21537   4.825   0.865   1.081 -0.7919 -0.8653 -0.3481
  901MOL0     C21538   4.884   0.775   0.975  0.3959 -0.9950  0.2255
  901MOL0     C21539   5.027   0.786   0.962  1.1148 -0.2771 -0.0943
  901MOL0     C21540   5.102   0.658   1.006  0.3214  0.0218 -0.3530
  901MOL0     C21541   5.255   0.670   0.996 -0.1518  0.1964  0.1454
  901MOL0     C21542   5.309   0.797   1.058  0.2739  0.2913  0.1470
  901MOL0     C21543   5.461   0.796   1.058  0.5562 -0.4092 -0.4015
  901MOL0     C21544   5.520   0.681   1.143  0.6350 -0.1656 -0.9863
  901MOL0    Cl21545   5.669   0.602   1.066  0.5127 -0.1316  0.3028
  901MOL0     C21546   4.760   1.109   0.921 -0.4837 -0.5585  0.6563
  901MOL0     C21547   4.715   1.229   0.865 -0.0585  0.8830 -0.0070
  901MOL0     O21548   4.958   1.471   0.785  0.2562 -0.6817 -0.7568
  901MOL0     C21549   4.673   1.680   0.699  0.4388 -0.2422 -0.0063
  901MOL0     C21550   4.631   1.791   0.629  0.6602 -0.3333 -0.1068
  901MOL0     N21551   4.207   2.171   0.402  0.6032  0.4530  0.0507
  901MOL0     N21552   4.094   2.238   0.418  0.0884  0.5881  0.6438
  901MOL0     C21553   2.902   2.320   0.164  0.7511  0.4514  0.0458
  901MOL0     C21554   2.770   2.307   0.132  0.4634  0.1113 -0.0862
  901MOL0     C21555   2.352   2.337   0.166  0.0832 -0.3683 -0.2568
  901MOL0     C21556   2.277   2.452   0.201 -0.2065 -0.4302  0.1982
  901MOL0     C21557   2.152   2.486   0.149  0.2293 -0.3460 -0.3339
  901MOL0     C21558   2.093   2.391   0.060 -0.4777  0.7260 -0.6273
  901MOL0     O21559   1.969   2.429   0.016 -0.5273 -0.3086  1.1383
  901MOL0     C21560   1.910   2.342  -0.087  0.3775 -0.1795 -0.8727
  901MOL0     C21561   1.794   2.428  -0.136  0.0175  1.2339  0.7061
  901MOL0     C21562   1.689   2.358  -0.231 -0.0913 -0.5029 -0.2301
  901MOL0     C21563   1.622   2.240  -0.161 -0.0699 -0.7803  0.0934
  901MOL0     C21564   1.540   2.161  -0.260 -0.6798 -0.9044 -0.0263
  901MOL0     C21565   1.484   2.088  -0.341 -0.2248  0.4409  0.1550
  901MOL0     C21566   2.161   2.267   0.030  0.7470  0.7294 -0.1796
  901MOL0     C21567   2.289   2.249   0.079 -0.4114  0.8634  0.8715
  901MOL0     H21568   2.680   2.091   0.368  1.1115 -2.1586 -1.7285
  901MOL0     H21569   2.935   2.114   0.418  2.8166  0.0484 -1.8323
  901MOL0     H21570   3.099   2.296   0.497 -1.5921 -0.8387 -0.9901
  901MOL0     H21571   3.163   2.141   0.437 -2.0797 -0.2651  2.7172
  901MOL0     H21572   3.293   2.412   0.405 -0.3683 -0.0266 -2.0671
  901MOL0     H21573   3.338   2.275   0.506  0.6517  0.2834 -0.6646
  901MOL0     H21574   3.333   2.132   0.274 -0.9545  0.2458 -1.1209
  901MOL0     H21575   3.314   2.295   0.205  2.0832  1.7248  0.0614
  901MOL0     H21576   3.543   2.351   0.334  0.2906  1.4866 -2.3597
  901MOL0     H21577   3.553   2.173   0.354 -2.1613 -0.7350  0.8408
  901MOL0     H21578   3.575   2.132   0.124  0.2178 -0.2644 -1.6073
  901MOL0     H21579   3.494   2.293   0.088 -2.7164  0.7496  3.0627
  901MOL0     H21580   3.728   2.310   0.039 -1.6302 -1.0846 -1.0769
  901MOL0     H21581   3.692   2.412   0.181 -4.6367 -0.5274  0.0613
  901MOL0     H21582   3.791   2.210   0.332  2.0966  0.9910  0.8484
  901MOL0     H21583   3.851   2.150   0.178 -0.6750  0.4152 -0.7561
  901MOL0     H21584   3.935   2.420   0.303 -0.7006 -0.7605  1.9403
  901MOL0     H21585   3.955   2.362   0.140  0.2177  0.0913  1.3729
  901MOL0     H21586   4.122   2.189   0.095  1.9709 -0.2356  0.0294
  901MOL0     H21587   4.315   1.941   0.258  0.3381  0.0788  0.5931
  901MOL0     H21588   4.353   2.035   0.119 -0.3585 -2.5389  1.1002
  901MOL0     H21589   4.451   2.115   0.398 -0.4710  3.1760 -0.5453
  901MOL0     H21590   4.500   2.191   0.243 -0.3045  1.2852  1.6143
  901MOL0     H21591   4.613   2.001   0.176  1.6246  3.4700  0.5933
  901MOL0     H21592   4.550   1.897   0.309 -2.5156 -0.0578 -1.6667
  901MOL0     H21593   4.728   2.133   0.377  0.2168 -0.3632  1.5399
  901MOL0     H21594   4.789   1.977   0.324  0.8109  1.3132 -0.5041
  901MOL0     H21595   4.910   1.881   0.473  2.6906 -0.1645  1.6857
  901MOL0     H21596   5.075   1.670   0.690 -6.0254  0.8920  2.9201
  901MOL0     H21597   5.036   1.562   0.550  4.2953  0.2447 -2.2784
  901MOL0     H21598   5.090   1.729   0.519  0.0643 -0.6288 -0.9809
  901MOL0     H21599   4.837   1.451   1.094  0.2604  0.3774  1.6671
  901MOL0     H21600   4.921   1.214   1.192  1.0606 -3.8664 -1.8741
  901MOL0     H21601   4.820   0.806   1.173 -3.1137 -0.2400 -0.0111
  901MOL0     H21602   4.720   0.877   1.054 -1.1623 -1.3037  0.8114
  901MOL0     H21603   4.846   0.680   1.013  0.1425 -1.8413 -2.0107
  901MOL0     H21604   4.833   0.806   0.884 -1.0033 -0.4852  1.1380
  901MOL0     H21605   5.058   0.867   1.028 -1.0597  0.1858  0.4334
  901MOL0     H21606   5.049   0.803   0.856  5.7289  1.8413  0.9430
  901MOL0     H21607   5.079   0.634   1.111 -1.5213  1.9614 -0.2495
  901MOL0     H21608   5.075   0.574   0.941 -0.3052  0.2552 -0.4005
  901MOL0     H21609   5.287   0.643   0.895 -1.3850 -2.4674  0.3887
  901MOL0     H21610   5.284   0.589   1.063  1.0215  2.2213  2.2228
  901MOL0     H21611   5.284   0.888   1.002  0.2321 -0.5880 -1.3296
  901MOL0     H21612   5.276   0.808   1.161 -0.6517 -0.1507 -0.0908
  901MOL0     H21613   5.489   0.894   1.097 -3.7353  0.4177  1.1589
  901MOL0     H21614   5.497   0.777   0.957 -1.2126 -1.7521 -0.8272
  901MOL0     H21615   5.443   0.611   1.176  1.2748  1.0314  3.6989
  901MOL0     H21616   5.552   0.716   1.241  0.6405 -1.4689 -0.5013
  901MOL0     H21617   4.750   1.015   0.868 -2.3347 -0.2645  0.4068
  901MOL0     H21618   4.657   1.226   0.774 -2.5987 -0.2566  1.5293
  901MOL0     H21619   4.586   1.641   0.750 -1.4241  0.4904 -2.4613
  901MOL0     H21620   4.526   1.817   0.632  0.0992 -2.4113  3.3604
  901MOL0     H21621   2.952   2.403   0.116  0.5072  0.4890 -0.1415
  901MOL0     H21622   2.727   2.364   0.050  2.2834  3.1948  0.9289
  901MOL0     H21623   2.308   2.527   0.273 -0.8088  1.2797 -1.2385
  901MOL0     H21624   2.094   2.574   0.173 -0.1369 -0.8448  0.6766
  901MOL0     H21625   1.982   2.313  -0.164  1.2861 -0.1127 -0.0610
  901MOL0     H21626   1.872   2.249  -0.043  1.3121 -1.1816 -2.1404
  901MOL0     H21627   1.840   2.505  -0.199 -3.0555  0.0571 -3.3759
  901MOL0     H21628   1.739   2.483  -0.059 -1.2591 -1.9267  2.2180
  901MOL0     H21629   1.745   2.337  -0.322 -0.9087  1.2301 -1.1944
  901MOL0     H21630   1.614   2.435  -0.255  0.2622 -0.6829 -1.9837
  901MOL0     H21631   1.543   2.279  -0.095 -0.9549 -1.4994 -0.5096
  901MOL0     H21632   1.691   2.181  -0.100  1.2255  1.4714  0.9448
  901MOL0     H21633   1.450   2.027  -0.422  4.4575 -3.1348  0.4400
  901MOL0     H21634   2.123   2.194  -0.042  2.9691 -0.2449 -0.4330
  901MOL0     H21635   2.341   2.154   0.075 -0.8833  0.6243  0.0963
  902MOL0     O21636   9.083   8.722   0.200 -0.7591  0.2403  0.2217
  902MOL0     C21637   8.966   8.711   0.155 -0.2766 -0.2725 -0.0858
  902MOL0     O21638   8.887   8.598   0.149 -0.4424  0.2918 -0.5234
  902MOL0     C21639   8.951   8.473   0.154  0.3758 -0.4339 -0.2384
  902MOL0     C21640   9.066   8.447   0.228 -0.3243 -1.0474  0.5004
  902MOL0     C21641   9.130   8.323   0.208  0.0678 -0.5211  0.4574
  902MOL0     C21642   9.069   8.222   0.133  0.3414 -0.2649  0.2669
  902MOL0     O21643   9.114   8.098   0.140 -0.4714  0.3977  0.2319
  902MOL0     C21644   9.257   8.067   0.119 -1.0508  0.2024 -0.2239
  902MOL0     C21645   9.316   8.109  -0.024  0.5842  0.6430 -0.1954
  902MOL0     C21646   9.234   8.043  -0.140 -0.1735 -0.3147  0.8340
  902MOL0     C21647   9.287   8.103  -0.278 -0.2838 -0.6707  0.1382
  902MOL0     C21648   9.253   8.021  -0.403  0.1123  0.2296  0.7847
  902MOL0     C21649   9.102   8.003  -0.429 -0.3686 -0.7368 -0.5030
  902MOL0     C21650   9.062   7.932  -0.552 -0.5147  0.0908  1.1484
  902MOL0     C21651   9.051   8.026  -0.677  0.4975 -0.0825 -0.0232
  902MOL0     N21652   9.036   7.967  -0.803 -0.1058 -0.2483  0.0080
  902MOL0     C21653   8.939   7.869  -0.834  0.7806 -0.2298  0.0235
  902MOL0     C21654   8.983   7.836  -0.957  0.4485 -0.0172  0.3402
  902MOL0     C21655   8.934   7.733  -1.054 -0.3569 -0.2136 -0.0171
  902MOL0     C21656   8.792   7.688  -1.021 -0.5010 -0.2751  0.2293
  902MOL0     C21657   8.695   7.794  -1.077  1.3981  0.6506 -0.1254
  902MOL0     C21658   8.541   7.769  -1.047 -0.6977 -0.3595 -0.0051
  902MOL0     O21659   8.526   7.795  -0.909 -0.5729 -0.0083 -0.4056
  902MOL0     C21660   8.411   7.789  -0.845 -0.0393 -0.1322  0.1908
  902MOL0     C21661   8.396   7.885  -0.753  0.0379  0.8416  0.7455
  902MOL0     C21662   8.282   7.900  -0.674  1.2122  0.6831 -0.4215
  902MOL0     C21663   8.287   8.019  -0.568 -0.0627 -0.1843  0.0306
  902MOL0     C21664   8.171   7.820  -0.713 -0.9093 -0.2103 -0.1810
  902MOL0     C21665   8.037   7.846  -0.653 -0.4343 -0.9315 -1.1810
  902MOL0     O21666   7.952   7.740  -0.647 -0.9463 -0.8378 -0.1630
  902MOL0     C21667   7.825   7.743  -0.604  0.5526  0.3602 -0.6511
  902MOL0     C21668   7.767   7.625  -0.584  0.5561 -0.0481  0.0120
  902MOL0     C21669   7.627   7.602  -0.555 -0.3374 -0.1478 -0.8314
  902MOL0     C21670   7.552   7.713  -0.535  0.6700 -0.2664  0.2095
  902MOL0     O21671   7.418   7.702  -0.509  0.5423  0.0450  0.2610
  902MOL0     C21672   7.340   7.579  -0.516  0.5254 -0.2107  1.0788
  902MOL0     C21673   7.215   7.608  -0.437  0.7085  0.4128  0.4972
  902MOL0     C21674   7.240   7.605  -0.286 -0.9566  0.4667 -0.0942
  902MOL0     C21675   7.119   7.631  -0.195  0.4001 -0.6165  0.8142
  902MOL0     C21676   7.155   7.646  -0.048 -1.2253 -0.4789 -0.8108
  902MOL0     C21677   7.221   7.524   0.014 -0.7529  0.5939 -0.1985
  902MOL0     C21678   7.229   7.519   0.169  0.7622  0.5585 -0.7439
  902MOL0     C21679   7.260   7.377   0.238 -0.3713 -0.2500 -0.7883
  902MOL0    Cl21680   7.166   7.252   0.161 -0.3187 -0.5244 -0.5961
  902MOL0     C21681   7.609   7.844  -0.535 -1.3140 -0.0301  0.0925
  902MOL0     C21682   7.745   7.861  -0.571 -0.4752  0.8277  0.0758
  902MOL0     O21683   8.011   7.955  -0.602 -0.4953 -0.5685  0.0848
  902MOL0     C21684   8.188   7.714  -0.808 -0.4584 -0.7396 -0.1048
  902MOL0     C21685   8.307   7.706  -0.881 -0.0754  0.9663 -0.4085
  902MOL0     N21686   9.088   7.912  -0.999  0.2930  0.2709  0.4259
  902MOL0     N21687   9.131   7.984  -0.905  0.2417 -0.2638 -0.4471
  902MOL0     C21688   8.937   8.249   0.084 -0.5520 -0.7853 -0.6868
  902MOL0     C21689   8.870   8.375   0.101 -0.3140 -0.4327 -0.2685
  902MOL0     C21690   8.907   8.828   0.086  0.1726  1.0037  0.5749
  902MOL0     C21691   8.772   8.829   0.024 -0.4742  0.0810  0.2724
  902MOL0     C21692   8.720   8.940  -0.046 -0.3781  0.4780  0.1557
  902MOL0     C21693   8.799   9.064  -0.043  0.1279  0.1364  0.4120
  902MOL0     O21694   8.748   9.187  -0.084  0.0207  0.3147 -0.0954
  902MOL0     C21695   8.611   9.214  -0.050  0.2424 -0.0653  0.3006
  902MOL0     C21696   8.596   9.361   0.001 -0.5707  0.1784  0.8000
  902MOL0     C21697   8.638   9.383   0.149 -0.8091 -0.6058  0.5035
  902MOL0     C21698   8.642   9.523   0.208 -0.3368  0.6469 -0.0748
  902MOL0     C21699   8.543   9.611   0.153  0.3167 -0.9171 -0.4209
  902MOL0     C21700   8.464   9.690   0.105 -0.5136 -0.0175 -0.2923
  902MOL0     C21701   8.931   9.062   0.013  0.7804  0.1574  0.3026
  902MOL0     C21702   8.974   8.950   0.083  0.1014  0.9858  0.0011
  902MOL0     H21703   9.125   8.516   0.288 -2.7446  0.7196  1.0347
  902MOL0     H21704   9.223   8.304   0.261 -0.1715  0.3991  1.2560
  902MOL0     H21705   9.316   8.105   0.203 -4.1462 -0.9068  2.6900
  902MOL0     H21706   9.264   7.958   0.125 -1.2495  0.2600  1.6967
  902MOL0     H21707   9.300   8.217  -0.028 -2.7951  0.2145 -3.8400
  902MOL0     H21708   9.421   8.091  -0.051  0.7180 -1.3961  1.4084
  902MOL0     H21709   9.249   7.935  -0.150 -2.5788 -0.4942 -2.2809
  902MOL0     H21710   9.126   8.062  -0.139  0.3057  3.2655 -0.6447
  902MOL0     H21711   9.257   8.207  -0.291 -3.5283 -1.4923  0.1589
  902MOL0     H21712   9.395   8.099  -0.258 -0.7822  2.5907  5.2546
  902MOL0     H21713   9.275   8.080  -0.493 -2.7508  0.9863  0.4683
  902MOL0     H21714   9.300   7.923  -0.407 -0.5729 -0.1253  1.2287
  902MOL0     H21715   9.058   7.952  -0.342 -0.8762 -0.5216 -0.6284
  902MOL0     H21716   9.059   8.103  -0.431  0.8986 -0.1600  0.1333
  902MOL0     H21717   9.142   7.858  -0.567 -0.7141 -0.9570  4.5125
  902MOL0     H21718   8.973   7.874  -0.527 -0.2234 -0.8779  0.0662
  902MOL0     H21719   9.136   8.095  -0.679 -2.6877  4.2272  0.1559
  902MOL0     H21720   8.968   8.094  -0.659  1.7357  1.8109 -1.1829
  902MOL0     H21721   8.851   7.836  -0.780 -0.1538 -2.8823 -2.8250
  902MOL0     H21722   8.944   7.781  -1.152  0.8420 -3.1246 -1.4412
  902MOL0     H21723   9.002   7.647  -1.052 -0.4453 -0.2745  0.9794
  902MOL0     H21724   8.767   7.663  -0.918  1.9196  0.0310  0.9493
  902MOL0     H21725   8.781   7.589  -1.066 -3.2302 -1.4672  3.1137
  902MOL0     H21726   8.714   7.800  -1.185  2.0647 -2.1286 -0.2404
  902MOL0     H21727   8.713   7.897  -1.043  1.0746 -0.1668  2.7905
  902MOL0     H21728   8.510   7.667  -1.072 -2.5144  0.5130 -1.5168
  902MOL0     H21729   8.479   7.841  -1.101  1.1093  1.1866 -0.1392
  902MOL0     H21730   8.487   7.944  -0.749  1.1867 -0.2769 -3.4011
  902MOL0     H21731   8.384   8.065  -0.586 -1.6976  3.2482 -0.7931
  902MOL0     H21732   8.216   8.100  -0.584  1.0066  0.7388 -0.1367
  902MOL0     H21733   8.285   7.982  -0.465  0.2191 -2.0640 -0.5861
  902MOL0     H21734   7.830   7.538  -0.598 -1.0874 -1.1542 -0.8685
  902MOL0     H21735   7.594   7.500  -0.541 -0.7941  0.1727  0.5930
  902MOL0     H21736   7.320   7.553  -0.621  0.9880  0.7498  0.7470
  902MOL0     H21737   7.386   7.487  -0.479 -0.8715 -0.5467  2.0621
  902MOL0     H21738   7.184   7.706  -0.474 -1.5496 -0.9094 -1.3238
  902MOL0     H21739   7.138   7.535  -0.463  0.1247  0.3364  2.2674
  902MOL0     H21740   7.309   7.685  -0.259  0.4264 -0.6622 -0.2029
  902MOL0     H21741   7.292   7.513  -0.262 -0.4563  1.1168  1.4053
  902MOL0     H21742   7.064   7.722  -0.221  3.6686  1.3061  0.1714
  902MOL0     H21743   7.050   7.546  -0.194 -0.1270 -0.1948  1.4659
  902MOL0     H21744   7.072   7.670   0.019 -0.0849  2.6048 -0.3396
  902MOL0     H21745   7.214   7.739  -0.047 -2.6597  0.4920 -1.8002
  902MOL0     H21746   7.156   7.441  -0.015  1.1470 -0.5381 -1.5453
  902MOL0     H21747   7.323   7.514  -0.025 -0.5929 -0.1457  0.3831
  902MOL0     H21748   7.132   7.543   0.214  1.7620 -0.4353  2.1305
  902MOL0     H21749   7.294   7.606   0.184  0.3391  1.1089 -1.9601
  902MOL0     H21750   7.219   7.379   0.339  1.7757 -1.6587  0.1675
  902MOL0     H21751   7.368   7.361   0.248 -0.4904  0.5805  3.0558
  902MOL0     H21752   7.545   7.930  -0.517 -0.2830  0.4359  1.6493
  902MOL0     H21753   7.784   7.963  -0.572  0.9188  0.3333 -2.1826
  902MOL0     H21754   8.106   7.651  -0.841 -1.2378 -0.0939  0.5566
  902MOL0     H21755   8.312   7.632  -0.960  0.2357 -0.7219  1.1366
  902MOL0     H21756   8.866   8.173   0.054 -0.7417 -0.8833 -0.0145
  902MOL0     H21757   8.769   8.404   0.072 -0.1540  1.2728  0.7339
  902MOL0     H21758   8.719   8.735   0.028 -2.2435  0.9289 -1.5902
  902MOL0     H21759   8.621   8.937  -0.090 -1.7760 -0.0937  3.1632
  902MOL0     H21760   8.551   9.205  -0.141  0.2272 -0.2010  0.3243
  902MOL0     H21761   8.581   9.138   0.023  1.9897 -3.1287 -1.9464
  902MOL0     H21762   8.498   9.403  -0.022  0.1253  1.0271 -0.8162
  902MOL0     H21763   8.680   9.423  -0.034 -0.5535 -0.1265  0.2957
  902MOL0     H21764   8.731   9.330   0.171  0.0869  0.2384 -1.0731
  902MOL0     H21765   8.557   9.330   0.200  0.4228 -2.2065  0.8763
  902MOL0     H21766   8.737   9.558   0.167 -0.3083 -0.2105 -0.7697
  902MOL0     H21767   8.637   9.512   0.317  1.7471 -0.6505 -0.0541
  902MOL0     H21768   8.405   9.772   0.068  0.3061  0.9871  0.5412
  902MOL0     H21769   8.988   9.153   0.024 -1.4126  1.9465 -1.7713
  902MOL0     H21770   9.065   8.953   0.142  0.1353  2.2578 -0.0961
  903MOL0     O21771   3.663   3.270   6.690 -0.1410  0.1930  0.1646
  903MOL0     C21772   3.754   3.292   6.770 -0.5438 -0.2353 -0.1188
  903MOL0     O21773   3.881   3.243   6.752 -0.4260 -0.7822  0.2453
  903MOL0     C21774   3.916   3.184   6.632 -0.1536  0.2741 -0.2320
  903MOL0     C21775   3.897   3.240   6.505  0.4560  0.7107 -0.5392
  903MOL0     C21776   3.945   3.172   6.387 -0.0827 -0.3461  0.1699
  903MOL0     C21777   3.994   3.036   6.405  0.1414 -0.5897  0.0663
  903MOL0     O21778   4.020   2.970   6.285 -0.0239  0.0493  0.0883
  903MOL0     C21779   4.122   2.869   6.286 -0.0989  0.4164  0.3182
  903MOL0     C21780   4.129   2.830   6.141  1.2924  0.3752  0.3644
  903MOL0     C21781   4.200   2.696   6.114  0.4872 -0.1730 -0.3465
  903MOL0     C21782   4.217   2.670   5.961  0.6419 -1.3432 -0.2732
  903MOL0     C21783   4.268   2.529   5.940 -0.5747 -0.0090  0.6955
  903MOL0     C21784   4.280   2.493   5.790 -0.1093 -0.0087  0.5848
  903MOL0     C21785   4.139   2.481   5.729  0.6016 -0.3228 -0.6678
  903MOL0     C21786   4.151   2.432   5.579 -0.1042  0.1734 -0.1371
  903MOL0     N21787   4.227   2.534   5.499 -0.1777 -0.3561 -0.7011
  903MOL0     C21788   4.177   2.657   5.452  0.6763  0.7893 -0.6263
  903MOL0     C21789   4.279   2.713   5.390  0.2143  0.1452  0.5730
  903MOL0     C21790   4.266   2.839   5.309 -0.3399  0.2091 -0.2791
  903MOL0     C21791   4.299   2.818   5.158 -0.2534 -0.1335  0.1913
  903MOL0     C21792   4.170   2.776   5.085 -0.8112  0.1148 -0.1829
  903MOL0     C21793   4.195   2.738   4.944  0.6361  0.1003  0.3430
  903MOL0     O21794   4.218   2.857   4.869 -0.2445 -0.6019  0.4605
  903MOL0     C21795   4.290   2.835   4.749  0.5237 -0.0736 -0.0844
  903MOL0     C21796   4.270   2.738   4.656 -0.4205 -0.2683 -0.4725
  903MOL0     C21797   4.353   2.731   4.542  0.3542  1.0176  0.0725
  903MOL0     C21798   4.321   2.620   4.441 -0.1796  0.0856  0.2275
  903MOL0     C21799   4.462   2.819   4.527 -0.0744  0.2000 -0.2898
  903MOL0     C21800   4.559   2.823   4.418 -1.0251 -0.2497 -0.0422
  903MOL0     O21801   4.589   2.943   4.367 -0.0267  0.3309  0.6014
  903MOL0     C21802   4.687   2.961   4.275  0.6462  1.1692 -0.5939
  903MOL0     C21803   4.805   2.904   4.304 -0.6068 -0.5019 -0.2205
  903MOL0     C21804   4.916   2.946   4.229  0.0013 -0.1874  0.8414
  903MOL0     C21805   4.910   3.050   4.125  0.3977  0.6970 -0.4008
  903MOL0     O21806   5.022   3.089   4.049  0.5806 -0.2228  0.1745
  903MOL0     C21807   5.006   3.193   3.961 -0.4447 -0.3409 -0.7782
  903MOL0     C21808   5.143   3.224   3.898  0.0168 -0.5364  0.1634
  903MOL0     C21809   5.185   3.141   3.784  0.6398  0.6086  0.1815
  903MOL0     C21810   5.332   3.174   3.756  0.0394 -0.3196 -0.6875
  903MOL0     C21811   5.388   3.102   3.631  0.4516  0.8984  0.0164
  903MOL0     C21812   5.531   3.152   3.592 -0.1982 -0.3110  0.0373
  903MOL0     C21813   5.518   3.280   3.496 -0.1553 -0.1230 -0.1483
  903MOL0     C21814   5.639   3.368   3.505 -0.0445 -0.7144  0.3072
  903MOL0    Cl21815   5.602   3.538   3.468  0.4775 -0.0208 -0.2247
  903MOL0     C21816   4.780   3.101   4.121  0.0866 -0.0628 -0.0722
  903MOL0     C21817   4.679   3.069   4.192  0.7666  1.1068  0.0861
  903MOL0     O21818   4.614   2.713   4.381  1.2370  0.5109  0.2766
  903MOL0     C21819   4.483   2.915   4.630  0.4182 -0.7965 -0.2344
  903MOL0     C21820   4.389   2.933   4.732 -0.8766 -1.1307 -0.7963
  903MOL0     N21821   4.389   2.628   5.403  1.0214 -0.6819  0.1662
  903MOL0     N21822   4.359   2.531   5.475  0.2791  1.0210 -0.7441
  903MOL0     C21823   4.004   2.984   6.534  0.2158 -0.4805 -0.2551
  903MOL0     C21824   3.977   3.055   6.647  0.1135  0.1260 -0.8632
  903MOL0     C21825   3.724   3.345   6.904 -0.0980 -1.0034 -0.3032
  903MOL0     C21826   3.587   3.378   6.939  0.3289  0.8592  0.1548
  903MOL0     C21827   3.560   3.440   7.055  0.3041  0.6177  0.0518
  903MOL0     C21828   3.656   3.481   7.146 -1.0364 -0.2533 -0.2538
  903MOL0     O21829   3.620   3.540   7.265 -0.1084 -0.3105  1.0891
  903MOL0     C21830   3.687   3.505   7.386  0.6053 -1.3588 -0.4536
  903MOL0     C21831   3.656   3.373   7.439 -0.2951  0.8359  0.3081
  903MOL0     C21832   3.602   3.354   7.583 -0.2293  0.7386  0.2008
  903MOL0     C21833   3.718   3.362   7.684  0.6305  0.4680  0.0165
  903MOL0     C21834   3.647   3.334   7.806  0.2147  0.0894 -0.3853
  903MOL0     C21835   3.596   3.297   7.905  0.2147 -1.0572 -0.1759
  903MOL0     C21836   3.797   3.464   7.104 -0.2198  0.9022 -0.3780
  903MOL0     C21837   3.830   3.388   6.989 -0.0804 -0.1848  0.0669
  903MOL0     H21838   3.846   3.336   6.505  0.4330  0.9686  4.3706
  903MOL0     H21839   3.962   3.232   6.298 -1.9248 -0.0146 -0.0031
  903MOL0     H21840   4.219   2.908   6.317  0.9261 -0.7650 -1.2595
  903MOL0     H21841   4.083   2.784   6.343 -0.3457 -1.3845 -2.3492
  903MOL0     H21842   4.031   2.824   6.093  2.7983 -0.2028 -2.9116
  903MOL0     H21843   4.187   2.907   6.089  2.1481  0.6002  1.5996
  903MOL0     H21844   4.299   2.704   6.159  0.5118 -3.0137  0.2842
  903MOL0     H21845   4.149   2.610   6.159 -1.8336 -0.4892 -3.1863
  903MOL0     H21846   4.122   2.697   5.915  1.6154 -1.8703 -2.7570
  903MOL0     H21847   4.297   2.729   5.915  0.0946  0.0760  0.5206
  903MOL0     H21848   4.361   2.516   5.996  0.5484  2.8284 -0.2973
  903MOL0     H21849   4.216   2.458   6.004 -1.5523  1.1198  1.2051
  903MOL0     H21850   4.323   2.575   5.732  3.0889 -0.8110  1.6052
  903MOL0     H21851   4.340   2.402   5.774 -1.0445 -0.2894 -1.7860
  903MOL0     H21852   4.083   2.402   5.780  0.1566  0.3852 -0.0462
  903MOL0     H21853   4.089   2.578   5.731  3.5046  1.2998 -1.2011
  903MOL0     H21854   4.052   2.415   5.535 -0.0412  0.7207 -0.4967
  903MOL0     H21855   4.201   2.334   5.582 -1.9094 -0.7772  0.4078
  903MOL0     H21856   4.076   2.696   5.462  0.0368 -1.0197  0.6944
  903MOL0     H21857   4.166   2.881   5.320  0.3536  1.7468  0.4866
  903MOL0     H21858   4.323   2.912   5.368  0.5729 -1.4013  0.9208
  903MOL0     H21859   4.389   2.759   5.142  0.4105  1.2887 -1.7005
  903MOL0     H21860   4.332   2.911   5.110  5.6564 -0.7668  2.2695
  903MOL0     H21861   4.109   2.866   5.096 -1.6787 -0.7675  3.2575
  903MOL0     H21862   4.121   2.697   5.143 -2.5197  0.6283 -0.8852
  903MOL0     H21863   4.102   2.700   4.902  1.2331 -0.8698 -0.1128
  903MOL0     H21864   4.271   2.660   4.939 -1.0620 -1.6967  1.1101
  903MOL0     H21865   4.191   2.665   4.665  1.8513 -2.8115  0.1780
  903MOL0     H21866   4.387   2.612   4.354 -0.0812 -2.8741  0.4780
  903MOL0     H21867   4.348   2.521   4.478  1.4075  0.4937  0.2400
  903MOL0     H21868   4.217   2.622   4.408 -0.9259 -0.2745  2.3697
  903MOL0     H21869   4.815   2.833   4.385 -0.0800  0.1055  0.2648
  903MOL0     H21870   5.017   2.914   4.249  1.0023  2.5289  0.5239
  903MOL0     H21871   4.917   3.176   3.899 -1.2373  1.2273 -0.1372
  903MOL0     H21872   4.983   3.283   4.019  1.4043  0.1481 -0.7244
  903MOL0     H21873   5.147   3.327   3.860 -0.6552 -1.1006 -1.5716
  903MOL0     H21874   5.213   3.224   3.982  1.4557  4.6566 -0.6242
  903MOL0     H21875   5.107   3.156   3.709  0.9075  0.5076 -0.1182
  903MOL0     H21876   5.172   3.038   3.817 -1.8597  1.3645  1.8727
  903MOL0     H21877   5.337   3.282   3.740 -2.7316 -0.1645 -0.9707
  903MOL0     H21878   5.389   3.141   3.843 -0.3243  4.7843  1.8461
  903MOL0     H21879   5.313   3.119   3.553 -0.9317  0.7068  1.2604
  903MOL0     H21880   5.384   2.993   3.641 -2.9988  0.9082  0.1720
  903MOL0     H21881   5.586   3.176   3.684 -2.0798 -2.6606  1.9001
  903MOL0     H21882   5.588   3.067   3.553 -1.3773 -1.6798  1.1769
  903MOL0     H21883   5.434   3.345   3.522 -0.6110 -0.2657 -1.2296
  903MOL0     H21884   5.519   3.249   3.392  1.0586  0.6404 -0.3894
  903MOL0     H21885   5.709   3.333   3.428  0.2744 -1.4355  0.9041
  903MOL0     H21886   5.694   3.344   3.596  1.1508 -3.8554 -1.0870
  903MOL0     H21887   4.755   3.175   4.045 -0.3388 -0.7088 -0.5760
  903MOL0     H21888   4.582   3.117   4.185  0.7422  0.8649 -1.5371
  903MOL0     H21889   4.567   2.984   4.638  1.7665 -2.1144 -2.1848
  903MOL0     H21890   4.384   3.010   4.808 -1.9101 -4.3091  2.6730
  903MOL0     H21891   4.046   2.884   6.544  2.1519  0.0003 -2.6047
  903MOL0     H21892   3.971   3.010   6.745  1.8412  1.4289 -0.1091
  903MOL0     H21893   3.510   3.341   6.872  1.3837 -2.1139  0.4213
  903MOL0     H21894   3.466   3.471   7.100  1.0745  1.0384  1.4380
  903MOL0     H21895   3.794   3.523   7.373  0.2635 -0.4954 -2.4572
  903MOL0     H21896   3.655   3.584   7.456  0.1731  0.9933 -3.1311
  903MOL0     H21897   3.744   3.309   7.429  0.4832  1.7562  1.0219
  903MOL0     H21898   3.579   3.338   7.370  0.8154  3.4000 -2.4933
  903MOL0     H21899   3.544   3.263   7.597  2.5055 -0.9089  1.8580
  903MOL0     H21900   3.528   3.431   7.605 -2.0906 -0.4279 -1.6713
  903MOL0     H21901   3.754   3.465   7.681  0.9824  0.3267 -1.6463
  903MOL0     H21902   3.802   3.291   7.680  0.1092 -0.2661  1.3541
  903MOL0     H21903   3.549   3.257   7.993  1.3605  0.7184  1.3061
  903MOL0     H21904   3.876   3.504   7.167  1.3192  0.5209 -1.9801
  903MOL0     H21905   3.935   3.368   6.973  0.7467  1.6575  2.4720
  904MOL0     O21906   5.121   3.171   1.781 -0.2486  0.2490  0.0346
  904MOL0     C21907   5.035   3.180   1.699 -0.5519 -0.0215 -0.3753
  904MOL0     O21908   5.024   3.089   1.590  0.3046 -0.6102 -0.4609
  904MOL0     C21909   5.079   2.967   1.588 -0.6135  0.5366  0.0117
  904MOL0     C21910   5.137   2.916   1.467 -0.7434 -0.0350  0.1123
  904MOL0     C21911   5.200   2.791   1.465  1.0598 -0.3079 -0.7227
  904MOL0     C21912   5.218   2.719   1.584  0.0788  0.4309  0.5447
  904MOL0     O21913   5.289   2.599   1.581  0.6167 -0.0784  1.5776
  904MOL0     C21914   5.311   2.529   1.703  0.0121 -0.3218 -0.1917
  904MOL0     C21915   5.199   2.444   1.767 -0.9905 -0.2946 -0.2355
  904MOL0     C21916   5.181   2.322   1.692  0.6492  0.5891 -0.0568
  904MOL0     C21917   5.091   2.214   1.755  0.1268  0.8055 -0.0342
  904MOL0     C21918   5.146   2.145   1.882 -0.4342  0.7107  0.1745
  904MOL0     C21919   5.042   2.051   1.949  0.2364  0.1821 -0.1126
  904MOL0     C21920   5.103   1.922   1.965 -0.3237 -0.1189  0.2328
  904MOL0     C21921   5.175   1.926   2.094 -0.5569  0.7758 -1.4051
  904MOL0     N21922   5.220   1.791   2.131 -0.2982 -0.0632 -0.5666
  904MOL0     C21923   5.286   1.693   2.054  0.1304  0.4713 -0.0621
  904MOL0     C21924   5.328   1.603   2.150 -0.5674  1.4284  0.3782
  904MOL0     C21925   5.407   1.473   2.135  0.0836 -0.0523 -0.1187
  904MOL0     C21926   5.326   1.352   2.175  0.7216  0.2591 -0.2126
  904MOL0     C21927   5.395   1.215   2.165 -0.8406 -0.0787 -0.5086
  904MOL0     C21928   5.511   1.201   2.270 -0.2615 -0.4701  0.1448
  904MOL0     O21929   5.598   1.091   2.229 -0.7597  0.3028  0.5187
  904MOL0     C21930   5.673   1.116   2.119 -0.2753 -0.2132 -0.4829
  904MOL0     C21931   5.744   1.007   2.090  0.2390  0.6496 -0.4506
  904MOL0     C21932   5.823   0.986   1.980  0.1376 -0.0850  0.6234
  904MOL0     C21933   5.887   0.846   1.961 -0.3005  0.1032 -0.1627
  904MOL0     C21934   5.811   1.091   1.882 -0.0017 -0.0140 -0.0451
  904MOL0     C21935   5.876   1.084   1.754  1.0297 -1.0994 -0.6967
  904MOL0     O21936   5.858   0.973   1.678  1.1308 -0.4157  0.0458
  904MOL0     C21937   5.883   0.989   1.547  0.2344  0.3135 -0.5321
  904MOL0     C21938   5.767   0.952   1.461  1.7259 -0.9176  0.2189
  904MOL0     C21939   5.787   0.949   1.332 -0.1525  1.2567 -0.1366
  904MOL0     C21940   5.914   0.989   1.281  0.0967  0.2434  0.6059
  904MOL0     O21941   5.928   0.988   1.146  0.1786 -0.0188  0.4902
  904MOL0     C21942   5.825   1.057   1.063  0.6155  1.4476 -0.4816
  904MOL0     C21943   5.880   1.045   0.923  0.6904 -0.0527  0.1136
  904MOL0     C21944   5.777   0.989   0.824  0.2381  0.0029 -0.0869
  904MOL0     C21945   5.825   0.959   0.686  0.8090  0.6895  0.0387
  904MOL0     C21946   5.840   1.086   0.595 -0.3716 -0.4372  0.0845
  904MOL0     C21947   5.825   1.057   0.450 -0.7996 -0.7327  0.6805
  904MOL0     C21948   5.862   1.173   0.360  0.7106  0.2930 -0.4833
  904MOL0     C21949   5.828   1.147   0.214 -0.0911 -0.1468  0.5486
  904MOL0    Cl21950   5.907   1.274   0.120 -0.0916 -0.2786 -0.0952
  904MOL0     C21951   6.023   1.023   1.358 -0.6631 -0.4241  0.0120
  904MOL0     C21952   6.008   1.012   1.495 -0.8015 -1.4689  0.0359
  904MOL0     O21953   5.934   1.183   1.713 -0.6425  0.6557 -0.1333
  904MOL0     C21954   5.749   1.215   1.915 -0.0100  0.4734  0.2378
  904MOL0     C21955   5.683   1.230   2.037 -0.7163 -0.1704 -0.1159
  904MOL0     N21956   5.288   1.650   2.272 -0.2637  0.7901 -0.1919
  904MOL0     N21957   5.233   1.763   2.264  0.0185 -1.0470 -0.4152
  904MOL0     C21958   5.153   2.771   1.696  0.3470 -0.1178 -0.7540
  904MOL0     C21959   5.079   2.889   1.707 -0.9696 -0.5161 -0.0624
  904MOL0     C21960   4.948   3.295   1.707  0.2770 -1.0283 -0.4138
  904MOL0     C21961   4.882   3.346   1.592 -0.4795 -0.6766  0.3439
  904MOL0     C21962   4.817   3.476   1.587  0.4339  0.3241  0.1305
  904MOL0     C21963   4.814   3.555   1.707 -0.3457  0.6881  0.1456
  904MOL0     O21964   4.760   3.678   1.719 -0.2024 -0.0816  0.4065
  904MOL0     C21965   4.753   3.756   1.601  0.9654 -0.5708 -0.0397
  904MOL0     C21966   4.613   3.774   1.537  0.8149 -0.2095  0.1425
  904MOL0     C21967   4.493   3.793   1.634 -0.0612  0.1858 -0.3780
  904MOL0     C21968   4.399   3.672   1.631 -0.3797  0.4305 -0.0360
  904MOL0     C21969   4.332   3.667   1.504  0.5427  0.0506 -0.0597
  904MOL0     C21970   4.290   3.634   1.395 -1.4582  0.3845 -0.0230
  904MOL0     C21971   4.859   3.487   1.817  0.9740 -0.5304  0.1049
  904MOL0     C21972   4.929   3.370   1.823  0.3574  0.3287 -0.0167
  904MOL0     H21973   5.148   2.988   1.386  0.0728  2.3837  2.2194
  904MOL0     H21974   5.247   2.751   1.375 -0.7105 -2.1088 -0.9127
  904MOL0     H21975   5.403   2.470   1.692 -0.1455 -0.9483  1.5776
  904MOL0     H21976   5.335   2.601   1.781 -3.1215  2.0812 -1.2362
  904MOL0     H21977   5.236   2.428   1.869 -2.7614  0.5149  0.5751
  904MOL0     H21978   5.102   2.495   1.773 -0.1365  1.5368 -1.2453
  904MOL0     H21979   5.135   2.357   1.599 -2.2755  0.9530  1.4131
  904MOL0     H21980   5.274   2.268   1.671 -0.4585 -1.8871  0.9409
  904MOL0     H21981   4.994   2.264   1.764 -1.2461 -1.5765 -0.7250
  904MOL0     H21982   5.075   2.134   1.682  1.3912 -0.6368  1.1801
  904MOL0     H21983   5.243   2.102   1.851 -1.4781 -0.3356 -1.8709
  904MOL0     H21984   5.168   2.222   1.957  2.9337  1.0442 -0.9442
  904MOL0     H21985   5.003   2.097   2.039 -0.1184  1.0716 -0.7123
  904MOL0     H21986   4.971   2.032   1.868  2.1294 -0.5033 -1.7081
  904MOL0     H21987   5.027   1.845   1.975 -0.7363  0.4491  1.9905
  904MOL0     H21988   5.159   1.905   1.873 -0.7131  2.9914 -0.6907
  904MOL0     H21989   5.105   1.953   2.173  0.2651 -0.4634 -0.2253
  904MOL0     H21990   5.264   1.991   2.096  0.7979 -0.9844  0.5864
  904MOL0     H21991   5.293   1.689   1.945  1.1905 -1.0869  0.0435
  904MOL0     H21992   5.442   1.451   2.034  1.0811  0.0945  0.1806
  904MOL0     H21993   5.500   1.487   2.191  1.1413  1.3252 -2.0971
  904MOL0     H21994   5.241   1.339   2.107 -0.4307  0.2796  1.1725
  904MOL0     H21995   5.288   1.367   2.276  0.4361 -0.5668 -0.1913
  904MOL0     H21996   5.439   1.216   2.065 -1.6347 -1.9999 -0.9178
  904MOL0     H21997   5.333   1.126   2.170 -4.8732  2.3278 -2.7367
  904MOL0     H21998   5.478   1.180   2.372 -2.0085  2.1966  0.2242
  904MOL0     H21999   5.563   1.297   2.267 -1.3972  0.1632 -2.6689
  904MOL0     H22000   5.723   0.920   2.150 -0.3658  2.7139  2.5634
  904MOL0     H22001   5.911   0.800   2.058 -2.0997 -1.0213 -0.2158
  904MOL0     H22002   5.811   0.786   1.912  0.6578  0.1026 -1.7225
  904MOL0     H22003   5.974   0.851   1.895 -0.7134 -0.5064 -0.7604
  904MOL0     H22004   5.668   0.937   1.501  1.3513 -0.7170 -0.5997
  904MOL0     H22005   5.708   0.914   1.267 -0.6389  0.7343  0.7182
  904MOL0     H22006   5.731   1.002   1.070  2.6892 -2.5596 -1.0160
  904MOL0     H22007   5.805   1.162   1.086  0.6774  1.5859 -1.0321
  904MOL0     H22008   5.910   1.144   0.887 -1.1585  0.5585  0.1548
  904MOL0     H22009   5.968   0.980   0.921  2.2999  2.0151  0.9645
  904MOL0     H22010   5.696   1.062   0.815 -1.1254 -1.2904  1.2003
  904MOL0     H22011   5.725   0.900   0.860 -0.3718  0.3616 -0.0718
  904MOL0     H22012   5.922   0.911   0.700  0.3047  0.1027  1.8767
  904MOL0     H22013   5.748   0.895   0.643 -1.4754  3.4259 -0.2506
  904MOL0     H22014   5.928   1.144   0.627  0.1925 -0.6687 -1.0062
  904MOL0     H22015   5.757   1.154   0.617 -2.0611 -2.5373  0.4425
  904MOL0     H22016   5.906   0.985   0.433  1.3162  1.2972  1.6080
  904MOL0     H22017   5.727   1.023   0.416 -0.2283 -1.2852 -0.4633
  904MOL0     H22018   5.969   1.193   0.367  0.6843  0.2894 -0.0398
  904MOL0     H22019   5.799   1.255   0.396  1.9711  1.3679 -0.6728
  904MOL0     H22020   5.721   1.141   0.192  0.0915 -0.8683 -0.2158
  904MOL0     H22021   5.867   1.049   0.184  0.8909  0.5299 -0.4593
  904MOL0     H22022   6.120   1.044   1.313  0.8679 -1.3342  2.6616
  904MOL0     H22023   6.093   1.039   1.559 -0.9039  1.6984 -0.9658
  904MOL0     H22024   5.746   1.289   1.835 -6.6943  0.8633  0.2584
  904MOL0     H22025   5.631   1.323   2.056 -1.2798 -0.2466 -1.1827
  904MOL0     H22026   5.165   2.727   1.794  2.5442 -0.3711 -1.0825
  904MOL0     H22027   5.047   2.918   1.806  2.0391 -0.5506  1.0177
  904MOL0     H22028   4.893   3.288   1.501  0.4343 -2.2581  1.4060
  904MOL0     H22029   4.779   3.516   1.494 -3.7295 -1.5885  0.8012
  904MOL0     H22030   4.791   3.850   1.642  2.1898 -1.7387  1.6826
  904MOL0     H22031   4.830   3.725   1.529  1.9714 -3.1583  1.9784
  904MOL0     H22032   4.598   3.681   1.482  0.3744 -1.3706  2.1069
  904MOL0     H22033   4.618   3.860   1.469  0.0747 -1.3489 -1.4077
  904MOL0     H22034   4.437   3.884   1.610 -2.4631 -1.1066  0.0368
  904MOL0     H22035   4.529   3.823   1.733 -0.5152 -1.2700  0.2494
  904MOL0     H22036   4.324   3.684   1.710 -2.7321 -3.3586 -1.4116
  904MOL0     H22037   4.451   3.578   1.651 -0.1451 -0.2665 -3.3059
  904MOL0     H22038   4.250   3.631   1.296 -0.9876  0.5391 -0.2225
  904MOL0     H22039   4.845   3.550   1.904 -2.1251  0.5668 -1.0331
  904MOL0     H22040   4.976   3.326   1.911  1.8218 -0.6867 -1.2593
  905MOL0     O22041   6.043   0.108   0.801  0.3125 -0.4190 -0.4901
  905MOL0     C22042   6.092   0.133   0.913  1.2458 -0.0898 -0.3118
  905MOL0     O22043   6.026   0.167   1.025 -0.0079 -0.0986  0.1209
  905MOL0     C22044   5.889   0.162   1.031 -1.4919  0.5521 -0.8208
  905MOL0     C22045   5.798   0.234   0.944 -0.7786  0.2807 -0.8684
  905MOL0     C22046   5.661   0.222   0.942 -0.7153  0.8164 -0.4895
  905MOL0     C22047   5.604   0.147   1.051 -0.0438 -1.1293 -0.3029
  905MOL0     O22048   5.468   0.146   1.086 -0.4019 -0.8996  0.1553
  905MOL0     C22049   5.376   0.221   0.998  0.0600  0.1473  0.5751
  905MOL0     C22050   5.229   0.191   1.033  0.1291 -1.5711 -0.3468
  905MOL0     C22051   5.191   0.230   1.179  0.0426  1.3659 -0.2499
  905MOL0     C22052   5.079   0.134   1.234 -0.5162  0.8960  0.5649
  905MOL0     C22053   4.948   0.127   1.159  0.2767 -0.4758  1.5053
  905MOL0     C22054   4.888   0.271   1.159  0.1686  0.0357  0.5501
  905MOL0     C22055   4.755   0.268   1.076 -0.0856 -0.0912  0.1592
  905MOL0     C22056   4.713   0.411   1.027  0.1107  0.4991 -0.0262
  905MOL0     N22057   4.581   0.402   0.954  0.3281 -0.4429 -0.6833
  905MOL0     C22058   4.453   0.418   1.013  0.0887  0.5457 -0.8987
  905MOL0     C22059   4.376   0.447   0.911 -0.6952  0.5421 -0.0648
  905MOL0     C22060   4.226   0.475   0.911 -0.3220 -0.8854 -0.5870
  905MOL0     C22061   4.155   0.403   0.789  0.2124 -1.0085  0.1855
  905MOL0     C22062   4.036   0.483   0.752 -0.3791  1.0284  0.3469
  905MOL0     C22063   3.958   0.531   0.878  0.8039  0.0589 -0.2999
  905MOL0     O22064   3.818   0.548   0.844  0.4290  0.4837  0.6975
  905MOL0     C22065   3.724   0.553   0.939 -0.6170 -0.7234  0.6792
  905MOL0     C22066   3.744   0.542   1.075 -0.1295 -0.0943 -0.4448
  905MOL0     C22067   3.644   0.543   1.170  0.2239  0.5559 -0.5203
  905MOL0     C22068   3.688   0.554   1.317  0.5591  0.5372  0.3078
  905MOL0     C22069   3.511   0.532   1.123  0.0705 -0.4337  0.0850
  905MOL0     C22070   3.401   0.513   1.220 -0.2593 -0.0076 -0.7589
  905MOL0     O22071   3.289   0.567   1.191 -0.4286 -0.1713  0.0366
  905MOL0     C22072   3.194   0.602   1.289  0.3615  0.8368  0.5062
  905MOL0     C22073   3.232   0.677   1.403  0.0229 -0.6412 -0.2807
  905MOL0     C22074   3.142   0.696   1.506 -0.9653 -1.1175 -0.0982
  905MOL0     C22075   3.009   0.642   1.505  0.9090  0.9360 -0.7362
  905MOL0     O22076   2.928   0.658   1.618  0.4336 -0.2875  0.4603
  905MOL0     C22077   2.976   0.657   1.744  0.7784  0.1603 -0.2209
  905MOL0     C22078   2.860   0.604   1.839 -0.2240  0.1614 -0.3050
  905MOL0     C22079   2.771   0.485   1.787  0.6978 -0.0133  0.5690
  905MOL0     C22080   2.846   0.356   1.748 -0.3548 -0.7739 -0.3125
  905MOL0     C22081   2.752   0.245   1.714  0.3709  1.0012 -0.2678
  905MOL0     C22082   2.817   0.110   1.701  0.4324 -0.2303  0.6060
  905MOL0     C22083   2.719   0.009   1.641  0.3872 -0.2478  0.2495
  905MOL0     C22084   2.788  -0.125   1.619  1.0112 -0.8687  0.0573
  905MOL0    Cl22085   2.675  -0.217   1.540  0.3906 -0.0502  0.1802
  905MOL0     C22086   2.972   0.565   1.392  0.1401 -0.2144  0.1025
  905MOL0     C22087   3.065   0.551   1.287 -1.1001  0.3308 -0.2592
  905MOL0     O22088   3.423   0.449   1.321 -0.2641  0.4429  0.4594
  905MOL0     C22089   3.487   0.561   0.986  0.3397  0.2480  0.1959
  905MOL0     C22090   3.595   0.564   0.897 -0.2578  0.0654 -0.7048
  905MOL0     N22091   4.456   0.438   0.796  0.9773 -0.3427  0.2362
  905MOL0     N22092   4.572   0.412   0.822  0.3278  0.5690 -0.3892
  905MOL0     C22093   5.691   0.075   1.127 -0.3892 -0.5326 -0.0860
  905MOL0     C22094   5.829   0.079   1.124 -0.9747  0.5005  0.0976
  905MOL0     C22095   6.237   0.153   0.916  0.2904 -0.9042  0.2776
  905MOL0     C22096   6.316   0.134   0.802 -0.0140 -0.7279 -0.2204
  905MOL0     C22097   6.453   0.166   0.812  0.1180 -0.3654  0.6869
  905MOL0     C22098   6.515   0.208   0.925 -1.0070  0.5590 -0.3832
  905MOL0     O22099   6.648   0.245   0.917  0.4721  0.6381 -0.0241
  905MOL0     C22100   6.742   0.227   1.028  0.3426 -0.2293 -0.2987
  905MOL0     C22101   6.888   0.269   1.008  0.9345  0.0726  0.1067
  905MOL0     C22102   6.952   0.206   0.896 -0.6066  0.0189  0.1318
  905MOL0     C22103   6.977   0.058   0.925  0.5614  0.2101  1.1131
  905MOL0     C22104   7.087   0.041   1.027  0.9330 -0.7411  0.5981
  905MOL0     C22105   7.186   0.025   1.096  0.0892  0.1751  0.3829
  905MOL0     C22106   6.440   0.222   1.039 -0.3467  0.3867  0.6715
  905MOL0     C22107   6.301   0.184   1.034  0.9510 -0.7718 -0.0132
  905MOL0     H22108   5.847   0.292   0.866 -2.0297  2.7299  0.0901
  905MOL0     H22109   5.605   0.280   0.869 -0.6471  0.8749 -0.4955
  905MOL0     H22110   5.411   0.324   1.007 -3.1939  1.2717  1.7144
  905MOL0     H22111   5.398   0.179   0.899  1.0871  0.4964  0.6479
  905MOL0     H22112   5.161   0.224   0.954 -0.1131  0.2856  0.5664
  905MOL0     H22113   5.227   0.082   1.030  1.8457 -1.6272 -3.5346
  905MOL0     H22114   5.278   0.236   1.246  0.3665 -0.3601 -0.4675
  905MOL0     H22115   5.141   0.324   1.153 -1.1108 -0.0088 -3.4589
  905MOL0     H22116   5.131   0.038   1.232  1.2837  1.8434 -0.6066
  905MOL0     H22117   5.064   0.169   1.337 -0.4912 -1.3284  1.3699
  905MOL0     H22118   4.971   0.094   1.058  1.5347  0.2997  1.5094
  905MOL0     H22119   4.886   0.044   1.195  0.1852 -1.5151 -0.8597
  905MOL0     H22120   4.866   0.304   1.261  0.1750  0.8737  0.2893
  905MOL0     H22121   4.951   0.349   1.116  0.2165  0.1269  0.7876
  905MOL0     H22122   4.759   0.208   0.985  0.6587 -1.7392  1.2419
  905MOL0     H22123   4.674   0.225   1.136 -1.1655 -0.8599 -1.7488
  905MOL0     H22124   4.792   0.442   0.959 -0.3069  1.3265 -0.1510
  905MOL0     H22125   4.703   0.484   1.107  1.9267  1.8978 -1.0106
  905MOL0     H22126   4.427   0.411   1.118 -4.1342 -0.1907 -1.8259
  905MOL0     H22127   4.164   0.460   1.000  0.7273  4.3287  1.4054
  905MOL0     H22128   4.227   0.581   0.885  0.5954 -0.9286 -0.7704
  905MOL0     H22129   4.145   0.295   0.806  1.3084 -1.0292  0.7973
  905MOL0     H22130   4.230   0.407   0.709 -1.5390  0.8563 -1.4619
  905MOL0     H22131   3.973   0.416   0.693  1.8069 -0.0428 -0.9060
  905MOL0     H22132   4.072   0.562   0.686  0.2998 -0.3745 -1.0339
  905MOL0     H22133   4.007   0.618   0.924  3.6475 -2.9900  3.0761
  905MOL0     H22134   3.956   0.450   0.952 -0.3265 -1.3917 -1.8418
  905MOL0     H22135   3.842   0.545   1.121 -1.6749  0.0738  3.1927
  905MOL0     H22136   3.712   0.458   1.363  1.2500  0.7119  0.3161
  905MOL0     H22137   3.779   0.614   1.326  0.2834  0.8844  0.8701
  905MOL0     H22138   3.606   0.599   1.375 -1.8557 -3.2264  0.1109
  905MOL0     H22139   3.333   0.715   1.393 -1.1270  2.5234 -1.2209
  905MOL0     H22140   3.173   0.744   1.598 -2.5598  2.4299 -1.2184
  905MOL0     H22141   3.066   0.597   1.760  1.2701  0.9699  0.1478
  905MOL0     H22142   2.987   0.763   1.770 -3.7172  0.9273 -0.6490
  905MOL0     H22143   2.921   0.577   1.925 -0.6594  1.6810  0.5156
  905MOL0     H22144   2.788   0.685   1.852  1.7802  2.8778 -4.0631
  905MOL0     H22145   2.709   0.516   1.703 -0.1459  0.4684  1.3546
  905MOL0     H22146   2.707   0.457   1.871 -1.6421  0.1656 -1.0658
  905MOL0     H22147   2.898   0.372   1.653 -1.0827 -0.4069 -0.6580
  905MOL0     H22148   2.923   0.331   1.821 -0.6526 -0.0580  0.2630
  905MOL0     H22149   2.721   0.276   1.614  2.0864  1.1958 -0.7720
  905MOL0     H22150   2.669   0.236   1.784  0.4885  0.6935 -0.1680
  905MOL0     H22151   2.905   0.129   1.640 -0.2353 -1.1890 -0.6949
  905MOL0     H22152   2.851   0.075   1.799  0.3805 -2.0551  0.0073
  905MOL0     H22153   2.677   0.052   1.550 -0.3660 -1.5336 -0.0440
  905MOL0     H22154   2.639  -0.012   1.712 -1.0046  2.5801 -0.3378
  905MOL0     H22155   2.804  -0.170   1.717 -3.0551 -1.8993  0.4059
  905MOL0     H22156   2.881  -0.116   1.562  0.2819  0.7645 -0.9459
  905MOL0     H22157   2.877   0.517   1.371 -0.4082  1.3823 -1.3394
  905MOL0     H22158   3.039   0.484   1.206 -1.8113  0.3126 -0.0211
  905MOL0     H22159   3.388   0.562   0.941  0.2429 -1.7829  0.2601
  905MOL0     H22160   3.569   0.587   0.795  1.3473 -0.8480 -1.3573
  905MOL0     H22161   5.649   0.010   1.204 -0.2447 -1.1138 -0.4885
  905MOL0     H22162   5.893   0.018   1.187  2.2490  2.6351 -0.8794
  905MOL0     H22163   6.274   0.105   0.706 -2.1957  1.0446  0.1420
  905MOL0     H22164   6.517   0.163   0.725 -0.4186 -0.2097  0.2841
  905MOL0     H22165   6.705   0.277   1.118 -0.2517 -2.0253  0.4950
  905MOL0     H22166   6.746   0.120   1.052 -0.3225 -0.4567 -1.1632
  905MOL0     H22167   6.935   0.263   1.107 -2.1584  0.3177  1.7348
  905MOL0     H22168   6.890   0.374   0.976 -1.4250 -0.2073 -1.1917
  905MOL0     H22169   7.053   0.245   0.889  0.6487 -2.7148  1.5669
  905MOL0     H22170   6.909   0.227   0.797  2.0695 -0.4002 -1.1873
  905MOL0     H22171   6.992   0.006   0.831 -2.3303  0.9687  0.1269
  905MOL0     H22172   6.891   0.000   0.960 -0.2379 -0.8572 -2.2431
  905MOL0     H22173   7.273   0.008   1.157  1.0584  1.8174 -0.4738
  905MOL0     H22174   6.482   0.265   1.129  2.2101  2.7494 -1.4383
  905MOL0     H22175   6.233   0.189   1.118  0.0446  1.0080 -0.7992
  906MOL0     O22176   5.427   6.293   0.403 -0.5255  0.3804 -0.1658
  906MOL0     C22177   5.338   6.212   0.379  0.0789 -0.5709  1.0322
  906MOL0     O22178   5.202   6.247   0.372 -0.1872 -0.6426 -0.5060
  906MOL0     C22179   5.178   6.373   0.323 -0.1353  0.2524 -0.0000
  906MOL0     C22180   5.114   6.382   0.201 -0.5310 -0.2185  0.5300
  906MOL0     C22181   5.075   6.504   0.146  0.8532 -0.0278  0.2686
  906MOL0     C22182   5.113   6.622   0.206  0.3855  0.6213 -1.1058
  906MOL0     O22183   5.073   6.750   0.171  0.6258 -0.8848 -0.0516
  906MOL0     C22184   5.055   6.778   0.025  0.1804  1.2519 -0.0276
  906MOL0     C22185   5.027   6.926  -0.015  0.8218  0.0451  0.7798
  906MOL0     C22186   4.918   6.992   0.079  0.9709 -0.1561  0.0827
  906MOL0     C22187   4.900   7.139   0.042  0.0466  0.8146 -0.1690
  906MOL0     C22188   4.786   7.198   0.135 -0.4748  0.1675  0.7066
  906MOL0     C22189   4.732   7.332   0.069  0.0621  0.6470 -0.6738
  906MOL0     C22190   4.614   7.380   0.155  0.2640 -0.3956 -0.2940
  906MOL0     C22191   4.593   7.530   0.151 -0.8754  0.7223 -0.4441
  906MOL0     N22192   4.518   7.571   0.034  0.5352  0.0214 -0.0052
  906MOL0     C22193   4.379   7.556   0.023 -0.3758  0.7928 -0.0251
  906MOL0     C22194   4.346   7.592  -0.107  0.0901  0.3059  0.2586
  906MOL0     C22195   4.209   7.609  -0.165  0.2735  0.1529 -0.1378
  906MOL0     C22196   4.183   7.474  -0.227 -0.4538 -0.7257  0.1348
  906MOL0     C22197   4.027   7.454  -0.240 -0.6042 -0.2452 -0.7286
  906MOL0     C22198   3.966   7.526  -0.357 -0.5851 -0.9073  0.2363
  906MOL0     O22199   3.830   7.488  -0.356  0.0503  0.2579  0.1848
  906MOL0     C22200   3.782   7.404  -0.451 -0.3921  0.4206  0.0348
  906MOL0     C22201   3.774   7.433  -0.588  0.0542  0.9208  0.3009
  906MOL0     C22202   3.723   7.336  -0.674 -0.2291 -0.3699  0.3779
  906MOL0     C22203   3.723   7.370  -0.820  1.1251  0.4172 -0.1747
  906MOL0     C22204   3.664   7.215  -0.626  0.6687 -0.4283  0.0373
  906MOL0     C22205   3.583   7.120  -0.710  0.1124  0.1658 -0.5381
  906MOL0     O22206   3.525   7.015  -0.638  0.1777  0.3672  0.1598
  906MOL0     C22207   3.424   6.943  -0.701 -1.0779 -0.9236 -0.4492
  906MOL0     C22208   3.459   6.809  -0.745  0.5361 -0.2078 -0.3523
  906MOL0     C22209   3.365   6.730  -0.820  0.8722  1.0339  0.3955
  906MOL0     C22210   3.241   6.784  -0.856 -0.6602 -0.4261  0.4316
  906MOL0     O22211   3.149   6.741  -0.954 -0.1668 -0.1617  0.1693
  906MOL0     C22212   3.122   6.598  -0.981  0.6058 -0.3964 -0.3293
  906MOL0     C22213   3.026   6.591  -1.104  0.0202  0.2543 -0.7486
  906MOL0     C22214   2.947   6.445  -1.105 -0.1662 -0.4514  0.0192
  906MOL0     C22215   2.874   6.406  -0.975  0.6546 -0.0404  0.0461
  906MOL0     C22216   2.771   6.288  -0.990  0.4086  0.2731  0.1959
  906MOL0     C22217   2.685   6.260  -0.863 -0.4064  0.4861 -0.6078
  906MOL0     C22218   2.580   6.154  -0.889  1.0631 -0.2671  0.5988
  906MOL0     C22219   2.462   6.186  -0.798 -0.6494  0.4388  0.4275
  906MOL0    Cl22220   2.500   6.183  -0.623 -0.3161 -0.2781 -0.7410
  906MOL0     C22221   3.205   6.915  -0.812 -1.2770 -0.3761 -0.1246
  906MOL0     C22222   3.296   6.988  -0.733  0.4087 -0.2483  0.6650
  906MOL0     O22223   3.555   7.133  -0.827  0.3681  0.3252  0.2057
  906MOL0     C22224   3.671   7.189  -0.489 -0.2061 -0.5970  0.0700
  906MOL0     C22225   3.734   7.277  -0.400 -0.8647 -0.0586  0.4127
  906MOL0     N22226   4.469   7.627  -0.166 -0.2009 -0.0294  0.3583
  906MOL0     N22227   4.568   7.623  -0.078 -0.2335  0.6885 -0.4346
  906MOL0     C22228   5.187   6.617   0.320  0.3773 -0.3492 -0.5659
  906MOL0     C22229   5.202   6.495   0.391  0.1479  0.1841 -0.3706
  906MOL0     C22230   5.368   6.073   0.364  0.2400  0.3702 -0.9180
  906MOL0     C22231   5.265   5.976   0.326 -0.2784  0.0408 -0.2729
  906MOL0     C22232   5.300   5.849   0.306 -0.5017  0.0434  0.1231
  906MOL0     C22233   5.426   5.806   0.326  0.0594  0.8985  0.3022
  906MOL0     O22234   5.431   5.668   0.314 -0.4633 -0.0771 -0.0816
  906MOL0     C22235   5.536   5.590   0.378  0.7592 -0.0575  0.2806
  906MOL0     C22236   5.491   5.443   0.386  0.1408 -0.5798 -0.7386
  906MOL0     C22237   5.357   5.432   0.466  0.7058  0.9256  0.0424
  906MOL0     C22238   5.330   5.307   0.555  0.4389  0.0642  0.0378
  906MOL0     C22239   5.234   5.329   0.664 -0.2321  0.1230  0.3657
  906MOL0     C22240   5.154   5.347   0.749 -0.4729  0.5624 -0.3908
  906MOL0     C22241   5.534   5.885   0.374  0.5863  0.1941 -0.0243
  906MOL0     C22242   5.500   6.026   0.394 -0.5242  0.1783 -0.9834
  906MOL0     H22243   5.055   6.296   0.170 -2.6782  1.9156 -1.6912
  906MOL0     H22244   5.012   6.512   0.057 -0.8467  1.1136  1.5205
  906MOL0     H22245   5.147   6.745  -0.024  1.9349  2.3876  2.3099
  906MOL0     H22246   4.981   6.715  -0.025  1.6445  1.8175 -3.1146
  906MOL0     H22247   5.117   6.985   0.004 -0.6491  2.5920  0.2551
  906MOL0     H22248   5.010   6.928  -0.123 -1.4508 -0.3243  1.0803
  906MOL0     H22249   4.825   6.936   0.069  1.5656 -0.9112 -1.6327
  906MOL0     H22250   4.937   6.976   0.186 -0.2226 -1.2656  0.1477
  906MOL0     H22251   4.988   7.200   0.061 -0.1842  0.7792  1.1014
  906MOL0     H22252   4.870   7.139  -0.063 -1.5772 -0.0723  0.2500
  906MOL0     H22253   4.697   7.135   0.143 -1.5777  1.5870  0.0405
  906MOL0     H22254   4.825   7.217   0.235  3.0230  0.2004 -0.5214
  906MOL0     H22255   4.818   7.400   0.071  0.8193 -0.0486 -3.6225
  906MOL0     H22256   4.718   7.307  -0.037  0.9824  0.6104 -0.7966
  906MOL0     H22257   4.517   7.330   0.145  0.8255 -1.4290 -0.6909
  906MOL0     H22258   4.624   7.363   0.263 -1.6864  1.3417  0.2349
  906MOL0     H22259   4.692   7.575   0.152 -0.6354  0.1890  0.4167
  906MOL0     H22260   4.539   7.576   0.234 -0.8745  3.2451 -1.7570
  906MOL0     H22261   4.308   7.524   0.099 -0.1245 -2.8940 -1.1511
  906MOL0     H22262   4.142   7.637  -0.084  1.1856  0.5971  0.4807
  906MOL0     H22263   4.214   7.687  -0.241 -1.4053 -1.2331 -1.7758
  906MOL0     H22264   4.229   7.397  -0.164  1.4199  0.7152  0.6115
  906MOL0     H22265   4.241   7.462  -0.318  1.4410  0.8673  1.0556
  906MOL0     H22266   3.983   7.504  -0.153  3.8843 -1.1697  2.4168
  906MOL0     H22267   4.002   7.347  -0.235 -2.2794  0.1683  1.2766
  906MOL0     H22268   4.012   7.496  -0.451  0.3472  2.3710 -0.4990
  906MOL0     H22269   3.961   7.634  -0.341 -2.5856 -0.6382 -1.7121
  906MOL0     H22270   3.823   7.521  -0.628  0.3751 -0.1455 -1.7632
  906MOL0     H22271   3.802   7.445  -0.826  2.9227 -1.0625  2.7000
  906MOL0     H22272   3.748   7.281  -0.879  2.2293 -1.3412  2.7385
  906MOL0     H22273   3.630   7.418  -0.853  0.5546  0.5098  1.4583
  906MOL0     H22274   3.545   6.752  -0.711 -1.0194 -4.0831 -2.2818
  906MOL0     H22275   3.392   6.640  -0.874  2.7036  0.9179  1.4406
  906MOL0     H22276   3.220   6.560  -1.010  0.6310 -1.2198  0.7690
  906MOL0     H22277   3.081   6.553  -0.891  0.1862  2.9213  1.2826
  906MOL0     H22278   2.947   6.662  -1.082  0.0147  0.0648 -0.1333
  906MOL0     H22279   3.075   6.621  -1.197  1.1010 -1.3428 -0.7401
  906MOL0     H22280   3.021   6.373  -1.140 -0.6961 -0.6168 -0.7824
  906MOL0     H22281   2.860   6.452  -1.171 -0.1229  0.5081  0.0422
  906MOL0     H22282   2.953   6.369  -0.909  0.9712 -1.5423 -1.0902
  906MOL0     H22283   2.821   6.493  -0.937 -1.3521 -0.3578 -1.8242
  906MOL0     H22284   2.817   6.193  -1.020 -0.6062 -0.2723  0.2953
  906MOL0     H22285   2.704   6.300  -1.076  3.0082 -1.5948 -2.2839
  906MOL0     H22286   2.754   6.244  -0.780  4.4395 -3.0965 -4.6253
  906MOL0     H22287   2.634   6.354  -0.844  0.9198  0.7108  2.2475
  906MOL0     H22288   2.631   6.059  -0.868 -0.0830 -1.2211 -0.8123
  906MOL0     H22289   2.538   6.158  -0.989  0.8445 -0.0623  0.6983
  906MOL0     H22290   2.394   6.102  -0.818  0.0676 -0.1433  0.4299
  906MOL0     H22291   2.419   6.285  -0.818 -4.7566 -1.4451 -1.3182
  906MOL0     H22292   3.109   6.948  -0.851 -1.4833 -1.6587 -0.7958
  906MOL0     H22293   3.262   7.085  -0.699  3.1879  0.9460  0.2696
  906MOL0     H22294   3.625   7.104  -0.441 -1.3810  0.3381  0.6426
  906MOL0     H22295   3.753   7.262  -0.294  1.1559  0.1016  0.1118
  906MOL0     H22296   5.214   6.710   0.368  2.3441 -0.6814 -0.9160
  906MOL0     H22297   5.247   6.489   0.489  1.4756 -0.4137 -1.0062
  906MOL0     H22298   5.162   6.006   0.306  0.2186  1.2878 -1.0443
  906MOL0     H22299   5.219   5.781   0.281 -0.6795  0.2902  0.0268
  906MOL0     H22300   5.628   5.594   0.319 -0.0278 -4.4140 -1.6368
  906MOL0     H22301   5.556   5.632   0.477  2.1345  1.4342 -0.5821
  906MOL0     H22302   5.570   5.385   0.435 -0.4275 -0.6591  0.1007
  906MOL0     H22303   5.477   5.421   0.280 -0.8184  3.6252 -1.6544
  906MOL0     H22304   5.269   5.440   0.401 -0.1336 -2.3531  0.6155
  906MOL0     H22305   5.356   5.517   0.536  2.0971 -0.6978  2.1601
  906MOL0     H22306   5.418   5.283   0.616  0.7969 -0.7702 -0.7832
  906MOL0     H22307   5.293   5.221   0.498 -1.7097  0.1168  1.2388
  906MOL0     H22308   5.087   5.391   0.820  1.6667 -1.8848  3.5041
  906MOL0     H22309   5.636   5.853   0.389  0.5876 -1.2681 -2.6510
  906MOL0     H22310   5.578   6.097   0.420 -0.8315 -0.5599  2.2889
  907MOL0     O22311   1.146  10.228   4.744 -0.3967  0.3030 -0.2202
  907MOL0     C22312   1.028  10.217   4.746  0.7450 -0.2245  0.3013
  907MOL0     O22313   0.951  10.165   4.845 -0.1731  0.5138 -0.4836
  907MOL0     C22314   1.017  10.081   4.930  0.5084  0.3618 -0.0277
  907MOL0     C22315   1.051  10.135   5.058  0.4877  0.1087 -0.6628
  907MOL0     C22316   1.119  10.055   5.151 -0.9025 -0.2587 -0.1991
  907MOL0     C22317   1.179   9.933   5.111  0.2958  0.3457 -0.0188
  907MOL0     O22318   1.265   9.860   5.191  0.2556 -0.1793 -0.2407
  907MOL0     C22319   1.240   9.716   5.197 -0.3145 -0.6552 -0.2055
  907MOL0     C22320   1.352   9.642   5.138 -0.2975  0.3268  1.0974
  907MOL0     C22321   1.328   9.501   5.096  0.0988 -0.6831  0.2381
  907MOL0     C22322   1.280   9.432   5.221 -0.4623  0.2565  0.4826
  907MOL0     C22323   1.302   9.280   5.209 -0.4723 -0.0456  0.3871
  907MOL0     C22324   1.453   9.242   5.218 -0.3266 -0.2337  0.3367
  907MOL0     C22325   1.465   9.111   5.302  0.2094 -0.2168  0.6788
  907MOL0     C22326   1.406   8.992   5.217  0.7445  0.7514 -0.4386
  907MOL0     N22327   1.459   8.987   5.086  0.5940 -0.2678 -0.3182
  907MOL0     C22328   1.584   8.944   5.059 -0.2169  0.4413  0.8189
  907MOL0     C22329   1.585   8.930   4.927  0.6991  0.3490 -0.0083
  907MOL0     C22330   1.699   8.910   4.840 -0.0682  0.1456 -0.9730
  907MOL0     C22331   1.770   9.036   4.800  0.4658 -0.2524 -0.4709
  907MOL0     C22332   1.680   9.137   4.732 -0.2395 -0.1961 -0.3611
  907MOL0     C22333   1.751   9.268   4.679 -0.4659 -0.0109 -0.3509
  907MOL0     O22334   1.834   9.227   4.566 -0.4179 -0.4561 -0.0539
  907MOL0     C22335   1.902   9.321   4.501 -0.0463  0.0892  0.9078
  907MOL0     C22336   1.968   9.277   4.383  0.2276 -0.4938 -1.0866
  907MOL0     C22337   2.033   9.371   4.293 -0.5579 -0.6127 -0.8287
  907MOL0     C22338   2.086   9.314   4.159 -0.2276  0.1504 -1.0872
  907MOL0     C22339   2.041   9.505   4.337  0.8298 -0.5763  0.2543
  907MOL0     C22340   2.094   9.617   4.249 -0.4147  1.4662 -0.0086
  907MOL0     O22341   2.075   9.742   4.296  0.1158  0.1010  0.1194
  907MOL0     C22342   2.135   9.842   4.234 -0.0021 -0.4165 -0.5709
  907MOL0     C22343   2.108   9.891   4.103  0.4147  0.7376 -0.3368
  907MOL0     C22344   2.140  10.023   4.070 -0.0716  0.4532 -0.2702
  907MOL0     C22345   2.219  10.104   4.152 -0.0518 -0.5433  0.3737
  907MOL0     O22346   2.265  10.218   4.093  0.1819  0.4970  0.3046
  907MOL0     C22347   2.330  10.313   4.178 -0.4189 -0.2773  0.9614
  907MOL0     C22348   2.391  10.425   4.090  0.4624  0.7322  0.3591
  907MOL0     C22349   2.391  10.563   4.154 -0.0055 -0.1176 -0.6936
  907MOL0     C22350   2.430  10.669   4.060  0.4846  0.1894  0.6405
  907MOL0     C22351   2.387  10.800   4.135  0.4653  0.3422 -0.0667
  907MOL0     C22352   2.382  10.911   4.031  1.0609  1.2815  0.6978
  907MOL0     C22353   2.499  10.925   3.927  0.5182  0.5337 -0.2406
  907MOL0     C22354   2.633  10.951   3.980  0.0994  0.0893  0.5267
  907MOL0    Cl22355   2.629  11.102   4.059 -0.1674  0.4153  0.0433
  907MOL0     C22356   2.256  10.052   4.278 -0.4417 -0.2075  0.9102
  907MOL0     C22357   2.215   9.919   4.319  0.0374  0.5166 -0.4429
  907MOL0     O22358   2.166   9.576   4.160 -0.0641 -0.6265 -0.6679
  907MOL0     C22359   1.970   9.549   4.446 -0.3905  0.7563  0.3722
  907MOL0     C22360   1.900   9.459   4.522  0.2203 -0.7106 -0.9273
  907MOL0     N22361   1.460   8.962   4.871  0.1503 -0.0326  0.5904
  907MOL0     N22362   1.383   8.983   4.975  0.4388  0.3809 -0.1237
  907MOL0     C22363   1.144   9.884   4.979  0.3107  0.0733  0.1388
  907MOL0     C22364   1.060   9.954   4.897 -0.1932 -0.4155 -0.8457
  907MOL0     C22365   0.948  10.279   4.633  0.9287  0.1570 -0.8690
  907MOL0     C22366   1.017  10.338   4.527  1.3305  0.3214  0.3798
  907MOL0     C22367   0.943  10.387   4.418 -0.3926 -0.3572  0.3417
  907MOL0     C22368   0.807  10.357   4.400 -0.1914  0.4760 -0.4040
  907MOL0     O22369   0.746  10.409   4.287  0.5691  1.0801  0.4353
  907MOL0     C22370   0.611  10.383   4.256  0.1015  0.2903  0.3558
  907MOL0     C22371   0.553  10.512   4.190 -0.3796  1.0914 -0.0565
  907MOL0     C22372   0.545  10.622   4.297  0.5106 -0.8866 -0.1818
  907MOL0     C22373   0.410  10.699   4.302 -0.4474 -0.3246  0.1065
  907MOL0     C22374   0.391  10.785   4.190  0.4781  0.0989  0.2155
  907MOL0     C22375   0.371  10.853   4.093 -1.2002  0.3367  0.0353
  907MOL0     C22376   0.744  10.282   4.501  0.4669 -0.1042 -0.1990
  907MOL0     C22377   0.818  10.237   4.610  0.9388 -0.0029 -0.6083
  907MOL0     H22378   1.023  10.236   5.083  3.0742  0.8714 -0.5081
  907MOL0     H22379   1.142  10.096   5.249  4.9371 -3.1130  0.0884
  907MOL0     H22380   1.250   9.673   5.297  4.8275 -0.3069 -0.3406
  907MOL0     H22381   1.145   9.687   5.150 -1.9503  2.3216  1.0040
  907MOL0     H22382   1.385   9.694   5.047 -0.9144 -0.2413  0.5392
  907MOL0     H22383   1.440   9.666   5.198 -1.3636  1.7007  2.1731
  907MOL0     H22384   1.248   9.492   5.023  1.9250 -0.2361 -1.9127
  907MOL0     H22385   1.421   9.453   5.064 -1.7364 -3.7168 -0.9054
  907MOL0     H22386   1.332   9.471   5.309  1.2792  0.6721 -0.6741
  907MOL0     H22387   1.175   9.449   5.246 -0.2219  0.8317  1.1445
  907MOL0     H22388   1.261   9.234   5.300  2.4053  1.8441  2.8565
  907MOL0     H22389   1.249   9.243   5.121 -2.7891  2.8792  0.3802
  907MOL0     H22390   1.513   9.235   5.127  1.1453 -0.9432  1.3097
  907MOL0     H22391   1.500   9.320   5.280  0.4022  2.1987 -3.0089
  907MOL0     H22392   1.566   9.083   5.333 -0.0744 -1.9218  0.1694
  907MOL0     H22393   1.414   9.122   5.399 -0.2608  0.6474  0.3447
  907MOL0     H22394   1.298   9.007   5.212  0.9523  2.1584 -1.0943
  907MOL0     H22395   1.423   8.894   5.264 -0.8793  0.1915 -0.9431
  907MOL0     H22396   1.671   8.943   5.124  0.1026  0.2655  0.3925
  907MOL0     H22397   1.760   8.845   4.903 -1.0906 -1.9342 -1.9993
  907MOL0     H22398   1.677   8.845   4.754  0.1660 -2.2205  0.6805
  907MOL0     H22399   1.854   9.011   4.734  1.9638 -1.8394  1.9155
  907MOL0     H22400   1.815   9.076   4.891 -2.5931 -1.3840  1.6750
  907MOL0     H22401   1.616   9.173   4.813  0.8458  2.8825 -0.7290
  907MOL0     H22402   1.617   9.091   4.654 -1.5213 -0.7823  0.9670
  907MOL0     H22403   1.811   9.301   4.764  0.5147  0.4138 -1.1849
  907MOL0     H22404   1.673   9.341   4.659 -2.5597 -1.8240  0.7219
  907MOL0     H22405   1.951   9.180   4.338 -1.2849 -0.4134 -0.7469
  907MOL0     H22406   2.193   9.336   4.152 -0.9211  5.1532 -0.1205
  907MOL0     H22407   2.059   9.210   4.140  0.8612 -1.0772  3.0906
  907MOL0     H22408   2.041   9.369   4.076  0.4211  1.7406 -0.4222
  907MOL0     H22409   2.046   9.834   4.035 -0.1444 -1.3450  1.8240
  907MOL0     H22410   2.105  10.057   3.973 -1.7651 -0.1501  0.0858
  907MOL0     H22411   2.257  10.350   4.250 -0.8615  0.4946  0.1337
  907MOL0     H22412   2.417  10.270   4.229 -0.9852 -3.1094 -0.2196
  907MOL0     H22413   2.492  10.396   4.060 -0.1147  0.0571 -1.0093
  907MOL0     H22414   2.332  10.432   3.998  0.6548  0.8426  0.2445
  907MOL0     H22415   2.450  10.564   4.247  0.0255 -0.6126 -0.7014
  907MOL0     H22416   2.288  10.574   4.187 -0.0975  0.1160 -1.0640
  907MOL0     H22417   2.538  10.667   4.046  0.8983 -1.5492  3.3591
  907MOL0     H22418   2.376  10.656   3.966  0.4074  4.3472 -0.0970
  907MOL0     H22419   2.464  10.818   4.210 -0.7836  0.1875  1.2957
  907MOL0     H22420   2.286  10.793   4.178  0.6536 -0.5599  0.2532
  907MOL0     H22421   2.297  10.881   3.968  1.0469 -3.8562  2.6957
  907MOL0     H22422   2.364  10.999   4.094 -1.4120  0.4407  1.2533
  907MOL0     H22423   2.482  11.017   3.870 -0.0856  2.0213  2.2107
  907MOL0     H22424   2.495  10.840   3.859  1.6416 -0.1609  0.5199
  907MOL0     H22425   2.698  10.950   3.892 -0.8340 -0.6403 -0.1817
  907MOL0     H22426   2.660  10.874   4.053  2.2778  1.9364  1.7952
  907MOL0     H22427   2.324  10.112   4.338  0.2110  1.3918 -1.3001
  907MOL0     H22428   2.248   9.871   4.410 -1.9329  4.6383  2.7961
  907MOL0     H22429   1.957   9.653   4.476 -0.5286  1.1687 -1.0534
  907MOL0     H22430   1.841   9.499   4.604  0.3978 -1.1152 -0.5984
  907MOL0     H22431   1.197   9.793   4.950  0.6352 -1.1905  4.1157
  907MOL0     H22432   1.054   9.921   4.794  1.3971 -0.4074 -0.9701
  907MOL0     H22433   1.123  10.359   4.533  1.2636  0.8664 -0.3155
  907MOL0     H22434   0.989  10.443   4.337 -1.2673  1.4865  1.0613
  907MOL0     H22435   0.597  10.291   4.198 -4.6111 -0.0368  1.5920
  907MOL0     H22436   0.554  10.363   4.347  2.9859  0.4498  2.3594
  907MOL0     H22437   0.458  10.485   4.143 -0.5485 -0.1596  0.9294
  907MOL0     H22438   0.612  10.544   4.104 -3.1787  3.3193 -1.3078
  907MOL0     H22439   0.626  10.695   4.286  0.8101 -1.5135 -3.0456
  907MOL0     H22440   0.537  10.586   4.400 -2.1005  2.3136  0.9160
  907MOL0     H22441   0.403  10.766   4.388  2.6238 -0.2682  0.4208
  907MOL0     H22442   0.337  10.619   4.321  1.0919 -1.3579  1.9414
  907MOL0     H22443   0.380  10.912   4.004  2.9956  0.1771  0.1178
  907MOL0     H22444   0.638  10.259   4.499  0.4758 -0.1158 -0.6116
  907MOL0     H22445   0.761  10.177   4.681 -0.7270  0.0898 -1.7883
  908MOL0     O22446  10.356   2.225   8.930  0.5783 -0.1974 -0.2902
  908MOL0     C22447  10.338   2.103   8.933  0.3084  0.0891  0.7590
  908MOL0     O22448  10.436   2.009   8.955  0.6328  0.4114  0.0829
  908MOL0     C22449  10.558   2.057   8.946  0.1307  0.0795  0.3727
  908MOL0     C22450  10.612   2.131   8.846  0.3161  0.5230  0.0093
  908MOL0     C22451  10.750   2.159   8.839  0.1168 -1.0914  0.7381
  908MOL0     C22452  10.833   2.136   8.943 -0.3299  0.1193 -0.8616
  908MOL0     O22453  10.966   2.187   8.930  0.1974 -0.6706  0.1359
  908MOL0     C22454  11.048   2.161   9.043 -0.0930 -1.0450 -0.1276
  908MOL0     C22455  11.189   2.225   9.039  0.5297  0.1676  0.0738
  908MOL0     C22456  11.196   2.373   9.025  0.0226 -0.7013  0.5322
  908MOL0     C22457  11.340   2.413   9.023 -0.0392 -0.6177 -0.0913
  908MOL0     C22458  11.372   2.568   9.020 -0.0724  0.8007 -0.3093
  908MOL0     C22459  11.521   2.603   9.026 -0.6395 -0.5352  0.1089
  908MOL0     C22460  11.541   2.753   9.028 -0.3524  0.2499  0.3191
  908MOL0     C22461  11.488   2.808   9.157 -0.1588  0.0618  0.0437
  908MOL0     N22462  11.525   2.949   9.171  1.2343 -0.8183 -0.4102
  908MOL0     C22463  11.473   3.053   9.106  0.2962  0.5937  0.4657
  908MOL0     C22464  11.493   3.159   9.182 -0.7250 -0.4289  0.2711
  908MOL0     C22465  11.441   3.302   9.162 -0.4174  0.3041  0.8913
  908MOL0     C22466  11.332   3.321   9.261  0.3479 -0.5372  1.1356
  908MOL0     C22467  11.263   3.461   9.261  0.5081  0.3056 -0.4232
  908MOL0     C22468  11.358   3.584   9.282  0.3332  0.0974 -0.5518
  908MOL0     O22469  11.413   3.608   9.155 -0.0013 -0.0017  0.9492
  908MOL0     C22470  11.515   3.691   9.154  0.3531 -0.1872 -0.0810
  908MOL0     C22471  11.511   3.833   9.181 -0.2458  0.3182  0.8994
  908MOL0     C22472  11.620   3.917   9.177 -0.5816 -0.1037 -1.0194
  908MOL0     C22473  11.592   4.061   9.207 -0.2800  0.3125 -0.5623
  908MOL0     C22474  11.743   3.868   9.135 -0.9589 -0.0867 -0.1682
  908MOL0     C22475  11.869   3.950   9.117  0.5555 -0.5617  0.2369
  908MOL0     O22476  11.853   4.075   9.062 -0.4129  0.1091  0.1695
  908MOL0     C22477  11.941   4.179   9.068 -1.3881  0.0454  0.8480
  908MOL0     C22478  11.902   4.291   8.992 -0.1174  0.1573  0.0332
  908MOL0     C22479  11.979   4.416   8.996  0.1261  0.6692 -0.4381
  908MOL0     C22480  12.101   4.420   9.050  0.1586 -0.1880 -0.0259
  908MOL0     O22481  12.176   4.531   9.050  0.6231  0.4519  1.2633
  908MOL0     C22482  12.140   4.645   9.123  0.9689  0.1219  0.1513
  908MOL0     C22483  12.232   4.751   9.111  0.3788  0.5741 -0.0824
  908MOL0     C22484  12.229   4.806   8.969  0.9584  0.5041  1.0116
  908MOL0     C22485  12.126   4.915   8.947 -0.5320  0.1461  1.0440
  908MOL0     C22486  12.050   4.909   8.816  0.5961  0.1248  0.0734
  908MOL0     C22487  12.074   5.030   8.724  0.4175  1.0584  0.0647
  908MOL0     C22488  12.011   5.005   8.589 -0.5294 -1.1784  0.3384
  908MOL0     C22489  12.067   5.111   8.486 -0.9253 -0.5654 -0.6810
  908MOL0    Cl22490  12.014   5.077   8.319 -0.5108  0.1807  0.2558
  908MOL0     C22491  12.145   4.309   9.121  0.0549  0.5678 -0.6471
  908MOL0     C22492  12.069   4.184   9.128 -0.5510  0.1867  0.2720
  908MOL0     O22493  11.976   3.895   9.144  0.4246 -0.5241  0.0456
  908MOL0     C22494  11.749   3.730   9.117  0.1050  0.1202  0.6549
  908MOL0     C22495  11.638   3.646   9.120 -0.3447  0.3091 -0.8787
  908MOL0     N22496  11.555   3.117   9.299 -0.5966 -0.6177 -0.2749
  908MOL0     N22497  11.585   2.990   9.286  0.9509 -0.3688 -0.4864
  908MOL0     C22498  10.779   2.068   9.054 -0.0599  1.3521  0.4656
  908MOL0     C22499  10.647   2.013   9.048 -0.0035 -0.0161 -0.0750
  908MOL0     C22500  10.207   2.057   8.912  0.5702  0.4399 -1.1296
  908MOL0     C22501  10.099   2.133   8.885 -0.1601 -0.1553  0.6802
  908MOL0     C22502   9.975   2.080   8.848  0.2049  0.3034 -1.0049
  908MOL0     C22503   9.961   1.941   8.823 -0.0870  0.1919  0.0648
  908MOL0     O22504   9.843   1.880   8.784  0.0015  0.2415  0.1442
  908MOL0     C22505   9.757   1.972   8.713  0.1205  0.7189  0.5292
  908MOL0     C22506   9.654   1.884   8.639 -1.0826 -0.1330  0.2509
  908MOL0     C22507   9.720   1.821   8.504  0.1023 -0.5091 -0.3167
  908MOL0     C22508   9.612   1.771   8.415 -0.2483 -0.3175  0.1288
  908MOL0     C22509   9.546   1.881   8.342 -0.6420 -0.1827 -0.7827
  908MOL0     C22510   9.488   1.968   8.280  0.2913 -0.8139 -0.4952
  908MOL0     C22511  10.062   1.866   8.876 -0.6385  1.0340  0.0057
  908MOL0     C22512  10.183   1.922   8.921 -0.0349 -0.1896 -0.5041
  908MOL0     H22513  10.548   2.164   8.764 -0.4559  1.3133  0.9123
  908MOL0     H22514  10.789   2.217   8.755 -4.0476  0.5452 -0.3031
  908MOL0     H22515  10.986   2.213   9.116 -1.9516 -1.0126 -1.6601
  908MOL0     H22516  11.051   2.055   9.070  0.6782 -0.6768  1.3198
  908MOL0     H22517  11.239   2.206   9.135 -1.7623  2.3895  1.8520
  908MOL0     H22518  11.243   2.169   8.962 -0.1510 -1.8775  1.0099
  908MOL0     H22519  11.144   2.413   8.937 -1.2899 -0.8612  1.2104
  908MOL0     H22520  11.154   2.409   9.119  2.1818 -1.6704  1.9445
  908MOL0     H22521  11.387   2.364   9.109  1.7113 -1.7246 -1.5893
  908MOL0     H22522  11.396   2.372   8.938 -0.2558  0.5720 -0.8272
  908MOL0     H22523  11.328   2.604   8.926 -0.6419 -1.2584 -0.8863
  908MOL0     H22524  11.325   2.615   9.106  1.8760  2.5912 -0.1289
  908MOL0     H22525  11.567   2.554   9.112  0.1211  0.5135  0.3256
  908MOL0     H22526  11.572   2.557   8.941  0.0739  0.5440 -0.0815
  908MOL0     H22527  11.648   2.772   9.022  0.8677 -3.3821  4.8519
  908MOL0     H22528  11.480   2.793   8.946  1.1391 -1.0139 -1.5019
  908MOL0     H22529  11.536   2.755   9.239 -0.1270  0.8302  0.5366
  908MOL0     H22530  11.379   2.795   9.158 -0.5432  2.6447 -0.6710
  908MOL0     H22531  11.421   3.062   9.011  0.7161  1.1158  0.2813
  908MOL0     H22532  11.527   3.367   9.178  0.6318 -0.4930 -1.1794
  908MOL0     H22533  11.393   3.316   9.064 -1.3557 -0.6136  1.1964
  908MOL0     H22534  11.386   3.328   9.356 -1.8554  3.5489  2.3378
  908MOL0     H22535  11.255   3.244   9.254 -1.9756  1.6238  1.1555
  908MOL0     H22536  11.199   3.467   9.350  0.8501  1.6454 -0.2355
  908MOL0     H22537  11.198   3.466   9.173  1.0960 -3.2037 -1.1855
  908MOL0     H22538  11.423   3.564   9.368  0.1504 -5.2707 -1.3251
  908MOL0     H22539  11.289   3.665   9.310 -1.9940 -1.6022 -1.0931
  908MOL0     H22540  11.414   3.865   9.215 -0.1386 -1.2768  2.9063
  908MOL0     H22541  11.610   4.065   9.314 -2.1880 -1.9562 -0.0798
  908MOL0     H22542  11.646   4.139   9.151 -1.9517  0.8694 -1.4774
  908MOL0     H22543  11.489   4.084   9.180 -0.8816 -0.0193  1.3638
  908MOL0     H22544  11.808   4.279   8.938  1.9472 -0.8784 -3.6518
  908MOL0     H22545  11.932   4.504   8.953 -2.0469 -1.2358 -2.2130
  908MOL0     H22546  12.038   4.683   9.114  1.2237  1.2297  1.5272
  908MOL0     H22547  12.143   4.612   9.228 -2.0115  1.5667  0.7837
  908MOL0     H22548  12.205   4.837   9.173 -4.8211 -1.6728  1.3308
  908MOL0     H22549  12.333   4.726   9.145 -0.1583 -0.0757  1.0809
  908MOL0     H22550  12.212   4.732   8.890  0.5144  0.0975  1.4811
  908MOL0     H22551  12.326   4.850   8.942  0.2076  2.7085  1.7631
  908MOL0     H22552  12.047   4.916   9.023  2.3536 -2.1537  4.3970
  908MOL0     H22553  12.176   5.012   8.950 -2.9575  1.6114 -1.3526
  908MOL0     H22554  11.942   4.915   8.829  0.6679  0.1082  0.7328
  908MOL0     H22555  12.081   4.821   8.759  0.4088  0.2213 -0.1771
  908MOL0     H22556  12.048   5.124   8.773  0.6984  2.1014 -1.6946
  908MOL0     H22557  12.181   5.018   8.701  0.0370  1.6896 -2.2084
  908MOL0     H22558  11.903   4.998   8.599 -0.3634 -2.3820  1.5115
  908MOL0     H22559  12.050   4.908   8.557  1.2977 -0.0323 -1.1356
  908MOL0     H22560  12.176   5.115   8.494 -1.0503 -1.0741  2.6014
  908MOL0     H22561  12.036   5.209   8.524  1.2217  0.5531 -1.6512
  908MOL0     H22562  12.236   4.320   9.179  0.2657  2.4156 -1.2518
  908MOL0     H22563  12.104   4.102   9.190  0.3824  0.0582 -0.4074
  908MOL0     H22564  11.839   3.678   9.087 -0.4340  0.2817 -1.4025
  908MOL0     H22565  11.644   3.538   9.106  1.2123 -0.0888  2.1406
  908MOL0     H22566  10.833   2.070   9.148  1.3391  0.3444 -0.2753
  908MOL0     H22567  10.612   1.951   9.130  1.2216 -0.3942  0.1822
  908MOL0     H22568  10.123   2.239   8.897 -2.1181  0.1288  2.8767
  908MOL0     H22569   9.905   2.158   8.821  0.4859  0.7038 -0.5757
  908MOL0     H22570   9.703   2.042   8.777 -3.0541  0.8319 -1.9538
  908MOL0     H22571   9.801   2.023   8.626  3.9563 -2.5210  0.3268
  908MOL0     H22572   9.570   1.952   8.623 -0.1386  0.7283 -1.3739
  908MOL0     H22573   9.616   1.800   8.697 -0.7806 -0.1329  0.4500
  908MOL0     H22574   9.780   1.730   8.518 -1.7146 -1.5309  1.3316
  908MOL0     H22575   9.784   1.886   8.444 -0.0800 -0.1849 -0.1585
  908MOL0     H22576   9.536   1.706   8.458 -2.6050  2.0062 -0.2495
  908MOL0     H22577   9.649   1.703   8.337 -1.4098 -2.6487  1.5225
  908MOL0     H22578   9.430   2.038   8.223  0.9775 -0.1036 -0.3325
  908MOL0     H22579  10.039   1.760   8.874  2.6463 -0.0956  4.7908
  908MOL0     H22580  10.259   1.862   8.968  0.4175  0.5245 -0.3142
  909MOL0     O22581   5.309  10.689   6.195  0.2533 -0.2582 -0.4041
  909MOL0     C22582   5.364  10.794   6.188 -0.8992  0.6175 -0.1438
  909MOL0     O22583   5.451  10.851   6.278 -0.6183 -0.7982  0.0869
  909MOL0     C22584   5.473  10.776   6.386 -0.5572  0.1392 -0.2777
  909MOL0     C22585   5.581  10.684   6.383  0.3600  0.3805  0.6119
  909MOL0     C22586   5.602  10.605   6.493  0.0367  0.2219  0.4691
  909MOL0     C22587   5.532  10.629   6.607 -0.2826  0.9692 -0.5463
  909MOL0     O22588   5.533  10.548   6.721  0.9330 -0.3740  0.2467
  909MOL0     C22589   5.635  10.448   6.742 -0.0840 -0.8262 -0.2917
  909MOL0     C22590   5.604  10.320   6.659  0.2014  0.0261  0.0762
  909MOL0     C22591   5.487  10.243   6.726 -0.4944  0.2409 -0.6578
  909MOL0     C22592   5.535  10.160   6.845 -0.5602 -0.4845  0.5603
  909MOL0     C22593   5.419  10.071   6.903  0.6413  0.8828  0.7053
  909MOL0     C22594   5.326  10.163   6.996  0.6553 -1.1587 -0.2796
  909MOL0     C22595   5.235  10.070   7.078  0.8676  0.0825 -0.9691
  909MOL0     C22596   5.139  10.153   7.162  0.3433 -0.4319  0.0794
  909MOL0     N22597   5.044  10.233   7.084  0.5428  0.2252 -0.8211
  909MOL0     C22598   4.927  10.174   7.046 -0.8502  0.7334  0.4294
  909MOL0     C22599   4.844  10.272   7.006 -0.8415  0.1837 -0.5161
  909MOL0     C22600   4.702  10.265   6.956  0.5095  0.2812  0.2602
  909MOL0     C22601   4.611  10.281   7.073 -0.1657  0.3598 -0.1186
  909MOL0     C22602   4.463  10.301   7.038 -0.3932  0.3679 -0.2527
  909MOL0     C22603   4.376  10.304   7.166  0.4322  0.4677  0.1638
  909MOL0     O22604   4.313  10.419   7.191  0.9173  0.1415  0.8086
  909MOL0     C22605   4.206  10.460   7.116 -0.2242 -0.6495 -0.3393
  909MOL0     C22606   4.193  10.598   7.106 -0.0361 -0.7751 -0.1037
  909MOL0     C22607   4.069  10.648   7.049  0.1323 -0.2969  0.1733
  909MOL0     C22608   4.035  10.792   7.069  0.0353 -1.4868 -0.2071
  909MOL0     C22609   3.990  10.562   6.969  0.0420  0.1803 -0.5230
  909MOL0     C22610   3.868  10.607   6.888 -0.7022 -0.3057 -0.6437
  909MOL0     O22611   3.748  10.537   6.873  0.3447  0.2401 -0.0181
  909MOL0     C22612   3.630  10.590   6.830  0.1233  0.2427 -0.0686
  909MOL0     C22613   3.605  10.726   6.790  1.0229  0.3292 -0.2221
  909MOL0     C22614   3.480  10.750   6.742  0.3345 -1.0620  0.7451
  909MOL0     C22615   3.373  10.660   6.742  0.5100 -0.1213 -0.1257
  909MOL0     O22616   3.245  10.698   6.701  0.3031  0.1923 -0.1015
  909MOL0     C22617   3.160  10.708   6.817  0.9061 -0.3525  0.7213
  909MOL0     C22618   3.013  10.692   6.783  0.6128  0.5882  0.3036
  909MOL0     C22619   2.925  10.667   6.910 -0.1571  0.1854 -0.3168
  909MOL0     C22620   2.774  10.664   6.896  0.0718 -1.1854  0.3548
  909MOL0     C22621   2.709  10.649   7.032  0.2854  0.7496  0.3901
  909MOL0     C22622   2.559  10.612   7.023 -0.1244 -0.5653  0.8101
  909MOL0     C22623   2.488  10.580   7.149  0.3574  0.2304 -0.2823
  909MOL0     C22624   2.503  10.701   7.246  0.0297  0.1933 -0.5917
  909MOL0    Cl22625   2.398  10.837   7.187  0.1514  0.4951 -0.0898
  909MOL0     C22626   3.398  10.530   6.799  1.2303 -0.3554  0.1521
  909MOL0     C22627   3.530  10.492   6.820  0.4942  0.3070 -0.1950
  909MOL0     O22628   3.897  10.703   6.823  0.1438 -0.4409 -0.1948
  909MOL0     C22629   4.007  10.421   6.981  0.6790 -0.1023  1.0169
  909MOL0     C22630   4.111  10.372   7.062 -0.0841  0.0187  1.0413
  909MOL0     N22631   4.916  10.387   7.016 -0.4192 -0.9395 -0.1049
  909MOL0     N22632   5.035  10.373   7.068 -0.3259  1.1741  0.3952
  909MOL0     C22633   5.452  10.736   6.622 -0.2779  0.6349  0.2742
  909MOL0     C22634   5.425  10.816   6.509 -0.1286  0.3329  0.1688
  909MOL0     C22635   5.319  10.883   6.086  0.3084  0.4094 -0.1006
  909MOL0     C22636   5.392  11.002   6.053  0.7547 -0.0274 -0.5909
  909MOL0     C22637   5.347  11.091   5.955 -0.2937 -0.1396 -0.6641
  909MOL0     C22638   5.219  11.069   5.894 -0.8623 -0.0288  0.1172
  909MOL0     O22639   5.159  11.154   5.797  0.0387  0.2034  0.2240
  909MOL0     C22640   5.202  11.283   5.773 -0.1549 -0.3707  0.7059
  909MOL0     C22641   5.114  11.367   5.678  0.4932  1.0727 -0.1192
  909MOL0     C22642   4.978  11.374   5.741  0.4493 -0.4137  0.4370
  909MOL0     C22643   4.902  11.482   5.669 -0.0868  0.1101  0.5227
  909MOL0     C22644   4.907  11.609   5.741 -0.9292  0.1384  0.5280
  909MOL0     C22645   4.920  11.719   5.781 -0.6235  1.1198 -0.0393
  909MOL0     C22646   5.157  10.947   5.915 -0.3952  0.5434 -0.3505
  909MOL0     C22647   5.212  10.850   5.998  0.3829 -0.2964 -0.3070
  909MOL0     H22648   5.653  10.687   6.302  0.6285  1.1244  0.8696
  909MOL0     H22649   5.681  10.531   6.484 -1.3943 -1.2300 -0.7247
  909MOL0     H22650   5.725  10.494   6.700  0.0753 -1.3410 -0.5135
  909MOL0     H22651   5.643  10.428   6.849  1.6183 -0.6179 -0.3557
  909MOL0     H22652   5.583  10.343   6.554  1.5356  0.8854 -0.0321
  909MOL0     H22653   5.694  10.259   6.660 -0.4792 -1.0831  2.6768
  909MOL0     H22654   5.406  10.305   6.765 -0.4699  0.1044 -0.3873
  909MOL0     H22655   5.433  10.174   6.660 -4.6573  0.2920  2.2769
  909MOL0     H22656   5.605  10.087   6.804 -1.7306 -1.5810  0.4302
  909MOL0     H22657   5.576  10.226   6.922 -1.0952  0.3705  0.1310
  909MOL0     H22658   5.365  10.022   6.821  1.8323 -0.0104  0.4101
  909MOL0     H22659   5.467   9.992   6.961  3.8076  1.2095 -1.2084
  909MOL0     H22660   5.390  10.223   7.061  0.7378 -0.9648 -0.5345
  909MOL0     H22661   5.276  10.230   6.926 -0.7329 -1.1300  0.6923
  909MOL0     H22662   5.183   9.995   7.019  0.9324 -0.8359  0.1034
  909MOL0     H22663   5.293  10.019   7.155 -4.2061 -1.6458  2.1981
  909MOL0     H22664   5.204  10.212   7.227 -2.5889  1.3777  1.5832
  909MOL0     H22665   5.075  10.089   7.225  1.7278 -0.1738  1.8261
  909MOL0     H22666   4.887  10.075   7.064  2.5380 -0.5522  1.7131
  909MOL0     H22667   4.687  10.356   6.896  2.2515  1.0920  0.9654
  909MOL0     H22668   4.683  10.182   6.887  1.8165  0.5629 -0.4901
  909MOL0     H22669   4.636  10.369   7.132 -2.9207  1.3008 -0.1885
  909MOL0     H22670   4.627  10.193   7.135 -0.5741 -0.0012 -0.5118
  909MOL0     H22671   4.448  10.205   6.989  1.3656  0.8244 -1.8096
  909MOL0     H22672   4.438  10.383   6.970 -1.4656 -0.4048 -0.8227
  909MOL0     H22673   4.450  10.278   7.243  4.1298 -1.3942 -3.6289
  909MOL0     H22674   4.310  10.217   7.158 -1.5049  1.9029 -0.1892
  909MOL0     H22675   4.261  10.672   7.146 -0.7621 -0.1003 -0.0803
  909MOL0     H22676   4.086  10.839   7.154 -1.3450 -0.1873 -0.0349
  909MOL0     H22677   4.060  10.849   6.980  1.0959  2.2953  2.2568
  909MOL0     H22678   3.927  10.795   7.088 -0.0423  0.0031 -0.7805
  909MOL0     H22679   3.681  10.802   6.783  1.2977  0.0648 -0.1559
  909MOL0     H22680   3.463  10.852   6.710  1.3769 -0.7607  1.1018
  909MOL0     H22681   3.181  10.628   6.888 -0.2535  0.3372  1.8864
  909MOL0     H22682   3.174  10.803   6.870  1.3104 -0.9205  1.6566
  909MOL0     H22683   2.973  10.781   6.734  0.1394 -0.5052 -1.3710
  909MOL0     H22684   3.004  10.617   6.704  4.5338  2.5806 -2.3898
  909MOL0     H22685   2.952  10.744   6.982 -0.0249  3.0114 -3.1862
  909MOL0     H22686   2.953  10.576   6.964 -2.6311 -0.1975  0.4837
  909MOL0     H22687   2.735  10.762   6.867 -0.8101 -1.2322  1.3088
  909MOL0     H22688   2.732  10.596   6.822  3.7326 -2.1201 -1.0730
  909MOL0     H22689   2.719  10.736   7.097 -1.5623  0.3925  1.2082
  909MOL0     H22690   2.753  10.562   7.081 -0.4734 -0.2758 -0.7065
  909MOL0     H22691   2.509  10.692   6.967 -0.5511 -0.6174  1.1140
  909MOL0     H22692   2.543  10.529   6.953  1.1496  0.5218 -0.8550
  909MOL0     H22693   2.528  10.492   7.200 -0.8864 -0.1076  0.1403
  909MOL0     H22694   2.384  10.557   7.127  0.6236 -1.6814  0.2852
  909MOL0     H22695   2.601  10.749   7.258  0.2515 -0.7178  1.9699
  909MOL0     H22696   2.465  10.677   7.346  2.9324 -1.3488  0.2778
  909MOL0     H22697   3.320  10.455   6.811  0.7716 -0.0808 -1.0347
  909MOL0     H22698   3.559  10.395   6.860 -4.6378 -2.1585 -1.6186
  909MOL0     H22699   3.945  10.345   6.935  2.7744 -1.5891  0.4632
  909MOL0     H22700   4.121  10.268   7.090  1.1216 -0.0690  0.3267
  909MOL0     H22701   5.405  10.755   6.718  0.0275 -0.2055  0.6001
  909MOL0     H22702   5.367  10.907   6.506  1.6966  1.5311 -2.5310
  909MOL0     H22703   5.482  11.027   6.108  1.5509 -3.7359  0.0607
  909MOL0     H22704   5.407  11.179   5.932 -0.5227 -0.6661 -3.6279
  909MOL0     H22705   5.201  11.330   5.872 -1.1538 -4.3343  2.7910
  909MOL0     H22706   5.308  11.281   5.744 -0.7048 -1.5945 -1.4193
  909MOL0     H22707   5.100  11.328   5.576 -2.7058  5.6482 -1.7450
  909MOL0     H22708   5.150  11.470   5.680 -0.8584  1.5508  0.8521
  909MOL0     H22709   4.996  11.398   5.846  0.6423  3.3934 -0.3420
  909MOL0     H22710   4.927  11.277   5.739 -1.0399  0.3582 -0.6133
  909MOL0     H22711   4.805  11.433   5.657  0.7899 -1.4584 -0.5767
  909MOL0     H22712   4.941  11.496   5.568  2.0049  4.4082  1.6737
  909MOL0     H22713   4.925  11.819   5.818  1.7732  0.5196  1.5505
  909MOL0     H22714   5.065  10.916   5.867 -0.4455 -3.1242  1.7234
  909MOL0     H22715   5.161  10.754   6.006 -0.7571  0.2373 -0.9130
  910MOL0     O22716   3.141   7.774   2.142 -0.5833  0.2991 -0.1398
  910MOL0     C22717   3.152   7.895   2.103 -0.0077 -0.6553  0.3456
  910MOL0     O22718   3.269   7.958   2.053  0.1557 -0.4135  0.4897
  910MOL0     C22719   3.397   7.907   2.031  0.3199  0.0337 -0.8804
  910MOL0     C22720   3.440   7.911   1.899 -0.7306  0.5018  1.2734
  910MOL0     C22721   3.581   7.884   1.870  0.2357  0.0398 -0.0713
  910MOL0     C22722   3.671   7.845   1.974 -0.4148  0.0622 -0.1826
  910MOL0     O22723   3.796   7.817   1.944 -0.3131 -0.7311  0.1061
  910MOL0     C22724   3.897   7.856   2.039  0.1791  0.0610  0.0759
  910MOL0     C22725   4.034   7.838   1.980  0.2037  0.4713  0.2908
  910MOL0     C22726   4.043   7.687   1.935  0.2317 -0.4426  0.1943
  910MOL0     C22727   4.045   7.591   2.055  0.0514 -0.1753 -0.2091
  910MOL0     C22728   4.126   7.465   2.016  1.2334 -0.1088 -0.2131
  910MOL0     C22729   4.136   7.368   2.134  0.6396 -0.5997 -0.5819
  910MOL0     C22730   4.219   7.237   2.086 -0.2458 -0.0779 -0.0032
  910MOL0     C22731   4.154   7.111   2.134  0.1777  1.3620 -0.6556
  910MOL0     N22732   4.207   7.001   2.045 -0.7792 -0.0417 -0.0848
  910MOL0     C22733   4.173   6.971   1.917  0.7683 -0.0237  0.6407
  910MOL0     C22734   4.238   6.858   1.888 -0.5396  0.4147 -0.5534
  910MOL0     C22735   4.254   6.794   1.753 -0.1704  0.4205  0.2766
  910MOL0     C22736   4.397   6.803   1.686  0.2300  0.6240 -0.4894
  910MOL0     C22737   4.415   6.721   1.563 -0.5660 -0.0490  0.1494
  910MOL0     C22738   4.559   6.689   1.514  0.7803 -0.7428 -0.1235
  910MOL0     O22739   4.625   6.818   1.480  1.1014 -0.1103 -0.0952
  910MOL0     C22740   4.759   6.802   1.450 -0.3154  0.9416 -0.3235
  910MOL0     C22741   4.853   6.837   1.551 -1.0746  0.2003  0.2792
  910MOL0     C22742   4.998   6.844   1.523  0.7444 -0.5661 -0.3529
  910MOL0     C22743   5.082   6.897   1.636  0.3837 -0.0565  0.7425
  910MOL0     C22744   5.033   6.793   1.399  0.3275  0.3599 -0.8703
  910MOL0     C22745   5.174   6.788   1.359  0.0712 -0.1048  0.1714
  910MOL0     O22746   5.225   6.678   1.293  0.2377  0.3253 -0.2115
  910MOL0     C22747   5.354   6.695   1.251 -0.0806 -0.3894  0.0935
  910MOL0     C22748   5.463   6.699   1.333 -0.1394 -0.7112  0.0280
  910MOL0     C22749   5.600   6.699   1.286  0.3228 -0.9787  0.1667
  910MOL0     C22750   5.620   6.684   1.145 -0.0154 -0.4357  1.1375
  910MOL0     O22751   5.747   6.681   1.106  0.0679 -0.2317  0.5270
  910MOL0     C22752   5.770   6.689   0.969 -0.3979 -0.5707 -0.1243
  910MOL0     C22753   5.916   6.735   0.938  0.9323  0.8762  0.0393
  910MOL0     C22754   5.949   6.876   1.006  0.8566 -0.0350  0.3603
  910MOL0     C22755   6.101   6.899   0.983 -0.3251  0.3046  0.4896
  910MOL0     C22756   6.148   7.049   0.990  0.3232  0.0941 -0.2353
  910MOL0     C22757   6.168   7.077   1.137 -1.0229  0.0622 -0.1243
  910MOL0     C22758   6.246   7.209   1.155  0.0632  0.3532 -1.0738
  910MOL0     C22759   6.158   7.315   1.236 -0.3506  0.2576  0.2944
  910MOL0    Cl22760   6.262   7.454   1.231 -0.4393 -0.2188  0.1184
  910MOL0     C22761   5.505   6.689   1.061 -0.2994  0.0260  0.3921
  910MOL0     C22762   5.369   6.693   1.110 -0.0254  0.0455  0.8254
  910MOL0     O22763   5.243   6.890   1.381 -0.5884  0.0195  0.0904
  910MOL0     C22764   4.935   6.742   1.308 -0.3349 -0.5859 -0.2336
  910MOL0     C22765   4.791   6.760   1.328 -0.9169  0.2325  0.9345
  910MOL0     N22766   4.298   6.812   2.001 -0.3664 -0.0073  0.3897
  910MOL0     N22767   4.282   6.899   2.087  0.6812  0.1793 -0.0730
  910MOL0     C22768   3.614   7.840   2.115 -0.4588 -0.0706  0.9575
  910MOL0     C22769   3.480   7.873   2.142  0.2155 -0.3103  0.3402
  910MOL0     C22770   3.037   7.981   2.125  0.2738  0.9454 -0.1349
  910MOL0     C22771   2.935   7.945   2.211 -0.2339  0.2072 -0.0496
  910MOL0     C22772   2.819   8.009   2.212  0.8579 -0.7235 -0.5137
  910MOL0     C22773   2.794   8.123   2.135  0.4330 -0.3089 -0.7892
  910MOL0     O22774   2.667   8.178   2.155  0.4308  0.1161  0.0148
  910MOL0     C22775   2.646   8.292   2.074 -0.5526  0.6479 -0.7635
  910MOL0     C22776   2.503   8.344   2.112 -0.4537  0.4801 -0.0987
  910MOL0     C22777   2.469   8.486   2.062 -0.3179  0.8224 -1.0800
  910MOL0     C22778   2.415   8.481   1.916  0.1876 -0.4416  0.3564
  910MOL0     C22779   2.275   8.470   1.918  0.1097 -0.6908 -0.4578
  910MOL0     C22780   2.157   8.467   1.932  0.7812 -0.4579 -0.1452
  910MOL0     C22781   2.902   8.169   2.057  0.5342 -0.6581 -0.4394
  910MOL0     C22782   3.019   8.099   2.050  0.5603 -0.2021  1.0472
  910MOL0     H22783   3.372   7.929   1.817  2.4017 -1.5303 -2.0800
  910MOL0     H22784   3.621   7.884   1.769  1.7524  2.1004  0.4609
  910MOL0     H22785   3.890   7.963   2.062  3.0604  0.2943  0.1500
  910MOL0     H22786   3.884   7.799   2.131 -0.2466 -2.4054 -1.4311
  910MOL0     H22787   4.045   7.901   1.891 -1.6059  1.4608  0.6984
  910MOL0     H22788   4.122   7.851   2.043  1.6349 -3.4482 -0.6265
  910MOL0     H22789   3.964   7.663   1.864  0.2065  2.8554 -1.0508
  910MOL0     H22790   4.136   7.674   1.878 -1.2193  1.0608 -2.7147
  910MOL0     H22791   4.090   7.636   2.144  0.7832 -1.7417  0.2511
  910MOL0     H22792   3.941   7.561   2.071  0.8376 -2.6230  0.8055
  910MOL0     H22793   4.079   7.416   1.930  0.0734  0.2163  0.2267
  910MOL0     H22794   4.221   7.493   1.970  0.6975 -0.9737 -1.9377
  910MOL0     H22795   4.175   7.413   2.226 -4.4522  0.0604  1.5895
  910MOL0     H22796   4.037   7.331   2.163  0.8993 -0.3376  0.6845
  910MOL0     H22797   4.208   7.239   1.977 -0.8521 -4.3181 -0.1911
  910MOL0     H22798   4.322   7.246   2.121 -0.1403 -4.1863  1.3151
  910MOL0     H22799   4.045   7.117   2.130 -0.0964  0.0379  2.4277
  910MOL0     H22800   4.175   7.091   2.240 -3.7723 -0.4196 -0.0286
  910MOL0     H22801   4.107   7.022   1.847 -0.6096  0.9582  2.5900
  910MOL0     H22802   4.214   6.694   1.771  1.6159 -0.1854  1.0569
  910MOL0     H22803   4.197   6.857   1.683  0.1376  0.6458  0.2245
  910MOL0     H22804   4.470   6.767   1.760 -0.7793  0.2702  0.3767
  910MOL0     H22805   4.417   6.909   1.668 -1.7497  1.4107  1.4540
  910MOL0     H22806   4.354   6.761   1.482  0.5873  2.3042  0.3683
  910MOL0     H22807   4.376   6.622   1.591 -2.0931  0.9674  1.7968
  910MOL0     H22808   4.562   6.628   1.423 -4.2577 -1.4636 -0.1436
  910MOL0     H22809   4.617   6.637   1.591 -0.0734  1.7726  2.3810
  910MOL0     H22810   4.815   6.857   1.650  1.3992  1.1305  1.1236
  910MOL0     H22811   5.140   6.816   1.680 -0.2281 -0.1619  1.3772
  910MOL0     H22812   5.149   6.976   1.600 -0.4693  0.3228 -0.0661
  910MOL0     H22813   5.027   6.948   1.716  1.0803  1.6497  0.1823
  910MOL0     H22814   5.466   6.684   1.441 -3.9009  2.4789  0.8209
  910MOL0     H22815   5.684   6.692   1.354 -0.3592 -2.7315  0.8875
  910MOL0     H22816   5.747   6.595   0.917 -1.9310 -0.3749  0.1532
  910MOL0     H22817   5.707   6.770   0.930 -0.9342 -1.3276 -0.8633
  910MOL0     H22818   5.989   6.662   0.975  0.2152 -0.2527 -0.7159
  910MOL0     H22819   5.935   6.733   0.830 -0.9802 -2.2407 -0.3725
  910MOL0     H22820   5.929   6.868   1.113 -1.9225 -3.8152 -0.2486
  910MOL0     H22821   5.889   6.956   0.962 -1.9736 -2.8082 -1.1975
  910MOL0     H22822   6.152   6.842   1.062 -3.4738 -1.4267  1.4442
  910MOL0     H22823   6.124   6.863   0.882 -5.0619 -2.0445 -0.0602
  910MOL0     H22824   6.063   7.109   0.955 -1.9303 -4.0174 -2.6770
  910MOL0     H22825   6.239   7.064   0.931  0.8436 -0.9393  0.2747
  910MOL0     H22826   6.076   7.080   1.197 -0.0023  1.8145  1.4929
  910MOL0     H22827   6.226   7.002   1.192 -1.8574 -0.3694  0.1978
  910MOL0     H22828   6.275   7.241   1.054  3.7779 -0.6715 -0.4749
  910MOL0     H22829   6.333   7.190   1.218 -1.4779 -1.0457  0.7616
  910MOL0     H22830   6.131   7.283   1.338  2.1027  1.5030  1.4144
  910MOL0     H22831   6.066   7.334   1.180 -0.4443  2.5986  1.1208
  910MOL0     H22832   5.519   6.682   0.954  1.3468 -0.9710  0.6492
  910MOL0     H22833   5.285   6.680   1.043 -2.6244  1.6175  3.5524
  910MOL0     H22834   4.971   6.702   1.214 -2.8917 -1.2341 -1.0278
  910MOL0     H22835   4.725   6.731   1.247  1.4164 -1.0577 -0.6058
  910MOL0     H22836   3.690   7.813   2.188  2.5673  2.9783 -0.7643
  910MOL0     H22837   3.452   7.884   2.246 -2.9626 -3.2121 -0.0257
  910MOL0     H22838   2.937   7.854   2.269 -1.4326  0.4048  0.3456
  910MOL0     H22839   2.746   7.966   2.279  2.5362 -3.4519 -0.2772
  910MOL0     H22840   2.719   8.373   2.083  0.6747 -0.6078  1.3202
  910MOL0     H22841   2.645   8.253   1.972  1.8803  1.1227 -1.0199
  910MOL0     H22842   2.488   8.352   2.220 -1.0553  0.8481 -0.2059
  910MOL0     H22843   2.427   8.276   2.072  1.1689 -0.5917 -1.5082
  910MOL0     H22844   2.555   8.552   2.074 -1.8216  2.5097  1.5203
  910MOL0     H22845   2.395   8.523   2.134  0.6132  0.4602  0.0981
  910MOL0     H22846   2.458   8.395   1.864  0.2002 -1.7210  2.3338
  910MOL0     H22847   2.440   8.573   1.864  1.4564 -1.8424 -1.6463
  910MOL0     H22848   2.051   8.450   1.938  0.6197  0.0958 -1.1553
  910MOL0     H22849   2.891   8.258   1.995 -1.5711 -0.6320 -0.1148
  910MOL0     H22850   3.103   8.132   1.990  0.7012 -2.2131  0.0629
  911MOL0     O22851  10.871   7.649   7.053 -0.0432  0.2373 -0.2356
  911MOL0     C22852  10.762   7.704   7.066 -0.2707 -0.6068  0.1466
  911MOL0     O22853  10.678   7.757   6.968 -0.3188 -0.1530  0.3452
  911MOL0     C22854  10.721   7.774   6.843  0.1018 -0.2342 -0.2957
  911MOL0     C22855  10.624   7.774   6.734  0.7715 -0.3414 -0.6614
  911MOL0     C22856  10.657   7.793   6.603  0.0956 -0.2338 -0.2271
  911MOL0     C22857  10.800   7.802   6.564  0.7664  0.5426 -0.0997
  911MOL0     O22858  10.832   7.806   6.434 -0.3988 -0.4692  0.1210
  911MOL0     C22859  10.799   7.930   6.367 -0.8665  0.2832 -0.4922
  911MOL0     C22860  10.830   7.928   6.216  0.1059 -0.8191 -0.2539
  911MOL0     C22861  10.724   8.018   6.145  0.2319  0.4432 -0.0889
  911MOL0     C22862  10.743   8.020   5.997 -0.8192  0.4593  0.9815
  911MOL0     C22863  10.681   8.144   5.939 -0.2067  0.2032  0.6420
  911MOL0     C22864  10.701   8.153   5.783 -0.1533 -0.1207 -0.2608
  911MOL0     C22865  10.575   8.205   5.711 -0.4443  0.4741 -0.8141
  911MOL0     C22866  10.567   8.357   5.742 -0.7150 -1.3034  0.6203
  911MOL0     N22867  10.655   8.444   5.662  0.2429 -0.2575 -0.0303
  911MOL0     C22868  10.788   8.475   5.686  0.4340  0.5408 -0.9754
  911MOL0     C22869  10.833   8.566   5.604  0.5957 -0.2037 -0.0406
  911MOL0     C22870  10.981   8.608   5.595  0.4985  0.0837  0.0462
  911MOL0     C22871  11.068   8.505   5.513 -0.8314 -0.2987  0.2851
  911MOL0     C22872  11.115   8.397   5.617 -0.0856  0.2396 -0.6395
  911MOL0     C22873  11.220   8.306   5.555 -0.4690 -0.2104  0.1489
  911MOL0     O22874  11.351   8.368   5.565  0.9474  0.5007 -0.2669
  911MOL0     C22875  11.455   8.285   5.535 -0.7320  0.2175  0.6123
  911MOL0     C22876  11.580   8.352   5.540  0.8447 -0.0947 -0.0523
  911MOL0     C22877  11.695   8.282   5.530  1.4604 -0.3859  0.0285
  911MOL0     C22878  11.819   8.366   5.561  0.4616  0.0259  0.9837
  911MOL0     C22879  11.689   8.145   5.517 -1.0943 -0.5752  0.6320
  911MOL0     C22880  11.814   8.055   5.511  0.8124  0.6690 -0.5966
  911MOL0     O22881  11.792   7.923   5.502  0.4285  0.9225 -0.6682
  911MOL0     C22882  11.899   7.832   5.477 -0.6962  0.0385 -0.1234
  911MOL0     C22883  11.902   7.765   5.356 -0.6363 -0.4625  0.9574
  911MOL0     C22884  12.015   7.708   5.305  1.1673  0.5044  0.1021
  911MOL0     C22885  12.126   7.701   5.383 -0.2762 -0.3840 -0.8932
  911MOL0     O22886  12.243   7.643   5.342  0.1984 -0.6503 -0.0568
  911MOL0     C22887  12.295   7.690   5.218 -0.2881 -0.3114  0.8148
  911MOL0     C22888  12.450   7.688   5.238  0.2572 -0.1062 -0.4706
  911MOL0     C22889  12.510   7.545   5.237 -0.0324 -1.2212 -1.0023
  911MOL0     C22890  12.670   7.542   5.236  0.8621 -0.4353 -0.6288
  911MOL0     C22891  12.716   7.399   5.225  0.4448  0.0385 -0.5173
  911MOL0     C22892  12.868   7.394   5.179 -0.0916  0.4490 -0.7420
  911MOL0     C22893  12.922   7.244   5.192  0.1944  0.6940 -0.1078
  911MOL0     C22894  12.944   7.183   5.332 -0.3322  0.0906 -0.0303
  911MOL0    Cl22895  12.962   7.013   5.294  0.1098  0.3809 -0.6087
  911MOL0     C22896  12.115   7.744   5.519 -0.2241 -0.1088 -0.2422
  911MOL0     C22897  12.012   7.818   5.561  0.0865  0.1865 -0.3694
  911MOL0     O22898  11.924   8.101   5.506 -0.3405 -0.6688 -0.3522
  911MOL0     C22899  11.562   8.077   5.508 -0.3910 -0.3375  0.0239
  911MOL0     C22900  11.441   8.145   5.512  0.0187  0.1662 -0.1818
  911MOL0     N22901  10.723   8.606   5.531  0.3883  0.1787 -0.3773
  911MOL0     N22902  10.621   8.523   5.558 -0.6347 -0.2776  0.1505
  911MOL0     C22903  10.895   7.797   6.671  0.5542 -0.3401 -1.0813
  911MOL0     C22904  10.857   7.790   6.810 -0.6223 -0.0790  0.8039
  911MOL0     C22905  10.697   7.720   7.200 -0.8042  0.1391  0.1031
  911MOL0     C22906  10.604   7.821   7.222 -0.2221 -1.0556 -0.2451
  911MOL0     C22907  10.552   7.833   7.351  0.2037  0.7848  1.6297
  911MOL0     C22908  10.583   7.754   7.455  0.6066 -0.3516 -0.4442
  911MOL0     O22909  10.534   7.787   7.574 -0.5853 -0.2012 -0.4462
  911MOL0     C22910  10.605   7.734   7.683 -0.3699 -0.0007 -0.4457
  911MOL0     C22911  10.576   7.795   7.820  0.3014 -0.4553 -0.3439
  911MOL0     C22912  10.588   7.946   7.825 -0.2344  0.2622  0.1902
  911MOL0     C22913  10.736   7.977   7.849  0.6444 -0.4914  0.0289
  911MOL0     C22914  10.775   8.115   7.808  0.4648 -0.2302  0.6630
  911MOL0     C22915  10.835   8.219   7.788 -0.9785  0.2744  1.1944
  911MOL0     C22916  10.670   7.644   7.429  0.9339  0.0526  1.1700
  911MOL0     C22917  10.733   7.633   7.307  0.3675  0.0641 -0.6790
  911MOL0     H22918  10.522   7.744   6.756  0.3660  1.9370  0.8607
  911MOL0     H22919  10.591   7.782   6.518  0.8721  2.0673 -1.2021
  911MOL0     H22920  10.696   7.965   6.375  0.2973  4.1396 -0.6265
  911MOL0     H22921  10.859   8.006   6.417  1.2528 -3.3282  3.0538
  911MOL0     H22922  10.930   7.961   6.187 -0.2044 -0.0434 -0.4717
  911MOL0     H22923  10.833   7.820   6.199 -0.1255 -1.1536  1.5727
  911MOL0     H22924  10.626   7.975   6.165  0.5450 -0.7185 -0.9340
  911MOL0     H22925  10.723   8.116   6.193 -0.3333  0.5641 -0.3506
  911MOL0     H22926  10.851   8.023   5.978 -1.1446  0.4818 -1.0698
  911MOL0     H22927  10.708   7.925   5.955  0.5406  0.1668  0.4393
  911MOL0     H22928  10.573   8.133   5.953 -0.4276  2.5191  1.1585
  911MOL0     H22929  10.711   8.233   5.994  1.9199  0.0865 -0.2064
  911MOL0     H22930  10.789   8.214   5.758 -0.9886  3.0397  3.4865
  911MOL0     H22931  10.720   8.049   5.753 -4.0087 -1.8122  2.3270
  911MOL0     H22932  10.572   8.186   5.604  1.3847  1.3888 -1.0622
  911MOL0     H22933  10.482   8.173   5.759 -2.3457  2.9537 -2.5950
  911MOL0     H22934  10.589   8.378   5.847  0.0000  1.9364 -0.0667
  911MOL0     H22935  10.467   8.391   5.711  0.5477 -0.2502 -2.7940
  911MOL0     H22936  10.858   8.428   5.754  0.9064  1.7645 -0.5883
  911MOL0     H22937  10.972   8.707   5.550 -2.0626 -1.2007 -2.6043
  911MOL0     H22938  11.020   8.623   5.696 -0.4476  1.7599  0.2082
  911MOL0     H22939  11.146   8.561   5.460  1.6421  2.4068  5.8702
  911MOL0     H22940  11.003   8.454   5.442  0.7760 -0.6461 -0.9907
  911MOL0     H22941  11.036   8.327   5.645  1.5756 -1.4496  0.0291
  911MOL0     H22942  11.162   8.446   5.703 -3.9869  2.4475  0.4859
  911MOL0     H22943  11.190   8.278   5.454 -0.7823  0.1676  0.1336
  911MOL0     H22944  11.214   8.221   5.624 -0.2330 -0.8797 -0.6482
  911MOL0     H22945  11.585   8.453   5.578 -0.6201 -0.3161  0.8048
  911MOL0     H22946  11.900   8.333   5.495  0.4482  2.1372 -0.1577
  911MOL0     H22947  11.807   8.474   5.549 -3.1026 -0.2625  0.9544
  911MOL0     H22948  11.849   8.351   5.665 -0.0901 -0.7835  1.0419
  911MOL0     H22949  11.815   7.764   5.292  1.5763 -4.0794 -2.4481
  911MOL0     H22950  12.010   7.657   5.210  0.9782  2.2989 -0.8884
  911MOL0     H22951  12.265   7.631   5.131 -1.3490  0.4534  0.6361
  911MOL0     H22952  12.265   7.794   5.199 -1.8219 -0.7712  0.5971
  911MOL0     H22953  12.511   7.742   5.165  1.4364 -2.4801 -1.3428
  911MOL0     H22954  12.470   7.732   5.336 -2.8214 -0.3228  0.3587
  911MOL0     H22955  12.470   7.502   5.145 -0.5364 -0.3990 -1.1809
  911MOL0     H22956  12.481   7.472   5.313  2.4991 -1.2512  0.0416
  911MOL0     H22957  12.705   7.594   5.147  0.3706  0.1067 -0.5141
  911MOL0     H22958  12.722   7.584   5.323  1.3728 -0.4185 -0.9399
  911MOL0     H22959  12.646   7.358   5.153 -2.2005  2.3944  0.5223
  911MOL0     H22960  12.710   7.347   5.321  1.6921 -0.1248 -0.5064
  911MOL0     H22961  12.877   7.425   5.074  2.6133  1.8458 -0.1689
  911MOL0     H22962  12.926   7.465   5.239  0.7525 -2.9182  2.8289
  911MOL0     H22963  13.016   7.238   5.137  0.9377 -0.2598  1.2014
  911MOL0     H22964  12.841   7.179   5.158  0.9114  0.8473 -2.2689
  911MOL0     H22965  12.869   7.194   5.411 -1.7547 -1.9296 -1.0453
  911MOL0     H22966  13.039   7.220   5.373  0.3127  2.3363 -3.1859
  911MOL0     H22967  12.187   7.728   5.599  1.1732 -0.3211 -1.4862
  911MOL0     H22968  12.010   7.851   5.664  2.4379  0.4681 -0.3730
  911MOL0     H22969  11.562   7.969   5.491 -1.3384 -0.4337  0.5797
  911MOL0     H22970  11.346   8.097   5.488  0.2099  0.7878 -2.4555
  911MOL0     H22971  11.002   7.812   6.660  0.4617 -0.3726 -2.1537
  911MOL0     H22972  10.941   7.815   6.875 -0.8344  2.8600  0.1096
  911MOL0     H22973  10.559   7.900   7.163 -1.9540 -2.3205 -0.7140
  911MOL0     H22974  10.466   7.896   7.373 -0.4516 -0.1885  1.9201
  911MOL0     H22975  10.600   7.625   7.674 -0.3112  0.0718 -1.4576
  911MOL0     H22976  10.713   7.750   7.671 -0.7329  1.9439 -1.4384
  911MOL0     H22977  10.635   7.744   7.897  0.5423 -1.7616 -1.3672
  911MOL0     H22978  10.472   7.767   7.838  0.4664 -1.7454 -1.2812
  911MOL0     H22979  10.516   7.977   7.901 -0.3992  1.6101 -0.4994
  911MOL0     H22980  10.552   8.001   7.738 -1.6451 -2.9060 -1.3860
  911MOL0     H22981  10.804   7.907   7.799 -0.2843 -3.5144  2.6742
  911MOL0     H22982  10.760   7.964   7.955  1.7004  1.5507  0.0952
  911MOL0     H22983  10.880   8.316   7.779 -0.0366 -0.3549 -2.4445
  911MOL0     H22984  10.693   7.573   7.508 -1.9858  1.8729  3.9212
  911MOL0     H22985  10.790   7.541   7.301  0.8634  0.3468 -0.2990
  912MOL0     O22986   9.940   3.570   2.742 -0.1308  0.4266  0.7741
  912MOL0     C22987  10.059   3.583   2.715 -0.5355 -0.2025 -1.1312
  912MOL0     O22988  10.169   3.562   2.805 -0.3899 -0.1356 -0.4656
  912MOL0     C22989  10.139   3.540   2.938  0.8737  0.6808 -0.3052
  912MOL0     C22990  10.111   3.412   2.991  0.2497 -0.8588  0.9430
  912MOL0     C22991  10.069   3.404   3.125 -0.5081 -0.6454 -1.0207
  912MOL0     C22992  10.045   3.519   3.206  0.1679 -0.5530  0.7458
  912MOL0     O22993   9.990   3.495   3.324 -0.5619  0.4022 -0.6804
  912MOL0     C22994   9.941   3.610   3.407 -0.1032 -0.6754 -0.1006
  912MOL0     C22995   9.887   3.558   3.546 -0.1386 -0.3547  0.3247
  912MOL0     C22996   9.755   3.484   3.520  0.4996  0.1852 -0.5863
  912MOL0     C22997   9.691   3.414   3.644  0.7825 -0.4447  0.1265
  912MOL0     C22998   9.547   3.375   3.599  0.6908 -0.1420 -0.6095
  912MOL0     C22999   9.464   3.306   3.711 -0.0935 -0.5466 -0.5222
  912MOL0     C23000   9.486   3.157   3.715  0.3125 -0.2706  0.1528
  912MOL0     C23001   9.619   3.104   3.783  0.3179 -0.2032 -0.6515
  912MOL0     N23002   9.637   2.954   3.757 -0.2480 -0.3911 -0.0358
  912MOL0     C23003   9.613   2.882   3.644 -0.3725  0.5582 -0.3938
  912MOL0     C23004   9.643   2.751   3.674 -0.3934 -0.2325 -0.2082
  912MOL0     C23005   9.638   2.644   3.575  0.2005 -0.0933 -0.4067
  912MOL0     C23006   9.732   2.655   3.450 -0.3069 -0.4184 -0.1987
  912MOL0     C23007   9.734   2.529   3.372  0.4379  0.4383  0.5508
  912MOL0     C23008   9.830   2.518   3.254 -0.4439  1.0425 -1.0656
  912MOL0     O23009   9.771   2.601   3.158 -0.0230  0.5561  0.4322
  912MOL0     C23010   9.833   2.610   3.041  0.8067 -0.1175 -0.2923
  912MOL0     C23011   9.765   2.690   2.946 -0.2952 -0.4070  0.2546
  912MOL0     C23012   9.821   2.702   2.821 -0.3658 -0.0523 -0.8381
  912MOL0     C23013   9.741   2.777   2.725  0.2942 -0.7465 -0.0359
  912MOL0     C23014   9.947   2.654   2.786  0.1973 -0.0285  0.3885
  912MOL0     C23015  10.027   2.682   2.656 -0.4342  0.4992 -0.5813
  912MOL0     O23016   9.994   2.787   2.584  0.2333  0.3301 -1.1324
  912MOL0     C23017  10.041   2.795   2.455 -0.5477  0.4967  0.2482
  912MOL0     C23018  10.054   2.683   2.368 -0.2770 -0.3839  0.0485
  912MOL0     C23019  10.095   2.704   2.240 -0.8232 -0.2224  0.5898
  912MOL0     C23020  10.119   2.838   2.191  0.7461  0.1238  0.6219
  912MOL0     O23021  10.135   2.870   2.053  0.2994  0.2264  0.8905
  912MOL0     C23022  10.051   2.803   1.949 -0.3045  1.1417 -1.4073
  912MOL0     C23023  10.089   2.836   1.806 -0.2402 -0.1456  0.3119
  912MOL0     C23024  10.234   2.825   1.782  0.0461 -0.0603 -0.0069
  912MOL0     C23025  10.272   2.824   1.628  0.5322 -0.1687  1.0729
  912MOL0     C23026  10.429   2.800   1.603 -0.4978  0.0942 -0.3392
  912MOL0     C23027  10.477   2.845   1.460  0.2820  0.4842 -0.2641
  912MOL0     C23028  10.626   2.836   1.439  0.4102 -0.1471  0.6248
  912MOL0     C23029  10.735   2.855   1.550  0.1764  0.6696 -0.5913
  912MOL0    Cl23030  10.893   2.841   1.461  0.0473 -0.3598 -0.3195
  912MOL0     C23031  10.097   2.943   2.277 -0.1708  0.5719  0.6536
  912MOL0     C23032  10.049   2.925   2.401  0.0003  0.7637 -0.0734
  912MOL0     O23033  10.114   2.606   2.627 -0.9718  0.3493 -0.2562
  912MOL0     C23034  10.025   2.602   2.889 -0.1112  1.3451 -0.7894
  912MOL0     C23035   9.958   2.560   3.013 -0.3381  0.8887  0.9999
  912MOL0     N23036   9.689   2.746   3.809  0.1244 -0.3274 -0.2288
  912MOL0     N23037   9.678   2.865   3.853  0.8805 -0.0888 -0.0110
  912MOL0     C23038  10.069   3.643   3.151  0.6015 -0.5132  0.7440
  912MOL0     C23039  10.105   3.647   3.012  0.2953 -0.3000  0.2618
  912MOL0     C23040  10.092   3.586   2.569 -0.2476 -0.5318 -0.0618
  912MOL0     C23041  10.223   3.603   2.522  0.6293  0.3667 -0.1466
  912MOL0     C23042  10.243   3.622   2.393  0.4629  0.0719  0.1180
  912MOL0     C23043  10.147   3.638   2.299  0.0745 -0.4838 -0.1395
  912MOL0     O23044  10.162   3.674   2.174  0.0863 -0.2231 -0.4257
  912MOL0     C23045  10.286   3.649   2.108  0.1526 -0.2087 -0.1213
  912MOL0     C23046  10.269   3.675   1.954 -0.6881  0.1477 -0.5304
  912MOL0     C23047  10.404   3.654   1.885  0.2218 -0.9727  0.4950
  912MOL0     C23048  10.396   3.693   1.735 -0.7797 -0.3062 -0.0184
  912MOL0     C23049  10.318   3.602   1.656  0.0266 -0.4285  0.2490
  912MOL0     C23050  10.253   3.536   1.578 -0.2200 -0.6481 -0.0409
  912MOL0     C23051  10.011   3.631   2.343 -0.2291  0.2964  0.1249
  912MOL0     C23052   9.986   3.603   2.482  1.1067 -0.0699  0.1560
  912MOL0     H23053  10.142   3.325   2.934  2.6028  1.1477 -1.1323
  912MOL0     H23054  10.057   3.305   3.168 -0.3105 -0.4731 -0.5634
  912MOL0     H23055  10.015   3.689   3.424 -1.0224  0.3209 -0.6196
  912MOL0     H23056   9.857   3.659   3.356  1.0936  1.3190 -0.2405
  912MOL0     H23057   9.958   3.493   3.598  0.5166 -0.0494 -0.1770
  912MOL0     H23058   9.875   3.644   3.613  1.1346 -0.4501  0.7131
  912MOL0     H23059   9.682   3.554   3.477 -0.3357 -1.0297 -1.1986
  912MOL0     H23060   9.771   3.408   3.442  0.2877 -0.2766 -0.1832
  912MOL0     H23061   9.746   3.321   3.657  1.4525  0.0969  1.3980
  912MOL0     H23062   9.695   3.488   3.725  2.6704  1.0513 -1.2402
  912MOL0     H23063   9.494   3.463   3.563  0.9054 -0.8109 -2.6567
  912MOL0     H23064   9.553   3.307   3.514 -4.2029 -0.9354 -0.6109
  912MOL0     H23065   9.477   3.354   3.809  1.1596  1.8023 -1.7439
  912MOL0     H23066   9.358   3.317   3.689 -0.5400  2.8279  2.2945
  912MOL0     H23067   9.405   3.111   3.774  2.2839 -0.1820  3.1283
  912MOL0     H23068   9.482   3.118   3.613 -1.3630  1.9872 -0.7333
  912MOL0     H23069   9.618   3.115   3.892  2.1028  0.4531 -0.6685
  912MOL0     H23070   9.710   3.149   3.741  0.4856  1.7626  1.6187
  912MOL0     H23071   9.577   2.911   3.546 -2.7729 -3.1501 -0.8202
  912MOL0     H23072   9.669   2.551   3.624  2.6686 -0.4223 -2.3683
  912MOL0     H23073   9.532   2.631   3.552 -1.1121  3.1067  2.9184
  912MOL0     H23074   9.835   2.676   3.478 -0.0110 -2.9438  0.8797
  912MOL0     H23075   9.689   2.740   3.397 -0.1927  0.4508  1.0560
  912MOL0     H23076   9.638   2.519   3.319  1.2775  1.6148 -1.2865
  912MOL0     H23077   9.726   2.443   3.439  1.3447 -1.5528 -1.7280
  912MOL0     H23078   9.821   2.418   3.209  0.8153  0.3812  0.0885
  912MOL0     H23079   9.931   2.539   3.289  0.6190 -0.9822 -2.6796
  912MOL0     H23080   9.681   2.743   2.989 -0.1962  0.0946 -0.1633
  912MOL0     H23081   9.643   2.807   2.762  0.2312 -1.6618  0.5683
  912MOL0     H23082   9.790   2.868   2.686 -5.0785  0.8528 -4.4135
  912MOL0     H23083   9.713   2.711   2.642 -2.4367 -0.0081  0.1931
  912MOL0     H23084  10.052   2.579   2.400 -3.0140 -0.3446  0.2158
  912MOL0     H23085  10.097   2.617   2.175  1.7695  0.6772 -0.6529
  912MOL0     H23086  10.051   2.696   1.972  2.0390  1.3426 -0.1610
  912MOL0     H23087   9.946   2.832   1.955 -0.4750  0.7547 -2.4390
  912MOL0     H23088  10.030   2.769   1.743  1.3265 -1.6848  0.4000
  912MOL0     H23089  10.058   2.941   1.806 -0.6612 -0.2357  1.9103
  912MOL0     H23090  10.282   2.737   1.826  3.4230  1.6329 -0.0288
  912MOL0     H23091  10.287   2.907   1.831 -0.5543 -0.6097  1.6602
  912MOL0     H23092  10.217   2.745   1.576 -0.0929 -0.0133  1.4909
  912MOL0     H23093  10.241   2.919   1.583 -0.4853 -0.7209  0.5831
  912MOL0     H23094  10.455   2.697   1.627 -1.5373 -0.5010 -1.6454
  912MOL0     H23095  10.469   2.871   1.676 -1.3838  0.9570 -0.6652
  912MOL0     H23096  10.430   2.771   1.395  0.5819 -2.3535  2.5309
  912MOL0     H23097  10.432   2.943   1.438 -2.6597 -0.3774  1.3951
  912MOL0     H23098  10.644   2.903   1.354 -2.2806  0.9787  0.8487
  912MOL0     H23099  10.641   2.733   1.406 -3.0341 -1.3737  2.4079
  912MOL0     H23100  10.728   2.778   1.627  1.1647  2.1846  1.0976
  912MOL0     H23101  10.724   2.952   1.599  2.4132  1.2144 -1.0747
  912MOL0     H23102  10.090   3.044   2.238 -0.2539  0.6841  0.9583
  912MOL0     H23103  10.041   3.002   2.478 -0.3458 -1.6624  2.4795
  912MOL0     H23104  10.128   2.570   2.875 -0.4895 -0.3061 -0.0494
  912MOL0     H23105  10.012   2.492   3.077 -0.8543  0.3207  0.8411
  912MOL0     H23106  10.052   3.733   3.209  1.3977  1.1732 -1.4871
  912MOL0     H23107  10.115   3.744   2.964  0.6751 -0.8081 -0.7289
  912MOL0     H23108  10.320   3.587   2.568  1.1615  1.4786 -0.8348
  912MOL0     H23109  10.348   3.623   2.364  0.4440 -1.8722 -0.1492
  912MOL0     H23110  10.360   3.717   2.152 -0.6176  1.1525 -0.8694
  912MOL0     H23111  10.317   3.544   2.111 -0.4293 -0.5097 -2.5852
  912MOL0     H23112  10.230   3.776   1.940 -1.0471  0.3149  1.4020
  912MOL0     H23113  10.198   3.598   1.925 -0.4962  0.0252 -0.6735
  912MOL0     H23114  10.429   3.548   1.895  0.8398 -1.0328 -1.2690
  912MOL0     H23115  10.492   3.699   1.933  0.4222  0.5639 -1.1688
  912MOL0     H23116  10.497   3.684   1.696 -0.9593  0.6053 -0.7260
  912MOL0     H23117  10.377   3.800   1.723  0.1882  0.3102  3.0153
  912MOL0     H23118  10.189   3.479   1.514 -0.8638 -0.0917  0.0950
  912MOL0     H23119   9.932   3.648   2.270 -0.8452 -1.3610  0.3644
  912MOL0     H23120   9.885   3.608   2.521  1.0517 -0.5369  0.0739
  913MOL0     O23121   0.303   9.511   6.408  1.3272  0.3888  0.1512
  913MOL0     C23122   0.382   9.450   6.342 -0.7324  0.0636  0.6649
  913MOL0     O23123   0.524   9.451   6.365 -0.4705 -1.1900  0.3665
  913MOL0     C23124   0.588   9.530   6.462  0.8959  0.1830 -0.0603
  913MOL0     C23125   0.688   9.463   6.533  0.1684  0.1573 -0.6139
  913MOL0     C23126   0.754   9.525   6.636  0.5384 -0.9491 -1.4781
  913MOL0     C23127   0.724   9.659   6.664 -0.1695 -1.3923  0.2255
  913MOL0     O23128   0.789   9.740   6.758  0.7043  0.1903  0.1635
  913MOL0     C23129   0.935   9.735   6.742 -1.1985  1.1222  0.1694
  913MOL0     C23130   1.001   9.800   6.862 -0.1179  0.4408 -0.7704
  913MOL0     C23131   1.150   9.796   6.854 -0.4077 -0.6551  0.6066
  913MOL0     C23132   1.223   9.874   6.960 -0.6812 -0.6355 -1.1125
  913MOL0     C23133   1.227   9.806   7.097  0.3369 -0.4625 -0.4844
  913MOL0     C23134   1.292   9.894   7.207  0.2507  0.6488 -0.2160
  913MOL0     C23135   1.451   9.892   7.213 -0.4504  0.4063  0.4550
  913MOL0     C23136   1.504   9.984   7.325  0.5351  0.1352  0.0869
  913MOL0     N23137   1.515   9.914   7.456 -0.5952 -0.2017 -0.2669
  913MOL0     C23138   1.428   9.836   7.521  0.3411  1.1015  1.0515
  913MOL0     C23139   1.468   9.817   7.649 -0.4155  0.3053 -0.1544
  913MOL0     C23140   1.421   9.709   7.745  0.5147 -0.1863 -0.5592
  913MOL0     C23141   1.499   9.581   7.718 -0.2772  1.2145  0.0960
  913MOL0     C23142   1.435   9.447   7.767 -0.9290 -0.0452  0.1816
  913MOL0     C23143   1.300   9.412   7.699  0.2690 -0.2783 -0.5791
  913MOL0     O23144   1.251   9.285   7.743  0.2688 -0.5650  0.1227
  913MOL0     C23145   1.308   9.168   7.709 -1.2660  0.6033 -0.9865
  913MOL0     C23146   1.337   9.090   7.817 -0.4106 -0.3814 -0.5723
  913MOL0     C23147   1.418   8.971   7.800 -0.2540  0.0108 -1.5178
  913MOL0     C23148   1.452   8.897   7.924 -0.8128  0.0689 -0.9825
  913MOL0     C23149   1.447   8.917   7.664  0.1900  0.7047 -0.5372
  913MOL0     C23150   1.530   8.802   7.631 -0.1426 -1.0038 -0.3612
  913MOL0     O23151   1.608   8.759   7.728  0.4256  0.6235  0.2592
  913MOL0     C23152   1.692   8.660   7.706  0.0176 -0.1822 -0.7156
  913MOL0     C23153   1.769   8.643   7.593 -0.0952  0.2791  0.6865
  913MOL0     C23154   1.843   8.531   7.563  0.3576  0.5142 -1.1180
  913MOL0     C23155   1.852   8.423   7.657 -0.0762  0.2182 -1.1768
  913MOL0     O23156   1.934   8.312   7.638  0.4885  0.2946 -0.2404
  913MOL0     C23157   2.043   8.297   7.731  0.1933  0.5062  0.0944
  913MOL0     C23158   2.090   8.147   7.719  0.1265  0.1336  0.7486
  913MOL0     C23159   2.120   8.110   7.571 -0.4742  0.6404  0.1421
  913MOL0     C23160   2.250   8.171   7.515 -0.8514 -0.1880 -0.7093
  913MOL0     C23161   2.257   8.168   7.358 -0.1556 -0.1436  0.0115
  913MOL0     C23162   2.384   8.235   7.314 -0.0631  0.5504  0.0734
  913MOL0     C23163   2.412   8.215   7.164  0.8163  0.2763 -0.8697
  913MOL0     C23164   2.426   8.071   7.106  0.0132 -0.1212 -0.0018
  913MOL0    Cl23165   2.472   8.071   6.935 -0.0793  0.2175  0.2596
  913MOL0     C23166   1.777   8.436   7.777  0.0450 -0.2292  0.1538
  913MOL0     C23167   1.699   8.557   7.799  0.0435 -0.3543 -0.6646
  913MOL0     O23168   1.517   8.745   7.523  0.6780 -0.7130  0.2981
  913MOL0     C23169   1.385   8.989   7.562  0.1857  0.2921  0.8119
  913MOL0     C23170   1.332   9.118   7.585 -0.1468  0.5909 -0.5612
  913MOL0     N23171   1.585   9.881   7.663  0.6585 -0.1925 -0.1443
  913MOL0     N23172   1.598   9.955   7.557 -0.3612 -0.4683  0.4677
  913MOL0     C23173   0.626   9.728   6.588 -0.2639  0.0667 -0.3031
  913MOL0     C23174   0.557   9.662   6.493 -0.4142 -0.3537  0.7764
  913MOL0     C23175   0.346   9.373   6.229  1.0565 -0.2324  1.4003
  913MOL0     C23176   0.214   9.374   6.182 -0.2408  0.3675  0.6694
  913MOL0     C23177   0.175   9.303   6.062  0.6393 -0.0261  0.6028
  913MOL0     C23178   0.270   9.233   5.986  0.2897 -0.6720 -0.8026
  913MOL0     O23179   0.256   9.173   5.862  1.0605  0.1673 -0.7876
  913MOL0     C23180   0.122   9.180   5.797  0.5450  0.2252  0.3807
  913MOL0     C23181   0.135   9.187   5.639  0.7606  0.8618 -1.5616
  913MOL0     C23182  -0.008   9.206   5.579  0.1929 -0.2027 -0.3257
  913MOL0     C23183  -0.006   9.224   5.423  0.3929 -0.1455  0.3349
  913MOL0     C23184  -0.133   9.268   5.364 -0.5638 -0.4850 -0.0165
  913MOL0     C23185  -0.238   9.313   5.321 -0.0840  0.6586 -0.5933
  913MOL0     C23186   0.398   9.253   6.027 -0.8999  1.0960 -0.5545
  913MOL0     C23187   0.437   9.302   6.152 -0.3184  0.2084 -0.2752
  913MOL0     H23188   0.714   9.360   6.514 -0.3785  0.0426 -0.7510
  913MOL0     H23189   0.836   9.467   6.678  0.2191  0.7243  1.7514
  913MOL0     H23190   0.964   9.629   6.740 -1.6442  0.9938 -1.5693
  913MOL0     H23191   0.965   9.788   6.651 -1.5397  0.0098 -0.6211
  913MOL0     H23192   0.981   9.907   6.856 -3.0492  0.1676  1.7085
  913MOL0     H23193   0.966   9.770   6.961 -2.6730 -3.0258 -2.5167
  913MOL0     H23194   1.193   9.695   6.848  1.6187  0.2267 -1.0344
  913MOL0     H23195   1.178   9.840   6.758  1.9476  1.7593  2.2364
  913MOL0     H23196   1.325   9.896   6.928 -0.3491 -0.0085  0.3118
  913MOL0     H23197   1.170   9.969   6.972 -1.7592 -0.5943 -4.9248
  913MOL0     H23198   1.122   9.786   7.122  0.6155 -0.6382  0.5813
  913MOL0     H23199   1.264   9.704   7.090  0.3911 -0.5629  0.9319
  913MOL0     H23200   1.262   9.998   7.194  0.8200  0.8403 -0.0328
  913MOL0     H23201   1.254   9.859   7.303  0.5893  2.2801  0.5366
  913MOL0     H23202   1.499   9.796   7.234  1.9775  0.0895 -4.8661
  913MOL0     H23203   1.490   9.937   7.122 -0.8889  2.5557  1.2656
  913MOL0     H23204   1.447  10.076   7.334 -0.0847 -0.1595 -0.7665
  913MOL0     H23205   1.605  10.010   7.293  0.5639  0.2493  0.2709
  913MOL0     H23206   1.351   9.777   7.472  0.7359  0.2193  1.4554
  913MOL0     H23207   1.441   9.751   7.844  0.3351  0.3503 -0.7512
  913MOL0     H23208   1.314   9.687   7.734  0.6235  0.6413 -4.7513
  913MOL0     H23209   1.591   9.582   7.777 -0.9086 -0.3037  1.1745
  913MOL0     H23210   1.516   9.558   7.612 -1.0189 -3.4116  0.7860
  913MOL0     H23211   1.416   9.455   7.875 -0.3991 -2.0093  0.4671
  913MOL0     H23212   1.504   9.362   7.761  0.6232  1.1461  0.4047
  913MOL0     H23213   1.293   9.433   7.592 -2.0428  0.6563 -0.2892
  913MOL0     H23214   1.219   9.472   7.742  1.1499  0.0497  0.7097
  913MOL0     H23215   1.310   9.129   7.915  1.4088 -0.2606 -0.0868
  913MOL0     H23216   1.559   8.890   7.944 -0.4867  1.7217 -1.9644
  913MOL0     H23217   1.413   8.938   8.017  0.1039 -0.4710 -0.3436
  913MOL0     H23218   1.414   8.795   7.911  0.5352 -0.3751 -1.7003
  913MOL0     H23219   1.766   8.721   7.518  0.5564  0.2308  0.6054
  913MOL0     H23220   1.886   8.516   7.465  3.0429  2.6505 -0.3814
  913MOL0     H23221   2.111   8.379   7.705 -1.0469  1.5394 -0.0092
  913MOL0     H23222   2.007   8.321   7.832  2.0017 -2.1175  1.4858
  913MOL0     H23223   2.184   8.128   7.772  0.8504  1.4177 -0.0357
  913MOL0     H23224   2.014   8.079   7.760  1.2957 -2.9754 -1.7779
  913MOL0     H23225   2.034   8.125   7.506  0.1366  1.1573 -0.5651
  913MOL0     H23226   2.148   8.005   7.579 -0.1699  0.7275  0.2381
  913MOL0     H23227   2.255   8.278   7.538 -2.3040  0.7302 -4.0433
  913MOL0     H23228   2.335   8.116   7.557 -0.7452  1.0129  0.7228
  913MOL0     H23229   2.169   8.205   7.304  1.7649  0.7275 -2.7381
  913MOL0     H23230   2.272   8.065   7.323  0.4141 -0.3074  0.7165
  913MOL0     H23231   2.368   8.343   7.326 -0.4491  0.4842  0.1727
  913MOL0     H23232   2.468   8.201   7.374  1.3683 -0.3496 -2.2944
  913MOL0     H23233   2.504   8.272   7.147  0.5590  1.0714  0.2234
  913MOL0     H23234   2.332   8.266   7.109 -1.2011 -0.3289  1.3374
  913MOL0     H23235   2.332   8.016   7.112  1.4244 -2.5650  1.4409
  913MOL0     H23236   2.501   8.010   7.157  0.3338 -0.8748 -1.3376
  913MOL0     H23237   1.774   8.359   7.854  1.1608  0.8073  1.2814
  913MOL0     H23238   1.652   8.557   7.897  2.9866  1.9203  0.8794
  913MOL0     H23239   1.385   8.961   7.457 -0.2619  1.3023  0.5331
  913MOL0     H23240   1.298   9.184   7.505  2.6400  0.5236 -1.8953
  913MOL0     H23241   0.601   9.833   6.601 -2.2092 -0.3638 -0.2760
  913MOL0     H23242   0.481   9.715   6.436 -0.1733  0.8075  1.5125
  913MOL0     H23243   0.150   9.451   6.224 -1.3383 -0.9679  1.5150
  913MOL0     H23244   0.071   9.313   6.031  0.0985 -1.1693  1.9008
  913MOL0     H23245   0.057   9.094   5.814  0.7327  0.0411  0.1698
  913MOL0     H23246   0.066   9.271   5.820  1.1215  0.8034 -0.4323
  913MOL0     H23247   0.176   9.087   5.621 -2.6903 -1.4682  1.8587
  913MOL0     H23248   0.195   9.270   5.600 -2.2517  2.2854 -3.4737
  913MOL0     H23249  -0.055   9.295   5.621  1.8886  1.1475 -1.1993
  913MOL0     H23250  -0.080   9.130   5.612 -1.0690  0.2287 -1.9474
  913MOL0     H23251   0.016   9.129   5.374 -0.4728  0.9354 -2.3776
  913MOL0     H23252   0.065   9.305   5.403 -0.5679  0.7917  0.6011
  913MOL0     H23253  -0.326   9.367   5.294  1.5968  2.1952 -3.5022
  913MOL0     H23254   0.465   9.214   5.951 -0.2117  1.2429 -0.0348
  913MOL0     H23255   0.543   9.307   6.176  0.2791 -2.2879 -2.0635
  914MOL0     O23256   6.338   1.217   5.070  0.6015  0.0155  0.1900
  914MOL0     C23257   6.260   1.122   5.065  0.7285  0.5269 -0.2549
  914MOL0     O23258   6.124   1.129   5.048 -0.3393 -0.4271  0.4434
  914MOL0     C23259   6.059   1.243   5.005 -0.5631 -0.1053  1.2365
  914MOL0     C23260   6.103   1.364   4.955 -0.5457  0.2564  0.3000
  914MOL0     C23261   6.025   1.482   4.932  1.0621  0.5086 -0.1206
  914MOL0     C23262   5.886   1.474   4.961  0.1666 -0.5076  0.5709
  914MOL0     O23263   5.796   1.578   4.935 -0.9743 -0.2536  0.6696
  914MOL0     C23264   5.824   1.676   4.836 -0.5955  0.3772  1.5781
  914MOL0     C23265   5.697   1.735   4.802  0.0566  0.4490 -0.2921
  914MOL0     C23266   5.634   1.813   4.917 -0.5369  0.3544 -0.4508
  914MOL0     C23267   5.584   1.948   4.867 -0.8787  0.3431 -0.2703
  914MOL0     C23268   5.552   2.032   4.998 -0.1673  0.7354  0.8036
  914MOL0     C23269   5.474   2.158   4.957 -0.9004  0.9634 -0.5659
  914MOL0     C23270   5.487   2.259   5.069 -0.2051 -0.1201 -0.3397
  914MOL0     C23271   5.352   2.337   5.085  0.5994 -0.5420 -0.0432
  914MOL0     N23272   5.362   2.474   5.133 -0.3757 -0.4902  0.5462
  914MOL0     C23273   5.415   2.576   5.054  0.2071  0.1328  0.6871
  914MOL0     C23274   5.365   2.691   5.118 -1.6222  0.2247 -0.4753
  914MOL0     C23275   5.359   2.831   5.068 -0.5891  1.0476 -0.4268
  914MOL0     C23276   5.273   2.821   4.944 -0.8042 -0.2753 -0.2820
  914MOL0     C23277   5.237   2.960   4.887 -0.0246 -0.1969  0.3269
  914MOL0     C23278   5.207   3.068   4.996  0.4717 -0.9220 -0.3919
  914MOL0     O23279   5.323   3.117   5.067 -0.9521  0.1149  0.1330
  914MOL0     C23280   5.413   3.192   4.986 -0.1587  0.4224 -0.4949
  914MOL0     C23281   5.397   3.252   4.862 -0.4061  0.0896  0.0394
  914MOL0     C23282   5.503   3.312   4.794  0.8669 -0.8240  0.2620
  914MOL0     C23283   5.468   3.367   4.658  0.4293  0.1816  0.4842
  914MOL0     C23284   5.626   3.316   4.861  0.3515 -0.1464 -0.6851
  914MOL0     C23285   5.754   3.383   4.813  0.7779 -0.2914  0.5289
  914MOL0     O23286   5.849   3.410   4.905  0.4694 -0.1954 -0.1869
  914MOL0     C23287   5.954   3.491   4.883 -0.1747 -0.0288  0.7365
  914MOL0     C23288   5.990   3.561   4.761 -0.5421  0.8508  0.0196
  914MOL0     C23289   6.114   3.634   4.753 -0.0707  0.2461 -0.2124
  914MOL0     C23290   6.205   3.623   4.860 -0.2645  0.4318 -0.5408
  914MOL0     O23291   6.328   3.678   4.871 -0.7989 -0.0684  0.7434
  914MOL0     C23292   6.369   3.799   4.795 -0.6051  0.6147  0.5443
  914MOL0     C23293   6.488   3.869   4.869  0.3953  0.2956 -0.3680
  914MOL0     C23294   6.467   3.909   5.025  0.3946  0.0636  0.8082
  914MOL0     C23295   6.589   3.957   5.095 -0.0954  0.0825 -0.2722
  914MOL0     C23296   6.561   4.025   5.230 -0.1587  0.4088  0.1922
  914MOL0     C23297   6.689   4.065   5.300  1.0571  0.6573  0.0464
  914MOL0     C23298   6.775   4.183   5.239  0.4017  0.1488  0.2738
  914MOL0     C23299   6.699   4.316   5.257 -0.6097  0.4527  0.1980
  914MOL0    Cl23300   6.816   4.450   5.221 -0.0395  0.2844  0.1280
  914MOL0     C23301   6.181   3.540   4.963  0.8827  0.6683  0.3407
  914MOL0     C23302   6.055   3.481   4.979 -0.5486 -0.5920 -0.0815
  914MOL0     O23303   5.758   3.405   4.696 -0.5949 -0.2481  0.2795
  914MOL0     C23304   5.639   3.267   4.996  0.7939  0.6201  0.3571
  914MOL0     C23305   5.531   3.199   5.054 -0.2256 -0.3363 -0.1009
  914MOL0     N23306   5.309   2.647   5.233 -0.5623 -0.1083  0.1646
  914MOL0     N23307   5.306   2.522   5.245  0.2535  0.4421  0.3152
  914MOL0     C23308   5.838   1.356   5.004  0.7522  0.6329 -0.3030
  914MOL0     C23309   5.923   1.241   5.026 -0.9417  0.0543 -0.6013
  914MOL0     C23310   6.320   0.987   5.086 -0.2301 -0.3788 -0.2759
  914MOL0     C23311   6.232   0.882   5.082 -0.3692  1.4048 -0.3108
  914MOL0     C23312   6.285   0.751   5.086 -0.0430  0.1052 -0.0693
  914MOL0     C23313   6.420   0.731   5.083  0.3226 -0.6299 -0.3610
  914MOL0     O23314   6.486   0.609   5.076  0.0047 -0.6805 -0.5019
  914MOL0     C23315   6.407   0.489   5.101 -0.4535  0.1225 -0.3498
  914MOL0     C23316   6.375   0.461   5.254 -0.0342 -0.1291 -0.1779
  914MOL0     C23317   6.356   0.311   5.281 -0.5967 -0.5334 -0.2554
  914MOL0     C23318   6.266   0.300   5.405 -0.6311  0.2562 -0.0636
  914MOL0     C23319   6.335   0.329   5.534 -0.5630  0.1004 -0.6223
  914MOL0     C23320   6.391   0.364   5.641 -0.5818  0.5760  0.1927
  914MOL0     C23321   6.511   0.842   5.088  0.0386 -0.5690  0.9699
  914MOL0     C23322   6.461   0.977   5.092 -0.1698 -0.3469  0.0835
  914MOL0     H23323   6.208   1.376   4.931 -0.8903 -0.0311 -1.4739
  914MOL0     H23324   6.066   1.572   4.890  0.1104  0.4825 -1.1434
  914MOL0     H23325   5.890   1.753   4.875  0.3141  0.4124  0.0206
  914MOL0     H23326   5.851   1.638   4.737  2.8310  3.1904  1.2666
  914MOL0     H23327   5.711   1.804   4.719  0.2879 -1.3259 -1.7990
  914MOL0     H23328   5.639   1.649   4.765  3.0298 -1.7742 -0.1003
  914MOL0     H23329   5.550   1.765   4.968  0.4847 -1.2574 -0.1914
  914MOL0     H23330   5.715   1.824   4.990  0.0423 -1.7279 -0.7152
  914MOL0     H23331   5.654   2.004   4.805  0.9092 -0.1676  1.1899
  914MOL0     H23332   5.491   1.945   4.809 -1.0845  2.4512 -0.1251
  914MOL0     H23333   5.478   1.982   5.062 -0.1019 -3.0898 -1.7857
  914MOL0     H23334   5.639   2.050   5.061 -0.2263 -0.0206  1.1193
  914MOL0     H23335   5.521   2.185   4.862  3.4887 -2.5807  0.2783
  914MOL0     H23336   5.368   2.135   4.941 -0.4456 -2.7062  0.7101
  914MOL0     H23337   5.498   2.208   5.165 -2.8000 -2.9100 -1.3510
  914MOL0     H23338   5.574   2.322   5.045  0.3681  0.1484  2.1511
  914MOL0     H23339   5.292   2.283   5.159 -2.2338 -0.5316 -2.1508
  914MOL0     H23340   5.288   2.334   4.996  0.5365 -0.0135 -0.0201
  914MOL0     H23341   5.459   2.566   4.956  0.1646  0.3498  0.6463
  914MOL0     H23342   5.305   2.886   5.146  1.1794  2.0270  0.1767
  914MOL0     H23343   5.457   2.881   5.065 -0.5322  0.8823 -1.5198
  914MOL0     H23344   5.180   2.773   4.976 -1.4199 -0.8450 -2.7392
  914MOL0     H23345   5.310   2.756   4.864  1.6404  0.9670 -0.2586
  914MOL0     H23346   5.155   2.943   4.816 -0.1752 -3.0032  1.0588
  914MOL0     H23347   5.329   2.988   4.835  0.0453 -1.0525 -0.0153
  914MOL0     H23348   5.134   3.040   5.072  0.7523 -1.5367 -0.3495
  914MOL0     H23349   5.149   3.148   4.948  1.8980  0.6531  0.3752
  914MOL0     H23350   5.301   3.238   4.813 -0.3257  2.2180 -0.8330
  914MOL0     H23351   5.364   3.348   4.630  0.5343 -0.8285  0.7389
  914MOL0     H23352   5.471   3.475   4.671 -0.6642  0.3206 -0.2781
  914MOL0     H23353   5.537   3.332   4.580  0.4759 -1.0820  1.0680
  914MOL0     H23354   5.922   3.555   4.676 -1.7356  0.1941  0.9962
  914MOL0     H23355   6.152   3.689   4.668  0.1862  1.1046  0.4393
  914MOL0     H23356   6.410   3.780   4.696  2.3191 -1.4342  1.9860
  914MOL0     H23357   6.279   3.859   4.779 -1.8001 -1.5484 -1.5118
  914MOL0     H23358   6.577   3.807   4.853  0.8748  1.3571 -2.0350
  914MOL0     H23359   6.506   3.961   4.814 -0.7961 -1.6634 -4.4256
  914MOL0     H23360   6.421   3.830   5.085  0.6410 -0.3222  0.4912
  914MOL0     H23361   6.388   3.985   5.020  1.1883  0.8293 -1.1668
  914MOL0     H23362   6.665   3.880   5.108  1.3743  1.5752  0.3425
  914MOL0     H23363   6.636   4.028   5.027  0.3691 -2.1161 -2.3992
  914MOL0     H23364   6.502   3.962   5.299 -0.8814  2.5813  1.6782
  914MOL0     H23365   6.498   4.110   5.203 -1.1060 -0.5541 -0.7463
  914MOL0     H23366   6.669   4.084   5.406  2.6881 -2.3152  0.9954
  914MOL0     H23367   6.752   3.976   5.302  1.5113  0.8986  4.0516
  914MOL0     H23368   6.802   4.170   5.134  0.9724  0.9924  0.3095
  914MOL0     H23369   6.870   4.181   5.293 -0.1824  0.2282  1.3314
  914MOL0     H23370   6.657   4.329   5.358 -1.1608 -2.1430  0.3698
  914MOL0     H23371   6.621   4.329   5.181  0.1731  1.4072 -0.4690
  914MOL0     H23372   6.255   3.524   5.041 -0.5339 -0.1543  1.5563
  914MOL0     H23373   6.037   3.419   5.066 -3.4619 -3.1099 -2.2396
  914MOL0     H23374   5.733   3.253   5.047  0.8435  0.5089  0.2368
  914MOL0     H23375   5.547   3.144   5.146 -2.4398  0.0109  0.5482
  914MOL0     H23376   5.730   1.360   5.018  0.8244  0.7813  0.2118
  914MOL0     H23377   5.879   1.151   5.069 -0.3851  0.4099  0.7990
  914MOL0     H23378   6.125   0.898   5.081 -0.6981 -0.5929 -1.0328
  914MOL0     H23379   6.221   0.664   5.084 -0.9300  0.7476 -0.1075
  914MOL0     H23380   6.322   0.481   5.032  2.2291  0.1161 -3.9178
  914MOL0     H23381   6.471   0.404   5.074 -1.8367 -1.1685  0.2888
  914MOL0     H23382   6.302   0.534   5.289 -1.0339 -1.1568 -0.0721
  914MOL0     H23383   6.455   0.489   5.324 -1.6397 -0.6688  1.9650
  914MOL0     H23384   6.451   0.260   5.298 -0.2342 -0.5883 -2.2021
  914MOL0     H23385   6.310   0.262   5.194  3.0037 -1.3559 -1.8968
  914MOL0     H23386   6.217   0.202   5.399  2.1818 -1.2505 -0.2023
  914MOL0     H23387   6.185   0.373   5.394  0.2787  1.4495  0.9450
  914MOL0     H23388   6.440   0.411   5.724 -0.9024 -0.6737  1.1257
  914MOL0     H23389   6.618   0.822   5.086 -0.3475 -2.8121  0.8298
  914MOL0     H23390   6.528   1.062   5.079 -0.4526  0.0416  1.1520
  915MOL0     O23391   2.610   3.372   6.678 -0.1692 -0.4239  0.3454
  915MOL0     C23392   2.687   3.465   6.705 -0.8676  0.9760 -0.3632
  915MOL0     O23393   2.734   3.495   6.836 -0.2572 -0.2751  0.0099
  915MOL0     C23394   2.716   3.419   6.953  0.3032 -1.0171  0.4151
  915MOL0     C23395   2.732   3.482   7.078 -0.7181  0.1933 -0.3716
  915MOL0     C23396   2.724   3.414   7.198 -0.7559 -0.1307  0.5394
  915MOL0     C23397   2.706   3.278   7.194 -0.1557  0.0921  0.4650
  915MOL0     O23398   2.681   3.196   7.306 -0.6411  0.2372 -1.1442
  915MOL0     C23399   2.689   3.259   7.431 -0.5328  0.1306  0.6686
  915MOL0     C23400   2.701   3.156   7.548 -0.1986 -0.2340  0.2480
  915MOL0     C23401   2.728   3.236   7.674 -0.0376  0.7942 -0.4928
  915MOL0     C23402   2.760   3.159   7.804  0.1036 -0.9342 -0.2760
  915MOL0     C23403   2.764   3.262   7.925  0.1770  0.2364 -0.7111
  915MOL0     C23404   2.829   3.198   8.046  0.5529 -0.6852  1.0746
  915MOL0     C23405   2.744   3.081   8.110 -0.2532  0.1851  0.4622
  915MOL0     C23406   2.787   3.028   8.255  0.7276  0.0614  0.8259
  915MOL0     N23407   2.913   2.958   8.262 -0.0825  0.0193  0.2540
  915MOL0     C23408   3.029   3.020   8.291  0.5077  0.0099 -0.1318
  915MOL0     C23409   3.122   2.920   8.310  1.7296 -0.0771  1.0195
  915MOL0     C23410   3.267   2.938   8.356  0.6147 -0.4745 -0.9027
  915MOL0     C23411   3.336   3.078   8.305 -0.1103  0.4054 -0.8019
  915MOL0     C23412   3.483   3.092   8.344  0.8039  0.4833 -0.3229
  915MOL0     C23413   3.575   3.008   8.244 -0.6036 -0.3450  0.3610
  915MOL0     O23414   3.704   2.994   8.296  0.7435  0.6934 -1.1124
  915MOL0     C23415   3.799   2.998   8.195 -0.3822  1.0261  0.5785
  915MOL0     C23416   3.924   3.065   8.224  1.3513  0.4701 -0.5681
  915MOL0     C23417   4.032   3.051   8.138 -0.3892  0.4070  0.4809
  915MOL0     C23418   4.160   3.113   8.178 -0.6806  0.3898 -0.7619
  915MOL0     C23419   4.011   2.985   8.015  0.7570  0.0693  0.4220
  915MOL0     C23420   4.109   2.966   7.898  0.0934 -0.1145  0.6808
  915MOL0     O23421   4.057   2.937   7.775  0.0279  1.3333 -0.2444
  915MOL0     C23422   4.134   2.853   7.681  0.4502  0.0177  0.0216
  915MOL0     C23423   4.060   2.738   7.632 -0.5554  0.2422 -0.5390
  915MOL0     C23424   4.120   2.644   7.552 -0.6854 -0.9516  0.6032
  915MOL0     C23425   4.252   2.673   7.512 -0.4513 -0.3007 -0.2340
  915MOL0     O23426   4.331   2.584   7.438 -0.5190 -0.7581  0.0610
  915MOL0     C23427   4.265   2.528   7.330 -0.0113 -0.0238  0.1657
  915MOL0     C23428   4.376   2.470   7.240 -0.3932  0.6777 -0.6351
  915MOL0     C23429   4.399   2.324   7.286  0.5658  0.2355  0.6124
  915MOL0     C23430   4.490   2.244   7.200 -0.1834 -0.2746 -0.9722
  915MOL0     C23431   4.533   2.110   7.258 -1.1430  0.2596 -0.2014
  915MOL0     C23432   4.644   2.031   7.183  0.2840 -0.2694  0.2984
  915MOL0     C23433   4.693   1.896   7.252 -0.6306 -0.3032  0.9553
  915MOL0     C23434   4.824   1.860   7.189 -0.0552  0.1011 -1.0862
  915MOL0    Cl23435   4.813   1.809   7.021  0.0782  0.4346 -0.4984
  915MOL0     C23436   4.323   2.792   7.549 -0.2985  0.7695 -0.4247
  915MOL0     C23437   4.263   2.890   7.631  0.0597 -0.2613 -0.5720
  915MOL0     O23438   4.227   2.971   7.925 -0.0689 -0.1418  0.5275
  915MOL0     C23439   3.888   2.915   7.992  0.0938 -0.0565 -0.4594
  915MOL0     C23440   3.781   2.927   8.077 -0.6688  0.1885  0.2551
  915MOL0     N23441   3.057   2.800   8.275  0.1936 -0.4874 -0.3267
  915MOL0     N23442   2.933   2.827   8.249  0.1065  0.8865  0.0641
  915MOL0     C23443   2.694   3.215   7.066 -0.4499 -0.2239  0.0107
  915MOL0     C23444   2.706   3.290   6.949  0.4476  1.1067  0.2374
  915MOL0     C23445   2.729   3.557   6.588 -0.5387  1.2446 -0.0101
  915MOL0     C23446   2.722   3.499   6.463  0.6966 -0.0644 -0.6209
  915MOL0     C23447   2.760   3.572   6.354  0.5852 -0.6796 -0.1397
  915MOL0     C23448   2.814   3.694   6.363 -0.0050 -0.1418  0.0399
  915MOL0     O23449   2.854   3.751   6.250 -0.0171 -0.0657 -0.1806
  915MOL0     C23450   2.887   3.688   6.129 -0.7963 -1.0273 -0.1055
  915MOL0     C23451   3.019   3.614   6.125  0.7163  0.2532 -0.4926
  915MOL0     C23452   3.149   3.709   6.113  0.3407  0.6910 -0.3009
  915MOL0     C23453   3.212   3.756   6.248 -0.6075  0.0004 -0.4381
  915MOL0     C23454   3.263   3.644   6.331 -0.0589 -0.0143  0.1151
  915MOL0     C23455   3.319   3.546   6.372 -0.0656  0.1998 -1.2426
  915MOL0     C23456   2.838   3.747   6.487 -0.3251  0.1117  0.1439
  915MOL0     C23457   2.797   3.674   6.601 -0.0144 -0.0592  0.6660
  915MOL0     H23458   2.746   3.588   7.091 -1.8771  0.4148 -0.7906
  915MOL0     H23459   2.709   3.469   7.290 -1.1262  1.1373 -0.2477
  915MOL0     H23460   2.778   3.322   7.427 -0.9913  0.7647 -2.0914
  915MOL0     H23461   2.600   3.321   7.448 -0.3933  1.1123 -1.7494
  915MOL0     H23462   2.610   3.096   7.560  0.3925 -1.2603 -0.3201
  915MOL0     H23463   2.779   3.082   7.534 -1.5471 -1.6865  0.1591
  915MOL0     H23464   2.820   3.293   7.662  1.1103 -1.1275 -1.3245
  915MOL0     H23465   2.639   3.294   7.700 -1.2190 -2.1244  2.8608
  915MOL0     H23466   2.693   3.074   7.819  2.0866 -2.5765 -0.2914
  915MOL0     H23467   2.858   3.112   7.791 -0.9211 -3.6483  0.9127
  915MOL0     H23468   2.816   3.355   7.901  0.2979 -0.1468 -2.0302
  915MOL0     H23469   2.665   3.296   7.954  0.6111  2.1843 -1.3522
  915MOL0     H23470   2.922   3.146   8.021 -0.5718 -1.5158 -1.7436
  915MOL0     H23471   2.846   3.271   8.125 -2.8568  1.2619  0.1969
  915MOL0     H23472   2.639   3.111   8.119 -0.1759  0.5881  0.0754
  915MOL0     H23473   2.757   3.000   8.038 -1.9777 -0.8042  1.2141
  915MOL0     H23474   2.712   2.955   8.286  2.2321 -2.1206 -0.3430
  915MOL0     H23475   2.784   3.125   8.306  5.1361  1.4582 -1.0009
  915MOL0     H23476   3.053   3.126   8.299 -0.8015  0.5955 -2.8644
  915MOL0     H23477   3.266   2.940   8.465 -3.1817 -2.1166 -0.7325
  915MOL0     H23478   3.329   2.852   8.329 -0.0983 -1.4759  0.5358
  915MOL0     H23479   3.284   3.161   8.353  2.4114  1.5500  0.1124
  915MOL0     H23480   3.318   3.094   8.198 -2.5277  3.0105 -0.1419
  915MOL0     H23481   3.505   3.050   8.443 -1.9405  1.1256  0.6628
  915MOL0     H23482   3.491   3.201   8.343 -0.1786  0.6514 -3.9620
  915MOL0     H23483   3.578   3.070   8.154 -0.7581 -0.0651  0.5468
  915MOL0     H23484   3.541   2.905   8.234  1.2359 -1.1134  1.6278
  915MOL0     H23485   3.931   3.136   8.305 -3.0060  0.9535 -0.3881
  915MOL0     H23486   4.216   3.153   8.093  4.4249 -1.0364  1.5609
  915MOL0     H23487   4.156   3.204   8.238  0.2122  1.7438 -2.6661
  915MOL0     H23488   4.222   3.036   8.224 -0.6093  1.2342  0.5956
  915MOL0     H23489   3.962   2.715   7.675 -1.2298  1.6628 -1.2391
  915MOL0     H23490   4.066   2.553   7.530 -0.9711 -0.0641 -2.9376
  915MOL0     H23491   4.192   2.452   7.360  0.8822 -0.7443  0.5826
  915MOL0     H23492   4.216   2.613   7.281  1.1145  0.0947 -0.7878
  915MOL0     H23493   4.354   2.471   7.133 -0.4184 -3.1153 -0.8236
  915MOL0     H23494   4.466   2.528   7.259 -0.0942  0.3083 -0.9008
  915MOL0     H23495   4.301   2.276   7.300  0.8734  0.1163  2.5890
  915MOL0     H23496   4.443   2.338   7.385  3.1136 -3.5288  0.1973
  915MOL0     H23497   4.445   2.234   7.101 -2.6068 -1.5512  0.1702
  915MOL0     H23498   4.587   2.293   7.205 -0.5349  0.3699 -0.2080
  915MOL0     H23499   4.447   2.046   7.279 -0.6660 -1.7412 -3.5928
  915MOL0     H23500   4.576   2.135   7.356 -2.4202  0.8598  0.2332
  915MOL0     H23501   4.609   1.993   7.086 -1.6049 -0.5083  1.0333
  915MOL0     H23502   4.730   2.097   7.172 -0.8172  0.9678 -1.4215
  915MOL0     H23503   4.616   1.822   7.228  0.8276 -0.7136 -3.3221
  915MOL0     H23504   4.707   1.896   7.361  4.0833 -0.4249  0.5896
  915MOL0     H23505   4.870   1.772   7.235 -0.1298  0.1046 -1.0050
  915MOL0     H23506   4.894   1.943   7.199 -0.7042  0.3657  2.6285
  915MOL0     H23507   4.422   2.802   7.508 -0.1250 -0.3903 -0.3169
  915MOL0     H23508   4.322   2.977   7.659  0.2531 -1.2831  2.5599
  915MOL0     H23509   3.878   2.841   7.913 -0.3124  0.5247 -0.9642
  915MOL0     H23510   3.691   2.872   8.055  0.6460 -1.0326 -2.6665
  915MOL0     H23511   2.669   3.110   7.060 -4.9889  0.3306  3.6508
  915MOL0     H23512   2.698   3.247   6.849  3.0074 -0.3756  0.6011
  915MOL0     H23513   2.686   3.404   6.426  1.7532 -0.7028 -0.0466
  915MOL0     H23514   2.747   3.514   6.263 -7.5084  0.8236 -0.6992
  915MOL0     H23515   2.819   3.608   6.098  0.1308 -1.1297 -1.9695
  915MOL0     H23516   2.893   3.767   6.054 -1.3253 -0.0602  0.8349
  915MOL0     H23517   3.021   3.537   6.047  0.1659  2.0972 -2.4400
  915MOL0     H23518   3.024   3.558   6.218 -4.1141 -3.5943 -2.0980
  915MOL0     H23519   3.126   3.799   6.055 -1.3779  0.3877 -0.1506
  915MOL0     H23520   3.218   3.646   6.057 -0.9465 -1.3082  0.2397
  915MOL0     H23521   3.131   3.795   6.311 -0.2212 -1.5627  1.1287
  915MOL0     H23522   3.289   3.831   6.226 -1.3036  0.5533 -1.0145
  915MOL0     H23523   3.351   3.447   6.396  1.6711  1.0563  0.2107
  915MOL0     H23524   2.884   3.844   6.502  1.6420 -0.5684 -0.9888
  915MOL0     H23525   2.805   3.710   6.703  0.1731 -2.9890  1.7752
  916MOL0     O23526   6.673   0.207   6.698 -0.2920  0.0117  0.1499
  916MOL0     C23527   6.740   0.251   6.782  0.2287  0.0863  0.4405
  916MOL0     O23528   6.778   0.385   6.786  0.0966  0.0796 -0.3039
  916MOL0     C23529   6.768   0.465   6.672  0.4827 -0.7462  0.8588
  916MOL0     C23530   6.861   0.569   6.665  0.9185 -0.2596  0.9769
  916MOL0     C23531   6.860   0.656   6.556 -0.3680 -0.0981  0.3181
  916MOL0     C23532   6.777   0.634   6.445  0.0301  0.6521  0.7956
  916MOL0     O23533   6.766   0.722   6.336 -0.4902 -0.3405  0.8535
  916MOL0     C23534   6.786   0.857   6.360 -0.1551  0.7634  0.0399
  916MOL0     C23535   6.688   0.941   6.271  0.4133  0.3385 -0.2154
  916MOL0     C23536   6.532   0.891   6.277 -0.2427  0.5343 -0.3592
  916MOL0     C23537   6.438   0.984   6.216 -1.3591 -0.0699 -0.5586
  916MOL0     C23538   6.303   0.945   6.156  0.6077  1.1766 -0.4973
  916MOL0     C23539   6.203   1.055   6.170  0.6999 -1.0372  0.3209
  916MOL0     C23540   6.079   1.055   6.071 -0.3585  0.4275 -0.6439
  916MOL0     C23541   5.985   1.185   6.082 -0.1001  0.0378  0.2729
  916MOL0     N23542   5.865   1.159   6.163 -0.3256 -0.5230  0.3836
  916MOL0     C23543   5.806   1.233   6.268  0.8741  0.3613  0.6751
  916MOL0     C23544   5.693   1.172   6.307  0.0399 -0.2394 -0.4849
  916MOL0     C23545   5.596   1.231   6.413  0.0854 -0.3997  0.6630
  916MOL0     C23546   5.626   1.198   6.560  0.4313  0.6541  0.5234
  916MOL0     C23547   5.524   1.258   6.662  0.0425  0.5263  0.2852
  916MOL0     C23548   5.548   1.181   6.798 -1.3421 -0.3146  0.5536
  916MOL0     O23549   5.458   1.217   6.900  0.4423 -0.0586 -0.5677
  916MOL0     C23550   5.495   1.305   6.998  1.5166 -1.0398  0.2906
  916MOL0     C23551   5.555   1.430   6.976 -0.4247 -0.9876  0.8237
  916MOL0     C23552   5.577   1.518   7.077  0.2542 -0.1683 -0.1329
  916MOL0     C23553   5.649   1.645   7.047 -0.0289 -0.0709 -0.3018
  916MOL0     C23554   5.530   1.496   7.212  0.0005 -0.8924  0.1290
  916MOL0     C23555   5.547   1.576   7.325  0.2651 -0.1167 -0.9450
  916MOL0     O23556   5.515   1.519   7.454  0.1708  0.7955 -0.4561
  916MOL0     C23557   5.519   1.604   7.560 -0.3033  0.7577 -0.0409
  916MOL0     C23558   5.616   1.573   7.662 -0.5631  0.2086 -0.4431
  916MOL0     C23559   5.627   1.668   7.767  0.2085 -0.2671  0.0655
  916MOL0     C23560   5.552   1.781   7.761 -0.9268 -0.8810 -0.7240
  916MOL0     O23561   5.580   1.877   7.858 -0.2078 -0.1832 -0.1342
  916MOL0     C23562   5.495   1.987   7.889  0.0547 -0.8066 -0.3757
  916MOL0     C23563   5.379   1.939   7.970 -0.3472  0.3909  0.0806
  916MOL0     C23564   5.268   2.040   7.996  0.0584  0.3667 -0.3603
  916MOL0     C23565   5.133   1.987   8.050  0.5077 -0.9396  0.2441
  916MOL0     C23566   5.139   1.993   8.205  0.4813  0.8450  0.3595
  916MOL0     C23567   5.005   1.966   8.278 -1.3406 -0.2826 -0.3427
  916MOL0     C23568   4.953   1.824   8.278  0.1041 -0.4072 -0.0903
  916MOL0     C23569   4.830   1.813   8.360 -0.1474 -0.7565  0.6584
  916MOL0    Cl23570   4.784   1.641   8.380  0.3042 -0.2303  0.1125
  916MOL0     C23571   5.457   1.822   7.657 -1.3592  0.8940 -0.5898
  916MOL0     C23572   5.443   1.723   7.561 -0.0876 -0.2755  0.0294
  916MOL0     O23573   5.585   1.693   7.308 -0.5114 -0.0749  0.1254
  916MOL0     C23574   5.463   1.378   7.232  0.5972  0.9041 -0.0586
  916MOL0     C23575   5.457   1.274   7.126  0.0872  0.4461 -0.2115
  916MOL0     N23576   5.672   1.063   6.225  0.0736  0.8601 -0.3442
  916MOL0     N23577   5.776   1.055   6.144 -0.1070  0.0833  0.6164
  916MOL0     C23578   6.670   0.529   6.454 -0.0056  0.6435  0.4211
  916MOL0     C23579   6.668   0.454   6.567  0.0930 -0.2918  0.2370
  916MOL0     C23580   6.765   0.164   6.892 -0.3551  0.9569  0.8753
  916MOL0     C23581   6.703   0.038   6.904  0.4183 -0.1812  0.2399
  916MOL0     C23582   6.736  -0.046   7.016  0.7412 -0.8929  0.7208
  916MOL0     C23583   6.829  -0.005   7.110 -0.2461 -0.3988  0.5742
  916MOL0     O23584   6.847  -0.094   7.210  0.0679  0.8010  0.0054
  916MOL0     C23585   6.947  -0.065   7.302 -0.6044 -0.0026 -0.7015
  916MOL0     C23586   7.007  -0.199   7.355 -0.1667 -0.3444 -1.0414
  916MOL0     C23587   7.127  -0.166   7.452  0.3759 -0.9010 -0.8283
  916MOL0     C23588   7.075  -0.127   7.590  0.2186  0.2887  0.3477
  916MOL0     C23589   7.156  -0.197   7.688 -0.2170  0.6201 -1.8764
  916MOL0     C23590   7.214  -0.255   7.776  0.3245 -0.2684 -0.5821
  916MOL0     C23591   6.895   0.120   7.097 -0.3875 -0.6118  0.2656
  916MOL0     C23592   6.855   0.202   6.992  1.0588 -0.4842  0.5297
  916MOL0     H23593   6.932   0.578   6.747 -0.0400  0.0955  1.7912
  916MOL0     H23594   6.928   0.741   6.556  1.8788 -1.7370  2.1180
  916MOL0     H23595   6.780   0.891   6.464  0.8753  3.0071 -0.5705
  916MOL0     H23596   6.891   0.878   6.339  0.5384 -2.3125 -0.1420
  916MOL0     H23597   6.685   1.045   6.307 -0.2153 -0.4275  2.1469
  916MOL0     H23598   6.718   0.934   6.166  0.5857 -0.0462 -0.1401
  916MOL0     H23599   6.522   0.795   6.227  2.4154  0.0415 -0.0844
  916MOL0     H23600   6.501   0.878   6.381  0.9225  0.7140  0.0180
  916MOL0     H23601   6.437   1.074   6.278 -0.2676 -0.4203 -0.0140
  916MOL0     H23602   6.492   1.019   6.128 -0.1151 -2.7627 -0.9560
  916MOL0     H23603   6.325   0.917   6.052  1.5033 -0.8210  0.1831
  916MOL0     H23604   6.267   0.856   6.209  0.4717  1.4470 -0.1370
  916MOL0     H23605   6.167   1.054   6.273 -2.2922 -2.7171 -0.6207
  916MOL0     H23606   6.253   1.146   6.135 -2.1321  0.7341  0.5674
  916MOL0     H23607   6.128   1.067   5.974  2.9063  0.7788  0.9082
  916MOL0     H23608   6.019   0.963   6.067  0.4763 -0.1564 -0.0514
  916MOL0     H23609   5.938   1.192   5.984  0.4021 -0.3497 -0.0021
  916MOL0     H23610   6.042   1.278   6.094 -1.2615  0.6455  1.2741
  916MOL0     H23611   5.852   1.323   6.309  2.6251  0.4429 -1.2994
  916MOL0     H23612   5.586   1.340   6.418  0.4446 -0.4228  3.1183
  916MOL0     H23613   5.493   1.197   6.397 -0.0818 -0.7062  2.2269
  916MOL0     H23614   5.727   1.231   6.586  0.7353  1.7597 -1.7361
  916MOL0     H23615   5.617   1.089   6.566 -3.9025  0.7768 -0.5998
  916MOL0     H23616   5.422   1.244   6.623  0.6493 -0.3588 -1.0711
  916MOL0     H23617   5.540   1.365   6.677  2.6490  0.3162 -0.4911
  916MOL0     H23618   5.647   1.202   6.840 -2.9811  3.8445  2.8750
  916MOL0     H23619   5.544   1.076   6.766  1.5100 -1.3486  3.0702
  916MOL0     H23620   5.566   1.463   6.873  0.2704  2.6030  1.9028
  916MOL0     H23621   5.749   1.632   7.091 -0.0478 -0.7440 -0.4439
  916MOL0     H23622   5.660   1.667   6.941  1.3533  4.1342  0.5207
  916MOL0     H23623   5.603   1.737   7.084 -1.4920 -0.5726 -0.8182
  916MOL0     H23624   5.649   1.470   7.672 -0.5754  0.2985  0.5865
  916MOL0     H23625   5.698   1.653   7.848 -2.1242  0.2960  2.3669
  916MOL0     H23626   5.550   2.066   7.940  1.1897  0.0464 -2.7724
  916MOL0     H23627   5.457   2.040   7.801 -0.6807 -3.0105 -1.4586
  916MOL0     H23628   5.344   1.845   7.926  0.9327 -0.5690  1.0431
  916MOL0     H23629   5.411   1.909   8.071 -3.6668  1.6251  1.6584
  916MOL0     H23630   5.234   2.082   7.901 -5.0043  1.3194  1.5417
  916MOL0     H23631   5.299   2.118   8.066 -0.2011  0.2527 -0.1194
  916MOL0     H23632   5.062   2.064   8.018  0.6493 -0.3126  1.3602
  916MOL0     H23633   5.110   1.885   8.019 -3.4647 -1.7741  4.7671
  916MOL0     H23634   5.161   2.094   8.242 -0.0975  1.2308 -0.3319
  916MOL0     H23635   5.216   1.924   8.241 -0.3699  0.8099  2.2388
  916MOL0     H23636   5.033   1.997   8.378  2.4085  0.8607 -1.5690
  916MOL0     H23637   4.940   2.039   8.230 -0.6218 -1.4902 -3.4117
  916MOL0     H23638   5.026   1.753   8.319  0.5927 -0.8088 -1.5510
  916MOL0     H23639   4.929   1.794   8.175 -0.6291  1.9625 -0.6721
  916MOL0     H23640   4.762   1.881   8.307  2.1425  1.5336  0.4302
  916MOL0     H23641   4.853   1.851   8.460 -2.2764 -3.9703  2.5205
  916MOL0     H23642   5.386   1.904   7.658 -2.2544  0.1693  1.5826
  916MOL0     H23643   5.376   1.743   7.478  1.7329 -1.1473 -1.7240
  916MOL0     H23644   5.406   1.359   7.322 -0.0672 -1.3450 -0.8716
  916MOL0     H23645   5.405   1.181   7.146  2.8834 -1.2307 -0.2649
  916MOL0     H23646   6.601   0.516   6.371 -1.6173  0.2276  1.7730
  916MOL0     H23647   6.583   0.386   6.577  0.4992 -0.6845  1.1082
  916MOL0     H23648   6.631  -0.007   6.836  1.5633  0.9076 -1.7735
  916MOL0     H23649   6.692  -0.143   7.037 -0.0523 -0.7919 -0.4222
  916MOL0     H23650   7.029  -0.016   7.248 -1.4491 -0.0072 -2.0292
  916MOL0     H23651   6.910  -0.004   7.384  0.6211 -0.5577  0.3126
  916MOL0     H23652   7.053  -0.255   7.273 -0.9719 -0.4695 -1.4232
  916MOL0     H23653   6.928  -0.264   7.394  2.6017 -2.8147  0.8840
  916MOL0     H23654   7.198  -0.090   7.419  0.3573  0.3298  1.6966
  916MOL0     H23655   7.176  -0.263   7.462  2.5658  0.3850  2.9526
  916MOL0     H23656   6.967  -0.147   7.589 -0.5167  3.6058  0.2494
  916MOL0     H23657   7.071  -0.018   7.595 -5.1412  0.4133 -0.2136
  916MOL0     H23658   7.243  -0.316   7.859  1.8087  2.5670  1.1486
  916MOL0     H23659   6.965   0.167   7.166  1.1485 -2.7795  0.2666
  916MOL0     H23660   6.911   0.294   6.976  0.3861 -0.2641 -0.6908
  917MOL0     O23661   1.696   6.110  10.467  0.1153  0.7980  0.1988
  917MOL0     C23662   1.621   6.209  10.473  0.1526 -0.7942 -0.4537
  917MOL0     O23663   1.563   6.255  10.583 -0.1531 -1.2399  0.5815
  917MOL0     C23664   1.570   6.173  10.690 -0.3513  0.1976  0.4425
  917MOL0     C23665   1.621   6.229  10.808  0.0328  0.3019  0.0425
  917MOL0     C23666   1.591   6.168  10.934 -0.3044  0.7108  0.1766
  917MOL0     C23667   1.530   6.045  10.934  0.1895  0.0983 -0.1004
  917MOL0     O23668   1.500   5.973  11.049 -0.9496  0.2607  0.2113
  917MOL0     C23669   1.459   6.054  11.164 -0.3822  0.0525  0.0379
  917MOL0     C23670   1.324   6.005  11.205 -0.9463 -0.1173  0.1136
  917MOL0     C23671   1.287   6.049  11.341 -0.4581  0.1977  0.2752
  917MOL0     C23672   1.139   6.005  11.366 -0.8877  0.4045 -0.0147
  917MOL0     C23673   1.112   5.990  11.519  0.2059 -0.4897  0.5946
  917MOL0     C23674   0.968   6.000  11.565  0.2519 -0.4353 -0.2325
  917MOL0     C23675   0.872   5.911  11.489 -0.6493  0.1943 -0.7234
  917MOL0     C23676   0.922   5.762  11.516 -1.2753  0.0365  0.3039
  917MOL0     N23677   0.831   5.651  11.472  0.3249  0.3469 -0.2292
  917MOL0     C23678   0.723   5.611  11.546  0.1416  0.5320 -0.4529
  917MOL0     C23679   0.666   5.500  11.475  0.5206  0.2715 -0.3047
  917MOL0     C23680   0.564   5.412  11.546  0.5809  0.4281 -0.6585
  917MOL0     C23681   0.418   5.453  11.542 -0.0246  0.0753  0.4029
  917MOL0     C23682   0.396   5.604  11.574 -0.1826  0.7088  0.2141
  917MOL0     C23683   0.250   5.647  11.560  0.0930  0.5145  0.3583
  917MOL0     O23684   0.190   5.614  11.427 -1.0943  0.7814 -0.3038
  917MOL0     C23685   0.070   5.668  11.397 -0.6991 -0.2421  0.3794
  917MOL0     C23686   0.039   5.800  11.425 -0.3765  0.5524 -0.8949
  917MOL0     C23687  -0.089   5.847  11.424  0.0620  0.5282 -0.3917
  917MOL0     C23688  -0.106   5.987  11.481 -0.2215  0.3969 -0.3947
  917MOL0     C23689  -0.197   5.762  11.375  0.3580 -0.8180 -0.7739
  917MOL0     C23690  -0.344   5.806  11.347  1.0777  0.5472 -0.1349
  917MOL0     O23691  -0.442   5.709  11.344 -0.6157  0.3328  0.2265
  917MOL0     C23692  -0.570   5.744  11.337  0.8587  0.4543  0.3311
  917MOL0     C23693  -0.624   5.859  11.266  0.6272  0.1235 -0.0292
  917MOL0     C23694  -0.760   5.864  11.236  0.0111 -0.7054  0.5082
  917MOL0     C23695  -0.851   5.761  11.268 -0.2036 -0.0221  0.0934
  917MOL0     O23696  -0.974   5.774  11.217 -0.5397  0.9233 -0.1201
  917MOL0     C23697  -1.061   5.661  11.189 -0.3557 -0.8988 -0.2907
  917MOL0     C23698  -1.189   5.697  11.115  0.3687 -0.3049 -0.2031
  917MOL0     C23699  -1.254   5.823  11.175 -0.0969 -0.0775 -0.2076
  917MOL0     C23700  -1.412   5.822  11.189 -0.6031 -0.3886  0.6258
  917MOL0     C23701  -1.466   5.958  11.234 -0.1180 -0.6351 -0.7972
  917MOL0     C23702  -1.453   6.068  11.131  1.1098 -0.1503 -0.2640
  917MOL0     C23703  -1.526   6.202  11.159  0.0323 -0.1170 -0.2082
  917MOL0     C23704  -1.556   6.270  11.030  0.3191  0.1217  0.1694
  917MOL0    Cl23705  -1.711   6.218  10.963 -0.0971 -0.2643 -0.1183
  917MOL0     C23706  -0.799   5.654  11.337  0.3444  0.1094  0.1932
  917MOL0     C23707  -0.665   5.639  11.367  0.2620  1.0362 -0.5672
  917MOL0     O23708  -0.377   5.921  11.344  0.2854 -0.2596  0.2858
  917MOL0     C23709  -0.168   5.631  11.353  0.0803  1.0777  0.4816
  917MOL0     C23710  -0.038   5.581  11.358 -1.1029  0.5692  0.1151
  917MOL0     N23711   0.738   5.479  11.358  0.5073  0.2792  0.2309
  917MOL0     N23712   0.837   5.569  11.360 -0.0688 -0.5931  0.9737
  917MOL0     C23713   1.503   5.979  10.816 -0.1003  0.5941  0.8732
  917MOL0     C23714   1.510   6.050  10.693 -0.7020  0.6222 -0.2962
  917MOL0     C23715   1.596   6.297  10.358  0.7675  0.2246 -0.1600
  917MOL0     C23716   1.495   6.397  10.368  0.3215  1.1048 -0.4820
  917MOL0     C23717   1.475   6.480  10.257  0.8112  0.4913  0.0725
  917MOL0     C23718   1.549   6.480  10.135 -0.4368 -0.3244  0.0881
  917MOL0     O23719   1.521   6.561  10.032  0.9654  0.1361  0.3404
  917MOL0     C23720   1.397   6.511   9.961  0.1387 -0.2191 -0.3055
  917MOL0     C23721   1.407   6.594   9.836  0.0176  0.3111 -0.3443
  917MOL0     C23722   1.288   6.581   9.741  0.0412  0.2012 -0.0687
  917MOL0     C23723   1.304   6.683   9.628 -0.1186  0.8341 -0.9732
  917MOL0     C23724   1.181   6.712   9.551 -0.6467  0.0799  0.1496
  917MOL0     C23725   1.093   6.729   9.482 -0.3120  0.6986 -1.0982
  917MOL0     C23726   1.649   6.383  10.123 -0.2164 -0.3581 -0.7146
  917MOL0     C23727   1.676   6.298  10.238  0.2555  0.1323 -0.6005
  917MOL0     H23728   1.667   6.328  10.811  0.6279  0.0676 -1.0472
  917MOL0     H23729   1.614   6.227  11.022 -1.3143  0.3848  0.6694
  917MOL0     H23730   1.531   6.044  11.246  0.0572 -0.1499 -0.3626
  917MOL0     H23731   1.443   6.159  11.137  2.0361  0.9058  1.6089
  917MOL0     H23732   1.256   6.050  11.132 -0.2084  0.3298 -0.3115
  917MOL0     H23733   1.321   5.896  11.203  1.2236 -0.3209  2.3928
  917MOL0     H23734   1.351   6.027  11.427  3.1250  3.5857 -1.2575
  917MOL0     H23735   1.292   6.157  11.355 -1.6816 -0.0678  4.0827
  917MOL0     H23736   1.065   6.080  11.340 -0.8186  0.7206  0.6689
  917MOL0     H23737   1.135   5.906  11.320 -0.3172  0.7174 -0.7594
  917MOL0     H23738   1.159   5.907  11.572  1.5309  2.0769  3.8574
  917MOL0     H23739   1.163   6.073  11.569  0.5975 -0.6377  0.4394
  917MOL0     H23740   0.977   5.979  11.672  1.2468  1.3996  0.0880
  917MOL0     H23741   0.935   6.105  11.570 -0.5415 -0.7270  1.6951
  917MOL0     H23742   0.776   5.927  11.540 -0.2974 -1.5672  0.5775
  917MOL0     H23743   0.868   5.927  11.381  0.3508 -0.3619 -0.8469
  917MOL0     H23744   0.943   5.747  11.622 -4.6717  0.5072  1.1701
  917MOL0     H23745   1.021   5.757  11.471  0.2883  0.3451  3.5163
  917MOL0     H23746   0.710   5.638  11.650  4.0473  1.8987 -0.1553
  917MOL0     H23747   0.573   5.318  11.491  3.8745  1.1361 -1.5477
  917MOL0     H23748   0.591   5.387  11.649 -0.3309  1.6925 -0.0840
  917MOL0     H23749   0.365   5.389  11.612 -0.3516  2.7348  2.7850
  917MOL0     H23750   0.378   5.428  11.444 -0.1821 -0.5093  0.6112
  917MOL0     H23751   0.454   5.662  11.501  0.4128 -3.7401 -3.2670
  917MOL0     H23752   0.430   5.628  11.675 -4.1286  0.1679  1.8510
  917MOL0     H23753   0.242   5.755  11.571 -3.2263  0.7034 -2.3589
  917MOL0     H23754   0.187   5.607  11.640  0.0684  1.8389  1.0230
  917MOL0     H23755   0.130   5.855  11.448  1.3071 -0.6825 -3.9830
  917MOL0     H23756  -0.043   6.054  11.421  1.9971 -2.3394 -1.3476
  917MOL0     H23757  -0.210   6.021  11.486 -0.3392  0.3672 -1.9507
  917MOL0     H23758  -0.073   6.000  11.584  1.6755 -1.5345 -0.6780
  917MOL0     H23759  -0.571   5.938  11.215 -2.8365  0.2143 -3.9856
  917MOL0     H23760  -0.795   5.951  11.182  0.6417 -0.0003  1.2126
  917MOL0     H23761  -0.993   5.601  11.128  1.0830 -1.8878  2.1065
  917MOL0     H23762  -1.087   5.602  11.278 -0.1883  1.2726  1.2611
  917MOL0     H23763  -1.152   5.708  11.013  0.2570 -1.2822 -0.3594
  917MOL0     H23764  -1.255   5.611  11.101  0.6284 -0.5762  0.2195
  917MOL0     H23765  -1.230   5.910  11.113  1.0166  0.5052  1.0013
  917MOL0     H23766  -1.218   5.847  11.275 -0.5683  1.5111 -0.3931
  917MOL0     H23767  -1.468   5.786  11.103 -0.3758  1.0614 -0.1682
  917MOL0     H23768  -1.441   5.757  11.272 -2.4715  2.2599  2.2121
  917MOL0     H23769  -1.404   5.976  11.323 -0.2507  1.0282 -1.0135
  917MOL0     H23770  -1.570   5.957  11.267  0.7659  0.6664  2.4714
  917MOL0     H23771  -1.349   6.102  11.124  0.8605  0.9568  1.0778
  917MOL0     H23772  -1.481   6.018  11.038  0.9670 -1.2170  0.3371
  917MOL0     H23773  -1.471   6.269  11.226  1.6309 -1.5407 -0.0230
  917MOL0     H23774  -1.617   6.169  11.210 -0.1396 -0.5936 -0.8156
  917MOL0     H23775  -1.493   6.237  10.947  0.1207  1.5717 -0.5875
  917MOL0     H23776  -1.543   6.379  11.035  3.9696 -0.2081  4.1641
  917MOL0     H23777  -0.865   5.574  11.367 -4.5516  3.6056  0.0065
  917MOL0     H23778  -0.631   5.558  11.431  3.9697  2.2294 -0.7427
  917MOL0     H23779  -0.242   5.554  11.333  1.1106  0.6094 -1.7949
  917MOL0     H23780  -0.019   5.477  11.335  0.7876  0.3883  2.1913
  917MOL0     H23781   1.458   5.880  10.820  2.1372 -0.6674 -1.5749
  917MOL0     H23782   1.484   5.996  10.603  0.2859 -0.7880  0.2188
  917MOL0     H23783   1.422   6.403  10.448  0.0241 -2.4176 -0.3277
  917MOL0     H23784   1.392   6.549  10.247  0.7996  0.1650 -3.2954
  917MOL0     H23785   1.387   6.405   9.937 -1.1179 -0.3808  0.7951
  917MOL0     H23786   1.304   6.541  10.010 -0.7729 -2.5916 -0.4243
  917MOL0     H23787   1.496   6.551   9.789  0.0565  0.3621 -0.3154
  917MOL0     H23788   1.415   6.702   9.849 -0.4383  0.4238 -0.9347
  917MOL0     H23789   1.197   6.604   9.797 -1.7756 -0.2125 -2.6303
  917MOL0     H23790   1.265   6.482   9.699 -1.1327 -0.3910  1.8381
  917MOL0     H23791   1.374   6.652   9.550 -2.1430 -2.3240 -1.7214
  917MOL0     H23792   1.329   6.775   9.680 -0.6458 -0.0134  0.8593
  917MOL0     H23793   0.997   6.732   9.435 -1.3773 -4.0137  0.3044
  917MOL0     H23794   1.704   6.386  10.030  0.2504 -0.6996 -0.4569
  917MOL0     H23795   1.760   6.235  10.210  0.2995 -0.8717  1.6259
  918MOL0     O23796   6.477   6.259   0.785 -0.5330  0.4960  0.0505
  918MOL0     C23797   6.518   6.222   0.672 -0.1130 -0.4785 -0.7704
  918MOL0     O23798   6.485   6.100   0.623  0.8823  0.5320 -0.7737
  918MOL0     C23799   6.393   6.025   0.697 -0.6581 -1.2913  0.6644
  918MOL0     C23800   6.258   6.060   0.690 -0.1412  0.5256 -0.0180
  918MOL0     C23801   6.163   6.009   0.778 -1.4191  0.7239 -0.2998
  918MOL0     C23802   6.207   5.918   0.877 -0.2924 -0.1271  0.4770
  918MOL0     O23803   6.120   5.846   0.953  0.1347  1.0661 -0.1239
  918MOL0     C23804   5.996   5.899   0.980  0.9096 -1.5317  0.1657
  918MOL0     C23805   5.909   5.788   1.029  0.3181  0.0904  0.7710
  918MOL0     C23806   5.758   5.823   1.057  0.0686 -0.3095  0.1583
  918MOL0     C23807   5.695   5.723   1.162 -0.1288  1.2132 -0.4310
  918MOL0     C23808   5.550   5.770   1.191  0.3319 -0.6247  0.7111
  918MOL0     C23809   5.457   5.755   1.073  0.3792  0.6015  0.7496
  918MOL0     C23810   5.319   5.804   1.102  0.5663  0.0572  0.0239
  918MOL0     C23811   5.298   5.934   1.027  1.2598 -0.7417 -0.3045
  918MOL0     N23812   5.169   5.988   1.082  0.5888  0.1398 -0.7521
  918MOL0     C23813   5.158   6.068   1.192 -0.0127  0.9009  0.5882
  918MOL0     C23814   5.022   6.069   1.219 -0.6345 -0.3752  0.8110
  918MOL0     C23815   4.951   6.152   1.321 -0.0582  0.0137  1.4149
  918MOL0     C23816   4.902   6.068   1.439 -0.5854  0.1583  0.6493
  918MOL0     C23817   4.785   5.972   1.408 -0.3850  0.6299  0.4961
  918MOL0     C23818   4.649   6.039   1.396  0.1438  0.2713 -1.0075
  918MOL0     O23819   4.629   6.118   1.518  0.0750  0.7515 -0.0761
  918MOL0     C23820   4.503   6.164   1.530  0.0054 -1.1137  0.7015
  918MOL0     C23821   4.420   6.081   1.608 -0.1670 -1.1610  0.3755
  918MOL0     C23822   4.285   6.120   1.637 -0.6728  0.3978 -1.5843
  918MOL0     C23823   4.195   6.039   1.736  0.2236  0.0528 -0.7354
  918MOL0     C23824   4.247   6.253   1.592  0.5889  0.1674  0.2939
  918MOL0     C23825   4.114   6.313   1.601 -0.4417 -0.3036 -0.0044
  918MOL0     O23826   4.099   6.446   1.591  0.0676  0.1270 -0.2189
  918MOL0     C23827   3.976   6.503   1.550  0.4498  0.7289 -0.1008
  918MOL0     C23828   3.936   6.494   1.418 -0.1435  0.1982  0.4042
  918MOL0     C23829   3.830   6.569   1.367  0.7070 -0.0696  0.4566
  918MOL0     C23830   3.746   6.641   1.443 -0.5541  0.0287  0.4047
  918MOL0     O23831   3.628   6.707   1.414  0.3087 -0.1753 -0.6364
  918MOL0     C23832   3.565   6.662   1.303 -0.0007 -0.3545  0.2576
  918MOL0     C23833   3.465   6.769   1.256  0.2515  1.0682 -0.8945
  918MOL0     C23834   3.526   6.886   1.182 -0.0911  0.1789  0.1889
  918MOL0     C23835   3.438   6.994   1.112  0.3877  1.3511 -0.4869
  918MOL0     C23836   3.502   7.032   0.982 -0.2745 -0.2335  0.2700
  918MOL0     C23837   3.426   7.151   0.924 -0.3500 -0.2094 -0.0645
  918MOL0     C23838   3.280   7.114   0.886 -0.3087 -0.3281 -0.0967
  918MOL0     C23839   3.214   7.205   0.782  0.6177 -0.8326 -0.3688
  918MOL0    Cl23840   3.194   7.368   0.836  0.2055 -0.1650  0.2039
  918MOL0     C23841   3.777   6.643   1.578 -1.6164  0.1819 -0.3837
  918MOL0     C23842   3.892   6.577   1.627  0.3693 -1.2362  0.6744
  918MOL0     O23843   4.019   6.236   1.581  0.1641 -0.3019 -0.2534
  918MOL0     C23844   4.342   6.331   1.530  0.0445  0.6564  0.8734
  918MOL0     C23845   4.470   6.289   1.488  0.8999 -0.2131 -0.0148
  918MOL0     N23846   4.951   6.013   1.113  0.2895  0.3780  1.0810
  918MOL0     N23847   5.040   5.957   1.037  0.3348  0.2031 -0.6153
  918MOL0     C23848   6.336   5.876   0.877 -1.1082  0.2874 -0.5559
  918MOL0     C23849   6.430   5.938   0.791  1.2128 -0.0658 -0.3148
  918MOL0     C23850   6.586   6.320   0.583  0.2098  1.4040  0.5586
  918MOL0     C23851   6.633   6.271   0.457 -0.3780  0.0968  0.0127
  918MOL0     C23852   6.695   6.361   0.370  0.7884 -0.4478  0.1799
  918MOL0     C23853   6.710   6.499   0.410  0.3740  0.6939  0.1658
  918MOL0     O23854   6.756   6.576   0.305  0.5906 -0.1148  0.1693
  918MOL0     C23855   6.827   6.695   0.342 -0.6885  0.7093  0.3383
  918MOL0     C23856   6.884   6.761   0.221 -0.1217  0.2893  0.1355
  918MOL0     C23857   6.778   6.810   0.125  0.0838 -0.6126 -0.5246
  918MOL0     C23858   6.844   6.896   0.013 -0.8496  1.0806  0.1794
  918MOL0     C23859   6.780   6.894  -0.117  0.1974 -0.3403 -0.2805
  918MOL0     C23860   6.717   6.904  -0.218 -0.2631  0.1151 -0.2117
  918MOL0     C23861   6.676   6.534   0.532  0.3948  0.4248 -0.9820
  918MOL0     C23862   6.613   6.445   0.624 -0.4935 -0.8062 -0.9404
  918MOL0     H23863   6.232   6.134   0.615 -0.6345  0.7534  0.3726
  918MOL0     H23864   6.063   6.047   0.764 -1.8308  0.0548  0.7239
  918MOL0     H23865   6.003   5.982   1.051  0.3568  0.6359 -2.1512
  918MOL0     H23866   5.954   5.946   0.890  0.8761  2.1123  1.8990
  918MOL0     H23867   5.916   5.701   0.963 -0.7806  0.7216 -0.2108
  918MOL0     H23868   5.953   5.755   1.124  2.1643 -1.0831 -0.4392
  918MOL0     H23869   5.760   5.928   1.086  0.8771  0.4139 -2.2749
  918MOL0     H23870   5.702   5.809   0.964 -1.0227  0.3238  0.7142
  918MOL0     H23871   5.693   5.620   1.125 -1.7006  0.9559  0.2793
  918MOL0     H23872   5.756   5.729   1.253 -0.3633  1.9437 -0.3147
  918MOL0     H23873   5.513   5.704   1.271  0.6184 -1.8347 -0.1265
  918MOL0     H23874   5.549   5.875   1.221  2.5017  0.0078 -1.1603
  918MOL0     H23875   5.510   5.802   0.989  2.3991  0.4250  1.8637
  918MOL0     H23876   5.450   5.652   1.037 -0.9560 -0.5760  4.0517
  918MOL0     H23877   5.242   5.729   1.081 -1.0111  1.6368 -0.1268
  918MOL0     H23878   5.309   5.816   1.210  0.0467 -0.5999  0.0534
  918MOL0     H23879   5.277   5.918   0.921  2.9506 -1.4866 -0.5640
  918MOL0     H23880   5.378   6.008   1.038  0.6316  0.3912 -2.6634
  918MOL0     H23881   5.238   6.116   1.247  1.6625 -1.5542  0.4431
  918MOL0     H23882   5.021   6.231   1.353 -0.7313 -0.0747  3.2463
  918MOL0     H23883   4.866   6.205   1.278 -0.1330 -1.9777 -1.1142
  918MOL0     H23884   4.868   6.139   1.515 -2.7165 -1.8650  1.7221
  918MOL0     H23885   4.988   6.011   1.474 -2.7174 -2.3853  2.0998
  918MOL0     H23886   4.784   5.888   1.479  0.1962  1.2430  1.2498
  918MOL0     H23887   4.809   5.928   1.311  0.6019  0.4510  0.8056
  918MOL0     H23888   4.573   5.962   1.381  2.3331 -2.3038  0.4623
  918MOL0     H23889   4.646   6.106   1.309  0.3369  0.6057 -0.7600
  918MOL0     H23890   4.451   5.985   1.647 -0.5465 -1.1047  0.8217
  918MOL0     H23891   4.223   5.934   1.735 -1.2399 -0.3537 -0.8141
  918MOL0     H23892   4.205   6.085   1.835  3.0913  2.0655 -1.8150
  918MOL0     H23893   4.090   6.024   1.709  0.6463 -0.8816 -1.9545
  918MOL0     H23894   3.988   6.432   1.346  0.8532  1.4502 -0.0010
  918MOL0     H23895   3.822   6.557   1.260 -0.9876 -0.3322  0.5800
  918MOL0     H23896   3.632   6.640   1.220  2.1218  2.2116  1.1319
  918MOL0     H23897   3.512   6.568   1.322  0.7908 -1.0870 -1.0281
  918MOL0     H23898   3.395   6.717   1.190 -0.1455  0.0575  0.2899
  918MOL0     H23899   3.417   6.805   1.347 -1.1090 -0.3319 -1.0218
  918MOL0     H23900   3.585   6.844   1.100  0.0947 -0.6848  0.7430
  918MOL0     H23901   3.607   6.928   1.243  0.2421 -1.7863  1.1951
  918MOL0     H23902   3.338   6.961   1.081  1.5851  0.9152 -4.5534
  918MOL0     H23903   3.432   7.086   1.172 -2.3922  0.6887  0.3806
  918MOL0     H23904   3.497   6.954   0.905  4.3439 -1.3063  0.7671
  918MOL0     H23905   3.606   7.064   0.996  0.1039 -0.6725 -1.3209
  918MOL0     H23906   3.419   7.235   0.994 -2.4246 -0.4436  0.0859
  918MOL0     H23907   3.481   7.199   0.842 -2.0777 -0.6232 -1.5479
  918MOL0     H23908   3.217   7.115   0.975 -0.5043 -2.1924 -0.1750
  918MOL0     H23909   3.283   7.016   0.838  4.8513  0.4791 -2.0474
  918MOL0     H23910   3.122   7.148   0.767  0.5478 -1.8705  3.1941
  918MOL0     H23911   3.270   7.204   0.688  0.4787  1.3392 -0.5239
  918MOL0     H23912   3.719   6.704   1.647 -1.7954 -1.6636  1.1723
  918MOL0     H23913   3.936   6.592   1.725  3.0469  1.8844 -0.8129
  918MOL0     H23914   4.320   6.432   1.497 -0.1896  0.9489  1.8889
  918MOL0     H23915   4.540   6.353   1.435 -0.2494  1.8576  0.8314
  918MOL0     H23916   6.365   5.809   0.957  0.8534  1.3360 -0.3119
  918MOL0     H23917   6.536   5.925   0.811  1.2125 -2.7055 -1.5728
  918MOL0     H23918   6.619   6.173   0.412 -1.0001  0.3547 -0.3730
  918MOL0     H23919   6.733   6.335   0.271 -2.7070  2.0231 -2.0417
  918MOL0     H23920   6.766   6.775   0.385 -1.8301  0.3367 -0.5286
  918MOL0     H23921   6.894   6.679   0.427 -1.1840 -0.3547  0.5465
  918MOL0     H23922   6.955   6.689   0.180  0.5456 -0.3772  2.3654
  918MOL0     H23923   6.940   6.845   0.263  0.6881 -1.8799  3.7878
  918MOL0     H23924   6.710   6.869   0.186  0.9997  0.5716 -0.6092
  918MOL0     H23925   6.725   6.723   0.085 -3.6593  0.7688  1.0149
  918MOL0     H23926   6.939   6.846  -0.010 -1.9631 -0.7271 -0.7106
  918MOL0     H23927   6.854   6.998   0.051  0.6846  0.9735  0.1131
  918MOL0     H23928   6.681   6.907  -0.319 -1.3594  0.3414  0.1724
  918MOL0     H23929   6.691   6.639   0.555  1.3342  0.8856 -3.4279
  918MOL0     H23930   6.591   6.479   0.725 -0.9165  0.4500 -1.4304
  919MOL0     O23931   3.930   9.793   4.269  0.0222 -0.0306 -0.0443
  919MOL0     C23932   3.894   9.865   4.174 -0.0368 -0.2573 -0.2580
  919MOL0     O23933   3.821   9.826   4.063 -0.2004  0.0288  0.1846
  919MOL0     C23934   3.799   9.700   4.018 -0.0329 -0.3729  0.6182
  919MOL0     C23935   3.809   9.660   3.889  0.5291  0.2112  0.1115
  919MOL0     C23936   3.812   9.525   3.848  0.1733  0.2920 -0.1043
  919MOL0     C23937   3.796   9.426   3.948  0.5169  0.6323  1.2774
  919MOL0     O23938   3.803   9.292   3.899 -0.1940  0.2210 -0.7170
  919MOL0     C23939   3.890   9.210   3.980 -0.6473  0.8154 -0.0855
  919MOL0     C23940   4.030   9.254   3.979 -0.2965 -0.6849 -0.6011
  919MOL0     C23941   4.097   9.195   4.101 -0.2458 -0.4146  0.6200
  919MOL0     C23942   4.239   9.248   4.120  0.4308 -0.4221 -0.3247
  919MOL0     C23943   4.336   9.245   4.005 -0.2247  0.7769  0.3052
  919MOL0     C23944   4.398   9.113   3.959 -0.4201  0.5359 -0.5548
  919MOL0     C23945   4.487   9.145   3.845  0.1848 -0.5722  0.3030
  919MOL0     C23946   4.600   9.043   3.819 -0.6151 -0.3332  0.4729
  919MOL0     N23947   4.555   8.901   3.809  0.0931 -0.8293 -0.6188
  919MOL0     C23948   4.536   8.803   3.901  0.0115 -0.7910  0.0001
  919MOL0     C23949   4.482   8.697   3.833 -0.6697 -1.2464 -0.3104
  919MOL0     C23950   4.443   8.571   3.909 -0.3661  0.6028 -0.4648
  919MOL0     C23951   4.372   8.470   3.818 -0.0441 -0.4723  0.8767
  919MOL0     C23952   4.462   8.398   3.724  0.5940  0.4392 -1.0057
  919MOL0     C23953   4.522   8.273   3.783 -0.3251 -0.3512  1.1373
  919MOL0     O23954   4.418   8.180   3.786  0.8645 -0.2702  0.0588
  919MOL0     C23955   4.446   8.049   3.814 -0.6841  0.4215 -0.0546
  919MOL0     C23956   4.342   7.969   3.847 -0.5995 -0.7128 -1.0991
  919MOL0     C23957   4.352   7.842   3.895 -0.1746 -0.8144  0.0439
  919MOL0     C23958   4.228   7.780   3.956  0.2959  0.0142  0.2929
  919MOL0     C23959   4.476   7.779   3.889 -0.6612 -0.1578 -0.9250
  919MOL0     C23960   4.494   7.626   3.905  0.2487  1.0266 -0.1200
  919MOL0     O23961   4.621   7.581   3.882 -0.3210  0.2352 -0.1051
  919MOL0     C23962   4.652   7.445   3.884  0.0571 -0.1475  0.2214
  919MOL0     C23963   4.590   7.360   3.795  0.5445 -1.2532  0.8112
  919MOL0     C23964   4.624   7.229   3.785  0.1911  0.9168 -1.3122
  919MOL0     C23965   4.727   7.178   3.861 -0.8116  0.4687 -0.4384
  919MOL0     O23966   4.784   7.060   3.841 -0.2664  0.2971 -0.0235
  919MOL0     C23967   4.730   6.950   3.771 -0.1818  0.0566  0.2126
  919MOL0     C23968   4.602   6.896   3.834 -0.4050 -0.1841 -0.1828
  919MOL0     C23969   4.613   6.876   3.990  0.2996  0.1934  1.4911
  919MOL0     C23970   4.475   6.844   4.043 -0.5226  0.7273 -0.2133
  919MOL0     C23971   4.469   6.684   4.063  0.7431 -0.1560  0.8500
  919MOL0     C23972   4.330   6.631   4.106 -0.0349  0.4967 -0.0145
  919MOL0     C23973   4.325   6.475   4.105  0.3382  0.0341 -0.6411
  919MOL0     C23974   4.186   6.416   4.110  0.2185 -0.2167 -0.6599
  919MOL0    Cl23975   4.116   6.479   4.265 -0.0718  0.0590 -0.0060
  919MOL0     C23976   4.785   7.262   3.961 -0.1655  0.1457 -0.2301
  919MOL0     C23977   4.740   7.393   3.977 -0.7830 -0.0534 -0.2748
  919MOL0     O23978   4.393   7.553   3.904 -0.1153 -0.0759 -0.0743
  919MOL0     C23979   4.579   7.860   3.843 -1.1695 -0.5074  0.9178
  919MOL0     C23980   4.574   7.997   3.818  0.5773 -0.0227  0.0124
  919MOL0     N23981   4.459   8.737   3.708  0.0149 -0.6800  0.4395
  919MOL0     N23982   4.506   8.855   3.692  0.0845 -0.0915  0.5137
  919MOL0     C23983   3.786   9.465   4.083  1.3605  0.1505  0.9542
  919MOL0     C23984   3.789   9.599   4.112  0.2202 -0.5099 -0.0670
  919MOL0     C23985   3.965  10.004   4.177  0.3165  0.3780 -0.0084
  919MOL0     C23986   3.938  10.096   4.076  0.8552 -0.1011  0.1689
  919MOL0     C23987   4.004  10.220   4.074 -0.0612  0.5672 -0.0598
  919MOL0     C23988   4.085  10.262   4.181  0.4580  0.3270 -0.0094
  919MOL0     O23989   4.154  10.381   4.183  0.5343 -0.2717 -0.7444
  919MOL0     C23990   4.270  10.384   4.268 -0.2107  0.2164 -0.4002
  919MOL0     C23991   4.369  10.497   4.220  0.0505 -0.8413 -0.4432
  919MOL0     C23992   4.352  10.623   4.312  0.4374  0.0817  0.6193
  919MOL0     C23993   4.433  10.745   4.252  1.0948  0.0996  1.0744
  919MOL0     C23994   4.435  10.851   4.347 -0.0376 -0.2098  1.3152
  919MOL0     C23995   4.430  10.937   4.424  0.2760 -0.4331 -1.2426
  919MOL0     C23996   4.091  10.170   4.288  0.4493 -0.2773  0.1232
  919MOL0     C23997   4.029  10.047   4.292 -0.5409  0.0725 -0.7208
  919MOL0     H23998   3.819   9.732   3.808  0.2302 -0.9448 -0.9966
  919MOL0     H23999   3.808   9.513   3.740 -0.9918 -0.4721  0.0075
  919MOL0     H24000   3.851   9.224   4.081  0.0669  0.1107  0.2935
  919MOL0     H24001   3.907   9.108   3.945  3.4328  1.7154 -1.2696
  919MOL0     H24002   4.080   9.227   3.885  0.1558  0.2668 -0.6431
  919MOL0     H24003   4.034   9.363   3.981 -0.8582 -0.6780  1.0302
  919MOL0     H24004   4.034   9.216   4.188  1.6670  2.7257  1.3876
  919MOL0     H24005   4.095   9.086   4.089 -2.1825 -0.1303 -2.8695
  919MOL0     H24006   4.231   9.356   4.138  0.7025 -0.1136 -1.9124
  919MOL0     H24007   4.289   9.215   4.212  1.5869  1.8368 -0.0753
  919MOL0     H24008   4.289   9.297   3.921 -0.5037  2.5286  1.4775
  919MOL0     H24009   4.418   9.311   4.036 -1.3240  0.6718  3.7833
  919MOL0     H24010   4.464   9.066   4.032 -0.1540 -0.6967 -1.5517
  919MOL0     H24011   4.318   9.045   3.928 -0.6187  1.3078 -1.8074
  919MOL0     H24012   4.427   9.132   3.754  0.3102  2.1606 -0.2636
  919MOL0     H24013   4.527   9.247   3.845 -0.6168 -0.1833 -2.4454
  919MOL0     H24014   4.681   9.066   3.889  1.0549  1.3064 -1.8657
  919MOL0     H24015   4.631   9.063   3.716  1.7199 -2.0706  0.7617
  919MOL0     H24016   4.564   8.792   4.006 -0.7039  1.0475  0.4208
  919MOL0     H24017   4.533   8.519   3.944 -0.1949  1.6766  0.7400
  919MOL0     H24018   4.382   8.597   3.996 -3.3968 -1.6936 -1.7109
  919MOL0     H24019   4.298   8.528   3.763  1.2366  0.2343 -0.1677
  919MOL0     H24020   4.317   8.390   3.868  1.6891 -2.2861  0.0368
  919MOL0     H24021   4.537   8.463   3.679  0.7510  1.1131  0.1871
  919MOL0     H24022   4.400   8.367   3.639 -0.4129 -2.1449  0.5458
  919MOL0     H24023   4.566   8.300   3.880 -0.0656 -1.4270  1.3383
  919MOL0     H24024   4.598   8.235   3.714  1.2095  1.3939  1.7999
  919MOL0     H24025   4.246   8.019   3.848  0.6295  1.9129 -3.0109
  919MOL0     H24026   4.241   7.716   4.044 -1.2375  1.5160  1.6803
  919MOL0     H24027   4.170   7.869   3.983  3.4511  2.4105 -0.2598
  919MOL0     H24028   4.181   7.717   3.879  0.9400 -0.5754  0.3723
  919MOL0     H24029   4.509   7.402   3.736  0.4839  0.9917  2.3830
  919MOL0     H24030   4.563   7.158   3.729 -0.6656 -1.0880  1.8543
  919MOL0     H24031   4.724   6.955   3.662  1.0561  0.5589  0.1538
  919MOL0     H24032   4.812   6.877   3.778  0.1827  0.4260 -0.2069
  919MOL0     H24033   4.517   6.954   3.796 -2.5252 -2.4068  0.8947
  919MOL0     H24034   4.575   6.802   3.786  1.4215  0.6391 -3.0851
  919MOL0     H24035   4.669   6.958   4.034  3.2684 -1.2981  0.7270
  919MOL0     H24036   4.679   6.790   4.005 -0.4980 -1.1934 -1.8582
  919MOL0     H24037   4.466   6.894   4.140 -0.2273 -1.5068  1.0253
  919MOL0     H24038   4.396   6.880   3.976 -2.9378 -2.2387  0.7638
  919MOL0     H24039   4.535   6.662   4.147  1.0097  1.9857  1.2585
  919MOL0     H24040   4.497   6.618   3.980 -1.7310 -0.8755  0.4947
  919MOL0     H24041   4.308   6.670   4.206 -0.4203 -0.9287  0.4838
  919MOL0     H24042   4.251   6.673   4.042 -1.8305  2.5101  3.2055
  919MOL0     H24043   4.375   6.440   4.196 -0.6579 -0.9093 -0.4339
  919MOL0     H24044   4.385   6.446   4.019  2.6030 -0.1851  0.9094
  919MOL0     H24045   4.186   6.307   4.119 -0.8326 -0.0970  1.4214
  919MOL0     H24046   4.134   6.435   4.016 -0.2729  1.6718 -0.0685
  919MOL0     H24047   4.879   7.245   4.013  0.4281  0.3799 -1.2076
  919MOL0     H24048   4.790   7.448   4.057 -1.1747  0.7894 -0.5988
  919MOL0     H24049   4.681   7.824   3.833 -1.2985 -1.1596  1.8519
  919MOL0     H24050   4.667   8.050   3.801 -0.1283  0.6545 -2.0176
  919MOL0     H24051   3.756   9.387   4.153 -0.9027  0.5490  0.5000
  919MOL0     H24052   3.764   9.621   4.216 -2.3515 -0.1125 -0.6861
  919MOL0     H24053   3.870  10.069   3.996 -0.0432 -2.8478  1.7281
  919MOL0     H24054   3.975  10.274   3.984 -1.4221 -0.2775 -0.1605
  919MOL0     H24055   4.245  10.396   4.374  2.7345  2.7369  0.1517
  919MOL0     H24056   4.319  10.287   4.261 -1.1264 -0.1765 -1.7432
  919MOL0     H24057   4.345  10.513   4.114  1.2509  0.1144 -0.6025
  919MOL0     H24058   4.469  10.456   4.238 -0.6615 -2.3685  0.2657
  919MOL0     H24059   4.375  10.588   4.413  3.3178  0.0301  0.0246
  919MOL0     H24060   4.247  10.654   4.309  0.1542 -0.9249 -1.0020
  919MOL0     H24061   4.378  10.778   4.163  0.5875  1.6409  1.9205
  919MOL0     H24062   4.533  10.728   4.210  0.3870  1.4949 -1.3299
  919MOL0     H24063   4.430  11.007   4.505  2.7588 -2.4330  0.6533
  919MOL0     H24064   4.140  10.211   4.376 -1.4244  0.8142  0.7359
  919MOL0     H24065   4.046   9.988   4.381 -0.7640  0.6850 -0.2715
  920MOL0     O24066   9.176   0.407   7.382  0.4024 -1.1452  0.3320
  920MOL0     C24067   9.211   0.337   7.283  0.3147  0.1422 -0.3500
  920MOL0     O24068   9.163   0.211   7.249  0.4084 -0.4387 -0.7030
  920MOL0     C24069   9.048   0.173   7.312  0.4347  0.0827 -0.5070
  920MOL0     C24070   9.050   0.058   7.381  1.4248  0.9018 -0.6041
  920MOL0     C24071   8.935   0.008   7.442 -1.0781  0.5908  0.1544
  920MOL0     C24072   8.807   0.071   7.420 -0.0179  1.3611 -0.1010
  920MOL0     O24073   8.690   0.036   7.480 -0.0125  0.6939  0.8252
  920MOL0     C24074   8.710  -0.022   7.613 -0.6039  0.1979  0.5524
  920MOL0     C24075   8.587  -0.003   7.698 -0.4947 -0.5702  0.0135
  920MOL0     C24076   8.549  -0.118   7.803  0.6295  0.2388 -0.3812
  920MOL0     C24077   8.672  -0.188   7.885  1.0149  0.4349 -0.1601
  920MOL0     C24078   8.616  -0.298   7.977  0.6245  0.3910 -0.2577
  920MOL0     C24079   8.599  -0.434   7.904 -0.0018  0.3092 -0.9290
  920MOL0     C24080   8.568  -0.551   7.996 -0.2011  0.0765 -0.1002
  920MOL0     C24081   8.432  -0.541   8.085 -1.0139  1.3532 -1.0496
  920MOL0     N24082   8.321  -0.542   7.995 -0.1765  0.3718  0.1355
  920MOL0     C24083   8.244  -0.425   7.977  0.8637 -0.1016  0.7398
  920MOL0     C24084   8.191  -0.443   7.852  0.4091 -0.4608  0.9051
  920MOL0     C24085   8.097  -0.359   7.778 -0.9550  0.2261 -0.1900
  920MOL0     C24086   8.183  -0.277   7.685 -0.1587  0.6039  0.4319
  920MOL0     C24087   8.105  -0.156   7.619 -0.1123  0.4334 -0.4389
  920MOL0     C24088   8.193  -0.101   7.509 -0.0983 -0.6281  0.2312
  920MOL0     O24089   8.213  -0.188   7.397 -0.7256  0.4228  0.8678
  920MOL0     C24090   8.346  -0.206   7.362  0.4409  0.6672  0.1423
  920MOL0     C24091   8.424  -0.314   7.416 -0.1276 -0.6155  0.4551
  920MOL0     C24092   8.563  -0.337   7.379 -0.1284 -0.3669 -0.6201
  920MOL0     C24093   8.629  -0.463   7.438  0.4076  0.7961  0.1988
  920MOL0     C24094   8.623  -0.248   7.294  1.4944  0.1171 -0.6892
  920MOL0     C24095   8.769  -0.253   7.268  0.0866  0.0230  0.1092
  920MOL0     O24096   8.806  -0.194   7.156  0.1098 -0.0462  0.1397
  920MOL0     C24097   8.933  -0.219   7.100  0.9958 -0.1288 -0.2743
  920MOL0     C24098   8.998  -0.347   7.099  0.8527  0.1521  0.9048
  920MOL0     C24099   9.126  -0.351   7.037  0.1414  0.5677 -0.9251
  920MOL0     C24100   9.187  -0.241   6.977 -0.2510  0.0551 -0.5932
  920MOL0     O24101   9.318  -0.234   6.924 -0.4670  0.4186  0.1872
  920MOL0     C24102   9.406  -0.340   6.962  0.5014 -0.3258 -0.4056
  920MOL0     C24103   9.552  -0.288   6.969  0.5939  0.4664  0.6107
  920MOL0     C24104   9.621  -0.275   6.833  0.1669  0.4348  0.1875
  920MOL0     C24105   9.564  -0.151   6.749 -0.4103 -0.2404 -0.4516
  920MOL0     C24106   9.600  -0.007   6.803  0.3791  0.8068  0.0130
  920MOL0     C24107   9.582   0.096   6.691 -0.2222  0.0496 -0.4547
  920MOL0     C24108   9.440   0.157   6.713 -0.4107 -0.2861  0.7775
  920MOL0     C24109   9.428   0.276   6.616  0.1744 -0.0142  0.0903
  920MOL0    Cl24110   9.532   0.409   6.684 -0.0057  0.2021 -0.1304
  920MOL0     C24111   9.117  -0.118   6.978  0.2371  0.7478  1.1804
  920MOL0     C24112   8.989  -0.109   7.027 -0.1381  0.2740 -0.2701
  920MOL0     O24113   8.845  -0.314   7.343 -0.9063 -0.7758 -0.0146
  920MOL0     C24114   8.544  -0.152   7.228 -0.0305 -0.3412  0.0370
  920MOL0     C24115   8.409  -0.147   7.258  0.7079  0.3386  0.3150
  920MOL0     N24116   8.229  -0.570   7.800 -0.2949  0.0600  0.7905
  920MOL0     N24117   8.302  -0.632   7.888 -0.9077  0.2590 -0.1988
  920MOL0     C24118   8.803   0.180   7.328 -0.0341  0.1214 -0.3656
  920MOL0     C24119   8.926   0.225   7.271  0.2288  0.8766  0.3371
  920MOL0     C24120   9.345   0.378   7.227 -0.5890 -0.1048  1.2487
  920MOL0     C24121   9.412   0.288   7.138  0.7828 -1.1549 -0.4975
  920MOL0     C24122   9.532   0.316   7.085 -0.2414  0.0376 -0.2945
  920MOL0     C24123   9.596   0.438   7.110  0.0188 -0.0283  0.9503
  920MOL0     O24124   9.710   0.485   7.053  0.5035 -0.4456 -0.9711
  920MOL0     C24125   9.788   0.399   6.967  0.1548 -0.2611 -0.3593
  920MOL0     C24126   9.882   0.295   7.049  0.5891 -0.6844  0.5366
  920MOL0     C24127   9.984   0.370   7.137 -0.3203  0.3669  0.4571
  920MOL0     C24128  10.085   0.277   7.199  0.1324  0.6094  0.6117
  920MOL0     C24129  10.015   0.166   7.278  0.9480  0.6009 -0.6400
  920MOL0     C24130   9.955   0.077   7.331  0.8110  1.0840 -0.1407
  920MOL0     C24131   9.536   0.531   7.197 -0.4994 -0.1767  0.4175
  920MOL0     C24132   9.413   0.490   7.257 -0.1194 -0.3665  0.1358
  920MOL0     H24133   9.134  -0.008   7.404 -1.6248 -3.4318 -0.5392
  920MOL0     H24134   8.949  -0.092   7.483  2.2673  0.9221  0.1097
  920MOL0     H24135   8.729  -0.129   7.608  4.6438  0.8404  0.3909
  920MOL0     H24136   8.797   0.016   7.668  0.5723  0.3186 -1.3202
  920MOL0     H24137   8.593   0.094   7.749 -0.8060 -0.5167 -0.0475
  920MOL0     H24138   8.502   0.004   7.630  0.5798  2.3788 -1.1869
  920MOL0     H24139   8.493  -0.075   7.886  2.4196  2.5395 -0.2823
  920MOL0     H24140   8.503  -0.201   7.749  0.8678 -0.7270  0.8538
  920MOL0     H24141   8.734  -0.239   7.811  1.3040 -2.2267  1.7768
  920MOL0     H24142   8.734  -0.127   7.952 -1.8761  2.1281  1.1261
  920MOL0     H24143   8.680  -0.313   8.064 -0.4038  1.2963  0.6824
  920MOL0     H24144   8.518  -0.272   8.017 -0.1189 -2.2307 -0.2177
  920MOL0     H24145   8.522  -0.426   7.826  1.2983 -0.2614 -2.3210
  920MOL0     H24146   8.684  -0.442   7.837  0.4565  0.6458 -0.3966
  920MOL0     H24147   8.562  -0.637   7.928  1.5319  1.2733 -1.8709
  920MOL0     H24148   8.653  -0.572   8.062 -1.9534 -1.5116  1.7809
  920MOL0     H24149   8.421  -0.450   8.145 -1.1568  1.4244 -1.1873
  920MOL0     H24150   8.434  -0.629   8.151  1.6596  1.7314 -0.5049
  920MOL0     H24151   8.235  -0.332   8.032  2.8090 -1.1968  3.1059
  920MOL0     H24152   8.018  -0.419   7.733 -1.9277  3.1914 -2.7700
  920MOL0     H24153   8.050  -0.298   7.856 -1.3142  1.4331 -1.3306
  920MOL0     H24154   8.212  -0.348   7.607 -0.5591 -0.8861  1.5805
  920MOL0     H24155   8.271  -0.236   7.734 -1.3106  3.2678  0.4622
  920MOL0     H24156   8.092  -0.090   7.706  0.0522  1.5134 -1.2217
  920MOL0     H24157   8.009  -0.185   7.576 -1.6492  2.3524  1.4789
  920MOL0     H24158   8.287  -0.069   7.555 -1.1945  4.1256 -0.3119
  920MOL0     H24159   8.139  -0.014   7.472  1.6952  1.1225  1.4832
  920MOL0     H24160   8.380  -0.384   7.486 -1.1810 -0.1654  0.2690
  920MOL0     H24161   8.673  -0.445   7.536  2.4363 -3.0143  0.1730
  920MOL0     H24162   8.560  -0.547   7.432  2.1511 -0.6725 -0.1742
  920MOL0     H24163   8.709  -0.504   7.376  0.3329 -0.8343  1.1344
  920MOL0     H24164   8.956  -0.435   7.145  0.3124 -0.8266 -1.3371
  920MOL0     H24165   9.171  -0.449   7.041  0.7437  0.8815  0.5862
  920MOL0     H24166   9.377  -0.388   7.056 -3.6519  1.7634 -0.3638
  920MOL0     H24167   9.398  -0.424   6.892 -0.0472 -1.1806  0.6626
  920MOL0     H24168   9.564  -0.190   7.015  1.5196  0.8247 -0.3522
  920MOL0     H24169   9.615  -0.353   7.030 -1.0629  0.4181  2.3596
  920MOL0     H24170   9.586  -0.369   6.788 -1.9403  1.6699 -0.9005
  920MOL0     H24171   9.730  -0.269   6.843  0.5379 -0.2373 -2.5977
  920MOL0     H24172   9.612  -0.168   6.652  2.7215  0.1804  0.9267
  920MOL0     H24173   9.456  -0.146   6.727 -0.4049  1.5398 -0.2375
  920MOL0     H24174   9.702  -0.013   6.841 -0.3096 -4.3702  1.7009
  920MOL0     H24175   9.528   0.009   6.883 -2.7846 -3.6394 -1.5777
  920MOL0     H24176   9.658   0.174   6.701  0.1699 -0.0175 -2.5815
  920MOL0     H24177   9.583   0.061   6.587 -0.8632 -0.6675 -0.2343
  920MOL0     H24178   9.422   0.193   6.815  1.1710  1.6391  0.4307
  920MOL0     H24179   9.374   0.076   6.681 -1.5255  1.6943 -2.4280
  920MOL0     H24180   9.326   0.317   6.620 -0.3752 -1.3556  0.4713
  920MOL0     H24181   9.454   0.243   6.515 -0.1998  1.4722 -0.5271
  920MOL0     H24182   9.166  -0.031   6.934  0.2636 -1.1161 -2.9237
  920MOL0     H24183   8.930  -0.019   7.042  1.3630  2.0897 -3.9238
  920MOL0     H24184   8.590  -0.090   7.152 -0.6557 -0.0450 -0.1070
  920MOL0     H24185   8.341  -0.075   7.213 -0.3103  0.1483  1.5187
  920MOL0     H24186   8.707   0.227   7.313 -0.1357  0.0036 -0.0893
  920MOL0     H24187   8.924   0.314   7.209 -2.0095  2.5906  2.6374
  920MOL0     H24188   9.367   0.192   7.115 -2.2624  0.0185  0.1575
  920MOL0     H24189   9.568   0.237   7.020 -2.7603 -2.2027  0.7978
  920MOL0     H24190   9.724   0.344   6.897 -0.5117  1.1299 -0.8886
  920MOL0     H24191   9.854   0.464   6.908  1.4066 -1.8297 -0.7515
  920MOL0     H24192   9.937   0.223   6.988 -0.4770  0.1580 -1.5169
  920MOL0     H24193   9.824   0.237   7.121  2.2514 -1.5332  1.2451
  920MOL0     H24194   9.939   0.433   7.214  1.2287  1.8404  0.1975
  920MOL0     H24195  10.046   0.439   7.079 -0.0967  0.5575  0.9178
  920MOL0     H24196  10.160   0.325   7.262  0.4650 -1.0715  1.5619
  920MOL0     H24197  10.143   0.226   7.121 -1.2203  0.5936 -0.4252
  920MOL0     H24198   9.889  -0.005   7.350 -0.2252  1.9304  0.0489
  920MOL0     H24199   9.588   0.617   7.237  0.2391 -0.8563  0.9681
  920MOL0     H24200   9.374   0.558   7.332  1.2769  2.5739 -1.5820
  921MOL0     O24201   2.700   6.743   3.312  0.0385 -0.0857 -0.5045
  921MOL0     C24202   2.643   6.680   3.406  0.8875 -0.9955  0.2707
  921MOL0     O24203   2.565   6.743   3.500  0.0523 -0.3453 -0.3022
  921MOL0     C24204   2.521   6.873   3.478  0.3381  0.5956  0.3387
  921MOL0     C24205   2.456   6.923   3.363 -0.1141  0.4214  0.6574
  921MOL0     C24206   2.416   7.060   3.368  0.7649  0.5714 -0.3404
  921MOL0     C24207   2.409   7.133   3.485  0.1626 -0.1742 -0.0500
  921MOL0     O24208   2.346   7.259   3.477 -0.4032  0.0730  0.4604
  921MOL0     C24209   2.207   7.248   3.450 -0.3021 -0.0726 -0.5021
  921MOL0     C24210   2.138   7.370   3.518  0.5407 -0.8966 -0.1841
  921MOL0     C24211   2.192   7.508   3.457  0.8681  0.0771 -0.6593
  921MOL0     C24212   2.148   7.624   3.546  0.8697  0.1698  0.0807
  921MOL0     C24213   2.185   7.759   3.475  0.7512  0.2456  0.0023
  921MOL0     C24214   2.087   7.800   3.363 -0.4640  0.0893 -0.0277
  921MOL0     C24215   2.132   7.938   3.305  0.2742 -0.0159 -0.1500
  921MOL0     C24216   2.213   7.906   3.177  0.2776 -0.4366  0.1227
  921MOL0     N24217   2.275   8.026   3.116  0.3281  0.2819 -0.3758
  921MOL0     C24218   2.195   8.125   3.058 -0.3796 -0.1302 -0.0540
  921MOL0     C24219   2.286   8.222   3.026 -0.1022  0.5813 -0.4206
  921MOL0     C24220   2.244   8.345   2.952 -0.3402  0.1966  0.9862
  921MOL0     C24221   2.221   8.322   2.802  0.0743  0.0435  0.5350
  921MOL0     C24222   2.152   8.434   2.724  0.4870 -0.3060 -0.5737
  921MOL0     C24223   2.116   8.381   2.587  0.3976 -0.0288 -0.9702
  921MOL0     O24224   2.066   8.492   2.513  0.5570  0.3414  0.8171
  921MOL0     C24225   1.983   8.473   2.410  0.9508 -0.0654  0.0411
  921MOL0     C24226   1.908   8.582   2.368  0.1682 -0.1012 -0.0404
  921MOL0     C24227   1.808   8.578   2.273  0.2816  1.0545 -0.5914
  921MOL0     C24228   1.729   8.706   2.238 -0.1730 -0.3076  0.1637
  921MOL0     C24229   1.778   8.450   2.209 -0.0276  0.5998  1.2681
  921MOL0     C24230   1.671   8.435   2.111  0.5417  0.1852  0.5759
  921MOL0     O24231   1.547   8.443   2.162  0.0402 -0.0243 -0.6596
  921MOL0     C24232   1.435   8.459   2.087  0.4467 -0.2828  0.4786
  921MOL0     C24233   1.313   8.443   2.154  0.2469  0.3955  0.5376
  921MOL0     C24234   1.194   8.470   2.087  0.0149 -0.0053 -0.2926
  921MOL0     C24235   1.189   8.513   1.952  0.1784 -0.1172 -0.0963
  921MOL0     O24236   1.070   8.541   1.893  1.1228 -0.0812 -0.4541
  921MOL0     C24237   1.054   8.563   1.756  0.5220 -0.8729 -0.4223
  921MOL0     C24238   0.902   8.562   1.725 -0.2918  0.7432  0.7322
  921MOL0     C24239   0.844   8.690   1.764  0.5029  0.7963 -0.8467
  921MOL0     C24240   0.799   8.770   1.641  0.0853 -0.0445  0.1947
  921MOL0     C24241   0.714   8.889   1.692 -0.2912  0.0238 -0.1067
  921MOL0     C24242   0.653   8.964   1.568 -0.6965 -0.2649  0.3155
  921MOL0     C24243   0.751   8.996   1.452 -0.7232  0.7504  0.7679
  921MOL0     C24244   0.718   9.098   1.345  0.9498 -0.4940  0.1064
  921MOL0    Cl24245   0.566   9.064   1.253  0.2459 -0.0302 -0.1111
  921MOL0     C24246   1.311   8.535   1.888 -0.5848  0.2616 -0.9286
  921MOL0     C24247   1.437   8.508   1.956 -0.1717 -0.4191 -0.1561
  921MOL0     O24248   1.706   8.394   1.993 -0.4143  0.4856 -0.5939
  921MOL0     C24249   1.863   8.340   2.244  0.4610  0.5818 -0.4228
  921MOL0     C24250   1.961   8.348   2.345 -0.0108  0.7353 -0.1821
  921MOL0     N24251   2.412   8.179   3.068  0.0685  0.6423 -0.0316
  921MOL0     N24252   2.414   8.054   3.111  0.0798  0.0731 -0.9163
  921MOL0     C24253   2.473   7.084   3.596 -1.1278  1.1114 -0.1147
  921MOL0     C24254   2.529   6.950   3.596  0.0352 -0.6215 -0.5220
  921MOL0     C24255   2.679   6.536   3.408  0.0777 -0.2614 -0.5308
  921MOL0     C24256   2.579   6.449   3.446  0.1332  0.3418 -0.7742
  921MOL0     C24257   2.595   6.305   3.437 -0.3166  0.4078 -1.1655
  921MOL0     C24258   2.709   6.258   3.397  0.2904 -0.4428  0.7075
  921MOL0     O24259   2.731   6.121   3.390 -0.2664 -0.7303  0.1809
  921MOL0     C24260   2.615   6.046   3.339 -0.0354 -0.2242  0.1740
  921MOL0     C24261   2.673   5.917   3.293  0.1364  0.2333 -0.2068
  921MOL0     C24262   2.732   5.927   3.139  0.2799 -0.1326 -0.0305
  921MOL0     C24263   2.774   5.799   3.079  0.0581 -0.2146 -0.2185
  921MOL0     C24264   2.916   5.806   3.024 -0.6006  0.0581  0.3445
  921MOL0     C24265   3.032   5.811   2.969 -0.3240  0.1734  0.4365
  921MOL0     C24266   2.815   6.342   3.378 -0.0535 -1.2617 -1.2056
  921MOL0     C24267   2.808   6.483   3.375 -0.1441 -0.0213  1.1847
  921MOL0     H24268   2.446   6.860   3.275 -3.3809 -1.0794  1.9369
  921MOL0     H24269   2.361   7.103   3.285  0.8994  1.0310 -0.1952
  921MOL0     H24270   2.190   7.249   3.342  0.6254 -0.9496 -0.6670
  921MOL0     H24271   2.167   7.158   3.498 -2.1803  1.3734  0.7806
  921MOL0     H24272   2.031   7.350   3.507  0.4628  0.0330 -1.2973
  921MOL0     H24273   2.170   7.353   3.622  3.1676 -1.6129 -1.0418
  921MOL0     H24274   2.301   7.506   3.457  0.9354 -2.7835  1.1745
  921MOL0     H24275   2.152   7.519   3.356 -0.2402  0.8100 -0.1671
  921MOL0     H24276   2.039   7.617   3.538  0.9717  0.4767 -2.3240
  921MOL0     H24277   2.191   7.626   3.646  1.1314 -2.5852  0.1167
  921MOL0     H24278   2.194   7.846   3.541  0.5618  0.7642 -0.6534
  921MOL0     H24279   2.277   7.753   3.418 -0.9933  4.7459 -3.8948
  921MOL0     H24280   2.077   7.719   3.290  0.5165 -3.6542  3.6220
  921MOL0     H24281   1.990   7.817   3.412  0.8593  0.1164  2.8086
  921MOL0     H24282   2.039   7.991   3.282  1.3099  0.8775 -2.5497
  921MOL0     H24283   2.194   7.990   3.378  1.5861  2.6108 -2.9428
  921MOL0     H24284   2.131   7.881   3.109 -1.8458 -0.4550  2.5481
  921MOL0     H24285   2.284   7.824   3.165 -1.6948 -2.0695 -1.3133
  921MOL0     H24286   2.090   8.139   3.035  0.2260  2.4957 -1.6467
  921MOL0     H24287   2.153   8.366   3.010 -1.0002 -0.1500  0.1008
  921MOL0     H24288   2.305   8.434   2.971  0.5473  0.0141 -0.8205
  921MOL0     H24289   2.159   8.232   2.793  0.4762 -0.3526  1.6339
  921MOL0     H24290   2.323   8.302   2.768 -0.4004  1.4027 -1.9983
  921MOL0     H24291   2.229   8.510   2.704 -0.0780 -0.0013 -1.7199
  921MOL0     H24292   2.061   8.472   2.771  2.2666  3.0472  0.4715
  921MOL0     H24293   2.047   8.297   2.597  1.9114 -1.2906 -0.7610
  921MOL0     H24294   2.211   8.350   2.542  1.0680  1.4418 -0.6509
  921MOL0     H24295   1.938   8.680   2.405  2.0016 -0.6069 -0.0527
  921MOL0     H24296   1.741   8.739   2.135  3.3733 -0.7154  0.3290
  921MOL0     H24297   1.623   8.684   2.257 -0.5576 -2.0868 -3.2221
  921MOL0     H24298   1.749   8.790   2.305  3.6833 -1.6467  0.9241
  921MOL0     H24299   1.332   8.422   2.259 -4.0975  1.3625  1.6994
  921MOL0     H24300   1.096   8.453   2.131  0.3488  0.5731  0.6918
  921MOL0     H24301   1.086   8.664   1.730 -2.7769  0.0661 -1.3550
  921MOL0     H24302   1.110   8.488   1.700  0.0801 -1.2889 -0.3206
  921MOL0     H24303   0.899   8.549   1.617  0.5561  0.3239  0.7509
  921MOL0     H24304   0.866   8.466   1.764  3.5916 -2.0326 -1.8271
  921MOL0     H24305   0.903   8.755   1.830  0.1400 -1.5466  1.9813
  921MOL0     H24306   0.759   8.670   1.830  1.2141 -0.2287 -0.2080
  921MOL0     H24307   0.887   8.794   1.581 -0.7530 -2.4908 -2.2257
  921MOL0     H24308   0.733   8.702   1.586 -0.9261 -0.6887  2.1064
  921MOL0     H24309   0.766   8.965   1.752  1.9062  0.7302 -2.7010
  921MOL0     H24310   0.626   8.855   1.747 -0.2494  1.0533  0.6395
  921MOL0     H24311   0.568   8.907   1.530 -2.0760  1.9872 -0.1890
  921MOL0     H24312   0.602   9.053   1.605  0.9524 -0.3946  3.2501
  921MOL0     H24313   0.759   8.896   1.407 -0.2803  1.7786 -1.5815
  921MOL0     H24314   0.845   9.027   1.499  0.2409 -4.1016  2.6978
  921MOL0     H24315   0.803   9.115   1.278  0.7519 -0.4696 -0.1355
  921MOL0     H24316   0.705   9.198   1.388 -0.3916  0.1647 -1.7242
  921MOL0     H24317   1.327   8.550   1.782  1.5706  0.4120 -0.6443
  921MOL0     H24318   1.532   8.523   1.904  0.8364  0.8806  1.9182
  921MOL0     H24319   1.847   8.250   2.185  3.1599  1.4977 -2.7528
  921MOL0     H24320   2.010   8.254   2.368  0.6025  0.8820 -0.8683
  921MOL0     H24321   2.461   7.136   3.691  1.1182 -0.5478  1.1812
  921MOL0     H24322   2.548   6.892   3.686 -1.4873  1.7412  1.4349
  921MOL0     H24323   2.480   6.478   3.479 -0.8592 -1.9864 -1.4915
  921MOL0     H24324   2.501   6.254   3.455  0.4997 -1.2036 -1.3216
  921MOL0     H24325   2.534   6.027   3.410 -0.4809  0.0087 -0.2608
  921MOL0     H24326   2.568   6.092   3.252 -1.1004 -0.4200  0.6261
  921MOL0     H24327   2.599   5.837   3.308  0.2536  0.0658 -0.5228
  921MOL0     H24328   2.763   5.885   3.347  0.5181 -0.3802 -1.1825
  921MOL0     H24329   2.825   5.984   3.133  0.3200 -0.3375 -3.0942
  921MOL0     H24330   2.658   5.964   3.066  1.8267  2.8382 -0.2283
  921MOL0     H24331   2.696   5.786   3.003 -2.7787 -0.2038  2.5028
  921MOL0     H24332   2.776   5.723   3.157  1.8092  0.0785  0.0531
  921MOL0     H24333   3.130   5.796   2.929 -0.9909  0.6665 -1.4751
  921MOL0     H24334   2.909   6.300   3.343  0.5452  0.5163 -1.8324
  921MOL0     H24335   2.895   6.547   3.368 -0.3709  0.6766  3.8543
  922MOL0     O24336   2.518   6.651   3.072 -0.2378  0.5507  1.2585
  922MOL0     C24337   2.570   6.754   3.021  0.4991  0.2305  0.2486
  922MOL0     O24338   2.705   6.774   2.991  0.5694  0.4126 -0.0974
  922MOL0     C24339   2.790   6.662   2.998  0.3364 -0.1021 -0.2025
  922MOL0     C24340   2.906   6.679   3.078  0.1565  0.2046 -0.9164
  922MOL0     C24341   3.002   6.574   3.093 -0.3305 -0.1181 -0.6559
  922MOL0     C24342   2.988   6.456   3.026 -0.5553  1.1153  1.4264
  922MOL0     O24343   3.078   6.353   3.060 -0.0909  0.1575  0.5661
  922MOL0     C24344   3.060   6.215   3.015  0.9113 -0.4407 -0.3708
  922MOL0     C24345   3.172   6.134   3.073  0.3325  0.3650 -0.4726
  922MOL0     C24346   3.132   6.072   3.202 -0.8735  0.6662 -0.1718
  922MOL0     C24347   3.241   5.973   3.248  0.9164 -0.5966 -0.1284
  922MOL0     C24348   3.209   5.926   3.392  0.0674  0.1147  0.6979
  922MOL0     C24349   3.087   5.830   3.409  0.4952 -0.2695  0.5461
  922MOL0     C24350   3.101   5.692   3.357  0.1464  0.4630 -0.3762
  922MOL0     C24351   3.177   5.605   3.463  0.0572 -0.3454 -0.4402
  922MOL0     N24352   3.173   5.470   3.430  0.4850 -0.4301  0.0444
  922MOL0     C24353   3.281   5.390   3.392  0.1096 -0.7454  0.5107
  922MOL0     C24354   3.232   5.268   3.426  0.7447 -0.3021 -0.6966
  922MOL0     C24355   3.306   5.142   3.430 -0.5721  0.3528  0.6131
  922MOL0     C24356   3.383   5.115   3.563 -0.1635  0.0799 -0.4784
  922MOL0     C24357   3.298   5.044   3.671 -0.6530 -0.1862 -0.5103
  922MOL0     C24358   3.379   5.000   3.800 -1.0612 -0.1492 -0.5616
  922MOL0     O24359   3.477   4.894   3.789 -0.1702 -0.6151 -0.6050
  922MOL0     C24360   3.429   4.769   3.758 -0.4211  0.0555  0.4963
  922MOL0     C24361   3.297   4.724   3.774 -0.1819  0.3828 -0.7072
  922MOL0     C24362   3.260   4.588   3.758 -0.0981  0.5354 -0.5585
  922MOL0     C24363   3.117   4.556   3.776 -0.1462 -0.4646 -1.0419
  922MOL0     C24364   3.368   4.492   3.722  0.1104 -0.0748 -0.9872
  922MOL0     C24365   3.343   4.344   3.710 -0.8363 -0.9741 -0.4035
  922MOL0     O24366   3.243   4.293   3.787 -0.2933  0.2590 -0.2202
  922MOL0     C24367   3.230   4.161   3.781 -0.5037 -0.5519  0.1754
  922MOL0     C24368   3.276   4.076   3.885  0.3610 -0.6004  0.2262
  922MOL0     C24369   3.250   3.935   3.879  0.8482 -0.4684  0.5163
  922MOL0     C24370   3.187   3.878   3.763  0.3653 -0.4576 -0.4394
  922MOL0     O24371   3.164   3.734   3.761  0.6022 -1.1067  0.5907
  922MOL0     C24372   3.125   3.663   3.635  0.0934  0.2010  0.1085
  922MOL0     C24373   2.977   3.639   3.606  0.3007  0.4457  0.7334
  922MOL0     C24374   2.940   3.590   3.474  0.4102 -0.0433  0.1559
  922MOL0     C24375   2.790   3.554   3.442 -0.1688 -0.6349 -0.0599
  922MOL0     C24376   2.783   3.508   3.301 -0.6085 -0.1345  0.4558
  922MOL0     C24377   2.779   3.615   3.185  0.0960  0.5373  0.2828
  922MOL0     C24378   2.793   3.544   3.044 -0.9853 -0.0683 -0.6151
  922MOL0     C24379   2.750   3.633   2.931 -0.0633 -0.7560 -1.0189
  922MOL0    Cl24380   2.565   3.660   2.948 -0.3077 -0.4473  0.3587
  922MOL0     C24381   3.153   3.969   3.665  0.3206 -0.3404  0.5187
  922MOL0     C24382   3.174   4.104   3.668 -0.2123 -0.4451 -0.4656
  922MOL0     O24383   3.416   4.284   3.634 -0.6422  0.1314  0.1537
  922MOL0     C24384   3.495   4.541   3.696  0.0367 -0.3832 -0.3549
  922MOL0     C24385   3.524   4.678   3.707  0.0971  0.1619  0.2698
  922MOL0     N24386   3.100   5.279   3.455  0.1144  0.2430 -0.4025
  922MOL0     N24387   3.061   5.399   3.460  0.0510 -0.8674  0.0588
  922MOL0     C24388   2.897   6.453   2.922  0.4378  0.9080  0.3789
  922MOL0     C24389   2.799   6.556   2.912  0.1101  0.4299 -0.0201
  922MOL0     C24390   2.479   6.862   2.986  0.4523  0.0904  0.0608
  922MOL0     C24391   2.520   6.976   2.921 -0.1688 -0.6755  0.6191
  922MOL0     C24392   2.443   7.086   2.916  0.8898 -0.8911  0.4610
  922MOL0     C24393   2.311   7.091   2.979 -0.0017 -0.4719 -0.0212
  922MOL0     O24394   2.230   7.203   2.999  0.0880 -0.4208 -0.5868
  922MOL0     C24395   2.287   7.333   2.961 -0.3544 -0.1931  0.4449
  922MOL0     C24396   2.193   7.443   3.009 -0.2893 -0.5155 -0.5286
  922MOL0     C24397   2.034   7.430   2.983  0.4799  0.1288 -0.0866
  922MOL0     C24398   1.938   7.534   3.037  0.5768 -0.1508  0.4853
  922MOL0     C24399   1.901   7.533   3.178  0.1054 -0.0354  0.4130
  922MOL0     C24400   1.876   7.523   3.295 -0.1969 -0.8865  0.2820
  922MOL0     C24401   2.262   6.965   3.019  0.1414 -0.4364 -0.2667
  922MOL0     C24402   2.342   6.851   3.017  0.4625 -0.1087 -0.1398
  922MOL0     H24403   2.901   6.764   3.146 -4.9211  0.0390 -0.6763
  922MOL0     H24404   3.081   6.582   3.167  0.5014  1.4119 -1.6638
  922MOL0     H24405   2.960   6.175   3.033  1.0690 -0.5167  0.3901
  922MOL0     H24406   3.068   6.203   2.907  1.0240 -3.0801 -0.1314
  922MOL0     H24407   3.200   6.067   2.991  1.1577  0.7313 -0.4945
  922MOL0     H24408   3.263   6.192   3.092  0.9100 -0.4700 -0.5973
  922MOL0     H24409   3.113   6.155   3.271  1.6587  1.0548  0.1446
  922MOL0     H24410   3.037   6.019   3.202 -0.4013 -0.2094  0.5218
  922MOL0     H24411   3.231   5.893   3.174 -4.0295 -0.5885  0.1966
  922MOL0     H24412   3.339   6.023   3.250  0.4415  0.4218 -1.3625
  922MOL0     H24413   3.299   5.879   3.431  0.5302  0.3547 -0.0491
  922MOL0     H24414   3.199   6.011   3.460 -0.8429  0.4369  0.1880
  922MOL0     H24415   3.068   5.825   3.517  0.6450 -0.4356  0.5649
  922MOL0     H24416   2.998   5.878   3.366  2.1453  1.9988 -0.5160
  922MOL0     H24417   3.002   5.644   3.356  0.0592  0.5068  1.8413
  922MOL0     H24418   3.142   5.685   3.256  1.1397 -1.8319  0.1088
  922MOL0     H24419   3.121   5.612   3.557  0.1096  1.0701 -0.5044
  922MOL0     H24420   3.276   5.650   3.478 -2.3826  4.6392  3.7737
  922MOL0     H24421   3.383   5.419   3.369 -0.7547  3.0647  0.8554
  922MOL0     H24422   3.232   5.065   3.409 -0.1543 -0.0537  0.6243
  922MOL0     H24423   3.381   5.137   3.351 -1.0848  0.0470  0.1414
  922MOL0     H24424   3.429   5.209   3.596 -1.6996  0.9929 -0.7983
  922MOL0     H24425   3.469   5.050   3.550 -0.8025 -1.2554  1.5197
  922MOL0     H24426   3.235   4.965   3.630 -0.5854 -0.5136  0.0099
  922MOL0     H24427   3.222   5.114   3.707  0.7083  2.8684 -3.0798
  922MOL0     H24428   3.297   4.975   3.868  0.7536 -4.0776  0.4456
  922MOL0     H24429   3.424   5.089   3.845 -1.1336  0.0686 -0.9173
  922MOL0     H24430   3.227   4.799   3.808  1.0389 -0.1669  3.5106
  922MOL0     H24431   3.106   4.523   3.880  2.6957 -1.9968 -1.1359
  922MOL0     H24432   3.045   4.636   3.759 -2.2527 -1.8978  0.4702
  922MOL0     H24433   3.078   4.477   3.712 -2.9394  1.4310 -1.8635
  922MOL0     H24434   3.305   4.118   3.981  0.1007 -1.5909  0.7522
  922MOL0     H24435   3.295   3.870   3.953  2.0882  2.6860  2.6972
  922MOL0     H24436   3.170   3.708   3.546  2.9893  0.0934  1.4165
  922MOL0     H24437   3.172   3.564   3.641  1.2621  0.5741 -1.9112
  922MOL0     H24438   2.942   3.566   3.679 -0.4313 -0.0949 -0.1341
  922MOL0     H24439   2.918   3.729   3.621  0.0643  0.1565  1.5958
  922MOL0     H24440   3.007   3.509   3.445  0.0273 -0.7435  1.1626
  922MOL0     H24441   2.965   3.675   3.410 -2.6709  0.1281 -0.9526
  922MOL0     H24442   2.765   3.464   3.499 -0.2745  0.2138  1.2924
  922MOL0     H24443   2.726   3.642   3.454  0.4680  0.1065 -1.8293
  922MOL0     H24444   2.692   3.449   3.287  0.3518 -1.4872 -0.2967
  922MOL0     H24445   2.862   3.437   3.277 -2.3743 -2.4362  1.1393
  922MOL0     H24446   2.682   3.666   3.191 -0.5134 -0.7181  1.7830
  922MOL0     H24447   2.861   3.687   3.192  0.1964  0.6805 -1.7889
  922MOL0     H24448   2.724   3.459   3.054  0.0420 -0.8201  0.2865
  922MOL0     H24449   2.895   3.506   3.034 -0.1119  1.5008  1.4472
  922MOL0     H24450   2.767   3.597   2.830  3.5290  0.9892 -1.2116
  922MOL0     H24451   2.815   3.721   2.934 -0.3735 -0.5005  1.8596
  922MOL0     H24452   3.095   3.930   3.581 -1.2319  0.9271  0.9531
  922MOL0     H24453   3.123   4.170   3.597 -3.0343  0.2757  2.0384
  922MOL0     H24454   3.569   4.470   3.661  1.0494  0.5210 -0.0852
  922MOL0     H24455   3.622   4.711   3.673  0.6574 -2.1322 -0.4985
  922MOL0     H24456   2.885   6.359   2.870 -1.3844 -0.7623  3.4846
  922MOL0     H24457   2.720   6.549   2.838  0.8966 -3.1786 -0.7362
  922MOL0     H24458   2.623   6.970   2.887  0.0707  1.4260  0.8450
  922MOL0     H24459   2.489   7.180   2.887  1.9594 -2.0506 -1.8592
  922MOL0     H24460   2.382   7.361   3.007  1.7689 -0.3486 -3.4209
  922MOL0     H24461   2.304   7.343   2.853  0.3933  0.6140  0.6299
  922MOL0     H24462   2.220   7.534   2.953  0.9854 -0.3685  0.2748
  922MOL0     H24463   2.203   7.450   3.118  1.4740  1.7508 -0.7336
  922MOL0     H24464   2.001   7.330   3.013 -0.3486  0.2172 -0.6724
  922MOL0     H24465   2.021   7.431   2.874 -5.4435 -0.2354  0.2868
  922MOL0     H24466   1.851   7.529   2.971  0.2143 -2.2500  1.0659
  922MOL0     H24467   1.965   7.639   3.019 -2.1623  0.4978 -0.4761
  922MOL0     H24468   1.856   7.504   3.399 -1.2098 -0.5691  0.1545
  922MOL0     H24469   2.160   6.968   3.058  0.5259  1.7038  0.7798
  922MOL0     H24470   2.304   6.755   3.050  0.8655  0.8370  3.4761
  923MOL0     O24471   1.581   6.872  10.238  0.6317 -0.1305  0.0850
  923MOL0     C24472   1.557   6.985  10.200  0.2919 -0.7394  0.9541
  923MOL0     O24473   1.544   7.089  10.279  0.1049 -0.6691  0.0303
  923MOL0     C24474   1.527   7.070  10.420  0.1824 -0.0630  0.4192
  923MOL0     C24475   1.545   7.182  10.501 -0.4340  0.9457 -0.3970
  923MOL0     C24476   1.514   7.179  10.639 -0.3040 -1.1964 -0.8647
  923MOL0     C24477   1.455   7.071  10.706 -0.6616 -0.2600  0.9594
  923MOL0     O24478   1.400   7.074  10.833  0.5500  0.0688  0.1496
  923MOL0     C24479   1.461   6.993  10.928 -0.3827 -0.6688 -0.3506
  923MOL0     C24480   1.408   7.025  11.070 -0.4150 -0.0424  0.9202
  923MOL0     C24481   1.429   7.169  11.116  0.2528  0.1020 -0.6689
  923MOL0     C24482   1.357   7.182  11.249  0.1676 -0.0725 -0.8488
  923MOL0     C24483   1.344   7.323  11.294  0.7108 -0.7537 -0.9038
  923MOL0     C24484   1.260   7.318  11.417 -0.6181 -0.4699 -0.2948
  923MOL0     C24485   1.218   7.465  11.445 -0.2577 -0.0570 -0.5826
  923MOL0     C24486   1.137   7.461  11.577 -0.4787 -0.9238 -0.1356
  923MOL0     N24487   1.065   7.584  11.601  0.4998  0.6132 -0.1520
  923MOL0     C24488   0.931   7.601  11.556 -0.2088  0.5031  0.2852
  923MOL0     C24489   0.916   7.741  11.575 -0.6929  0.6419  0.0931
  923MOL0     C24490   0.808   7.820  11.512  0.3231 -0.1068 -0.4693
  923MOL0     C24491   0.675   7.839  11.597  0.4626  0.3986  0.3647
  923MOL0     C24492   0.574   7.946  11.537  0.4456  0.4603  0.2469
  923MOL0     C24493   0.646   8.068  11.511  0.0867 -0.1923 -0.0348
  923MOL0     O24494   0.572   8.192  11.483  0.1980 -0.5408 -0.0927
  923MOL0     C24495   0.511   8.260  11.584 -0.9066 -0.4873  0.5349
  923MOL0     C24496   0.518   8.231  11.717 -0.6776 -0.2160 -1.4569
  923MOL0     C24497   0.445   8.305  11.815 -0.6315 -0.1651  0.4087
  923MOL0     C24498   0.459   8.272  11.965 -0.3753 -0.2897  0.9192
  923MOL0     C24499   0.363   8.413  11.778 -0.1893 -0.2293  0.2195
  923MOL0     C24500   0.283   8.514  11.865  0.5355 -0.4827  0.4440
  923MOL0     O24501   0.275   8.649  11.827  0.1570  0.4459 -0.3255
  923MOL0     C24502   0.220   8.754  11.897 -0.6059  0.0911  0.5443
  923MOL0     C24503   0.223   8.874  11.835 -1.4806  0.5222 -0.0145
  923MOL0     C24504   0.191   8.988  11.897  0.5764 -0.2662 -0.0116
  923MOL0     C24505   0.159   8.993  12.034 -0.0813  0.5549 -0.1059
  923MOL0     O24506   0.137   9.094  12.123  0.1081  0.8186 -0.2697
  923MOL0     C24507   0.110   9.224  12.067 -0.6088 -0.6014  0.1974
  923MOL0     C24508   0.238   9.309  12.086  0.2500  0.0764 -0.6412
  923MOL0     C24509   0.336   9.293  11.965 -0.1402 -0.1213 -0.0439
  923MOL0     C24510   0.305   9.356  11.832  0.4059 -0.3161  0.3308
  923MOL0     C24511   0.397   9.298  11.723 -2.2109  0.0777 -0.4493
  923MOL0     C24512   0.362   9.339  11.581  0.2283 -0.7620  0.7939
  923MOL0     C24513   0.474   9.306  11.474 -0.3746 -0.6919 -0.3891
  923MOL0     C24514   0.478   9.163  11.425  0.0716  0.1377 -0.8734
  923MOL0    Cl24515   0.585   9.136  11.292  0.0158  0.0109 -0.1743
  923MOL0     C24516   0.146   8.873  12.093  0.3366 -0.3413 -0.6645
  923MOL0     C24517   0.189   8.757  12.034  0.2351  0.0641  0.1441
  923MOL0     O24518   0.234   8.470  11.966  0.6327  0.4610 -0.0256
  923MOL0     C24519   0.367   8.443  11.641  0.5301 -0.3259  0.4299
  923MOL0     C24520   0.437   8.369  11.542 -0.0156  0.7266 -1.0673
  923MOL0     N24521   1.033   7.793  11.627 -0.1819  0.4473 -0.0202
  923MOL0     N24522   1.123   7.702  11.641  0.4466  0.4610  0.4233
  923MOL0     C24523   1.441   6.963  10.626  0.1156  0.6294  0.1032
  923MOL0     C24524   1.476   6.957  10.489  0.1152  0.1108 -0.9835
  923MOL0     C24525   1.565   7.015  10.053  0.4007  0.0051  0.0025
  923MOL0     C24526   1.515   7.136   9.994  0.0094  0.2572  0.4190
  923MOL0     C24527   1.509   7.155   9.856  0.7843  0.0160  0.3482
  923MOL0     C24528   1.561   7.055   9.776 -0.3946  0.0939 -1.2087
  923MOL0     O24529   1.571   7.066   9.642  0.6896  0.7072  0.1837
  923MOL0     C24530   1.443   7.084   9.588 -1.4304  0.1660  0.6512
  923MOL0     C24531   1.424   7.036   9.440 -0.2132  0.1974 -1.4362
  923MOL0     C24532   1.277   7.057   9.382 -0.7053  0.2776 -0.3190
  923MOL0     C24533   1.240   7.205   9.346  0.5651 -0.6614  0.4800
  923MOL0     C24534   1.345   7.291   9.285 -0.5225 -0.0004  0.4390
  923MOL0     C24535   1.431   7.365   9.237  0.4638  0.3862  0.2932
  923MOL0     C24536   1.615   6.943   9.835 -0.6439  0.1258  0.0071
  923MOL0     C24537   1.621   6.921   9.968  0.0916  0.4201  0.3952
  923MOL0     H24538   1.569   7.278  10.457  1.9279  0.9374  0.6728
  923MOL0     H24539   1.516   7.274  10.690 -1.1834 -0.5522 -2.0080
  923MOL0     H24540   1.436   6.890  10.900  2.3603 -1.6061  0.3769
  923MOL0     H24541   1.569   7.002  10.919 -0.3279  0.4673  1.1020
  923MOL0     H24542   1.302   6.999  11.062 -0.7500  1.6332 -0.9756
  923MOL0     H24543   1.452   6.949  11.135  0.5065 -0.3679 -0.0628
  923MOL0     H24544   1.535   7.194  11.128  1.3780 -4.6815  2.0423
  923MOL0     H24545   1.391   7.243  11.044  0.6364 -1.1378 -2.1942
  923MOL0     H24546   1.260   7.132  11.246 -1.7817  3.3861 -0.5387
  923MOL0     H24547   1.416   7.120  11.318 -0.2355  0.6957  0.2142
  923MOL0     H24548   1.444   7.360  11.319  2.2047 -4.6804 -0.2593
  923MOL0     H24549   1.287   7.379  11.220  0.0030  1.2309  1.0476
  923MOL0     H24550   1.178   7.248  11.400 -0.2724 -0.8224 -0.5562
  923MOL0     H24551   1.319   7.281  11.502 -0.7799 -0.0819 -0.0111
  923MOL0     H24552   1.313   7.519  11.451 -0.2035  0.3021 -3.2907
  923MOL0     H24553   1.162   7.505  11.360 -0.4807 -1.1027 -0.9360
  923MOL0     H24554   1.196   7.440  11.667 -2.8561 -0.4786  1.6364
  923MOL0     H24555   1.056   7.388  11.566 -0.0593 -1.7004  1.5472
  923MOL0     H24556   0.885   7.535  11.483 -0.5402 -1.4785  2.1721
  923MOL0     H24557   0.860   7.916  11.497 -1.5691  0.8924 -0.9368
  923MOL0     H24558   0.775   7.778  11.417 -4.4827 -0.0707  0.9552
  923MOL0     H24559   0.712   7.878  11.692  1.0479  0.4078  0.1400
  923MOL0     H24560   0.625   7.745  11.620  0.4060  0.5882  1.0393
  923MOL0     H24561   0.486   7.963  11.600 -0.4897  2.2459 -1.4253
  923MOL0     H24562   0.530   7.917  11.441  1.4727 -1.7834  0.3971
  923MOL0     H24563   0.718   8.049  11.431  0.8234 -2.3505  1.0682
  923MOL0     H24564   0.707   8.077  11.601 -0.1246  2.9958 -0.1287
  923MOL0     H24565   0.592   8.170  11.767 -0.8885  1.8830  1.7003
  923MOL0     H24566   0.481   8.365  12.018  0.3954  0.3817 -0.5134
  923MOL0     H24567   0.358   8.235  11.985 -1.7578 -0.6724 -5.0650
  923MOL0     H24568   0.541   8.201  11.979  1.0694  0.5543 -2.4254
  923MOL0     H24569   0.268   8.874  11.736  0.4713 -1.0619  0.7915
  923MOL0     H24570   0.210   9.077  11.838 -0.3376 -0.0161  0.0540
  923MOL0     H24571   0.103   9.220  11.958  0.6894 -1.2635  0.1097
  923MOL0     H24572   0.022   9.266  12.117  0.4720  3.1824 -0.7296
  923MOL0     H24573   0.215   9.415  12.104  0.6771 -0.1795  1.6295
  923MOL0     H24574   0.277   9.268  12.179 -0.4806 -3.8881 -1.9035
  923MOL0     H24575   0.354   9.185  11.962 -0.9783 -0.3211  1.2411
  923MOL0     H24576   0.424   9.349  11.997  1.1882 -1.1226 -1.7848
  923MOL0     H24577   0.204   9.331  11.798  0.3647  1.4990 -1.0825
  923MOL0     H24578   0.300   9.464  11.852 -2.6892 -0.6161  1.7911
  923MOL0     H24579   0.392   9.191  11.745 -4.0768  0.6392  2.3663
  923MOL0     H24580   0.500   9.325  11.748 -0.6347 -3.7634 -2.0203
  923MOL0     H24581   0.271   9.284  11.555 -0.3463  0.0791  0.9986
  923MOL0     H24582   0.348   9.445  11.559 -0.2580 -0.8915  0.4525
  923MOL0     H24583   0.574   9.321  11.514 -2.0762  2.4376  3.3667
  923MOL0     H24584   0.455   9.383  11.399 -4.2505 -1.4479 -0.4343
  923MOL0     H24585   0.380   9.128  11.393 -0.5575  1.5435 -0.5585
  923MOL0     H24586   0.501   9.092  11.504 -2.3121  1.3779  1.0828
  923MOL0     H24587   0.108   8.871  12.195 -0.9771  0.6580 -1.1046
  923MOL0     H24588   0.197   8.663  12.088  2.2439 -0.1994 -0.5375
  923MOL0     H24589   0.320   8.530  11.595  1.5760 -0.8342 -1.7573
  923MOL0     H24590   0.432   8.380  11.434  1.1554 -1.1973 -1.3748
  923MOL0     H24591   1.401   6.873  10.672 -2.7958  1.5792 -0.3695
  923MOL0     H24592   1.455   6.861  10.443 -1.8053 -0.0077  0.0450
  923MOL0     H24593   1.467   7.210  10.059  0.3199  2.0162 -1.2791
  923MOL0     H24594   1.479   7.250   9.813 -1.2987  0.1091  1.8802
  923MOL0     H24595   1.369   7.027   9.646 -2.4510  0.6652 -0.1115
  923MOL0     H24596   1.414   7.189   9.601  1.2542  0.7560  2.5882
  923MOL0     H24597   1.445   6.929   9.443  2.5010  0.6667 -1.1407
  923MOL0     H24598   1.500   7.077   9.372 -0.6242 -1.1354 -2.7671
  923MOL0     H24599   1.196   7.016   9.444  1.9588 -1.1351  2.4771
  923MOL0     H24600   1.274   7.011   9.283 -1.0271 -0.0931 -0.1404
  923MOL0     H24601   1.195   7.251   9.435 -2.6955 -1.5708 -0.5660
  923MOL0     H24602   1.164   7.194   9.268 -2.1024  3.3242  2.1682
  923MOL0     H24603   1.518   7.411   9.194  1.0795 -1.8490 -1.0280
  923MOL0     H24604   1.651   6.867   9.766 -1.6542  0.0072 -0.3999
  923MOL0     H24605   1.646   6.822  10.005 -2.2777 -0.6854 -0.7453
  924MOL0     O24606   5.987   9.044   2.298  0.3919 -0.9112  0.3035
  924MOL0     C24607   6.041   8.978   2.388  0.5046  0.4210  1.3819
  924MOL0     O24608   6.174   8.982   2.417  0.4823 -0.4687  0.6113
  924MOL0     C24609   6.268   9.010   2.321  0.2982  0.4774 -0.2146
  924MOL0     C24610   6.397   9.042   2.373  0.0709  0.1782 -0.0611
  924MOL0     C24611   6.511   9.056   2.284  1.1002 -0.6430 -0.1106
  924MOL0     C24612   6.483   9.047   2.149 -0.0848 -0.4691 -0.5262
  924MOL0     O24613   6.572   9.047   2.049 -0.7690 -0.0011 -0.0141
  924MOL0     C24614   6.708   9.086   2.068 -0.9049  0.2558 -1.0159
  924MOL0     C24615   6.789   9.008   1.962 -0.8491  1.1847 -1.1230
  924MOL0     C24616   6.773   8.855   1.959  0.1731 -0.3522  0.0179
  924MOL0     C24617   6.726   8.801   1.827 -0.2070 -0.1738  0.4631
  924MOL0     C24618   6.585   8.848   1.777  0.3126 -0.6543 -0.2242
  924MOL0     C24619   6.512   8.755   1.674  0.8648 -1.2199 -0.5104
  924MOL0     C24620   6.360   8.798   1.659 -0.5763 -0.2489  0.1969
  924MOL0     C24621   6.346   8.929   1.576 -0.7438 -0.2555  0.3746
  924MOL0     N24622   6.237   9.007   1.637  0.1536  0.5576  1.0212
  924MOL0     C24623   6.094   8.992   1.628 -0.4145 -0.0064 -0.1845
  924MOL0     C24624   6.056   9.102   1.686  1.1228  0.5226 -0.5734
  924MOL0     C24625   5.913   9.163   1.677  0.4866  0.6125  0.1080
  924MOL0     C24626   5.832   9.096   1.796  0.2583 -0.8886 -0.0526
  924MOL0     C24627   5.762   9.198   1.888 -0.8428 -0.3245  0.3140
  924MOL0     C24628   5.861   9.286   1.973  0.1889 -0.2264  0.6888
  924MOL0     O24629   5.791   9.392   2.048 -0.2096  0.8679  0.5333
  924MOL0     C24630   5.870   9.461   2.143  0.5473  1.0464  0.0486
  924MOL0     C24631   5.867   9.594   2.149 -0.0772 -0.4552  0.0134
  924MOL0     C24632   5.962   9.663   2.237 -0.4970 -0.1867  0.2749
  924MOL0     C24633   5.953   9.814   2.229 -0.6252 -0.2713  0.7631
  924MOL0     C24634   6.049   9.589   2.323  0.7390  0.2753  0.3312
  924MOL0     C24635   6.141   9.641   2.433  0.3122 -0.5688  0.1796
  924MOL0     O24636   6.175   9.552   2.528  0.4158 -0.3052  0.7401
  924MOL0     C24637   6.288   9.592   2.599  0.4176 -0.0035  0.7597
  924MOL0     C24638   6.295   9.699   2.685 -0.5357 -0.4475 -0.1427
  924MOL0     C24639   6.413   9.714   2.770 -0.4618 -0.4081  1.1224
  924MOL0     C24640   6.511   9.617   2.781  0.5493 -0.1032 -0.2645
  924MOL0     O24641   6.600   9.623   2.883 -0.0149  0.5557  0.1921
  924MOL0     C24642   6.710   9.535   2.890  0.1498 -0.0460 -0.7627
  924MOL0     C24643   6.834   9.569   2.802  0.0882  1.1277  0.2394
  924MOL0     C24644   6.889   9.714   2.818 -0.2612 -0.3440 -0.3826
  924MOL0     C24645   6.915   9.765   2.958 -0.6207 -0.8779  0.5208
  924MOL0     C24646   6.975   9.899   2.972 -0.1211 -0.1030 -0.0947
  924MOL0     C24647   7.035   9.893   3.110 -0.6544 -0.3935  0.0193
  924MOL0     C24648   7.045  10.035   3.158 -0.8802 -0.0744  0.5081
  924MOL0     C24649   7.087  10.054   3.305 -0.5294 -0.3753  1.6185
  924MOL0    Cl24650   7.247   9.991   3.326  0.5527  0.1291  0.2571
  924MOL0     C24651   6.507   9.520   2.689 -0.4838 -0.2494  1.1256
  924MOL0     C24652   6.390   9.502   2.601  0.1821 -0.5277  0.4924
  924MOL0     O24653   6.183   9.758   2.415 -0.5848  0.6538 -0.4630
  924MOL0     C24654   6.045   9.451   2.318  0.4924 -0.1063 -0.5594
  924MOL0     C24655   5.966   9.392   2.222  1.0421 -0.0327 -0.6230
  924MOL0     N24656   6.158   9.175   1.752 -0.7902 -0.0161 -0.6511
  924MOL0     N24657   6.263   9.103   1.726  0.0087 -0.2822  0.4046
  924MOL0     C24658   6.355   9.031   2.092 -0.5273 -0.1924 -0.1421
  924MOL0     C24659   6.247   9.000   2.175 -0.1316 -0.5633  0.3676
  924MOL0     C24660   5.959   8.901   2.474  1.0464  0.8471 -0.8734
  924MOL0     C24661   5.817   8.879   2.457 -0.8203 -1.2362 -0.0451
  924MOL0     C24662   5.750   8.806   2.554 -0.4445 -0.0503  0.0978
  924MOL0     C24663   5.810   8.749   2.669 -0.3417  0.5878  0.8861
  924MOL0     O24664   5.734   8.677   2.760  0.4509 -0.1257  0.2260
  924MOL0     C24665   5.739   8.708   2.899 -0.5581  0.4276  0.3718
  924MOL0     C24666   5.701   8.854   2.929  0.1235  0.1347 -0.3220
  924MOL0     C24667   5.727   8.914   3.069 -0.6341  0.6199 -0.1839
  924MOL0     C24668   5.723   8.816   3.196 -0.2110 -0.6884  0.3231
  924MOL0     C24669   5.583   8.795   3.233 -0.3944  0.1675  0.2216
  924MOL0     C24670   5.470   8.787   3.255 -0.2822  0.5378 -0.3003
  924MOL0     C24671   5.948   8.776   2.683  0.5972  0.4580 -0.2844
  924MOL0     C24672   6.010   8.852   2.590 -0.4438  0.1007 -0.1442
  924MOL0     H24673   6.414   9.062   2.478  0.5156 -0.3970 -0.0180
  924MOL0     H24674   6.603   9.085   2.333 -0.5182 -1.6165  3.8499
  924MOL0     H24675   6.736   9.192   2.064 -0.1851  0.3654  2.8358
  924MOL0     H24676   6.742   9.054   2.167  1.1202  2.0217 -1.0654
  924MOL0     H24677   6.765   9.045   1.862  4.4451  1.9067 -2.4628
  924MOL0     H24678   6.897   9.023   1.973 -0.6162 -0.0934 -1.5046
  924MOL0     H24679   6.870   8.811   1.987 -1.1280 -1.4551  3.2962
  924MOL0     H24680   6.705   8.819   2.037  2.5335 -1.3237  1.7716
  924MOL0     H24681   6.792   8.819   1.742 -1.3198 -0.6871 -0.5477
  924MOL0     H24682   6.722   8.692   1.838  1.6410 -0.2802  0.4492
  924MOL0     H24683   6.520   8.847   1.864  0.1030 -0.1180 -0.3690
  924MOL0     H24684   6.584   8.949   1.735  0.9191 -0.9966 -1.1040
  924MOL0     H24685   6.558   8.769   1.576  1.9782  1.4949  0.3146
  924MOL0     H24686   6.521   8.655   1.719  2.7247 -0.5150  0.7811
  924MOL0     H24687   6.307   8.714   1.613 -1.3018  0.8954 -1.1353
  924MOL0     H24688   6.327   8.805   1.763  1.9440 -1.1799  1.1461
  924MOL0     H24689   6.335   8.909   1.469  3.1294 -1.1310 -0.0301
  924MOL0     H24690   6.442   8.982   1.572  0.0121 -1.6185 -1.8572
  924MOL0     H24691   6.044   8.924   1.560  1.8224 -0.3258 -1.6240
  924MOL0     H24692   5.925   9.272   1.674 -1.1763  0.7929 -1.4748
  924MOL0     H24693   5.866   9.140   1.581 -0.6554  0.6751  0.6425
  924MOL0     H24694   5.901   9.041   1.861 -0.8278 -3.3784 -0.9124
  924MOL0     H24695   5.758   9.024   1.759 -1.7234  0.7684  0.4714
  924MOL0     H24696   5.700   9.137   1.954 -0.0864  2.6532  4.1190
  924MOL0     H24697   5.696   9.258   1.824  2.2798  0.1485 -2.8220
  924MOL0     H24698   5.931   9.329   1.901 -3.6100  5.7988 -0.0343
  924MOL0     H24699   5.917   9.217   2.037  1.5422  0.8041  0.6536
  924MOL0     H24700   5.794   9.638   2.081  1.9945 -2.2310 -3.6543
  924MOL0     H24701   5.893   9.867   2.304 -1.7693  1.7381 -1.4254
  924MOL0     H24702   6.059   9.839   2.227 -0.7139  0.1103  0.7185
  924MOL0     H24703   5.908   9.831   2.131  0.8868  5.1337  0.6730
  924MOL0     H24704   6.222   9.779   2.694 -0.6057 -0.5440  0.1725
  924MOL0     H24705   6.415   9.802   2.833  0.0498 -0.9733  1.9072
  924MOL0     H24706   6.731   9.528   2.997  0.3788  3.3949 -0.4918
  924MOL0     H24707   6.675   9.433   2.871 -0.0853 -0.3650  1.2043
  924MOL0     H24708   6.907   9.494   2.834 -3.1558 -1.9737  1.0218
  924MOL0     H24709   6.802   9.547   2.700  0.6805  0.1554  0.2494
  924MOL0     H24710   6.833   9.777   2.748 -2.1684 -3.4065 -1.8412
  924MOL0     H24711   6.986   9.717   2.766 -0.7499 -1.1316 -1.3709
  924MOL0     H24712   6.817   9.766   3.007 -1.1934 -1.4021 -0.5638
  924MOL0     H24713   6.984   9.695   3.005 -1.6601 -0.6670  2.4663
  924MOL0     H24714   6.889   9.965   2.958  0.7280  0.5629 -2.6089
  924MOL0     H24715   7.046   9.917   2.891 -0.0969  2.1956  0.3677
  924MOL0     H24716   6.970   9.851   3.188 -3.2620  0.7717 -1.3767
  924MOL0     H24717   7.132   9.844   3.111 -0.2497  0.3344 -1.5237
  924MOL0     H24718   6.954  10.091   3.135  0.9253  1.9035 -2.3793
  924MOL0     H24719   7.124  10.081   3.097 -1.7635 -1.7647 -2.1116
  924MOL0     H24720   7.011  10.007   3.368 -1.5832 -1.2425 -0.1996
  924MOL0     H24721   7.092  10.155   3.345  1.3727 -0.8902  2.8044
  924MOL0     H24722   6.589   9.451   2.671 -1.0127 -0.3718 -1.1167
  924MOL0     H24723   6.384   9.423   2.527 -0.3751  1.7279 -2.0134
  924MOL0     H24724   6.087   9.380   2.389 -3.3049 -2.0903 -0.0541
  924MOL0     H24725   5.967   9.284   2.209 -1.4819 -0.3360  0.9021
  924MOL0     H24726   6.345   9.028   1.984  1.9857  1.6822 -0.5077
  924MOL0     H24727   6.149   8.965   2.143  0.2061 -2.8202  1.6654
  924MOL0     H24728   5.774   8.929   2.371 -2.1168  1.8302  2.2150
  924MOL0     H24729   5.647   8.785   2.530  0.3388 -2.3332 -1.6211
  924MOL0     H24730   5.665   8.644   2.947  0.2021 -1.4239 -0.7958
  924MOL0     H24731   5.842   8.687   2.931  0.1045  0.9400 -1.3088
  924MOL0     H24732   5.594   8.863   2.909 -0.0852  0.1990  0.7260
  924MOL0     H24733   5.761   8.921   2.867  2.0495  0.5581  1.8474
  924MOL0     H24734   5.668   9.004   3.085  1.4907  1.8827  1.0118
  924MOL0     H24735   5.831   8.946   3.076 -0.2334 -0.5231 -0.6510
  924MOL0     H24736   5.773   8.872   3.275  1.2323  0.6184 -1.4214
  924MOL0     H24737   5.783   8.726   3.182  1.5336  0.6980 -1.6902
  924MOL0     H24738   5.364   8.800   3.254 -0.1592  1.6970  0.0131
  924MOL0     H24739   6.001   8.742   2.772  0.2103 -1.2908 -0.6863
  924MOL0     H24740   6.112   8.887   2.603 -1.1055  2.8590 -1.5175
  925MOL0     O24741   7.146   6.709   3.387  0.2520  0.3049 -0.5637
  925MOL0     C24742   7.113   6.822   3.357  0.7728  0.1133  0.0341
  925MOL0     O24743   6.995   6.883   3.400 -0.7050 -0.8600  0.3384
  925MOL0     C24744   6.925   6.818   3.498 -0.5525 -0.8351  0.3220
  925MOL0     C24745   6.967   6.804   3.636 -0.7607  0.3841  0.6305
  925MOL0     C24746   6.900   6.722   3.726  0.3048 -0.0019 -0.5697
  925MOL0     C24747   6.779   6.667   3.680  0.5110  0.1994  0.3668
  925MOL0     O24748   6.690   6.596   3.759  0.8565  0.3652 -0.4368
  925MOL0     C24749   6.739   6.527   3.879 -0.9666  0.3206 -0.0642
  925MOL0     C24750   6.828   6.413   3.832  0.6561 -0.1343 -0.1757
  925MOL0     C24751   6.810   6.304   3.936 -0.4686  0.6970  1.0591
  925MOL0     C24752   6.905   6.177   3.895 -0.6939 -0.1342 -0.6321
  925MOL0     C24753   6.815   6.059   3.870 -0.2414  0.7186 -0.3468
  925MOL0     C24754   6.899   5.946   3.814 -0.9517  0.1395 -0.1904
  925MOL0     C24755   6.822   5.807   3.811  0.6194 -1.0017 -0.2194
  925MOL0     C24756   6.908   5.689   3.770 -0.3733  0.0587 -0.1806
  925MOL0     N24757   6.835   5.564   3.807 -0.4175  0.7308 -0.2368
  925MOL0     C24758   6.731   5.503   3.747  0.8271 -0.7096 -0.0347
  925MOL0     C24759   6.676   5.423   3.840  0.0785  0.8211  0.2428
  925MOL0     C24760   6.581   5.315   3.830 -0.4761  0.2875  0.1533
  925MOL0     C24761   6.528   5.287   3.680  0.6695  0.0243 -0.2452
  925MOL0     C24762   6.629   5.218   3.584 -0.5340  0.1937 -0.8005
  925MOL0     C24763   6.632   5.072   3.595 -0.6776  1.0732  0.6509
  925MOL0     O24764   6.544   5.027   3.493  0.2994 -0.0301  0.2169
  925MOL0     C24765   6.433   4.949   3.528 -0.3683 -0.2352 -0.2831
  925MOL0     C24766   6.375   4.948   3.657 -0.4635  0.6629 -0.6949
  925MOL0     C24767   6.263   4.867   3.687 -0.4095 -0.1231 -0.1242
  925MOL0     C24768   6.232   4.853   3.832  0.4153 -0.2894  1.0233
  925MOL0     C24769   6.211   4.792   3.581  0.0985  0.0779  0.3095
  925MOL0     C24770   6.088   4.706   3.604 -0.1154  0.4328  0.5162
  925MOL0     O24771   6.087   4.574   3.551  0.6280  0.0894  0.5898
  925MOL0     C24772   6.213   4.507   3.580 -0.1459  0.0109 -0.0288
  925MOL0     C24773   6.247   4.460   3.707 -0.3801  0.2642 -0.5225
  925MOL0     C24774   6.366   4.383   3.728  0.0251  0.4403  0.2065
  925MOL0     C24775   6.446   4.337   3.623  0.5209 -0.8851  0.5060
  925MOL0     O24776   6.553   4.253   3.625 -0.0436 -0.6086  0.1271
  925MOL0     C24777   6.554   4.143   3.722  0.3566  0.4893 -0.8444
  925MOL0     C24778   6.646   4.035   3.657  0.4293 -0.3928 -0.5070
  925MOL0     C24779   6.599   3.991   3.521 -0.3075  0.2457  0.4110
  925MOL0     C24780   6.464   3.913   3.509 -0.0377  0.8069 -0.0221
  925MOL0     C24781   6.471   3.782   3.587  0.3566  0.4754 -0.4604
  925MOL0     C24782   6.545   3.678   3.503 -0.0109  0.2334 -0.1675
  925MOL0     C24783   6.628   3.594   3.608  0.2414  0.2531 -0.5756
  925MOL0     C24784   6.545   3.503   3.696 -0.6179  0.4557 -0.8965
  925MOL0    Cl24785   6.655   3.382   3.783  0.1761  0.1764 -0.4422
  925MOL0     C24786   6.411   4.395   3.500 -0.2732  0.0169  1.0416
  925MOL0     C24787   6.299   4.476   3.480 -0.2816 -0.0573  0.3971
  925MOL0     O24788   5.994   4.758   3.664  0.7005 -0.0373  0.2785
  925MOL0     C24789   6.267   4.795   3.455  0.8050  0.2784  0.0714
  925MOL0     C24790   6.382   4.866   3.430  0.2603  1.0423 -0.2241
  925MOL0     N24791   6.747   5.432   3.960  0.0086  0.5880 -0.1255
  925MOL0     N24792   6.845   5.521   3.939  0.5045 -0.4006 -0.5526
  925MOL0     C24793   6.734   6.682   3.545  0.0967  0.5530  0.3960
  925MOL0     C24794   6.813   6.745   3.455 -0.4036  0.1966  0.3803
  925MOL0     C24795   7.189   6.880   3.246  0.0987 -0.2077 -0.3258
  925MOL0     C24796   7.143   6.997   3.184 -0.5018 -0.0167 -0.1765
  925MOL0     C24797   7.221   7.053   3.080  0.0034 -0.4974  0.6847
  925MOL0     C24798   7.335   6.997   3.032 -0.2537 -0.3754 -0.2665
  925MOL0     O24799   7.415   7.045   2.932  0.4924 -0.1651  0.9231
  925MOL0     C24800   7.355   7.049   2.806  0.3906  0.1826  0.1624
  925MOL0     C24801   7.386   7.173   2.727  0.2232  0.1346 -0.1887
  925MOL0     C24802   7.532   7.194   2.684 -0.6265  0.3477  0.9636
  925MOL0     C24803   7.600   7.085   2.607 -0.2244  0.6109  0.4444
  925MOL0     C24804   7.541   7.077   2.476 -0.3747  0.0677  0.2279
  925MOL0     C24805   7.506   7.078   2.361  0.1345 -1.0881 -0.2575
  925MOL0     C24806   7.382   6.884   3.095 -0.2125  0.2844 -0.1068
  925MOL0     C24807   7.307   6.819   3.197 -1.2177 -0.8439  0.2712
  925MOL0     H24808   7.057   6.854   3.670 -0.7575  0.0597  1.1139
  925MOL0     H24809   6.935   6.716   3.828  0.1642  0.6137 -0.4788
  925MOL0     H24810   6.804   6.585   3.944  2.6679 -3.8198  0.4874
  925MOL0     H24811   6.651   6.494   3.936  0.3360 -1.2441  1.1139
  925MOL0     H24812   6.793   6.380   3.734  2.1293  1.2248 -1.2165
  925MOL0     H24813   6.929   6.456   3.836  0.8076 -0.5593  0.8765
  925MOL0     H24814   6.853   6.331   4.033 -1.5871 -2.8382  2.7278
  925MOL0     H24815   6.708   6.269   3.954 -0.3072  0.3075  1.2350
  925MOL0     H24816   6.960   6.198   3.803  1.2770  0.7432  0.6907
  925MOL0     H24817   6.979   6.156   3.972 -0.1486 -0.3698 -1.2182
  925MOL0     H24818   6.781   6.031   3.971  0.4368 -2.2358 -0.8295
  925MOL0     H24819   6.740   6.077   3.793  0.8147 -1.0935 -1.8830
  925MOL0     H24820   6.918   5.968   3.708  2.7866  0.1259  0.3603
  925MOL0     H24821   6.994   5.928   3.863 -0.4813  0.4523 -0.9682
  925MOL0     H24822   6.783   5.789   3.912 -2.9883 -2.9141 -1.7666
  925MOL0     H24823   6.741   5.799   3.738 -0.1168  2.5942  0.0021
  925MOL0     H24824   7.004   5.697   3.820  0.6410  0.3456 -2.0764
  925MOL0     H24825   6.943   5.687   3.666  2.9484  2.6333  0.7166
  925MOL0     H24826   6.710   5.503   3.641 -0.5174  0.9429  0.1838
  925MOL0     H24827   6.633   5.226   3.865 -0.0971  0.6068  0.4238
  925MOL0     H24828   6.495   5.336   3.893  0.5929  2.1880  1.0904
  925MOL0     H24829   6.498   5.378   3.627 -1.1904 -0.2510  0.2672
  925MOL0     H24830   6.440   5.222   3.690  0.3528 -0.0593 -2.7844
  925MOL0     H24831   6.729   5.259   3.599 -2.2798  4.5252  0.7531
  925MOL0     H24832   6.600   5.253   3.484 -2.2023  0.1482 -0.3599
  925MOL0     H24833   6.597   5.038   3.693  1.0016  0.3381  1.0248
  925MOL0     H24834   6.735   5.037   3.583 -0.1378  1.8713  2.4983
  925MOL0     H24835   6.406   5.005   3.744 -1.2215  3.0045 -1.8900
  925MOL0     H24836   6.227   4.747   3.856  4.0717 -0.2315  2.5858
  925MOL0     H24837   6.314   4.897   3.889  0.1666  2.4929 -0.5596
  925MOL0     H24838   6.146   4.918   3.856  0.6907  0.9027 -0.9626
  925MOL0     H24839   6.185   4.484   3.792  0.5461  2.1886 -0.3421
  925MOL0     H24840   6.385   4.357   3.832 -2.8270  1.9968  1.2391
  925MOL0     H24841   6.594   4.185   3.815  1.1217  1.0674 -1.4301
  925MOL0     H24842   6.463   4.086   3.742  0.4868  1.2728  2.6889
  925MOL0     H24843   6.746   4.076   3.641  0.0266 -0.2346 -2.9776
  925MOL0     H24844   6.647   3.942   3.715 -2.6589 -0.1189  0.1647
  925MOL0     H24845   6.677   3.924   3.485  0.8817  2.5522 -1.6171
  925MOL0     H24846   6.610   4.074   3.450  3.5230 -2.3858 -2.4233
  925MOL0     H24847   6.378   3.974   3.541 -0.4987 -0.6683  1.6855
  925MOL0     H24848   6.440   3.892   3.404  3.0953 -0.8712 -0.5152
  925MOL0     H24849   6.365   3.755   3.597 -1.0936  5.1904 -0.6219
  925MOL0     H24850   6.508   3.784   3.690 -0.4798 -1.3977 -0.0820
  925MOL0     H24851   6.486   3.626   3.427 -1.4704  0.3117  0.8768
  925MOL0     H24852   6.623   3.728   3.445  0.6787 -1.4343 -0.7281
  925MOL0     H24853   6.686   3.666   3.667 -0.1552  1.6070 -1.7668
  925MOL0     H24854   6.698   3.527   3.559 -0.1679  0.3818 -1.3567
  925MOL0     H24855   6.476   3.438   3.641 -2.2018 -0.1667  1.6509
  925MOL0     H24856   6.477   3.556   3.763 -1.9254 -2.7866  0.5843
  925MOL0     H24857   6.471   4.381   3.410 -1.2000 -0.3710  0.4687
  925MOL0     H24858   6.265   4.507   3.381 -1.0450 -0.9849  0.3516
  925MOL0     H24859   6.210   4.745   3.377  0.0255 -1.0525  1.4373
  925MOL0     H24860   6.424   4.866   3.330  0.2346 -2.1721 -0.3525
  925MOL0     H24861   6.646   6.628   3.513  0.3132  0.0522  0.6340
  925MOL0     H24862   6.777   6.764   3.354 -1.7616  1.3838  1.0549
  925MOL0     H24863   7.054   7.038   3.231  0.1441 -1.0015  2.0281
  925MOL0     H24864   7.193   7.148   3.035  2.6222 -0.0419 -0.1229
  925MOL0     H24865   7.379   6.962   2.745 -0.1074 -1.0711  1.6897
  925MOL0     H24866   7.247   7.060   2.822  0.1184 -0.0871 -1.2842
  925MOL0     H24867   7.362   7.255   2.795 -2.1920 -1.2639  0.7517
  925MOL0     H24868   7.340   7.174   2.628  3.6966  2.5981 -1.9980
  925MOL0     H24869   7.592   7.222   2.771 -0.3407  3.0101 -0.0035
  925MOL0     H24870   7.537   7.286   2.625  1.8623  0.4624  1.2249
  925MOL0     H24871   7.586   6.990   2.659 -3.1941  0.2060 -0.9090
  925MOL0     H24872   7.707   7.111   2.608 -0.2247  0.6038  1.0234
  925MOL0     H24873   7.471   7.072   2.260 -0.0739 -4.6245 -0.1315
  925MOL0     H24874   7.465   6.821   3.063 -0.9944 -1.6331  1.4447
  925MOL0     H24875   7.353   6.735   3.247  1.1062  0.1883  0.0082
  926MOL0     O24876  11.467  10.614   9.491 -0.5133 -0.2297 -0.9097
  926MOL0     C24877  11.582  10.596   9.539 -0.1269  0.1402  0.3505
  926MOL0     O24878  11.625  10.572   9.663  0.2600 -1.0376 -0.1916
  926MOL0     C24879  11.534  10.563   9.764  0.1056  0.1448 -0.7327
  926MOL0     C24880  11.517  10.436   9.828 -0.3134 -0.1860  0.1169
  926MOL0     C24881  11.415  10.405   9.910 -1.0674  0.1417 -0.1819
  926MOL0     C24882  11.320  10.508   9.929  0.6998  0.1814  0.7991
  926MOL0     O24883  11.214  10.469  10.012 -0.3151 -0.1728  0.2489
  926MOL0     C24884  11.108  10.560  10.030 -0.0039 -0.0179  1.0908
  926MOL0     C24885  10.998  10.515  10.118 -0.7545  1.0879 -0.5288
  926MOL0     C24886  11.067  10.472  10.245 -0.6136 -0.9979  0.6683
  926MOL0     C24887  10.964  10.400  10.334 -0.0270  0.2732  0.6968
  926MOL0     C24888  11.027  10.359  10.469 -0.1040 -0.5470  1.2622
  926MOL0     C24889  11.014  10.459  10.585  0.5609  0.1702  0.2154
  926MOL0     C24890  10.981  10.412  10.730  0.4513  0.0587 -0.4823
  926MOL0     C24891  11.010  10.518  10.836  0.2371  0.1735  0.8274
  926MOL0     N24892  10.956  10.484  10.964 -0.7948  0.0541 -0.1091
  926MOL0     C24893  11.017  10.421  11.068  1.4250  0.1534 -0.0550
  926MOL0     C24894  10.932  10.450  11.169 -0.3486  1.1712  1.0611
  926MOL0     C24895  10.936  10.414  11.313  1.0855  0.8687 -0.3106
  926MOL0     C24896  10.903  10.267  11.334 -0.8910  0.1087 -0.2796
  926MOL0     C24897  10.767  10.216  11.273 -0.0193 -0.7237 -0.8931
  926MOL0     C24898  10.648  10.301  11.308  0.1592  0.4775 -0.7035
  926MOL0     O24899  10.610  10.263  11.445  0.6907  0.0046  0.1689
  926MOL0     C24900  10.540  10.149  11.451  0.2971  0.6221  0.8610
  926MOL0     C24901  10.593  10.040  11.525  0.1432 -0.7091  0.3205
  926MOL0     C24902  10.524   9.918  11.541 -1.0747 -0.6612 -0.0319
  926MOL0     C24903  10.596   9.801  11.606  0.9900 -0.1337 -0.1213
  926MOL0     C24904  10.398   9.901  11.474 -0.7118  0.1485 -0.1894
  926MOL0     C24905  10.308   9.787  11.503 -0.8657  0.2852 -0.1534
  926MOL0     O24906  10.274   9.714  11.400  0.5308 -0.6895 -0.3650
  926MOL0     C24907  10.225   9.589  11.421  0.4984 -0.3341 -0.1300
  926MOL0     C24908  10.139   9.535  11.318  1.0749  0.4788  0.4549
  926MOL0     C24909  10.079   9.407  11.339 -0.5208 -0.6586  0.6030
  926MOL0     C24910  10.112   9.333  11.446 -0.3908  0.8737  0.1435
  926MOL0     O24911  10.054   9.218  11.468  0.1206  0.1934  0.3160
  926MOL0     C24912  10.036   9.131  11.357  0.3429  0.2420 -0.1493
  926MOL0     C24913  10.021   8.983  11.408  0.1979  0.4514  0.3015
  926MOL0     C24914  10.154   8.932  11.462  1.3491 -0.6015 -0.3017
  926MOL0     C24915  10.188   8.971  11.613  0.2645  0.6377  0.5666
  926MOL0     C24916  10.284   8.865  11.668 -0.0830 -0.6187  0.1516
  926MOL0     C24917  10.299   8.900  11.820 -0.2908  0.1857  0.4189
  926MOL0     C24918  10.384   8.803  11.900 -0.1607 -0.0597  0.5508
  926MOL0     C24919  10.421   8.870  12.027 -0.0360  1.1223 -0.4836
  926MOL0    Cl24920  10.460   8.730  12.140 -0.4913  0.2492 -0.2138
  926MOL0     C24921  10.193   9.387  11.545  0.2040  0.3341  0.3062
  926MOL0     C24922  10.254   9.506  11.538 -0.0580 -0.4280 -0.1950
  926MOL0     O24923  10.289   9.773  11.622  0.5702 -0.4051 -0.2004
  926MOL0     C24924  10.350  10.007  11.400  0.0961 -0.0852 -0.0589
  926MOL0     C24925  10.413  10.127  11.394  0.0269 -0.5258  0.9436
  926MOL0     N24926  10.819  10.499  11.111  0.1338 -0.1683  0.1984
  926MOL0     N24927  10.837  10.518  10.982  0.3093 -0.2324 -0.4810
  926MOL0     C24928  11.333  10.635   9.869 -0.4649  0.2701 -0.5174
  926MOL0     C24929  11.443  10.660   9.792  0.6076  0.4969 -0.3569
  926MOL0     C24930  11.686  10.595   9.433  0.2677 -0.4103 -0.0798
  926MOL0     C24931  11.816  10.553   9.462 -0.1889 -1.3155 -0.3058
  926MOL0     C24932  11.919  10.581   9.368  0.5664 -0.6109 -0.2968
  926MOL0     C24933  11.898  10.654   9.255  0.1756  0.4768  0.0457
  926MOL0     O24934  12.009  10.690   9.179  0.5230  0.3989  0.6421
  926MOL0     C24935  12.011  10.754   9.055  1.1212  0.3083  0.4695
  926MOL0     C24936  12.092  10.659   8.966 -0.8423 -0.3765 -0.0043
  926MOL0     C24937  12.099  10.714   8.815  0.1364 -0.5882  0.3800
  926MOL0     C24938  12.177  10.848   8.813 -0.0333 -0.6142  0.6226
  926MOL0     C24939  12.161  10.904   8.680  1.0871 -0.2876  0.1976
  926MOL0     C24940  12.150  10.941   8.564  0.8107 -0.0218 -1.3739
  926MOL0     C24941  11.771  10.691   9.224  0.4439 -0.1464  0.5575
  926MOL0     C24942  11.663  10.665   9.310  0.5846 -0.4931 -0.4227
  926MOL0     H24943  11.580  10.355   9.791 -1.9241 -1.2980 -0.3223
  926MOL0     H24944  11.399  10.308   9.955  0.1062  0.6800  1.4603
  926MOL0     H24945  11.152  10.649  10.075 -0.7216  0.0279  1.7335
  926MOL0     H24946  11.063  10.594   9.936  2.6251 -1.1381 -0.6988
  926MOL0     H24947  10.917  10.588  10.124 -3.1370 -1.2698 -1.6968
  926MOL0     H24948  10.940  10.435  10.069 -1.1528  2.1467 -1.8453
  926MOL0     H24949  11.148  10.401  10.225  0.7559  0.4930  0.7710
  926MOL0     H24950  11.119  10.560  10.282  3.4790 -0.4917 -5.0406
  926MOL0     H24951  10.876  10.463  10.351  0.0134  0.5449 -0.0540
  926MOL0     H24952  10.938  10.311  10.276  0.1477  0.1595  0.7900
  926MOL0     H24953  10.976  10.270  10.506  1.1145 -2.4396 -1.3595
  926MOL0     H24954  11.133  10.332  10.463  0.6565  1.6574  2.9894
  926MOL0     H24955  11.107  10.517  10.580 -0.5153  1.9839  0.4548
  926MOL0     H24956  10.940  10.534  10.556  1.4428  1.4537  1.1472
  926MOL0     H24957  10.878  10.376  10.719 -0.3923  1.7609  1.1374
  926MOL0     H24958  11.045  10.331  10.765  0.2668  0.7464  1.5759
  926MOL0     H24959  10.974  10.620  10.821  0.8209  0.1315 -1.1017
  926MOL0     H24960  11.119  10.525  10.837  0.3373 -1.1726  0.6816
  926MOL0     H24961  11.109  10.363  11.076  0.6547 -1.4502 -1.8494
  926MOL0     H24962  11.031  10.442  11.359  0.6323  1.3079  0.3828
  926MOL0     H24963  10.858  10.477  11.358 -1.0373 -2.5944  1.3161
  926MOL0     H24964  10.900  10.254  11.443  2.7682  0.6660 -0.0046
  926MOL0     H24965  10.992  10.213  11.303 -1.2314 -0.3964 -0.3935
  926MOL0     H24966  10.746  10.114  11.305 -1.3013  0.2027  1.4510
  926MOL0     H24967  10.783  10.232  11.166  0.3655 -0.0883 -0.7473
  926MOL0     H24968  10.572  10.279  11.232 -0.4019 -1.8225  0.4205
  926MOL0     H24969  10.670  10.408  11.306  1.0238  0.4120  1.8909
  926MOL0     H24970  10.693  10.054  11.566 -0.1010 -0.5822  0.8812
  926MOL0     H24971  10.659   9.846  11.683 -0.2771  1.8171 -0.1583
  926MOL0     H24972  10.538   9.714  11.639  0.9347  0.2055  0.7106
  926MOL0     H24973  10.659   9.755  11.529  0.0527 -0.6067 -0.6219
  926MOL0     H24974  10.110   9.596  11.233  1.8360  0.7582  0.3909
  926MOL0     H24975  10.004   9.381  11.265 -0.7172  0.3252  0.4421
  926MOL0     H24976   9.944   9.172  11.314 -0.1540 -1.3710 -0.7025
  926MOL0     H24977  10.121   9.125  11.288  1.2088  0.8767  0.8332
  926MOL0     H24978   9.931   8.981  11.471  0.3660  2.7461  0.7087
  926MOL0     H24979  10.019   8.918  11.320  1.8676  0.1217  0.4678
  926MOL0     H24980  10.234   8.975  11.402  0.0943  0.2735 -1.4055
  926MOL0     H24981  10.153   8.822  11.461 -0.2861 -0.6137 -1.2859
  926MOL0     H24982  10.224   9.074  11.617 -2.3294  1.6683 -0.2516
  926MOL0     H24983  10.092   8.966  11.664 -0.3094 -2.2303 -0.5571
  926MOL0     H24984  10.385   8.877  11.628  0.1984  0.2687  1.0689
  926MOL0     H24985  10.241   8.765  11.654 -1.3101 -0.2431  1.0100
  926MOL0     H24986  10.336   9.003  11.832  2.6042 -0.9940  3.0149
  926MOL0     H24987  10.198   8.894  11.862 -0.4716  2.6309  0.5106
  926MOL0     H24988  10.475   8.774  11.846  0.1166  0.6320  0.6377
  926MOL0     H24989  10.326   8.711  11.910  1.5763 -1.4752 -1.2742
  926MOL0     H24990  10.333   8.916  12.073 -2.1178 -0.0670 -2.9507
  926MOL0     H24991  10.493   8.952  12.023 -0.9867  2.1073  1.4692
  926MOL0     H24992  10.222   9.314  11.619  1.5204 -1.3416 -1.7387
  926MOL0     H24993  10.324   9.534  11.616  0.7441  2.6457 -1.8797
  926MOL0     H24994  10.248   9.994  11.365 -0.1196  0.5215  0.3340
  926MOL0     H24995  10.361  10.208  11.344  0.5882  0.1702  1.4562
  926MOL0     H24996  11.264  10.715   9.893 -1.8495 -1.7183  2.8915
  926MOL0     H24997  11.454  10.759   9.751 -0.8965  0.7722 -0.1767
  926MOL0     H24998  11.846  10.499   9.551  0.1669 -2.9119 -1.3485
  926MOL0     H24999  12.021  10.555   9.397  0.2471 -0.6754  0.8390
  926MOL0     H25000  11.911  10.763   9.011  0.9203 -1.8913  0.3453
  926MOL0     H25001  12.064  10.847   9.077  1.2712  0.7606 -1.6029
  926MOL0     H25002  12.043  10.561   8.961 -1.4519 -0.1180  0.7011
  926MOL0     H25003  12.193  10.648   9.006 -0.2453  0.0327 -1.3481
  926MOL0     H25004  12.000  10.722   8.770  0.4396 -0.4252 -0.2828
  926MOL0     H25005  12.151  10.643   8.749  2.4052  0.3290  1.0598
  926MOL0     H25006  12.282  10.818   8.820 -0.9963 -4.9500 -0.7252
  926MOL0     H25007  12.157  10.922   8.891  2.6023  2.3884 -1.2762
  926MOL0     H25008  12.139  10.977   8.464  1.4933  3.6977 -0.3015
  926MOL0     H25009  11.760  10.750   9.133 -2.2033 -1.7942 -0.3290
  926MOL0     H25010  11.562  10.699   9.289  0.5313 -1.3887 -1.8111
  927MOL0     O25011   2.639   0.486   4.463  0.3336 -0.5613  0.4494
  927MOL0     C25012   2.714   0.410   4.515 -0.0893  0.0920 -0.6401
  927MOL0     O25013   2.729   0.272   4.497 -0.1176  0.0393 -0.4280
  927MOL0     C25014   2.681   0.210   4.385 -0.3696  0.3927 -0.1701
  927MOL0     C25015   2.770   0.139   4.295  0.1962 -0.6745  0.7658
  927MOL0     C25016   2.705   0.081   4.180 -0.4147 -0.7505  0.1887
  927MOL0     C25017   2.566   0.070   4.173 -0.1686  0.2839  0.3743
  927MOL0     O25018   2.521   0.001   4.058 -0.2659 -0.1428 -0.3248
  927MOL0     C25019   2.379  -0.035   4.043 -0.3583 -0.6074  0.1840
  927MOL0     C25020   2.360  -0.116   3.910  0.1957  0.6907  0.4119
  927MOL0     C25021   2.361  -0.028   3.793 -0.3991 -1.6226 -0.7200
  927MOL0     C25022   2.324  -0.099   3.661  1.3748 -0.2603 -0.6975
  927MOL0     C25023   2.353  -0.017   3.542 -0.2041 -0.6875 -0.3597
  927MOL0     C25024   2.333  -0.086   3.412 -0.4804 -0.8084 -0.1696
  927MOL0     C25025   2.181  -0.100   3.374 -0.1652 -0.7250  0.7755
  927MOL0     C25026   2.159  -0.158   3.231  0.0700  0.2211  0.8414
  927MOL0     N25027   2.245  -0.257   3.176  0.1314 -0.3565 -0.1838
  927MOL0     C25028   2.225  -0.391   3.181 -0.1891  0.0738  0.7139
  927MOL0     C25029   2.337  -0.445   3.115  1.0498  0.2774 -0.0069
  927MOL0     C25030   2.351  -0.589   3.073  0.2434 -0.2691  0.3402
  927MOL0     C25031   2.498  -0.607   3.078  0.0963  0.0488  0.4365
  927MOL0     C25032   2.551  -0.752   3.070  0.1457 -0.2831 -0.2150
  927MOL0     C25033   2.710  -0.749   3.069 -0.2596  0.2494  1.0597
  927MOL0     O25034   2.765  -0.885   3.092  0.0525 -0.3920 -0.1218
  927MOL0     C25035   2.898  -0.906   3.108 -0.6271 -0.4523  0.3336
  927MOL0     C25036   2.950  -1.031   3.110  0.3563  0.4211  0.6595
  927MOL0     C25037   3.090  -1.055   3.128 -0.8383  0.0250  1.3799
  927MOL0     C25038   3.133  -1.204   3.138  0.1114  0.9824  0.7820
  927MOL0     C25039   3.182  -0.953   3.145  1.6833 -0.5621  0.4474
  927MOL0     C25040   3.330  -0.962   3.151 -0.4195 -0.2388 -0.4103
  927MOL0     O25041   3.413  -0.841   3.161  0.9200 -0.0145  0.1678
  927MOL0     C25042   3.542  -0.871   3.125 -0.1604 -0.5114 -0.4794
  927MOL0     C25043   3.645  -0.843   3.214  0.4311  0.1081 -0.5930
  927MOL0     C25044   3.781  -0.864   3.191  0.0904 -0.5805  0.7927
  927MOL0     C25045   3.817  -0.907   3.065 -0.0318 -0.1433  0.9165
  927MOL0     O25046   3.941  -0.942   3.027  0.4744 -0.6780 -0.2511
  927MOL0     C25047   4.013  -1.020   3.119 -0.6958  0.0956 -0.4882
  927MOL0     C25048   3.968  -1.162   3.115  0.0799  0.3216 -0.4034
  927MOL0     C25049   4.053  -1.253   3.210  0.8909 -0.2796 -0.6774
  927MOL0     C25050   4.200  -1.295   3.163 -0.2834  0.1473  0.4523
  927MOL0     C25051   4.242  -1.432   3.221 -0.6532 -1.2049 -0.3062
  927MOL0     C25052   4.380  -1.485   3.173  0.6415  0.3962  0.1402
  927MOL0     C25053   4.488  -1.493   3.273 -0.1033  0.8223  0.2745
  927MOL0     C25054   4.632  -1.491   3.203  0.5934  0.1482  0.2083
  927MOL0    Cl25055   4.697  -1.334   3.151 -0.3983 -0.0017  0.3691
  927MOL0     C25056   3.721  -0.923   2.962  0.0851  0.7031 -1.1327
  927MOL0     C25057   3.579  -0.916   2.998 -0.3478  0.5077  1.4782
  927MOL0     O25058   3.377  -1.070   3.144  0.5080 -0.2525 -0.0440
  927MOL0     C25059   3.119  -0.825   3.142 -1.0459  0.9618 -0.1255
  927MOL0     C25060   2.988  -0.802   3.128  1.2551  0.1718  0.1276
  927MOL0     N25061   2.397  -0.335   3.062 -0.3949  0.0513 -0.3332
  927MOL0     N25062   2.357  -0.225   3.113  0.5890 -0.1541  0.6163
  927MOL0     C25063   2.486   0.135   4.269 -0.5256 -0.0661  0.3241
  927MOL0     C25064   2.545   0.204   4.372  0.6547 -1.0425  0.6189
  927MOL0     C25065   2.784   0.458   4.632 -1.0199 -0.3992 -0.5734
  927MOL0     C25066   2.711   0.537   4.717 -0.0742  0.9971  0.3316
  927MOL0     C25067   2.761   0.603   4.824  0.5354  0.2223 -0.8259
  927MOL0     C25068   2.896   0.587   4.855 -0.4582  0.1992  0.0879
  927MOL0     O25069   2.976   0.655   4.949  1.2609  0.0209 -0.3787
  927MOL0     C25070   2.910   0.751   5.040  0.2606  0.1910 -0.1804
  927MOL0     C25071   3.005   0.853   5.119 -0.7120  0.4651 -0.2042
  927MOL0     C25072   3.079   0.785   5.238 -0.3320 -0.3948 -0.2906
  927MOL0     C25073   3.187   0.665   5.204  0.7689 -0.5541  0.1324
  927MOL0     C25074   3.237   0.604   5.321  1.5666 -0.3347 -0.2382
  927MOL0     C25075   3.252   0.538   5.422  0.0794 -0.1982  0.1184
  927MOL0     C25076   2.969   0.490   4.775  0.6779 -0.2273 -0.0255
  927MOL0     C25077   2.911   0.422   4.670 -0.2547 -0.1375  0.7854
  927MOL0     H25078   2.875   0.159   4.312  0.1577 -1.2056  1.7432
  927MOL0     H25079   2.776   0.046   4.106  4.3136  5.8844  0.5945
  927MOL0     H25080   2.339  -0.105   4.118 -2.5970  0.6204  0.2360
  927MOL0     H25081   2.321   0.058   4.048 -0.1800 -0.3321 -2.0583
  927MOL0     H25082   2.444  -0.184   3.895  0.0800  0.3194  1.3422
  927MOL0     H25083   2.269  -0.177   3.919  1.6817 -1.8514 -0.8589
  927MOL0     H25084   2.290   0.055   3.799  0.4913 -0.7832 -1.3314
  927MOL0     H25085   2.465   0.005   3.779 -0.6234 -0.6209 -0.1569
  927MOL0     H25086   2.365  -0.200   3.655  0.7390 -0.5219 -0.7267
  927MOL0     H25087   2.215  -0.111   3.671  1.6725 -1.1653  4.3653
  927MOL0     H25088   2.300   0.079   3.543  4.3167  2.1191  1.8895
  927MOL0     H25089   2.459   0.009   3.542  0.3066 -2.3881 -3.1386
  927MOL0     H25090   2.387  -0.024   3.339  0.7700 -0.0895  1.3097
  927MOL0     H25091   2.374  -0.187   3.414  0.1980 -0.5684 -0.9230
  927MOL0     H25092   2.139  -0.169   3.448  0.2103 -2.4298 -0.5411
  927MOL0     H25093   2.129  -0.004   3.373  1.5175  0.2291 -0.0228
  927MOL0     H25094   2.144  -0.081   3.154 -1.4712  1.0723  1.9389
  927MOL0     H25095   2.064  -0.211   3.241  0.4417 -0.3665  1.2928
  927MOL0     H25096   2.144  -0.442   3.232 -1.9908  3.3202  1.3937
  927MOL0     H25097   2.309  -0.665   3.140 -1.4228  0.6094  0.3465
  927MOL0     H25098   2.305  -0.600   2.975 -0.2126 -0.2263  0.5448
  927MOL0     H25099   2.538  -0.573   3.174  0.0488  0.0803  0.4460
  927MOL0     H25100   2.543  -0.546   2.999  0.2778 -1.2513 -0.5025
  927MOL0     H25101   2.510  -0.800   2.981  3.7482 -1.3824 -1.4519
  927MOL0     H25102   2.527  -0.813   3.157  1.7073 -0.7767 -0.1011
  927MOL0     H25103   2.752  -0.690   3.151 -0.6947 -0.2709  1.6630
  927MOL0     H25104   2.749  -0.719   2.971 -2.5580 -0.3737 -0.1047
  927MOL0     H25105   2.881  -1.113   3.097 -1.0765  1.3668  1.9455
  927MOL0     H25106   3.182  -1.249   3.051 -3.0123  0.0083 -0.6237
  927MOL0     H25107   3.192  -1.233   3.225 -1.4786 -2.7435  0.7929
  927MOL0     H25108   3.043  -1.266   3.142  1.5618 -1.2281  0.7266
  927MOL0     H25109   3.610  -0.807   3.310  1.1964 -1.1262  0.1825
  927MOL0     H25110   3.854  -0.835   3.267  0.8913  0.4919 -0.3464
  927MOL0     H25111   4.118  -1.014   3.087 -1.1166  2.0214 -1.6463
  927MOL0     H25112   4.002  -0.979   3.220 -1.6401 -2.7397  0.6632
  927MOL0     H25113   3.861  -1.169   3.139 -0.0532 -0.7217 -1.1984
  927MOL0     H25114   3.976  -1.204   3.014 -3.6003 -0.7717 -0.4009
  927MOL0     H25115   3.984  -1.337   3.196 -0.0858  0.3407  0.1906
  927MOL0     H25116   4.049  -1.214   3.312 -0.3041  4.4353 -2.2347
  927MOL0     H25117   4.207  -1.297   3.054 -1.1314  1.1579  0.3602
  927MOL0     H25118   4.273  -1.218   3.189 -0.7415  0.9640 -0.6196
  927MOL0     H25119   4.157  -1.498   3.202  0.8455 -2.5207 -3.0375
  927MOL0     H25120   4.242  -1.415   3.329 -0.4862  0.6385 -0.5632
  927MOL0     H25121   4.360  -1.589   3.148 -0.6108  0.1687  1.9334
  927MOL0     H25122   4.406  -1.443   3.075  2.7494  1.1365  0.9561
  927MOL0     H25123   4.492  -1.581   3.337  0.3932  1.9438  1.8630
  927MOL0     H25124   4.490  -1.403   3.336  0.0472 -1.1627  3.3003
  927MOL0     H25125   4.631  -1.552   3.112  0.9869  1.4517 -0.6926
  927MOL0     H25126   4.695  -1.549   3.271  0.7846  1.0221  0.7876
  927MOL0     H25127   3.747  -0.945   2.859  1.1514  0.9801 -0.9243
  927MOL0     H25128   3.507  -0.934   2.919  0.6859  1.4895  0.2718
  927MOL0     H25129   3.191  -0.744   3.144  0.9354 -0.7072  2.0497
  927MOL0     H25130   2.958  -0.699   3.110 -1.5996 -0.9527 -2.5354
  927MOL0     H25131   2.378   0.126   4.273 -0.6438  1.5734  2.0130
  927MOL0     H25132   2.488   0.240   4.457  1.2287 -0.0771  0.6075
  927MOL0     H25133   2.613   0.570   4.685  1.2861  3.0889 -2.0476
  927MOL0     H25134   2.702   0.679   4.874  1.9010  1.1130 -0.5376
  927MOL0     H25135   2.840   0.811   4.982 -1.0149 -1.5652 -0.5309
  927MOL0     H25136   2.858   0.695   5.118  0.6753  0.7094  0.4807
  927MOL0     H25137   2.942   0.932   5.162  0.5010  1.3850 -0.0441
  927MOL0     H25138   3.070   0.905   5.048  2.1994 -2.5883 -0.0182
  927MOL0     H25139   3.005   0.745   5.307 -0.6528 -1.2926 -1.1399
  927MOL0     H25140   3.132   0.866   5.288 -0.1426 -0.3373 -0.5810
  927MOL0     H25141   3.265   0.709   5.141  0.6333 -1.6796 -0.8471
  927MOL0     H25142   3.141   0.588   5.141 -0.2608  0.1015  0.0600
  927MOL0     H25143   3.280   0.470   5.500 -2.0906  1.2412  2.2835
  927MOL0     H25144   3.074   0.475   4.800  1.4401  3.1978 -0.7140
  927MOL0     H25145   2.968   0.353   4.608  0.8979  1.6845 -0.2618
  928MOL0     O25146   8.388   2.286   7.378  0.1552 -0.2162  0.9869
  928MOL0     C25147   8.338   2.367   7.292 -0.0398 -0.0158 -0.5408
  928MOL0     O25148   8.221   2.434   7.317 -0.1667 -0.5419  0.5973
  928MOL0     C25149   8.148   2.403   7.428 -0.4412  0.7826  0.8272
  928MOL0     C25150   8.070   2.493   7.504 -0.5967 -0.6022 -0.3380
  928MOL0     C25151   7.979   2.448   7.599 -0.2465  0.1013  0.5030
  928MOL0     C25152   7.943   2.317   7.617 -0.2445  0.4808  0.9055
  928MOL0     O25153   7.836   2.279   7.693 -0.9737  0.1965 -0.4605
  928MOL0     C25154   7.762   2.166   7.646  0.5291 -0.9304 -0.4108
  928MOL0     C25155   7.613   2.189   7.684  0.6503 -0.0850 -0.2069
  928MOL0     C25156   7.597   2.149   7.831 -0.1870 -0.0191 -0.4567
  928MOL0     C25157   7.454   2.154   7.873 -0.6210 -0.1867  0.7131
  928MOL0     C25158   7.430   2.136   8.019  0.0817  0.1780  0.6103
  928MOL0     C25159   7.506   2.020   8.094 -0.0004 -0.5602 -0.5139
  928MOL0     C25160   7.439   1.971   8.222 -0.0525 -0.0857 -0.4764
  928MOL0     C25161   7.518   1.852   8.292  0.4161  0.8887  0.5109
  928MOL0     N25162   7.543   1.743   8.200  0.3232  0.5850 -0.5911
  928MOL0     C25163   7.663   1.731   8.127 -1.0527 -0.8015 -0.0857
  928MOL0     C25164   7.627   1.653   8.024  0.1101 -1.1774  0.0927
  928MOL0     C25165   7.720   1.628   7.902  0.0198 -0.2138 -0.8392
  928MOL0     C25166   7.723   1.746   7.797 -0.5024  0.2707  0.0320
  928MOL0     C25167   7.828   1.732   7.679 -0.1205 -0.4299  0.7063
  928MOL0     C25168   7.945   1.625   7.716 -0.5837 -0.5750 -0.2323
  928MOL0     O25169   8.034   1.688   7.813  0.4429  0.4186  0.0712
  928MOL0     C25170   8.151   1.623   7.827  0.2217  0.3291 -0.1218
  928MOL0     C25171   8.241   1.596   7.729 -0.0786  0.4983  0.4210
  928MOL0     C25172   8.360   1.529   7.751 -0.9370 -0.1621 -0.2432
  928MOL0     C25173   8.465   1.517   7.635  0.1413  0.1194  1.0154
  928MOL0     C25174   8.389   1.481   7.888 -1.4050 -0.5139  0.1026
  928MOL0     C25175   8.511   1.401   7.922 -0.0115  0.4541 -1.3222
  928MOL0     O25176   8.497   1.317   8.025 -0.4308 -0.1161 -0.0075
  928MOL0     C25177   8.604   1.248   8.077  0.5805 -0.3493 -0.2748
  928MOL0     C25178   8.601   1.110   8.089  0.5315 -0.5996  0.7788
  928MOL0     C25179   8.707   1.038   8.141  0.3347  0.8430 -0.3599
  928MOL0     C25180   8.830   1.104   8.176  1.0848 -0.7891 -0.0409
  928MOL0     O25181   8.948   1.046   8.227 -0.6764 -0.2387 -0.0870
  928MOL0     C25182   8.969   0.912   8.187  0.2665  0.6430 -0.0748
  928MOL0     C25183   9.113   0.861   8.168  0.0790  0.4133 -0.2522
  928MOL0     C25184   9.194   0.853   8.298  0.5518 -0.0664  0.3884
  928MOL0     C25185   9.328   0.798   8.279  0.7465  0.5437 -0.1454
  928MOL0     C25186   9.435   0.910   8.245 -0.4853  0.4913 -0.0331
  928MOL0     C25187   9.579   0.853   8.242  0.1734  0.4804  0.4443
  928MOL0     C25188   9.634   0.831   8.381 -0.6347  1.2440  0.5699
  928MOL0     C25189   9.766   0.758   8.353 -1.1652 -0.4721  0.3532
  928MOL0    Cl25190   9.721   0.593   8.318 -0.0359 -0.1488 -0.5884
  928MOL0     C25191   8.830   1.248   8.182 -1.1826  0.5687  0.1676
  928MOL0     C25192   8.718   1.318   8.126 -1.3799 -0.1071  0.1682
  928MOL0     O25193   8.616   1.411   7.861 -0.4223  0.2801  1.2480
  928MOL0     C25194   8.305   1.517   7.991  0.0223  0.3151  0.5927
  928MOL0     C25195   8.193   1.595   7.957  0.4230 -0.0745 -0.1997
  928MOL0     N25196   7.489   1.624   8.036  0.8683  0.4549 -0.6090
  928MOL0     N25197   7.443   1.660   8.147  0.1598  0.2224 -0.9761
  928MOL0     C25198   8.028   2.226   7.545  0.1910  0.2012 -0.0454
  928MOL0     C25199   8.123   2.263   7.452 -0.1795  0.4622  0.8554
  928MOL0     C25200   8.414   2.400   7.173  0.6436 -0.0177 -0.1936
  928MOL0     C25201   8.555   2.385   7.162  0.3708  0.5366  0.1969
  928MOL0     C25202   8.616   2.390   7.042  0.1261  0.0709  0.1087
  928MOL0     C25203   8.545   2.415   6.929 -0.1492  1.1044  0.5882
  928MOL0     O25204   8.609   2.423   6.812 -0.1664  0.7065 -0.2314
  928MOL0     C25205   8.602   2.299   6.740 -0.5619  0.2379  0.2492
  928MOL0     C25206   8.624   2.326   6.583  0.2183 -0.4904  0.8889
  928MOL0     C25207   8.777   2.333   6.550 -0.0023  0.4442  0.6052
  928MOL0     C25208   8.795   2.346   6.399 -1.0172 -0.5026  0.2754
  928MOL0     C25209   8.765   2.227   6.320  0.2660  0.3634  0.5624
  928MOL0     C25210   8.748   2.129   6.244 -0.6321 -0.0591 -1.0246
  928MOL0     C25211   8.409   2.440   6.931 -0.2324 -0.2726 -0.6502
  928MOL0     C25212   8.336   2.434   7.060  0.4681 -1.2008  0.3365
  928MOL0     H25213   8.074   2.595   7.467  0.5218 -0.5668 -0.1503
  928MOL0     H25214   7.914   2.527   7.635  3.6108  5.1758 -2.3556
  928MOL0     H25215   7.765   2.175   7.537 -1.3126 -1.2064 -0.5128
  928MOL0     H25216   7.795   2.075   7.697 -1.2053 -1.0157  0.6403
  928MOL0     H25217   7.585   2.294   7.670  1.7141  0.6376  2.4890
  928MOL0     H25218   7.548   2.135   7.614  0.7974 -1.0033  0.3537
  928MOL0     H25219   7.630   2.048   7.857  0.7554  0.5105  0.4944
  928MOL0     H25220   7.665   2.208   7.893  0.4589 -0.3026 -0.8810
  928MOL0     H25221   7.423   2.256   7.849  0.3975 -0.1760 -0.7660
  928MOL0     H25222   7.392   2.085   7.815 -1.8499  2.6384 -1.6559
  928MOL0     H25223   7.454   2.234   8.061  0.8909  0.5696 -0.7290
  928MOL0     H25224   7.323   2.122   8.039 -0.2143 -3.9811 -2.6464
  928MOL0     H25225   7.499   1.935   8.026  1.5271 -0.3176 -1.0151
  928MOL0     H25226   7.614   2.033   8.104  0.1898 -1.1512 -1.7004
  928MOL0     H25227   7.450   2.048   8.298  1.5378 -0.8553  0.1126
  928MOL0     H25228   7.332   1.945   8.220 -0.0352 -0.4439  1.7200
  928MOL0     H25229   7.455   1.816   8.374  0.7642 -1.9140 -0.3534
  928MOL0     H25230   7.618   1.879   8.329  0.7962  0.4968 -0.1946
  928MOL0     H25231   7.763   1.765   8.153 -0.8200 -0.7258 -1.0278
  928MOL0     H25232   7.823   1.619   7.939  0.0016 -0.0022 -0.7387
  928MOL0     H25233   7.688   1.542   7.842  0.2382  0.4261 -1.8795
  928MOL0     H25234   7.745   1.843   7.844  0.6364  0.2947 -0.5205
  928MOL0     H25235   7.625   1.756   7.750  0.1915  2.7134 -1.0600
  928MOL0     H25236   7.861   1.832   7.647 -0.1508 -1.2215 -2.0658
  928MOL0     H25237   7.781   1.691   7.589  0.5506 -2.0579  1.0672
  928MOL0     H25238   7.985   1.592   7.620 -1.5746 -3.6680  0.3008
  928MOL0     H25239   7.900   1.534   7.758 -1.5375  0.3509  0.8336
  928MOL0     H25240   8.230   1.642   7.631 -1.5540  2.6491  1.4995
  928MOL0     H25241   8.555   1.569   7.668  0.5199 -0.8848  1.6263
  928MOL0     H25242   8.475   1.408   7.627  0.2084  0.0806  1.6056
  928MOL0     H25243   8.426   1.572   7.549  0.9318 -2.3820 -1.0667
  928MOL0     H25244   8.509   1.055   8.070  0.0625 -0.1326  1.6089
  928MOL0     H25245   8.703   0.930   8.147 -0.5771  0.6834 -2.7100
  928MOL0     H25246   8.915   0.856   8.264  1.0605  0.3340  0.2697
  928MOL0     H25247   8.914   0.895   8.094 -0.6675 -1.8750  0.8521
  928MOL0     H25248   9.103   0.763   8.121  4.3477 -1.7953  2.7184
  928MOL0     H25249   9.159   0.921   8.090 -0.0361 -1.4699 -1.8373
  928MOL0     H25250   9.133   0.789   8.363 -0.9091  1.1098  0.2473
  928MOL0     H25251   9.191   0.951   8.345  0.5517 -0.6674  1.7060
  928MOL0     H25252   9.359   0.734   8.362  0.3537  2.2426  1.3532
  928MOL0     H25253   9.343   0.737   8.189  2.8624  0.8026 -0.0250
  928MOL0     H25254   9.443   0.985   8.325  1.1463  2.9078 -2.2824
  928MOL0     H25255   9.411   0.960   8.151 -0.3094  1.9246  0.6438
  928MOL0     H25256   9.580   0.759   8.186  0.0941  0.9564 -0.3677
  928MOL0     H25257   9.639   0.928   8.189 -0.5876 -0.9322 -2.6652
  928MOL0     H25258   9.570   0.776   8.451  0.9447  0.5402  1.5230
  928MOL0     H25259   9.659   0.926   8.430  1.3405  0.9270  0.2803
  928MOL0     H25260   9.833   0.763   8.439 -1.5567  0.7553  0.6113
  928MOL0     H25261   9.817   0.813   8.274 -2.0568 -0.5788 -0.3101
  928MOL0     H25262   8.917   1.303   8.216 -2.6777  1.0313  3.5598
  928MOL0     H25263   8.728   1.425   8.106 -1.6432  0.2278  1.6861
  928MOL0     H25264   8.325   1.488   8.094 -1.6776  1.8167  1.4001
  928MOL0     H25265   8.128   1.630   8.036  0.8869  1.6582 -0.5494
  928MOL0     H25266   8.015   2.124   7.579  2.4323  0.1000  0.6578
  928MOL0     H25267   8.160   2.189   7.382 -0.0031  0.6679  0.7303
  928MOL0     H25268   8.604   2.370   7.258  1.6801  1.0111 -0.3668
  928MOL0     H25269   8.724   2.384   7.048  0.1815 -0.3777 -1.1668
  928MOL0     H25270   8.694   2.250   6.773  1.2483  1.9479 -1.9136
  928MOL0     H25271   8.513   2.240   6.764  1.0699 -2.0127  1.0236
  928MOL0     H25272   8.578   2.417   6.546  1.9405 -1.5376 -4.6584
  928MOL0     H25273   8.573   2.242   6.534 -0.6420  1.4884 -1.8124
  928MOL0     H25274   8.813   2.237   6.588 -0.6828  0.4042  1.1752
  928MOL0     H25275   8.827   2.414   6.603  1.7300 -1.3320  1.8197
  928MOL0     H25276   8.896   2.377   6.371 -0.8255 -2.2435 -1.1429
  928MOL0     H25277   8.730   2.433   6.380 -0.4165  0.5450  2.6408
  928MOL0     H25278   8.738   2.045   6.177 -0.4868 -1.4631  0.6365
  928MOL0     H25279   8.350   2.454   6.841 -2.7475  1.6102  1.1258
  928MOL0     H25280   8.229   2.451   7.064  0.9325  1.9564  1.8599
  929MOL0     O25281   5.445   9.257   6.641 -0.0588  0.6254  0.4253
  929MOL0     C25282   5.446   9.246   6.764  0.2911 -0.2499  1.0595
  929MOL0     O25283   5.549   9.181   6.834 -0.2172 -0.1411 -0.2954
  929MOL0     C25284   5.660   9.136   6.766  0.2334 -0.0632  1.0914
  929MOL0     C25285   5.775   9.200   6.806 -0.7992  0.5997  0.5656
  929MOL0     C25286   5.904   9.156   6.748  0.4623  0.0905 -0.0284
  929MOL0     C25287   5.901   9.068   6.639  0.3898 -0.4291 -0.1894
  929MOL0     O25288   6.015   9.046   6.564  1.1080  0.0048  0.2701
  929MOL0     C25289   6.148   9.051   6.625 -0.1535  0.5439 -0.9688
  929MOL0     C25290   6.178   8.924   6.711 -0.2737 -0.3995 -0.1757
  929MOL0     C25291   6.145   8.788   6.650 -0.1168  0.4733  0.4382
  929MOL0     C25292   6.009   8.727   6.694 -0.6385 -0.3941  0.0483
  929MOL0     C25293   5.969   8.603   6.608 -1.0197 -0.4021 -0.2263
  929MOL0     C25294   6.037   8.470   6.659  1.2496 -0.5460  0.1828
  929MOL0     C25295   6.004   8.420   6.795 -0.2494 -0.1764  0.5696
  929MOL0     C25296   6.062   8.281   6.829 -0.4862  1.3828  0.1347
  929MOL0     N25297   6.110   8.262   6.970 -0.3935  0.1429 -0.6653
  929MOL0     C25298   6.021   8.229   7.067 -0.3759  0.3486  1.0336
  929MOL0     C25299   6.099   8.213   7.180  0.3558  0.2879  0.4993
  929MOL0     C25300   6.061   8.137   7.305 -0.1795 -0.1045 -0.1786
  929MOL0     C25301   6.084   7.992   7.286  0.6460  0.4020 -0.7590
  929MOL0     C25302   6.017   7.908   7.384 -0.3201 -0.8289 -0.1950
  929MOL0     C25303   6.031   7.758   7.345 -0.1992 -0.6599  0.5299
  929MOL0     O25304   5.956   7.744   7.225  0.1427  0.4946 -1.0125
  929MOL0     C25305   5.855   7.652   7.237 -0.8283 -0.6795  0.7900
  929MOL0     C25306   5.758   7.665   7.330 -0.5882  0.2024  0.7174
  929MOL0     C25307   5.648   7.572   7.338  0.0524  0.7587  0.5393
  929MOL0     C25308   5.556   7.589   7.450  0.1023  0.9496  0.1211
  929MOL0     C25309   5.634   7.474   7.240  0.1841  0.3751  0.0758
  929MOL0     C25310   5.520   7.374   7.222  0.0900  0.3378 -0.7668
  929MOL0     O25311   5.438   7.357   7.325 -0.1908  0.2571  0.8635
  929MOL0     C25312   5.301   7.355   7.289  0.5091 -0.1025  0.3713
  929MOL0     C25313   5.242   7.331   7.167  0.0316  0.3461  0.0632
  929MOL0     C25314   5.115   7.288   7.160  0.3783  0.7448  0.4127
  929MOL0     C25315   5.028   7.270   7.269 -0.8734  0.0664 -0.1116
  929MOL0     O25316   4.900   7.233   7.256  0.1506 -0.1651 -0.6603
  929MOL0     C25317   4.857   7.130   7.350 -0.5268  0.1410  0.3859
  929MOL0     C25318   4.734   7.050   7.302  0.0551  0.0604 -0.1818
  929MOL0     C25319   4.781   6.946   7.201  0.0573  1.4943 -0.5402
  929MOL0     C25320   4.676   6.855   7.153  0.2262  0.6683 -0.2600
  929MOL0     C25321   4.734   6.761   7.050 -0.0548  0.4660 -0.2741
  929MOL0     C25322   4.620   6.655   7.005  0.1359 -0.1306 -0.4207
  929MOL0     C25323   4.681   6.567   6.892  0.7180 -0.9979  0.2162
  929MOL0     C25324   4.597   6.438   6.886 -0.7433  1.3650  0.6881
  929MOL0    Cl25325   4.641   6.325   6.756 -0.0821  0.1510  0.1256
  929MOL0     C25326   5.081   7.318   7.391 -0.4446  0.6822 -0.1580
  929MOL0     C25327   5.216   7.349   7.401 -1.1750 -1.0652 -0.1644
  929MOL0     O25328   5.515   7.316   7.114  0.0371 -0.9959 -0.3662
  929MOL0     C25329   5.736   7.463   7.144 -0.5197  0.0931 -0.5689
  929MOL0     C25330   5.848   7.545   7.149 -0.5206  0.5250  0.3904
  929MOL0     N25331   6.232   8.253   7.155  0.6652  0.2745 -0.0556
  929MOL0     N25332   6.232   8.274   7.030 -0.1734 -0.0755  0.4697
  929MOL0     C25333   5.781   9.019   6.594 -1.2176 -0.3890 -0.2090
  929MOL0     C25334   5.663   9.049   6.652  0.8491 -0.3204 -0.8781
  929MOL0     C25335   5.340   9.301   6.842  0.6972 -0.4597  0.2251
  929MOL0     C25336   5.353   9.312   6.979 -0.7951  0.3885 -0.5079
  929MOL0     C25337   5.252   9.367   7.059  0.2212 -0.9042  0.0990
  929MOL0     C25338   5.134   9.409   7.004 -0.1604 -0.0758  0.8196
  929MOL0     O25339   5.033   9.454   7.084  0.4614 -0.1581 -0.3170
  929MOL0     C25340   4.905   9.406   7.053  0.0653 -0.2899  0.0569
  929MOL0     C25341   4.818   9.441   7.173 -0.1862  0.0215  0.5009
  929MOL0     C25342   4.788   9.599   7.195  0.2110  1.2402  0.4498
  929MOL0     C25343   4.734   9.667   7.062  0.6458 -0.4942  0.0543
  929MOL0     C25344   4.627   9.598   6.993 -0.1813  0.8703 -0.0069
  929MOL0     C25345   4.546   9.509   6.967  0.3820  0.2412 -0.2883
  929MOL0     C25346   5.113   9.387   6.869  0.0298  0.2001 -0.1040
  929MOL0     C25347   5.206   9.328   6.794  0.5727  0.9481 -0.4806
  929MOL0     H25348   5.781   9.273   6.887 -0.4633 -0.3910  1.4693
  929MOL0     H25349   5.997   9.199   6.785  0.0249  0.5495  0.5540
  929MOL0     H25350   6.222   9.064   6.545  2.6925  2.8987  1.8097
  929MOL0     H25351   6.171   9.141   6.682 -0.1105  1.3425 -2.2065
  929MOL0     H25352   6.284   8.920   6.739  0.1374 -0.4952 -1.6470
  929MOL0     H25353   6.118   8.946   6.799 -0.1100  0.9849 -0.3866
  929MOL0     H25354   6.135   8.797   6.541  1.5003  0.3894  0.2640
  929MOL0     H25355   6.222   8.713   6.671 -1.2700 -1.3461 -1.3689
  929MOL0     H25356   6.003   8.722   6.803  0.9990 -0.2381  0.1745
  929MOL0     H25357   5.938   8.802   6.658  0.6924 -0.0848 -2.1093
  929MOL0     H25358   5.861   8.591   6.618 -0.9801  0.0090  0.8381
  929MOL0     H25359   5.994   8.621   6.503  2.4916 -1.5917  0.2771
  929MOL0     H25360   6.006   8.393   6.588 -0.5950 -0.5185  0.9032
  929MOL0     H25361   6.142   8.498   6.648  0.9053  1.1464  0.9851
  929MOL0     H25362   6.065   8.485   6.858  0.2366 -0.9866  0.9609
  929MOL0     H25363   5.898   8.415   6.823 -0.3038  1.0359  0.6060
  929MOL0     H25364   6.149   8.262   6.764 -0.5618  1.1099  0.1127
  929MOL0     H25365   5.987   8.205   6.803 -0.9747  1.3272  1.6228
  929MOL0     H25366   5.915   8.208   7.059 -0.5547  2.0107 -2.9619
  929MOL0     H25367   6.126   8.169   7.387  1.6720  1.2773 -2.0668
  929MOL0     H25368   5.958   8.165   7.329 -0.0261  4.9399 -3.7975
  929MOL0     H25369   6.192   7.984   7.297  0.7329  3.7241  2.6541
  929MOL0     H25370   6.064   7.962   7.183  3.0128 -2.3988 -0.5447
  929MOL0     H25371   5.910   7.934   7.387 -0.2244 -0.4895  0.4418
  929MOL0     H25372   6.057   7.912   7.486  1.2253  0.2577 -0.8044
  929MOL0     H25373   5.990   7.697   7.426  1.3501  0.0670  1.9342
  929MOL0     H25374   6.133   7.731   7.318 -0.4859 -0.5727 -0.6997
  929MOL0     H25375   5.768   7.750   7.397 -0.2882  1.1726 -0.5177
  929MOL0     H25376   5.537   7.495   7.502  0.6001  0.0346 -1.3086
  929MOL0     H25377   5.609   7.649   7.525  0.5277  0.5423  0.1513
  929MOL0     H25378   5.459   7.631   7.422  0.2491  0.8421 -0.5576
  929MOL0     H25379   5.296   7.322   7.073 -2.3546 -0.4987 -1.3246
  929MOL0     H25380   5.072   7.256   7.065 -2.6569  1.8125  1.3206
  929MOL0     H25381   4.946   7.069   7.370  0.9947  2.8394  2.6478
  929MOL0     H25382   4.837   7.176   7.447  2.3764  1.8771  0.3092
  929MOL0     H25383   4.686   7.000   7.386  2.6158  0.0440  1.3840
  929MOL0     H25384   4.659   7.117   7.259 -0.4464 -1.1186 -1.2100
  929MOL0     H25385   4.862   6.892   7.249 -0.1640  1.5877 -0.0596
  929MOL0     H25386   4.818   6.998   7.112  1.0547 -1.4629 -1.9685
  929MOL0     H25387   4.629   6.799   7.234  1.3087 -1.9847 -1.3307
  929MOL0     H25388   4.598   6.913   7.103  0.7889  1.0341 -0.7231
  929MOL0     H25389   4.812   6.699   7.094 -0.7617 -1.3680 -1.4969
  929MOL0     H25390   4.776   6.809   6.961  1.0780 -2.1545 -1.2453
  929MOL0     H25391   4.582   6.593   7.087 -1.3461  0.9613 -0.2519
  929MOL0     H25392   4.534   6.712   6.971 -0.7952 -2.6421 -2.6582
  929MOL0     H25393   4.782   6.542   6.926  1.0275  2.2666  2.1102
  929MOL0     H25394   4.679   6.618   6.796 -2.0549 -3.6758 -1.3431
  929MOL0     H25395   4.493   6.472   6.880 -0.7977  1.2024  0.7163
  929MOL0     H25396   4.618   6.394   6.984  1.2819  0.4673 -0.1023
  929MOL0     H25397   5.006   7.324   7.469 -0.5873  0.5648 -0.2880
  929MOL0     H25398   5.264   7.373   7.495 -1.9954 -1.0157  0.2469
  929MOL0     H25399   5.733   7.375   7.079 -1.1328 -0.1506 -0.2212
  929MOL0     H25400   5.928   7.543   7.075 -0.2087  1.6833  0.6642
  929MOL0     H25401   5.780   8.955   6.506 -1.1945  0.8747 -1.1477
  929MOL0     H25402   5.573   8.999   6.617  0.9391  0.7584 -2.7327
  929MOL0     H25403   5.448   9.295   7.029 -1.4648 -2.6884 -0.0976
  929MOL0     H25404   5.276   9.377   7.164  0.0440 -2.8702  0.3549
  929MOL0     H25405   4.856   9.448   6.965 -1.0221  1.8121  1.5683
  929MOL0     H25406   4.910   9.298   7.035  0.5366 -0.1552 -0.6614
  929MOL0     H25407   4.866   9.400   7.263  1.9488 -0.1643 -0.6684
  929MOL0     H25408   4.727   9.381   7.161  1.6075 -2.8061  0.0923
  929MOL0     H25409   4.890   9.636   7.214  0.9498 -0.3387 -0.3120
  929MOL0     H25410   4.723   9.629   7.278 -0.6651  1.0929 -0.1799
  929MOL0     H25411   4.812   9.674   6.985  0.8348  1.6878  0.3900
  929MOL0     H25412   4.700   9.766   7.094  2.9622  0.0432  1.0089
  929MOL0     H25413   4.475   9.432   6.948  0.3139  0.6618 -1.8282
  929MOL0     H25414   5.022   9.416   6.816  1.4549  0.8822 -2.3236
  929MOL0     H25415   5.170   9.311   6.693  0.5645  4.4854 -1.1959
  930MOL0     O25416   0.816   8.847   8.928  0.3385  0.1013 -0.3254
  930MOL0     C25417   0.931   8.888   8.927 -0.2106  0.2706 -0.6286
  930MOL0     O25418   0.990   8.963   8.825  0.7238  0.0970  0.6399
  930MOL0     C25419   0.918   8.981   8.710  0.2091  0.1742 -1.3951
  930MOL0     C25420   0.879   8.865   8.641 -0.8845 -1.3500 -0.1054
  930MOL0     C25421   0.827   8.871   8.521 -0.3101  0.0671  0.2426
  930MOL0     C25422   0.797   8.996   8.459  1.0369 -0.2219 -0.6261
  930MOL0     O25423   0.751   9.022   8.336  0.5534  0.2510 -0.2837
  930MOL0     C25424   0.666   8.920   8.281  0.1763  0.4401  0.7771
  930MOL0     C25425   0.599   8.967   8.155  0.3263 -0.0368  0.2365
  930MOL0     C25426   0.446   8.995   8.185  0.0377 -0.0816  0.5257
  930MOL0     C25427   0.436   9.108   8.299  0.6911  0.2247  0.8655
  930MOL0     C25428   0.301   9.169   8.334  0.1163  0.9849 -0.2244
  930MOL0     C25429   0.319   9.289   8.422  0.5539 -0.7206 -0.3118
  930MOL0     C25430   0.189   9.377   8.430  0.1650 -0.2149 -0.4546
  930MOL0     C25431   0.218   9.523   8.482  0.4331 -0.2287 -0.6485
  930MOL0     N25432   0.278   9.528   8.614 -0.0218 -0.1466  0.1471
  930MOL0     C25433   0.242   9.465   8.730  0.1966 -0.1012  0.0885
  930MOL0     C25434   0.310   9.514   8.834 -0.7377 -0.1058 -0.1230
  930MOL0     C25435   0.304   9.491   8.983 -0.3659  0.1302  0.6325
  930MOL0     C25436   0.257   9.355   9.025  0.3940 -0.5566 -0.4509
  930MOL0     C25437   0.260   9.341   9.181 -0.0730 -0.2968  0.9451
  930MOL0     C25438   0.185   9.214   9.225 -0.3343 -0.3980 -0.4005
  930MOL0     O25439   0.270   9.103   9.203  0.2764  0.8491 -0.7748
  930MOL0     C25440   0.364   9.082   9.301  0.1596  0.9967  0.2134
  930MOL0     C25441   0.471   9.008   9.251 -0.0437  0.1912 -0.0481
  930MOL0     C25442   0.571   8.967   9.342  0.6287  0.9185  0.9645
  930MOL0     C25443   0.686   8.886   9.289  0.7933  0.0049 -0.8044
  930MOL0     C25444   0.559   8.996   9.481 -1.2328 -0.8232 -0.2495
  930MOL0     C25445   0.672   8.961   9.580  0.2977  0.4044 -0.6791
  930MOL0     O25446   0.622   8.910   9.702 -0.0234 -0.2484  0.4541
  930MOL0     C25447   0.714   8.878   9.796  0.2508 -0.8739  1.1384
  930MOL0     C25448   0.714   8.746   9.828 -0.7031 -0.1340 -0.1416
  930MOL0     C25449   0.762   8.707   9.950  0.1170 -0.0115  0.1545
  930MOL0     C25450   0.831   8.809  10.022  0.0440  0.3490 -0.2394
  930MOL0     O25451   0.898   8.775  10.135 -0.3506  0.6665  0.6827
  930MOL0     C25452   0.928   8.638  10.174 -0.4129  0.4361  0.1801
  930MOL0     C25453   1.055   8.646  10.266 -0.4255  0.8112  0.4802
  930MOL0     C25454   1.182   8.722  10.208 -0.4899 -0.0302  0.8550
  930MOL0     C25455   1.178   8.863  10.257  0.0351  0.2570 -0.6862
  930MOL0     C25456   1.275   8.941  10.167 -0.0782 -0.5081 -0.1928
  930MOL0     C25457   1.283   9.091  10.215 -0.3903 -0.1512  0.1672
  930MOL0     C25458   1.387   9.123  10.324  0.7798  0.0752  0.2368
  930MOL0     C25459   1.377   9.038  10.449  1.2906  0.8527 -0.2091
  930MOL0    Cl25460   1.218   9.039  10.527  0.2725  0.1976  0.0548
  930MOL0     C25461   0.826   8.949   9.990 -0.2257  0.0161  0.0065
  930MOL0     C25462   0.770   8.981   9.873  0.7690 -0.3876 -0.8843
  930MOL0     O25463   0.791   8.972   9.553  0.2351 -0.0184  1.2729
  930MOL0     C25464   0.447   9.063   9.531 -0.6894  0.6193  0.6188
  930MOL0     C25465   0.352   9.113   9.437 -0.4592 -0.3274 -0.5666
  930MOL0     N25466   0.391   9.609   8.781 -0.8828 -0.2427  0.3788
  930MOL0     N25467   0.373   9.623   8.653 -0.1127 -0.1851 -0.6283
  930MOL0     C25468   0.844   9.106   8.524  0.3244 -0.6745 -0.2385
  930MOL0     C25469   0.916   9.106   8.645 -0.4844  0.5228 -0.3982
  930MOL0     C25470   1.019   8.866   9.054 -0.2032 -0.0906  0.0019
  930MOL0     C25471   1.134   8.952   9.066  0.5798  0.7035 -0.0889
  930MOL0     C25472   1.210   8.941   9.183 -0.4485 -0.2379  0.7919
  930MOL0     C25473   1.168   8.858   9.291  0.3355 -0.0835  0.2183
  930MOL0     O25474   1.245   8.853   9.397  0.4028 -0.0619 -0.0842
  930MOL0     C25475   1.187   8.807   9.520  0.1079 -1.0168  0.2969
  930MOL0     C25476   1.265   8.832   9.642 -0.2896 -0.7622 -0.5084
  930MOL0     C25477   1.193   8.937   9.727  0.2422 -0.7683  0.7327
  930MOL0     C25478   1.158   9.076   9.668 -0.4948  0.5516  0.7530
  930MOL0     C25479   1.218   9.182   9.750  1.0333 -0.1727  0.4685
  930MOL0     C25480   1.278   9.268   9.810 -0.4756 -0.3365  0.5558
  930MOL0     C25481   1.052   8.775   9.267  0.2019 -0.7896 -0.7790
  930MOL0     C25482   0.978   8.784   9.151 -0.0209 -0.1690  0.3688
  930MOL0     H25483   0.886   8.768   8.689 -0.5721 -1.1587  0.2393
  930MOL0     H25484   0.798   8.783   8.464  0.2074  0.4626 -0.6602
  930MOL0     H25485   0.714   8.824   8.257  1.2671  1.0920  0.2765
  930MOL0     H25486   0.589   8.909   8.357  0.6543  1.7882  1.4759
  930MOL0     H25487   0.640   9.062   8.119 -2.5301  1.9634  1.8783
  930MOL0     H25488   0.615   8.892   8.077  0.2272 -0.4357  0.5926
  930MOL0     H25489   0.398   9.042   8.098 -0.9546 -3.1012 -0.7216
  930MOL0     H25490   0.390   8.908   8.220 -2.5646  2.0483  2.0981
  930MOL0     H25491   0.476   9.073   8.394  0.2912 -1.2258  0.5247
  930MOL0     H25492   0.499   9.187   8.258  1.6659  0.1708  2.2064
  930MOL0     H25493   0.236   9.198   8.250 -2.3122 -1.2473  0.7492
  930MOL0     H25494   0.248   9.092   8.391 -0.4675  0.3581 -1.5645
  930MOL0     H25495   0.346   9.243   8.518 -4.3495 -2.8790  0.3265
  930MOL0     H25496   0.408   9.346   8.393  1.7942 -1.7209  1.3472
  930MOL0     H25497   0.152   9.388   8.328 -0.5680  1.4336 -0.0426
  930MOL0     H25498   0.111   9.332   8.492 -1.2174  3.2312  0.5745
  930MOL0     H25499   0.118   9.566   8.491 -0.0499 -1.1184 -1.5560
  930MOL0     H25500   0.274   9.579   8.407 -0.0869 -2.5220 -2.8735
  930MOL0     H25501   0.158   9.398   8.745  0.4777 -0.4310  0.1990
  930MOL0     H25502   0.408   9.499   9.015 -0.6720  1.4429  1.3310
  930MOL0     H25503   0.227   9.559   9.020 -1.6799 -0.4417 -0.8988
  930MOL0     H25504   0.325   9.286   8.976  1.8300  2.7789 -3.7014
  930MOL0     H25505   0.155   9.335   8.991  0.6020  1.8594 -2.7973
  930MOL0     H25506   0.216   9.428   9.230 -1.6020 -1.5559  1.8992
  930MOL0     H25507   0.367   9.329   9.203  0.3442 -0.7222 -1.0814
  930MOL0     H25508   0.092   9.208   9.166 -0.7656  2.0717 -0.0788
  930MOL0     H25509   0.137   9.219   9.323 -1.5247  0.7197 -0.9955
  930MOL0     H25510   0.467   8.973   9.148 -1.0631 -0.0296  0.0612
  930MOL0     H25511   0.774   8.949   9.300 -0.0964  1.0865  0.4965
  930MOL0     H25512   0.696   8.785   9.330  0.9393 -0.4620 -1.9449
  930MOL0     H25513   0.667   8.875   9.182  0.3380  3.3797 -1.1725
  930MOL0     H25514   0.661   8.676   9.765 -1.0790 -0.7197  0.8030
  930MOL0     H25515   0.736   8.608   9.986 -1.1004  0.4754  0.6575
  930MOL0     H25516   0.844   8.595  10.229 -0.4365 -1.6428 -1.3403
  930MOL0     H25517   0.937   8.564  10.093  0.8472  1.5009 -0.6939
  930MOL0     H25518   1.026   8.680  10.366 -0.4212 -0.0304  0.7729
  930MOL0     H25519   1.083   8.541  10.279  1.6568  1.2516 -0.1454
  930MOL0     H25520   1.187   8.725  10.099  1.7521  2.4420  0.9074
  930MOL0     H25521   1.276   8.679  10.244  1.1207  1.3429 -1.5133
  930MOL0     H25522   1.086   8.922  10.258  0.6413  1.2457  1.6821
  930MOL0     H25523   1.203   8.857  10.363  0.2183  3.7362 -0.4304
  930MOL0     H25524   1.239   8.935  10.064  1.7287  2.1961 -1.0866
  930MOL0     H25525   1.375   8.900  10.149 -0.5357 -0.1386 -4.6564
  930MOL0     H25526   1.327   9.154  10.138 -2.3339  1.6930  0.4716
  930MOL0     H25527   1.185   9.138  10.228  0.0726  1.5726 -1.9929
  930MOL0     H25528   1.366   9.229  10.345  0.4204 -0.2309  1.4952
  930MOL0     H25529   1.487   9.114  10.282  1.1044 -0.0701  1.0186
  930MOL0     H25530   1.442   9.077  10.528 -1.2096  1.8982  1.4573
  930MOL0     H25531   1.426   8.946  10.416 -2.5471 -1.0740 -1.0846
  930MOL0     H25532   0.873   9.021  10.056  0.5753  0.2467 -0.7958
  930MOL0     H25533   0.757   9.086   9.852 -2.0792 -0.5792 -0.4864
  930MOL0     H25534   0.414   9.069   9.635 -2.7387  3.0545 -0.0652
  930MOL0     H25535   0.261   9.161   9.472 -1.7788 -3.9459  1.5404
  930MOL0     H25536   0.828   9.206   8.484  3.7988  1.0894  2.2623
  930MOL0     H25537   0.957   9.195   8.691  1.1568 -0.3992  0.0241
  930MOL0     H25538   1.163   9.013   8.981 -0.9932  3.4460  1.2090
  930MOL0     H25539   1.301   9.001   9.185 -0.3319 -0.0494 -2.8913
  930MOL0     H25540   1.092   8.858   9.534 -0.2795 -1.8917  0.9572
  930MOL0     H25541   1.162   8.701   9.516 -0.3991 -0.8624 -1.3313
  930MOL0     H25542   1.361   8.875   9.611 -0.3233  0.0759  0.5137
  930MOL0     H25543   1.272   8.739   9.699  0.3024 -1.0241 -0.9933
  930MOL0     H25544   1.246   8.939   9.823  0.5562  0.2981  0.5497
  930MOL0     H25545   1.094   8.905   9.760  0.0272 -0.2681  0.5808
  930MOL0     H25546   1.051   9.086   9.645 -0.2121 -0.3279 -1.0730
  930MOL0     H25547   1.209   9.079   9.572  0.4147 -1.8674  1.0960
  930MOL0     H25548   1.328   9.334   9.878  1.9970  0.4255 -1.8122
  930MOL0     H25549   1.026   8.693   9.333 -2.4894 -0.1260 -0.9143
  930MOL0     H25550   0.902   8.710   9.128  0.9532 -0.8004 -0.9293
  931MOL0     O25551   5.919   9.204   4.351 -0.7148  0.5929 -0.1072
  931MOL0     C25552   5.868   9.149   4.257  0.8535  0.7231 -0.2549
  931MOL0     O25553   5.832   9.009   4.251 -0.2337 -0.2569  0.4817
  931MOL0     C25554   5.900   8.928   4.343  0.1498 -0.2086  0.1037
  931MOL0     C25555   5.991   8.837   4.306  0.3597 -0.3589  0.1474
  931MOL0     C25556   6.076   8.772   4.391  0.7991 -0.5348 -0.2090
  931MOL0     C25557   6.062   8.793   4.530  1.1184 -0.1131 -0.7982
  931MOL0     O25558   6.131   8.731   4.630 -0.0275  0.7075  0.5332
  931MOL0     C25559   6.190   8.603   4.582 -0.7857 -0.2832 -0.6434
  931MOL0     C25560   6.278   8.539   4.702  0.3821  0.1337  0.8642
  931MOL0     C25561   6.209   8.527   4.836  1.3067 -0.5833  1.0342
  931MOL0     C25562   6.310   8.461   4.935 -0.0060  0.2665 -0.1426
  931MOL0     C25563   6.254   8.456   5.080  0.0836 -0.2285  0.7855
  931MOL0     C25564   6.314   8.572   5.153 -0.5921  0.4757 -0.0837
  931MOL0     C25565   6.263   8.599   5.302 -0.0119 -0.2241  0.3167
  931MOL0     C25566   6.280   8.484   5.393 -0.4352 -0.2235 -0.5683
  931MOL0     N25567   6.413   8.478   5.456 -0.5604 -0.6701  0.5290
  931MOL0     C25568   6.429   8.535   5.578 -0.8205 -0.6479 -0.0083
  931MOL0     C25569   6.549   8.496   5.618 -0.2474  0.7529 -0.4395
  931MOL0     C25570   6.630   8.546   5.734  0.6493  0.6252  0.6067
  931MOL0     C25571   6.583   8.466   5.860  0.0529 -0.1140 -0.4022
  931MOL0     C25572   6.659   8.330   5.866  0.1952  0.4436 -0.6053
  931MOL0     C25573   6.639   8.260   5.996  0.3305  0.7528  0.4190
  931MOL0     O25574   6.704   8.128   5.992 -0.7026 -0.0414  0.7448
  931MOL0     C25575   6.688   8.055   6.104  0.5116  0.1411 -0.5826
  931MOL0     C25576   6.791   8.049   6.192  0.0678 -0.2006  1.0933
  931MOL0     C25577   6.784   7.975   6.316  0.1992  0.2320  0.6155
  931MOL0     C25578   6.896   7.985   6.415 -0.7234 -0.5726  0.1286
  931MOL0     C25579   6.663   7.904   6.338 -1.1250 -0.7379  1.0010
  931MOL0     C25580   6.637   7.815   6.454  0.0062  0.9695 -0.4461
  931MOL0     O25581   6.722   7.816   6.565 -0.3172 -0.0213  0.2655
  931MOL0     C25582   6.718   7.706   6.654 -0.2039  0.0794 -1.1915
  931MOL0     C25583   6.724   7.741   6.787  0.6914 -1.1655  0.5665
  931MOL0     C25584   6.699   7.647   6.883  0.0881  0.9440  0.0016
  931MOL0     C25585   6.669   7.516   6.840  0.1978  0.4875  0.2038
  931MOL0     O25586   6.625   7.418   6.931 -0.3656 -1.3125 -0.0026
  931MOL0     C25587   6.526   7.443   7.029  0.6472 -0.9238 -0.2449
  931MOL0     C25588   6.379   7.452   6.968  0.5775 -0.1216  1.2276
  931MOL0     C25589   6.294   7.574   7.008 -0.1033 -1.5084  0.1673
  931MOL0     C25590   6.328   7.694   6.900 -0.0290  0.2905 -0.5490
  931MOL0     C25591   6.279   7.830   6.946 -0.1862 -0.1589 -0.3775
  931MOL0     C25592   6.297   7.935   6.837 -1.0393 -1.0156 -0.4891
  931MOL0     C25593   6.444   7.965   6.799 -0.1620 -0.3118  0.6164
  931MOL0     C25594   6.458   8.069   6.680  0.1653  0.4585 -0.5698
  931MOL0    Cl25595   6.399   8.225   6.737 -0.3899  0.3712 -0.2425
  931MOL0     C25596   6.688   7.474   6.710  0.9614 -0.9232 -0.0054
  931MOL0     C25597   6.714   7.571   6.615  0.4032  0.1090 -0.6701
  931MOL0     O25598   6.528   7.753   6.450 -0.1020 -0.1844  0.0200
  931MOL0     C25599   6.554   7.923   6.253 -0.3989 -0.9551  0.3306
  931MOL0     C25600   6.559   8.004   6.143 -0.3762  0.0448  0.5540
  931MOL0     N25601   6.611   8.428   5.511  0.0507 -0.3482  0.4979
  931MOL0     N25602   6.522   8.411   5.421 -0.1576 -0.7044  0.4422
  931MOL0     C25603   5.963   8.880   4.576 -0.4161  0.4961 -0.0318
  931MOL0     C25604   5.886   8.954   4.480  0.7286  0.6428  0.0242
  931MOL0     C25605   5.852   9.225   4.132 -0.6169 -0.7370  0.0664
  931MOL0     C25606   5.804   9.157   4.017  0.3799  0.3283  0.2744
  931MOL0     C25607   5.791   9.227   3.896 -0.0249  0.7762  0.4077
  931MOL0     C25608   5.828   9.360   3.894  0.1171 -0.3706  0.6389
  931MOL0     O25609   5.827   9.428   3.772 -0.7241  0.6349  1.0299
  931MOL0     C25610   5.699   9.456   3.720 -1.1619  0.8965 -0.1334
  931MOL0     C25611   5.687   9.602   3.766 -0.2377  0.1277  0.8934
  931MOL0     C25612   5.567   9.655   3.690 -0.0083  0.9086 -0.1635
  931MOL0     C25613   5.605   9.720   3.556  0.2718  0.3310  0.5502
  931MOL0     C25614   5.505   9.690   3.457 -0.0297 -0.1758 -0.3968
  931MOL0     C25615   5.437   9.669   3.360  0.0011 -0.4827 -0.3833
  931MOL0     C25616   5.868   9.430   4.005  0.0336 -0.9308  0.0799
  931MOL0     C25617   5.878   9.367   4.123 -0.2031 -0.0602 -0.5125
  931MOL0     H25618   6.014   8.817   4.202  4.7210 -0.1228  0.8773
  931MOL0     H25619   6.150   8.711   4.340 -0.5280 -1.2875 -1.3337
  931MOL0     H25620   6.109   8.531   4.568 -2.8282  1.5769  1.0020
  931MOL0     H25621   6.262   8.613   4.500  3.0651 -2.3552  2.1286
  931MOL0     H25622   6.288   8.439   4.659  0.7498  0.5279  0.0039
  931MOL0     H25623   6.381   8.575   4.706 -0.0245  1.3038  1.2660
  931MOL0     H25624   6.181   8.626   4.873  0.6171 -0.3009 -0.1706
  931MOL0     H25625   6.117   8.467   4.836  0.7855  0.1492 -0.3942
  931MOL0     H25626   6.331   8.360   4.900  0.6123  0.6896 -1.0214
  931MOL0     H25627   6.406   8.514   4.930  1.4786 -2.3553 -1.6662
  931MOL0     H25628   6.146   8.467   5.095  0.3136  5.3948  0.5604
  931MOL0     H25629   6.308   8.375   5.129  1.7866  0.6955  0.5355
  931MOL0     H25630   6.422   8.557   5.160 -0.7482 -0.2821  0.8304
  931MOL0     H25631   6.295   8.663   5.096 -3.0873  0.2559  0.2957
  931MOL0     H25632   6.319   8.685   5.337 -1.0666  0.5892  0.0563
  931MOL0     H25633   6.156   8.621   5.302 -0.2366 -1.2296  0.0703
  931MOL0     H25634   6.288   8.396   5.329  4.9589  1.9418 -3.5225
  931MOL0     H25635   6.200   8.488   5.468  2.5297  0.4992  2.8316
  931MOL0     H25636   6.356   8.598   5.627  1.0273  1.0751  0.6547
  931MOL0     H25637   6.731   8.508   5.717 -0.3491 -1.8095 -0.2662
  931MOL0     H25638   6.607   8.652   5.743 -2.6131 -0.1234  2.2847
  931MOL0     H25639   6.474   8.462   5.859  0.0411  0.2295 -1.0529
  931MOL0     H25640   6.598   8.525   5.951 -2.5267  1.8986 -1.1623
  931MOL0     H25641   6.767   8.346   5.860  0.4681 -0.1680  1.6455
  931MOL0     H25642   6.631   8.259   5.789  0.7582  0.2454 -0.6325
  931MOL0     H25643   6.531   8.242   6.006 -0.2824  2.4747 -2.1800
  931MOL0     H25644   6.667   8.318   6.084  2.9115 -0.2834  0.3556
  931MOL0     H25645   6.879   8.106   6.167  0.0524 -0.6442 -0.0228
  931MOL0     H25646   6.885   8.069   6.484 -0.9947  0.1537 -0.7827
  931MOL0     H25647   6.910   7.885   6.460  0.4613  0.0746  1.2960
  931MOL0     H25648   6.993   8.007   6.370  0.1743 -2.8457  0.7860
  931MOL0     H25649   6.736   7.847   6.806 -1.7245 -1.0411  1.7469
  931MOL0     H25650   6.693   7.659   6.990 -1.6885 -0.2555  0.0940
  931MOL0     H25651   6.518   7.349   7.086  1.1759 -1.3845 -0.9169
  931MOL0     H25652   6.555   7.524   7.096 -1.3446 -2.2722  2.4631
  931MOL0     H25653   6.381   7.430   6.861  3.6772  0.6648  0.9996
  931MOL0     H25654   6.322   7.367   7.006  0.7959 -0.1109  1.5873
  931MOL0     H25655   6.327   7.601   7.108 -1.5209 -0.7108  0.4491
  931MOL0     H25656   6.190   7.542   7.016 -1.1207  1.9739  4.0126
  931MOL0     H25657   6.437   7.704   6.891  0.2502 -1.6708  0.1244
  931MOL0     H25658   6.295   7.668   6.800  3.2276  2.4323 -2.3768
  931MOL0     H25659   6.324   7.867   7.039 -2.0689  0.7753  0.2175
  931MOL0     H25660   6.176   7.810   6.977 -0.0538 -2.4333 -1.2116
  931MOL0     H25661   6.261   7.893   6.742  1.7164  0.5794 -2.3725
  931MOL0     H25662   6.237   8.024   6.860 -0.1904 -0.6738  0.4325
  931MOL0     H25663   6.501   7.875   6.776  2.9032  1.8433 -0.9400
  931MOL0     H25664   6.498   8.014   6.881  1.3831  0.8217 -0.9926
  931MOL0     H25665   6.402   8.027   6.596 -2.5258  0.3361  1.1732
  931MOL0     H25666   6.562   8.082   6.648 -0.1358  2.0721 -0.9931
  931MOL0     H25667   6.677   7.370   6.683  1.7298 -2.1655  3.9341
  931MOL0     H25668   6.723   7.531   6.515  0.5137 -2.1969  0.2014
  931MOL0     H25669   6.456   7.878   6.267 -1.3808  1.0202  0.1100
  931MOL0     H25670   6.474   8.013   6.077  0.1340  0.8101 -0.0158
  931MOL0     H25671   5.959   8.899   4.683 -1.8759 -0.1764  0.0553
  931MOL0     H25672   5.817   9.030   4.515 -0.3400 -1.7614  3.6287
  931MOL0     H25673   5.774   9.053   4.011 -4.8897  1.5861  0.5740
  931MOL0     H25674   5.757   9.189   3.801 -0.6242  0.2221  0.8426
  931MOL0     H25675   5.705   9.444   3.612 -1.0016  1.9084 -0.2487
  931MOL0     H25676   5.624   9.390   3.765  0.2828  0.2228  1.4077
  931MOL0     H25677   5.779   9.660   3.749  0.0106 -0.1938  1.1160
  931MOL0     H25678   5.661   9.610   3.872 -2.1798  1.9237  0.3431
  931MOL0     H25679   5.513   9.725   3.754  1.4069 -0.6261  2.9448
  931MOL0     H25680   5.506   9.570   3.660 -0.3909  0.5132  1.6411
  931MOL0     H25681   5.699   9.679   3.517  0.2626  0.2983  0.5629
  931MOL0     H25682   5.607   9.830   3.559 -2.8660  0.4941 -0.0413
  931MOL0     H25683   5.378   9.670   3.271 -0.1413  2.0987 -0.3158
  931MOL0     H25684   5.906   9.530   3.990  0.7600 -1.6107 -3.7034
  931MOL0     H25685   5.914   9.420   4.210 -0.5374 -0.8691  0.1369
  932MOL0     O25686   5.821   6.657  10.396 -0.3027 -0.1504 -0.2379
  932MOL0     C25687   5.788   6.725  10.496 -0.6409  0.1900  0.4075
  932MOL0     O25688   5.720   6.687  10.599  0.5410  0.3760 -0.1026
  932MOL0     C25689   5.690   6.554  10.616  0.2119  0.6399 -0.1176
  932MOL0     C25690   5.648   6.457  10.520 -0.1811  0.1099  0.6312
  932MOL0     C25691   5.621   6.322  10.563  0.8971 -0.7570  0.7169
  932MOL0     C25692   5.644   6.280  10.695 -0.0870  0.0537  0.2820
  932MOL0     O25693   5.635   6.147  10.729 -0.2078 -0.1136  0.2683
  932MOL0     C25694   5.670   6.107  10.866 -0.0544 -0.3973 -0.1241
  932MOL0     C25695   5.681   5.952  10.888 -0.3766  0.0329  1.2001
  932MOL0     C25696   5.554   5.871  10.826 -0.1377  0.2058 -0.4462
  932MOL0     C25697   5.570   5.724  10.841  0.0537 -0.0315 -0.4677
  932MOL0     C25698   5.448   5.633  10.800  0.3215  0.0034 -0.0899
  932MOL0     C25699   5.389   5.657  10.672 -0.6684 -0.0542  1.1097
  932MOL0     C25700   5.332   5.535  10.608 -0.2766  0.3268  0.5787
  932MOL0     C25701   5.292   5.567  10.469 -0.6927  1.1253  1.2474
  932MOL0     N25702   5.179   5.665  10.464 -0.0495  0.3077  0.5625
  932MOL0     C25703   5.200   5.790  10.416  0.6650  0.0283  1.0475
  932MOL0     C25704   5.086   5.855  10.457 -0.9415  0.2006 -0.6627
  932MOL0     C25705   5.063   6.003  10.441  0.3862 -0.4357  1.1993
  932MOL0     C25706   5.119   6.093  10.551  0.1635 -0.3950 -0.5047
  932MOL0     C25707   5.056   6.234  10.536  0.2901 -0.3495 -0.1534
  932MOL0     C25708   5.106   6.312  10.416  0.2117  0.2858 -1.0572
  932MOL0     O25709   5.052   6.442  10.405 -0.1875  0.6418 -0.2566
  932MOL0     C25710   5.106   6.540  10.487  0.2516 -0.5800  0.1651
  932MOL0     C25711   5.223   6.533  10.574  0.7403  0.8435  1.5949
  932MOL0     C25712   5.268   6.636  10.647 -0.1951  0.3549 -0.5236
  932MOL0     C25713   5.384   6.605  10.727  0.1769  0.6429 -0.1689
  932MOL0     C25714   5.210   6.765  10.643  0.0692  0.7789  0.4288
  932MOL0     C25715   5.247   6.888  10.706 -0.5643 -0.3731 -0.7818
  932MOL0     O25716   5.218   6.997  10.635 -0.3840 -0.5704 -0.0413
  932MOL0     C25717   5.276   7.119  10.665  0.7349 -0.1901 -0.3264
  932MOL0     C25718   5.416   7.125  10.635 -0.5534 -0.1661 -0.2326
  932MOL0     C25719   5.485   7.247  10.627  0.1314  0.1055 -1.2501
  932MOL0     C25720   5.423   7.365  10.660 -0.2568 -0.0371 -0.2349
  932MOL0     O25721   5.491   7.481  10.654 -0.1671  0.5620  0.3576
  932MOL0     C25722   5.616   7.469  10.725 -0.1204 -0.5897  0.6208
  932MOL0     C25723   5.678   7.608  10.751 -0.1742 -1.1064  0.1575
  932MOL0     C25724   5.719   7.676  10.620 -0.3648 -0.5378  0.2744
  932MOL0     C25725   5.759   7.815  10.626 -0.3996  0.1312  1.0636
  932MOL0     C25726   5.774   7.877  10.488  0.9722  0.0518 -0.6760
  932MOL0     C25727   5.799   8.029  10.503  0.4782  0.5802 -0.6259
  932MOL0     C25728   5.946   8.071  10.513 -0.0646 -0.5973  0.9783
  932MOL0     C25729   5.952   8.220  10.526 -0.0791 -0.9079  0.2722
  932MOL0    Cl25730   6.106   8.300  10.570 -0.0908 -0.7569 -0.2377
  932MOL0     C25731   5.292   7.363  10.684  0.6713  1.0343  0.3378
  932MOL0     C25732   5.215   7.242  10.684 -0.3953  0.7855  0.2118
  932MOL0     O25733   5.307   6.883  10.811  0.2150 -1.0308 -0.0768
  932MOL0     C25734   5.094   6.773  10.569  0.1796  0.4438  0.1357
  932MOL0     C25735   5.044   6.667  10.488 -0.2796  1.0354 -0.1963
  932MOL0     N25736   4.998   5.769  10.526 -0.6543  0.3277  0.1585
  932MOL0     N25737   5.066   5.649  10.542 -0.2652 -0.7661 -0.5842
  932MOL0     C25738   5.671   6.382  10.788 -0.1808  0.1598 -0.3810
  932MOL0     C25739   5.681   6.517  10.752 -0.4750  0.6996  0.5032
  932MOL0     C25740   5.825   6.871  10.509  0.6513 -0.0116  0.9353
  932MOL0     C25741   5.904   6.957  10.430  0.1312 -0.0808 -0.1344
  932MOL0     C25742   5.920   7.097  10.454 -0.4847  0.7005 -0.2504
  932MOL0     C25743   5.878   7.149  10.572 -1.0447  0.2945 -0.7393
  932MOL0     O25744   5.889   7.276  10.615  0.0175 -0.7696 -0.2961
  932MOL0     C25745   6.015   7.339  10.631  0.1601 -0.0471 -0.1080
  932MOL0     C25746   6.080   7.391  10.505 -0.7873 -0.7451  0.0309
  932MOL0     C25747   6.132   7.537  10.526  0.5392 -0.6041 -0.0663
  932MOL0     C25748   6.236   7.537  10.643 -0.6443  0.2173 -0.0906
  932MOL0     C25749   6.189   7.606  10.760  0.3215 -0.0296  0.3408
  932MOL0     C25750   6.152   7.646  10.872 -0.4814 -0.2734  0.4534
  932MOL0     C25751   5.814   7.067  10.657 -0.3531  0.0631 -1.2254
  932MOL0     C25752   5.771   6.940  10.616  0.7464  0.3334  0.3365
  932MOL0     H25753   5.637   6.475  10.414 -3.3879 -1.6747  0.5465
  932MOL0     H25754   5.602   6.259  10.478 -0.7388  1.2464 -0.5061
  932MOL0     H25755   5.760   6.166  10.885 -1.5906  1.4099  2.1252
  932MOL0     H25756   5.593   6.141  10.936  1.9919  1.7169  1.2474
  932MOL0     H25757   5.771   5.915  10.839 -2.4889 -3.0884 -0.6874
  932MOL0     H25758   5.692   5.943  10.996  1.7187 -0.8635  0.9621
  932MOL0     H25759   5.469   5.903  10.887 -0.9713 -2.4944 -0.0766
  932MOL0     H25760   5.529   5.895  10.723  1.1252  0.2081 -0.7708
  932MOL0     H25761   5.655   5.694  10.779  0.1484 -3.7377  1.1815
  932MOL0     H25762   5.587   5.706  10.948  0.7429  1.6396 -0.2688
  932MOL0     H25763   5.472   5.526  10.806 -1.6882 -0.6917 -2.6673
  932MOL0     H25764   5.365   5.643  10.870  0.9392 -3.3490  1.2961
  932MOL0     H25765   5.307   5.727  10.691 -1.7628 -0.7823 -0.6671
  932MOL0     H25766   5.461   5.708  10.607 -1.1025 -2.0621 -1.0985
  932MOL0     H25767   5.410   5.459  10.600  0.0512  0.7393 -0.1704
  932MOL0     H25768   5.248   5.492  10.664 -0.3806  0.5545  0.6005
  932MOL0     H25769   5.260   5.475  10.418  2.1770  1.8654 -2.3299
  932MOL0     H25770   5.379   5.596  10.409 -0.9749 -0.2902  0.0884
  932MOL0     H25771   5.286   5.830  10.364  1.2133 -1.4999  0.7480
  932MOL0     H25772   5.105   6.015  10.341  1.2065 -1.4012  1.4158
  932MOL0     H25773   4.954   6.008  10.429  0.5921  0.7526 -0.4871
  932MOL0     H25774   5.228   6.101  10.554  0.4532 -3.4126  0.5268
  932MOL0     H25775   5.088   6.055  10.649  1.1395  0.8842  0.3352
  932MOL0     H25776   5.091   6.281  10.628  4.6167  2.4140 -2.8528
  932MOL0     H25777   4.947   6.225  10.535  0.3603 -1.8023  1.2930
  932MOL0     H25778   5.093   6.256  10.322 -0.7040 -2.7493  0.7496
  932MOL0     H25779   5.214   6.306  10.429 -0.0800  0.1792  2.0469
  932MOL0     H25780   5.269   6.435  10.582 -1.6943 -0.2870  2.8161
  932MOL0     H25781   5.480   6.627  10.679 -0.4350 -1.1959 -2.3889
  932MOL0     H25782   5.381   6.652  10.826 -1.7023 -1.5067  0.8738
  932MOL0     H25783   5.386   6.499  10.751  0.4051  0.4310 -1.0990
  932MOL0     H25784   5.469   7.043  10.587  1.4578  0.9169  0.0540
  932MOL0     H25785   5.588   7.234  10.597  1.1416 -0.5860  2.0574
  932MOL0     H25786   5.610   7.410  10.816  0.1321  0.4987  1.3696
  932MOL0     H25787   5.680   7.418  10.653  2.1034  0.9761  1.3849
  932MOL0     H25788   5.592   7.663  10.789 -2.0115 -2.6660 -1.5681
  932MOL0     H25789   5.755   7.600  10.829  0.5550 -0.0910 -0.4312
  932MOL0     H25790   5.635   7.678  10.550  0.9862 -1.3567 -1.4586
  932MOL0     H25791   5.793   7.607  10.578 -2.1773 -3.1291  1.0609
  932MOL0     H25792   5.673   7.853  10.682 -0.9521  0.5784 -0.0547
  932MOL0     H25793   5.853   7.833  10.679 -0.2304  1.8688  0.2497
  932MOL0     H25794   5.680   7.873  10.432  0.7143  0.1678 -0.2537
  932MOL0     H25795   5.847   7.818  10.431  0.4317 -0.3203 -0.9870
  932MOL0     H25796   5.754   8.082  10.418  0.9149  2.3358  0.1933
  932MOL0     H25797   5.743   8.061  10.591 -0.8298  2.1149 -1.9317
  932MOL0     H25798   6.003   8.033  10.427  0.4798  0.7097  0.7472
  932MOL0     H25799   5.994   8.025  10.599 -1.4019 -0.1670  1.9794
  932MOL0     H25800   5.873   8.247  10.597  0.5654 -0.4946  0.8445
  932MOL0     H25801   5.914   8.265  10.434 -1.8587  0.8545  1.7686
  932MOL0     H25802   5.259   7.466  10.694 -1.8629  0.2515  0.5163
  932MOL0     H25803   5.109   7.255  10.704 -1.0009 -2.2229 -0.5417
  932MOL0     H25804   5.027   6.857  10.584  0.1747  0.4215  0.2424
  932MOL0     H25805   4.944   6.683  10.451 -0.8747  3.4220  2.1343
  932MOL0     H25806   5.682   6.352  10.891  1.1310 -2.3009 -1.1650
  932MOL0     H25807   5.713   6.587  10.828  0.3307  0.1282  0.7074
  932MOL0     H25808   5.947   6.924  10.336  0.9627 -0.8693  0.5085
  932MOL0     H25809   5.982   7.161  10.392  0.2600 -0.6390 -0.9044
  932MOL0     H25810   5.991   7.420  10.701 -1.0935 -0.8564  0.4434
  932MOL0     H25811   6.087   7.273  10.679 -0.1302  0.1523  0.6186
  932MOL0     H25812   6.012   7.410  10.422  0.5008  3.3635 -0.3395
  932MOL0     H25813   6.156   7.324  10.465 -0.0522  0.0581  0.0439
  932MOL0     H25814   6.054   7.612  10.539  2.2323  1.1987  0.2071
  932MOL0     H25815   6.185   7.569  10.436  1.2531 -2.3791 -0.3152
  932MOL0     H25816   6.327   7.586  10.610  0.5941 -2.1104 -0.3910
  932MOL0     H25817   6.268   7.436  10.670 -3.6227 -0.8679 -0.2214
  932MOL0     H25818   6.131   7.702  10.961  0.0459 -0.9915  1.0378
  932MOL0     H25819   5.782   7.105  10.754  0.1012 -1.7245 -0.3438
  932MOL0     H25820   5.700   6.895  10.684  2.7499 -0.6143  1.9220
  933MOL0     O25821   6.011   3.825   6.993 -0.3225 -0.1305  0.0013
  933MOL0     C25822   5.917   3.794   7.061 -0.3443 -0.0383  0.7978
  933MOL0     O25823   5.919   3.748   7.192  0.0074  0.5023  0.7256
  933MOL0     C25824   6.022   3.675   7.238 -0.0456  0.2505 -0.4811
  933MOL0     C25825   6.032   3.652   7.377 -0.8050  0.8674  0.5650
  933MOL0     C25826   6.142   3.580   7.428 -0.3072 -0.1429 -0.9062
  933MOL0     C25827   6.240   3.531   7.341  0.5677  0.7210 -0.1691
  933MOL0     O25828   6.355   3.461   7.369 -0.5697 -0.8700  0.0386
  933MOL0     C25829   6.448   3.542   7.449 -0.4123  0.0642 -0.8169
  933MOL0     C25830   6.586   3.516   7.422 -0.3987  0.6412  0.1025
  933MOL0     C25831   6.672   3.555   7.548 -0.8498  0.4094 -0.8957
  933MOL0     C25832   6.819   3.521   7.520 -0.4826  0.0218  0.2590
  933MOL0     C25833   6.911   3.602   7.616 -0.2083 -0.6106  0.6085
  933MOL0     C25834   6.923   3.543   7.756 -0.9261 -0.8186  0.8223
  933MOL0     C25835   6.815   3.568   7.863  1.3304 -0.1682  0.0572
  933MOL0     C25836   6.856   3.546   7.999  0.2576  0.2885 -1.2100
  933MOL0     N25837   6.758   3.598   8.094  0.4171 -0.5119  0.4614
  933MOL0     C25838   6.754   3.731   8.127 -0.1667  0.2230  0.2898
  933MOL0     C25839   6.646   3.746   8.210  0.6741  0.7592  0.1434
  933MOL0     C25840   6.614   3.873   8.281  0.7294 -0.2308  0.1459
  933MOL0     C25841   6.476   3.856   8.357 -0.1493  1.3875  0.9438
  933MOL0     C25842   6.429   3.990   8.422  0.1870  0.6571 -0.2323
  933MOL0     C25843   6.404   3.982   8.574 -0.0606  0.6071 -0.0657
  933MOL0     O25844   6.303   3.877   8.598  0.0033  0.4746  0.0734
  933MOL0     C25845   6.205   3.905   8.693 -0.8503  0.1043  0.4967
  933MOL0     C25846   6.075   3.899   8.652  0.2599  0.8742 -0.0062
  933MOL0     C25847   5.966   3.937   8.740 -1.0130  1.0238  0.1903
  933MOL0     C25848   5.824   3.939   8.673 -0.6659 -0.2416 -0.5644
  933MOL0     C25849   5.998   3.992   8.864 -0.0942  0.5067  0.8882
  933MOL0     C25850   5.905   4.057   8.957 -0.2225 -0.0548 -0.1794
  933MOL0     O25851   5.951   4.169   9.022 -0.1526 -0.6714  0.3064
  933MOL0     C25852   5.874   4.219   9.121 -0.3595  0.5238  0.5573
  933MOL0     C25853   5.920   4.211   9.248  0.2775  0.7050  0.3544
  933MOL0     C25854   5.850   4.254   9.359  0.1234  1.1902 -0.7596
  933MOL0     C25855   5.728   4.309   9.346  0.5602 -0.2379  0.8812
  933MOL0     O25856   5.636   4.349   9.440  0.2441  0.6534  1.0750
  933MOL0     C25857   5.585   4.242   9.521  0.7249 -0.0122  0.1620
  933MOL0     C25858   5.681   4.197   9.631 -0.4822 -0.1672  1.3183
  933MOL0     C25859   5.692   4.314   9.734 -0.0241 -0.1576 -0.4482
  933MOL0     C25860   5.764   4.264   9.865 -0.0458 -0.3672  0.3101
  933MOL0     C25861   5.866   4.365   9.922 -1.1848  0.8989 -0.0391
  933MOL0     C25862   5.807   4.472  10.001  0.0410 -0.3835  0.4760
  933MOL0     C25863   5.879   4.612   9.982  0.2289 -0.1893  0.1407
  933MOL0     C25864   5.872   4.691  10.118 -0.3254 -0.1434 -0.0470
  933MOL0    Cl25865   5.984   4.828  10.120  0.3622  0.5226 -0.5119
  933MOL0     C25866   5.672   4.303   9.221 -0.5462  0.1639  0.3843
  933MOL0     C25867   5.742   4.256   9.100  0.2632 -0.1395 -0.4326
  933MOL0     O25868   5.791   4.010   8.972  0.8364  0.3826  0.0649
  933MOL0     C25869   6.131   3.998   8.897 -0.2295  0.4451 -0.2404
  933MOL0     C25870   6.234   3.959   8.811  1.0594 -0.6849  0.6205
  933MOL0     N25871   6.580   3.622   8.218 -0.3089  0.5921 -0.1299
  933MOL0     N25872   6.642   3.540   8.140  0.3629  0.2862 -0.4416
  933MOL0     C25873   6.221   3.547   7.205 -0.5264  0.1157  0.8528
  933MOL0     C25874   6.115   3.617   7.153 -0.5742  0.7030  0.1461
  933MOL0     C25875   5.783   3.833   7.007  0.1962 -0.4926 -0.2492
  933MOL0     C25876   5.767   3.865   6.871  0.9805 -0.2971  0.2733
  933MOL0     C25877   5.641   3.908   6.820 -0.1842 -0.3455 -0.0719
  933MOL0     C25878   5.536   3.915   6.913 -0.6996 -0.3904  1.3562
  933MOL0     O25879   5.407   3.960   6.884  0.4578  0.0350  0.0075
  933MOL0     C25880   5.367   4.012   6.758 -0.9923 -0.3610 -0.0528
  933MOL0     C25881   5.313   3.904   6.669 -0.0732  0.3006  0.5871
  933MOL0     C25882   5.252   3.962   6.540 -0.5138 -0.6591 -0.3757
  933MOL0     C25883   5.155   4.075   6.561  1.0139 -0.6388 -0.4663
  933MOL0     C25884   5.088   4.109   6.435  0.1132 -0.3036  0.7484
  933MOL0     C25885   5.040   4.128   6.326 -0.2977 -0.4192  0.5218
  933MOL0     C25886   5.555   3.887   7.045  0.2917  0.8443 -0.1783
  933MOL0     C25887   5.674   3.835   7.098 -0.3980 -0.2360 -0.2663
  933MOL0     H25888   5.948   3.668   7.443 -4.2497 -5.3076 -1.4356
  933MOL0     H25889   6.147   3.580   7.537  4.4117 -0.6085 -0.8852
  933MOL0     H25890   6.440   3.649   7.426  2.2869  0.7172  0.9191
  933MOL0     H25891   6.424   3.535   7.555  0.6593  2.4211 -0.3628
  933MOL0     H25892   6.603   3.409   7.402  0.1256  0.7407  0.0184
  933MOL0     H25893   6.615   3.567   7.330 -0.5254 -0.8623 -0.8164
  933MOL0     H25894   6.666   3.664   7.561  2.7626  0.9380 -2.3489
  933MOL0     H25895   6.638   3.507   7.640  1.7130  0.0018 -0.0793
  933MOL0     H25896   6.838   3.414   7.533 -0.6518  0.0625  0.8561
  933MOL0     H25897   6.849   3.542   7.417  2.1049 -3.1877  0.1903
  933MOL0     H25898   7.011   3.612   7.571 -1.1841 -2.2813 -2.2099
  933MOL0     H25899   6.858   3.697   7.620  1.1114  0.1149  2.1811
  933MOL0     H25900   6.952   3.438   7.753  0.5542 -0.5185  2.4961
  933MOL0     H25901   7.009   3.595   7.799 -0.8585 -1.4302  1.4423
  933MOL0     H25902   6.784   3.673   7.860 -2.2756 -1.0846 -0.0635
  933MOL0     H25903   6.723   3.511   7.845 -0.5202  2.7742 -0.5759
  933MOL0     H25904   6.957   3.584   8.019 -0.1705  0.3036  1.1519
  933MOL0     H25905   6.865   3.440   8.025 -0.9652  0.6969  1.1349
  933MOL0     H25906   6.828   3.806   8.099  0.4262  0.0208  1.2865
  933MOL0     H25907   6.691   3.882   8.358 -0.2287 -1.4053  1.2823
  933MOL0     H25908   6.614   3.957   8.210 -0.8999  2.1050  2.6925
  933MOL0     H25909   6.493   3.793   8.445  0.5499 -0.3337 -0.3616
  933MOL0     H25910   6.412   3.801   8.288  4.1240 -2.9848 -0.0893
  933MOL0     H25911   6.341   4.037   8.379 -3.1280 -2.6839  2.3036
  933MOL0     H25912   6.507   4.067   8.412  0.4828  1.2966  4.5025
  933MOL0     H25913   6.372   4.081   8.607 -1.1859  0.4375 -0.5887
  933MOL0     H25914   6.496   3.967   8.631 -0.4559  0.6411  0.5796
  933MOL0     H25915   6.063   3.857   8.552  2.1902 -1.8360  0.7762
  933MOL0     H25916   5.823   4.005   8.586  2.3637  3.2244  1.7218
  933MOL0     H25917   5.789   3.839   8.645 -1.4850 -0.3879  0.8780
  933MOL0     H25918   5.754   3.976   8.749 -0.1764  0.0974 -0.2725
  933MOL0     H25919   6.020   4.170   9.259  1.3185  2.5207 -1.5746
  933MOL0     H25920   5.908   4.252   9.451  0.0550  2.8151 -0.6626
  933MOL0     H25921   5.491   4.273   9.567  0.3640 -1.7024  0.6321
  933MOL0     H25922   5.551   4.162   9.455 -0.0635  1.3146 -1.0968
  933MOL0     H25923   5.625   4.121   9.686 -1.1226  0.9105  2.2241
  933MOL0     H25924   5.777   4.147   9.614 -0.6122  0.3134 -1.2539
  933MOL0     H25925   5.589   4.343   9.756 -0.9965 -1.2555 -3.0965
  933MOL0     H25926   5.760   4.388   9.691  3.1702 -1.6766  1.6294
  933MOL0     H25927   5.688   4.244   9.942  0.1254 -1.6144  0.1746
  933MOL0     H25928   5.815   4.169   9.846  0.1559 -0.3876  0.9159
  933MOL0     H25929   5.933   4.408   9.847  2.9712 -1.3878  1.9720
  933MOL0     H25930   5.928   4.304   9.989  2.0453 -0.7386 -4.0878
  933MOL0     H25931   5.701   4.487   9.978  0.5683  0.2733 -1.8123
  933MOL0     H25932   5.809   4.447  10.107  0.1072  1.7756  1.0349
  933MOL0     H25933   5.830   4.668   9.902  1.0379  3.6389  2.0939
  933MOL0     H25934   5.980   4.597   9.943  1.0496  2.2590  1.1250
  933MOL0     H25935   5.894   4.622  10.200 -2.7827  1.9867  2.6322
  933MOL0     H25936   5.776   4.736  10.142 -1.2454 -2.4547  0.9840
  933MOL0     H25937   5.573   4.346   9.207  0.9440  2.9834 -2.8608
  933MOL0     H25938   5.707   4.253   8.998  2.4049 -0.4343 -1.2106
  933MOL0     H25939   6.165   4.036   8.993 -2.1657 -2.0252  1.5909
  933MOL0     H25940   6.333   3.975   8.852  0.7606 -0.6255  1.3473
  933MOL0     H25941   6.301   3.526   7.135  0.2206  2.8405  0.7982
  933MOL0     H25942   6.117   3.620   7.045  1.4872 -1.6390  0.0174
  933MOL0     H25943   5.850   3.868   6.802  0.9965 -0.1858  0.2970
  933MOL0     H25944   5.620   3.929   6.716 -2.2173 -0.2347  0.3201
  933MOL0     H25945   5.289   4.086   6.779 -0.4423 -0.1817  1.4429
  933MOL0     H25946   5.449   4.066   6.711 -1.2688  2.4975  2.4595
  933MOL0     H25947   5.233   3.838   6.705 -1.4737  1.6887  0.1537
  933MOL0     H25948   5.397   3.836   6.651 -0.4765 -0.0774  0.0995
  933MOL0     H25949   5.203   3.880   6.487 -1.2096 -1.1384  0.9735
  933MOL0     H25950   5.333   3.996   6.473 -1.4200 -0.9314 -1.6455
  933MOL0     H25951   5.198   4.168   6.598 -0.1313 -0.3569  0.2110
  933MOL0     H25952   5.072   4.051   6.628  0.8438  1.6863  0.2135
  933MOL0     H25953   4.995   4.136   6.229 -3.2074 -2.3980  1.5867
  933MOL0     H25954   5.465   3.906   7.101 -0.5645  0.7823 -1.4802
  933MOL0     H25955   5.685   3.804   7.202  2.6843  0.9005 -0.1502
  934MOL0     O25956   9.313   7.201   1.917  0.4814  0.0423 -0.4776
  934MOL0     C25957   9.293   7.080   1.903 -0.1237 -0.3880  0.9885
  934MOL0     O25958   9.222   6.979   1.970  0.0449 -0.4643 -0.3921
  934MOL0     C25959   9.158   7.009   2.096 -0.1609 -0.5591 -0.6470
  934MOL0     C25960   9.150   6.922   2.207  1.0841 -0.1678 -0.6817
  934MOL0     C25961   9.082   6.962   2.333  0.1502 -0.4778  0.0630
  934MOL0     C25962   9.027   7.087   2.346  0.0183  0.5081 -0.3661
  934MOL0     O25963   8.980   7.126   2.468  0.6254  0.4260 -0.2053
  934MOL0     C25964   9.015   7.268   2.500 -0.5770 -0.2882  0.7088
  934MOL0     C25965   8.982   7.311   2.642 -0.0873  0.1639 -0.6006
  934MOL0     C25966   9.067   7.422   2.697 -0.2401  0.2696  0.2598
  934MOL0     C25967   9.028   7.473   2.839  0.0628 -0.1756 -0.1554
  934MOL0     C25968   9.139   7.535   2.910  0.0588  1.0979 -0.3846
  934MOL0     C25969   9.104   7.616   3.035  0.7858  1.6736 -0.6299
  934MOL0     C25970   9.225   7.617   3.127  0.5815  0.6573  0.1702
  934MOL0     C25971   9.188   7.617   3.282 -0.0892 -1.1195  0.4046
  934MOL0     N25972   9.145   7.744   3.332  0.2907  0.2497  0.0974
  934MOL0     C25973   9.223   7.859   3.323  0.8966  1.5760 -0.0374
  934MOL0     C25974   9.137   7.961   3.354  0.4552 -0.9466 -0.8655
  934MOL0     C25975   9.163   8.108   3.357  0.7362  0.8431  0.0589
  934MOL0     C25976   9.254   8.145   3.477 -0.4212  0.5216 -0.6203
  934MOL0     C25977   9.399   8.120   3.444 -0.0549  0.3109  0.9573
  934MOL0     C25978   9.484   8.171   3.568  0.2922 -0.4345  0.8891
  934MOL0     O25979   9.620   8.147   3.545  0.7670  0.1679 -0.0517
  934MOL0     C25980   9.702   8.187   3.640  0.2042  0.5170 -0.8530
  934MOL0     C25981   9.802   8.281   3.621  0.2097 -0.6029  0.4053
  934MOL0     C25982   9.906   8.307   3.715 -0.7375  0.0928  0.5307
  934MOL0     C25983  10.015   8.414   3.695  0.3615  0.3350  0.4520
  934MOL0     C25984   9.910   8.237   3.837 -0.1761  0.5761 -0.1582
  934MOL0     C25985  10.018   8.245   3.940  1.3202  0.8079  0.7004
  934MOL0     O25986   9.974   8.203   4.063 -0.3717 -0.0830  0.4622
  934MOL0     C25987  10.071   8.201   4.157  0.2853 -0.4968  0.0854
  934MOL0     C25988  10.122   8.323   4.205  0.7572 -0.7858 -0.6840
  934MOL0     C25989  10.216   8.319   4.311 -0.4683 -0.3945  0.0663
  934MOL0     C25990  10.273   8.198   4.360 -0.2484 -0.3438 -0.4708
  934MOL0     O25991  10.352   8.200   4.471  0.7236 -0.5325 -0.8040
  934MOL0     C25992  10.429   8.324   4.506  0.5235  0.4347  1.3124
  934MOL0     C25993  10.533   8.286   4.611 -0.9493 -0.6157  0.2703
  934MOL0     C25994  10.476   8.240   4.743  0.6686  0.5125 -1.6167
  934MOL0     C25995  10.499   8.087   4.765  0.6476  0.1956  0.3289
  934MOL0     C25996  10.475   8.045   4.908  0.7747  0.6978 -0.5226
  934MOL0     C25997  10.498   7.898   4.929 -0.6678  0.3844  0.5224
  934MOL0     C25998  10.503   7.869   5.081 -0.3391 -0.4344 -0.0880
  934MOL0     C25999  10.535   7.721   5.090 -0.3204  0.5308  0.4183
  934MOL0    Cl26000  10.411   7.621   5.010  0.0987  0.0757 -0.5356
  934MOL0     C26001  10.228   8.082   4.309  1.3242 -0.6393  0.3338
  934MOL0     C26002  10.126   8.083   4.213 -0.8306  0.6958  0.6985
  934MOL0     O26003  10.129   8.263   3.909 -0.2453  0.2516  0.6937
  934MOL0     C26004   9.814   8.135   3.849  0.3211  0.4651 -0.2820
  934MOL0     C26005   9.718   8.109   3.749 -0.5281  0.6142  0.4490
  934MOL0     N26006   9.021   7.901   3.407  0.5638 -0.4265  0.4435
  934MOL0     N26007   9.025   7.774   3.384 -0.1907  0.3770  0.1544
  934MOL0     C26008   9.040   7.170   2.240 -0.4964  0.1679 -0.3870
  934MOL0     C26009   9.099   7.133   2.122  0.3395  0.4892 -0.4732
  934MOL0     C26010   9.368   7.013   1.783  0.7388  0.3948 -0.9689
  934MOL0     C26011   9.431   7.089   1.689 -0.0141 -0.5880  1.3127
  934MOL0     C26012   9.515   7.025   1.585  0.2034  0.0175 -0.3482
  934MOL0     C26013   9.526   6.890   1.575 -0.0651  0.7311 -0.6164
  934MOL0     O26014   9.569   6.826   1.462  0.5949 -0.1145 -0.9045
  934MOL0     C26015   9.710   6.822   1.455  0.4055 -0.3216  0.1697
  934MOL0     C26016   9.759   6.719   1.343  0.2737 -0.0914 -1.4599
  934MOL0     C26017   9.901   6.699   1.296 -0.0653 -0.0290 -0.2696
  934MOL0     C26018   9.990   6.816   1.332 -0.7279  0.2490  0.6284
  934MOL0     C26019  10.015   6.894   1.203  0.3195  0.1013 -0.4981
  934MOL0     C26020  10.037   6.941   1.091 -0.0568  0.7561  0.0670
  934MOL0     C26021   9.471   6.811   1.678 -0.9528 -0.3915 -0.3793
  934MOL0     C26022   9.385   6.872   1.781 -0.2000 -1.0306 -0.7535
  934MOL0     H26023   9.177   6.818   2.198 -2.0980 -1.6018  3.4486
  934MOL0     H26024   9.067   6.893   2.415 -1.7219  1.5564  1.5443
  934MOL0     H26025   9.123   7.270   2.489 -0.6180 -2.2856 -0.5082
  934MOL0     H26026   8.975   7.343   2.432  1.2807  0.2897  0.2016
  934MOL0     H26027   8.878   7.344   2.649 -1.3739 -3.4543 -0.8151
  934MOL0     H26028   8.991   7.231   2.716 -2.4592  1.1222  0.8343
  934MOL0     H26029   9.169   7.384   2.706 -0.5825 -1.0540 -0.9531
  934MOL0     H26030   9.073   7.504   2.624 -3.3631 -1.7864 -2.6336
  934MOL0     H26031   8.961   7.559   2.828  2.4315  1.9021  0.6637
  934MOL0     H26032   8.983   7.402   2.909 -0.6675  0.5272  0.1123
  934MOL0     H26033   9.201   7.448   2.935 -0.9914 -0.0147 -1.5096
  934MOL0     H26034   9.191   7.595   2.835  1.4450 -1.4135 -1.5693
  934MOL0     H26035   9.090   7.720   3.002  0.4167  2.3108  1.3588
  934MOL0     H26036   9.015   7.581   3.088  2.1967  0.5386  1.0919
  934MOL0     H26037   9.265   7.515   3.123  0.0652  0.4207  0.7974
  934MOL0     H26038   9.308   7.685   3.104  1.7374 -0.8966 -0.4673
  934MOL0     H26039   9.271   7.590   3.348 -0.5734 -2.7897  0.3908
  934MOL0     H26040   9.107   7.547   3.304 -1.2200 -0.1902 -0.6275
  934MOL0     H26041   9.328   7.871   3.296  0.7804 -2.5973 -3.2361
  934MOL0     H26042   9.211   8.136   3.263 -0.5818  1.9059 -0.3401
  934MOL0     H26043   9.072   8.167   3.371  0.5269  0.9149 -1.4741
  934MOL0     H26044   9.229   8.088   3.567 -2.4865  1.4952 -0.5159
  934MOL0     H26045   9.244   8.253   3.493 -1.0416  0.6243 -1.5880
  934MOL0     H26046   9.423   8.177   3.354  2.4142 -3.7126 -1.2323
  934MOL0     H26047   9.431   8.018   3.420 -1.8845 -0.7421  2.6701
  934MOL0     H26048   9.454   8.124   3.662 -1.1230 -0.3745  0.4899
  934MOL0     H26049   9.467   8.279   3.580 -0.8052 -0.6973  1.9891
  934MOL0     H26050   9.788   8.335   3.527  0.6106  0.6280  1.0304
  934MOL0     H26051  10.110   8.379   3.653  0.1199 -2.1263  1.8189
  934MOL0     H26052   9.980   8.495   3.629  3.5029  1.9621  0.5730
  934MOL0     H26053  10.033   8.457   3.793 -1.6829  1.2077  0.4863
  934MOL0     H26054  10.084   8.422   4.179 -4.8280 -0.9459  4.6560
  934MOL0     H26055  10.253   8.412   4.353  0.1367  0.3154 -1.8984
  934MOL0     H26056  10.486   8.360   4.420 -1.1079 -0.8809 -0.3845
  934MOL0     H26057  10.369   8.407   4.545 -0.4771  0.0334  0.6522
  934MOL0     H26058  10.591   8.205   4.566  0.9393  2.2711 -3.0230
  934MOL0     H26059  10.592   8.377   4.622 -4.6374  2.2698 -1.4652
  934MOL0     H26060  10.371   8.268   4.755 -0.0369 -0.2587 -4.8998
  934MOL0     H26061  10.526   8.299   4.820 -1.4870  3.2347 -2.1473
  934MOL0     H26062  10.446   8.031   4.688  2.6573 -1.0212 -0.2565
  934MOL0     H26063  10.604   8.061   4.750  0.3203 -0.2119 -1.5284
  934MOL0     H26064  10.372   8.072   4.932  0.1194  0.5037 -2.8490
  934MOL0     H26065  10.535   8.114   4.967 -0.2464  0.2199  1.1524
  934MOL0     H26066  10.422   7.840   4.875 -2.4868  1.7780  1.4719
  934MOL0     H26067  10.595   7.886   4.880 -1.5629  2.6167 -2.0063
  934MOL0     H26068  10.415   7.891   5.142  0.8580 -0.6224  1.7814
  934MOL0     H26069  10.581   7.929   5.129  0.4819 -0.1345 -1.7295
  934MOL0     H26070  10.552   7.699   5.195 -0.8893  1.8864  0.8145
  934MOL0     H26071  10.634   7.705   5.045  0.7780  3.5229  1.4993
  934MOL0     H26072  10.270   7.987   4.343  2.4443  0.2757  1.6292
  934MOL0     H26073  10.092   7.986   4.177 -3.3337  1.3047  1.2287
  934MOL0     H26074   9.796   8.061   3.926 -1.7348 -0.3301 -1.4602
  934MOL0     H26075   9.647   8.030   3.773 -1.3256  0.7340 -1.3582
  934MOL0     H26076   9.021   7.277   2.250  1.8140  0.7509 -1.5483
  934MOL0     H26077   9.104   7.205   2.041 -0.6258  0.5985 -0.4482
  934MOL0     H26078   9.423   7.197   1.680  0.1635 -0.6829 -0.3375
  934MOL0     H26079   9.559   7.084   1.505 -1.7340  0.8033 -0.8805
  934MOL0     H26080   9.741   6.924   1.427 -2.3962 -0.0825 -2.6093
  934MOL0     H26081   9.754   6.788   1.550 -1.8499 -0.2147  1.3058
  934MOL0     H26082   9.705   6.746   1.252  0.0862 -0.7139 -1.5396
  934MOL0     H26083   9.714   6.625   1.377 -0.4480  0.2239 -1.5442
  934MOL0     H26084   9.886   6.676   1.190  0.8750 -1.6931 -0.0691
  934MOL0     H26085   9.942   6.611   1.346 -2.6889 -1.0987  0.1593
  934MOL0     H26086  10.087   6.768   1.351 -0.9058 -1.4624 -2.1772
  934MOL0     H26087   9.967   6.891   1.407 -3.7873  3.8532 -3.4485
  934MOL0     H26088  10.059   6.976   0.993 -1.9978  2.3017  0.1136
  934MOL0     H26089   9.472   6.705   1.657  3.1934 -0.3750 -1.1199
  934MOL0     H26090   9.346   6.805   1.857  1.9131 -1.8644 -0.3298
  935MOL0     O26091   7.283   2.516   9.276  0.3149 -0.1207  0.2891
  935MOL0     C26092   7.290   2.639   9.286  1.0123 -0.3515  0.7511
  935MOL0     O26093   7.398   2.720   9.264  0.4272  0.2652  0.2799
  935MOL0     C26094   7.473   2.719   9.146 -0.2732  0.9199  0.5170
  935MOL0     C26095   7.572   2.811   9.133 -0.4881 -0.4632  0.1908
  935MOL0     C26096   7.664   2.813   9.026  1.2097  0.2850  0.0968
  935MOL0     C26097   7.630   2.737   8.913  0.2909  0.4081 -0.4674
  935MOL0     O26098   7.707   2.758   8.804  0.0004 -0.0643 -0.1801
  935MOL0     C26099   7.670   2.700   8.675  0.6056 -0.0558 -0.1005
  935MOL0     C26100   7.746   2.770   8.567 -0.2598  0.0462  0.5883
  935MOL0     C26101   7.897   2.755   8.562 -0.1995 -0.4162  0.0805
  935MOL0     C26102   7.967   2.625   8.622  0.5197 -0.4500  0.5372
  935MOL0     C26103   8.104   2.594   8.574 -0.0891 -0.5320  0.2947
  935MOL0     C26104   8.168   2.473   8.632  1.1929 -0.5472  0.0045
  935MOL0     C26105   8.101   2.345   8.575 -0.4811  0.6092  0.3483
  935MOL0     C26106   8.195   2.235   8.530 -0.0615  0.1441  1.2198
  935MOL0     N26107   8.252   2.183   8.647  0.2781  0.6452 -0.2386
  935MOL0     C26108   8.382   2.210   8.674  0.0848 -0.0788  0.1617
  935MOL0     C26109   8.419   2.114   8.760  0.0382  1.1784 -0.3794
  935MOL0     C26110   8.562   2.102   8.813  0.7175 -0.6294  0.5087
  935MOL0     C26111   8.636   1.989   8.748 -0.8300 -0.2988  0.1911
  935MOL0     C26112   8.757   1.958   8.831  0.7817  0.1638  0.0463
  935MOL0     C26113   8.864   1.856   8.770  0.1625 -0.3633  0.3872
  935MOL0     O26114   8.939   1.898   8.653  0.4117 -0.0301 -0.1435
  935MOL0     C26115   9.026   2.000   8.673  1.0920 -0.2667 -0.0522
  935MOL0     C26116   8.985   2.130   8.666  0.3544 -0.4263 -0.4828
  935MOL0     C26117   9.074   2.237   8.671  0.3375  0.2803  0.4683
  935MOL0     C26118   9.005   2.374   8.643  0.6771 -0.0452 -0.6040
  935MOL0     C26119   9.214   2.204   8.693 -0.8413  0.7319  0.2060
  935MOL0     C26120   9.318   2.305   8.732 -0.4153 -0.1704  0.2766
  935MOL0     O26121   9.438   2.286   8.665 -0.9492  0.7416 -0.5457
  935MOL0     C26122   9.556   2.359   8.695  0.0785  0.3074  0.5196
  935MOL0     C26123   9.587   2.413   8.825  0.2559 -0.1764 -0.0341
  935MOL0     C26124   9.716   2.477   8.848 -0.2183  0.3603  0.6018
  935MOL0     C26125   9.811   2.471   8.749  0.6067 -0.3251  0.8380
  935MOL0     O26126   9.933   2.524   8.781 -0.2888  0.5171 -0.7688
  935MOL0     C26127  10.059   2.493   8.706  0.3509 -0.1146  0.0652
  935MOL0     C26128  10.175   2.555   8.785 -0.0855 -0.0776 -0.2551
  935MOL0     C26129  10.305   2.542   8.714  0.2996  0.4881 -0.3969
  935MOL0     C26130  10.425   2.580   8.800  0.5656  0.3693 -0.5390
  935MOL0     C26131  10.558   2.572   8.720  0.7259 -0.5221 -0.5636
  935MOL0     C26132  10.671   2.620   8.802  0.4616  0.3387  0.6092
  935MOL0     C26133  10.700   2.527   8.917  0.4059 -0.1131  0.4259
  935MOL0     C26134  10.834   2.556   8.976  0.0192  0.5380  0.3970
  935MOL0    Cl26135  10.843   2.710   9.055  0.2118  0.0286 -0.1214
  935MOL0     C26136   9.789   2.399   8.633 -0.8089  0.3602 -0.9319
  935MOL0     C26137   9.663   2.351   8.607  0.1578  0.0230  0.0689
  935MOL0     O26138   9.284   2.400   8.803 -0.9683  0.2964  0.1869
  935MOL0     C26139   9.253   2.070   8.712  0.2602 -0.0439  0.9468
  935MOL0     C26140   9.160   1.973   8.693  0.7750  0.1418 -0.1927
  935MOL0     N26141   8.313   2.021   8.784  1.1054 -0.4744  0.3938
  935MOL0     N26142   8.218   2.062   8.704 -0.0130  0.4220 -0.5801
  935MOL0     C26143   7.521   2.645   8.922 -0.8215 -0.2464 -0.0719
  935MOL0     C26144   7.441   2.641   9.034 -0.4214  1.0761  0.1506
  935MOL0     C26145   7.176   2.699   9.346  0.7304 -0.7160 -0.1727
  935MOL0     C26146   7.170   2.842   9.353  0.1725  0.2683 -0.9096
  935MOL0     C26147   7.062   2.899   9.411 -0.3239 -0.4224  0.4157
  935MOL0     C26148   6.964   2.827   9.484 -0.5981 -0.2492 -0.1305
  935MOL0     O26149   6.858   2.893   9.548 -0.1393 -0.7825  0.7957
  935MOL0     C26150   6.746   2.825   9.602 -0.3555  2.0581  1.0673
  935MOL0     C26151   6.758   2.826   9.745  0.5434  0.0379 -0.3072
  935MOL0     C26152   6.666   2.728   9.818  0.4209 -0.5900 -0.0715
  935MOL0     C26153   6.519   2.747   9.797 -0.7129 -0.5713  0.0195
  935MOL0     C26154   6.469   2.855   9.871 -0.0657 -0.4959 -0.0246
  935MOL0     C26155   6.405   2.948   9.922 -0.3735  0.5934 -0.3820
  935MOL0     C26156   6.974   2.689   9.489  0.2616  0.0181  0.1575
  935MOL0     C26157   7.081   2.624   9.420 -0.5710  0.0782  0.4151
  935MOL0     H26158   7.581   2.877   9.219  1.7360 -0.5096  0.0487
  935MOL0     H26159   7.737   2.892   9.038 -1.5041  2.6068  3.1349
  935MOL0     H26160   7.691   2.592   8.681 -4.2004 -1.2560 -0.6195
  935MOL0     H26161   7.569   2.733   8.648  1.4913  1.6663 -1.4624
  935MOL0     H26162   7.702   2.734   8.473 -0.9470 -0.7709  1.2019
  935MOL0     H26163   7.722   2.876   8.571  1.1949  0.3603  2.7036
  935MOL0     H26164   7.927   2.748   8.457  2.4272 -0.3077  0.7521
  935MOL0     H26165   7.944   2.836   8.618  0.1563 -1.6861  1.6750
  935MOL0     H26166   7.960   2.616   8.731 -2.2219  1.1843  0.6175
  935MOL0     H26167   7.899   2.545   8.591 -1.3157  1.2809 -0.1806
  935MOL0     H26168   8.104   2.578   8.466  0.6690 -1.2805  0.4003
  935MOL0     H26169   8.174   2.675   8.593 -1.8618  1.1043  0.1843
  935MOL0     H26170   8.274   2.485   8.608  1.3499  1.0265  1.3194
  935MOL0     H26171   8.154   2.489   8.739  0.5962  3.8076 -0.5358
  935MOL0     H26172   8.026   2.308   8.646 -0.7903  2.2843  0.9506
  935MOL0     H26173   8.054   2.374   8.481  0.0850  2.4690  0.5856
  935MOL0     H26174   8.274   2.266   8.461  0.1952 -0.2628  1.3276
  935MOL0     H26175   8.136   2.154   8.485  1.4510 -1.3317  1.7835
  935MOL0     H26176   8.432   2.304   8.652 -2.8424  1.9519  1.5366
  935MOL0     H26177   8.621   2.193   8.828 -1.2267  0.5833  1.2153
  935MOL0     H26178   8.534   2.071   8.914 -1.9287 -0.4656 -0.1222
  935MOL0     H26179   8.680   2.012   8.650  1.6461 -0.6195  1.1511
  935MOL0     H26180   8.577   1.898   8.736 -2.6117  0.5592  1.9404
  935MOL0     H26181   8.712   1.908   8.917 -1.2255 -2.3137 -2.2712
  935MOL0     H26182   8.804   2.054   8.853  0.5200  0.5070 -0.8383
  935MOL0     H26183   8.813   1.765   8.739 -0.9304  0.2867  0.2000
  935MOL0     H26184   8.942   1.834   8.843  0.0060  2.7326  1.6313
  935MOL0     H26185   8.879   2.143   8.645 -0.2749 -2.6093  1.0015
  935MOL0     H26186   8.961   2.384   8.544  3.5564 -5.6694 -2.9270
  935MOL0     H26187   8.926   2.400   8.714  1.2847  3.1114 -0.9383
  935MOL0     H26188   9.065   2.464   8.633 -1.6528  1.5073 -1.4970
  935MOL0     H26189   9.508   2.429   8.898 -0.5132  0.1003 -0.9124
  935MOL0     H26190   9.731   2.557   8.920  1.3812  0.2447  0.4394
  935MOL0     H26191  10.074   2.385   8.698  0.4908 -0.1908  1.2034
  935MOL0     H26192  10.051   2.549   8.613  0.1176 -0.5563 -0.1830
  935MOL0     H26193  10.154   2.661   8.804  1.6249  0.6985 -2.2616
  935MOL0     H26194  10.182   2.502   8.880 -0.1803  0.1812 -0.1016
  935MOL0     H26195  10.290   2.611   8.631 -0.7449 -2.2001 -2.5928
  935MOL0     H26196  10.321   2.444   8.670 -2.4814  0.2756 -1.1131
  935MOL0     H26197  10.418   2.683   8.835  0.5470  0.4854 -0.8827
  935MOL0     H26198  10.421   2.509   8.883 -1.7711  0.4681 -0.4866
  935MOL0     H26199  10.553   2.639   8.634 -3.4139  2.4843  1.6397
  935MOL0     H26200  10.579   2.469   8.688 -0.5233 -1.0634  0.2583
  935MOL0     H26201  10.759   2.646   8.742  1.0212  1.0013  1.6897
  935MOL0     H26202  10.645   2.713   8.853  1.9526 -0.7973  3.7253
  935MOL0     H26203  10.698   2.424   8.880  1.0732  0.9822 -2.9953
  935MOL0     H26204  10.635   2.548   9.003  1.2185  5.1978  0.0632
  935MOL0     H26205  10.906   2.555   8.894 -2.3758  1.1692 -1.8727
  935MOL0     H26206  10.865   2.487   9.055  0.2027 -2.6650 -2.2393
  935MOL0     H26207   9.870   2.384   8.563  0.2099  1.1170  0.0349
  935MOL0     H26208   9.643   2.292   8.518 -0.7762 -2.1582  1.6300
  935MOL0     H26209   9.359   2.046   8.720  0.2723  0.2061  1.5214
  935MOL0     H26210   9.195   1.871   8.708  1.3407  0.5027  0.9885
  935MOL0     H26211   7.503   2.583   8.835  0.8641 -1.2532  0.2448
  935MOL0     H26212   7.355   2.575   9.026  0.0277  0.6967 -2.5730
  935MOL0     H26213   7.240   2.913   9.310  1.1156 -0.1965 -0.1793
  935MOL0     H26214   7.045   3.006   9.406 -1.4512 -0.6220 -0.9180
  935MOL0     H26215   6.656   2.881   9.575 -1.1937  1.1041  1.8396
  935MOL0     H26216   6.735   2.719   9.579  3.1711  1.4798  1.4057
  935MOL0     H26217   6.735   2.926   9.782 -2.1240  0.0287 -1.7138
  935MOL0     H26218   6.860   2.801   9.777  0.3160  1.1267  1.3779
  935MOL0     H26219   6.691   2.758   9.920 -1.5053 -0.6369  0.4478
  935MOL0     H26220   6.689   2.622   9.803 -0.9789 -0.9585  0.2563
  935MOL0     H26221   6.473   2.658   9.840 -1.6842  1.0182  2.4823
  935MOL0     H26222   6.485   2.755   9.693  1.5853 -1.5378 -0.9013
  935MOL0     H26223   6.353   3.021   9.980 -1.2654 -2.0996  2.4961
  935MOL0     H26224   6.899   2.626   9.536 -0.2501  1.9324  2.0283
  935MOL0     H26225   7.100   2.518   9.425 -1.7543 -0.1174  1.2620
  936MOL0     O26226   2.207  10.309   2.847  0.6123  0.2618 -0.5564
  936MOL0     C26227   2.269  10.381   2.923 -0.0447 -0.5330 -0.2445
  936MOL0     O26228   2.396  10.381   2.954  0.1507  0.1440  0.0974
  936MOL0     C26229   2.496  10.309   2.888 -0.2355 -0.4137  0.3213
  936MOL0     C26230   2.619  10.361   2.894 -0.0489 -0.9570  0.1537
  936MOL0     C26231   2.732  10.293   2.845 -0.6771  0.5421 -0.0880
  936MOL0     C26232   2.716  10.161   2.788 -0.2151 -1.2089 -0.8539
  936MOL0     O26233   2.818  10.070   2.775  0.1690 -0.4399  0.3082
  936MOL0     C26234   2.906  10.110   2.667 -0.5902  0.3021 -0.3706
  936MOL0     C26235   3.006   9.988   2.667 -0.5117 -0.3646 -0.6429
  936MOL0     C26236   2.955   9.862   2.613  0.1688  0.2077 -0.1007
  936MOL0     C26237   2.813   9.817   2.634  0.7788 -0.8539  0.3482
  936MOL0     C26238   2.724   9.867   2.509  0.1384  0.3283 -1.0643
  936MOL0     C26239   2.595   9.788   2.516  0.0594 -0.1196  0.1399
  936MOL0     C26240   2.481   9.840   2.432 -0.4666  0.7039  0.2229
  936MOL0     C26241   2.354   9.758   2.484 -0.4870  0.4279 -0.1656
  936MOL0     N26242   2.347   9.645   2.389  0.0506 -0.5492  1.0192
  936MOL0     C26243   2.298   9.652   2.258  0.5403  0.1802  0.4931
  936MOL0     C26244   2.317   9.533   2.195 -0.0219 -0.0420 -0.3270
  936MOL0     C26245   2.282   9.491   2.048 -0.3732 -0.2442 -0.1580
  936MOL0     C26246   2.202   9.360   2.038  0.0598 -0.1871  0.1967
  936MOL0     C26247   2.192   9.295   1.898  0.6705  0.6021  0.7415
  936MOL0     C26248   2.181   9.394   1.787  0.3142  0.5123 -0.6001
  936MOL0     O26249   2.130   9.332   1.662  1.1222  0.7075  0.5715
  936MOL0     C26250   2.003   9.291   1.640 -0.0500  0.2630  0.3086
  936MOL0     C26251   1.892   9.313   1.730 -0.2967  0.4351 -0.1658
  936MOL0     C26252   1.766   9.275   1.694  0.4381 -0.0126 -0.9789
  936MOL0     C26253   1.659   9.302   1.801 -0.1396 -0.4368  0.1237
  936MOL0     C26254   1.733   9.220   1.572  1.0869  0.5398  0.8645
  936MOL0     C26255   1.598   9.166   1.523  0.5011  0.3772 -0.7425
  936MOL0     O26256   1.585   9.137   1.391 -0.0391 -0.3734  0.3016
  936MOL0     C26257   1.459   9.112   1.327 -0.4920 -0.6983  0.6036
  936MOL0     C26258   1.330   9.168   1.366  0.2106 -0.4584  0.4353
  936MOL0     C26259   1.216   9.119   1.305  0.4633  0.3218 -0.0395
  936MOL0     C26260   1.213   9.028   1.205  0.0611 -0.2782 -0.1806
  936MOL0     O26261   1.086   9.005   1.150  0.1493  0.3644 -0.1725
  936MOL0     C26262   1.072   8.911   1.050 -1.0090  0.5945 -0.2009
  936MOL0     C26263   0.925   8.874   1.031  0.5197 -0.2334  0.3362
  936MOL0     C26264   0.896   8.820   0.887 -0.1077 -0.6528 -0.4616
  936MOL0     C26265   0.774   8.744   0.861  0.6324 -0.6006  0.8004
  936MOL0     C26266   0.771   8.673   0.723  0.2638 -0.5879  0.0280
  936MOL0     C26267   0.802   8.752   0.592  0.6203  0.0993  0.3698
  936MOL0     C26268   0.674   8.793   0.515 -0.1552  0.1380 -1.0157
  936MOL0     C26269   0.714   8.909   0.416 -0.5328  0.2255  0.7035
  936MOL0    Cl26270   0.578   8.976   0.316 -0.0067  0.0161  0.3439
  936MOL0     C26271   1.336   8.993   1.158 -0.7009  1.0854 -0.2093
  936MOL0     C26272   1.459   9.026   1.218 -0.3849  0.4952  0.5242
  936MOL0     O26273   1.508   9.138   1.612 -0.0953 -0.6396  0.2015
  936MOL0     C26274   1.849   9.199   1.484  0.0282 -0.3948  0.0031
  936MOL0     C26275   1.974   9.245   1.517  0.5163  0.3074  1.0226
  936MOL0     N26276   2.363   9.445   2.301  0.2982  0.5492  0.4929
  936MOL0     N26277   2.391   9.514   2.408  0.5794 -0.0549 -0.2146
  936MOL0     C26278   2.592  10.114   2.769  0.2254  0.4988  0.7224
  936MOL0     C26279   2.482  10.186   2.828  0.1006 -0.3770  0.8132
  936MOL0     C26280   2.187  10.461   3.024  0.1061  0.8028 -0.0905
  936MOL0     C26281   2.048  10.456   3.010  0.5650 -0.1255 -1.1209
  936MOL0     C26282   1.971  10.528   3.101  0.1715 -0.3460 -0.5925
  936MOL0     C26283   2.022  10.610   3.206 -0.6659 -0.1809 -1.0586
  936MOL0     O26284   1.939  10.679   3.290  0.5140  0.8628  0.3741
  936MOL0     C26285   1.983  10.802   3.355 -0.1287 -0.9254  0.9592
  936MOL0     C26286   1.876  10.865   3.451 -0.6720  0.1389  0.4528
  936MOL0     C26287   1.749  10.901   3.375  0.9876 -0.5200  0.5458
  936MOL0     C26288   1.661  11.006   3.444  0.1957 -0.1484 -0.5181
  936MOL0     C26289   1.720  11.137   3.424  0.4455  0.8387  0.2802
  936MOL0     C26290   1.785  11.238   3.413 -0.1611 -0.6500 -0.0742
  936MOL0     C26291   2.160  10.611   3.219 -0.3809  0.2166  0.1206
  936MOL0     C26292   2.246  10.538   3.133 -1.0660 -0.1000  0.3039
  936MOL0     H26293   2.640  10.452   2.950  1.1404  0.0811 -1.8290
  936MOL0     H26294   2.835  10.323   2.864 -0.7569 -0.3113  2.0030
  936MOL0     H26295   2.863  10.118   2.567 -0.9602 -0.3807 -0.2685
  936MOL0     H26296   2.957  10.200   2.702  0.7858 -0.1837 -1.0404
  936MOL0     H26297   3.096  10.021   2.613 -0.0150  1.3240  1.1081
  936MOL0     H26298   3.045   9.970   2.767  1.7280 -0.8704 -1.5348
  936MOL0     H26299   2.973   9.856   2.506 -3.3936 -0.1741 -0.8246
  936MOL0     H26300   3.027   9.788   2.648 -0.1226  0.0068  0.0876
  936MOL0     H26301   2.813   9.708   2.636 -0.1511 -0.8440  1.5622
  936MOL0     H26302   2.773   9.844   2.732 -1.4088 -1.7013 -0.2556
  936MOL0     H26303   2.690   9.971   2.516  2.7900  1.3485 -1.9238
  936MOL0     H26304   2.780   9.867   2.415  2.2908  0.4826  0.1348
  936MOL0     H26305   2.630   9.691   2.478 -1.1544 -0.3986 -0.2885
  936MOL0     H26306   2.562   9.778   2.619 -0.1961  2.8031  0.4156
  936MOL0     H26307   2.465   9.945   2.458  0.6909  0.5927  1.4720
  936MOL0     H26308   2.513   9.826   2.328  0.0192 -1.5480  0.6260
  936MOL0     H26309   2.262   9.816   2.486 -1.2705 -0.7642 -0.5469
  936MOL0     H26310   2.359   9.726   2.589 -1.8506 -3.1003 -1.0307
  936MOL0     H26311   2.250   9.732   2.202 -0.9745 -0.2459  1.1467
  936MOL0     H26312   2.233   9.577   2.000 -0.0872  0.8408  1.4190
  936MOL0     H26313   2.373   9.484   1.988 -0.3933 -0.7386 -0.1349
  936MOL0     H26314   2.098   9.381   2.061 -0.2013  1.4323 -2.0657
  936MOL0     H26315   2.234   9.281   2.106  0.2769 -0.7883 -0.5863
  936MOL0     H26316   2.106   9.227   1.903  1.4754 -0.7193 -1.7825
  936MOL0     H26317   2.275   9.226   1.883 -2.3667 -3.6325  1.4777
  936MOL0     H26318   2.276   9.448   1.780 -1.1172  4.0601  3.2520
  936MOL0     H26319   2.116   9.480   1.806 -1.0580 -0.2210 -1.7176
  936MOL0     H26320   1.912   9.356   1.828  1.1657  0.5092 -0.4753
  936MOL0     H26321   1.685   9.392   1.857 -0.4882  2.4638 -3.9341
  936MOL0     H26322   1.566   9.334   1.753  0.1443 -1.0915 -0.8909
  936MOL0     H26323   1.657   9.215   1.867 -0.1363 -1.4093 -1.1080
  936MOL0     H26324   1.321   9.227   1.457 -0.5537  1.7043 -0.9850
  936MOL0     H26325   1.119   9.162   1.330  0.6847  2.5237 -2.5426
  936MOL0     H26326   1.096   8.949   0.950 -0.3245 -1.1703 -0.7566
  936MOL0     H26327   1.132   8.822   1.072  3.0358  3.0228 -0.4298
  936MOL0     H26328   0.905   8.794   1.102  0.5028 -3.1717 -2.7550
  936MOL0     H26329   0.864   8.961   1.058  0.6745 -0.0796  0.1946
  936MOL0     H26330   0.981   8.753   0.870  0.4857  0.5328 -2.5938
  936MOL0     H26331   0.901   8.903   0.815 -0.3992 -0.7230 -0.5666
  936MOL0     H26332   0.762   8.663   0.933 -0.6125 -2.4994 -1.3963
  936MOL0     H26333   0.693   8.818   0.866  1.5042  0.4968 -0.3435
  936MOL0     H26334   0.675   8.626   0.699  0.4420  0.2672 -2.5671
  936MOL0     H26335   0.846   8.595   0.743 -0.0942 -0.7232  0.8947
  936MOL0     H26336   0.872   8.834   0.607 -2.9929  3.7714 -0.8549
  936MOL0     H26337   0.849   8.670   0.537 -0.0308 -1.1021  1.5606
  936MOL0     H26338   0.592   8.809   0.586  0.4868 -2.6236  0.4935
  936MOL0     H26339   0.625   8.718   0.451 -0.6683 -0.0768 -0.3804
  936MOL0     H26340   0.793   8.874   0.349  0.2564  4.2449 -0.7304
  936MOL0     H26341   0.765   8.980   0.481  1.1419  0.9224 -1.2447
  936MOL0     H26342   1.333   8.942   1.063 -2.1343 -1.8302  1.2636
  936MOL0     H26343   1.547   8.990   1.166 -0.8890  1.4274 -1.0575
  936MOL0     H26344   1.845   9.155   1.385  2.6290  2.4529 -1.5533
  936MOL0     H26345   2.058   9.231   1.449  1.5841  2.1179  1.8974
  936MOL0     H26346   2.579  10.008   2.745  0.8321 -0.1395  3.0149
  936MOL0     H26347   2.387  10.144   2.798  2.2587 -3.3528 -2.8049
  936MOL0     H26348   1.994  10.388   2.945 -0.8171  1.9575 -2.2741
  936MOL0     H26349   1.864  10.515   3.087  0.1127  1.8531 -2.7771
  936MOL0     H26350   2.069  10.791   3.421  0.3399  0.3987  0.6193
  936MOL0     H26351   2.010  10.858   3.265 -2.2590 -2.0474 -0.4487
  936MOL0     H26352   1.907  10.953   3.510  0.4314 -1.1235  1.8489
  936MOL0     H26353   1.840  10.797   3.528 -1.2188  0.7937  0.7872
  936MOL0     H26354   1.689  10.813   3.349 -1.5118  1.3567 -0.4476
  936MOL0     H26355   1.768  10.929   3.270  0.6550 -2.5903 -0.1083
  936MOL0     H26356   1.643  10.987   3.550  1.2125 -0.1949 -0.3446
  936MOL0     H26357   1.558  11.000   3.406 -0.7529  2.3380  1.3434
  936MOL0     H26358   1.838  11.331   3.418  0.7754 -1.1669  0.0357
  936MOL0     H26359   2.213  10.639   3.310  1.6450 -1.1188 -0.5724
  936MOL0     H26360   2.352  10.532   3.157 -1.5465 -0.3971  2.5121
  937MOL0     O26361   9.366   4.180  11.255 -0.1080  0.2522 -0.0849
  937MOL0     C26362   9.414   4.097  11.338  0.0580 -0.4128  1.2363
  937MOL0     O26363   9.453   4.116  11.464  0.0497  0.0345 -0.1914
  937MOL0     C26364   9.401   4.230  11.521  0.6766  0.1361  0.7492
  937MOL0     C26365   9.451   4.356  11.493 -1.0288  0.3665  0.6027
  937MOL0     C26366   9.412   4.462  11.566  0.7065 -0.0724  0.8567
  937MOL0     C26367   9.296   4.453  11.653  0.0108 -0.2545  0.9301
  937MOL0     O26368   9.251   4.571  11.703 -0.7718  0.3069 -0.0647
  937MOL0     C26369   9.226   4.666  11.594 -0.2677 -0.1191 -0.4875
  937MOL0     C26370   9.107   4.749  11.621 -0.0308 -0.6281  0.3401
  937MOL0     C26371   8.969   4.685  11.616 -0.5285 -0.0413 -0.7019
  937MOL0     C26372   8.871   4.787  11.637 -1.0270  0.2849  0.1397
  937MOL0     C26373   8.733   4.743  11.643 -0.9616 -0.6931  0.1613
  937MOL0     C26374   8.680   4.701  11.512 -0.4539 -0.1622  0.2229
  937MOL0     C26375   8.527   4.675  11.539 -1.4629 -1.1052  0.3438
  937MOL0     C26376   8.461   4.581  11.442 -0.3104  0.6503  0.7424
  937MOL0     N26377   8.311   4.565  11.464 -0.3894 -0.6932  0.2127
  937MOL0     C26378   8.245   4.450  11.510  0.1354 -0.0438 -0.3764
  937MOL0     C26379   8.119   4.456  11.453 -0.3765  0.7793 -0.3130
  937MOL0     C26380   8.014   4.355  11.467 -1.1019 -0.1336  0.1081
  937MOL0     C26381   7.966   4.308  11.333 -0.2893  0.8121  0.3455
  937MOL0     C26382   7.848   4.212  11.336 -0.1885  0.0884  0.4597
  937MOL0     C26383   7.890   4.070  11.370  0.2606 -0.2416 -0.4440
  937MOL0     O26384   7.908   4.038  11.510  0.0061  0.3875  0.4755
  937MOL0     C26385   7.797   3.981  11.570 -0.7495 -0.7298  0.5598
  937MOL0     C26386   7.738   3.857  11.526 -0.1010  0.2451  0.1466
  937MOL0     C26387   7.617   3.822  11.572 -0.0550  0.8278 -1.3226
  937MOL0     C26388   7.540   3.717  11.493 -0.1158 -0.7962  0.7252
  937MOL0     C26389   7.554   3.896  11.682 -0.1565  1.0238  0.2166
  937MOL0     C26390   7.418   3.870  11.737  0.9033  0.5130 -0.1994
  937MOL0     O26391   7.381   3.735  11.747  0.3041  0.3225 -0.8478
  937MOL0     C26392   7.298   3.712  11.850  0.0421 -0.6228 -0.1429
  937MOL0     C26393   7.171   3.670  11.828  0.0743  0.3052  0.4229
  937MOL0     C26394   7.073   3.659  11.927 -0.9117  0.8526 -0.3793
  937MOL0     C26395   7.109   3.679  12.060  0.3720 -0.8370  0.5594
  937MOL0     O26396   7.027   3.671  12.171  0.1631  0.0593 -0.4526
  937MOL0     C26397   6.913   3.591  12.161 -0.0640 -0.0876  0.4939
  937MOL0     C26398   6.840   3.563  12.294  0.5742 -0.4082  0.4169
  937MOL0     C26399   6.788   3.685  12.357 -0.3092  0.4094  0.5559
  937MOL0     C26400   6.716   3.659  12.493 -0.2769 -0.0076  0.6200
  937MOL0     C26401   6.628   3.777  12.540 -0.3458 -0.4856 -0.6262
  937MOL0     C26402   6.537   3.739  12.659  0.3340  1.7325 -0.3647
  937MOL0     C26403   6.447   3.858  12.702  0.3367 -0.9774  0.4365
  937MOL0     C26404   6.385   3.827  12.830 -0.3791  0.3723  0.1787
  937MOL0    Cl26405   6.276   3.950  12.885  0.0190  0.3228  0.2587
  937MOL0     C26406   7.243   3.706  12.083 -0.3857 -0.2691  0.7366
  937MOL0     C26407   7.343   3.730  11.985 -0.8621 -0.4522 -0.2815
  937MOL0     O26408   7.349   3.964  11.779 -0.8346  0.5566 -0.6839
  937MOL0     C26409   7.616   4.004  11.726  1.3648 -1.0504  0.0390
  937MOL0     C26410   7.741   4.053  11.674 -1.4569  0.4388  0.0433
  937MOL0     N26411   8.110   4.572  11.384  1.2881  0.2213  0.1605
  937MOL0     N26412   8.222   4.637  11.394  0.9758 -0.5736 -0.0238
  937MOL0     C26413   9.247   4.319  11.687 -0.0302  0.0059  0.3043
  937MOL0     C26414   9.297   4.214  11.618 -0.8466  0.8130  0.5252
  937MOL0     C26415   9.467   3.982  11.273 -0.6307  0.6126  0.9821
  937MOL0     C26416   9.383   3.916  11.177 -0.9798  0.3818 -0.5444
  937MOL0     C26417   9.436   3.805  11.104  0.1924  0.3824 -0.3743
  937MOL0     C26418   9.566   3.760  11.135 -0.5393 -0.3815 -0.2310
  937MOL0     O26419   9.630   3.650  11.075  0.0820 -0.3385 -0.1705
  937MOL0     C26420   9.559   3.575  10.984 -0.2068  0.7162  1.2935
  937MOL0     C26421   9.638   3.466  10.907 -0.1831 -0.2526  0.1219
  937MOL0     C26422   9.772   3.522  10.859 -0.2216  0.4047 -0.4741
  937MOL0     C26423   9.854   3.420  10.781  0.2949  0.3416  0.6736
  937MOL0     C26424   9.940   3.344  10.872  0.5655  0.2178  0.4708
  937MOL0     C26425  10.014   3.280  10.942 -0.2565  1.5330 -0.8449
  937MOL0     C26426   9.630   3.804  11.245 -1.2123  0.0465 -0.3507
  937MOL0     C26427   9.583   3.914  11.316  0.3622 -0.4717  0.2889
  937MOL0     H26428   9.542   4.375  11.438 -0.7648 -1.7965  0.2238
  937MOL0     H26429   9.460   4.557  11.551  1.7365 -0.8704 -1.2918
  937MOL0     H26430   9.314   4.726  11.572  0.1334  0.4512  2.3165
  937MOL0     H26431   9.197   4.606  11.507  1.3482  1.4409 -2.1976
  937MOL0     H26432   9.123   4.797  11.718 -4.7004 -0.6307  1.3516
  937MOL0     H26433   9.112   4.828  11.546 -0.1722 -0.9374 -0.0000
  937MOL0     H26434   8.953   4.636  11.520  2.4526  0.8060 -1.7471
  937MOL0     H26435   8.968   4.613  11.698  0.5018  1.5270  0.7634
  937MOL0     H26436   8.903   4.842  11.726 -0.2197 -1.3140  0.8975
  937MOL0     H26437   8.891   4.854  11.553  2.9689 -0.2772  0.4100
  937MOL0     H26438   8.724   4.657  11.710 -0.2447 -1.3059 -0.5129
  937MOL0     H26439   8.676   4.818  11.699  1.5569  0.1652  1.7348
  937MOL0     H26440   8.684   4.779  11.435 -2.4707  0.2391  0.4482
  937MOL0     H26441   8.730   4.614  11.470  2.9678  1.0892  1.3945
  937MOL0     H26442   8.515   4.636  11.640 -0.0288 -0.7749  0.6554
  937MOL0     H26443   8.484   4.775  11.526  1.3431 -0.0778 -2.3828
  937MOL0     H26444   8.514   4.485  11.447 -0.4509  0.6432  2.9454
  937MOL0     H26445   8.480   4.630  11.346 -0.9230 -0.4455  0.0301
  937MOL0     H26446   8.296   4.374  11.568  1.5526  3.4063  3.3729
  937MOL0     H26447   8.050   4.264  11.517 -0.9296 -2.1273 -3.3169
  937MOL0     H26448   7.933   4.411  11.514 -1.5497 -2.6791  2.6371
  937MOL0     H26449   8.048   4.277  11.267 -1.2374  0.9329 -0.9334
  937MOL0     H26450   7.929   4.398  11.282  0.9131  1.4539  0.5601
  937MOL0     H26451   7.808   4.200  11.235 -0.5812 -3.1114  0.8760
  937MOL0     H26452   7.767   4.244  11.402  0.3466  1.9854  0.2508
  937MOL0     H26453   7.988   4.049  11.326  1.5423  0.0146  2.1190
  937MOL0     H26454   7.828   4.000  11.313  2.7904 -1.3980 -1.9688
  937MOL0     H26455   7.781   3.800  11.445  1.9866  4.1115 -1.7597
  937MOL0     H26456   7.454   3.760  11.441 -0.5143 -0.2524  1.7880
  937MOL0     H26457   7.609   3.688  11.414  0.1114  1.7348 -0.0865
  937MOL0     H26458   7.508   3.636  11.560 -3.5756  0.1868  0.4563
  937MOL0     H26459   7.138   3.640  11.729 -1.5646  1.6653  0.4953
  937MOL0     H26460   6.971   3.627  11.909  0.1233 -2.4068 -1.1788
  937MOL0     H26461   6.844   3.648  12.098  0.7646  0.9403  0.4935
  937MOL0     H26462   6.931   3.489  12.125 -0.4239  0.1367 -0.3662
  937MOL0     H26463   6.758   3.496  12.270  0.1957 -1.0673  3.1964
  937MOL0     H26464   6.912   3.508  12.356  1.5489  0.7126  0.3324
  937MOL0     H26465   6.712   3.740  12.300  0.9584  4.6045  2.4802
  937MOL0     H26466   6.876   3.745  12.382  0.7782 -0.9382  0.0741
  937MOL0     H26467   6.648   3.578  12.466 -0.6463  1.0123 -1.7242
  937MOL0     H26468   6.783   3.628  12.574 -0.7701  2.4661  2.0862
  937MOL0     H26469   6.572   3.819  12.455 -0.1121  1.1284 -0.0263
  937MOL0     H26470   6.697   3.850  12.583 -0.6501 -1.2612  1.2695
  937MOL0     H26471   6.470   3.655  12.636 -0.4377  2.3793 -0.5068
  937MOL0     H26472   6.596   3.709  12.746  0.3524 -0.1264 -0.9662
  937MOL0     H26473   6.372   3.880  12.626  2.9463  1.9081 -1.5436
  937MOL0     H26474   6.505   3.950  12.712 -1.6004  0.0672  3.2641
  937MOL0     H26475   6.456   3.810  12.912  0.0739  3.0476  0.4396
  937MOL0     H26476   6.322   3.739  12.817 -0.1432  0.1620  0.4537
  937MOL0     H26477   7.277   3.683  12.184 -0.6068 -3.4404  0.1875
  937MOL0     H26478   7.450   3.749  11.991 -1.4386  3.3312  0.4783
  937MOL0     H26479   7.567   4.068  11.799  1.1092 -1.1501 -0.0430
  937MOL0     H26480   7.772   4.156  11.689  1.4074  0.4282 -3.9597
  937MOL0     H26481   9.165   4.313  11.758  0.6349  1.4544  1.2142
  937MOL0     H26482   9.263   4.111  11.626  0.0116  0.2913 -1.8785
  937MOL0     H26483   9.288   3.965  11.155 -0.3499  3.6945  2.9348
  937MOL0     H26484   9.373   3.765  11.026  0.7719 -1.8569  0.2396
  937MOL0     H26485   9.478   3.521  11.035 -2.2893  0.6030 -1.8597
  937MOL0     H26486   9.522   3.647  10.911  1.2045  0.4141  0.2357
  937MOL0     H26487   9.586   3.421  10.823 -1.4206 -0.2156  0.8409
  937MOL0     H26488   9.657   3.380  10.973 -1.9307  0.2813  1.4066
  937MOL0     H26489   9.828   3.552  10.948  1.5970  3.6709 -2.5260
  937MOL0     H26490   9.767   3.616  10.804  0.8651 -0.5588 -2.2957
  937MOL0     H26491   9.925   3.474  10.718  1.7332 -0.1558  1.8173
  937MOL0     H26492   9.801   3.345  10.722 -0.8500  1.0834  0.7253
  937MOL0     H26493  10.077   3.229  11.011 -0.4994 -0.5314 -2.0611
  937MOL0     H26494   9.720   3.753  11.276  1.6299  2.5080 -3.7715
  937MOL0     H26495   9.642   3.948  11.401 -0.4000  0.5920  0.4126
  938MOL0     O26496   4.504   8.688   6.792  0.3571  0.3713 -0.0650
  938MOL0     C26497   4.509   8.573   6.834 -1.1261  1.3327  0.3250
  938MOL0     O26498   4.468   8.465   6.766 -0.3233 -0.4537  0.4803
  938MOL0     C26499   4.434   8.472   6.631  0.0821  0.4333 -0.2657
  938MOL0     C26500   4.315   8.401   6.587  0.0501 -0.6583 -0.8932
  938MOL0     C26501   4.268   8.411   6.455  0.7085  0.5399  0.9104
  938MOL0     C26502   4.344   8.487   6.363  0.2483  0.2495 -0.0369
  938MOL0     O26503   4.308   8.511   6.228  0.2814 -0.3992 -0.6657
  938MOL0     C26504   4.249   8.403   6.163  0.1257  0.2902 -0.3824
  938MOL0     C26505   4.252   8.439   6.013 -0.6279  0.7552  0.3244
  938MOL0     C26506   4.399   8.452   5.961  0.0146 -0.1404 -0.6240
  938MOL0     C26507   4.400   8.468   5.809  1.2764 -0.3649 -0.5052
  938MOL0     C26508   4.522   8.523   5.755  0.0412 -0.3964  0.2698
  938MOL0     C26509   4.528   8.510   5.595 -0.4522 -0.3491 -0.9501
  938MOL0     C26510   4.657   8.574   5.542  0.4727 -0.4260  0.2328
  938MOL0     C26511   4.699   8.515   5.405  0.4122 -0.7922 -0.5957
  938MOL0     N26512   4.799   8.601   5.330  0.0303  0.2329 -0.6711
  938MOL0     C26513   4.799   8.621   5.196  0.6093  0.0883 -0.2990
  938MOL0     C26514   4.908   8.705   5.168  0.4937 -0.1117 -0.8299
  938MOL0     C26515   4.954   8.765   5.037 -0.3906 -0.2412 -0.8617
  938MOL0     C26516   4.875   8.887   5.001 -0.3289  0.2830  0.5493
  938MOL0     C26517   4.937   8.955   4.880 -1.2403 -0.5572 -1.1577
  938MOL0     C26518   4.901   8.881   4.751  0.4450  0.3589  0.6678
  938MOL0     O26519   4.955   8.967   4.652  0.5861  0.2746 -0.3234
  938MOL0     C26520   4.949   8.930   4.516 -0.2160 -0.5036 -1.0335
  938MOL0     C26521   4.996   9.019   4.420 -0.1741 -0.6069  1.1280
  938MOL0     C26522   4.996   8.983   4.287  0.6890  0.9520 -0.1252
  938MOL0     C26523   5.041   9.091   4.189  0.0262 -0.7356 -0.8939
  938MOL0     C26524   4.949   8.855   4.243 -0.0248  0.1283 -0.3063
  938MOL0     C26525   4.937   8.815   4.102 -0.1680 -0.2617  0.8242
  938MOL0     O26526   5.008   8.705   4.062 -0.3584  0.9627 -0.1306
  938MOL0     C26527   4.959   8.626   3.955 -0.6542  0.5008  0.4388
  938MOL0     C26528   4.966   8.670   3.820  0.1769  0.4727  0.9734
  938MOL0     C26529   4.932   8.572   3.721  0.1326  0.3040 -0.1527
  938MOL0     C26530   4.882   8.441   3.749  0.3449 -0.7779  0.4824
  938MOL0     O26531   4.847   8.354   3.649  0.0385  0.7954  0.3856
  938MOL0     C26532   4.864   8.379   3.516  1.2252 -0.4893 -0.4840
  938MOL0     C26533   4.828   8.248   3.450  0.1721  0.1046  0.4925
  938MOL0     C26534   4.744   8.274   3.324 -0.4592 -0.2904  0.2037
  938MOL0     C26535   4.596   8.265   3.347  0.3745  0.1898  0.1469
  938MOL0     C26536   4.521   8.133   3.330  0.3230  0.5250 -0.7126
  938MOL0     C26537   4.387   8.131   3.417  1.0210  0.3345  0.3697
  938MOL0     C26538   4.332   7.988   3.415  0.6033  1.2725  0.7052
  938MOL0     C26539   4.197   7.973   3.479  0.7239  0.1691  0.1395
  938MOL0    Cl26540   4.063   8.082   3.409 -0.1524  0.2364  0.3205
  938MOL0     C26541   4.864   8.410   3.877 -0.5169  0.4250 -0.9068
  938MOL0     C26542   4.902   8.496   3.982 -0.8523 -0.0699  0.3282
  938MOL0     O26543   4.845   8.860   4.042  0.3862 -0.5532  0.2661
  938MOL0     C26544   4.914   8.767   4.338 -0.8259 -0.0302 -0.5456
  938MOL0     C26545   4.895   8.804   4.471  0.5734 -0.8983 -0.3542
  938MOL0     N26546   4.959   8.739   5.292  0.2255  0.2268  0.0616
  938MOL0     N26547   4.901   8.672   5.387 -0.5480  0.7480 -0.2094
  938MOL0     C26548   4.467   8.547   6.405  0.1024  0.4473  0.2201
  938MOL0     C26549   4.518   8.535   6.535  0.3756 -0.3092  0.2145
  938MOL0     C26550   4.563   8.548   6.968  0.1912  0.0645 -0.4625
  938MOL0     C26551   4.588   8.649   7.064  0.6094 -0.2769  0.5564
  938MOL0     C26552   4.672   8.621   7.176  0.0808 -0.7107 -0.6596
  938MOL0     C26553   4.715   8.493   7.208 -0.2516 -0.1846  1.2108
  938MOL0     O26554   4.783   8.457   7.323 -0.5074 -0.4378  0.7931
  938MOL0     C26555   4.809   8.549   7.419  0.4108  0.4706 -0.6865
  938MOL0     C26556   4.805   8.461   7.553 -0.0274 -1.6720 -0.3291
  938MOL0     C26557   4.795   8.559   7.679  0.1784  0.7064  0.2015
  938MOL0     C26558   4.874   8.500   7.800  0.2823  0.0047 -1.3981
  938MOL0     C26559   4.847   8.572   7.924  0.0319 -0.7542 -0.1705
  938MOL0     C26560   4.828   8.634   8.027  0.2325 -0.1940 -0.1731
  938MOL0     C26561   4.686   8.395   7.123 -0.6954  0.1690  0.3292
  938MOL0     C26562   4.615   8.414   7.009 -0.0436  0.0608  1.0289
  938MOL0     H26563   4.264   8.330   6.651  0.6696 -0.7255 -0.4566
  938MOL0     H26564   4.175   8.363   6.429  0.3126  1.9832 -0.4598
  938MOL0     H26565   4.306   8.311   6.181  1.4550  0.7885 -1.7999
  938MOL0     H26566   4.147   8.383   6.197 -0.6763  1.3298 -2.0929
  938MOL0     H26567   4.205   8.353   5.964  2.2880 -0.9079  0.1738
  938MOL0     H26568   4.202   8.534   5.996  1.2328  1.6828 -0.1940
  938MOL0     H26569   4.440   8.537   6.017  2.5121 -2.5722  1.5362
  938MOL0     H26570   4.453   8.362   5.991 -4.2534 -2.5480  0.6303
  938MOL0     H26571   4.388   8.371   5.761  0.0086 -0.2233 -0.5149
  938MOL0     H26572   4.316   8.535   5.789  0.4062 -1.3613 -0.2633
  938MOL0     H26573   4.543   8.624   5.791  1.1302  0.5018 -2.5942
  938MOL0     H26574   4.595   8.453   5.795  0.2324 -0.1911  0.2835
  938MOL0     H26575   4.533   8.400   5.588 -2.1269 -0.9431  3.9255
  938MOL0     H26576   4.445   8.555   5.541  0.6533 -0.9233 -3.3084
  938MOL0     H26577   4.639   8.682   5.537 -3.6921 -1.0014 -4.3782
  938MOL0     H26578   4.734   8.542   5.612  2.1637  2.9524  0.1233
  938MOL0     H26579   4.613   8.512   5.338  0.1441  0.6275 -0.3391
  938MOL0     H26580   4.749   8.418   5.417  1.5566  0.0144  1.6528
  938MOL0     H26581   4.738   8.579   5.117  0.1244  3.7639 -2.0546
  938MOL0     H26582   5.059   8.798   5.044 -0.6295  0.5264 -0.7413
  938MOL0     H26583   4.948   8.682   4.966 -1.3633  0.2058 -1.3147
  938MOL0     H26584   4.866   8.957   5.085  0.9862 -0.6493  1.5023
  938MOL0     H26585   4.774   8.854   4.973  0.9450 -3.9540  0.1637
  938MOL0     H26586   5.046   8.960   4.894 -1.5212  0.5568  1.1872
  938MOL0     H26587   4.907   9.060   4.886  1.1540  0.1375  1.0717
  938MOL0     H26588   4.793   8.864   4.741  0.7237 -0.2324 -2.2490
  938MOL0     H26589   4.947   8.783   4.743 -1.6250 -0.6486  0.5381
  938MOL0     H26590   5.040   9.117   4.436  1.6265 -0.6199 -2.6685
  938MOL0     H26591   5.050   9.194   4.224 -0.0874  0.3585 -3.8534
  938MOL0     H26592   5.141   9.059   4.157  0.1757  0.4303 -1.6207
  938MOL0     H26593   4.960   9.099   4.115 -0.9685 -0.2417  0.2091
  938MOL0     H26594   4.998   8.770   3.791  0.7534 -0.1583 -0.6674
  938MOL0     H26595   4.936   8.614   3.621  1.0484  2.4874  0.7462
  938MOL0     H26596   4.789   8.457   3.501  0.0360 -0.6169  3.5957
  938MOL0     H26597   4.961   8.424   3.496  0.6662  0.5424 -0.9413
  938MOL0     H26598   4.918   8.190   3.429  0.0990  1.1217 -3.3407
  938MOL0     H26599   4.775   8.188   3.525  0.5452 -0.8043  0.0514
  938MOL0     H26600   4.778   8.199   3.252 -0.3867 -2.3360  2.2419
  938MOL0     H26601   4.772   8.366   3.272  3.2586  0.4944  3.1782
  938MOL0     H26602   4.584   8.296   3.451  1.0994  0.4124  0.1667
  938MOL0     H26603   4.541   8.342   3.291  0.7689  0.7201  0.4789
  938MOL0     H26604   4.586   8.056   3.374  0.5399  0.2854 -1.4353
  938MOL0     H26605   4.511   8.108   3.224 -3.6075 -2.1129  0.0525
  938MOL0     H26606   4.400   8.164   3.521 -0.7623  0.4550  0.5884
  938MOL0     H26607   4.316   8.200   3.370  1.9103  3.1049  2.7820
  938MOL0     H26608   4.393   7.918   3.474  2.6129  3.3726  1.2508
  938MOL0     H26609   4.336   7.951   3.312  1.7269 -4.0610  2.3098
  938MOL0     H26610   4.211   7.999   3.585  0.1409  1.0862  0.0032
  938MOL0     H26611   4.173   7.866   3.478 -0.5078  0.3360  2.8008
  938MOL0     H26612   4.828   8.317   3.919  2.3859 -0.1188  0.6658
  938MOL0     H26613   4.886   8.457   4.083  2.6304  0.5321  1.2267
  938MOL0     H26614   4.894   8.665   4.306 -1.4071 -1.3159  3.3775
  938MOL0     H26615   4.850   8.739   4.544 -2.5095  1.3618 -0.0668
  938MOL0     H26616   4.527   8.598   6.331  0.1250  2.2260  1.3992
  938MOL0     H26617   4.607   8.586   6.569  0.9280  2.7527 -4.8084
  938MOL0     H26618   4.556   8.749   7.038 -0.7997 -1.5250 -3.0383
  938MOL0     H26619   4.693   8.706   7.240  0.4594 -0.3396 -1.2619
  938MOL0     H26620   4.902   8.600   7.390  0.0438  0.5927 -1.7151
  938MOL0     H26621   4.740   8.631   7.437 -0.3051 -0.5885  1.7309
  938MOL0     H26622   4.901   8.412   7.571  0.9383  0.5788  1.1312
  938MOL0     H26623   4.717   8.397   7.556 -0.2309 -1.4356 -1.0612
  938MOL0     H26624   4.690   8.577   7.702  0.1563  1.2747 -0.3388
  938MOL0     H26625   4.858   8.647   7.667 -0.2083  1.4313  2.7418
  938MOL0     H26626   4.981   8.500   7.779  0.8113  2.6994  0.8056
  938MOL0     H26627   4.856   8.394   7.820  1.0964 -0.1535 -1.4816
  938MOL0     H26628   4.793   8.694   8.109 -0.5111  1.5889 -1.7056
  938MOL0     H26629   4.729   8.299   7.151  2.7123  1.2997 -0.4973
  938MOL0     H26630   4.590   8.333   6.941 -1.6205  1.0809  0.3450
  939MOL0     O26631   2.707   2.946   9.221 -0.7645 -0.4845 -0.2092
  939MOL0     C26632   2.775   3.050   9.209  0.4947 -0.0300  0.2315
  939MOL0     O26633   2.882   3.079   9.271  0.2833  0.3581  0.1912
  939MOL0     C26634   2.945   2.997   9.355  0.6080 -0.0281 -0.0252
  939MOL0     C26635   3.015   3.061   9.464 -0.3367  1.0983  1.4519
  939MOL0     C26636   3.096   2.976   9.542  0.5570 -0.7578  0.4173
  939MOL0     C26637   3.096   2.831   9.523  0.5010 -0.4039 -0.2687
  939MOL0     O26638   3.175   2.744   9.597  0.2545 -1.0074  0.0882
  939MOL0     C26639   3.289   2.781   9.672 -0.6746 -0.6069 -0.3525
  939MOL0     C26640   3.255   2.822   9.819 -0.0902  0.1593  0.4006
  939MOL0     C26641   3.374   2.811   9.915 -0.6360 -0.0253  1.1030
  939MOL0     C26642   3.339   2.888  10.044  0.0258  1.6610  0.6415
  939MOL0     C26643   3.452   2.940  10.132  0.2662  0.0755 -0.1612
  939MOL0     C26644   3.405   3.026  10.251  0.0182 -0.2521 -0.2067
  939MOL0     C26645   3.334   2.940  10.362  0.5554  0.0637  0.4211
  939MOL0     C26646   3.321   3.024  10.491  0.6749 -0.3900  0.0905
  939MOL0     N26647   3.232   3.139  10.473 -0.1489  0.0181  0.7279
  939MOL0     C26648   3.144   3.178  10.568  0.1953  0.0730 -0.1179
  939MOL0     C26649   3.091   3.296  10.535  0.2324  0.0494 -0.8762
  939MOL0     C26650   2.976   3.351  10.620 -0.0064  0.1729  0.0406
  939MOL0     C26651   2.888   3.457  10.551  0.0105  0.3801  0.0551
  939MOL0     C26652   2.825   3.404  10.426  0.7110  0.3815 -0.1355
  939MOL0     C26653   2.824   3.511  10.301  0.2293  0.0903  0.2243
  939MOL0     O26654   2.727   3.468  10.210 -0.4810 -0.4266  0.3194
  939MOL0     C26655   2.692   3.549  10.102  0.5620 -0.3069  0.0207
  939MOL0     C26656   2.585   3.496  10.025 -1.9902  0.2623  1.4742
  939MOL0     C26657   2.519   3.574   9.927  0.3083 -0.2242  0.7986
  939MOL0     C26658   2.414   3.499   9.844 -0.3267 -0.4117  0.1725
  939MOL0     C26659   2.557   3.709   9.907  0.3663  0.1854 -1.2592
  939MOL0     C26660   2.495   3.806   9.807  0.4776 -0.0912 -0.1562
  939MOL0     O26661   2.367   3.787   9.772 -0.2776 -0.0668  0.2074
  939MOL0     C26662   2.292   3.880   9.706 -0.4646  0.4165 -0.0566
  939MOL0     C26663   2.290   4.017   9.723  0.5760  1.3404 -0.4207
  939MOL0     C26664   2.202   4.090   9.650 -0.9029 -0.4260 -1.0530
  939MOL0     C26665   2.107   4.035   9.565 -0.0232  0.0351 -0.7527
  939MOL0     O26666   2.019   4.108   9.491 -0.6471  0.3434 -0.1394
  939MOL0     C26667   1.958   4.223   9.554 -0.7510  1.0787  0.2475
  939MOL0     C26668   1.850   4.192   9.655 -1.0161  0.7389 -0.1725
  939MOL0     C26669   1.756   4.310   9.692 -0.2222  0.9895  1.6894
  939MOL0     C26670   1.629   4.263   9.773 -0.0299  1.3167 -0.7505
  939MOL0     C26671   1.673   4.227   9.915 -0.0123  1.2115 -0.7664
  939MOL0     C26672   1.550   4.197  10.006 -0.2213 -0.3355  0.3533
  939MOL0     C26673   1.594   4.175  10.154 -0.5631  0.4440 -0.6649
  939MOL0     C26674   1.637   4.032  10.181 -0.5538  0.0830 -0.3753
  939MOL0    Cl26675   1.686   4.029  10.364  0.1494  0.0425  0.3544
  939MOL0     C26676   2.105   3.900   9.548  0.0031 -0.3229  0.4465
  939MOL0     C26677   2.197   3.819   9.620  0.0173  0.5452 -0.7957
  939MOL0     O26678   2.573   3.886   9.755  0.2041 -0.1857 -1.0126
  939MOL0     C26679   2.659   3.761   9.987 -1.5971  0.4324 -0.9275
  939MOL0     C26680   2.730   3.679  10.077 -0.2651  0.9445 -0.7582
  939MOL0     N26681   3.161   3.344  10.429  0.0283 -0.2705 -0.1407
  939MOL0     N26682   3.251   3.252  10.394 -0.6722 -0.8976 -0.4999
  939MOL0     C26683   3.027   2.780   9.410 -0.2715 -0.2402 -0.1461
  939MOL0     C26684   2.959   2.857   9.326  0.9901  0.1043 -0.0054
  939MOL0     C26685   2.709   3.156   9.123 -0.2257  0.7153  0.3837
  939MOL0     C26686   2.777   3.275   9.098 -0.1881 -0.7777  1.0213
  939MOL0     C26687   2.720   3.383   9.022 -0.5226  0.4467 -0.0281
  939MOL0     C26688   2.595   3.368   8.964 -0.2348 -0.6152  0.3103
  939MOL0     O26689   2.535   3.467   8.879 -0.2927 -0.3915 -0.6446
  939MOL0     C26690   2.609   3.586   8.851  0.6884 -0.6608  0.2568
  939MOL0     C26691   2.537   3.691   8.762 -0.1692  1.1259  0.1028
  939MOL0     C26692   2.438   3.781   8.828  0.1300  0.4203  0.4845
  939MOL0     C26693   2.317   3.808   8.746 -0.1215 -0.6555 -0.6889
  939MOL0     C26694   2.348   3.896   8.631 -1.2604 -0.6917  0.7143
  939MOL0     C26695   2.361   3.957   8.524 -0.7331  0.0286 -0.2611
  939MOL0     C26696   2.530   3.250   8.988 -0.0160  0.1096 -0.8567
  939MOL0     C26697   2.583   3.138   9.061  0.8601  0.3060  1.2845
  939MOL0     H26698   2.995   3.167   9.478 -2.3770  0.7763  1.3490
  939MOL0     H26699   3.149   3.022   9.625 -0.3897  0.4721  0.3564
  939MOL0     H26700   3.344   2.687   9.678 -0.9959 -0.7420  0.4896
  939MOL0     H26701   3.346   2.850   9.609 -0.6331 -1.7243 -1.5991
  939MOL0     H26702   3.219   2.926   9.817 -1.5080 -0.3030  0.6630
  939MOL0     H26703   3.172   2.759   9.854  0.4842 -0.7166  0.2074
  939MOL0     H26704   3.407   2.709   9.935  1.4293 -0.4521 -3.2578
  939MOL0     H26705   3.467   2.853   9.876 -0.4496  0.3783  1.9534
  939MOL0     H26706   3.281   2.977  10.018 -0.5163  1.3407  0.7373
  939MOL0     H26707   3.276   2.833  10.114  0.7273  0.8294  0.6356
  939MOL0     H26708   3.521   2.860  10.159 -0.6740 -0.8441 -0.4163
  939MOL0     H26709   3.512   3.011  10.074  1.4126 -0.6259  0.1215
  939MOL0     H26710   3.486   3.089  10.288  1.8518 -2.5702 -0.0063
  939MOL0     H26711   3.336   3.103  10.216 -2.5644 -0.2375  4.1458
  939MOL0     H26712   3.236   2.916  10.320 -0.8416  1.4796  2.6819
  939MOL0     H26713   3.401   2.855  10.379  1.0056  0.5309  1.0182
  939MOL0     H26714   3.421   3.056  10.520  0.7457 -1.1194  0.6883
  939MOL0     H26715   3.285   2.971  10.580  2.6695 -0.4426  0.8948
  939MOL0     H26716   3.108   3.102  10.637 -1.2913  3.1359  2.7754
  939MOL0     H26717   2.915   3.264  10.644 -0.8116 -0.8346 -4.5972
  939MOL0     H26718   3.009   3.398  10.712  0.3683  1.2600 -0.6250
  939MOL0     H26719   2.952   3.542  10.525 -0.4792  0.9152  0.5692
  939MOL0     H26720   2.804   3.497  10.609  0.5998  0.9196  0.5595
  939MOL0     H26721   2.722   3.376  10.449  0.1270  1.2491 -1.5860
  939MOL0     H26722   2.879   3.312  10.403  2.6455  1.4249 -0.0193
  939MOL0     H26723   2.926   3.524  10.262  0.3241  3.0382  1.1789
  939MOL0     H26724   2.804   3.614  10.332  0.2545 -0.0298  0.6604
  939MOL0     H26725   2.565   3.391  10.039  0.0076 -1.2976 -4.2849
  939MOL0     H26726   2.309   3.528   9.853 -0.2860 -0.2810  0.2331
  939MOL0     H26727   2.438   3.519   9.739 -1.9330 -0.9861 -0.3330
  939MOL0     H26728   2.418   3.391   9.858 -0.9489 -0.3580  0.8470
  939MOL0     H26729   2.371   4.053   9.786  2.1156 -0.5254 -1.2522
  939MOL0     H26730   2.223   4.196   9.656 -1.5746 -0.2569 -1.4828
  939MOL0     H26731   2.028   4.287   9.609 -3.7459  3.3586  1.6491
  939MOL0     H26732   1.913   4.271   9.467  0.9879 -0.0424 -1.3394
  939MOL0     H26733   1.789   4.120   9.600  1.7628 -1.5266 -0.5322
  939MOL0     H26734   1.901   4.146   9.740  2.0127 -0.2289 -2.3566
  939MOL0     H26735   1.720   4.355   9.598 -2.3019 -0.2698  1.8159
  939MOL0     H26736   1.802   4.392   9.748  0.7737 -0.3663  2.9348
  939MOL0     H26737   1.548   4.336   9.781 -0.6192  0.6566 -0.6085
  939MOL0     H26738   1.592   4.173   9.723  2.7119  0.2792 -1.0548
  939MOL0     H26739   1.725   4.316   9.950 -0.4267  0.3606  2.3256
  939MOL0     H26740   1.742   4.143   9.900 -2.8311 -1.0693 -1.8663
  939MOL0     H26741   1.476   4.278  10.008 -0.0588 -0.1573 -0.5867
  939MOL0     H26742   1.502   4.105   9.976  0.9167 -0.5373 -0.9492
  939MOL0     H26743   1.513   4.213  10.218  0.5205 -0.2506  1.2243
  939MOL0     H26744   1.681   4.240  10.155  1.5602 -2.1075  2.5240
  939MOL0     H26745   1.720   4.000  10.117 -0.3243 -1.9926  0.8631
  939MOL0     H26746   1.557   3.960  10.162 -0.1456  0.1527 -2.6086
  939MOL0     H26747   2.038   3.839   9.487  2.3435 -2.3528 -0.2852
  939MOL0     H26748   2.196   3.713   9.598  0.7221  0.8792 -2.6597
  939MOL0     H26749   2.703   3.859   9.968 -2.1783  1.5424  2.6756
  939MOL0     H26750   2.819   3.716  10.128  0.7754  1.2964 -2.7306
  939MOL0     H26751   3.032   2.673   9.392 -1.8493 -0.9778  2.9352
  939MOL0     H26752   2.912   2.817   9.237  0.3227 -0.0278  0.3976
  939MOL0     H26753   2.875   3.280   9.146 -0.2772 -3.0820  1.5724
  939MOL0     H26754   2.783   3.469   9.003 -0.0267  0.0431 -0.2463
  939MOL0     H26755   2.630   3.629   8.950  1.0854 -0.8831  0.2714
  939MOL0     H26756   2.709   3.563   8.814  0.5161  2.1186 -2.3785
  939MOL0     H26757   2.483   3.628   8.691  1.6239 -0.5053  0.1087
  939MOL0     H26758   2.610   3.748   8.705 -0.8729  3.0325  1.0300
  939MOL0     H26759   2.483   3.880   8.828 -0.4104  0.7833 -2.3996
  939MOL0     H26760   2.421   3.747   8.930  0.6875 -0.3103  0.3433
  939MOL0     H26761   2.249   3.860   8.814  3.2932 -0.9570  3.3874
  939MOL0     H26762   2.282   3.707   8.726 -1.2441 -0.2845 -0.6453
  939MOL0     H26763   2.362   4.005   8.428  1.7443  0.3508 -0.1325
  939MOL0     H26764   2.428   3.246   8.951  0.6608 -3.8631 -2.8936
  939MOL0     H26765   2.525   3.046   9.054  0.8599  0.3656  0.3287
  940MOL0     O26766   5.064   8.210   6.110 -0.7838 -0.2451 -0.7064
  940MOL0     C26767   4.949   8.247   6.101  0.2562  0.8787  0.0111
  940MOL0     O26768   4.895   8.312   5.993 -0.3925  0.0643 -0.2932
  940MOL0     C26769   4.966   8.333   5.879  0.3966  0.1247  0.3954
  940MOL0     C26770   4.951   8.453   5.814  0.1821 -0.5169  0.6493
  940MOL0     C26771   5.029   8.483   5.709  0.8710  1.2184  0.6825
  940MOL0     C26772   5.120   8.385   5.645  0.8619  0.1086 -0.3777
  940MOL0     O26773   5.174   8.425   5.527 -0.1957 -0.1358 -0.2927
  940MOL0     C26774   5.210   8.322   5.430 -0.2279  0.9142  0.2989
  940MOL0     C26775   5.356   8.325   5.392 -0.7422  0.6418 -0.1654
  940MOL0     C26776   5.443   8.262   5.505  0.5125  0.2696  0.4255
  940MOL0     C26777   5.515   8.366   5.582  0.0746  0.1014  0.6096
  940MOL0     C26778   5.608   8.294   5.669 -0.1539 -0.5456 -1.5333
  940MOL0     C26779   5.672   8.368   5.782 -0.2890 -0.4895  0.1739
  940MOL0     C26780   5.756   8.279   5.863 -0.8071 -0.0027  0.1010
  940MOL0     C26781   5.839   8.365   5.968 -0.4272 -0.2325 -0.5336
  940MOL0     N26782   5.802   8.341   6.108  0.0657  0.4603  0.3043
  940MOL0     C26783   5.856   8.243   6.183 -0.9460 -0.5495 -0.1647
  940MOL0     C26784   5.789   8.242   6.302 -0.8875 -0.4955 -1.9987
  940MOL0     C26785   5.795   8.127   6.399 -0.0330 -1.3528  0.0257
  940MOL0     C26786   5.658   8.051   6.420 -0.5479  0.4713  0.0679
  940MOL0     C26787   5.550   8.125   6.498 -0.5265  0.8921 -0.0637
  940MOL0     C26788   5.439   8.037   6.558 -0.1290  0.2120 -0.2428
  940MOL0     O26789   5.364   7.965   6.457  0.1657 -0.2836 -0.5224
  940MOL0     C26790   5.257   7.894   6.484 -0.4604  0.2301  0.2507
  940MOL0     C26791   5.187   7.914   6.605 -0.3250 -0.5869  0.1958
  940MOL0     C26792   5.071   7.851   6.629  0.5993  1.0576  0.6339
  940MOL0     C26793   4.988   7.901   6.745  0.1320  0.7581 -0.7023
  940MOL0     C26794   5.038   7.736   6.547  0.3781 -0.7530  0.0646
  940MOL0     C26795   4.935   7.655   6.582  0.3905  1.1012 -0.7168
  940MOL0     O26796   4.935   7.518   6.550  0.5197 -0.0581 -0.3374
  940MOL0     C26797   4.841   7.441   6.620 -1.2277  0.6180  0.6689
  940MOL0     C26798   4.838   7.443   6.762 -0.1447  0.3442  0.3626
  940MOL0     C26799   4.758   7.360   6.831  0.8752  0.2723 -0.4768
  940MOL0     C26800   4.661   7.291   6.761  0.1281  0.0314 -1.3447
  940MOL0     O26801   4.566   7.215   6.826  1.1719  0.3031  0.2226
  940MOL0     C26802   4.554   7.208   6.966  0.4405 -0.5789 -0.8105
  940MOL0     C26803   4.414   7.150   7.002 -0.1164  0.4155  0.0039
  940MOL0     C26804   4.306   7.263   6.971 -0.2347  0.5957  0.6010
  940MOL0     C26805   4.166   7.200   6.949 -1.0166  0.0852  0.3689
  940MOL0     C26806   4.054   7.300   6.953 -0.5152 -0.8187  0.1321
  940MOL0     C26807   3.925   7.244   6.915  0.3258 -0.0453  0.0647
  940MOL0     C26808   3.818   7.356   6.904 -0.4172 -0.3064  0.7533
  940MOL0     C26809   3.679   7.306   6.873  0.1304 -0.3526 -0.6062
  940MOL0    Cl26810   3.586   7.219   7.006 -0.4523 -0.4821 -0.3453
  940MOL0     C26811   4.650   7.290   6.626 -0.1153  0.5771 -0.1577
  940MOL0     C26812   4.741   7.365   6.551 -0.5242  0.2483  0.0416
  940MOL0     O26813   4.833   7.714   6.629 -0.0156  0.0949  0.0051
  940MOL0     C26814   5.120   7.702   6.445 -0.2467  0.8129  0.6745
  940MOL0     C26815   5.220   7.781   6.404  0.1598 -1.8885 -0.4026
  940MOL0     N26816   5.700   8.344   6.295 -0.3311 -0.1834 -0.0161
  940MOL0     N26817   5.711   8.408   6.186 -0.1195  0.1444 -0.1506
  940MOL0     C26818   5.121   8.256   5.702 -0.4009 -0.0674 -0.7726
  940MOL0     C26819   5.045   8.233   5.818 -0.5264  0.1178 -0.2246
  940MOL0     C26820   4.870   8.212   6.225 -0.0625  0.5144 -0.7206
  940MOL0     C26821   4.919   8.121   6.323 -0.0596  0.2287 -1.0709
  940MOL0     C26822   4.839   8.102   6.434  0.0945  0.4958 -0.2794
  940MOL0     C26823   4.711   8.151   6.448  0.8567  0.6388  0.5744
  940MOL0     O26824   4.628   8.111   6.555  0.0896  0.3784  0.1718
  940MOL0     C26825   4.601   7.972   6.567 -0.3712 -0.5046 -0.1842
  940MOL0     C26826   4.455   7.973   6.602 -0.6012  0.3316 -0.5742
  940MOL0     C26827   4.363   7.984   6.484 -0.3006  0.5428  0.4523
  940MOL0     C26828   4.225   8.029   6.533 -1.1364 -0.0361  0.8178
  940MOL0     C26829   4.148   8.082   6.420 -0.1242 -0.9031  0.1817
  940MOL0     C26830   4.070   8.144   6.348 -0.2069  0.3858  0.7803
  940MOL0     C26831   4.667   8.228   6.339  0.7757  0.2412 -0.4401
  940MOL0     C26832   4.742   8.271   6.235 -0.1628  0.1177 -0.3289
  940MOL0     H26833   4.878   8.524   5.850  0.6897  1.2087 -1.5382
  940MOL0     H26834   5.010   8.580   5.664 -1.4752  1.2099  1.5270
  940MOL0     H26835   5.186   8.224   5.472  0.2207  0.5640 -0.2539
  940MOL0     H26836   5.149   8.329   5.339  2.8134  3.2225 -1.7919
  940MOL0     H26837   5.360   8.264   5.300 -1.8672  0.2957 -0.0001
  940MOL0     H26838   5.395   8.424   5.367  1.3261  0.0639  0.5172
  940MOL0     H26839   5.385   8.191   5.563  0.6230 -2.3392 -2.4015
  940MOL0     H26840   5.523   8.203   5.458  0.5923  0.6406  0.0856
  940MOL0     H26841   5.573   8.439   5.524 -1.6134 -1.1373 -2.9777
  940MOL0     H26842   5.434   8.410   5.640  0.6196 -0.7817  2.0766
  940MOL0     H26843   5.559   8.202   5.704 -0.7467  0.9032  1.8845
  940MOL0     H26844   5.694   8.266   5.607  1.2857 -1.4906  0.7492
  940MOL0     H26845   5.720   8.456   5.739 -1.4523  0.2879  0.4246
  940MOL0     H26846   5.590   8.394   5.850  0.3625  0.4067  0.6287
  940MOL0     H26847   5.694   8.210   5.921 -1.6025 -1.7573 -2.6137
  940MOL0     H26848   5.819   8.220   5.796  0.3081  1.7009 -0.3988
  940MOL0     H26849   5.829   8.474   5.961 -0.9632 -0.1562  1.0342
  940MOL0     H26850   5.942   8.329   5.969  0.4690  1.6391  4.3892
  940MOL0     H26851   5.925   8.166   6.151 -0.2589  0.2436 -0.6390
  940MOL0     H26852   5.865   8.054   6.356  0.5413 -0.2170 -1.0139
  940MOL0     H26853   5.825   8.168   6.496 -0.4692  1.9024 -1.1017
  940MOL0     H26854   5.697   7.965   6.476  1.6135  2.0574  1.1060
  940MOL0     H26855   5.612   8.010   6.329 -0.3359 -0.7493  0.4887
  940MOL0     H26856   5.505   8.201   6.433 -0.0462  2.3559  1.2498
  940MOL0     H26857   5.610   8.165   6.580  0.5705 -1.0715  0.1737
  940MOL0     H26858   5.381   8.108   6.617  3.4680  1.8531  1.6782
  940MOL0     H26859   5.484   7.978   6.639  1.0817  1.5250  0.0941
  940MOL0     H26860   5.212   7.993   6.675 -3.0853  0.1294  0.4987
  940MOL0     H26861   4.924   7.836   6.805  2.5436  0.1520  1.3570
  940MOL0     H26862   5.056   7.934   6.823  1.1624 -3.0594  0.2322
  940MOL0     H26863   4.913   7.976   6.720 -0.4671  1.5153  2.8616
  940MOL0     H26864   4.920   7.495   6.810  1.3918 -0.4472 -1.2836
  940MOL0     H26865   4.769   7.359   6.939 -0.5179  2.3653 -0.2612
  940MOL0     H26866   4.635   7.148   7.009 -0.4460  0.4632  2.7007
  940MOL0     H26867   4.566   7.307   7.011 -0.8845 -0.9607  0.4818
  940MOL0     H26868   4.392   7.057   6.950  1.4362  1.1868 -2.1988
  940MOL0     H26869   4.396   7.124   7.107  0.6691 -0.5504 -0.0938
  940MOL0     H26870   4.328   7.320   6.879 -1.0841 -1.1919 -0.7765
  940MOL0     H26871   4.299   7.338   7.050 -1.6076 -1.5977  2.6872
  940MOL0     H26872   4.165   7.162   6.846 -2.5358 -1.3842  0.8838
  940MOL0     H26873   4.151   7.116   7.018 -0.8710 -0.1192  0.1565
  940MOL0     H26874   4.072   7.396   6.905 -1.0650 -0.8489 -0.1479
  940MOL0     H26875   4.055   7.339   7.055 -0.6415  0.3172 -0.2894
  940MOL0     H26876   3.942   7.202   6.816  0.8878 -2.9375  1.2854
  940MOL0     H26877   3.910   7.162   6.987  0.2519 -0.5505 -0.5172
  940MOL0     H26878   3.856   7.428   6.831 -0.0603  1.4772  2.6076
  940MOL0     H26879   3.815   7.409   7.000 -0.8440  0.8430  0.1189
  940MOL0     H26880   3.676   7.230   6.794 -3.5768 -3.4011  2.0403
  940MOL0     H26881   3.629   7.396   6.837 -0.6936  1.0312  3.4920
  940MOL0     H26882   4.566   7.243   6.574 -2.5779  0.3323  3.6475
  940MOL0     H26883   4.721   7.378   6.445 -2.0489  1.4539  0.4303
  940MOL0     H26884   5.087   7.616   6.387 -1.9100  0.4462  2.0914
  940MOL0     H26885   5.278   7.760   6.315 -0.8248 -0.6133 -1.3794
  940MOL0     H26886   5.199   8.196   5.657 -0.9883 -0.0519 -1.8297
  940MOL0     H26887   5.059   8.140   5.872 -0.8940  2.5879  4.6792
  940MOL0     H26888   5.010   8.062   6.322 -1.5895 -2.4008  0.8200
  940MOL0     H26889   4.883   8.031   6.502 -1.0271  0.0608  0.0244
  940MOL0     H26890   4.627   7.915   6.478  1.7131  0.5956 -0.3399
  940MOL0     H26891   4.657   7.941   6.656 -1.4792 -1.2653  0.2777
  940MOL0     H26892   4.428   8.033   6.689  0.2692 -1.7421  1.2124
  940MOL0     H26893   4.429   7.875   6.645 -3.3867  2.3188  2.7435
  940MOL0     H26894   4.364   7.894   6.421  3.8749  1.1123 -0.5956
  940MOL0     H26895   4.404   8.066   6.424 -1.9663  0.3300 -1.0364
  940MOL0     H26896   4.234   8.100   6.615  1.0536  1.2491 -0.4288
  940MOL0     H26897   4.178   7.936   6.566 -0.7821  0.0456  1.5544
  940MOL0     H26898   3.998   8.186   6.281 -0.6666 -0.8781  0.4517
  940MOL0     H26899   4.569   8.272   6.348 -1.4494 -4.1485 -0.6824
  940MOL0     H26900   4.706   8.327   6.150 -1.2661 -0.5861 -0.3423
  941MOL0     O26901   0.255   8.263   3.499 -0.3669  0.0664  0.3019
  941MOL0     C26902   0.318   8.272   3.395 -0.5920  0.3727  0.8665
  941MOL0     O26903   0.382   8.382   3.353 -0.0649 -0.3976  0.9772
  941MOL0     C26904   0.410   8.492   3.436 -0.4953 -1.0104  0.8493
  941MOL0     C26905   0.439   8.478   3.571 -0.3454  0.0857 -0.7165
  941MOL0     C26906   0.460   8.592   3.650  0.2493  0.2553 -0.9327
  941MOL0     C26907   0.491   8.722   3.596 -0.5253  0.3106 -1.2046
  941MOL0     O26908   0.545   8.825   3.686 -0.1112 -0.0911  0.5428
  941MOL0     C26909   0.488   8.959   3.684 -0.0965 -0.6380  0.4937
  941MOL0     C26910   0.336   8.959   3.727 -0.0029 -0.0539 -0.2407
  941MOL0     C26911   0.330   8.940   3.872 -0.6205  0.0644  0.0002
  941MOL0     C26912   0.192   8.897   3.913  0.3318 -0.3559 -0.9648
  941MOL0     C26913   0.171   8.748   3.899  0.0776 -0.1944  0.6997
  941MOL0     C26914   0.037   8.685   3.953 -0.7429 -0.2008  0.0984
  941MOL0     C26915  -0.086   8.777   3.924 -0.8981  0.6426  0.3388
  941MOL0     C26916  -0.192   8.761   4.039 -1.0653  0.7274 -0.4830
  941MOL0     N26917  -0.319   8.827   4.005 -1.1358  0.8686 -0.6764
  941MOL0     C26918  -0.336   8.949   3.938  0.2105 -0.4932  0.4030
  941MOL0     C26919  -0.466   8.970   3.934  0.6943 -0.0993  0.5338
  941MOL0     C26920  -0.535   9.086   3.869 -0.2941 -0.6861 -0.6363
  941MOL0     C26921  -0.561   9.210   3.961 -0.0323  0.1092 -0.0124
  941MOL0     C26922  -0.641   9.174   4.098  0.4421 -0.1519  0.8880
  941MOL0     C26923  -0.798   9.167   4.081 -0.1114 -0.0526  0.7304
  941MOL0     O26924  -0.820   9.046   4.003 -0.3019  0.7286 -0.2418
  941MOL0     C26925  -0.944   9.000   3.958  1.1860 -0.3554  0.1888
  941MOL0     C26926  -1.058   9.024   4.026  0.7047 -0.8985 -0.3504
  941MOL0     C26927  -1.179   8.966   3.993  0.5871 -0.1469  1.0343
  941MOL0     C26928  -1.295   8.979   4.075  1.1155 -1.1373  0.3865
  941MOL0     C26929  -1.189   8.905   3.863 -0.4653  0.0774  1.0068
  941MOL0     C26930  -1.311   8.861   3.794  0.1829 -0.0339  0.7166
  941MOL0     O26931  -1.432   8.875   3.854  0.2296  0.0700  0.6814
  941MOL0     C26932  -1.548   8.820   3.795  1.2722 -1.0560 -0.8251
  941MOL0     C26933  -1.613   8.864   3.680  0.5315  0.3939  1.7056
  941MOL0     C26934  -1.732   8.804   3.633  0.1408  0.0003 -0.2608
  941MOL0     C26935  -1.795   8.692   3.695 -0.2916  0.4500 -0.9388
  941MOL0     O26936  -1.889   8.616   3.629  0.4253 -0.4551 -1.0649
  941MOL0     C26937  -1.979   8.675   3.546  0.1471 -0.5857  0.5773
  941MOL0     C26938  -2.074   8.573   3.486  0.1248 -0.9694 -1.0567
  941MOL0     C26939  -2.183   8.661   3.423  1.0711 -0.2432  0.2174
  941MOL0     C26940  -2.282   8.568   3.358 -0.1441 -0.2871  0.5774
  941MOL0     C26941  -2.390   8.653   3.287 -0.5635 -0.6765 -0.1576
  941MOL0     C26942  -2.510   8.581   3.264 -0.1645 -0.0062  0.5372
  941MOL0     C26943  -2.488   8.461   3.163  0.1982 -0.3491 -0.5107
  941MOL0     C26944  -2.622   8.417   3.105  0.3618  0.7673  0.7439
  941MOL0    Cl26945  -2.574   8.320   2.957 -0.1801 -0.2791 -0.1333
  941MOL0     C26946  -1.722   8.643   3.811 -0.4967 -0.4476  0.5411
  941MOL0     C26947  -1.614   8.709   3.862 -1.1373 -0.0029  0.2253
  941MOL0     O26948  -1.296   8.849   3.672  0.6160  0.2437 -0.1010
  941MOL0     C26949  -1.064   8.898   3.795 -0.0390 -0.1795  0.2481
  941MOL0     C26950  -0.947   8.934   3.839 -0.3323 -0.1844 -0.6491
  941MOL0     N26951  -0.528   8.863   4.004 -1.1527  0.3721 -0.1755
  941MOL0     N26952  -0.437   8.785   4.054 -0.7809  0.6175  0.2220
  941MOL0     C26953   0.469   8.736   3.460  0.1901 -0.2173 -0.1807
  941MOL0     C26954   0.419   8.628   3.385  0.1687 -0.4121  0.1279
  941MOL0     C26955   0.302   8.164   3.313 -0.0243  0.6409  0.5474
  941MOL0     C26956   0.276   8.188   3.177  0.5431 -0.6273 -0.2509
  941MOL0     C26957   0.276   8.075   3.091  0.2009  0.3003  0.7331
  941MOL0     C26958   0.300   7.937   3.127  0.1221 -0.1460 -0.2188
  941MOL0     O26959   0.344   7.841   3.047 -0.2224  0.4545 -0.5519
  941MOL0     C26960   0.325   7.830   2.907 -0.0968 -0.6346  0.4139
  941MOL0     C26961   0.355   7.690   2.854  0.4992  0.3748  0.1294
  941MOL0     C26962   0.506   7.649   2.861  0.0595  1.0195 -0.1737
  941MOL0     C26963   0.546   7.583   2.728  0.2327  0.8612 -0.6987
  941MOL0     C26964   0.542   7.681   2.624 -0.3030  0.4647  0.5410
  941MOL0     C26965   0.525   7.780   2.551 -0.2524  0.4145  0.2029
  941MOL0     C26966   0.304   7.915   3.271  0.4939  0.4647 -0.8151
  941MOL0     C26967   0.300   8.030   3.356  0.0049 -0.4405 -0.0403
  941MOL0     H26968   0.437   8.376   3.607  1.5213  0.0038 -0.7868
  941MOL0     H26969   0.472   8.583   3.757 -0.9491  1.7450 -0.6252
  941MOL0     H26970   0.532   9.029   3.756 -1.9602  1.2595 -0.1124
  941MOL0     H26971   0.497   8.996   3.582  2.3178 -0.4294  0.7326
  941MOL0     H26972   0.289   9.054   3.701  0.4257  1.4450  3.7503
  941MOL0     H26973   0.293   8.872   3.676 -1.0277  0.9639 -1.1632
  941MOL0     H26974   0.403   8.865   3.903  1.1675  1.4745 -0.6372
  941MOL0     H26975   0.359   9.032   3.923 -2.0044  0.9100 -0.6656
  941MOL0     H26976   0.178   8.921   4.019  1.5192  0.4397 -0.9743
  941MOL0     H26977   0.116   8.957   3.862 -1.0778 -1.3844 -0.1777
  941MOL0     H26978   0.179   8.718   3.794  1.3567 -0.0581  0.7430
  941MOL0     H26979   0.256   8.695   3.943  0.0316  0.6970  1.9121
  941MOL0     H26980   0.028   8.589   3.902  1.6977  0.1058 -1.0952
  941MOL0     H26981   0.056   8.675   4.060  0.3683  3.8814  0.4702
  941MOL0     H26982  -0.060   8.882   3.907  0.3348  0.2148 -0.5498
  941MOL0     H26983  -0.126   8.755   3.825  3.1029 -1.7267 -0.9813
  941MOL0     H26984  -0.153   8.801   4.133 -0.6047 -0.6718 -0.0543
  941MOL0     H26985  -0.212   8.656   4.063 -0.6625  0.7197 -0.1649
  941MOL0     H26986  -0.254   9.003   3.892 -3.3960  2.9519 -2.7395
  941MOL0     H26987  -0.488   9.110   3.773  0.6029 -3.2770 -0.9256
  941MOL0     H26988  -0.633   9.056   3.833  0.7777 -1.4214 -3.2160
  941MOL0     H26989  -0.611   9.291   3.907  2.0352 -0.0749 -2.3836
  941MOL0     H26990  -0.461   9.238   3.996  1.9834 -5.5438 -0.1230
  941MOL0     H26991  -0.613   9.254   4.168 -0.6836 -0.5238  1.7938
  941MOL0     H26992  -0.591   9.091   4.148  2.4269  0.6319  0.2734
  941MOL0     H26993  -0.842   9.258   4.039 -2.5088 -0.5836  1.8954
  941MOL0     H26994  -0.853   9.159   4.176 -2.0858  1.4631 -0.2115
  941MOL0     H26995  -1.046   9.077   4.120  0.1775  2.5114 -2.0295
  941MOL0     H26996  -1.355   8.887   4.069 -0.9252  0.1961 -0.5740
  941MOL0     H26997  -1.278   8.994   4.182 -0.5706  2.2752  0.3003
  941MOL0     H26998  -1.354   9.064   4.043 -1.1984 -1.9570  2.1512
  941MOL0     H26999  -1.553   8.947   3.645  2.5287 -1.8236 -0.5607
  941MOL0     H27000  -1.776   8.849   3.545 -1.5358  1.1030  1.0748
  941MOL0     H27001  -2.026   8.763   3.590  2.2635  0.1361  1.5326
  941MOL0     H27002  -1.925   8.721   3.463 -0.9637  1.2105  0.8050
  941MOL0     H27003  -2.033   8.497   3.419 -2.6098 -4.5060  0.9171
  941MOL0     H27004  -2.126   8.502   3.551 -1.9621  0.3027 -1.2693
  941MOL0     H27005  -2.146   8.725   3.343  2.1486 -0.6531  0.3702
  941MOL0     H27006  -2.238   8.703   3.508  1.4615  2.0854 -0.5960
  941MOL0     H27007  -2.236   8.506   3.280  0.0122  0.9688 -0.3714
  941MOL0     H27008  -2.327   8.514   3.441 -0.3682  1.0076  1.3211
  941MOL0     H27009  -2.352   8.685   3.189  1.4421 -3.0179 -0.2421
  941MOL0     H27010  -2.411   8.732   3.360  1.4694 -0.4938  0.2941
  941MOL0     H27011  -2.548   8.544   3.359 -2.6517  4.1149  1.4238
  941MOL0     H27012  -2.589   8.652   3.237 -0.1043  0.8421  2.4111
  941MOL0     H27013  -2.449   8.368   3.205 -1.4943 -1.4831 -1.3560
  941MOL0     H27014  -2.411   8.484   3.090 -1.3620  0.6896 -1.8956
  941MOL0     H27015  -2.691   8.498   3.078 -1.1453 -0.0885  1.8577
  941MOL0     H27016  -2.674   8.350   3.175 -0.2519 -0.5851 -0.9217
  941MOL0     H27017  -1.774   8.562   3.860  1.5204 -2.4280 -0.4086
  941MOL0     H27018  -1.585   8.674   3.960  1.6284  1.5787  0.0713
  941MOL0     H27019  -1.060   8.852   3.697  1.5200 -3.4700  1.7038
  941MOL0     H27020  -0.849   8.933   3.792 -0.5134  3.2137 -1.3903
  941MOL0     H27021   0.478   8.838   3.424 -0.6333  0.1047  0.4640
  941MOL0     H27022   0.382   8.646   3.284 -1.6263 -1.1547  0.6046
  941MOL0     H27023   0.274   8.291   3.141  1.6774 -0.3651  0.3550
  941MOL0     H27024   0.240   8.091   2.990 -1.3326 -1.1581  1.0002
  941MOL0     H27025   0.225   7.870   2.888  1.5042  3.2029 -0.8376
  941MOL0     H27026   0.402   7.895   2.865  1.0624 -1.0515  1.8190
  941MOL0     H27027   0.326   7.688   2.748  2.6890 -0.4266 -0.5128
  941MOL0     H27028   0.284   7.627   2.908 -2.4447  1.9066 -1.6863
  941MOL0     H27029   0.512   7.572   2.939 -3.6870 -1.6774 -2.2586
  941MOL0     H27030   0.567   7.736   2.889 -2.5902  3.2561 -0.9818
  941MOL0     H27031   0.474   7.502   2.715  2.3430 -1.4816  1.2890
  941MOL0     H27032   0.647   7.546   2.745 -0.6071 -1.6882 -0.7879
  941MOL0     H27033   0.496   7.859   2.484 -0.6515  1.4772  1.5816
  941MOL0     H27034   0.318   7.814   3.309  2.2641  1.1641  0.5425
  941MOL0     H27035   0.303   8.000   3.460  1.6966 -0.4365 -0.0677
  942MOL0     O27036   7.882   5.659   2.957  0.2206  0.0681 -0.2515
  942MOL0     C27037   7.999   5.703   2.934  0.1085 -0.0516 -0.3839
  942MOL0     O27038   8.058   5.817   2.998 -0.3253 -0.4131  0.6642
  942MOL0     C27039   8.004   5.869   3.117  0.2347  0.1642  0.4640
  942MOL0     C27040   8.101   5.914   3.212 -0.0713 -0.3535 -0.4611
  942MOL0     C27041   8.050   5.969   3.335 -0.5752 -0.6363  0.5868
  942MOL0     C27042   7.911   5.997   3.356 -0.2879  0.7153  0.6050
  942MOL0     O27043   7.863   6.056   3.467  0.7558  0.6979  0.5534
  942MOL0     C27044   7.768   5.970   3.547  0.2099  0.0310  0.2835
  942MOL0     C27045   7.773   6.016   3.691 -0.4099  0.5512 -0.3496
  942MOL0     C27046   7.856   5.927   3.781  0.1060  1.3846  0.1003
  942MOL0     C27047   7.999   5.924   3.740  1.1696  0.0891  1.1452
  942MOL0     C27048   8.081   5.838   3.836  0.3616 -0.2707 -0.5450
  942MOL0     C27049   8.107   5.904   3.978  0.2481  1.0099  1.2767
  942MOL0     C27050   8.182   5.822   4.074 -0.2961  0.1380  0.0207
  942MOL0     C27051   8.116   5.697   4.127 -0.5186 -0.3460  0.3824
  942MOL0     N27052   7.978   5.731   4.166  0.6203  0.4485  0.3396
  942MOL0     C27053   7.930   5.776   4.288  0.4177 -0.3285  0.4835
  942MOL0     C27054   7.801   5.811   4.276  0.9811 -0.0989  0.1630
  942MOL0     C27055   7.715   5.867   4.389 -0.4582  1.0449  0.7627
  942MOL0     C27056   7.593   5.764   4.407  0.0760  0.3372 -0.1508
  942MOL0     C27057   7.460   5.840   4.432  1.1230 -0.8306  0.2115
  942MOL0     C27058   7.463   5.889   4.573 -0.0205  0.4267  0.4448
  942MOL0     O27059   7.365   5.987   4.586 -0.5082  0.6473  0.1862
  942MOL0     C27060   7.255   5.948   4.651 -0.2652 -0.9992  0.6051
  942MOL0     C27061   7.247   5.951   4.791  0.1561  0.9655 -0.4867
  942MOL0     C27062   7.137   5.915   4.860  0.0745  0.1402  0.1848
  942MOL0     C27063   7.155   5.886   5.014 -0.0215  0.0054  0.5475
  942MOL0     C27064   7.016   5.881   4.790  0.3068 -0.3783 -0.0005
  942MOL0     C27065   6.888   5.838   4.858  0.7168  0.8692  0.3727
  942MOL0     O27066   6.783   5.779   4.788  0.6282 -0.0931 -0.3951
  942MOL0     C27067   6.659   5.776   4.835  0.3603  0.2404  0.2802
  942MOL0     C27068   6.585   5.888   4.861 -0.3055 -0.2916  0.4607
  942MOL0     C27069   6.464   5.894   4.925  0.7502  0.1825  0.7119
  942MOL0     C27070   6.394   5.772   4.953 -0.2491 -0.4365  0.5458
  942MOL0     O27071   6.265   5.746   4.991  0.2247 -0.4278  0.1262
  942MOL0     C27072   6.198   5.841   5.083  0.3766  0.1272  0.0823
  942MOL0     C27073   6.072   5.756   5.125  0.3065 -0.2165 -0.2964
  942MOL0     C27074   5.977   5.836   5.211 -0.2065 -0.1386 -0.1051
  942MOL0     C27075   5.855   5.755   5.265  0.1126 -0.7730  0.2015
  942MOL0     C27076   5.810   5.820   5.396  0.4987  0.0651 -0.0111
  942MOL0     C27077   5.687   5.744   5.454  0.2746  1.3649 -0.3041
  942MOL0     C27078   5.716   5.718   5.604  0.4875  0.6553 -0.0934
  942MOL0     C27079   5.594   5.663   5.676  0.3696 -1.0739 -0.6858
  942MOL0    Cl27080   5.463   5.791   5.670  0.3860 -0.2153  0.3127
  942MOL0     C27081   6.466   5.654   4.921  1.1146 -0.5353  0.2865
  942MOL0     C27082   6.589   5.661   4.868 -0.4194  0.1280  0.6186
  942MOL0     O27083   6.883   5.887   4.968  0.3868 -0.8326  0.0070
  942MOL0     C27084   7.025   5.893   4.654  0.2969  0.2164  0.1726
  942MOL0     C27085   7.135   5.939   4.582  0.6179 -0.5115 -0.1050
  942MOL0     N27086   7.772   5.783   4.141  0.3201 -0.1142  0.1473
  942MOL0     N27087   7.877   5.738   4.077 -0.5640 -0.4152 -0.5633
  942MOL0     C27088   7.820   5.965   3.251 -0.3469 -1.1029 -0.7456
  942MOL0     C27089   7.869   5.908   3.134 -0.2686 -0.2941 -0.4305
  942MOL0     C27090   8.087   5.626   2.851 -0.5643 -0.1743  0.0407
  942MOL0     C27091   8.156   5.693   2.748  0.1781 -0.3071  0.9512
  942MOL0     C27092   8.260   5.626   2.674 -0.3421  0.7641 -0.2828
  942MOL0     C27093   8.273   5.490   2.686 -0.5198 -0.5182  0.8456
  942MOL0     O27094   8.371   5.434   2.610 -0.0700 -0.2813  0.2752
  942MOL0     C27095   8.391   5.286   2.604 -0.8418 -1.3348 -0.7073
  942MOL0     C27096   8.301   5.217   2.515  0.2584  0.2419  0.0563
  942MOL0     C27097   8.268   5.069   2.550 -0.0283 -0.0076  0.2680
  942MOL0     C27098   8.383   4.981   2.589  0.1614 -0.5430 -0.2544
  942MOL0     C27099   8.356   4.847   2.632  1.3112  0.7726 -0.4347
  942MOL0     C27100   8.345   4.736   2.674  0.5973  0.1376  0.4586
  942MOL0     C27101   8.198   5.420   2.781 -0.4872  0.0851  0.0797
  942MOL0     C27102   8.110   5.490   2.862 -0.7553 -0.9153 -0.6886
  942MOL0     H27103   8.203   5.905   3.177 -0.2854 -2.9017 -0.6438
  942MOL0     H27104   8.122   5.996   3.411  0.2252  1.7289 -0.9110
  942MOL0     H27105   7.670   5.972   3.499  1.1938  3.0548 -1.8731
  942MOL0     H27106   7.813   5.870   3.548 -0.0592 -0.0973  1.4738
  942MOL0     H27107   7.818   6.115   3.697  0.0552  0.3053  0.3340
  942MOL0     H27108   7.671   6.023   3.731  0.2985  0.8204  1.5349
  942MOL0     H27109   7.846   5.955   3.886 -0.3002 -0.7524  0.6980
  942MOL0     H27110   7.807   5.828   3.785 -1.2953  2.0904  3.0220
  942MOL0     H27111   7.996   5.884   3.638  2.2995  3.0397 -0.1771
  942MOL0     H27112   8.045   6.022   3.725  1.3785 -0.1506  0.1175
  942MOL0     H27113   8.029   5.742   3.848 -0.2228 -0.3479 -3.0553
  942MOL0     H27114   8.178   5.809   3.796  1.7589  2.6819  0.4401
  942MOL0     H27115   8.164   5.991   3.944  0.1864  0.2027 -1.0802
  942MOL0     H27116   8.018   5.949   4.023 -0.1284  3.8075 -1.8477
  942MOL0     H27117   8.276   5.796   4.024 -1.4296 -1.0172 -1.5785
  942MOL0     H27118   8.206   5.891   4.156 -1.3253  1.6091 -0.8833
  942MOL0     H27119   8.161   5.663   4.221 -2.3089  0.1540  1.4817
  942MOL0     H27120   8.127   5.627   4.043  0.0117 -1.7851  1.5957
  942MOL0     H27121   7.975   5.788   4.387  1.8781  2.1909 -0.3944
  942MOL0     H27122   7.782   5.847   4.473  1.3936  1.6743 -0.4972
  942MOL0     H27123   7.695   5.975   4.383 -0.9561  1.0167  1.6627
  942MOL0     H27124   7.603   5.704   4.498  0.9534  0.8607  0.1021
  942MOL0     H27125   7.585   5.699   4.319 -5.3081 -4.0961  2.9533
  942MOL0     H27126   7.375   5.771   4.424 -0.7653  0.7492  4.0385
  942MOL0     H27127   7.433   5.918   4.360 -0.1165 -0.9053  0.5717
  942MOL0     H27128   7.556   5.937   4.604  1.9352 -0.6934 -3.1420
  942MOL0     H27129   7.444   5.797   4.628 -1.5428  0.8958  0.7745
  942MOL0     H27130   7.344   5.955   4.841  0.2256 -1.9023 -0.2037
  942MOL0     H27131   7.111   5.972   5.066 -1.3433 -1.7654  2.4736
  942MOL0     H27132   7.098   5.801   5.052 -0.0046 -0.8226 -1.2037
  942MOL0     H27133   7.258   5.862   5.043  0.0073 -0.2260  0.2553
  942MOL0     H27134   6.636   5.981   4.841  0.7270 -1.1785 -1.2753
  942MOL0     H27135   6.415   5.985   4.960 -1.3180 -1.4765  2.3866
  942MOL0     H27136   6.258   5.862   5.172  0.4204  4.3457 -0.7476
  942MOL0     H27137   6.162   5.938   5.048 -1.0166 -0.4979 -0.2970
  942MOL0     H27138   6.013   5.728   5.037 -0.2529  1.8700 -0.6390
  942MOL0     H27139   6.097   5.671   5.190  0.8850  1.3213  1.5816
  942MOL0     H27140   5.928   5.925   5.170  0.7725 -0.6022 -2.4094
  942MOL0     H27141   6.036   5.861   5.300  0.8118 -2.1670 -0.1593
  942MOL0     H27142   5.776   5.760   5.188 -2.1728  0.4430  2.4814
  942MOL0     H27143   5.867   5.647   5.272 -3.0683 -1.4177 -1.8616
  942MOL0     H27144   5.784   5.923   5.371  0.9898 -0.2533 -1.9749
  942MOL0     H27145   5.878   5.811   5.481 -2.5762 -1.3923  2.5546
  942MOL0     H27146   5.595   5.801   5.441 -0.5391  0.2242  0.3238
  942MOL0     H27147   5.662   5.652   5.400  2.2054  0.3446  0.4343
  942MOL0     H27148   5.762   5.807   5.650  1.0695  0.5998 -0.5614
  942MOL0     H27149   5.790   5.638   5.612  0.0485  0.1878 -0.6142
  942MOL0     H27150   5.629   5.639   5.777  2.8698  1.7789 -0.7230
  942MOL0     H27151   5.557   5.574   5.625 -1.7947 -0.2335 -0.6770
  942MOL0     H27152   6.413   5.564   4.951  0.8821 -0.0240  1.4509
  942MOL0     H27153   6.639   5.565   4.863  1.2538  0.9889 -0.1128
  942MOL0     H27154   6.936   5.872   4.596  2.4169  1.6390 -3.9680
  942MOL0     H27155   7.137   5.955   4.474  4.2238  2.0086  0.1789
  942MOL0     H27156   7.717   5.999   3.248  0.3538  1.2721 -0.1514
  942MOL0     H27157   7.812   5.898   3.042  1.6489 -0.6698 -1.6358
  942MOL0     H27158   8.132   5.796   2.723 -1.6240 -0.1385  3.1029
  942MOL0     H27159   8.321   5.681   2.603  0.1262  0.2590 -0.2755
  942MOL0     H27160   8.491   5.260   2.568  0.4457  2.1785 -0.1157
  942MOL0     H27161   8.384   5.255   2.709  2.3127  0.8491  0.2911
  942MOL0     H27162   8.351   5.212   2.418  0.8035 -2.5294  0.4060
  942MOL0     H27163   8.209   5.276   2.507 -1.0184 -1.1245  3.1761
  942MOL0     H27164   8.225   5.035   2.455  1.7203  2.6055 -1.5974
  942MOL0     H27165   8.188   5.063   2.625  0.0978 -1.3681  0.3172
  942MOL0     H27166   8.429   5.021   2.680  3.0723 -1.0469 -1.3914
  942MOL0     H27167   8.456   4.960   2.511  0.6568  1.6938 -0.4736
  942MOL0     H27168   8.343   4.638   2.719 -1.2373  0.1290  0.4104
  942MOL0     H27169   8.208   5.313   2.792 -1.6898 -0.6256 -3.9308
  942MOL0     H27170   8.068   5.433   2.945  0.8333 -1.0431  0.0644
  943MOL0     O27171  10.866   7.548   0.628  0.5183 -0.1901 -0.4207
  943MOL0     C27172  10.914   7.473   0.708  0.3481  0.3839 -0.2822
  943MOL0     O27173  10.947   7.503   0.837 -0.5542 -0.5878  0.5889
  943MOL0     C27174  10.965   7.633   0.876  0.2331 -0.1462 -0.2075
  943MOL0     C27175  10.863   7.731   0.886  0.3969  0.2671  0.8908
  943MOL0     C27176  10.891   7.856   0.939 -0.0246  0.3503 -0.7884
  943MOL0     C27177  11.016   7.881   0.992 -0.0102 -1.6725  0.4857
  943MOL0     O27178  11.040   8.006   1.047 -0.0051 -0.3783  0.0234
  943MOL0     C27179  11.026   8.121   0.963 -0.4654  0.4691  0.1320
  943MOL0     C27180  11.143   8.205   0.977 -0.4435  0.2160 -0.0738
  943MOL0     C27181  11.145   8.268   1.120  0.0446 -0.5891  0.9949
  943MOL0     C27182  11.276   8.338   1.141 -0.3124  0.3860  0.1437
  943MOL0     C27183  11.291   8.417   1.280  0.1195 -0.5697  0.5080
  943MOL0     C27184  11.432   8.471   1.302 -0.6752  0.3352  0.3236
  943MOL0     C27185  11.441   8.533   1.446  0.3349 -0.6682 -0.4616
  943MOL0     C27186  11.454   8.411   1.546 -0.4853 -0.1774  0.0608
  943MOL0     N27187  11.589   8.337   1.530  0.4433 -0.1287 -0.2907
  943MOL0     C27188  11.590   8.201   1.508  0.1685  0.9697 -0.1461
  943MOL0     C27189  11.724   8.174   1.494  1.0940  0.2932  0.2055
  943MOL0     C27190  11.786   8.036   1.450  0.0125 -0.0523  0.4486
  943MOL0     C27191  11.789   8.014   1.294 -0.3325 -0.4595 -1.2441
  943MOL0     C27192  11.870   8.111   1.214  0.2445  0.3879  0.3627
  943MOL0     C27193  11.798   8.227   1.153  0.5951 -0.3520  0.2744
  943MOL0     O27194  11.877   8.284   1.051  0.8917  0.6262 -0.2743
  943MOL0     C27195  11.988   8.352   1.081  0.2305 -0.4340  0.4175
  943MOL0     C27196  11.983   8.458   1.168  0.1898 -0.4879 -0.2042
  943MOL0     C27197  12.102   8.534   1.207  0.8317  0.1987  0.7715
  943MOL0     C27198  12.089   8.631   1.315 -0.1697 -0.0847 -0.3422
  943MOL0     C27199  12.221   8.488   1.157  0.3950  0.5859  0.3965
  943MOL0     C27200  12.352   8.543   1.201 -0.0903 -0.8640  0.1169
  943MOL0     O27201  12.364   8.595   1.324 -0.1633 -0.3374  0.6688
  943MOL0     C27202  12.494   8.608   1.374 -0.5283 -0.2060  0.2779
  943MOL0     C27203  12.582   8.498   1.379  0.4843 -0.7194  0.0386
  943MOL0     C27204  12.713   8.510   1.417  0.2353  0.2355 -0.4004
  943MOL0     C27205  12.768   8.637   1.449 -0.5692 -0.4753 -0.3560
  943MOL0     O27206  12.906   8.645   1.471  0.8975 -0.5284  0.3576
  943MOL0     C27207  12.967   8.775   1.489  0.9681  0.1907  0.2824
  943MOL0     C27208  13.118   8.778   1.481  0.4491 -0.1453 -0.4534
  943MOL0     C27209  13.189   8.734   1.623  0.7725 -0.1838  0.7307
  943MOL0     C27210  13.175   8.846   1.723  0.3868 -0.6432  0.3680
  943MOL0     C27211  13.245   8.799   1.861 -0.2880 -0.1366 -0.2429
  943MOL0     C27212  13.398   8.772   1.846  0.2515  0.0726 -0.0373
  943MOL0     C27213  13.489   8.885   1.788 -0.0295 -0.1519 -0.4325
  943MOL0     C27214  13.632   8.838   1.794  0.7566  0.3340  0.3287
  943MOL0    Cl27215  13.746   8.953   1.740  0.2196  0.1202 -0.0951
  943MOL0     C27216  12.687   8.749   1.452 -0.4972  0.1524  0.2040
  943MOL0     C27217  12.550   8.734   1.411  0.1005  0.6992  0.2759
  943MOL0     O27218  12.443   8.532   1.123  0.1727 -0.2054  0.0635
  943MOL0     C27219  12.222   8.388   1.060  0.0861 -0.1277  0.0367
  943MOL0     C27220  12.102   8.315   1.018 -0.4690 -0.4613 -0.2806
  943MOL0     N27221  11.796   8.292   1.501  0.6373 -0.3092  0.1764
  943MOL0     N27222  11.716   8.383   1.541  0.7873 -1.0260 -0.0601
  943MOL0     C27223  11.118   7.792   0.977 -0.9863  0.1877  0.1347
  943MOL0     C27224  11.091   7.665   0.922  0.2280  1.1691 -0.1758
  943MOL0     C27225  10.927   7.334   0.670  0.2707 -0.2077 -0.2531
  943MOL0     C27226  10.906   7.289   0.539  0.2234  0.2562  0.1775
  943MOL0     C27227  10.905   7.148   0.517  0.6628 -0.5504 -0.7629
  943MOL0     C27228  10.931   7.048   0.620  0.2007 -0.7957 -0.3765
  943MOL0     O27229  10.929   6.916   0.576  0.8797  0.2344 -0.4460
  943MOL0     C27230  10.997   6.864   0.459 -0.7867 -0.4158  0.3370
  943MOL0     C27231  11.022   6.710   0.469 -1.1509 -0.4861 -0.3967
  943MOL0     C27232  10.912   6.630   0.544  0.4342 -0.7400 -0.1937
  943MOL0     C27233  10.978   6.514   0.624  0.5427 -0.3452  0.0694
  943MOL0     C27234  11.041   6.567   0.747 -0.4986 -0.4269 -0.4196
  943MOL0     C27235  11.106   6.619   0.832 -0.2359 -0.8460  0.3856
  943MOL0     C27236  10.955   7.099   0.751  0.4064  0.6812 -0.4787
  943MOL0     C27237  10.958   7.235   0.768  0.1377 -0.0637  0.5142
  943MOL0     H27238  10.760   7.708   0.859 -0.1134  2.0904  1.1811
  943MOL0     H27239  10.820   7.937   0.952 -2.1902 -1.7069  1.2725
  943MOL0     H27240  11.007   8.093   0.859  1.1726 -0.0034 -0.0600
  943MOL0     H27241  10.934   8.164   1.003 -0.3871 -0.8076  1.7900
  943MOL0     H27242  11.236   8.149   0.961  1.1385  2.8260 -0.6925
  943MOL0     H27243  11.139   8.278   0.895 -2.9506 -0.2531 -0.4328
  943MOL0     H27244  11.070   8.347   1.132  1.5019  0.7623  1.5018
  943MOL0     H27245  11.119   8.194   1.197 -1.9425 -0.2360  0.7290
  943MOL0     H27246  11.354   8.262   1.150  1.4620  2.4013  5.7492
  943MOL0     H27247  11.297   8.402   1.055  1.7633 -0.9818 -0.4236
  943MOL0     H27248  11.225   8.504   1.283  1.5077  0.4980  3.5056
  943MOL0     H27249  11.272   8.346   1.361 -0.6574 -4.1942 -2.5434
  943MOL0     H27250  11.503   8.390   1.286 -1.7350 -0.7001  0.7621
  943MOL0     H27251  11.452   8.558   1.239 -1.6805  0.8452  0.6860
  943MOL0     H27252  11.520   8.607   1.460 -2.0757  2.3688 -1.5831
  943MOL0     H27253  11.344   8.583   1.455  0.3248 -0.1353 -2.7551
  943MOL0     H27254  11.367   8.345   1.537  0.3997 -1.5153  0.9061
  943MOL0     H27255  11.445   8.453   1.647 -3.5480  0.0357 -0.2082
  943MOL0     H27256  11.504   8.135   1.523  0.2890  1.4468  3.5225
  943MOL0     H27257  11.885   8.028   1.496 -0.7854 -2.8282  1.9079
  943MOL0     H27258  11.726   7.962   1.503 -1.2612  0.5802 -0.0679
  943MOL0     H27259  11.689   7.995   1.254 -0.2559 -5.5200  0.3064
  943MOL0     H27260  11.833   7.915   1.278 -1.8039 -1.2381 -0.6963
  943MOL0     H27261  11.902   8.052   1.127 -1.8322 -0.0088 -0.1934
  943MOL0     H27262  11.951   8.146   1.278 -0.0436  0.1975  0.8325
  943MOL0     H27263  11.774   8.298   1.233 -0.3137 -1.2085  0.7783
  943MOL0     H27264  11.703   8.200   1.106 -1.5407 -0.0847  4.0510
  943MOL0     H27265  11.885   8.478   1.212  0.6710  0.2512  0.5742
  943MOL0     H27266  11.987   8.672   1.318  1.7385  5.4410  1.5478
  943MOL0     H27267  12.118   8.587   1.411  2.4188 -3.1050 -2.3053
  943MOL0     H27268  12.146   8.722   1.295  0.2793 -0.1433  0.6003
  943MOL0     H27269  12.538   8.403   1.351  2.9532 -1.4398 -1.7322
  943MOL0     H27270  12.784   8.428   1.420 -0.0094  0.0312 -0.1140
  943MOL0     H27271  12.924   8.836   1.409  0.6813  1.4684  1.3558
  943MOL0     H27272  12.943   8.826   1.583  0.2428  0.1236  0.1369
  943MOL0     H27273  13.144   8.703   1.405 -3.8494 -0.7130 -1.6492
  943MOL0     H27274  13.160   8.876   1.457 -0.6074  0.2537 -0.7448
  943MOL0     H27275  13.296   8.714   1.609  0.6544 -0.5705  0.3628
  943MOL0     H27276  13.141   8.647   1.667  2.0768  0.4388  3.5993
  943MOL0     H27277  13.222   8.931   1.672 -1.2258  0.8770  1.3196
  943MOL0     H27278  13.075   8.873   1.758  1.4986  0.6065  2.8804
  943MOL0     H27279  13.199   8.715   1.913 -0.5651 -0.4575 -0.9978
  943MOL0     H27280  13.226   8.879   1.934 -0.4746 -1.6129  1.4048
  943MOL0     H27281  13.447   8.753   1.942  0.1440 -0.1917 -0.0346
  943MOL0     H27282  13.415   8.678   1.794  1.1661 -2.2597  4.0501
  943MOL0     H27283  13.480   8.980   1.840  3.0237 -0.1330  0.2442
  943MOL0     H27284  13.471   8.906   1.682  2.2108  1.3793 -0.5603
  943MOL0     H27285  13.625   8.754   1.724 -0.5861  1.2379 -0.6782
  943MOL0     H27286  13.656   8.809   1.896 -1.6416  1.9384  1.4393
  943MOL0     H27287  12.726   8.849   1.466 -2.9582  1.1763  0.3543
  943MOL0     H27288  12.479   8.815   1.402 -2.0349 -1.1675 -0.6249
  943MOL0     H27289  12.316   8.357   1.015  1.8188  0.4997  2.9896
  943MOL0     H27290  12.090   8.232   0.950  0.2023 -0.1586 -0.7884
  943MOL0     H27291  11.212   7.809   1.027 -0.3612 -0.6375 -0.7338
  943MOL0     H27292  11.167   7.588   0.918  1.1970  2.0243  0.8888
  943MOL0     H27293  10.895   7.363   0.460  1.1651 -0.7872 -0.9817
  943MOL0     H27294  10.883   7.112   0.417  0.6477  3.6732 -2.4599
  943MOL0     H27295  10.943   6.875   0.364 -1.0804 -0.9619  0.4336
  943MOL0     H27296  11.090   6.921   0.458  0.1692 -1.8875 -1.4463
  943MOL0     H27297  11.114   6.709   0.528 -1.7301  0.2105  0.5620
  943MOL0     H27298  11.046   6.673   0.369 -0.6933  1.0041 -0.8753
  943MOL0     H27299  10.847   6.584   0.469 -3.7191 -0.2560  2.7115
  943MOL0     H27300  10.852   6.691   0.613  1.3164 -1.7437  1.5394
  943MOL0     H27301  11.042   6.459   0.555  0.4057  0.5864 -0.8260
  943MOL0     H27302  10.911   6.437   0.662  0.9423 -0.7776 -0.1006
  943MOL0     H27303  11.165   6.669   0.906 -1.9811  1.8702  0.0833
  943MOL0     H27304  10.962   7.020   0.825  2.5821  1.8955  0.7356
  943MOL0     H27305  10.979   7.265   0.871  3.6614 -1.5159  0.3449
  944MOL0     O27306   7.240   6.378  10.208  0.2672 -0.6212  0.6323
  944MOL0     C27307   7.149   6.380  10.289  0.5706 -0.1285  0.0484
  944MOL0     O27308   7.039   6.286  10.297 -0.1812 -0.6037 -0.3942
  944MOL0     C27309   7.025   6.179  10.210  0.8569 -0.3254 -0.5817
  944MOL0     C27310   7.137   6.107  10.158  0.5655  0.5774 -0.0809
  944MOL0     C27311   7.113   5.985  10.096 -0.6146 -0.4080 -0.9714
  944MOL0     C27312   6.989   5.918  10.096 -0.3421 -0.3585 -0.3257
  944MOL0     O27313   7.002   5.788  10.066  0.2881  0.4304  0.7957
  944MOL0     C27314   6.888   5.698  10.082 -0.6200  0.1112 -0.2871
  944MOL0     C27315   6.933   5.553  10.088  0.2112  0.0815 -0.0322
  944MOL0     C27316   7.040   5.529  10.195  0.4077  0.1818 -0.3010
  944MOL0     C27317   6.977   5.532  10.335  0.6197 -0.0570 -0.3705
  944MOL0     C27318   7.091   5.503  10.435 -0.4637  0.2013  0.0307
  944MOL0     C27319   7.053   5.506  10.580 -0.5281 -0.9109  0.8803
  944MOL0     C27320   7.177   5.488  10.673 -0.0386  0.8744 -0.0721
  944MOL0     C27321   7.158   5.540  10.815 -0.0985  0.3599  0.2091
  944MOL0     N27322   7.276   5.532  10.898 -0.4090 -0.1572 -0.1794
  944MOL0     C27323   7.395   5.600  10.890 -0.3697 -0.4894 -0.2999
  944MOL0     C27324   7.478   5.547  10.990 -0.0413 -0.1083  0.2453
  944MOL0     C27325   7.618   5.593  11.041 -0.7732 -0.0909 -0.4484
  944MOL0     C27326   7.618   5.626  11.185 -0.0218 -0.5237  0.3908
  944MOL0     C27327   7.529   5.747  11.216 -0.9708  0.6891 -0.9288
  944MOL0     C27328   7.519   5.751  11.372  0.1658 -0.0452  0.8436
  944MOL0     O27329   7.433   5.859  11.411  0.2311 -0.2372 -0.2535
  944MOL0     C27330   7.385   5.878  11.542 -0.4881  0.6897  1.0321
  944MOL0     C27331   7.425   5.797  11.647 -0.1414 -0.1477  0.0338
  944MOL0     C27332   7.384   5.809  11.780  0.3831 -0.3364 -0.1832
  944MOL0     C27333   7.446   5.718  11.884 -0.4483 -0.5001 -0.0813
  944MOL0     C27334   7.286   5.901  11.803  0.6198 -0.5353 -0.0716
  944MOL0     C27335   7.220   5.928  11.930  0.4755  0.2267  0.1202
  944MOL0     O27336   7.126   6.016  11.939 -0.1283 -0.0719 -0.0566
  944MOL0     C27337   7.073   6.062  12.057 -1.2525 -0.2493 -0.3940
  944MOL0     C27338   7.155   6.091  12.165 -0.2273 -0.5529 -0.4171
  944MOL0     C27339   7.106   6.144  12.279  0.3404  0.6306  0.0248
  944MOL0     C27340   6.970   6.167  12.287 -0.2038  0.0139  0.2782
  944MOL0     O27341   6.933   6.205  12.404 -0.0479 -0.5394 -0.7218
  944MOL0     C27342   6.798   6.200  12.444 -0.0431  0.1192  0.8818
  944MOL0     C27343   6.785   6.262  12.581  0.0113 -0.3348 -0.0648
  944MOL0     C27344   6.648   6.256  12.647  0.2656 -1.2694 -0.0858
  944MOL0     C27345   6.580   6.117  12.636  0.1599 -0.0471 -0.4495
  944MOL0     C27346   6.438   6.118  12.699  0.1446 -0.7702  0.6431
  944MOL0     C27347   6.407   5.965  12.720  1.7854  1.0885 -0.8870
  944MOL0     C27348   6.264   5.942  12.773 -0.1491  1.2485 -0.1891
  944MOL0     C27349   6.249   5.809  12.841  1.1899  0.7297 -0.3407
  944MOL0    Cl27350   6.072   5.808  12.894  0.6122 -0.1806  0.0390
  944MOL0     C27351   6.887   6.137  12.179 -0.6997  0.3468  0.0366
  944MOL0     C27352   6.937   6.089  12.061 -0.2531  0.2902 -0.7410
  944MOL0     O27353   7.250   5.855  12.026  0.1836 -0.7585  0.7055
  944MOL0     C27354   7.248   5.992  11.696 -1.0759  0.4127 -0.0243
  944MOL0     C27355   7.294   5.979  11.571 -0.0340  0.0370  1.4077
  944MOL0     N27356   7.411   5.446  11.045  0.1119  0.4361 -0.2723
  944MOL0     N27357   7.295   5.434  10.994  0.1618 -0.7685 -0.0039
  944MOL0     C27358   6.883   5.993  10.143 -0.2403  1.1819 -0.1566
  944MOL0     C27359   6.900   6.124  10.185 -0.1374 -1.1048 -0.1343
  944MOL0     C27360   7.160   6.489  10.386  0.0816  0.2667  0.1669
  944MOL0     C27361   7.072   6.487  10.503 -0.8764 -0.2160  0.1586
  944MOL0     C27362   7.086   6.582  10.604 -0.3070  0.1209 -1.1104
  944MOL0     C27363   7.198   6.673  10.602  0.8792  0.3252  0.6271
  944MOL0     O27364   7.206   6.768  10.702 -0.2820  0.3759 -0.2249
  944MOL0     C27365   7.320   6.837  10.743  0.8081  0.3537  0.5155
  944MOL0     C27366   7.300   6.987  10.719 -0.2222 -0.1393  0.3751
  944MOL0     C27367   7.284   7.029  10.580 -0.1704 -0.9799  0.1955
  944MOL0     C27368   7.247   7.181  10.578 -0.2449  0.5659  0.0596
  944MOL0     C27369   7.369   7.273  10.612 -0.1157 -0.6069  0.7428
  944MOL0     C27370   7.470   7.341  10.620 -0.2511 -0.3759  0.2199
  944MOL0     C27371   7.267   6.684  10.473  0.2835 -0.0103 -0.7137
  944MOL0     C27372   7.254   6.588  10.375 -0.1069  0.0041 -0.6782
  944MOL0     H27373   7.240   6.141  10.165  0.7583 -0.0397  0.1723
  944MOL0     H27374   7.197   5.923  10.067  1.3526  0.3353  2.5138
  944MOL0     H27375   6.835   5.732  10.171  0.2550  2.3913 -0.5463
  944MOL0     H27376   6.812   5.713  10.005 -2.6056 -0.2819  1.5279
  944MOL0     H27377   6.852   5.479  10.089  0.4993 -0.2336  0.8779
  944MOL0     H27378   6.986   5.528   9.996  1.7934 -3.0547  1.5895
  944MOL0     H27379   7.080   5.428  10.185 -0.8215 -0.3456 -0.0341
  944MOL0     H27380   7.122   5.601  10.188 -3.2017  4.6044 -2.5851
  944MOL0     H27381   6.930   5.628  10.360 -1.0083 -0.0890 -2.8691
  944MOL0     H27382   6.899   5.455  10.341  0.4356  0.2056  0.8438
  944MOL0     H27383   7.131   5.405  10.408 -2.7786 -0.2057 -2.3154
  944MOL0     H27384   7.173   5.574  10.421  0.3329 -1.0435 -2.0886
  944MOL0     H27385   7.009   5.603  10.607 -1.5136 -0.9251 -0.5901
  944MOL0     H27386   6.981   5.430  10.608 -1.5509 -1.2504 -2.3105
  944MOL0     H27387   7.200   5.381  10.664 -1.9516  0.1478  2.6253
  944MOL0     H27388   7.265   5.547  10.643  1.2599 -0.7401  0.3722
  944MOL0     H27389   7.078   5.482  10.862 -0.4310  0.2366 -0.5116
  944MOL0     H27390   7.121   5.642  10.801  1.4298  0.6975 -1.7784
  944MOL0     H27391   7.427   5.683  10.828  0.6781 -0.8680 -0.2933
  944MOL0     H27392   7.692   5.515  11.021  1.6857  2.2580 -1.1913
  944MOL0     H27393   7.651   5.680  10.984  0.6732  0.1247  0.6656
  944MOL0     H27394   7.721   5.649  11.216 -1.1623  2.3610  2.5610
  944MOL0     H27395   7.581   5.537  11.237  0.8260 -1.2052 -0.1461
  944MOL0     H27396   7.425   5.729  11.190 -1.3434 -0.6842  1.2196
  944MOL0     H27397   7.570   5.842  11.181  1.3057  0.7814  1.6186
  944MOL0     H27398   7.614   5.783  11.417 -0.2876  2.8128 -0.0585
  944MOL0     H27399   7.479   5.656  11.410 -1.1309  0.6423  1.2612
  944MOL0     H27400   7.494   5.714  11.633 -1.2039 -0.6215 -3.6374
  944MOL0     H27401   7.366   5.650  11.915 -2.7854  1.0717 -2.2605
  944MOL0     H27402   7.520   5.651  11.840 -1.0598 -1.6595  0.5846
  944MOL0     H27403   7.489   5.778  11.965  0.9204  0.1924 -1.2921
  944MOL0     H27404   7.262   6.077  12.167 -0.0919  0.5116  1.3180
  944MOL0     H27405   7.159   6.175  12.369 -0.5455  2.2125  0.0484
  944MOL0     H27406   6.741   6.264  12.376 -1.4063  0.5023  2.3172
  944MOL0     H27407   6.763   6.097  12.436 -3.9534  1.4190 -1.8319
  944MOL0     H27408   6.862   6.221  12.647  0.4721  1.0965  0.3192
  944MOL0     H27409   6.811   6.368  12.574  2.5428 -0.9079 -0.2826
  944MOL0     H27410   6.580   6.337  12.618 -0.1628 -1.6902 -0.2707
  944MOL0     H27411   6.676   6.285  12.749  2.1247 -1.1692 -0.5875
  944MOL0     H27412   6.550   6.090  12.535 -0.7598  4.4477 -1.5738
  944MOL0     H27413   6.644   6.043  12.685 -0.5645  0.9115  2.1008
  944MOL0     H27414   6.376   6.154  12.617 -2.1969 -1.8430  1.8216
  944MOL0     H27415   6.425   6.180  12.788  2.1536  1.5087 -0.5539
  944MOL0     H27416   6.409   5.923  12.619  1.4404  2.2958 -1.4165
  944MOL0     H27417   6.486   5.924  12.783  0.7226 -1.4245 -1.0774
  944MOL0     H27418   6.194   5.944  12.689  1.2173 -0.4932 -1.4372
  944MOL0     H27419   6.223   6.028  12.828 -0.6475  1.2300 -0.5264
  944MOL0     H27420   6.326   5.797  12.919  0.4232 -1.4689  0.1390
  944MOL0     H27421   6.261   5.727  12.770 -1.0242  1.4583 -1.6678
  944MOL0     H27422   6.779   6.149  12.181 -0.7131  0.2488 -0.1591
  944MOL0     H27423   6.868   6.057  11.984 -2.6057  1.0002  0.9326
  944MOL0     H27424   7.170   6.064  11.718 -0.3496  1.2086  0.0016
  944MOL0     H27425   7.272   6.038  11.483  4.3311 -2.1548 -1.5187
  944MOL0     H27426   6.785   5.946  10.134  1.7211 -3.3378 -0.9419
  944MOL0     H27427   6.812   6.182  10.213 -0.5548 -1.3164 -0.9479
  944MOL0     H27428   7.003   6.405  10.517  0.0586 -0.9231  0.7727
  944MOL0     H27429   7.033   6.587  10.698 -1.1384  0.5801 -1.5974
  944MOL0     H27430   7.317   6.816  10.850 -0.1458 -1.8184  0.1179
  944MOL0     H27431   7.418   6.802  10.709  2.5588  1.4968  3.9233
  944MOL0     H27432   7.385   7.045  10.756  2.2406 -0.0440 -4.5425
  944MOL0     H27433   7.213   7.015  10.779 -2.3830 -0.8874 -2.2122
  944MOL0     H27434   7.197   6.975  10.541  0.3249 -2.9344  1.6446
  944MOL0     H27435   7.377   7.015  10.524 -0.6626 -0.0347 -0.9126
  944MOL0     H27436   7.164   7.208  10.643 -1.8429 -3.4228  0.0219
  944MOL0     H27437   7.223   7.198  10.472  1.2805 -0.3989 -0.4843
  944MOL0     H27438   7.555   7.403  10.641  0.6644 -1.0008 -1.4553
  944MOL0     H27439   7.347   6.752  10.444  0.7431  0.0811  0.6918
  944MOL0     H27440   7.306   6.607  10.281 -0.1054 -0.9083 -0.8694
  945MOL0     O27441   8.748   6.894   6.479 -0.0233 -0.1251  0.0712
  945MOL0     C27442   8.757   6.834   6.375 -0.1696 -0.0695 -0.0575
  945MOL0     O27443   8.662   6.829   6.281 -0.4399  0.2557 -0.0217
  945MOL0     C27444   8.545   6.902   6.288 -1.0251  0.7272  0.4130
  945MOL0     C27445   8.525   7.031   6.341 -0.4906  0.3063  0.7249
  945MOL0     C27446   8.398   7.101   6.333 -0.1771 -0.2051 -0.7066
  945MOL0     C27447   8.285   7.039   6.280  0.0699 -0.3542 -0.6354
  945MOL0     O27448   8.161   7.098   6.275 -0.2627 -0.0119  0.5737
  945MOL0     C27449   8.120   7.168   6.148  0.6987  0.6631 -0.7049
  945MOL0     C27450   7.995   7.099   6.088  0.2176  0.4361  0.0812
  945MOL0     C27451   8.004   6.941   6.069 -0.1876  0.6802 -0.4524
  945MOL0     C27452   7.871   6.879   6.022  0.3925 -0.0845  0.3558
  945MOL0     C27453   7.873   6.737   5.956 -0.7382  0.1760 -0.9381
  945MOL0     C27454   7.882   6.618   6.056  0.0059  0.1749  0.1874
  945MOL0     C27455   7.860   6.484   5.983  0.3216  0.4544 -0.4144
  945MOL0     C27456   7.949   6.460   5.860 -0.4787 -0.0740  0.1144
  945MOL0     N27457   8.087   6.475   5.901 -0.4789  0.4117 -0.3733
  945MOL0     C27458   8.168   6.384   5.978  0.4727  0.6450 -0.2208
  945MOL0     C27459   8.267   6.465   6.026 -0.0353 -0.1942 -0.3020
  945MOL0     C27460   8.385   6.434   6.113  0.2013 -0.3237 -0.1941
  945MOL0     C27461   8.342   6.414   6.257  0.0178 -0.0899 -0.8369
  945MOL0     C27462   8.297   6.271   6.290  0.1611 -0.7659  0.5962
  945MOL0     C27463   8.230   6.256   6.437 -0.7114 -0.7994 -0.2261
  945MOL0     O27464   8.125   6.161   6.451 -0.8584  0.4186  0.2636
  945MOL0     C27465   7.994   6.195   6.412 -0.3074 -0.3229  0.4877
  945MOL0     C27466   7.884   6.120   6.453  0.0590 -0.6681 -0.9857
  945MOL0     C27467   7.752   6.155   6.435 -0.4685 -0.1129  0.4064
  945MOL0     C27468   7.646   6.061   6.485  0.5171 -0.3980  0.1912
  945MOL0     C27469   7.733   6.267   6.353 -0.0466 -0.5469 -0.7209
  945MOL0     C27470   7.595   6.321   6.331 -0.0903  0.2019  0.2992
  945MOL0     O27471   7.503   6.289   6.433  0.5300  0.3763  0.2284
  945MOL0     C27472   7.371   6.337   6.429 -0.7896  0.7458  0.8845
  945MOL0     C27473   7.265   6.243   6.449  0.6379  0.7906 -0.1462
  945MOL0     C27474   7.136   6.293   6.466 -0.1691  0.4160 -0.2492
  945MOL0     C27475   7.105   6.429   6.467  0.5460 -0.0584 -0.3059
  945MOL0     O27476   6.975   6.474   6.457  0.4112  0.6106  0.0889
  945MOL0     C27477   6.862   6.394   6.488 -0.8278  0.6045 -0.8237
  945MOL0     C27478   6.730   6.473   6.496  0.3051 -0.4180  0.9014
  945MOL0     C27479   6.729   6.578   6.591  1.0431 -0.4322  0.2232
  945MOL0     C27480   6.590   6.643   6.604  0.1145 -0.2873  0.8808
  945MOL0     C27481   6.591   6.761   6.707  0.4736  0.4370 -0.4021
  945MOL0     C27482   6.637   6.738   6.849 -0.6544  0.9300 -0.8744
  945MOL0     C27483   6.584   6.605   6.921  0.3022 -0.1668  0.4885
  945MOL0     C27484   6.433   6.596   6.937 -0.1721 -0.8133 -0.3540
  945MOL0    Cl27485   6.385   6.685   7.083  0.1956  0.1432 -0.0654
  945MOL0     C27486   7.216   6.516   6.452  0.2345  1.0212  0.2947
  945MOL0     C27487   7.349   6.474   6.431 -1.0067  0.0406  0.3502
  945MOL0     O27488   7.570   6.390   6.229 -0.9106  0.2813  0.1148
  945MOL0     C27489   7.839   6.350   6.307  0.2934  0.0912  0.9613
  945MOL0     C27490   7.972   6.312   6.345 -1.1634  0.5764  0.3285
  945MOL0     N27491   8.264   6.582   5.952 -0.3527 -0.1581 -1.0069
  945MOL0     N27492   8.155   6.591   5.885  0.9024  0.3904  0.4583
  945MOL0     C27493   8.306   6.909   6.227 -0.4140 -0.1515 -0.8986
  945MOL0     C27494   8.430   6.847   6.225 -1.0760 -0.0290  0.2256
  945MOL0     C27495   8.885   6.769   6.342 -0.5377 -0.5077  0.3285
  945MOL0     C27496   8.917   6.722   6.218 -0.4992  0.1093  0.1036
  945MOL0     C27497   9.046   6.671   6.196  1.0836  0.0436  0.4981
  945MOL0     C27498   9.144   6.682   6.292 -0.4782  1.4425  0.2450
  945MOL0     O27499   9.260   6.619   6.253  0.1432 -0.6192 -0.1801
  945MOL0     C27500   9.339   6.562   6.347  0.1540  0.0394 -0.2592
  945MOL0     C27501   9.472   6.531   6.278 -0.5198 -0.0797  0.0520
  945MOL0     C27502   9.557   6.443   6.372  0.6312  0.8997  0.1597
  945MOL0     C27503   9.654   6.504   6.474  0.4547 -0.3080 -0.3167
  945MOL0     C27504   9.590   6.544   6.602 -0.9114 -0.9127  0.3077
  945MOL0     C27505   9.552   6.581   6.710  0.1342 -0.4768  0.6331
  945MOL0     C27506   9.123   6.734   6.413 -0.4765  0.2618 -0.1060
  945MOL0     C27507   8.995   6.782   6.437 -0.9770  0.0442 -0.6155
  945MOL0     H27508   8.616   7.064   6.390 -0.7368 -1.3076  2.3719
  945MOL0     H27509   8.386   7.192   6.390 -0.9545  0.4436 -1.8596
  945MOL0     H27510   8.113   7.275   6.167  0.3960  0.9643 -2.3945
  945MOL0     H27511   8.199   7.152   6.073 -0.2803  1.6602 -1.9755
  945MOL0     H27512   7.912   7.124   6.155 -1.2248 -3.9263  0.2683
  945MOL0     H27513   7.976   7.138   5.988  3.1655  0.9269 -0.3842
  945MOL0     H27514   8.087   6.899   6.011  1.3243  0.4843  1.7431
  945MOL0     H27515   8.008   6.893   6.167 -0.0311  0.2864 -0.6469
  945MOL0     H27516   7.801   6.869   6.105  1.3878  0.0870  1.2484
  945MOL0     H27517   7.833   6.943   5.943  0.9682  0.8477  0.8109
  945MOL0     H27518   7.777   6.730   5.903 -2.1088  3.1981  0.8758
  945MOL0     H27519   7.949   6.748   5.878 -2.6238  1.3111 -2.7383
  945MOL0     H27520   7.979   6.615   6.107  0.0718 -0.0108  0.0511
  945MOL0     H27521   7.801   6.623   6.129 -2.4280 -1.8888 -2.1696
  945MOL0     H27522   7.887   6.401   6.050  0.3579  0.7383 -0.0715
  945MOL0     H27523   7.756   6.467   5.954 -0.4912  2.3008  1.1718
  945MOL0     H27524   7.915   6.546   5.802  2.7566  3.2568  2.6528
  945MOL0     H27525   7.934   6.363   5.813  0.0559  0.0097 -0.2317
  945MOL0     H27526   8.138   6.280   5.985 -0.7804  1.0512  0.6803
  945MOL0     H27527   8.437   6.348   6.069 -1.5953 -1.9898  0.7763
  945MOL0     H27528   8.455   6.517   6.100  0.3989 -0.0633  2.1022
  945MOL0     H27529   8.260   6.479   6.288 -0.1164 -1.1873  1.3626
  945MOL0     H27530   8.428   6.430   6.323 -1.1599 -1.4724  1.1802
  945MOL0     H27531   8.386   6.210   6.271  0.5679  0.0046 -0.0009
  945MOL0     H27532   8.221   6.229   6.224 -0.0845 -0.0363  0.4092
  945MOL0     H27533   8.193   6.351   6.475 -0.3309  0.0435 -1.8643
  945MOL0     H27534   8.315   6.233   6.501 -1.0295 -0.0082  0.4967
  945MOL0     H27535   7.910   6.029   6.506  2.6406  0.8012  0.4591
  945MOL0     H27536   7.691   5.965   6.512 -1.1652 -0.6785  2.1812
  945MOL0     H27537   7.591   6.085   6.576 -3.0928 -0.3589 -1.8392
  945MOL0     H27538   7.577   6.041   6.403  2.2158 -4.3678 -0.4955
  945MOL0     H27539   7.291   6.139   6.469 -2.2143 -0.1129 -0.7663
  945MOL0     H27540   7.048   6.229   6.466  0.0793  0.0563 -1.0124
  945MOL0     H27541   6.840   6.320   6.411  0.0728 -0.7867  0.1909
  945MOL0     H27542   6.873   6.349   6.587 -1.9425  0.8682 -0.5642
  945MOL0     H27543   6.714   6.519   6.398  0.1556  0.0131  1.1271
  945MOL0     H27544   6.647   6.403   6.508 -1.0485  0.7927 -0.7627
  945MOL0     H27545   6.800   6.650   6.551 -0.8703  0.7490 -1.2313
  945MOL0     H27546   6.771   6.550   6.688  0.7303  1.8569  1.0716
  945MOL0     H27547   6.557   6.688   6.510 -1.7556  2.9960  2.9398
  945MOL0     H27548   6.518   6.564   6.627  1.9133 -2.2785  0.0204
  945MOL0     H27549   6.487   6.794   6.714 -0.6882 -2.5616 -1.5944
  945MOL0     H27550   6.656   6.838   6.663 -2.2631  2.1381 -1.7355
  945MOL0     H27551   6.746   6.742   6.861 -0.5038 -3.2157  0.8137
  945MOL0     H27552   6.597   6.817   6.913 -0.5197 -0.2266  0.6927
  945MOL0     H27553   6.637   6.593   7.016  1.5804  0.0146 -0.1766
  945MOL0     H27554   6.608   6.520   6.857  2.1190  0.3020  0.4969
  945MOL0     H27555   6.415   6.489   6.952 -1.2706 -0.6690 -0.5607
  945MOL0     H27556   6.377   6.639   6.853 -1.6551  0.2564  1.1241
  945MOL0     H27557   7.195   6.622   6.466 -0.7320  0.7985  0.6530
  945MOL0     H27558   7.429   6.545   6.409  0.3022 -1.2915  0.6368
  945MOL0     H27559   7.831   6.447   6.258  0.3720 -0.1019  0.5586
  945MOL0     H27560   8.054   6.378   6.319  0.2266 -1.4900 -0.8394
  945MOL0     H27561   8.220   6.851   6.196 -0.8142  0.2363 -0.5135
  945MOL0     H27562   8.444   6.759   6.162 -1.3039  1.6082 -2.2340
  945MOL0     H27563   8.841   6.705   6.143 -2.2583 -0.0774  1.8433
  945MOL0     H27564   9.070   6.639   6.095  0.1078  1.4991 -0.2240
  945MOL0     H27565   9.360   6.621   6.437 -1.8014  0.4885 -0.0554
  945MOL0     H27566   9.283   6.475   6.383 -0.6687  0.7984  0.3434
  945MOL0     H27567   9.532   6.615   6.242 -0.7217 -0.2467 -0.6984
  945MOL0     H27568   9.449   6.481   6.183  1.1086  3.1151 -2.1877
  945MOL0     H27569   9.613   6.378   6.304 -0.6048 -2.5155  2.1465
  945MOL0     H27570   9.486   6.380   6.427  2.3889 -1.1899  0.1718
  945MOL0     H27571   9.701   6.588   6.422  1.6707 -0.3127  0.7343
  945MOL0     H27572   9.730   6.435   6.511  0.2334  0.7611  2.3658
  945MOL0     H27573   9.518   6.613   6.806  2.3263  1.6506  0.7962
  945MOL0     H27574   9.201   6.751   6.487 -0.6998  2.1299 -0.2531
  945MOL0     H27575   8.986   6.833   6.532  3.2993 -0.4890  0.2334
  946MOL0     O27576   4.348   9.083  10.016 -0.1606 -0.3080 -0.1873
  946MOL0     C27577   4.418   8.991  10.011 -0.7029 -0.0637 -0.8330
  946MOL0     O27578   4.460   8.910  10.116 -0.0453 -0.5541  0.6366
  946MOL0     C27579   4.416   8.930  10.247  0.4277 -0.3615 -0.7605
  946MOL0     C27580   4.357   8.823  10.326  0.4398 -0.1753 -0.0806
  946MOL0     C27581   4.309   8.832  10.450  0.1985 -0.6225 -0.3868
  946MOL0     C27582   4.328   8.949  10.514 -1.0394 -0.1334 -0.8283
  946MOL0     O27583   4.296   8.970  10.647 -0.4399 -0.3052  0.5849
  946MOL0     C27584   4.199   9.079  10.664 -0.3952  0.0663 -0.2104
  946MOL0     C27585   4.098   9.049  10.776 -0.3144  0.9878  0.4026
  946MOL0     C27586   4.164   9.016  10.912  0.8969  0.9876 -0.4711
  946MOL0     C27587   4.074   8.904  10.968  0.4427  0.5568 -0.2918
  946MOL0     C27588   4.111   8.860  11.111 -0.2907 -0.2361  0.6051
  946MOL0     C27589   4.017   8.776  11.186 -0.0419 -0.1882  0.7211
  946MOL0     C27590   4.052   8.756  11.335  0.7137  0.1240  0.3452
  946MOL0     C27591   3.941   8.746  11.429  0.7649 -0.7161 -0.3082
  946MOL0     N27592   3.860   8.630  11.395 -0.4017  0.7156  0.2062
  946MOL0     C27593   3.893   8.492  11.416  0.3184 -0.8917 -0.1194
  946MOL0     C27594   3.795   8.420  11.354  0.2568  0.6239  0.1969
  946MOL0     C27595   3.790   8.277  11.342 -0.4952  0.2093 -0.4031
  946MOL0     C27596   3.676   8.227  11.436  0.3458  0.6750  0.4616
  946MOL0     C27597   3.709   8.203  11.578 -0.4603 -0.0108  0.7983
  946MOL0     C27598   3.771   8.321  11.653 -0.5278  0.3029 -0.3894
  946MOL0     O27599   3.710   8.453  11.642  0.3031 -0.3052 -0.5032
  946MOL0     C27600   3.692   8.530  11.756  0.5046 -0.6391  0.8530
  946MOL0     C27601   3.677   8.665  11.728  0.8550  0.4028 -0.2645
  946MOL0     C27602   3.667   8.758  11.824  0.0846 -0.4770 -0.4839
  946MOL0     C27603   3.626   8.890  11.776  0.0614 -0.6355 -0.9898
  946MOL0     C27604   3.686   8.728  11.956 -0.8708  0.0994  0.1634
  946MOL0     C27605   3.681   8.826  12.068 -0.6686 -0.7878  0.6861
  946MOL0     O27606   3.665   8.960  12.051  0.0263  0.4637 -0.6549
  946MOL0     C27607   3.629   9.040  12.159 -0.7567 -0.2763  0.4714
  946MOL0     C27608   3.711   9.046  12.268 -0.9457 -0.4501 -0.1363
  946MOL0     C27609   3.683   9.126  12.377  0.5593  0.2706 -0.1560
  946MOL0     C27610   3.577   9.216  12.379  0.8566  0.3112  0.1405
  946MOL0     O27611   3.555   9.307  12.476  0.0713 -0.9652  0.0962
  946MOL0     C27612   3.668   9.337  12.558 -0.1624  1.5579 -0.1445
  946MOL0     C27613   3.651   9.479  12.598  0.0701 -0.8159 -0.2379
  946MOL0     C27614   3.770   9.541  12.672 -0.2850 -0.1925  0.8226
  946MOL0     C27615   3.893   9.529  12.605 -0.1228  0.6840  0.1952
  946MOL0     C27616   3.902   9.638  12.491  0.4967  0.1404 -0.8710
  946MOL0     C27617   4.049   9.691  12.472  0.4417  0.1978  0.0218
  946MOL0     C27618   4.047   9.825  12.400 -1.1584 -0.2199  0.2490
  946MOL0     C27619   4.187   9.874  12.353  0.5791 -0.5356 -0.6677
  946MOL0    Cl27620   4.169  10.053  12.322 -0.0927  0.5034  0.2297
  946MOL0     C27621   3.488   9.206  12.266 -1.2849 -0.2649 -0.1092
  946MOL0     C27622   3.519   9.120  12.159 -0.0902  0.5128  0.3265
  946MOL0     O27623   3.684   8.781  12.180  0.3934  0.4433 -0.4469
  946MOL0     C27624   3.705   8.597  11.991 -0.3903 -0.4614  0.0269
  946MOL0     C27625   3.705   8.496  11.894 -0.5514 -0.4446  0.0505
  946MOL0     N27626   3.704   8.511  11.295 -0.6573  0.7991  0.5849
  946MOL0     N27627   3.742   8.631  11.320 -0.1165 -0.0834  0.3906
  946MOL0     C27628   4.405   9.055  10.452  0.9427  0.4579  0.0608
  946MOL0     C27629   4.448   9.052  10.319  0.6534 -0.1460  0.3456
  946MOL0     C27630   4.443   8.934   9.886  0.1972 -0.3501  0.9488
  946MOL0     C27631   4.385   8.984   9.760 -0.8746  0.0483  0.6352
  946MOL0     C27632   4.408   8.916   9.643 -0.2285 -0.6461 -0.1506
  946MOL0     C27633   4.471   8.791   9.635  0.3949 -0.8771 -0.2209
  946MOL0     O27634   4.485   8.727   9.515  0.2641 -0.0782  1.0632
  946MOL0     C27635   4.448   8.798   9.394  0.1963 -0.5612  0.0933
  946MOL0     C27636   4.485   8.704   9.280  0.0221  0.0483 -0.1727
  946MOL0     C27637   4.634   8.667   9.264 -0.0637 -0.5117  0.4177
  946MOL0     C27638   4.713   8.781   9.226  0.1710 -0.8336 -0.1112
  946MOL0     C27639   4.847   8.742   9.174 -0.7137  0.7661  1.2019
  946MOL0     C27640   4.953   8.703   9.126  0.1603  0.6204  0.5721
  946MOL0     C27641   4.527   8.740   9.748  1.2925  0.1056 -0.1272
  946MOL0     C27642   4.520   8.811   9.875  0.4787  0.4306 -0.1502
  946MOL0     H27643   4.340   8.725  10.281  2.5864  0.2213 -1.9591
  946MOL0     H27644   4.250   8.754  10.496 -0.6310  0.6556  0.7930
  946MOL0     H27645   4.251   9.166  10.704  1.4928 -1.8243  1.7505
  946MOL0     H27646   4.146   9.112  10.574  0.4676  2.2211  0.0131
  946MOL0     H27647   4.038   9.140  10.787 -4.1258 -0.5458 -4.0539
  946MOL0     H27648   4.026   8.975  10.740 -2.1423  3.3281 -1.0653
  946MOL0     H27649   4.260   8.963  10.908  1.2656  1.7368 -1.8152
  946MOL0     H27650   4.176   9.099  10.983  3.2884 -0.3572  0.8336
  946MOL0     H27651   3.967   8.922  10.973 -0.4193 -3.6406  0.4314
  946MOL0     H27652   4.088   8.819  10.900  2.1495  0.4445  0.1465
  946MOL0     H27653   4.213   8.821  11.118 -0.0874 -0.1745 -1.5850
  946MOL0     H27654   4.122   8.955  11.164 -2.5321  0.9628 -0.9186
  946MOL0     H27655   3.913   8.807  11.174 -0.8217 -2.2961  1.6055
  946MOL0     H27656   4.017   8.677  11.140 -2.9168  0.5817 -1.2312
  946MOL0     H27657   4.104   8.660  11.341  2.1041  0.9543  2.4832
  946MOL0     H27658   4.127   8.831  11.363  2.5288 -0.4255 -2.6015
  946MOL0     H27659   3.872   8.830  11.416  0.7892 -0.9359 -2.1390
  946MOL0     H27660   3.982   8.743  11.530 -0.9150 -3.4794  0.4309
  946MOL0     H27661   3.984   8.451  11.459  0.6959  1.0293  1.0597
  946MOL0     H27662   3.768   8.264  11.236 -1.0059 -1.0124 -0.1713
  946MOL0     H27663   3.890   8.233  11.343  0.8608  2.9892  1.7564
  946MOL0     H27664   3.635   8.134  11.393  0.7921  0.6774  0.0105
  946MOL0     H27665   3.596   8.301  11.433  1.5352  1.9826  0.5026
  946MOL0     H27666   3.776   8.118  11.568 -1.9735 -1.1969  0.3562
  946MOL0     H27667   3.626   8.161  11.636  2.5211 -0.1101  5.5098
  946MOL0     H27668   3.876   8.330  11.624 -0.2996 -0.6721  0.0913
  946MOL0     H27669   3.780   8.288  11.757  0.0425 -0.0794 -0.5592
  946MOL0     H27670   3.670   8.697  11.624  0.8506 -1.7258 -0.9591
  946MOL0     H27671   3.602   8.895  11.669  1.9708  0.1500 -1.4174
  946MOL0     H27672   3.542   8.917  11.840  3.4434 -0.8725  4.1056
  946MOL0     H27673   3.709   8.961  11.788  1.1633 -1.4484 -3.2875
  946MOL0     H27674   3.805   8.992  12.269 -0.1084  0.9494  0.4825
  946MOL0     H27675   3.748   9.113  12.463  2.8288 -3.2760 -2.1712
  946MOL0     H27676   3.681   9.271  12.644  2.1952  1.9108 -0.1710
  946MOL0     H27677   3.759   9.325  12.499  0.6875 -0.8277  1.5048
  946MOL0     H27678   3.615   9.543  12.517 -2.7873  0.3968  1.8180
  946MOL0     H27679   3.571   9.471  12.672  1.3837  0.2160  1.3656
  946MOL0     H27680   3.787   9.503  12.773  2.1459 -1.0187  0.1663
  946MOL0     H27681   3.745   9.644  12.697 -1.5625 -0.6551  1.5770
  946MOL0     H27682   3.967   9.562  12.678  1.9951 -1.5905 -0.7716
  946MOL0     H27683   3.908   9.425  12.575  3.0271  0.8148  0.9501
  946MOL0     H27684   3.845   9.727  12.520  0.2844 -0.0371 -0.7444
  946MOL0     H27685   3.853   9.609  12.397 -2.5746  3.4652 -0.5305
  946MOL0     H27686   4.101   9.698  12.568  0.7894 -0.9035 -0.0629
  946MOL0     H27687   4.100   9.613  12.415  2.4858 -1.5929  3.9290
  946MOL0     H27688   4.013   9.901  12.471 -4.8976  1.3403 -2.8822
  946MOL0     H27689   3.979   9.830  12.315  0.9028  0.9924 -1.4187
  946MOL0     H27690   4.219   9.827  12.260  2.4582 -0.4681 -0.0982
  946MOL0     H27691   4.261   9.858  12.432 -0.3374 -1.7706 -0.0120
  946MOL0     H27692   3.418   9.287  12.248  2.2973  3.1647  0.0711
  946MOL0     H27693   3.464   9.114  12.065  3.1895 -1.9524 -1.6620
  946MOL0     H27694   3.700   8.563  12.094  1.2131 -1.2577 -0.1229
  946MOL0     H27695   3.716   8.396  11.935 -1.9242  0.3441  2.6185
  946MOL0     H27696   4.434   9.133  10.521  0.0736 -1.3759  2.6953
  946MOL0     H27697   4.500   9.132  10.266 -3.4312  1.3480 -1.9554
  946MOL0     H27698   4.328   9.076   9.755  2.0293  2.0074  1.0442
  946MOL0     H27699   4.349   8.962   9.564 -2.2175  1.1146  2.2169
  946MOL0     H27700   4.343   8.828   9.396  0.8490  2.0152  1.9475
  946MOL0     H27701   4.508   8.890   9.387  1.8304 -1.7015 -2.0723
  946MOL0     H27702   4.439   8.750   9.192 -1.0506 -0.9645 -0.1724
  946MOL0     H27703   4.444   8.603   9.293 -3.2018  1.1432 -0.8869
  946MOL0     H27704   4.626   8.594   9.183  0.7722  0.8977 -0.9947
  946MOL0     H27705   4.679   8.618   9.350 -0.1317  1.3337  1.5626
  946MOL0     H27706   4.719   8.841   9.317 -0.7536  3.1869 -2.4794
  946MOL0     H27707   4.663   8.848   9.156 -1.8469 -0.6975  1.3748
  946MOL0     H27708   5.043   8.652   9.098 -0.3938 -0.0221 -0.0694
  946MOL0     H27709   4.570   8.641   9.745  2.5246  0.6075  0.5403
  946MOL0     H27710   4.575   8.762   9.954 -0.8736 -1.9688 -0.5938
  947MOL0     O27711  10.976  10.414   0.179  0.5145  0.2241 -0.0682
  947MOL0     C27712  10.947  10.503   0.263 -0.1777  0.5527  0.8084
  947MOL0     O27713  10.850  10.498   0.355  0.4191 -0.2867  0.8770
  947MOL0     C27714  10.777  10.384   0.397 -0.3577  0.9257  0.6449
  947MOL0     C27715  10.739  10.280   0.317  0.2189 -0.4697 -0.2922
  947MOL0     C27716  10.675  10.170   0.368  0.6045  0.4833  0.2902
  947MOL0     C27717  10.641  10.156   0.509 -0.0513 -0.7253  0.7030
  947MOL0     O27718  10.579  10.045   0.565  0.6307 -0.7386  0.4052
  947MOL0     C27719  10.493   9.969   0.486  0.3964  0.6169 -0.4373
  947MOL0     C27720  10.349  10.031   0.494 -0.9451 -0.1834 -0.6387
  947MOL0     C27721  10.292  10.022   0.635 -0.4891 -0.2919 -0.0285
  947MOL0     C27722  10.160  10.102   0.637 -0.1969  0.5712  0.4086
  947MOL0     C27723  10.089  10.101   0.774  0.6689 -0.6410  0.8715
  947MOL0     C27724  10.033   9.963   0.823  0.5695 -0.0897  0.8689
  947MOL0     C27725   9.899   9.976   0.902  0.3617 -1.4107 -0.3464
  947MOL0     C27726   9.906  10.067   1.027 -0.1893 -0.4591  0.6449
  947MOL0     N27727   9.915   9.985   1.147  0.0736  0.1171  0.0529
  947MOL0     C27728  10.031   9.933   1.187 -0.9795 -0.4450  0.1171
  947MOL0     C27729  10.014   9.855   1.297 -0.3549 -0.2901  0.0956
  947MOL0     C27730  10.120   9.772   1.370  0.1314 -0.1765 -0.2290
  947MOL0     C27731  10.118   9.802   1.516 -0.1574  0.0307 -1.1909
  947MOL0     C27732  10.034   9.714   1.608  0.3614  0.3329 -0.2566
  947MOL0     C27733  10.112   9.632   1.705 -0.7673  0.2079 -0.7406
  947MOL0     O27734  10.211   9.545   1.633 -0.3324 -0.1198 -0.4238
  947MOL0     C27735  10.310   9.494   1.723  0.1983 -0.3667  0.1646
  947MOL0     C27736  10.316   9.358   1.752 -0.5217  0.3651 -0.2393
  947MOL0     C27737  10.415   9.297   1.826 -0.0136 -0.9667 -0.0943
  947MOL0     C27738  10.405   9.153   1.864 -0.5373 -0.3457  0.5234
  947MOL0     C27739  10.526   9.379   1.863 -0.1360  0.2144 -0.3079
  947MOL0     C27740  10.648   9.334   1.932 -0.5129  0.7547  0.4891
  947MOL0     O27741  10.628   9.277   2.052 -0.4276  0.7142 -0.4565
  947MOL0     C27742  10.732   9.241   2.133  0.0392  0.7288 -0.7475
  947MOL0     C27743  10.715   9.129   2.212  0.4215 -0.4781  0.4723
  947MOL0     C27744  10.807   9.107   2.315 -0.1468 -0.6906  0.4534
  947MOL0     C27745  10.926   9.170   2.327  1.2629 -0.1266 -0.5686
  947MOL0     O27746  11.032   9.127   2.406 -0.3610 -0.3244  0.3529
  947MOL0     C27747  11.045   8.986   2.418  0.2001  0.1690 -0.2625
  947MOL0     C27748  11.164   8.957   2.502  0.6063  0.2141  0.0048
  947MOL0     C27749  11.190   8.806   2.522  0.2409 -0.2584 -0.2096
  947MOL0     C27750  11.330   8.791   2.587 -0.5958 -0.5083 -0.2363
  947MOL0     C27751  11.405   8.684   2.501 -0.3587 -0.1510 -0.2748
  947MOL0     C27752  11.496   8.738   2.384  0.3395  0.1011  0.9312
  947MOL0     C27753  11.569   8.640   2.301 -1.3744  0.8739  0.4194
  947MOL0     C27754  11.665   8.712   2.194  1.2532  0.1584 -0.2124
  947MOL0    Cl27755  11.773   8.833   2.281 -0.2378 -0.2315 -0.1720
  947MOL0     C27756  10.933   9.293   2.256  1.1468  0.4322 -0.2627
  947MOL0     C27757  10.843   9.331   2.159 -0.4563  0.4669 -0.3322
  947MOL0     O27758  10.749   9.333   1.853  0.4509  0.0722 -0.0399
  947MOL0     C27759  10.514   9.521   1.852 -0.5218 -0.4376  0.4557
  947MOL0     C27760  10.408   9.576   1.771  0.5112  0.1672 -0.0470
  947MOL0     N27761   9.878   9.867   1.323 -0.1661 -0.2919 -0.2797
  947MOL0     N27762   9.828   9.950   1.237  0.0891  0.0896  0.6624
  947MOL0     C27763  10.666  10.268   0.584  0.6997 -0.6335 -0.3441
  947MOL0     C27764  10.730  10.377   0.533 -0.1082  1.0008 -0.5171
  947MOL0     C27765  11.028  10.621   0.269 -0.1330 -2.1627 -0.8491
  947MOL0     C27766  11.080  10.674   0.155 -0.0330  0.8010  0.0592
  947MOL0     C27767  11.166  10.782   0.148  0.7121  0.0281 -0.1039
  947MOL0     C27768  11.201  10.845   0.269  0.0883 -0.1845  0.8185
  947MOL0     O27769  11.283  10.952   0.256  0.7810  0.7901  0.5319
  947MOL0     C27770  11.342  11.001   0.382  0.9255  0.0486  0.3043
  947MOL0     C27771  11.456  10.902   0.444  0.5943  0.8433  0.0609
  947MOL0     C27772  11.578  10.844   0.366  0.1840  0.4589 -0.1586
  947MOL0     C27773  11.632  10.932   0.260 -0.0699 -1.2484  0.7391
  947MOL0     C27774  11.671  11.065   0.301 -0.0907 -0.3338 -0.3311
  947MOL0     C27775  11.689  11.185   0.319 -0.1512 -0.7300 -0.5594
  947MOL0     C27776  11.155  10.786   0.392 -0.1521  0.6072 -0.9136
  947MOL0     C27777  11.067  10.677   0.396 -0.6849  0.4306  0.2394
  947MOL0     H27778  10.756  10.302   0.212 -3.4206 -0.4044 -1.0048
  947MOL0     H27779  10.664  10.081   0.307  1.2155 -0.7644  1.9249
  947MOL0     H27780  10.514   9.952   0.380 -0.0738 -0.4569 -0.3623
  947MOL0     H27781  10.499   9.872   0.535  2.7549  1.0963  0.3340
  947MOL0     H27782  10.356  10.131   0.450  0.6852 -0.1171 -0.3120
  947MOL0     H27783  10.295   9.960   0.431 -1.5484 -2.3907  2.1643
  947MOL0     H27784  10.277   9.921   0.675 -3.2345  0.6019  1.4607
  947MOL0     H27785  10.366  10.072   0.697 -1.4680  1.9067 -0.5211
  947MOL0     H27786  10.184  10.202   0.600 -0.1609 -0.1032 -1.5137
  947MOL0     H27787  10.090  10.045   0.575  0.5201 -0.8594  0.8726
  947MOL0     H27788  10.153  10.150   0.847  3.9433 -1.2242 -1.3562
  947MOL0     H27789  10.006  10.170   0.758 -0.2680 -2.3688 -2.7170
  947MOL0     H27790  10.003   9.893   0.744  0.1162  1.2039 -0.1491
  947MOL0     H27791  10.102   9.913   0.891  0.2933  1.5446  2.4417
  947MOL0     H27792   9.831  10.027   0.834  2.1101  0.5834 -0.7023
  947MOL0     H27793   9.855   9.879   0.927  2.0680 -1.9107  0.8874
  947MOL0     H27794   9.813  10.124   1.037 -0.5762 -0.3939 -2.3578
  947MOL0     H27795   9.979  10.147   1.020  0.3508 -1.0767 -1.8384
  947MOL0     H27796  10.127   9.953   1.141 -1.9579 -2.4802 -3.0789
  947MOL0     H27797  10.095   9.666   1.359  1.0192 -0.6022  1.5381
  947MOL0     H27798  10.222   9.774   1.330 -0.2810  1.1774 -1.3057
  947MOL0     H27799  10.070   9.899   1.530  1.3847  0.6329  0.2544
  947MOL0     H27800  10.221   9.790   1.551 -0.4765  0.4081 -0.0963
  947MOL0     H27801   9.973   9.645   1.550 -2.1679  2.0248  0.1905
  947MOL0     H27802   9.973   9.788   1.661 -0.0525  0.5189 -0.9820
  947MOL0     H27803  10.053   9.572   1.775  4.5295 -2.5240  1.9651
  947MOL0     H27804  10.173   9.698   1.767 -2.3342 -2.3309  3.9847
  947MOL0     H27805  10.247   9.299   1.692  1.0753 -2.7293  0.7281
  947MOL0     H27806  10.448   9.090   1.786 -3.9840 -1.4500 -0.6688
  947MOL0     H27807  10.432   9.133   1.969 -0.4125 -0.0947  0.5406
  947MOL0     H27808  10.301   9.121   1.855 -1.8740  3.8338 -1.7161
  947MOL0     H27809  10.628   9.067   2.193  1.4788 -2.1507  0.8993
  947MOL0     H27810  10.785   9.022   2.379 -2.3565 -0.1225  0.5108
  947MOL0     H27811  10.957   8.944   2.467  1.8978 -1.4931  1.5346
  947MOL0     H27812  11.042   8.932   2.322 -4.7793  0.4711 -0.5214
  947MOL0     H27813  11.249   8.992   2.443 -0.6574  1.1411 -1.3551
  947MOL0     H27814  11.168   9.008   2.599  0.0863  1.9374 -0.8237
  947MOL0     H27815  11.183   8.758   2.425  1.4075 -0.6689 -0.0951
  947MOL0     H27816  11.112   8.776   2.594  0.6488  2.1801  1.3828
  947MOL0     H27817  11.389   8.883   2.585  0.3234 -1.0256  1.3987
  947MOL0     H27818  11.310   8.754   2.688  2.1300  1.0638  0.9822
  947MOL0     H27819  11.339   8.612   2.452 -0.5162 -0.9876  1.1379
  947MOL0     H27820  11.474   8.636   2.570 -0.3991 -0.5751 -0.5225
  947MOL0     H27821  11.428   8.790   2.316  1.0103 -0.3160 -0.0834
  947MOL0     H27822  11.562   8.817   2.421  2.2588 -0.1983 -1.5478
  947MOL0     H27823  11.500   8.564   2.263  0.0949 -0.3338  0.0756
  947MOL0     H27824  11.641   8.588   2.363  1.9289  2.6114 -1.6640
  947MOL0     H27825  11.603   8.746   2.111  1.6607  1.1641 -0.1104
  947MOL0     H27826  11.729   8.634   2.150  0.0954 -0.4177 -0.9405
  947MOL0     H27827  11.026   9.349   2.263  0.8679  0.9951 -0.8390
  947MOL0     H27828  10.867   9.426   2.112  1.4419  1.8417  3.0453
  947MOL0     H27829  10.601   9.578   1.884  0.4660 -0.8619 -1.3161
  947MOL0     H27830  10.412   9.683   1.753  1.8614  0.6100  2.4742
  947MOL0     H27831  10.618  10.271   0.682  0.9852 -1.5012 -0.1705
  947MOL0     H27832  10.747  10.459   0.603 -1.8089  2.6550 -1.9301
  947MOL0     H27833  11.044  10.619   0.069 -4.2069  1.9177  0.9046
  947MOL0     H27834  11.208  10.830   0.060  0.3123  1.0992  0.2613
  947MOL0     H27835  11.392  11.096   0.362 -3.3786  3.3676  3.2961
  947MOL0     H27836  11.259  11.018   0.451  0.2420 -2.3617  0.1636
  947MOL0     H27837  11.414  10.808   0.481 -0.4119  1.4434  0.4866
  947MOL0     H27838  11.504  10.954   0.527 -1.2271  0.2882  1.5425
  947MOL0     H27839  11.544  10.747   0.328 -1.1339  0.7844  0.1461
  947MOL0     H27840  11.656  10.817   0.438 -0.4197  0.8251  0.6427
  947MOL0     H27841  11.558  10.936   0.181  2.2982  1.5577 -1.5805
  947MOL0     H27842  11.720  10.881   0.220  1.7880  0.4782  2.3350
  947MOL0     H27843  11.716  11.288   0.329 -1.0759 -0.5947  0.7954
  947MOL0     H27844  11.193  10.818   0.489 -0.2579  0.2959 -0.7705
  947MOL0     H27845  11.040  10.613   0.480 -5.1481 -0.0763 -1.2885
  948MOL0     O27846   8.421   1.520   1.458 -1.2187 -0.1900 -0.1782
  948MOL0     C27847   8.514   1.598   1.465  0.6606  0.1999  0.1927
  948MOL0     O27848   8.511   1.724   1.429 -0.4632 -0.1318  0.3929
  948MOL0     C27849   8.394   1.775   1.383 -0.0327 -0.3433 -0.0199
  948MOL0     C27850   8.364   1.760   1.245 -0.3894 -0.5319 -0.3170
  948MOL0     C27851   8.241   1.798   1.190 -0.6119  1.1498  0.4260
  948MOL0     C27852   8.154   1.863   1.275  0.4261  0.1135 -1.0485
  948MOL0     O27853   8.031   1.904   1.233  0.7276 -0.3296 -0.0036
  948MOL0     C27854   7.945   1.798   1.192  0.1028 -0.2680 -0.4227
  948MOL0     C27855   7.877   1.830   1.056  0.6576  0.2911 -0.0715
  948MOL0     C27856   7.832   1.702   0.978 -0.0750 -0.3326 -0.7374
  948MOL0     C27857   7.765   1.748   0.850  0.6974 -0.4393  0.1858
  948MOL0     C27858   7.749   1.637   0.748  0.8803  0.6689  0.7554
  948MOL0     C27859   7.707   1.496   0.802 -0.4027 -0.3295 -0.2810
  948MOL0     C27860   7.580   1.496   0.886  0.6539  0.5538 -0.1228
  948MOL0     C27861   7.444   1.512   0.821 -0.7677 -0.9280  0.5614
  948MOL0     N27862   7.335   1.509   0.922  0.1649  0.7293  0.1426
  948MOL0     C27863   7.214   1.450   0.904  0.3997  0.3754 -0.8367
  948MOL0     C27864   7.142   1.495   1.006  0.0015  0.2080 -0.5998
  948MOL0     C27865   6.995   1.471   1.018 -0.1664 -1.0640  0.3814
  948MOL0     C27866   6.970   1.327   1.063 -0.8270 -0.6283 -0.1537
  948MOL0     C27867   6.822   1.301   1.049  0.0145 -0.2612  0.1250
  948MOL0     C27868   6.766   1.165   1.092 -0.3317  0.1633 -0.2906
  948MOL0     O27869   6.840   1.051   1.043  0.2497 -0.1710 -0.3217
  948MOL0     C27870   6.809   0.939   1.116 -0.4119  0.3975  0.0326
  948MOL0     C27871   6.742   0.842   1.050 -0.3220 -0.3031  0.2290
  948MOL0     C27872   6.690   0.734   1.122  0.1885 -0.6114  0.0382
  948MOL0     C27873   6.602   0.637   1.044 -0.3325  0.0084  0.3165
  948MOL0     C27874   6.745   0.708   1.246  0.0636  1.3382  0.7718
  948MOL0     C27875   6.721   0.585   1.325  0.5164  0.5959  0.4725
  948MOL0     O27876   6.814   0.565   1.429 -0.0659  0.6657 -0.4144
  948MOL0     C27877   6.820   0.443   1.491 -0.1864 -0.1372  0.2852
  948MOL0     C27878   6.787   0.432   1.628 -1.1916 -0.4197 -0.2070
  948MOL0     C27879   6.799   0.309   1.699 -0.1049 -0.1337 -0.5360
  948MOL0     C27880   6.861   0.203   1.644 -0.2471 -0.2369  0.1578
  948MOL0     O27881   6.889   0.093   1.714 -0.3791 -0.0529 -0.3634
  948MOL0     C27882   6.974   0.102   1.832  0.3076 -0.0028 -0.4724
  948MOL0     C27883   7.114   0.153   1.815 -0.3589  0.0203  0.2935
  948MOL0     C27884   7.189   0.146   1.946  0.2439  0.7287 -0.4034
  948MOL0     C27885   7.329   0.204   1.938  0.3378 -0.5239 -0.2815
  948MOL0     C27886   7.401   0.187   2.078 -0.3938 -0.8082  0.3501
  948MOL0     C27887   7.541   0.237   2.071  0.5002 -0.2940 -0.8076
  948MOL0     C27888   7.606   0.238   2.212 -0.4029  0.3068  0.6491
  948MOL0     C27889   7.757   0.271   2.215  0.1766  0.4324 -0.3203
  948MOL0    Cl27890   7.796   0.300   2.385 -0.3521 -0.6279  0.1678
  948MOL0     C27891   6.895   0.215   1.513  0.8579  0.5620  0.1701
  948MOL0     C27892   6.880   0.329   1.433 -0.3956 -0.1855 -0.1046
  948MOL0     O27893   6.646   0.495   1.285 -0.1637  0.7087 -1.1863
  948MOL0     C27894   6.828   0.801   1.307  1.2512  0.6092  0.5113
  948MOL0     C27895   6.866   0.917   1.245 -0.6617  0.1767 -0.3416
  948MOL0     N27896   7.210   1.588   1.082  0.2083  0.3695  0.0414
  948MOL0     N27897   7.326   1.601   1.022  0.2858  0.2543  0.5133
  948MOL0     C27898   8.188   1.881   1.411 -0.2476  0.0138 -0.0621
  948MOL0     C27899   8.301   1.834   1.463 -0.2131 -0.7352 -0.2092
  948MOL0     C27900   8.643   1.542   1.504  0.0224 -0.1877 -0.1976
  948MOL0     C27901   8.767   1.606   1.480 -0.5160 -0.6050  0.0796
  948MOL0     C27902   8.887   1.545   1.516 -0.1600  0.4038  0.8652
  948MOL0     C27903   8.892   1.426   1.586 -1.1206  0.5295  0.0092
  948MOL0     O27904   9.010   1.386   1.646  0.8717  0.1164  0.0418
  948MOL0     C27905   8.999   1.282   1.747 -0.4049  0.3702 -0.3290
  948MOL0     C27906   9.144   1.225   1.773  0.6484 -0.4103 -0.3603
  948MOL0     C27907   9.130   1.124   1.892 -0.8417  0.9559 -0.2052
  948MOL0     C27908   9.284   1.086   1.914 -0.0605  0.2658 -0.8500
  948MOL0     C27909   9.342   1.181   2.010  0.2747  0.1706  0.7083
  948MOL0     C27910   9.393   1.253   2.092  0.0584  0.1874  0.1434
  948MOL0     C27911   8.769   1.357   1.600  0.6391  0.2992  0.7566
  948MOL0     C27912   8.645   1.410   1.554  0.6182 -0.1905 -0.2722
  948MOL0     H27913   8.442   1.713   1.186  0.0773  1.2126 -1.1662
  948MOL0     H27914   8.208   1.776   1.089 -0.3669 -0.8629  0.7284
  948MOL0     H27915   8.001   1.706   1.176  0.0130  0.0155 -2.6100
  948MOL0     H27916   7.874   1.782   1.274  0.5431  0.0537  0.0255
  948MOL0     H27917   7.782   1.882   1.071  0.3193 -0.6779  1.3685
  948MOL0     H27918   7.936   1.899   0.996  0.2964  0.7143  0.0573
  948MOL0     H27919   7.925   1.651   0.950  1.2678  1.1551  0.7666
  948MOL0     H27920   7.777   1.629   1.038  0.2311  0.6947  0.8823
  948MOL0     H27921   7.666   1.791   0.870  0.9263  0.4859 -0.6092
  948MOL0     H27922   7.813   1.826   0.791 -1.6558 -0.1739 -1.5452
  948MOL0     H27923   7.679   1.673   0.672  0.4109 -0.4714  0.6219
  948MOL0     H27924   7.848   1.626   0.703  0.4284  0.0099 -0.1219
  948MOL0     H27925   7.702   1.417   0.726 -0.6619 -0.6787  0.0961
  948MOL0     H27926   7.773   1.460   0.881 -1.3502  0.5683  0.9571
  948MOL0     H27927   7.577   1.400   0.938 -0.1938  0.7345  0.1854
  948MOL0     H27928   7.581   1.564   0.971  0.3234  1.9388 -1.1855
  948MOL0     H27929   7.441   1.430   0.749  3.9107  0.7074 -1.9284
  948MOL0     H27930   7.436   1.605   0.764  0.8509 -1.5956 -0.8280
  948MOL0     H27931   7.174   1.374   0.837  1.5722  0.7618 -2.0114
  948MOL0     H27932   6.945   1.530   1.096 -0.8169 -0.8231 -0.2058
  948MOL0     H27933   6.949   1.504   0.924  1.8494 -0.9563 -0.6226
  948MOL0     H27934   7.003   1.316   1.167 -1.9837  0.7437  0.3926
  948MOL0     H27935   7.030   1.264   0.996 -0.4667 -2.5438  1.8718
  948MOL0     H27936   6.796   1.311   0.943 -2.0364 -2.1674  0.3987
  948MOL0     H27937   6.765   1.379   1.101 -0.9030  1.2584 -2.9027
  948MOL0     H27938   6.664   1.159   1.051 -0.4475  0.1988 -0.0101
  948MOL0     H27939   6.755   1.169   1.200  1.7403 -2.3179  0.1017
  948MOL0     H27940   6.707   0.868   0.950  0.1693 -1.7160 -0.3264
  948MOL0     H27941   6.513   0.607   1.100  1.1350  0.3407  3.0418
  948MOL0     H27942   6.570   0.687   0.953 -1.4611  2.7244  2.0697
  948MOL0     H27943   6.662   0.548   1.021 -0.3912 -0.2445  1.1013
  948MOL0     H27944   6.750   0.519   1.681 -1.1881 -0.1630 -0.6199
  948MOL0     H27945   6.766   0.318   1.802 -1.0032  1.9930 -0.9502
  948MOL0     H27946   6.911   0.151   1.907  0.0966 -1.3256  0.2491
  948MOL0     H27947   6.972  -0.000   1.873  1.4513 -0.1220 -0.6863
  948MOL0     H27948   7.163   0.094   1.737 -1.3920  0.3289 -0.6038
  948MOL0     H27949   7.105   0.252   1.770  1.7286  0.5963  1.0256
  948MOL0     H27950   7.202   0.044   1.981 -2.5030 -0.4389 -2.3851
  948MOL0     H27951   7.124   0.199   2.017 -1.1067  0.6170 -1.5233
  948MOL0     H27952   7.382   0.146   1.862  2.2937 -1.1117  1.4670
  948MOL0     H27953   7.341   0.306   1.901  1.7063  0.3241  2.3164
  948MOL0     H27954   7.398   0.080   2.102  0.9529 -0.7712  0.7610
  948MOL0     H27955   7.343   0.251   2.145  0.5926  1.8386 -1.2087
  948MOL0     H27956   7.595   0.181   1.994  1.3453 -0.8661  0.1569
  948MOL0     H27957   7.527   0.340   2.040  1.2614  0.0229 -0.1443
  948MOL0     H27958   7.600   0.141   2.263  2.8330  0.0978  0.8281
  948MOL0     H27959   7.561   0.318   2.271  1.1016  0.4096  1.7035
  948MOL0     H27960   7.791   0.354   2.154 -0.6696 -0.0441 -1.4767
  948MOL0     H27961   7.796   0.174   2.182  1.2357  0.5790  0.4296
  948MOL0     H27962   6.951   0.138   1.461 -0.0295 -2.0481  2.7674
  948MOL0     H27963   6.922   0.334   1.333  1.8597 -2.2875  0.6269
  948MOL0     H27964   6.877   0.776   1.401 -1.9192 -0.6604  1.9706
  948MOL0     H27965   6.933   0.989   1.290 -2.1409  0.8051  0.9943
  948MOL0     H27966   8.121   1.921   1.487  0.5935 -2.1347  1.8985
  948MOL0     H27967   8.313   1.839   1.570 -1.9275  0.3130 -0.0202
  948MOL0     H27968   8.764   1.703   1.431  1.3980 -0.7385 -0.4073
  948MOL0     H27969   8.987   1.583   1.493  1.1829 -2.3375  1.7042
  948MOL0     H27970   8.959   1.314   1.844 -0.6005  0.0016 -0.2888
  948MOL0     H27971   8.955   1.186   1.720  0.2983 -0.2203  0.5774
  948MOL0     H27972   9.212   1.302   1.809  1.9479 -2.0183  0.7255
  948MOL0     H27973   9.186   1.184   1.681 -1.9695  0.7973 -2.2302
  948MOL0     H27974   9.076   1.033   1.866 -0.8321  1.6734 -3.0787
  948MOL0     H27975   9.084   1.174   1.978  0.1898 -1.0951  1.6463
  948MOL0     H27976   9.347   1.066   1.827 -0.3830 -3.0028 -0.4604
  948MOL0     H27977   9.280   0.995   1.975  0.5242  1.0569  0.4057
  948MOL0     H27978   9.427   1.333   2.155 -0.0833  3.4913 -3.5371
  948MOL0     H27979   8.760   1.261   1.650  1.0815  1.0282  2.2690
  948MOL0     H27980   8.547   1.363   1.556  1.7835 -2.8514 -1.6618
  949MOL0     O27981   0.013   4.686   8.069 -0.0452  0.0031 -0.6557
  949MOL0     C27982  -0.029   4.649   7.959 -0.7148 -0.2185  0.9151
  949MOL0     O27983  -0.147   4.677   7.903 -0.3363  0.5560  0.0795
  949MOL0     C27984  -0.243   4.727   7.995  0.5952  0.1288 -0.4021
  949MOL0     C27985  -0.321   4.838   7.951  0.1927  0.0127 -0.7635
  949MOL0     C27986  -0.424   4.884   8.029 -0.3381 -0.3751  0.2138
  949MOL0     C27987  -0.454   4.825   8.153  0.1653 -0.6604  0.4692
  949MOL0     O27988  -0.556   4.861   8.237  0.1993  0.1928  0.5826
  949MOL0     C27989  -0.544   5.003   8.267  1.1555  0.1758 -0.1898
  949MOL0     C27990  -0.637   5.022   8.376 -0.3971 -1.2864 -0.5882
  949MOL0     C27991  -0.608   4.930   8.497 -0.8044 -0.0315 -0.2159
  949MOL0     C27992  -0.668   4.995   8.626  0.1901  0.3250  0.0163
  949MOL0     C27993  -0.615   4.925   8.748  0.3285  0.0985  0.5309
  949MOL0     C27994  -0.638   4.993   8.882 -0.4123 -0.2919  0.7860
  949MOL0     C27995  -0.780   4.994   8.940 -0.6919 -0.0127  0.3888
  949MOL0     C27996  -0.785   5.063   9.077  1.3071 -0.7799  0.6055
  949MOL0     N27997  -0.922   5.103   9.100  0.5379 -1.1440  0.1393
  949MOL0     C27998  -0.971   5.223   9.039 -0.2829  0.1020 -0.1224
  949MOL0     C27999  -1.103   5.214   9.058 -0.5902  0.1374  1.0163
  949MOL0     C28000  -1.191   5.321   9.009 -0.0164 -0.1898 -0.5390
  949MOL0     C28001  -1.295   5.264   8.912  0.3370  0.8982  0.1106
  949MOL0     C28002  -1.403   5.359   8.866 -0.1535 -1.1187 -0.3135
  949MOL0     C28003  -1.502   5.307   8.770  0.5827 -0.1805  0.5420
  949MOL0     O28004  -1.602   5.230   8.833  0.6894 -0.1007  0.2492
  949MOL0     C28005  -1.724   5.231   8.777  0.6041 -0.0225 -0.3058
  949MOL0     C28006  -1.842   5.270   8.851 -0.3115  0.9453 -0.4605
  949MOL0     C28007  -1.967   5.259   8.792  0.3056 -0.0481  0.5124
  949MOL0     C28008  -2.083   5.297   8.878 -1.1060 -0.4940 -0.1485
  949MOL0     C28009  -1.979   5.227   8.657 -1.3355  0.0637 -0.3087
  949MOL0     C28010  -2.106   5.235   8.591 -0.1460  0.1723  0.4623
  949MOL0     O28011  -2.132   5.146   8.492 -0.1508  0.7457  0.5809
  949MOL0     C28012  -2.210   5.185   8.386 -0.1332 -0.0888  0.1041
  949MOL0     C28013  -2.184   5.294   8.305 -0.2560 -0.4763  1.3057
  949MOL0     C28014  -2.259   5.326   8.188  0.4410  0.2174 -0.2010
  949MOL0     C28015  -2.353   5.228   8.155  0.4746 -0.6251  0.0559
  949MOL0     O28016  -2.430   5.241   8.042  0.0970  0.2322 -0.4303
  949MOL0     C28017  -2.363   5.236   7.918  0.4055 -0.9408  0.0040
  949MOL0     C28018  -2.371   5.095   7.863  0.0819  0.0481 -0.7680
  949MOL0     C28019  -2.462   5.060   7.748  0.4570 -0.1863 -0.4045
  949MOL0     C28020  -2.614   5.011   7.782  0.2461 -1.4912 -0.3387
  949MOL0     C28021  -2.698   5.138   7.817  0.4758 -0.8629  0.6224
  949MOL0     C28022  -2.848   5.098   7.830  0.0069 -0.3571 -0.5210
  949MOL0     C28023  -2.881   5.022   7.954  0.8248 -1.2203  1.0486
  949MOL0     C28024  -3.029   4.976   7.949  0.5219  0.4555 -0.1764
  949MOL0    Cl28025  -3.137   5.111   7.921 -0.1834  0.1959 -0.5117
  949MOL0     C28026  -2.370   5.112   8.225 -0.0519 -1.1077  0.0142
  949MOL0     C28027  -2.316   5.100   8.352 -0.0629  0.5898  0.3241
  949MOL0     O28028  -2.182   5.331   8.625  0.3137 -0.1176  0.3196
  949MOL0     C28029  -1.864   5.180   8.586  0.9463 -0.3499  0.1202
  949MOL0     C28030  -1.734   5.186   8.651 -0.5169 -0.4013 -0.2424
  949MOL0     N28031  -1.133   5.089   9.124  0.1476  0.2521  0.8158
  949MOL0     N28032  -1.021   5.027   9.145  0.3757 -0.4853  0.5505
  949MOL0     C28033  -0.373   4.718   8.197 -0.4938 -0.3146 -0.3127
  949MOL0     C28034  -0.269   4.667   8.119 -0.6111 -0.2428 -0.0023
  949MOL0     C28035   0.071   4.574   7.877  1.1178 -1.3712  0.0630
  949MOL0     C28036   0.212   4.584   7.896 -0.8868  0.8185  0.5140
  949MOL0     C28037   0.300   4.514   7.805  0.7697 -0.2067  0.3838
  949MOL0     C28038   0.255   4.419   7.713 -0.4868  0.8492  0.3438
  949MOL0     O28039   0.329   4.342   7.632 -0.4150  0.1153 -0.2077
  949MOL0     C28040   0.477   4.344   7.645  0.0996 -0.7784  0.4884
  949MOL0     C28041   0.519   4.215   7.587 -0.3800  0.4087  0.8458
  949MOL0     C28042   0.472   4.084   7.660  0.7323 -0.4008  0.3518
  949MOL0     C28043   0.553   4.032   7.772 -1.2931  0.1113  0.2440
  949MOL0     C28044   0.690   4.001   7.728 -0.1859 -0.4506  0.5688
  949MOL0     C28045   0.796   3.955   7.690 -0.3588  0.9649  0.5114
  949MOL0     C28046   0.123   4.412   7.695  0.6517 -0.1953  0.5643
  949MOL0     C28047   0.025   4.483   7.775  0.2421 -0.0189 -0.2407
  949MOL0     H28048  -0.294   4.884   7.857  2.2941  1.1196  0.3245
  949MOL0     H28049  -0.473   4.978   8.005  0.4961 -0.4895 -2.2509
  949MOL0     H28050  -0.441   5.029   8.296  1.3067 -1.3967  0.7964
  949MOL0     H28051  -0.583   5.064   8.185 -1.7636 -2.5608 -1.0289
  949MOL0     H28052  -0.630   5.124   8.414  0.5640 -1.1616 -1.0480
  949MOL0     H28053  -0.734   5.002   8.330 -0.8322 -0.0090 -0.2650
  949MOL0     H28054  -0.637   4.825   8.489 -1.5737 -0.0917  2.4956
  949MOL0     H28055  -0.499   4.927   8.509 -0.8886 -1.2694  0.3149
  949MOL0     H28056  -0.624   5.095   8.631  2.1055 -0.5026  1.0250
  949MOL0     H28057  -0.776   5.009   8.625 -0.1257 -1.7130 -1.4592
  949MOL0     H28058  -0.667   4.828   8.754 -0.9955  0.8511  1.8583
  949MOL0     H28059  -0.508   4.903   8.737  0.0563 -0.0271 -2.8433
  949MOL0     H28060  -0.573   4.947   8.957  0.0315 -2.6614 -0.9633
  949MOL0     H28061  -0.591   5.092   8.874 -1.6129  0.3178  1.0346
  949MOL0     H28062  -0.854   5.039   8.874  0.2440  1.3267  0.1895
  949MOL0     H28063  -0.797   4.887   8.952  3.6473 -1.4209 -3.1865
  949MOL0     H28064  -0.718   5.150   9.081  0.1984  0.0745  1.8546
  949MOL0     H28065  -0.758   4.995   9.158  3.0730 -1.2509 -0.3306
  949MOL0     H28066  -0.929   5.305   8.982 -0.9767 -0.0917 -0.9312
  949MOL0     H28067  -1.243   5.373   9.090  0.4579 -0.2908 -0.1655
  949MOL0     H28068  -1.134   5.391   8.947 -0.4339 -0.0845 -0.8104
  949MOL0     H28069  -1.346   5.179   8.959 -1.4785  1.6185 -0.4731
  949MOL0     H28070  -1.249   5.227   8.820 -0.1120  0.1450  0.1721
  949MOL0     H28071  -1.360   5.452   8.826 -0.9946 -0.1534  0.9547
  949MOL0     H28072  -1.466   5.381   8.952  0.0695 -3.0952  0.3984
  949MOL0     H28073  -1.443   5.249   8.699 -0.1413  0.1047 -0.2988
  949MOL0     H28074  -1.541   5.393   8.715  1.5790 -0.8927 -1.3759
  949MOL0     H28075  -1.825   5.311   8.950  4.9706 -0.1699 -0.6347
  949MOL0     H28076  -2.066   5.295   8.986 -1.9532 -0.0171  0.0034
  949MOL0     H28077  -2.093   5.406   8.874 -0.3952 -0.4216 -0.0597
  949MOL0     H28078  -2.176   5.249   8.847 -2.4656  1.9375 -0.0135
  949MOL0     H28079  -2.107   5.366   8.332 -2.3975  1.3024  3.0966
  949MOL0     H28080  -2.246   5.420   8.136 -1.9216  0.4888 -0.4261
  949MOL0     H28081  -2.423   5.297   7.851  0.3962 -1.7754 -0.7697
  949MOL0     H28082  -2.259   5.270   7.929  0.1411  0.2144 -0.9205
  949MOL0     H28083  -2.270   5.064   7.837 -0.0131 -2.5012  1.4331
  949MOL0     H28084  -2.395   5.026   7.944  2.7014 -0.0723 -0.0284
  949MOL0     H28085  -2.405   4.983   7.696  2.4462  1.7339 -1.2283
  949MOL0     H28086  -2.466   5.140   7.673  0.8994  0.3342  0.1159
  949MOL0     H28087  -2.660   4.955   7.700 -0.7847 -2.0299  0.5844
  949MOL0     H28088  -2.615   4.939   7.864 -2.6161 -1.0673  0.1049
  949MOL0     H28089  -2.699   5.220   7.745 -4.0494 -1.0700  0.1290
  949MOL0     H28090  -2.659   5.188   7.906 -0.3712  0.3435  0.3451
  949MOL0     H28091  -2.915   5.183   7.816 -0.9635 -0.5424  2.3130
  949MOL0     H28092  -2.877   5.029   7.750 -2.5367  2.1499 -1.9012
  949MOL0     H28093  -2.867   5.081   8.045 -2.4323  1.6784 -0.1303
  949MOL0     H28094  -2.812   4.937   7.964  0.6243 -1.2271  2.6382
  949MOL0     H28095  -3.045   4.934   8.049 -3.0976  0.9426 -0.4503
  949MOL0     H28096  -3.042   4.889   7.884 -0.1115  0.8957 -0.6469
  949MOL0     H28097  -2.452   5.050   8.191 -1.3722 -0.1687  1.3778
  949MOL0     H28098  -2.335   5.003   8.397 -4.5148  0.3792 -1.4898
  949MOL0     H28099  -1.865   5.162   8.479  1.6085  1.7960 -0.2808
  949MOL0     H28100  -1.644   5.169   8.593  0.8071  1.3874  1.1906
  949MOL0     H28101  -0.393   4.655   8.283  0.3009  1.4407  1.2424
  949MOL0     H28102  -0.206   4.591   8.164 -0.1725  1.7246  2.9547
  949MOL0     H28103   0.255   4.631   7.984  4.2504 -0.7835 -0.7944
  949MOL0     H28104   0.407   4.526   7.816  0.7228  2.0589 -0.8744
  949MOL0     H28105   0.532   4.416   7.584  3.1795 -3.3218  0.0229
  949MOL0     H28106   0.496   4.351   7.752 -2.3096 -0.6966  0.9725
  949MOL0     H28107   0.628   4.217   7.581 -0.3307  0.6723  1.7750
  949MOL0     H28108   0.483   4.224   7.484  1.6408  1.4116  0.1696
  949MOL0     H28109   0.466   4.013   7.578  0.4735 -0.7608  0.6793
  949MOL0     H28110   0.369   4.086   7.699  2.1339  1.1810  4.4876
  949MOL0     H28111   0.498   3.944   7.807 -2.2919  0.7807  0.3785
  949MOL0     H28112   0.570   4.110   7.846 -0.6161 -1.7669  2.1642
  949MOL0     H28113   0.885   3.906   7.657 -1.2597 -0.2967 -0.1263
  949MOL0     H28114   0.095   4.337   7.622 -0.8935 -1.0613  1.9746
  949MOL0     H28115  -0.083   4.478   7.767  0.0447  0.5530  1.5031
  950MOL0     O28116  10.553   8.161   0.367 -0.3337  0.4025 -0.2489
  950MOL0     C28117  10.529   8.230   0.470  0.0218 -0.0176 -0.2066
  950MOL0     O28118  10.507   8.368   0.476  0.4657 -0.0101  0.7314
  950MOL0     C28119  10.526   8.443   0.359 -0.3452  0.5168  0.0370
  950MOL0     C28120  10.416   8.444   0.268 -0.6163 -0.0129  0.3053
  950MOL0     C28121  10.427   8.513   0.150 -0.0675  0.3934  0.1251
  950MOL0     C28122  10.549   8.572   0.107 -0.2176  1.1319 -0.4462
  950MOL0     O28123  10.554   8.642  -0.007 -0.4483 -0.5965  0.4023
  950MOL0     C28124  10.650   8.748  -0.022 -0.7751 -0.7650 -0.4110
  950MOL0     C28125  10.591   8.842  -0.128  0.1415  0.0718  0.5259
  950MOL0     C28126  10.569   8.990  -0.071  0.1776 -0.0041  0.1317
  950MOL0     C28127  10.553   9.075  -0.197 -0.7468  0.2069  0.9244
  950MOL0     C28128  10.568   9.223  -0.158 -0.3055 -0.2202 -1.0077
  950MOL0     C28129  10.560   9.323  -0.282 -0.0541 -0.1658  0.4457
  950MOL0     C28130  10.410   9.342  -0.336 -0.0616  0.0866  1.0176
  950MOL0     C28131  10.406   9.402  -0.477  0.2476 -0.0153  0.2726
  950MOL0     N28132  10.263   9.433  -0.482 -0.5610 -0.1580  0.4071
  950MOL0     C28133  10.167   9.344  -0.519 -0.0928  0.5410 -0.2009
  950MOL0     C28134  10.056   9.421  -0.512 -0.3973  0.5021  0.0009
  950MOL0     C28135   9.905   9.380  -0.527 -0.0030  0.1049 -0.1427
  950MOL0     C28136   9.877   9.286  -0.640  0.5845  0.3585 -0.2095
  950MOL0     C28137   9.930   9.353  -0.778  0.4451  0.1433 -0.1910
  950MOL0     C28138   9.867   9.268  -0.899 -0.5671  0.4283  0.6029
  950MOL0     O28139   9.907   9.135  -0.882  0.0492 -0.2019 -0.6516
  950MOL0     C28140   9.865   9.055  -0.975  0.1685 -0.0407  0.1692
  950MOL0     C28141   9.817   9.091  -1.110  0.3457 -0.2715  0.3419
  950MOL0     C28142   9.770   8.987  -1.189 -1.7017 -0.4401  0.0560
  950MOL0     C28143   9.707   9.025  -1.321 -0.3372 -0.0374 -0.9668
  950MOL0     C28144   9.767   8.858  -1.150 -0.2722  0.0565  0.1657
  950MOL0     C28145   9.713   8.744  -1.231 -0.4543 -0.5978  0.8385
  950MOL0     O28146   9.777   8.619  -1.237  0.2278  0.1693 -0.4496
  950MOL0     C28147   9.914   8.614  -1.208 -0.9481  0.1984  0.1417
  950MOL0     C28148   9.955   8.526  -1.107 -0.2184  0.2008  0.3975
  950MOL0     C28149  10.086   8.515  -1.064  1.3099 -0.2276  0.1318
  950MOL0     C28150  10.190   8.600  -1.112  1.2706  0.0948  0.5417
  950MOL0     O28151  10.313   8.586  -1.064  0.7504  0.1470 -0.2125
  950MOL0     C28152  10.330   8.574  -0.925  0.3203  0.0700 -0.3008
  950MOL0     C28153  10.470   8.618  -0.889 -0.0491  0.4464 -0.9902
  950MOL0     C28154  10.580   8.512  -0.915  0.6379  0.4984  0.1580
  950MOL0     C28155  10.719   8.548  -0.853  0.1841  0.6478 -0.0101
  950MOL0     C28156  10.810   8.433  -0.851 -0.0584 -0.2289  0.3330
  950MOL0     C28157  10.942   8.479  -0.792 -0.6235  0.2082  0.6196
  950MOL0     C28158  11.060   8.391  -0.834  0.3683  0.2840  0.8292
  950MOL0     C28159  11.188   8.427  -0.768 -0.1538 -0.2588 -0.3153
  950MOL0    Cl28160  11.227   8.599  -0.778 -0.1720  0.0194  0.0741
  950MOL0     C28161  10.161   8.690  -1.220 -0.7210  0.1296  0.4963
  950MOL0     C28162  10.022   8.696  -1.265 -0.4446  0.1672 -0.4941
  950MOL0     O28163   9.598   8.762  -1.281 -0.0156  0.4284  0.8182
  950MOL0     C28164   9.806   8.826  -1.020  0.6249 -0.2226  0.4022
  950MOL0     C28165   9.860   8.923  -0.936 -0.1487 -0.4333  0.2995
  950MOL0     N28166  10.080   9.552  -0.472  0.0308  0.9892 -0.0896
  950MOL0     N28167  10.211   9.556  -0.459 -0.5798  1.0049  0.1910
  950MOL0     C28168  10.662   8.566   0.191 -0.0212  0.6125  0.2281
  950MOL0     C28169  10.649   8.499   0.314 -1.0169  1.0739  0.4355
  950MOL0     C28170  10.524   8.153   0.602  0.3370 -0.2056  0.1029
  950MOL0     C28171  10.478   8.227   0.717  0.0377 -0.7735 -0.2230
  950MOL0     C28172  10.470   8.178   0.850  0.0583 -0.1236  0.9794
  950MOL0     C28173  10.504   8.035   0.865  1.2404  0.2735 -0.2658
  950MOL0     O28174  10.516   7.967   0.987  0.2605  0.0606 -0.7254
  950MOL0     C28175  10.500   8.049   1.105 -0.5284  1.3821  0.2801
  950MOL0     C28176  10.558   7.980   1.229 -0.3282  0.2404 -0.8250
  950MOL0     C28177  10.702   7.935   1.198  0.4231  0.5646 -0.8464
  950MOL0     C28178  10.766   7.866   1.307 -0.0288  0.2629 -0.2484
  950MOL0     C28179  10.784   7.951   1.421 -0.8024 -0.4127  0.3158
  950MOL0     C28180  10.811   8.023   1.513  0.3784  0.5548  0.2446
  950MOL0     C28181  10.541   7.961   0.755  0.7363  0.3980 -1.2049
  950MOL0     C28182  10.555   8.016   0.630  0.1432 -0.5040 -0.4098
  950MOL0     H28183  10.325   8.396   0.300 -1.1296  2.4126  2.8619
  950MOL0     H28184  10.348   8.527   0.077  1.0715 -0.3381 -1.3042
  950MOL0     H28185  10.638   8.801   0.073 -2.1413  3.5050 -2.7128
  950MOL0     H28186  10.749   8.706  -0.043  0.1901  2.1179 -2.1104
  950MOL0     H28187  10.651   8.837  -0.219 -1.7652  0.4084 -0.8313
  950MOL0     H28188  10.489   8.814  -0.158  0.5176  0.9516 -1.8032
  950MOL0     H28189  10.476   8.994  -0.014 -0.3319  4.2408 -0.6668
  950MOL0     H28190  10.647   9.027  -0.003  0.1837 -2.1992  1.4115
  950MOL0     H28191  10.639   9.063  -0.264  0.0071 -0.8644  2.0500
  950MOL0     H28192  10.456   9.065  -0.246 -0.7671  0.2271  0.9611
  950MOL0     H28193  10.492   9.241  -0.081 -1.6268 -0.3585 -2.2275
  950MOL0     H28194  10.669   9.230  -0.117 -0.3226 -1.2157 -0.7649
  950MOL0     H28195  10.605   9.420  -0.257  3.0799 -1.0703 -1.2599
  950MOL0     H28196  10.624   9.281  -0.359 -0.6452 -2.1913  0.9894
  950MOL0     H28197  10.380   9.238  -0.348  4.8580 -1.6171  1.4222
  950MOL0     H28198  10.362   9.406  -0.260  0.3919 -0.0728  1.4417
  950MOL0     H28199  10.436   9.334  -0.557  1.5795  1.4920 -0.5693
  950MOL0     H28200  10.459   9.497  -0.487  2.0986 -1.0393  0.0237
  950MOL0     H28201  10.173   9.237  -0.536  1.2271  0.4343  0.8272
  950MOL0     H28202   9.873   9.341  -0.430  0.7134  1.3937  0.6368
  950MOL0     H28203   9.858   9.477  -0.547  2.6741  1.8281  1.3486
  950MOL0     H28204   9.772   9.257  -0.640  0.6676  0.0541 -0.3901
  950MOL0     H28205   9.935   9.194  -0.633 -0.4546 -0.1679  2.2968
  950MOL0     H28206  10.038   9.349  -0.793  0.3869 -1.1598 -0.3732
  950MOL0     H28207   9.887   9.454  -0.785  0.6137  0.1955 -0.5201
  950MOL0     H28208   9.895   9.297  -1.001 -2.3941 -0.7773 -0.2981
  950MOL0     H28209   9.758   9.277  -0.890 -0.4509  2.4307  0.4085
  950MOL0     H28210   9.812   9.193  -1.145  1.1777 -0.0238  0.9299
  950MOL0     H28211   9.739   8.967  -1.408  0.3106 -0.3943 -0.4900
  950MOL0     H28212   9.598   9.029  -1.307  0.0377  0.4262  2.4392
  950MOL0     H28213   9.729   9.126  -1.359 -0.2577 -0.6512 -2.6658
  950MOL0     H28214   9.888   8.465  -1.047 -0.9351  0.3521 -0.2196
  950MOL0     H28215  10.105   8.448  -0.981  1.6553  1.2610  1.3065
  950MOL0     H28216  10.250   8.628  -0.875 -0.0563 -0.6989 -0.0625
  950MOL0     H28217  10.305   8.470  -0.901  0.1838  0.4520  1.3368
  950MOL0     H28218  10.490   8.712  -0.941 -1.3160  3.4143  3.3484
  950MOL0     H28219  10.479   8.641  -0.782  1.1269 -0.2085 -0.9355
  950MOL0     H28220  10.585   8.487  -1.021 -2.4367 -1.2281  0.2884
  950MOL0     H28221  10.546   8.416  -0.874 -4.1303  1.4317 -1.0654
  950MOL0     H28222  10.764   8.636  -0.900 -1.2453  0.7839 -1.2117
  950MOL0     H28223  10.695   8.580  -0.752 -0.7067  1.4200 -0.4454
  950MOL0     H28224  10.829   8.399  -0.953  2.1634  2.7868 -0.4183
  950MOL0     H28225  10.769   8.352  -0.790 -0.4002 -0.1788  0.1696
  950MOL0     H28226  10.964   8.576  -0.837 -1.6700  0.1143 -0.1273
  950MOL0     H28227  10.932   8.502  -0.686 -3.2526  2.2234  0.0517
  950MOL0     H28228  11.071   8.394  -0.943 -2.3816 -0.6188  0.4516
  950MOL0     H28229  11.041   8.288  -0.804  1.2623  0.0543  0.6289
  950MOL0     H28230  11.269   8.366  -0.809 -1.9002 -1.5032 -2.1059
  950MOL0     H28231  11.177   8.397  -0.663 -1.2518 -1.1892 -0.6774
  950MOL0     H28232  10.231   8.754  -1.272 -0.0256 -2.2687 -1.6988
  950MOL0     H28233   9.995   8.761  -1.347  1.5287  1.2754 -0.3198
  950MOL0     H28234   9.815   8.730  -0.970  1.9015  0.8812  2.4044
  950MOL0     H28235   9.911   8.896  -0.845  0.3765 -0.6166 -0.0432
  950MOL0     H28236  10.757   8.595   0.148  0.3397 -1.9757 -0.9170
  950MOL0     H28237  10.744   8.500   0.365 -0.9899 -0.5068  0.4875
  950MOL0     H28238  10.447   8.332   0.720 -0.2642 -0.8579 -0.3807
  950MOL0     H28239  10.437   8.234   0.937 -0.1897  0.0520  0.7749
  950MOL0     H28240  10.559   8.139   1.089  3.0799 -1.0628 -1.7044
  950MOL0     H28241  10.393   8.070   1.108 -0.7460  0.4110 -0.0699
  950MOL0     H28242  10.508   7.888   1.259  3.5248 -1.9370 -0.4321
  950MOL0     H28243  10.542   8.045   1.315  1.2496 -0.7067  0.2534
  950MOL0     H28244  10.768   8.018   1.170  3.0773 -1.2358 -0.3163
  950MOL0     H28245  10.703   7.855   1.124 -1.2913 -0.3841  0.1053
  950MOL0     H28246  10.859   7.814   1.281 -0.5722 -1.1808  0.5414
  950MOL0     H28247  10.705   7.776   1.324 -0.4805  0.0820 -2.5339
  950MOL0     H28248  10.848   8.092   1.586  2.3520 -0.5908  0.4117
  950MOL0     H28249  10.577   7.859   0.757  0.6419  0.3596  0.3916
  950MOL0     H28250  10.606   7.951   0.559  4.8692  0.9722  1.2210
  951MOL0     O28251   3.297   9.182   0.137 -0.5993  0.4106  0.1412
  951MOL0     C28252   3.355   9.126   0.050 -0.3690  0.1211 -0.2142
  951MOL0     O28253   3.470   9.183  -0.008  0.9048  0.0063  0.3327
  951MOL0     C28254   3.521   9.303   0.043 -0.2067 -0.1888 -0.0042
  951MOL0     C28255   3.645   9.287   0.109 -0.1358  0.4932  0.1919
  951MOL0     C28256   3.697   9.395   0.177 -0.1097 -0.3120  0.5967
  951MOL0     C28257   3.634   9.523   0.175  0.4105 -0.1203 -0.0348
  951MOL0     O28258   3.689   9.642   0.224  0.4426  0.3029 -0.5732
  951MOL0     C28259   3.832   9.661   0.219  0.4139  0.1920  0.3824
  951MOL0     C28260   3.866   9.738   0.096 -0.1282 -1.0920 -0.0379
  951MOL0     C28261   4.016   9.782   0.098  0.3307  0.0830  0.3497
  951MOL0     C28262   4.117   9.666   0.089 -0.5311  0.5005 -0.2463
  951MOL0     C28263   4.261   9.708   0.047 -0.0882  0.2936 -0.3270
  951MOL0     C28264   4.283   9.768  -0.099 -0.6213  1.2281  0.5882
  951MOL0     C28265   4.215   9.672  -0.205 -0.3527 -0.4278  0.2735
  951MOL0     C28266   4.171   9.767  -0.319 -0.6522 -0.2269 -0.0498
  951MOL0     N28267   4.280   9.765  -0.405 -0.1791 -0.4361 -0.1429
  951MOL0     C28268   4.357   9.878  -0.418 -0.1429 -1.7190 -0.7027
  951MOL0     C28269   4.447   9.846  -0.508  0.1705 -0.6196  0.0568
  951MOL0     C28270   4.568   9.934  -0.551  0.7471 -0.5965  0.3968
  951MOL0     C28271   4.570  10.088  -0.523  0.4670 -0.1747 -0.5265
  951MOL0     C28272   4.678  10.152  -0.616 -0.0192 -0.4813 -0.3290
  951MOL0     C28273   4.677  10.314  -0.591  0.1730  1.0396  2.1443
  951MOL0     O28274   4.702  10.348  -0.453 -0.1388 -0.0593 -0.4565
  951MOL0     C28275   4.833  10.357  -0.410 -0.2151 -0.5941 -0.2849
  951MOL0     C28276   4.867  10.434  -0.295 -0.6697 -0.1430 -0.4242
  951MOL0     C28277   5.002  10.454  -0.255 -0.5285 -0.0685 -0.2799
  951MOL0     C28278   5.028  10.571  -0.154 -0.2082  1.1130  0.7980
  951MOL0     C28279   5.107  10.385  -0.317 -0.1221 -0.5304 -0.2077
  951MOL0     C28280   5.253  10.392  -0.280 -0.3543 -0.0309  0.6869
  951MOL0     O28281   5.294  10.432  -0.151  0.1525  0.4325  0.0096
  951MOL0     C28282   5.414  10.497  -0.140 -0.0568 -0.2973  0.3607
  951MOL0     C28283   5.535  10.441  -0.087  0.0705 -0.0052  0.0022
  951MOL0     C28284   5.660  10.511  -0.096 -0.5533 -0.1146  0.7882
  951MOL0     C28285   5.668  10.634  -0.158  0.9516  0.6889  0.6724
  951MOL0     O28286   5.784  10.701  -0.163 -1.0630  0.1207 -0.3094
  951MOL0     C28287   5.813  10.801  -0.257 -0.2745 -0.1624  0.0626
  951MOL0     C28288   5.959  10.835  -0.250 -0.3476  0.1375 -0.2377
  951MOL0     C28289   5.981  10.949  -0.156  1.0459 -1.5261  1.1075
  951MOL0     C28290   6.130  10.953  -0.129 -0.4214 -0.4646  0.2128
  951MOL0     C28291   6.178  11.094  -0.101  0.9147  0.2991 -0.4586
  951MOL0     C28292   6.326  11.096  -0.091 -0.2625 -0.2927 -0.3255
  951MOL0     C28293   6.374  11.240  -0.080 -0.0579 -0.5867  0.2209
  951MOL0     C28294   6.361  11.279   0.069 -0.8403 -0.6708  0.2301
  951MOL0    Cl28295   6.500  11.243   0.166 -0.2022  0.2264 -0.0743
  951MOL0     C28296   5.553  10.691  -0.210 -0.0479 -0.0394 -0.3192
  951MOL0     C28297   5.431  10.622  -0.200 -0.8874  0.1913  0.4607
  951MOL0     O28298   5.331  10.349  -0.367 -0.3128 -0.2434  1.1344
  951MOL0     C28299   5.072  10.305  -0.431 -0.5206  0.5795  0.3755
  951MOL0     C28300   4.942  10.300  -0.471 -0.0219  0.0178 -0.0849
  951MOL0     N28301   4.425   9.718  -0.547 -1.6489  1.2796 -0.4703
  951MOL0     N28302   4.326   9.666  -0.482  0.7279  1.0370 -0.8011
  951MOL0     C28303   3.509   9.529   0.115  0.3739  0.2977 -0.6207
  951MOL0     C28304   3.447   9.418   0.063  0.1970 -0.3247 -0.0849
  951MOL0     C28305   3.311   8.998   0.000  0.1883  0.4634  0.2792
  951MOL0     C28306   3.227   8.917   0.075  0.5909  0.5117  0.1420
  951MOL0     C28307   3.189   8.789   0.029  0.2154 -0.5691  0.8661
  951MOL0     C28308   3.221   8.756  -0.103  0.2331  0.3620  0.7160
  951MOL0     O28309   3.184   8.631  -0.148  1.1202  0.4445 -0.7175
  951MOL0     C28310   3.223   8.576  -0.276  0.7067  0.6009 -0.2940
  951MOL0     C28311   3.163   8.431  -0.282  0.1676  0.6645  0.0897
  951MOL0     C28312   3.015   8.426  -0.235 -0.1766 -0.4589 -0.1059
  951MOL0     C28313   2.947   8.305  -0.296 -1.3591  0.0863  0.4592
  951MOL0     C28314   2.825   8.298  -0.226 -0.0708  0.6112  0.1317
  951MOL0     C28315   2.718   8.302  -0.171  0.6677 -0.2787 -0.0786
  951MOL0     C28316   3.282   8.849  -0.188  0.8044  0.0327  0.4084
  951MOL0     C28317   3.330   8.975  -0.140  0.4346  0.0052 -0.1447
  951MOL0     H28318   3.686   9.187   0.111 -0.8271  0.0847 -2.3971
  951MOL0     H28319   3.786   9.381   0.236  0.6526  0.9317 -0.2162
  951MOL0     H28320   3.865   9.724   0.302 -0.1410 -0.0754  0.8093
  951MOL0     H28321   3.889   9.568   0.224  2.7311  1.3816 -1.5090
  951MOL0     H28322   3.847   9.680   0.005 -0.6536  0.9412 -1.2622
  951MOL0     H28323   3.811   9.832   0.087  2.4565  0.6359  0.9772
  951MOL0     H28324   4.036   9.844   0.010 -1.5242  0.8818  0.4370
  951MOL0     H28325   4.042   9.848   0.180 -1.5116  0.1771  0.8930
  951MOL0     H28326   4.119   9.611   0.183  0.4425  0.6675 -0.1651
  951MOL0     H28327   4.075   9.600   0.012 -2.9555  2.8386 -1.1152
  951MOL0     H28328   4.299   9.772   0.127  0.0683  2.2501 -1.8858
  951MOL0     H28329   4.327   9.621   0.050  0.2777  0.5784  0.1718
  951MOL0     H28330   4.236   9.867  -0.096  0.0262  1.5387  3.5951
  951MOL0     H28331   4.391   9.762  -0.114 -1.0519 -4.5521 -2.9756
  951MOL0     H28332   4.286   9.600  -0.246 -0.5281 -0.9989  0.9646
  951MOL0     H28333   4.123   9.621  -0.176 -0.3613 -0.3115  0.4568
  951MOL0     H28334   4.157   9.870  -0.284  2.7777  0.4418 -0.3553
  951MOL0     H28335   4.082   9.740  -0.377 -0.4703  1.8435 -1.3854
  951MOL0     H28336   4.342   9.970  -0.361  3.3988 -1.9393  0.8504
  951MOL0     H28337   4.659   9.887  -0.513 -0.2547 -1.5654  1.6960
  951MOL0     H28338   4.568   9.925  -0.660 -1.2014  1.3451  0.1810
  951MOL0     H28339   4.597  10.111  -0.419  0.7702  2.2092 -1.0535
  951MOL0     H28340   4.480  10.149  -0.527  0.1088 -0.3406  2.6719
  951MOL0     H28341   4.664  10.132  -0.722 -1.1938 -3.2562  0.2622
  951MOL0     H28342   4.773  10.106  -0.587 -1.3045 -3.3046 -0.2908
  951MOL0     H28343   4.577  10.341  -0.625  1.2063  1.9979 -0.3456
  951MOL0     H28344   4.751  10.360  -0.657 -0.7260 -0.0879  0.2588
  951MOL0     H28345   4.785  10.487  -0.248 -1.4284 -0.3545 -1.4915
  951MOL0     H28346   5.048  10.664  -0.210  1.3195  0.0976 -0.4356
  951MOL0     H28347   4.944  10.589  -0.088  1.1333  1.5731  2.4533
  951MOL0     H28348   5.105  10.554  -0.078  0.3723 -2.1618 -0.3948
  951MOL0     H28349   5.526  10.339  -0.051 -1.9330  0.4184  0.8531
  951MOL0     H28350   5.752  10.467  -0.061 -0.1641 -1.6136 -1.8394
  951MOL0     H28351   5.796  10.758  -0.356  3.0477 -0.8860 -0.3174
  951MOL0     H28352   5.756  10.894  -0.259  3.2190  2.3025 -3.9820
  951MOL0     H28353   6.018  10.749  -0.218 -0.2467  0.3329  0.1136
  951MOL0     H28354   5.997  10.870  -0.346  2.1901  0.1864  0.6907
  951MOL0     H28355   5.925  10.944  -0.062 -0.4079  3.3724  0.7898
  951MOL0     H28356   5.961  11.048  -0.199 -1.4888 -1.2239  2.7819
  951MOL0     H28357   6.161  10.888  -0.046 -1.0728 -0.9409  0.0968
  951MOL0     H28358   6.188  10.913  -0.212  2.0673  0.2043  1.5160
  951MOL0     H28359   6.136  11.130  -0.006 -1.8111 -3.3295 -0.0683
  951MOL0     H28360   6.159  11.164  -0.183  1.6898  2.1490  0.8877
  951MOL0     H28361   6.366  11.035  -0.010 -0.3102 -0.0120 -0.0872
  951MOL0     H28362   6.370  11.047  -0.178 -1.6946 -0.6479 -0.8843
  951MOL0     H28363   6.314  11.296  -0.151 -2.2768 -1.9771  0.8868
  951MOL0     H28364   6.480  11.248  -0.104  0.6007  2.7062  3.3982
  951MOL0     H28365   6.262  11.264   0.112 -1.8625  0.4988 -1.5761
  951MOL0     H28366   6.352  11.388   0.070 -0.5124 -0.6405  0.1302
  951MOL0     H28367   5.547  10.793  -0.245 -4.1533  0.4953  1.3730
  951MOL0     H28368   5.348  10.671  -0.250  0.2558  2.4559  0.6588
  951MOL0     H28369   5.150  10.252  -0.486 -2.4553 -0.2487 -1.7376
  951MOL0     H28370   4.937  10.239  -0.560  1.0831  0.5626 -0.5348
  951MOL0     H28371   3.456   9.624   0.116  0.9004  0.6344 -1.9050
  951MOL0     H28372   3.350   9.433   0.016  0.8920  1.1687 -1.1285
  951MOL0     H28373   3.205   8.943   0.178  0.7479  1.7637 -0.1220
  951MOL0     H28374   3.130   8.725   0.094 -0.3200 -1.2090 -0.2389
  951MOL0     H28375   3.172   8.642  -0.347 -1.6524 -0.6039  0.1681
  951MOL0     H28376   3.330   8.571  -0.293  0.5315 -0.4632 -1.2407
  951MOL0     H28377   3.215   8.360  -0.217 -0.2919 -0.7003 -1.0023
  951MOL0     H28378   3.169   8.386  -0.381  1.7850 -2.0821  1.3093
  951MOL0     H28379   2.957   8.513  -0.268  0.1948 -0.8134 -1.8142
  951MOL0     H28380   3.013   8.416  -0.126 -0.3027 -3.1284 -0.2862
  951MOL0     H28381   3.006   8.213  -0.284 -0.9740  0.1800 -0.6539
  951MOL0     H28382   2.924   8.320  -0.402 -4.2730  0.3034  1.0308
  951MOL0     H28383   2.623   8.307  -0.121 -0.6335 -1.6963 -2.2407
  951MOL0     H28384   3.292   8.828  -0.294 -0.8692 -1.7728  0.5404
  951MOL0     H28385   3.371   9.055  -0.201  1.2241  1.5332  2.2363
  952MOL0     O28386   6.975   1.503   7.764 -0.1087  0.0103 -0.6199
  952MOL0     C28387   7.022   1.462   7.658  0.1067  0.5519  0.0646
  952MOL0     O28388   7.109   1.360   7.656 -0.1107 -0.6567 -0.9414
  952MOL0     C28389   7.173   1.322   7.773  0.4850  1.1176 -0.1311
  952MOL0     C28390   7.196   1.180   7.781  0.2300 -0.4607 -0.1091
  952MOL0     C28391   7.272   1.120   7.882 -0.2098 -0.3018 -0.0513
  952MOL0     C28392   7.323   1.197   7.986  0.0909 -0.2120 -1.3717
  952MOL0     O28393   7.378   1.121   8.085  0.0094  0.2570 -0.1467
  952MOL0     C28394   7.347   1.172   8.217  0.0570  0.0746  0.3334
  952MOL0     C28395   7.387   1.048   8.307 -0.1707 -0.8395  0.3397
  952MOL0     C28396   7.365   1.068   8.461  0.8107 -1.4960 -0.0789
  952MOL0     C28397   7.458   0.994   8.553 -0.7416 -0.5723  0.4690
  952MOL0     C28398   7.434   1.028   8.707  0.0109 -0.3923 -0.9727
  952MOL0     C28399   7.512   0.935   8.799  0.1327  1.2786 -0.8452
  952MOL0     C28400   7.492   0.958   8.956  0.0761  0.1999  0.0890
  952MOL0     C28401   7.607   1.034   9.023  0.0752  0.0867  0.3774
  952MOL0     N28402   7.733   0.967   8.998 -0.0696 -0.6414 -0.6446
  952MOL0     C28403   7.776   0.841   9.043  1.7558 -0.2855 -0.0780
  952MOL0     C28404   7.898   0.836   9.000  0.2277  0.4255 -0.6942
  952MOL0     C28405   8.001   0.734   9.009 -0.6748 -0.0194 -0.1588
  952MOL0     C28406   7.957   0.591   8.980 -0.3539 -1.1461  0.0526
  952MOL0     C28407   7.878   0.572   8.855 -0.2424 -0.0241  0.0312
  952MOL0     C28408   7.752   0.501   8.887 -0.1495 -0.2952 -0.0551
  952MOL0     O28409   7.683   0.483   8.765 -0.0393  0.0129  0.0206
  952MOL0     C28410   7.554   0.431   8.784 -0.4328 -0.0280  0.1140
  952MOL0     C28411   7.533   0.305   8.735  0.7410  0.6191 -0.1296
  952MOL0     C28412   7.402   0.250   8.740  0.5935 -0.5904 -0.1403
  952MOL0     C28413   7.399   0.100   8.711  0.0027  0.4464  1.0015
  952MOL0     C28414   7.290   0.332   8.778 -0.8707 -0.0719 -0.3184
  952MOL0     C28415   7.149   0.273   8.786  0.2375 -0.6897  1.0467
  952MOL0     O28416   7.040   0.364   8.801 -0.5548 -0.4667 -0.2920
  952MOL0     C28417   6.926   0.297   8.845 -0.3207 -1.2123  0.0948
  952MOL0     C28418   6.921   0.189   8.933  0.5975 -1.0399 -0.1678
  952MOL0     C28419   6.801   0.121   8.951 -0.9895  0.9345 -0.0683
  952MOL0     C28420   6.682   0.156   8.891 -0.0193  0.5747  0.6097
  952MOL0     O28421   6.557   0.103   8.899  0.4291 -0.1083  0.4584
  952MOL0     C28422   6.536  -0.026   8.969 -0.3402  0.4755  0.0586
  952MOL0     C28423   6.384  -0.067   8.941 -0.1295 -0.7152  0.6711
  952MOL0     C28424   6.289   0.024   9.027  0.5828 -0.7266  0.1232
  952MOL0     C28425   6.142  -0.011   8.998  0.2646 -0.3008 -0.0466
  952MOL0     C28426   6.094  -0.162   9.022  0.1324 -0.3101  0.7213
  952MOL0     C28427   6.096  -0.206   9.163 -0.6524 -0.4967  0.1411
  952MOL0     C28428   6.077  -0.355   9.170 -0.3130 -0.2456  0.1415
  952MOL0     C28429   6.212  -0.433   9.160  0.2572 -0.0877  0.4570
  952MOL0    Cl28430   6.278  -0.457   9.323  0.2238 -0.5376  0.2396
  952MOL0     C28431   6.684   0.280   8.821 -0.4265 -0.3459 -0.0391
  952MOL0     C28432   6.806   0.342   8.790  0.2424 -0.7403 -0.1643
  952MOL0     O28433   7.140   0.152   8.765  0.4403 -0.0884 -0.7027
  952MOL0     C28434   7.316   0.465   8.816  0.1390 -0.6998  0.0137
  952MOL0     C28435   7.449   0.512   8.829 -0.2894 -0.6001 -0.3003
  952MOL0     N28436   7.928   0.947   8.924  0.3621  0.1808  0.2614
  952MOL0     N28437   7.830   1.028   8.929  0.1813  0.5594  0.7952
  952MOL0     C28438   7.293   1.341   7.977 -0.4525 -0.0283  0.7927
  952MOL0     C28439   7.227   1.399   7.868  0.8236 -0.0668 -0.3444
  952MOL0     C28440   6.968   1.498   7.523 -0.6605 -0.0678 -0.5704
  952MOL0     C28441   7.057   1.505   7.410  0.5141  0.9489  0.7741
  952MOL0     C28442   7.013   1.555   7.286  0.5787 -1.4590  0.4725
  952MOL0     C28443   6.879   1.604   7.276  0.1768 -0.1614 -0.1805
  952MOL0     O28444   6.841   1.646   7.146  0.7781 -0.1481 -0.0837
  952MOL0     C28445   6.864   1.785   7.115 -0.6825  0.0692 -0.2684
  952MOL0     C28446   6.816   1.888   7.223  0.2221  0.0400  0.4920
  952MOL0     C28447   6.794   2.033   7.167 -0.5590 -0.2105 -0.3385
  952MOL0     C28448   6.798   2.142   7.279 -0.4973  0.0660 -0.7670
  952MOL0     C28449   6.814   2.282   7.225  0.0848  1.0086 -0.3778
  952MOL0     C28450   6.831   2.395   7.186 -0.2619 -0.0662  0.6999
  952MOL0     C28451   6.794   1.600   7.387  0.1255  0.4596  0.3944
  952MOL0     C28452   6.845   1.548   7.504  0.2578  0.0045  0.4682
  952MOL0     H28453   7.159   1.114   7.704 -2.4729 -0.9097  1.4473
  952MOL0     H28454   7.288   1.013   7.884 -1.2695 -0.4687  2.0554
  952MOL0     H28455   7.408   1.260   8.239 -1.0767  1.3125 -1.1966
  952MOL0     H28456   7.240   1.194   8.225  0.0187 -0.1054  0.3216
  952MOL0     H28457   7.324   0.967   8.272 -0.3569 -0.0822 -1.1368
  952MOL0     H28458   7.493   1.022   8.299 -0.3036 -0.8395 -2.1605
  952MOL0     H28459   7.386   1.174   8.479  2.7217 -2.0031  0.9914
  952MOL0     H28460   7.264   1.041   8.490  0.9049  0.2425  2.1613
  952MOL0     H28461   7.423   0.891   8.539 -3.4037  0.3936 -0.5059
  952MOL0     H28462   7.562   1.015   8.527 -1.3877 -0.4474 -2.3743
  952MOL0     H28463   7.459   1.129   8.740 -0.1578 -0.4056 -0.8056
  952MOL0     H28464   7.328   1.009   8.729  0.2985 -0.0959  0.7490
  952MOL0     H28465   7.482   0.837   8.762  0.7219  1.7907 -2.8160
  952MOL0     H28466   7.619   0.935   8.777 -0.3338  1.5744 -3.4387
  952MOL0     H28467   7.396   1.006   8.977  0.4260  0.8754  0.1416
  952MOL0     H28468   7.484   0.859   9.002 -2.8254  0.8732  1.2495
  952MOL0     H28469   7.592   1.035   9.131  0.3080  0.9899  0.4075
  952MOL0     H28470   7.603   1.130   8.970  0.0047 -0.1477 -0.0527
  952MOL0     H28471   7.736   0.767   9.112  2.9727 -2.4424 -1.5867
  952MOL0     H28472   8.087   0.768   8.950  0.4904  1.3220  2.1757
  952MOL0     H28473   8.024   0.718   9.115 -2.5328 -2.0264  0.0260
  952MOL0     H28474   7.893   0.550   9.059 -3.2724 -0.1756 -1.6415
  952MOL0     H28475   8.040   0.520   8.990 -2.3400 -3.3869  2.5935
  952MOL0     H28476   7.931   0.509   8.783 -0.8397 -3.9245  2.7221
  952MOL0     H28477   7.847   0.667   8.811 -0.1732  0.7889  1.6785
  952MOL0     H28478   7.700   0.555   8.968  1.1761  2.0585 -0.6707
  952MOL0     H28479   7.765   0.400   8.926  0.9516 -0.7255 -1.4724
  952MOL0     H28480   7.616   0.238   8.716  1.6738  0.8057  2.7583
  952MOL0     H28481   7.475   0.084   8.634  0.7929 -0.4749  1.9382
  952MOL0     H28482   7.434   0.044   8.798  3.0558  0.8494  0.1353
  952MOL0     H28483   7.310   0.066   8.657  1.8593  2.3693 -3.8048
  952MOL0     H28484   7.009   0.148   8.982  1.5699 -0.9701 -1.7840
  952MOL0     H28485   6.800   0.038   9.021  1.1310 -1.7743 -2.9774
  952MOL0     H28486   6.608  -0.094   8.922 -0.8623  0.4903 -0.7828
  952MOL0     H28487   6.563   0.001   9.072  3.7665 -0.5520 -0.5741
  952MOL0     H28488   6.358  -0.050   8.836 -0.2255 -1.1251  0.6255
  952MOL0     H28489   6.366  -0.174   8.957 -2.3725 -0.6998 -1.1831
  952MOL0     H28490   6.310   0.125   8.991  2.0901 -1.3835 -0.9513
  952MOL0     H28491   6.308   0.017   9.134 -2.2054  1.7354  0.9027
  952MOL0     H28492   6.071   0.058   9.045  3.1288  2.8713 -0.0239
  952MOL0     H28493   6.128  -0.006   8.889  0.0897  1.2100  0.0262
  952MOL0     H28494   6.157  -0.231   8.965  0.4955  0.0422  0.6938
  952MOL0     H28495   5.989  -0.175   8.994 -0.1596 -0.6554  1.8976
  952MOL0     H28496   6.196  -0.187   9.204  1.3026 -2.8208 -3.0519
  952MOL0     H28497   6.021  -0.149   9.218  1.2475  2.7307 -0.4021
  952MOL0     H28498   6.004  -0.383   9.094 -0.3123  0.4756 -0.1381
  952MOL0     H28499   6.031  -0.370   9.268 -4.1637  1.2190 -1.2343
  952MOL0     H28500   6.278  -0.401   9.079 -0.9428 -2.4466 -1.5761
  952MOL0     H28501   6.175  -0.532   9.131 -2.6585  1.0661 -0.0031
  952MOL0     H28502   6.589   0.310   8.781  0.1637  0.1850 -1.0740
  952MOL0     H28503   6.806   0.433   8.731  0.9479 -1.1021 -0.7345
  952MOL0     H28504   7.232   0.529   8.840 -0.6038 -1.3668 -0.7234
  952MOL0     H28505   7.470   0.613   8.861  1.6970 -0.8557 -0.6947
  952MOL0     H28506   7.334   1.410   8.049  1.0009  2.1153 -1.9172
  952MOL0     H28507   7.224   1.505   7.847  2.8986 -0.4624 -3.0659
  952MOL0     H28508   7.162   1.478   7.408  0.3973  0.5023 -1.0531
  952MOL0     H28509   7.071   1.550   7.195  3.9192 -2.7434  2.4740
  952MOL0     H28510   6.969   1.810   7.098 -0.7514  0.9363  0.5089
  952MOL0     H28511   6.809   1.815   7.025 -1.7754  0.9546  0.6677
  952MOL0     H28512   6.900   1.881   7.292  0.4560  1.2539  0.3596
  952MOL0     H28513   6.730   1.862   7.286  2.1156  2.0966  4.3174
  952MOL0     H28514   6.690   2.038   7.134 -1.7280  0.3301  3.0406
  952MOL0     H28515   6.870   2.052   7.091 -2.0990 -0.2769 -1.9542
  952MOL0     H28516   6.889   2.130   7.338 -2.1216 -0.1660  1.8035
  952MOL0     H28517   6.717   2.118   7.348  0.5692 -2.4957 -0.3046
  952MOL0     H28518   6.837   2.501   7.179  0.9814 -0.0718  1.3797
  952MOL0     H28519   6.701   1.655   7.376  0.2265  0.9482  1.7958
  952MOL0     H28520   6.781   1.556   7.592  0.7178 -1.2746  0.9530
  953MOL0     O28521   5.122   3.417   0.754  0.5069  0.4330  0.2237
  953MOL0     C28522   5.043   3.485   0.687 -0.7792 -0.9267 -0.1915
  953MOL0     O28523   4.942   3.430   0.628 -0.0049  0.1160  0.2074
  953MOL0     C28524   4.903   3.303   0.647 -0.2621 -0.4045 -0.1433
  953MOL0     C28525   4.873   3.224   0.534 -0.9635 -1.3989  0.2879
  953MOL0     C28526   4.817   3.101   0.551 -0.5721 -0.5807  0.2376
  953MOL0     C28527   4.784   3.059   0.684  0.4710  0.8169  0.5824
  953MOL0     O28528   4.693   2.953   0.691 -0.2705  0.4534 -0.6708
  953MOL0     C28529   4.668   2.890   0.814  0.1032 -0.1039  0.2927
  953MOL0     C28530   4.625   2.755   0.769 -0.4301  0.8788 -0.9924
  953MOL0     C28531   4.629   2.652   0.887 -0.1661  0.2477  0.4636
  953MOL0     C28532   4.572   2.523   0.834 -0.3848 -0.6039 -0.2488
  953MOL0     C28533   4.633   2.389   0.898  0.0848  0.0276 -0.1070
  953MOL0     C28534   4.779   2.355   0.873 -0.8586 -0.5772  0.2523
  953MOL0     C28535   4.854   2.277   0.979 -0.1191 -0.8640 -0.1834
  953MOL0     C28536   5.003   2.304   0.939  1.3045  0.4319  0.1262
  953MOL0     N28537   5.087   2.195   0.974 -0.3431 -0.4671  0.5085
  953MOL0     C28538   5.101   2.076   0.902  0.4927  0.2636 -0.5741
  953MOL0     C28539   5.208   2.007   0.953 -0.4420 -0.1131 -0.4510
  953MOL0     C28540   5.264   1.867   0.919  0.6686  0.1458 -0.5481
  953MOL0     C28541   5.259   1.759   1.032 -0.1715 -0.3745  0.6282
  953MOL0     C28542   5.367   1.651   1.009  0.4871 -0.8212  0.5310
  953MOL0     C28543   5.333   1.558   0.892 -0.3195  0.0809 -0.4052
  953MOL0     O28544   5.377   1.617   0.775 -0.6669 -0.0486 -0.4232
  953MOL0     C28545   5.376   1.532   0.666 -0.2209  0.2528 -0.7544
  953MOL0     C28546   5.391   1.394   0.666  0.0312 -0.0082  0.4465
  953MOL0     C28547   5.397   1.315   0.549 -0.5474 -0.9646 -0.1180
  953MOL0     C28548   5.434   1.174   0.571  0.6804 -0.1855  0.1256
  953MOL0     C28549   5.389   1.387   0.424 -0.4392  0.4944  0.1580
  953MOL0     C28550   5.393   1.317   0.296 -0.7258 -0.2844  0.2970
  953MOL0     O28551   5.359   1.394   0.182  0.5441 -0.2602  0.3545
  953MOL0     C28552   5.376   1.337   0.054 -0.0696 -0.8949 -0.4907
  953MOL0     C28553   5.498   1.343  -0.007 -0.3210  0.7979 -0.4980
  953MOL0     C28554   5.516   1.287  -0.136  0.2616 -0.0656  0.7493
  953MOL0     C28555   5.419   1.227  -0.203  0.5907 -0.8462  0.0697
  953MOL0     O28556   5.449   1.184  -0.325 -0.3311 -0.4652  0.8762
  953MOL0     C28557   5.378   1.072  -0.378 -0.4139  0.5362  0.9920
  953MOL0     C28558   5.398   0.950  -0.292  0.1225  0.3796 -0.5543
  953MOL0     C28559   5.375   0.819  -0.379  0.5235  0.0927 -0.2399
  953MOL0     C28560   5.364   0.688  -0.295  0.3776  0.3586  0.4917
  953MOL0     C28561   5.406   0.552  -0.346 -0.7722 -0.5800  0.4311
  953MOL0     C28562   5.366   0.433  -0.257 -0.4278  0.5318 -0.5083
  953MOL0     C28563   5.359   0.297  -0.318 -0.4491 -0.5781 -0.2293
  953MOL0     C28564   5.353   0.170  -0.228 -0.0278 -0.6148  0.8367
  953MOL0    Cl28565   5.483   0.166  -0.119  0.3381  0.0533 -0.3752
  953MOL0     C28566   5.297   1.231  -0.139  0.2269  0.0627 -0.2185
  953MOL0     C28567   5.276   1.282  -0.013  0.3296 -0.1971 -0.3603
  953MOL0     O28568   5.438   1.205   0.289  0.1438 -0.0787 -0.3283
  953MOL0     C28569   5.375   1.524   0.423 -0.3080  0.2686  1.4250
  953MOL0     C28570   5.371   1.597   0.548  0.4726 -0.2628 -0.9308
  953MOL0     N28571   5.259   2.094   1.051 -0.0401 -0.8486 -0.0287
  953MOL0     N28572   5.184   2.207   1.063 -0.6585 -0.3833 -0.0747
  953MOL0     C28573   4.811   3.140   0.797  0.4715 -0.2786  0.1256
  953MOL0     C28574   4.860   3.260   0.778  0.0647  0.1947 -0.1473
  953MOL0     C28575   5.070   3.632   0.684  0.2994 -0.6693 -0.3549
  953MOL0     C28576   5.189   3.692   0.733  0.2570  0.9735 -0.3352
  953MOL0     C28577   5.212   3.822   0.742 -0.4121 -0.1494  0.8532
  953MOL0     C28578   5.131   3.914   0.679 -0.4607 -0.1390 -1.0105
  953MOL0     O28579   5.139   4.043   0.700 -0.3604 -0.1658  0.4774
  953MOL0     C28580   5.185   4.106   0.576 -0.8368 -1.0285 -0.2135
  953MOL0     C28581   5.338   4.091   0.571  0.3144  1.5208  0.3658
  953MOL0     C28582   5.406   4.222   0.497 -0.7753  0.2848  1.1682
  953MOL0     C28583   5.554   4.179   0.474  0.3028  0.0324 -0.5270
  953MOL0     C28584   5.564   4.076   0.372 -0.5411  0.5845 -0.2609
  953MOL0     C28585   5.609   4.024   0.273 -0.3126 -0.2477  0.5241
  953MOL0     C28586   5.021   3.862   0.611  0.5914 -0.1195 -0.0519
  953MOL0     C28587   4.979   3.722   0.629 -0.7908 -0.4070  0.3009
  953MOL0     H28588   4.871   3.250   0.428 -4.4726 -4.3725 -0.5687
  953MOL0     H28589   4.794   3.047   0.460  0.4243  2.2025 -1.8198
  953MOL0     H28590   4.763   2.893   0.869  3.0612  0.0512 -4.2970
  953MOL0     H28591   4.591   2.945   0.869  0.3853  0.4877  0.1122
  953MOL0     H28592   4.524   2.757   0.725 -1.7371  1.4129  1.8152
  953MOL0     H28593   4.691   2.715   0.692 -0.8943  0.5211 -1.2129
  953MOL0     H28594   4.734   2.636   0.915 -0.2029  0.2117  0.5820
  953MOL0     H28595   4.569   2.677   0.975 -0.2297  0.9432  0.2280
  953MOL0     H28596   4.471   2.517   0.876 -0.7549  3.0566 -0.3401
  953MOL0     H28597   4.572   2.508   0.726  1.5993 -0.5160 -0.3043
  953MOL0     H28598   4.626   2.386   1.008  1.9821 -2.7708  0.0442
  953MOL0     H28599   4.561   2.314   0.866 -2.6780  3.2253 -2.0039
  953MOL0     H28600   4.786   2.302   0.778  3.2951  3.9250 -2.4196
  953MOL0     H28601   4.824   2.451   0.848 -0.8118 -0.1768  1.7351
  953MOL0     H28602   4.837   2.297   1.085 -0.8497 -3.5046  0.2834
  953MOL0     H28603   4.819   2.174   0.966  0.0075 -0.7411 -1.6432
  953MOL0     H28604   5.043   2.390   0.994 -0.3808  1.6805 -0.4962
  953MOL0     H28605   5.013   2.330   0.833 -1.6564  3.1366  0.3349
  953MOL0     H28606   5.033   2.047   0.823 -1.9428 -0.3742  1.6427
  953MOL0     H28607   5.213   1.836   0.828 -2.6082  5.1593 -0.7783
  953MOL0     H28608   5.370   1.881   0.899  0.5026  0.9652 -0.8872
  953MOL0     H28609   5.160   1.715   1.046  0.6293 -1.8785  1.9366
  953MOL0     H28610   5.266   1.807   1.130 -0.3072 -1.0989  1.0007
  953MOL0     H28611   5.364   1.589   1.099 -0.9861  1.6937  2.3334
  953MOL0     H28612   5.471   1.685   0.999  0.6127 -0.7527  1.9019
  953MOL0     H28613   5.224   1.554   0.889 -0.4623  2.6652 -1.2705
  953MOL0     H28614   5.373   1.458   0.910 -0.3925  0.2430  0.7663
  953MOL0     H28615   5.396   1.331   0.755 -1.4517 -1.8356 -0.7044
  953MOL0     H28616   5.466   1.157   0.674  0.3062  3.6835  1.0594
  953MOL0     H28617   5.355   1.105   0.539  1.6706 -0.1367 -2.5877
  953MOL0     H28618   5.522   1.154   0.510  1.5579 -0.3265  1.4040
  953MOL0     H28619   5.584   1.373   0.053  1.3912 -0.0525 -2.3912
  953MOL0     H28620   5.617   1.284  -0.176  1.5295  0.9622  3.6194
  953MOL0     H28621   5.273   1.100  -0.375  0.0544  2.4049  1.4589
  953MOL0     H28622   5.426   1.062  -0.476  0.7394 -2.5736  1.7446
  953MOL0     H28623   5.503   0.950  -0.261  0.7575  1.4529 -2.5066
  953MOL0     H28624   5.337   0.948  -0.201  0.5781 -1.3985 -0.2399
  953MOL0     H28625   5.453   0.809  -0.455 -0.2500  1.4862 -1.2698
  953MOL0     H28626   5.279   0.825  -0.431 -0.6172  1.3848  1.8635
  953MOL0     H28627   5.419   0.699  -0.201  3.6358  1.5907 -1.3911
  953MOL0     H28628   5.262   0.683  -0.256  0.8639  0.3687  1.8015
  953MOL0     H28629   5.511   0.540  -0.372 -1.5523 -1.1130 -2.9850
  953MOL0     H28630   5.346   0.533  -0.436 -2.0092  2.8920  0.3506
  953MOL0     H28631   5.440   0.440  -0.177 -2.0906  0.8337  1.0796
  953MOL0     H28632   5.269   0.453  -0.212 -1.1685 -1.4164 -1.1386
  953MOL0     H28633   5.453   0.298  -0.374  0.5732 -1.1937  1.4017
  953MOL0     H28634   5.275   0.300  -0.388 -2.1949  2.4081  1.7407
  953MOL0     H28635   5.357   0.090  -0.301  3.3450  2.5315 -2.8872
  953MOL0     H28636   5.256   0.182  -0.178 -1.2225  0.8324 -1.6605
  953MOL0     H28637   5.208   1.198  -0.191  0.9465  3.8828 -4.5345
  953MOL0     H28638   5.176   1.272   0.028  0.3485 -0.1264 -0.2987
  953MOL0     H28639   5.362   1.577   0.329  2.1213 -0.0547  0.8515
  953MOL0     H28640   5.350   1.704   0.552 -1.6686 -0.6286 -1.0892
  953MOL0     H28641   4.794   3.094   0.894  1.8653 -0.2824  0.3887
  953MOL0     H28642   4.885   3.312   0.870  2.2191 -0.0206 -0.5441
  953MOL0     H28643   5.263   3.631   0.784  2.6620  1.8799 -2.5290
  953MOL0     H28644   5.300   3.856   0.796 -1.1408  4.6910 -0.4961
  953MOL0     H28645   5.134   4.076   0.485 -1.6472  2.9486 -1.2756
  953MOL0     H28646   5.165   4.214   0.575  0.4083 -0.7732 -1.9536
  953MOL0     H28647   5.362   4.000   0.515  3.1531  1.5287  1.4259
  953MOL0     H28648   5.385   4.091   0.670  1.9086 -0.2141 -0.3189
  953MOL0     H28649   5.402   4.308   0.564  3.8693  0.6776  1.2473
  953MOL0     H28650   5.353   4.233   0.401  1.2143 -3.3979 -0.5936
  953MOL0     H28651   5.609   4.158   0.566  1.6853 -1.5603 -1.6514
  953MOL0     H28652   5.604   4.270   0.440 -1.0273  0.8550 -0.3640
  953MOL0     H28653   5.624   3.981   0.176 -2.1941 -0.5368  0.3118
  953MOL0     H28654   4.951   3.932   0.568  0.5354 -1.0874 -1.6351
  953MOL0     H28655   4.885   3.695   0.581 -0.0291  1.0293 -2.1905
  954MOL0     O28656   2.649   6.615   9.426 -0.1188 -0.6741 -0.3667
  954MOL0     C28657   2.536   6.598   9.466 -0.4017 -0.4090 -0.8060
  954MOL0     O28658   2.492   6.472   9.508  0.3858  0.9513  0.4497
  954MOL0     C28659   2.574   6.373   9.444 -0.4953 -0.3346  1.0222
  954MOL0     C28660   2.563   6.328   9.313 -0.8355  0.6634  0.4252
  954MOL0     C28661   2.666   6.245   9.257  0.6814 -0.6016 -0.2651
  954MOL0     C28662   2.762   6.193   9.342 -0.6783  1.1197 -0.3342
  954MOL0     O28663   2.846   6.097   9.293 -0.8693 -0.0485  0.2298
  954MOL0     C28664   2.805   5.970   9.316  0.7540  0.4607  0.8089
  954MOL0     C28665   2.910   5.870   9.249  1.2068 -0.2027 -0.2393
  954MOL0     C28666   2.864   5.726   9.283  0.2169 -0.2768  0.6362
  954MOL0     C28667   2.956   5.617   9.245 -0.1862  1.1921 -0.7302
  954MOL0     C28668   2.932   5.478   9.314  0.6558 -0.2886 -0.0090
  954MOL0     C28669   3.051   5.390   9.321 -0.8137  0.3944  0.4718
  954MOL0     C28670   3.020   5.251   9.378  0.7766 -0.6927 -0.5384
  954MOL0     C28671   3.109   5.141   9.319 -0.4236 -0.3002  0.0487
  954MOL0     N28672   3.247   5.194   9.335 -0.7282  0.2876  0.4418
  954MOL0     C28673   3.323   5.226   9.446  0.6926 -0.3208  0.5036
  954MOL0     C28674   3.448   5.245   9.391  0.8796 -0.1471 -0.4961
  954MOL0     C28675   3.557   5.310   9.470  0.3048  0.0358 -0.0953
  954MOL0     C28676   3.644   5.203   9.559 -1.0496  0.1500 -0.3753
  954MOL0     C28677   3.702   5.086   9.474  0.4014 -0.2280  1.7615
  954MOL0     C28678   3.759   4.980   9.566 -0.5336 -0.7162 -0.7426
  954MOL0     O28679   3.868   5.019   9.663 -0.4381 -0.3122  0.4938
  954MOL0     C28680   3.951   4.920   9.702 -0.5901 -0.2037  0.3338
  954MOL0     C28681   3.966   4.792   9.648  0.2190  0.2422 -0.1390
  954MOL0     C28682   4.059   4.694   9.688  0.4635 -0.1108  0.1904
  954MOL0     C28683   4.060   4.573   9.597  0.3832 -0.4503 -0.9159
  954MOL0     C28684   4.160   4.741   9.779 -0.2614  0.2046 -0.1942
  954MOL0     C28685   4.286   4.657   9.815  0.5938 -0.0043 -0.1274
  954MOL0     O28686   4.315   4.532   9.749 -0.2542  0.1815  0.6421
  954MOL0     C28687   4.438   4.474   9.777  0.4777 -1.7617  0.1979
  954MOL0     C28688   4.518   4.431   9.678 -0.3337  0.4185 -0.1905
  954MOL0     C28689   4.630   4.345   9.694 -0.3251  0.4136 -0.0730
  954MOL0     C28690   4.672   4.324   9.826 -0.5558  0.1338  0.0713
  954MOL0     O28691   4.774   4.231   9.843  0.4399  0.3747  0.3581
  954MOL0     C28692   4.887   4.303   9.896 -0.1203  0.6251 -0.1429
  954MOL0     C28693   5.008   4.218   9.925 -0.3917 -0.6672  0.0304
  954MOL0     C28694   5.000   4.137  10.054  0.4835 -0.3904 -0.4321
  954MOL0     C28695   5.137   4.063  10.068 -0.1513  0.1871 -0.0141
  954MOL0     C28696   5.177   4.011  10.218  0.2357  0.6486  0.4317
  954MOL0     C28697   5.084   3.891  10.250  0.2854  0.1792 -0.8477
  954MOL0     C28698   5.128   3.766  10.165  0.0637  0.2203 -1.0284
  954MOL0     C28699   5.113   3.643  10.248 -0.7882 -0.4425 -0.1463
  954MOL0    Cl28700   4.936   3.606  10.237  0.1483 -0.2178  0.0997
  954MOL0     C28701   4.601   4.376   9.930  0.9722  0.0027 -0.8085
  954MOL0     C28702   4.483   4.443   9.908  1.0967 -0.5609  1.0532
  954MOL0     O28703   4.364   4.712   9.901 -0.3927  0.2274 -0.7594
  954MOL0     C28704   4.147   4.873   9.841 -0.1071 -0.0440 -0.1609
  954MOL0     C28705   4.043   4.950   9.808  0.6346 -0.1118 -1.2037
  954MOL0     N28706   3.441   5.231   9.251 -0.3917 -0.0987  0.0933
  954MOL0     N28707   3.326   5.200   9.218  0.1100  0.5855 -0.6142
  954MOL0     C28708   2.765   6.220   9.483  0.3560  0.1189  0.0885
  954MOL0     C28709   2.673   6.308   9.525 -0.1338 -0.7280  0.5488
  954MOL0     C28710   2.455   6.716   9.490 -0.4831  0.2731  0.1064
  954MOL0     C28711   2.504   6.848   9.460 -0.2034 -0.7554 -0.5231
  954MOL0     C28712   2.426   6.965   9.484  1.5518  0.8506  0.9964
  954MOL0     C28713   2.294   6.951   9.528  0.2139  0.4046  0.6338
  954MOL0     O28714   2.232   7.069   9.511  0.1262  0.0576 -1.3542
  954MOL0     C28715   2.097   7.081   9.531  0.4527 -0.5221 -0.1687
  954MOL0     C28716   2.043   7.071   9.672 -0.8160 -0.4339 -0.6190
  954MOL0     C28717   2.080   7.206   9.749 -0.1780  0.3701 -0.8239
  954MOL0     C28718   1.985   7.233   9.867  0.7296  0.0160 -0.1612
  954MOL0     C28719   2.002   7.382   9.892  0.5045  0.7169 -0.2218
  954MOL0     C28720   2.020   7.497   9.920 -0.2550 -0.2510  0.5963
  954MOL0     C28721   2.256   6.823   9.569 -0.5111 -0.9117 -0.3462
  954MOL0     C28722   2.338   6.711   9.559 -0.4830  0.0123 -0.3140
  954MOL0     H28723   2.500   6.357   9.230  2.3527 -1.9045 -3.2828
  954MOL0     H28724   2.670   6.221   9.151  2.2783 -0.7799 -0.1868
  954MOL0     H28725   2.799   5.954   9.424 -0.9294 -1.4829  0.4879
  954MOL0     H28726   2.707   5.952   9.272  1.0939 -2.6261  1.0397
  954MOL0     H28727   2.901   5.885   9.141 -2.8880 -1.0615 -0.1913
  954MOL0     H28728   3.011   5.891   9.284  0.5290  0.0409  1.6753
  954MOL0     H28729   2.870   5.717   9.392  2.1008 -4.1617  0.4116
  954MOL0     H28730   2.762   5.710   9.245  0.1411 -2.5050  1.6038
  954MOL0     H28731   2.962   5.611   9.136 -2.2044  1.7893 -0.9241
  954MOL0     H28732   3.052   5.645   9.290 -0.2531  0.0591  0.1653
  954MOL0     H28733   2.894   5.493   9.416 -2.3853 -1.8664 -0.7997
  954MOL0     H28734   2.868   5.424   9.244  1.2829  0.2675 -1.0318
  954MOL0     H28735   3.107   5.375   9.228  1.2132 -4.5541  2.1735
  954MOL0     H28736   3.129   5.430   9.386  0.9489 -2.6181  0.3712
  954MOL0     H28737   3.024   5.253   9.487  1.1906  1.4561 -0.5466
  954MOL0     H28738   2.914   5.235   9.356  0.2759 -1.5026  2.1804
  954MOL0     H28739   3.087   5.126   9.213 -1.1327  1.4229 -0.0845
  954MOL0     H28740   3.118   5.048   9.376  3.1378  0.7445  1.4652
  954MOL0     H28741   3.293   5.229   9.550  3.4025  1.1264  1.3395
  954MOL0     H28742   3.626   5.360   9.401  0.4855 -1.4295 -1.0179
  954MOL0     H28743   3.504   5.382   9.533 -1.3346 -0.0395 -1.3398
  954MOL0     H28744   3.582   5.152   9.633  1.5589 -4.1152 -0.7579
  954MOL0     H28745   3.731   5.248   9.608 -1.5981  1.2553 -0.3805
  954MOL0     H28746   3.780   5.130   9.412 -0.2606  2.0872  2.4523
  954MOL0     H28747   3.629   5.036   9.410  0.9778  0.5208  0.4665
  954MOL0     H28748   3.805   4.917   9.490  0.3720 -2.6376  1.2915
  954MOL0     H28749   3.677   4.929   9.616 -0.3603 -1.1770 -0.9288
  954MOL0     H28750   3.904   4.777   9.560 -1.3291  1.1131  0.7545
  954MOL0     H28751   4.024   4.490   9.658 -3.8950  1.3222 -0.7229
  954MOL0     H28752   3.991   4.583   9.513 -2.0388 -0.0754  1.0013
  954MOL0     H28753   4.156   4.561   9.545  1.2548 -0.6724  0.6920
  954MOL0     H28754   4.502   4.454   9.574 -1.2803 -0.5925 -0.2854
  954MOL0     H28755   4.692   4.315   9.610 -1.2408  1.6487 -1.2431
  954MOL0     H28756   4.930   4.373   9.824  1.6006 -0.5566 -0.3239
  954MOL0     H28757   4.865   4.354   9.991  1.6967  0.3269  0.4759
  954MOL0     H28758   5.016   4.154   9.836 -0.9174 -0.1177 -0.4145
  954MOL0     H28759   5.096   4.282   9.930 -0.9565  0.1937 -0.9214
  954MOL0     H28760   4.923   4.060  10.042 -0.6487  0.8691 -1.5286
  954MOL0     H28761   4.969   4.204  10.134  0.9570 -0.7640  0.0747
  954MOL0     H28762   5.128   3.973  10.006  2.9684 -0.7968  0.7459
  954MOL0     H28763   5.222   4.122  10.033  0.7851 -1.5491 -0.8185
  954MOL0     H28764   5.180   4.088  10.295 -1.7239 -1.7726  3.1356
  954MOL0     H28765   5.279   3.972  10.205  0.9996  2.2782  1.3597
  954MOL0     H28766   5.104   3.866  10.354 -1.6928  0.0835 -0.4574
  954MOL0     H28767   4.977   3.912  10.243 -0.1901 -2.3495 -2.5418
  954MOL0     H28768   5.233   3.779  10.138  0.7442  0.9407  1.6956
  954MOL0     H28769   5.069   3.758  10.073  0.1776  0.9565 -1.1707
  954MOL0     H28770   5.143   3.657  10.352 -2.1503 -1.3023  0.3936
  954MOL0     H28771   5.167   3.555  10.211  1.5334 -0.0024  1.9869
  954MOL0     H28772   4.638   4.367  10.031  2.6566  0.8819 -1.3150
  954MOL0     H28773   4.412   4.459   9.989 -2.0543  1.7365 -1.9140
  954MOL0     H28774   4.224   4.913   9.906  0.7119  0.0633 -1.1751
  954MOL0     H28775   4.035   5.044   9.862 -4.8938 -1.3304  0.7295
  954MOL0     H28776   2.845   6.179   9.544  0.7193  1.2676  0.4157
  954MOL0     H28777   2.662   6.344   9.627 -3.9903 -1.3329  0.5251
  954MOL0     H28778   2.604   6.865   9.421 -0.0154  1.1292  0.6270
  954MOL0     H28779   2.468   7.060   9.451  1.6076  0.9277  1.2869
  954MOL0     H28780   2.067   7.173   9.480  0.6947 -0.9175 -1.0289
  954MOL0     H28781   2.041   7.008   9.473 -1.8099  1.4056 -0.5755
  954MOL0     H28782   2.083   6.981   9.719  2.5922 -1.0191 -4.1567
  954MOL0     H28783   1.937   7.051   9.656  0.1278 -4.4030 -3.6265
  954MOL0     H28784   2.070   7.291   9.681  0.7945  0.1540 -1.2537
  954MOL0     H28785   2.179   7.206   9.795 -1.5003 -0.0485  2.2847
  954MOL0     H28786   1.991   7.189   9.967  1.2754 -1.8342 -0.9466
  954MOL0     H28787   1.879   7.240   9.840  0.5126  0.5886  0.7725
  954MOL0     H28788   2.034   7.597   9.956  0.1990 -0.6440  1.5405
  954MOL0     H28789   2.160   6.798   9.613 -0.7895 -3.0429 -2.0021
  954MOL0     H28790   2.294   6.617   9.591  0.9141 -1.2997 -2.0424
  955MOL0     O28791  10.798   0.210   7.008  1.1432  0.0773  0.4593
  955MOL0     C28792  10.742   0.319   7.003 -0.2582 -0.2883 -0.0402
  955MOL0     O28793  10.766   0.420   7.097  0.1012  0.2741  0.1342
  955MOL0     C28794  10.773   0.387   7.230  0.5738  0.3048 -0.4295
  955MOL0     C28795  10.653   0.369   7.305 -0.0617 -0.1748  0.0027
  955MOL0     C28796  10.662   0.321   7.436  0.2864  0.0760 -1.0676
  955MOL0     C28797  10.779   0.273   7.492 -0.0744 -0.0593 -0.2648
  955MOL0     O28798  10.766   0.217   7.619  0.1942 -0.0615  0.8478
  955MOL0     C28799  10.888   0.186   7.696  0.2301 -0.0607  0.4522
  955MOL0     C28800  10.853   0.165   7.841 -0.7067 -0.5045 -0.1730
  955MOL0     C28801  10.859   0.291   7.934  0.2434  0.2507  0.0643
  955MOL0     C28802  10.779   0.271   8.061  0.5011 -0.8272  0.9299
  955MOL0     C28803  10.768   0.399   8.145 -0.3678  0.9537  0.5942
  955MOL0     C28804  10.665   0.379   8.251 -0.2432  0.0776 -0.3181
  955MOL0     C28805  10.684   0.490   8.356 -0.4029 -0.3497  0.0020
  955MOL0     C28806  10.620   0.446   8.484  1.1978 -0.3070  1.1264
  955MOL0     N28807  10.664   0.523   8.605  0.5843  0.1096 -0.0317
  955MOL0     C28808  10.787   0.509   8.661 -0.6445  1.0009 -1.0197
  955MOL0     C28809  10.798   0.607   8.751 -0.6922  0.8871 -1.1863
  955MOL0     C28810  10.921   0.627   8.834 -1.7544 -0.3903  0.3398
  955MOL0     C28811  11.048   0.646   8.744 -1.1879  0.1143 -0.2903
  955MOL0     C28812  11.165   0.726   8.803 -0.3440 -0.0624 -0.6981
  955MOL0     C28813  11.285   0.721   8.709  0.3494  1.5807  1.1000
  955MOL0     O28814  11.246   0.748   8.569  0.6775  0.3493 -0.2981
  955MOL0     C28815  11.338   0.775   8.470  0.5329  0.5494 -0.2172
  955MOL0     C28816  11.460   0.700   8.459 -0.5651  0.6502  0.8972
  955MOL0     C28817  11.551   0.728   8.360 -0.2781  0.2365 -0.9495
  955MOL0     C28818  11.670   0.643   8.366  0.5497  0.6816  0.5842
  955MOL0     C28819  11.522   0.834   8.264  0.2441  0.6746 -0.3385
  955MOL0     C28820  11.606   0.879   8.148  0.1645 -0.1563  0.6956
  955MOL0     O28821  11.553   0.977   8.065 -0.7451  0.3108  0.1520
  955MOL0     C28822  11.610   0.998   7.940 -0.0845 -0.0165 -0.9650
  955MOL0     C28823  11.636   0.890   7.846  0.3097 -0.0289 -1.3121
  955MOL0     C28824  11.653   0.914   7.715 -0.8069 -0.1580  1.0142
  955MOL0     C28825  11.663   1.047   7.664 -0.0292 -0.1327 -0.1729
  955MOL0     O28826  11.682   1.067   7.525  0.8669 -0.5781 -0.2232
  955MOL0     C28827  11.673   1.197   7.464  0.2312  0.2582  0.5933
  955MOL0     C28828  11.812   1.248   7.438  0.5684  0.5517 -0.8131
  955MOL0     C28829  11.872   1.156   7.335 -0.1338  0.2113 -1.1021
  955MOL0     C28830  11.965   1.236   7.251 -0.7160 -0.0325  0.3860
  955MOL0     C28831  11.907   1.308   7.128  0.1101 -0.6032  0.4206
  955MOL0     C28832  11.805   1.222   7.053 -0.7836 -0.2855 -0.1072
  955MOL0     C28833  11.763   1.304   6.931  1.1802  0.3665 -0.4310
  955MOL0     C28834  11.683   1.207   6.836  0.3129 -0.2636 -0.3314
  955MOL0    Cl28835  11.655   1.275   6.675  0.1247 -0.9469 -0.2480
  955MOL0     C28836  11.653   1.152   7.759  0.3722 -0.2284 -0.7523
  955MOL0     C28837  11.619   1.125   7.888  0.0087 -0.0458  0.1148
  955MOL0     O28838  11.713   0.824   8.138  0.1451 -0.1587  0.2039
  955MOL0     C28839  11.407   0.919   8.292 -0.2866 -0.8846  0.7323
  955MOL0     C28840  11.321   0.886   8.398  0.5335 -0.7844  0.3031
  955MOL0     N28841  10.676   0.673   8.757 -0.4477  0.0550 -0.3518
  955MOL0     N28842  10.599   0.616   8.679  0.4594 -0.4272 -0.0454
  955MOL0     C28843  10.898   0.306   7.418 -0.1006  0.2177  0.1273
  955MOL0     C28844  10.896   0.357   7.284 -0.2880 -0.5130  0.1813
  955MOL0     C28845  10.658   0.330   6.882 -0.0617 -0.5563 -0.9635
  955MOL0     C28846  10.697   0.289   6.756  0.2339 -0.4356 -0.3179
  955MOL0     C28847  10.617   0.307   6.643  0.1205 -0.6892  0.3165
  955MOL0     C28848  10.493   0.368   6.656  0.0296 -0.0244 -0.5592
  955MOL0     O28849  10.401   0.388   6.550 -0.1730  0.0027  0.1257
  955MOL0     C28850  10.385   0.286   6.454 -0.1652 -0.1948 -0.0268
  955MOL0     C28851  10.241   0.232   6.447 -0.3505  1.1118 -0.5130
  955MOL0     C28852  10.136   0.333   6.443  0.5603  0.4026 -0.0135
  955MOL0     C28853  10.095   0.395   6.571  0.1981 -0.1615 -0.8195
  955MOL0     C28854   9.992   0.496   6.551 -0.2374  0.2682 -0.5575
  955MOL0     C28855   9.921   0.592   6.535 -1.2266 -0.2260 -0.2290
  955MOL0     C28856  10.454   0.408   6.782  0.1278 -0.1086  0.2308
  955MOL0     C28857  10.536   0.385   6.897  0.4842  0.3406 -0.8096
  955MOL0     H28858  10.560   0.384   7.251 -2.1066 -1.2743  2.9804
  955MOL0     H28859  10.573   0.304   7.495  2.6303 -3.7188  1.8519
  955MOL0     H28860  10.945   0.105   7.650  0.1651 -0.5732  1.2589
  955MOL0     H28861  10.958   0.270   7.690 -1.5931  1.6314  1.5947
  955MOL0     H28862  10.755   0.117   7.840 -1.3246  0.7343 -0.0766
  955MOL0     H28863  10.921   0.088   7.880 -0.7612  0.2226  1.4205
  955MOL0     H28864  10.960   0.322   7.963 -0.9812  2.3505  2.5718
  955MOL0     H28865  10.815   0.370   7.872  1.1100 -0.7527 -1.9064
  955MOL0     H28866  10.674   0.251   8.036 -0.8503  0.7926  4.6079
  955MOL0     H28867  10.828   0.187   8.112 -1.7492 -0.8968  3.1911
  955MOL0     H28868  10.869   0.419   8.180 -0.7509  0.4582  2.0746
  955MOL0     H28869  10.739   0.490   8.093  1.6396  1.1407 -0.2794
  955MOL0     H28870  10.570   0.390   8.199 -0.6520  2.2553  0.8038
  955MOL0     H28871  10.668   0.279   8.295  3.9565 -1.4553 -3.3678
  955MOL0     H28872  10.792   0.504   8.366 -0.1705  2.5828 -4.0087
  955MOL0     H28873  10.653   0.591   8.327  0.9967 -0.3157 -1.5169
  955MOL0     H28874  10.642   0.340   8.500  0.0449 -0.6484  0.5575
  955MOL0     H28875  10.511   0.453   8.475  1.4590  4.2493 -1.8137
  955MOL0     H28876  10.873   0.448   8.638  0.0070  2.2421 -2.0302
  955MOL0     H28877  10.919   0.724   8.884  0.5356  0.5909 -1.2842
  955MOL0     H28878  10.942   0.550   8.908  2.0462 -0.9818 -1.1013
  955MOL0     H28879  11.028   0.693   8.648  0.7607  0.9251 -0.3470
  955MOL0     H28880  11.089   0.547   8.720  0.8076  0.9918 -0.7017
  955MOL0     H28881  11.190   0.676   8.897 -1.5145 -0.4610 -0.5937
  955MOL0     H28882  11.140   0.831   8.818  2.2391  0.9524 -2.7266
  955MOL0     H28883  11.332   0.623   8.712  1.2016  1.9288 -0.1277
  955MOL0     H28884  11.354   0.797   8.746  1.2658  3.6410 -3.9655
  955MOL0     H28885  11.458   0.609   8.519 -1.5697  0.1242  0.0900
  955MOL0     H28886  11.660   0.539   8.399 -0.1632  0.4869 -0.1937
  955MOL0     H28887  11.700   0.628   8.262 -1.9910 -3.0587  0.1873
  955MOL0     H28888  11.747   0.697   8.420  1.4845  0.1340 -0.1563
  955MOL0     H28889  11.609   0.788   7.871 -1.2698  0.4767 -0.8346
  955MOL0     H28890  11.664   0.839   7.637 -1.9238  0.9069 -0.2058
  955MOL0     H28891  11.622   1.186   7.369  1.9100 -1.1983 -0.2133
  955MOL0     H28892  11.624   1.269   7.529 -0.6674  2.2675 -2.1389
  955MOL0     H28893  11.807   1.357   7.434 -0.4390  0.4866 -2.0068
  955MOL0     H28894  11.879   1.238   7.524  1.4909 -0.0795 -1.5825
  955MOL0     H28895  11.797   1.104   7.273 -1.7480  2.1365 -0.8667
  955MOL0     H28896  11.931   1.078   7.383 -2.0502 -1.1653 -0.8475
  955MOL0     H28897  12.036   1.289   7.315  0.8967  0.5554 -1.7872
  955MOL0     H28898  12.034   1.166   7.203  0.9554 -0.3101  2.9863
  955MOL0     H28899  11.995   1.337   7.069 -0.3228  2.1798  0.9834
  955MOL0     H28900  11.852   1.397   7.160 -1.0974 -0.7863 -1.0394
  955MOL0     H28901  11.845   1.125   7.023  1.3942  0.6597 -0.4490
  955MOL0     H28902  11.714   1.200   7.108 -0.6301 -0.9951 -0.1334
  955MOL0     H28903  11.843   1.345   6.870  1.8569 -0.5985 -0.2194
  955MOL0     H28904  11.708   1.396   6.952  1.4162  0.7443 -1.4216
  955MOL0     H28905  11.587   1.175   6.877  0.2062  0.5786  0.0914
  955MOL0     H28906  11.751   1.121   6.833  0.2274 -0.4671  1.8184
  955MOL0     H28907  11.674   1.257   7.740  2.3796 -0.3132  0.7496
  955MOL0     H28908  11.613   1.213   7.952  0.5480 -1.0101  1.5658
  955MOL0     H28909  11.391   1.011   8.236  1.9387 -1.1949 -0.5440
  955MOL0     H28910  11.238   0.951   8.421  0.8285 -0.4546  0.4553
  955MOL0     H28911  10.988   0.276   7.471  0.0820  0.0894 -0.2547
  955MOL0     H28912  10.994   0.378   7.242 -0.5311  3.5314  1.2197
  955MOL0     H28913  10.796   0.246   6.745  1.9979  2.8309  1.3028
  955MOL0     H28914  10.651   0.284   6.543  2.0225  0.0014  0.7657
  955MOL0     H28915  10.400   0.320   6.351 -2.2355  0.4408 -0.1723
  955MOL0     H28916  10.457   0.205   6.468 -1.0013 -0.6358  1.9333
  955MOL0     H28917  10.235   0.158   6.528  2.5669  0.7191 -0.5482
  955MOL0     H28918  10.228   0.181   6.351  1.5720 -3.9107  1.5251
  955MOL0     H28919  10.051   0.281   6.397  1.3351 -0.8517 -0.0757
  955MOL0     H28920  10.167   0.413   6.375 -1.1649 -0.6631 -2.1709
  955MOL0     H28921  10.172   0.453   6.622 -1.9779  2.1065  0.1110
  955MOL0     H28922  10.056   0.320   6.642 -0.6669  0.1116 -0.9958
  955MOL0     H28923   9.851   0.672   6.516 -0.2751  0.2995 -1.7047
  955MOL0     H28924  10.359   0.459   6.791  0.8752  2.3051 -3.5552
  955MOL0     H28925  10.504   0.415   6.997 -0.6913 -1.2165 -0.6848
  956MOL0     O28926   7.027   0.134   4.838 -0.1735  0.0912 -0.2776
  956MOL0     C28927   7.101   0.221   4.800  0.3972  0.0082 -0.5377
  956MOL0     O28928   7.244   0.216   4.788  0.5145 -0.0228  0.1381
  956MOL0     C28929   7.303   0.090   4.791  0.2708  1.3432 -0.3792
  956MOL0     C28930   7.380   0.044   4.685  0.7589  0.2681  0.4001
  956MOL0     C28931   7.434  -0.078   4.676 -0.4923 -0.0846 -0.4742
  956MOL0     C28932   7.432  -0.158   4.793 -0.1882  0.1448 -0.2229
  956MOL0     O28933   7.503  -0.271   4.819  0.0678  0.6788 -0.1177
  956MOL0     C28934   7.580  -0.331   4.724  0.1469  0.0221  0.1769
  956MOL0     C28935   7.660  -0.444   4.789  0.1589  0.2380  0.2452
  956MOL0     C28936   7.549  -0.555   4.825 -0.1530  0.9202 -1.2547
  956MOL0     C28937   7.530  -0.641   4.703  0.0547  0.4873 -0.4044
  956MOL0     C28938   7.401  -0.736   4.718 -0.3065 -0.1522 -0.2233
  956MOL0     C28939   7.444  -0.863   4.796 -0.9114 -0.0050 -0.2704
  956MOL0     C28940   7.321  -0.962   4.806 -0.1050 -0.9931 -0.3120
  956MOL0     C28941   7.242  -0.951   4.948 -0.5472 -0.4633  0.8886
  956MOL0     N28942   7.286  -1.031   5.068  0.1492  0.4427  1.1913
  956MOL0     C28943   7.262  -1.164   5.071 -0.2317 -0.5214  0.6460
  956MOL0     C28944   7.320  -1.208   5.185  0.1025 -0.9452 -0.3069
  956MOL0     C28945   7.341  -1.356   5.231  0.1024 -0.3835 -0.2788
  956MOL0     C28946   7.486  -1.387   5.226 -0.1535  0.0509  0.3065
  956MOL0     C28947   7.541  -1.428   5.094 -0.7471  0.8303  0.0853
  956MOL0     C28948   7.687  -1.486   5.100  0.2169 -0.7942 -0.2934
  956MOL0     O28949   7.760  -1.460   4.978  0.2099 -0.2778 -0.0240
  956MOL0     C28950   7.869  -1.377   4.977  0.2152 -0.0289  0.2620
  956MOL0     C28951   7.976  -1.422   4.900  0.1612 -0.2018  0.0623
  956MOL0     C28952   8.105  -1.353   4.897  0.4318  1.0103 -0.4549
  956MOL0     C28953   8.215  -1.416   4.818 -0.3790  0.3244 -0.9513
  956MOL0     C28954   8.121  -1.232   4.975 -0.3174 -0.0827  0.0318
  956MOL0     C28955   8.240  -1.145   4.974  0.0762 -0.0767  0.1480
  956MOL0     O28956   8.255  -1.045   5.072  0.2417 -0.1124 -0.1977
  956MOL0     C28957   8.352  -0.950   5.051  0.4139  0.2964  0.8402
  956MOL0     C28958   8.372  -0.895   4.916  0.0942 -0.7007  0.0920
  956MOL0     C28959   8.467  -0.790   4.894  0.1137  0.2901  0.8115
  956MOL0     C28960   8.518  -0.725   5.008 -0.0408 -0.3410 -0.3062
  956MOL0     O28961   8.596  -0.617   4.990  0.5150 -0.3637 -0.0562
  956MOL0     C28962   8.614  -0.529   5.105 -0.1945  0.0698 -1.1359
  956MOL0     C28963   8.619  -0.374   5.078 -1.1255 -0.5476  0.9942
  956MOL0     C28964   8.761  -0.311   5.038 -0.4890 -0.2263 -0.0150
  956MOL0     C28965   8.853  -0.407   4.952  0.7126 -0.0744 -0.0901
  956MOL0     C28966   8.992  -0.368   4.903 -0.0149  0.2159  0.3433
  956MOL0     C28967   9.044  -0.274   5.012  0.0560  0.7275  0.9139
  956MOL0     C28968   9.175  -0.224   4.953  0.3145  0.5644 -1.1515
  956MOL0     C28969   9.259  -0.135   5.044 -1.0955 -0.0982 -0.3676
  956MOL0    Cl28970   9.426  -0.109   4.988 -0.0660 -0.1731  0.1250
  956MOL0     C28971   8.494  -0.780   5.134 -0.8239  0.0010  0.2865
  956MOL0     C28972   8.413  -0.887   5.153  0.1668  1.1030  0.2865
  956MOL0     O28973   8.319  -1.177   4.895 -0.2382  0.6528 -0.1380
  956MOL0     C28974   8.011  -1.188   5.046  0.8060 -0.3075 -1.5344
  956MOL0     C28975   7.887  -1.262   5.051 -0.5619 -0.0083  0.7040
  956MOL0     N28976   7.369  -1.092   5.254  0.4363  0.5430 -0.1784
  956MOL0     N28977   7.345  -0.987   5.184  0.5970 -0.1324 -0.4248
  956MOL0     C28978   7.356  -0.119   4.900  0.0940  0.0243 -0.5187
  956MOL0     C28979   7.284   0.004   4.898  0.5629 -0.0670 -0.2362
  956MOL0     C28980   7.043   0.348   4.765 -0.0847  0.3269  0.1869
  956MOL0     C28981   7.098   0.437   4.667 -0.0063  1.4273 -0.1948
  956MOL0     C28982   7.053   0.573   4.669  0.7029 -1.1695 -0.7162
  956MOL0     C28983   6.928   0.611   4.730  0.5809 -0.5025 -0.1569
  956MOL0     O28984   6.880   0.740   4.706  0.0131  0.8566  0.0342
  956MOL0     C28985   6.750   0.779   4.736  0.1935 -0.8759  0.3494
  956MOL0     C28986   6.718   0.915   4.657 -0.0675 -0.6003  0.1131
  956MOL0     C28987   6.578   0.959   4.657  0.2323  0.6462  0.0135
  956MOL0     C28988   6.566   1.105   4.614  0.1546 -0.1656  0.2275
  956MOL0     C28989   6.430   1.154   4.648 -0.1273  0.6681 -0.1344
  956MOL0     C28990   6.323   1.187   4.687  0.3239 -0.4388  0.2360
  956MOL0     C28991   6.860   0.511   4.800  0.1092  0.2981  0.0633
  956MOL0     C28992   6.923   0.398   4.826 -0.1959  0.1613  0.5638
  956MOL0     H28993   7.400   0.112   4.603 -0.4297 -0.2614 -0.3481
  956MOL0     H28994   7.475  -0.121   4.585 -0.8036 -0.0168 -0.6506
  956MOL0     H28995   7.527  -0.357   4.632  1.9082 -1.9583 -0.3474
  956MOL0     H28996   7.663  -0.262   4.703  0.0362  0.5673  1.4302
  956MOL0     H28997   7.737  -0.480   4.719  0.0952  3.0537 -1.4566
  956MOL0     H28998   7.711  -0.406   4.878  2.2007  2.6018 -1.7512
  956MOL0     H28999   7.610  -0.617   4.891  0.4016  0.5112 -2.1256
  956MOL0     H29000   7.456  -0.526   4.874  1.2682  1.9497  0.9831
  956MOL0     H29001   7.517  -0.572   4.619 -2.0165  0.9176  0.2171
  956MOL0     H29002   7.618  -0.703   4.685 -1.7346 -2.3911  0.0937
  956MOL0     H29003   7.329  -0.683   4.781 -0.4979  0.6851 -1.1150
  956MOL0     H29004   7.358  -0.751   4.618  2.1649 -0.9796 -1.2396
  956MOL0     H29005   7.531  -0.907   4.746 -0.0020 -0.2465  1.4585
  956MOL0     H29006   7.477  -0.838   4.897 -1.6668 -0.7627  0.1713
  956MOL0     H29007   7.258  -0.954   4.717 -0.7603 -1.4958  0.0979
  956MOL0     H29008   7.346  -1.068   4.808 -1.3499 -1.3193 -1.3360
  956MOL0     H29009   7.142  -0.990   4.926 -0.9497  0.5569  0.8822
  956MOL0     H29010   7.246  -0.847   4.980 -1.0968 -0.6270  1.4998
  956MOL0     H29011   7.212  -1.209   4.986 -2.0019 -0.5351  1.6491
  956MOL0     H29012   7.321  -1.368   5.338 -0.1842  1.6187 -0.0774
  956MOL0     H29013   7.278  -1.420   5.169 -0.6555  0.8394 -0.8017
  956MOL0     H29014   7.518  -1.453   5.307 -1.7697  0.2057  1.1045
  956MOL0     H29015   7.545  -1.297   5.248 -1.6028  1.3673 -0.9735
  956MOL0     H29016   7.537  -1.354   5.014  2.1067 -1.3057 -2.2557
  956MOL0     H29017   7.478  -1.514   5.068 -2.4485  1.7973  0.8486
  956MOL0     H29018   7.684  -1.593   5.122 -4.7823 -1.0789 -1.0935
  956MOL0     H29019   7.736  -1.441   5.186 -0.9880 -0.0663  0.0301
  956MOL0     H29020   7.971  -1.510   4.838  2.8355 -0.5986  0.3196
  956MOL0     H29021   8.186  -1.517   4.786  2.0155 -0.1223 -1.9813
  956MOL0     H29022   8.255  -1.358   4.735  1.7409  0.1601 -0.1322
  956MOL0     H29023   8.304  -1.431   4.881 -0.6474 -2.1145 -1.0365
  956MOL0     H29024   8.321  -0.936   4.829 -0.7639  0.0069  0.2541
  956MOL0     H29025   8.485  -0.741   4.799  0.0887  0.3319  0.8283
  956MOL0     H29026   8.531  -0.533   5.176  1.4097  0.6566  0.9099
  956MOL0     H29027   8.698  -0.564   5.166 -2.0293 -3.1074 -0.2071
  956MOL0     H29028   8.540  -0.344   5.009  2.3686  3.5475 -1.7142
  956MOL0     H29029   8.585  -0.309   5.159 -2.3440 -0.8962  0.7862
  956MOL0     H29030   8.825  -0.285   5.124 -0.5852  2.0103 -0.5609
  956MOL0     H29031   8.745  -0.224   4.974 -0.3714 -0.5631 -0.5056
  956MOL0     H29032   8.855  -0.497   5.014  1.4059  1.0995  1.6889
  956MOL0     H29033   8.795  -0.432   4.863  0.0381  0.8738  0.0758
  956MOL0     H29034   8.976  -0.326   4.803 -2.7989 -2.4976 -0.5207
  956MOL0     H29035   9.057  -0.456   4.893  4.9429  3.6156 -1.0004
  956MOL0     H29036   8.978  -0.188   5.024 -2.4597 -1.2518  2.1978
  956MOL0     H29037   9.057  -0.326   5.107 -2.2926  0.8824  1.3540
  956MOL0     H29038   9.153  -0.174   4.858  1.3188 -1.1246 -2.3237
  956MOL0     H29039   9.233  -0.314   4.933  2.3665  1.6487 -0.4436
  956MOL0     H29040   9.263  -0.168   5.148 -0.6575  0.9269 -0.0413
  956MOL0     H29041   9.205  -0.040   5.055  1.7767  1.6560 -0.3063
  956MOL0     H29042   8.553  -0.745   5.218 -0.0669 -0.0625 -0.2111
  956MOL0     H29043   8.399  -0.907   5.258 -1.1668 -2.6449 -0.4667
  956MOL0     H29044   8.030  -1.094   5.096  1.1604 -0.1950 -1.8758
  956MOL0     H29045   7.808  -1.232   5.119 -2.0792 -2.5307  0.1986
  956MOL0     H29046   7.342  -0.178   4.990 -1.9436  0.9009 -0.1845
  956MOL0     H29047   7.227   0.039   4.984  0.3218  1.3358 -0.9538
  956MOL0     H29048   7.186   0.415   4.607  0.6694  0.9794  0.9351
  956MOL0     H29049   7.097   0.647   4.602  1.3571 -0.8606  0.0399
  956MOL0     H29050   6.670   0.706   4.725 -1.4453  1.0671 -1.5077
  956MOL0     H29051   6.758   0.801   4.842 -0.6644  1.8136 -0.0653
  956MOL0     H29052   6.752   0.902   4.554 -1.7165 -1.1918 -0.3976
  956MOL0     H29053   6.771   0.989   4.718  0.5333 -0.1764 -0.9076
  956MOL0     H29054   6.547   0.940   4.760 -1.8780 -1.5952 -0.9474
  956MOL0     H29055   6.523   0.887   4.596 -1.3445 -2.1072  4.2422
  956MOL0     H29056   6.579   1.134   4.509  2.4557  1.9506  0.9826
  956MOL0     H29057   6.641   1.168   4.663 -0.7295  1.0402  0.0823
  956MOL0     H29058   6.223   1.202   4.722  0.8297  2.0609  0.7797
  956MOL0     H29059   6.759   0.534   4.832  0.3154  0.1124  0.8471
  956MOL0     H29060   6.862   0.330   4.885  2.8666 -2.7982  0.6422
  957MOL0     O29061   5.866   1.514   2.098 -0.2346 -0.2600  1.0537
  957MOL0     C29062   5.803   1.585   2.181  0.1923  0.3315  0.6040
  957MOL0     O29063   5.716   1.688   2.153  0.4328 -1.0682  0.0410
  957MOL0     C29064   5.693   1.750   2.028  0.1505 -0.4607  0.0711
  957MOL0     C29065   5.762   1.735   1.909 -0.3550 -0.3895  0.2676
  957MOL0     C29066   5.725   1.794   1.785 -1.3997 -0.9324  0.0968
  957MOL0     C29067   5.622   1.886   1.782 -0.4785 -0.0835 -0.4200
  957MOL0     O29068   5.593   1.927   1.657 -0.2763 -0.2402  0.0253
  957MOL0     C29069   5.474   1.999   1.631  0.1917  0.7762  0.0387
  957MOL0     C29070   5.435   2.001   1.482 -0.3829 -0.2187 -0.1305
  957MOL0     C29071   5.365   2.135   1.436  0.2100  1.0470  0.6559
  957MOL0     C29072   5.468   2.243   1.438 -0.7965  0.5922  1.1511
  957MOL0     C29073   5.420   2.367   1.373 -0.2451 -0.2678 -0.3923
  957MOL0     C29074   5.531   2.471   1.369  0.1082 -0.5815  0.4841
  957MOL0     C29075   5.502   2.581   1.271 -0.2946  0.7270  0.3383
  957MOL0     C29076   5.584   2.711   1.300 -0.2564  0.7084  0.7385
  957MOL0     N29077   5.723   2.714   1.247  0.1130  0.2290  0.1396
  957MOL0     C29078   5.785   2.613   1.193 -0.1958 -0.2446 -0.0191
  957MOL0     C29079   5.914   2.655   1.164 -0.3963  0.2387 -0.5738
  957MOL0     C29080   6.026   2.582   1.097 -0.4006  0.2612  0.3836
  957MOL0     C29081   6.158   2.598   1.174 -0.2955  0.2722 -0.3469
  957MOL0     C29082   6.168   2.499   1.294 -0.4038  0.4751  0.5309
  957MOL0     C29083   6.274   2.543   1.391  0.8714  0.4891 -0.4594
  957MOL0     O29084   6.205   2.624   1.493 -0.3804 -0.4065  0.1556
  957MOL0     C29085   6.151   2.578   1.606  1.1080 -1.0607  0.4780
  957MOL0     C29086   6.139   2.445   1.637 -0.2783  0.1620 -0.1005
  957MOL0     C29087   6.081   2.400   1.755  0.1512 -0.5005 -0.7604
  957MOL0     C29088   6.086   2.240   1.772  0.3268 -0.0132  0.4465
  957MOL0     C29089   6.020   2.498   1.843 -0.5183 -0.3038  0.7401
  957MOL0     C29090   5.947   2.464   1.965  0.3978 -0.3452  0.9496
  957MOL0     O29091   5.882   2.569   2.028 -0.3721 -0.6601  1.1039
  957MOL0     C29092   5.813   2.560   2.146 -0.0530  0.0904  0.0874
  957MOL0     C29093   5.840   2.467   2.249  0.0356  0.1314 -0.2675
  957MOL0     C29094   5.777   2.485   2.376 -0.1976  0.1885 -0.1441
  957MOL0     C29095   5.681   2.585   2.409 -0.6582 -0.3904  0.4880
  957MOL0     O29096   5.615   2.602   2.521 -0.3592  0.2996 -0.2873
  957MOL0     C29097   5.693   2.596   2.639 -0.1976 -0.4150  0.8119
  957MOL0     C29098   5.708   2.457   2.695 -0.4448 -0.8243 -0.3170
  957MOL0     C29099   5.603   2.431   2.811 -0.1120  0.0498  0.9327
  957MOL0     C29100   5.613   2.294   2.879  0.2808  0.2500  0.0839
  957MOL0     C29101   5.498   2.248   2.957 -1.0184  0.2708 -0.7426
  957MOL0     C29102   5.490   2.097   2.965 -0.4362  0.0066 -0.8341
  957MOL0     C29103   5.353   2.047   3.002  0.1693  0.2718 -0.2900
  957MOL0     C29104   5.370   1.927   3.097 -0.0553 -0.7851  0.1873
  957MOL0    Cl29105   5.215   1.853   3.133  0.1889  0.2499  0.1393
  957MOL0     C29106   5.657   2.680   2.299  0.8549  0.8232  0.6710
  957MOL0     C29107   5.719   2.664   2.172 -0.2868 -0.0755 -0.7709
  957MOL0     O29108   5.941   2.349   2.003  0.2383 -0.4691  0.2983
  957MOL0     C29109   6.020   2.633   1.797  0.2041 -0.0844  0.0852
  957MOL0     C29110   6.087   2.676   1.682 -0.4602 -0.4785  0.5624
  957MOL0     N29111   5.917   2.791   1.205  0.1905  0.1836  0.3158
  957MOL0     N29112   5.803   2.824   1.247 -0.1154  0.1509 -0.3182
  957MOL0     C29113   5.554   1.916   1.905 -0.5138 -0.2746 -0.3985
  957MOL0     C29114   5.601   1.853   2.019 -0.1918  0.4038 -0.0222
  957MOL0     C29115   5.804   1.539   2.320  0.3653  0.8344  0.6678
  957MOL0     C29116   5.687   1.528   2.397 -0.3664 -0.5957  0.0066
  957MOL0     C29117   5.693   1.468   2.525 -0.2475 -0.8514  0.6631
  957MOL0     C29118   5.806   1.404   2.564 -0.5241 -0.0552 -0.5074
  957MOL0     O29119   5.791   1.316   2.667 -0.0944  0.4200 -0.4012
  957MOL0     C29120   5.907   1.251   2.735  0.5396 -0.2916 -0.7885
  957MOL0     C29121   5.879   1.104   2.737 -1.0517 -0.6542 -0.3611
  957MOL0     C29122   5.865   1.038   2.598 -0.1204  0.5460 -0.0409
  957MOL0     C29123   5.827   0.893   2.619 -0.1621  0.9908 -0.4149
  957MOL0     C29124   5.792   0.824   2.490  0.4613 -0.1817 -0.5693
  957MOL0     C29125   5.780   0.759   2.386 -0.3788  0.1911  0.3199
  957MOL0     C29126   5.924   1.415   2.482 -0.3786 -1.0133 -0.2499
  957MOL0     C29127   5.918   1.493   2.370 -0.4931  0.4642 -0.0980
  957MOL0     H29128   5.847   1.668   1.918  2.7776  3.4368  2.3745
  957MOL0     H29129   5.763   1.760   1.689 -0.3665 -1.4697  0.6833
  957MOL0     H29130   5.398   1.949   1.690 -0.2787  2.1684  0.6641
  957MOL0     H29131   5.485   2.098   1.676 -0.3725 -0.3172  2.7163
  957MOL0     H29132   5.521   1.971   1.421  0.7195 -2.2881  2.2756
  957MOL0     H29133   5.373   1.911   1.477 -1.2420  0.1907  2.0668
  957MOL0     H29134   5.323   2.121   1.337 -3.3838  1.1038  2.0171
  957MOL0     H29135   5.284   2.150   1.509 -1.5984 -1.1745 -0.7654
  957MOL0     H29136   5.488   2.269   1.542 -2.7459  1.5292  1.3462
  957MOL0     H29137   5.554   2.202   1.386 -2.0988 -2.0857  0.8958
  957MOL0     H29138   5.371   2.353   1.276 -0.0212  0.3482 -0.5984
  957MOL0     H29139   5.339   2.408   1.436 -1.0774  0.3275 -1.7920
  957MOL0     H29140   5.532   2.501   1.474  1.5751 -1.9571  0.8993
  957MOL0     H29141   5.631   2.430   1.354 -0.3651 -1.5054 -0.2746
  957MOL0     H29142   5.528   2.546   1.171 -0.6533  2.5988 -0.4676
  957MOL0     H29143   5.396   2.608   1.265 -0.2953  0.5227 -1.0915
  957MOL0     H29144   5.580   2.713   1.409  0.9005 -3.0852  0.9674
  957MOL0     H29145   5.527   2.798   1.265 -2.6610 -1.2513 -0.5924
  957MOL0     H29146   5.732   2.521   1.170 -3.6014  1.6395 -0.3805
  957MOL0     H29147   6.001   2.477   1.079  2.0215 -0.0420 -1.9128
  957MOL0     H29148   6.035   2.624   0.996 -1.1919 -0.7840 -0.1421
  957MOL0     H29149   6.171   2.701   1.208  0.8806  0.5583 -1.5952
  957MOL0     H29150   6.236   2.552   1.112 -1.7477 -2.5984 -0.1987
  957MOL0     H29151   6.193   2.403   1.248  1.0398  1.8309 -1.7152
  957MOL0     H29152   6.068   2.492   1.336 -0.5923  2.6988  0.5758
  957MOL0     H29153   6.348   2.607   1.341  1.1770  1.0412  0.6635
  957MOL0     H29154   6.324   2.462   1.444 -0.6909  1.8061  3.4112
  957MOL0     H29155   6.171   2.376   1.559 -0.9584  1.0545 -1.1995
  957MOL0     H29156   5.986   2.208   1.803 -0.5129 -1.6117 -3.2617
  957MOL0     H29157   6.096   2.192   1.674 -0.9743 -0.2618  0.4244
  957MOL0     H29158   6.164   2.200   1.838 -0.7472 -2.6592  0.2635
  957MOL0     H29159   5.915   2.389   2.238  3.1135  3.1507 -2.9770
  957MOL0     H29160   5.806   2.410   2.449  1.9181  0.9660 -0.1317
  957MOL0     H29161   5.785   2.644   2.608  0.8829 -3.0798 -0.4150
  957MOL0     H29162   5.651   2.660   2.718  1.0067 -1.4663  2.3736
  957MOL0     H29163   5.711   2.383   2.614  0.3863  0.3134 -1.3663
  957MOL0     H29164   5.804   2.456   2.749  0.0653  0.7812 -1.1382
  957MOL0     H29165   5.503   2.436   2.768  1.7817 -0.2396 -4.0744
  957MOL0     H29166   5.619   2.517   2.876  2.3380  1.0486 -0.8522
  957MOL0     H29167   5.641   2.221   2.802 -3.2370  0.7937 -1.9112
  957MOL0     H29168   5.695   2.303   2.951 -0.5858  3.1210  0.8343
  957MOL0     H29169   5.404   2.275   2.907 -2.4361  1.5691  2.3741
  957MOL0     H29170   5.493   2.304   3.051 -6.0297 -1.5518  0.3582
  957MOL0     H29171   5.525   2.056   2.870  0.5658  2.6790 -1.7003
  957MOL0     H29172   5.565   2.071   3.041  1.4983  1.6927 -2.0709
  957MOL0     H29173   5.307   2.018   2.907 -1.5829  0.2319  0.5362
  957MOL0     H29174   5.294   2.126   3.049 -2.1338 -0.7551 -1.2983
  957MOL0     H29175   5.429   1.951   3.187  2.4971 -1.8120 -1.0944
  957MOL0     H29176   5.433   1.858   3.040  0.9596 -0.9059  1.3900
  957MOL0     H29177   5.574   2.747   2.316  0.5031  0.7875 -0.7602
  957MOL0     H29178   5.696   2.729   2.088  3.8271  0.1304 -1.9822
  957MOL0     H29179   5.966   2.706   1.856  1.0167  1.1131 -0.6078
  957MOL0     H29180   6.081   2.782   1.660  1.2798 -0.4184  0.2984
  957MOL0     H29181   5.480   1.993   1.920  1.3904  1.8650 -1.3703
  957MOL0     H29182   5.553   1.866   2.115 -0.5717 -0.5274 -0.0747
  957MOL0     H29183   5.587   1.562   2.373 -1.0168 -2.1231  0.4314
  957MOL0     H29184   5.600   1.456   2.580 -0.3695 -1.7687  0.2794
  957MOL0     H29185   6.000   1.296   2.698  0.9797  0.5149  1.1556
  957MOL0     H29186   5.910   1.255   2.845 -1.3755 -1.8332 -0.6215
  957MOL0     H29187   5.795   1.072   2.800 -0.0347 -0.4020  1.1686
  957MOL0     H29188   5.970   1.065   2.784 -1.2883  0.4443  1.0714
  957MOL0     H29189   5.955   1.050   2.537  0.6911 -0.1294  0.9904
  957MOL0     H29190   5.783   1.094   2.553  0.2543 -0.4205 -2.0261
  957MOL0     H29191   5.744   0.893   2.691  1.1374  0.7705  1.1403
  957MOL0     H29192   5.921   0.848   2.652  0.2368 -0.1554 -2.8801
  957MOL0     H29193   5.774   0.702   2.295 -0.8668 -0.4259  0.7287
  957MOL0     H29194   6.015   1.366   2.517 -1.4991 -2.2570  1.0211
  957MOL0     H29195   6.010   1.501   2.313  0.2834 -0.3775  1.0087
  958MOL0     O29196   1.997  10.572   7.370  0.3050 -0.0040  0.9696
  958MOL0     C29197   2.096  10.567   7.447  0.3985 -0.4536 -0.0655
  958MOL0     O29198   2.191  10.475   7.453  0.4553  0.1794  0.5640
  958MOL0     C29199   2.203  10.376   7.358 -0.4136 -0.0119  0.1802
  958MOL0     C29200   2.151  10.378   7.216 -0.6615  0.1256  0.1247
  958MOL0     C29201   2.186  10.261   7.131 -0.1725 -1.0872 -0.7802
  958MOL0     C29202   2.262  10.154   7.172  0.4123 -0.8436  0.3681
  958MOL0     O29203   2.268  10.042   7.084 -0.0254 -0.0400  0.0435
  958MOL0     C29204   2.402  10.003   7.048 -0.0164 -0.0835  0.3819
  958MOL0     C29205   2.474  10.098   6.953  0.3947  0.0190 -0.3083
  958MOL0     C29206   2.410  10.089   6.807  0.1208  0.7157 -0.8040
  958MOL0     C29207   2.456  10.217   6.728 -0.1400 -0.0643  0.2203
  958MOL0     C29208   2.612  10.236   6.726  1.0044  0.1209 -1.2694
  958MOL0     C29209   2.650  10.333   6.615 -0.8733 -0.8707  0.6135
  958MOL0     C29210   2.807  10.365   6.612  0.2015 -0.6242 -0.9540
  958MOL0     C29211   2.839  10.455   6.493  0.8132  0.1073  0.2149
  958MOL0     N29212   2.786  10.404   6.366  0.0024 -0.0827 -0.4349
  958MOL0     C29213   2.807  10.274   6.320  0.0541 -0.1305  0.3635
  958MOL0     C29214   2.735  10.271   6.208  0.0858  0.0231  0.7813
  958MOL0     C29215   2.707  10.158   6.112  1.2496  0.0648 -0.7632
  958MOL0     C29216   2.595  10.067   6.167  0.4872 -0.3984 -0.9957
  958MOL0     C29217   2.461  10.133   6.208 -0.0933  0.0063  0.0619
  958MOL0     C29218   2.399  10.235   6.113  0.0918 -0.4003 -0.8973
  958MOL0     O29219   2.264  10.263   6.149 -0.4782  0.7054  0.6280
  958MOL0     C29220   2.234  10.343   6.253 -0.1392  0.1573 -0.0576
  958MOL0     C29221   2.325  10.434   6.300 -0.5737 -0.2332 -0.4692
  958MOL0     C29222   2.290  10.529   6.401  0.0547 -0.4651  0.0423
  958MOL0     C29223   2.390  10.639   6.429  0.6726 -1.0900 -0.0912
  958MOL0     C29224   2.160  10.529   6.456 -0.4516 -1.6994  0.2670
  958MOL0     C29225   2.109  10.632   6.553 -0.0831 -0.0242  0.4627
  958MOL0     O29226   2.002  10.602   6.616 -0.0805 -0.2551  0.2393
  958MOL0     C29227   1.967  10.687   6.715  0.2883 -0.0314  0.6306
  958MOL0     C29228   2.009  10.661   6.842 -0.3778 -0.7552 -0.0594
  958MOL0     C29229   1.976  10.743   6.948  0.6703  0.2582 -0.4187
  958MOL0     C29230   1.893  10.857   6.929  0.5758  0.1317 -0.2448
  958MOL0     O29231   1.844  10.959   7.007 -1.0695 -0.5406  0.2358
  958MOL0     C29232   1.860  10.936   7.151 -0.4347  0.2212 -0.0289
  958MOL0     C29233   1.969  11.024   7.205  0.1803  0.6399 -0.0891
  958MOL0     C29234   1.972  10.996   7.353 -0.0592  1.0365 -0.4731
  958MOL0     C29235   2.110  11.021   7.410  0.0081  0.2401 -0.4621
  958MOL0     C29236   2.147  11.168   7.419 -0.5922  0.0473  0.1541
  958MOL0     C29237   2.083  11.250   7.538 -0.0476 -0.0860 -0.7219
  958MOL0     C29238   2.107  11.214   7.686 -0.1485  0.0286  0.0483
  958MOL0     C29239   2.252  11.178   7.716  0.9123  0.2351 -0.1194
  958MOL0    Cl29240   2.362  11.289   7.641 -0.2809 -0.0227 -0.1876
  958MOL0     C29241   1.856  10.881   6.796  0.8160  0.4812 -0.8015
  958MOL0     C29242   1.886  10.796   6.696 -0.4035  1.0877  0.4147
  958MOL0     O29243   2.156  10.750   6.545  0.2729  0.9056  0.1550
  958MOL0     C29244   2.066  10.438   6.415  0.4760 -0.4516 -0.3308
  958MOL0     C29245   2.107  10.345   6.312  0.5072  0.0969  0.0640
  958MOL0     N29246   2.695  10.402   6.182  0.2961  0.0699  0.0059
  958MOL0     N29247   2.734  10.482   6.280  1.5329  0.2305  0.1435
  958MOL0     C29248   2.311  10.161   7.301  0.2382  0.9986  0.4682
  958MOL0     C29249   2.284  10.271   7.393  0.3336  0.2868  0.0744
  958MOL0     C29250   2.105  10.657   7.559  0.5782  0.0908 -0.9194
  958MOL0     C29251   2.228  10.665   7.639 -0.5664  0.6466 -0.1717
  958MOL0     C29252   2.246  10.749   7.739 -0.0128 -0.3948  0.1420
  958MOL0     C29253   2.137  10.836   7.782 -0.8104 -1.0365 -0.0068
  958MOL0     O29254   2.134  10.927   7.883 -0.1437 -0.1147 -0.1437
  958MOL0     C29255   2.176  10.875   8.009  0.1214  0.1078 -0.4396
  958MOL0     C29256   2.056  10.884   8.115  0.2665  0.7433  1.0960
  958MOL0     C29257   1.960  11.007   8.084 -0.2055  0.8429 -0.3353
  958MOL0     C29258   1.898  11.053   8.220  0.5230 -0.2222 -0.4156
  958MOL0     C29259   1.807  10.949   8.281 -0.8147 -0.2180 -0.3832
  958MOL0     C29260   1.735  10.872   8.331 -0.0876 -0.7007  0.1985
  958MOL0     C29261   2.016  10.830   7.713 -0.5844 -0.3719  0.4240
  958MOL0     C29262   2.003  10.748   7.602  0.0902  0.5912  0.1779
  958MOL0     H29263   2.109  10.466   7.169  3.9678  1.5466 -1.9776
  958MOL0     H29264   2.134  10.263   7.036 -3.0204 -0.1358  0.6552
  958MOL0     H29265   2.464   9.981   7.136  0.1793 -2.6805 -0.3312
  958MOL0     H29266   2.395   9.911   6.989 -1.0184  0.9312 -1.1403
  958MOL0     H29267   2.477  10.197   6.999  0.0023 -1.0714  2.2410
  958MOL0     H29268   2.581  10.077   6.956  0.0477 -1.8960  1.3879
  958MOL0     H29269   2.438   9.996   6.757  1.1960  1.3670 -1.4744
  958MOL0     H29270   2.302  10.079   6.819  0.5389 -1.6135  2.0141
  958MOL0     H29271   2.437  10.207   6.620  2.1400  1.3986 -0.3885
  958MOL0     H29272   2.403  10.309   6.753  1.1997  0.9862 -0.6632
  958MOL0     H29273   2.649  10.273   6.823 -0.5296 -3.3035  0.7841
  958MOL0     H29274   2.662  10.141   6.706 -0.9580 -1.4330  0.7176
  958MOL0     H29275   2.613  10.290   6.522 -1.5038  1.9803 -0.5606
  958MOL0     H29276   2.599  10.428   6.635 -2.9938 -0.8334 -3.8284
  958MOL0     H29277   2.846  10.419   6.699  0.5009 -1.7232 -0.3949
  958MOL0     H29278   2.864  10.272   6.607  0.2414 -0.6587  0.0544
  958MOL0     H29279   2.948  10.466   6.488  0.6286  1.5701 -2.0040
  958MOL0     H29280   2.800  10.557   6.496 -0.6707 -0.2361 -2.8852
  958MOL0     H29281   2.861  10.192   6.367  0.1915  0.3947  1.1367
  958MOL0     H29282   2.664  10.202   6.021  0.5913 -1.1990 -1.0933
  958MOL0     H29283   2.801  10.104   6.096  2.6238  1.4174  2.1325
  958MOL0     H29284   2.638  10.022   6.257 -0.7951  1.2290  0.5193
  958MOL0     H29285   2.584   9.992   6.088  0.1672 -0.8567 -0.5244
  958MOL0     H29286   2.470  10.177   6.307 -2.2511  1.1078 -0.1694
  958MOL0     H29287   2.397  10.046   6.223 -0.6401  0.6878  1.8740
  958MOL0     H29288   2.396  10.185   6.016  0.7485 -1.4658 -0.3794
  958MOL0     H29289   2.459  10.326   6.098  0.6387 -0.6311 -0.1432
  958MOL0     H29290   2.428  10.450   6.271 -0.4128  3.1706  1.4865
  958MOL0     H29291   2.489  10.612   6.390  0.7169  1.2053 -1.7969
  958MOL0     H29292   2.348  10.723   6.372 -1.1952 -1.7413  0.2726
  958MOL0     H29293   2.405  10.660   6.535  2.2900  0.8616 -0.6436
  958MOL0     H29294   2.076  10.580   6.868  1.9517 -0.0433 -3.2508
  958MOL0     H29295   2.023  10.714   7.041 -2.3515 -3.5805  0.1412
  958MOL0     H29296   1.766  10.957   7.204 -1.5182 -2.4021 -0.7576
  958MOL0     H29297   1.881  10.829   7.161 -2.1507 -0.0454  1.1468
  958MOL0     H29298   2.063  11.001   7.155 -0.7579 -0.4031 -1.4305
  958MOL0     H29299   1.929  11.126   7.201 -2.3827 -0.1024  2.7263
  958MOL0     H29300   1.953  10.891   7.377  1.3368  1.4750  3.2887
  958MOL0     H29301   1.896  11.056   7.404 -2.1877 -0.2778 -1.9729
  958MOL0     H29302   2.112  10.989   7.514  2.2299  2.4524  0.2691
  958MOL0     H29303   2.187  10.968   7.352 -0.0584 -0.0687 -0.2674
  958MOL0     H29304   2.113  11.202   7.321 -2.0128 -2.0601 -0.1489
  958MOL0     H29305   2.257  11.168   7.427 -0.4682 -0.7336 -1.1835
  958MOL0     H29306   2.114  11.355   7.535 -0.6900  0.0947 -1.3762
  958MOL0     H29307   1.976  11.244   7.516 -0.1390  1.6553 -0.8377
  958MOL0     H29308   2.034  11.136   7.712  0.4910 -0.4632  0.4125
  958MOL0     H29309   2.080  11.294   7.755  3.0665 -0.4951  2.1442
  958MOL0     H29310   2.265  11.069   7.707 -2.6361 -0.6025  2.6743
  958MOL0     H29311   2.259  11.184   7.825  1.3350  0.0933 -0.1334
  958MOL0     H29312   1.787  10.961   6.770  0.8322  0.4305 -0.9948
  958MOL0     H29313   1.855  10.832   6.598 -1.3787  4.2312  1.7610
  958MOL0     H29314   1.975  10.421   6.471  0.4543  2.4829  0.6922
  958MOL0     H29315   2.032  10.271   6.287 -0.4637  0.3447  2.0308
  958MOL0     H29316   2.371  10.082   7.345  0.4146  1.1318  0.4682
  958MOL0     H29317   2.328  10.265   7.492 -0.9592 -0.6797  0.6352
  958MOL0     H29318   2.314  10.600   7.623 -0.9564  0.3274 -1.0313
  958MOL0     H29319   2.349  10.758   7.773  2.0907  1.5452 -5.5037
  958MOL0     H29320   2.213  10.773   8.019 -2.1391 -0.8260 -0.9130
  958MOL0     H29321   2.266  10.927   8.043 -0.0114 -0.9639  1.7008
  958MOL0     H29322   2.101  10.862   8.213  1.1188 -1.6109  0.2577
  958MOL0     H29323   1.997  10.793   8.099  3.5093 -1.2565 -0.5453
  958MOL0     H29324   1.875  10.989   8.018  0.8563  3.5568 -2.6543
  958MOL0     H29325   2.030  11.087   8.058  1.3680 -0.5839 -0.6929
  958MOL0     H29326   1.832  11.138   8.201  0.7070 -0.3157 -1.5442
  958MOL0     H29327   1.975  11.082   8.293 -4.1263  3.5718  3.7638
  958MOL0     H29328   1.667  10.800   8.371 -0.3181 -0.3672  0.4146
  958MOL0     H29329   1.937  10.895   7.749  0.5216  0.4163  1.4728
  958MOL0     H29330   1.912  10.747   7.543  1.3743  0.8036 -1.9183
  959MOL0     O29331   2.530   7.671   0.930 -0.5147  0.3177 -0.4728
  959MOL0     C29332   2.612   7.586   0.963  0.3239 -0.0745  0.2126
  959MOL0     O29333   2.737   7.585   0.916 -0.7842 -0.4521  0.1049
  959MOL0     C29334   2.775   7.697   0.844 -0.4177  0.1170 -0.1466
  959MOL0     C29335   2.784   7.823   0.904  0.2671 -0.0721  0.0344
  959MOL0     C29336   2.812   7.934   0.823 -0.0931 -0.4276  0.6248
  959MOL0     C29337   2.827   7.923   0.682 -0.8152 -0.3816 -0.6640
  959MOL0     O29338   2.876   8.025   0.597 -0.0160 -0.3373  0.4290
  959MOL0     C29339   2.881   8.155   0.652 -0.2373 -0.7368  0.2968
  959MOL0     C29340   2.738   8.216   0.666 -0.3544 -0.7744 -0.3674
  959MOL0     C29341   2.717   8.352   0.747 -0.4658  0.5046 -1.0046
  959MOL0     C29342   2.805   8.465   0.686  0.2797  0.6948  0.0408
  959MOL0     C29343   2.808   8.591   0.769  0.1617  0.2206  0.3361
  959MOL0     C29344   2.878   8.580   0.903 -0.9212  0.0934  1.0678
  959MOL0     C29345   2.911   8.710   0.960  0.3173 -0.0007 -0.5496
  959MOL0     C29346   2.793   8.789   1.003  1.1841 -0.0143  0.3439
  959MOL0     N29347   2.835   8.915   1.064  0.5267  0.8673  0.4764
  959MOL0     C29348   2.773   9.033   1.037 -0.2432  0.1601 -0.8016
  959MOL0     C29349   2.821   9.115   1.138  0.2263  0.3308  0.8589
  959MOL0     C29350   2.755   9.258   1.142  0.3761  0.3167  0.3074
  959MOL0     C29351   2.817   9.340   1.246 -0.0517  0.5870 -0.4539
  959MOL0     C29352   2.807   9.490   1.205 -0.0804  0.3478 -0.2725
  959MOL0     C29353   2.822   9.587   1.319 -0.7119 -0.1457  0.3337
  959MOL0     O29354   2.832   9.724   1.269  0.0336 -0.6551 -0.0409
  959MOL0     C29355   2.824   9.810   1.372 -0.1849  0.9500  0.3662
  959MOL0     C29356   2.793   9.940   1.339  0.1957  0.3174 -0.5292
  959MOL0     C29357   2.774  10.037   1.434  0.3779 -0.3293  0.0293
  959MOL0     C29358   2.736  10.178   1.384 -0.0644 -0.4911 -0.8151
  959MOL0     C29359   2.786  10.004   1.572  0.3690  0.4814  0.2951
  959MOL0     C29360   2.783  10.101   1.686 -0.5164  0.2912  0.4556
  959MOL0     O29361   2.740  10.225   1.660 -0.7316  0.1199 -0.3342
  959MOL0     C29362   2.756  10.327   1.749 -0.4180 -0.2111 -0.2122
  959MOL0     C29363   2.740  10.330   1.889 -0.4774  0.1074 -0.6120
  959MOL0     C29364   2.735  10.451   1.965  0.3034 -0.0894  0.7234
  959MOL0     C29365   2.746  10.579   1.892  0.8069 -0.0416 -1.4537
  959MOL0     O29366   2.728  10.710   1.940  0.1324 -0.2895  0.2278
  959MOL0     C29367   2.672  10.711   2.075 -0.3829 -1.4529  0.6076
  959MOL0     C29368   2.784  10.685   2.180  0.2640 -0.1577 -0.0015
  959MOL0     C29369   2.916  10.772   2.163  0.2550 -0.0928  0.3717
  959MOL0     C29370   2.954  10.826   2.302  0.0533 -0.3016  0.1759
  959MOL0     C29371   3.036  10.948   2.276  0.3275  0.0080 -0.6322
  959MOL0     C29372   3.038  11.052   2.386 -0.7859  0.4531  0.0774
  959MOL0     C29373   3.138  11.165   2.369 -0.4781 -0.3935 -0.7035
  959MOL0     C29374   3.187  11.226   2.498  0.4166 -0.8307 -0.5802
  959MOL0    Cl29375   3.045  11.301   2.576  0.0960 -0.1607  0.3037
  959MOL0     C29376   2.769  10.575   1.755 -0.1429 -0.1504 -0.4724
  959MOL0     C29377   2.782  10.453   1.687 -0.5491  1.0757  0.6221
  959MOL0     O29378   2.826  10.060   1.795  0.5476 -0.0026  0.6266
  959MOL0     C29379   2.819   9.873   1.598  0.2939 -0.1690 -0.2531
  959MOL0     C29380   2.837   9.783   1.500 -0.1523  0.0148 -0.9964
  959MOL0     N29381   2.921   9.052   1.204 -0.2661 -0.4547 -1.1334
  959MOL0     N29382   2.928   8.932   1.155 -0.4611  0.5633 -0.4916
  959MOL0     C29383   2.818   7.791   0.630 -0.6730 -0.6292 -0.9017
  959MOL0     C29384   2.799   7.677   0.708 -0.2375 -0.1782  0.0710
  959MOL0     C29385   2.581   7.465   1.045  0.5844 -0.1844  0.5246
  959MOL0     C29386   2.677   7.361   1.079 -0.1675  0.5955  0.2487
  959MOL0     C29387   2.624   7.246   1.144  0.9484 -0.8175 -0.2418
  959MOL0     C29388   2.495   7.241   1.205  0.0227 -0.0874 -0.3028
  959MOL0     O29389   2.443   7.131   1.285  0.3078 -1.4162 -0.8335
  959MOL0     C29390   2.524   7.012   1.294  0.4865 -0.7106  0.2070
  959MOL0     C29391   2.627   7.035   1.407 -1.2315 -0.8620  0.5391
  959MOL0     C29392   2.558   7.045   1.537 -0.1853  0.1421 -0.1790
  959MOL0     C29393   2.639   7.081   1.670 -0.9169 -0.4251  0.0011
  959MOL0     C29394   2.676   6.958   1.743 -0.1904 -0.3613  0.2165
  959MOL0     C29395   2.706   6.846   1.786  0.6324  0.1537  0.3117
  959MOL0     C29396   2.417   7.356   1.185 -0.2564 -0.3935 -1.5654
  959MOL0     C29397   2.451   7.457   1.103  0.0008  0.0053 -0.4122
  959MOL0     H29398   2.766   7.824   1.011 -1.3200 -2.0423 -0.1610
  959MOL0     H29399   2.832   8.025   0.878  0.3859  0.1214 -0.4473
  959MOL0     H29400   2.940   8.141   0.743  2.6062 -0.4914 -1.4067
  959MOL0     H29401   2.939   8.224   0.590 -2.0818 -0.2581 -1.0100
  959MOL0     H29402   2.684   8.214   0.571 -0.4106  1.5200 -0.4419
  959MOL0     H29403   2.683   8.150   0.734 -0.1445 -0.9112 -0.3320
  959MOL0     H29404   2.613   8.387   0.748 -0.3966  0.7137  0.0521
  959MOL0     H29405   2.735   8.321   0.850 -1.7455 -0.0996 -0.9476
  959MOL0     H29406   2.906   8.433   0.657  0.2570  0.7560 -0.1069
  959MOL0     H29407   2.765   8.492   0.587  0.1096 -1.2424 -0.4582
  959MOL0     H29408   2.861   8.662   0.705  0.6470 -0.2104  0.2447
  959MOL0     H29409   2.705   8.627   0.773  0.6266  1.5627  0.7368
  959MOL0     H29410   2.822   8.515   0.970  1.6478 -0.2662  2.9986
  959MOL0     H29411   2.968   8.525   0.875 -1.8973 -1.2040  0.3455
  959MOL0     H29412   2.966   8.673   1.046  1.1344 -1.1027 -1.5023
  959MOL0     H29413   2.978   8.766   0.894 -1.6552  0.8827 -1.9044
  959MOL0     H29414   2.730   8.733   1.073  1.2429 -0.1122  0.3175
  959MOL0     H29415   2.750   8.820   0.907  2.6723  4.0778  0.7912
  959MOL0     H29416   2.709   9.066   0.955 -0.6716  0.3118 -0.4095
  959MOL0     H29417   2.777   9.305   1.046  1.1017  0.1477  0.3869
  959MOL0     H29418   2.648   9.239   1.150  0.6991 -1.9469 -0.2193
  959MOL0     H29419   2.920   9.308   1.264 -0.7761 -1.0047  1.1483
  959MOL0     H29420   2.754   9.322   1.333  0.0648 -0.5870 -0.6025
  959MOL0     H29421   2.701   9.502   1.179 -0.2533  3.0770  1.3305
  959MOL0     H29422   2.865   9.522   1.118 -2.2217 -0.2158 -2.0158
  959MOL0     H29423   2.915   9.559   1.370 -0.9310 -0.5843  0.4984
  959MOL0     H29424   2.735   9.571   1.383  1.0799 -2.9317  2.3318
  959MOL0     H29425   2.793   9.972   1.235  2.0234 -0.6239 -0.8763
  959MOL0     H29426   2.732  10.185   1.275  1.4605  2.4094 -0.7844
  959MOL0     H29427   2.630  10.198   1.399 -0.7777 -2.5934 -2.6541
  959MOL0     H29428   2.801  10.257   1.423 -1.3797  0.2920 -0.1668
  959MOL0     H29429   2.722  10.231   1.930 -1.6183 -0.0636 -1.4721
  959MOL0     H29430   2.734  10.439   2.073 -0.9072  0.5040  0.8041
  959MOL0     H29431   2.614  10.802   2.092  0.8018 -1.0292  2.9038
  959MOL0     H29432   2.599  10.631   2.094  0.2450 -2.1910 -0.0149
  959MOL0     H29433   2.744  10.716   2.277  2.7154  2.6671  0.2517
  959MOL0     H29434   2.811  10.580   2.194 -2.1692 -0.6132  2.0537
  959MOL0     H29435   2.895  10.853   2.093 -0.6808 -0.4179  0.2511
  959MOL0     H29436   3.005  10.713   2.142  1.6928  1.8932  0.6328
  959MOL0     H29437   2.868  10.859   2.361 -0.1050  0.1089 -0.2771
  959MOL0     H29438   3.021  10.764   2.362  1.6092  0.8498 -0.3109
  959MOL0     H29439   2.987  11.005   2.196 -0.6372  0.2691  0.1203
  959MOL0     H29440   3.137  10.916   2.249  0.4700  0.0281 -0.1296
  959MOL0     H29441   2.937  11.086   2.409 -1.1985  1.0415 -2.3219
  959MOL0     H29442   3.070  10.998   2.475  0.9167  1.3196  0.0289
  959MOL0     H29443   3.097  11.249   2.311  0.1075  0.9816  0.7725
  959MOL0     H29444   3.226  11.143   2.308 -0.5600  1.8867 -1.7822
  959MOL0     H29445   3.263  11.304   2.486  1.1363 -1.5506 -0.8140
  959MOL0     H29446   3.237  11.163   2.572  1.0826  0.1244 -0.1970
  959MOL0     H29447   2.782  10.663   1.693 -0.8032 -0.3742 -0.9382
  959MOL0     H29448   2.821  10.457   1.586  4.0906  0.9066  2.1359
  959MOL0     H29449   2.835   9.838   1.700  1.9968 -1.8867 -1.0536
  959MOL0     H29450   2.869   9.683   1.528 -0.0724  0.2591 -0.1822
  959MOL0     H29451   2.815   7.791   0.521 -0.3597  2.5748 -0.9921
  959MOL0     H29452   2.795   7.577   0.665 -2.7928 -0.6124  1.1130
  959MOL0     H29453   2.782   7.370   1.056  0.2605 -2.8909  0.3478
  959MOL0     H29454   2.702   7.171   1.149  2.6745  0.6464 -2.8260
  959MOL0     H29455   2.462   6.929   1.330  0.3868 -1.2442 -1.1200
  959MOL0     H29456   2.568   6.984   1.198  0.4922 -0.8140  0.2396
  959MOL0     H29457   2.689   7.122   1.385 -0.6213 -1.9498 -2.4898
  959MOL0     H29458   2.698   6.952   1.407  2.5603  2.0772 -0.6275
  959MOL0     H29459   2.515   6.944   1.545  0.3365 -0.0676 -0.0266
  959MOL0     H29460   2.471   7.111   1.535 -0.5394 -0.3228 -0.4259
  959MOL0     H29461   2.583   7.138   1.744  1.0290 -0.9203  1.9544
  959MOL0     H29462   2.730   7.137   1.646 -1.3060  0.5047  0.6317
  959MOL0     H29463   2.716   6.745   1.821 -0.5123  0.4440  1.6148
  959MOL0     H29464   2.333   7.360   1.253  1.0373 -0.0941  0.0733
  959MOL0     H29465   2.379   7.538   1.095  0.2007  0.0699 -1.9297
  960MOL0     O29466  10.460  11.299   0.967 -0.5057  0.0897 -0.0361
  960MOL0     C29467  10.354  11.240   0.997 -1.1131  0.2429  0.5607
  960MOL0     O29468  10.298  11.240   1.126 -0.1211  0.2305  1.0269
  960MOL0     C29469  10.364  11.320   1.222  1.3097  0.3612  0.3417
  960MOL0     C29470  10.325  11.457   1.240 -0.0094 -0.3483 -0.0817
  960MOL0     C29471  10.385  11.531   1.345  0.2200 -0.5575 -0.5589
  960MOL0     C29472  10.486  11.480   1.428 -0.1998  0.5004 -0.2651
  960MOL0     O29473  10.547  11.557   1.522 -0.8933  0.2206 -0.6875
  960MOL0     C29474  10.452  11.588   1.619  0.0257 -0.2510 -0.5423
  960MOL0     C29475  10.522  11.651   1.742 -0.1777  0.0368 -0.3532
  960MOL0     C29476  10.602  11.782   1.729 -0.0097  0.2566 -0.1341
  960MOL0     C29477  10.649  11.821   1.871  0.3919  0.9400  0.1931
  960MOL0     C29478  10.747  11.929   1.878  0.6625 -0.4724  0.2783
  960MOL0     C29479  10.800  11.967   2.014  1.0309  0.1012  0.3788
  960MOL0     C29480  10.906  11.877   2.075  0.7837  0.1719 -0.4104
  960MOL0     C29481  11.006  11.940   2.166  0.4171 -0.6941  0.7281
  960MOL0     N29482  11.085  11.835   2.228 -0.0815 -0.0015  0.6288
  960MOL0     C29483  11.082  11.806   2.363 -0.1556  0.5867 -0.0025
  960MOL0     C29484  11.182  11.706   2.381 -0.2894  0.5414  0.3483
  960MOL0     C29485  11.223  11.636   2.499  0.1521  0.1578  0.3890
  960MOL0     C29486  11.376  11.624   2.502 -0.3593 -0.1310  0.0626
  960MOL0     C29487  11.417  11.571   2.635  0.9259  0.2941  0.0332
  960MOL0     C29488  11.568  11.551   2.625 -0.5549  0.0263  0.2606
  960MOL0     O29489  11.632  11.512   2.751 -0.5690  0.2582 -0.7870
  960MOL0     C29490  11.652  11.609   2.853 -0.2745  0.0907 -0.1137
  960MOL0     C29491  11.697  11.563   2.968 -0.5606  0.0918 -0.3944
  960MOL0     C29492  11.739  11.645   3.073 -0.3335  0.0655 -0.0725
  960MOL0     C29493  11.790  11.568   3.191  0.6169  0.5192 -0.2112
  960MOL0     C29494  11.733  11.787   3.059 -0.5410 -0.5080 -0.6385
  960MOL0     C29495  11.792  11.882   3.151  0.0589 -0.5521  0.0295
  960MOL0     O29496  11.763  12.014   3.131 -1.0789 -0.5984 -0.4465
  960MOL0     C29497  11.831  12.098   3.217  0.5402 -0.0734 -0.5694
  960MOL0     C29498  11.793  12.102   3.350 -0.0745  0.0699 -0.6315
  960MOL0     C29499  11.854  12.190   3.445 -0.3354 -0.3830  0.0799
  960MOL0     C29500  11.941  12.283   3.400  1.1661 -0.3309 -0.5863
  960MOL0     O29501  12.001  12.374   3.485  0.0683  0.2507 -0.2034
  960MOL0     C29502  11.918  12.485   3.507 -0.0598 -0.0767  0.4160
  960MOL0     C29503  11.987  12.579   3.603  0.4600 -0.0682 -0.5323
  960MOL0     C29504  12.103  12.665   3.554 -0.1541  0.2545 -0.1323
  960MOL0     C29505  12.242  12.592   3.579  0.0243  0.7833  0.7431
  960MOL0     C29506  12.336  12.595   3.459 -0.2874  0.6127 -0.6570
  960MOL0     C29507  12.423  12.720   3.467 -0.1717 -0.2449 -1.0655
  960MOL0     C29508  12.333  12.840   3.417 -0.2626 -0.4529 -0.0010
  960MOL0     C29509  12.421  12.963   3.436  0.1211  0.0096  0.5605
  960MOL0    Cl29510  12.349  13.107   3.353 -0.3684  0.3685 -0.1393
  960MOL0     C29511  11.977  12.288   3.266  0.4979  0.1160  0.8323
  960MOL0     C29512  11.923  12.192   3.179 -0.6143  0.2031 -0.4852
  960MOL0     O29513  11.860  11.836   3.245 -0.0519 -0.3135 -0.5358
  960MOL0     C29514  11.686  11.836   2.940  0.0065 -0.1423 -0.6401
  960MOL0     C29515  11.656  11.745   2.840  0.0820 -0.8821  0.0632
  960MOL0     N29516  11.246  11.694   2.259  0.0000  0.2590  0.2436
  960MOL0     N29517  11.199  11.781   2.170  0.0252 -0.2438  0.1467
  960MOL0     C29518  10.529  11.348   1.406 -0.3450 -0.2227  0.1886
  960MOL0     C29519  10.467  11.272   1.300 -0.9170  0.4787 -1.2257
  960MOL0     C29520  10.293  11.156   0.886 -0.2908 -0.2790  0.1736
  960MOL0     C29521  10.364  11.139   0.765 -0.7522 -0.5568 -0.4173
  960MOL0     C29522  10.322  11.063   0.663 -0.5972  0.5563  0.1570
  960MOL0     C29523  10.197  10.998   0.670 -0.3840 -0.3969  0.4031
  960MOL0     O29524  10.132  10.913   0.581 -0.0275 -0.3911  0.8537
  960MOL0     C29525  10.194  10.877   0.462 -0.5952 -0.5260 -0.1016
  960MOL0     C29526  10.155  10.982   0.356  0.1807 -0.3564 -0.2888
  960MOL0     C29527  10.215  10.928   0.222 -0.9080 -0.3611 -0.1886
  960MOL0     C29528  10.324  11.017   0.162 -0.3903  0.4278 -0.1557
  960MOL0     C29529  10.439  11.036   0.254  0.0164  0.4971 -0.0022
  960MOL0     C29530  10.539  11.029   0.326 -0.8829  0.0727 -0.2421
  960MOL0     C29531  10.126  11.011   0.794  0.0667  0.3929  0.8693
  960MOL0     C29532  10.172  11.093   0.897  0.2008  0.2251 -0.4262
  960MOL0     H29533  10.255  11.520   1.186 -0.1191  3.2642  3.7186
  960MOL0     H29534  10.355  11.636   1.340  2.3315  0.1428  0.3874
  960MOL0     H29535  10.381  11.663   1.582  0.8532  1.1567  0.6677
  960MOL0     H29536  10.405  11.495   1.654  0.6645 -0.2355  0.3728
  960MOL0     H29537  10.443  11.662   1.815 -0.8841 -1.8810 -0.7519
  960MOL0     H29538  10.584  11.571   1.784 -1.0203 -1.4677 -1.8091
  960MOL0     H29539  10.682  11.775   1.654 -2.9207  2.1049 -3.7674
  960MOL0     H29540  10.548  11.866   1.684  0.1935  1.6230  2.0400
  960MOL0     H29541  10.557  11.838   1.929 -0.9341  1.2146 -1.8657
  960MOL0     H29542  10.700  11.729   1.900  1.5575  1.4180 -0.2975
  960MOL0     H29543  10.827  11.919   1.804 -0.8108  1.3584 -1.7031
  960MOL0     H29544  10.695  12.019   1.844 -3.0074 -2.3258  0.4545
  960MOL0     H29545  10.844  12.067   2.018  0.8611  0.2472 -0.9827
  960MOL0     H29546  10.716  11.965   2.084 -0.3067 -3.7400 -1.0782
  960MOL0     H29547  10.863  11.803   2.143 -0.4269 -0.5786 -1.9147
  960MOL0     H29548  10.961  11.836   1.990  1.1373  0.5593 -0.3719
  960MOL0     H29549  10.958  11.994   2.248 -1.6215 -1.8885  0.3728
  960MOL0     H29550  11.076  12.016   2.131  0.9239 -0.1672  2.7115
  960MOL0     H29551  11.017  11.859   2.431 -1.2091 -0.3757 -0.2255
  960MOL0     H29552  11.179  11.690   2.584 -1.6265  0.3571 -0.6134
  960MOL0     H29553  11.159  11.547   2.502 -2.9402  2.1650 -1.0243
  960MOL0     H29554  11.406  11.729   2.493 -0.7576  0.1361  1.5082
  960MOL0     H29555  11.412  11.557   2.425 -0.7701  2.1199 -2.2320
  960MOL0     H29556  11.366  11.478   2.660  1.6016 -0.4570 -1.2819
  960MOL0     H29557  11.385  11.655   2.698 -2.7266 -0.0775 -1.0591
  960MOL0     H29558  11.615  11.644   2.593 -3.3849  1.5870  0.4076
  960MOL0     H29559  11.584  11.472   2.551 -0.3868 -2.4081  2.6902
  960MOL0     H29560  11.703  11.454   2.971 -2.0315  0.0056  1.5240
  960MOL0     H29561  11.769  11.461   3.183  0.5913  0.4911  0.2208
  960MOL0     H29562  11.896  11.592   3.206  0.1274  2.8338 -0.2216
  960MOL0     H29563  11.728  11.606   3.272  1.7446  2.1469 -0.0652
  960MOL0     H29564  11.720  12.031   3.387 -0.3382  0.3099 -0.6928
  960MOL0     H29565  11.826  12.205   3.549 -2.4258  0.7070 -0.5883
  960MOL0     H29566  11.915  12.539   3.412  0.4939  1.0749  1.0381
  960MOL0     H29567  11.820  12.450   3.541  1.1422 -0.3128  4.1286
  960MOL0     H29568  11.912  12.652   3.631 -2.4281 -2.0398 -2.5377
  960MOL0     H29569  12.021  12.524   3.691  1.2827 -0.6368 -1.1846
  960MOL0     H29570  12.107  12.758   3.612  2.2341  0.5443 -0.6532
  960MOL0     H29571  12.085  12.695   3.450  2.4253 -3.0904 -1.7414
  960MOL0     H29572  12.287  12.636   3.669  0.2262 -1.3796  1.7563
  960MOL0     H29573  12.224  12.487   3.604 -1.1021 -0.1164 -3.1955
  960MOL0     H29574  12.297  12.574   3.359  0.5259 -1.3240 -0.6136
  960MOL0     H29575  12.409  12.516   3.480 -0.4682  0.3557 -0.9713
  960MOL0     H29576  12.443  12.735   3.573 -0.0284 -1.0627 -0.9757
  960MOL0     H29577  12.521  12.698   3.423  0.0114 -1.4504 -0.0849
  960MOL0     H29578  12.245  12.858   3.480  0.5847 -2.0235  1.7348
  960MOL0     H29579  12.319  12.826   3.310 -0.2845  1.2274 -0.2457
  960MOL0     H29580  12.513  12.942   3.379 -1.4232 -0.1723 -1.9951
  960MOL0     H29581  12.434  12.993   3.540 -1.6674  0.8116  0.5767
  960MOL0     H29582  12.052  12.355   3.224 -1.2645  1.7723  0.2252
  960MOL0     H29583  11.953  12.198   3.075 -0.6204  0.3394 -0.4800
  960MOL0     H29584  11.708  11.940   2.917  2.2243 -0.8972 -2.3662
  960MOL0     H29585  11.648  11.794   2.743  2.5198  1.1250  0.7727
  960MOL0     H29586  10.611  11.314   1.467  2.6575  0.7015 -2.9972
  960MOL0     H29587  10.503  11.170   1.297  0.1570  0.6698  1.6557
  960MOL0     H29588  10.460  11.188   0.761 -0.6293 -0.7411  0.0920
  960MOL0     H29589  10.392  11.053   0.582 -0.4132 -2.1470  0.5748
  960MOL0     H29590  10.303  10.879   0.469 -0.5207  3.2018 -0.1201
  960MOL0     H29591  10.164  10.774   0.439 -2.3354 -0.5355  1.8671
  960MOL0     H29592  10.176  11.088   0.376  3.6454 -0.9404 -0.1593
  960MOL0     H29593  10.046  10.976   0.350 -0.1647  0.8431  2.9587
  960MOL0     H29594  10.131  10.914   0.154 -1.9823  1.0653  0.7637
  960MOL0     H29595  10.265  10.831   0.232  2.2663  0.7488 -3.1529
  960MOL0     H29596  10.277  11.112   0.135 -1.2936 -0.1001 -0.4628
  960MOL0     H29597  10.357  10.965   0.072  1.7020 -0.6193  1.1477
  960MOL0     H29598  10.625  11.028   0.389 -1.4681 -0.4533  0.5668
  960MOL0     H29599  10.030  10.960   0.797 -1.1167  2.2391 -1.6047
  960MOL0     H29600  10.100  11.110   0.977  1.3258  3.1504  0.0816
  961MOL0     O29601   2.119   8.650   3.655  0.9658  0.5400 -0.5780
  961MOL0     C29602   2.047   8.630   3.555 -0.4989 -0.0379  0.3878
  961MOL0     O29603   2.055   8.514   3.467  0.3159  0.5746 -0.1925
  961MOL0     C29604   2.148   8.416   3.500 -0.5722 -1.0775 -0.6092
  961MOL0     C29605   2.130   8.356   3.626 -0.4709  1.4683  0.1985
  961MOL0     C29606   2.229   8.261   3.659  1.0583  0.4422 -0.2430
  961MOL0     C29607   2.332   8.212   3.578 -0.2805  0.1086 -0.6049
  961MOL0     O29608   2.377   8.087   3.602 -0.4303 -0.0434  0.7006
  961MOL0     C29609   2.526   8.079   3.593 -0.5489  0.0359 -0.3663
  961MOL0     C29610   2.575   7.945   3.565 -0.0316 -0.0727  0.1839
  961MOL0     C29611   2.556   7.901   3.403 -0.2276 -0.9179  0.1302
  961MOL0     C29612   2.597   7.755   3.391 -0.1350 -0.6236 -1.2494
  961MOL0     C29613   2.585   7.685   3.249 -0.5249 -0.2056  0.4148
  961MOL0     C29614   2.696   7.747   3.153 -1.1058 -0.5858  0.3118
  961MOL0     C29615   2.723   7.660   3.038 -0.2488 -0.1419 -0.1936
  961MOL0     C29616   2.603   7.614   2.957  0.3592  0.0737 -2.1912
  961MOL0     N29617   2.522   7.726   2.901  0.4380  1.1179  0.1071
  961MOL0     C29618   2.546   7.845   2.832 -0.7908  0.2266  0.1820
  961MOL0     C29619   2.424   7.891   2.810 -0.0324 -0.4552 -0.0478
  961MOL0     C29620   2.403   8.028   2.737  0.0308  0.3419  0.7025
  961MOL0     C29621   2.402   7.990   2.585  0.3736 -0.6679 -0.9510
  961MOL0     C29622   2.358   8.107   2.499 -0.3854  0.4137  1.3136
  961MOL0     C29623   2.379   8.064   2.351 -0.3711  0.3545 -0.2234
  961MOL0     O29624   2.296   7.958   2.306  0.9233  0.0464 -0.1906
  961MOL0     C29625   2.185   7.987   2.223 -0.4379 -0.5656  0.1421
  961MOL0     C29626   2.204   8.022   2.090  0.5309  0.1763  0.4011
  961MOL0     C29627   2.092   8.055   2.011  0.6798  0.5694 -0.1977
  961MOL0     C29628   2.132   8.110   1.868 -0.4021  0.6802  1.4072
  961MOL0     C29629   1.964   8.018   2.067 -0.2136 -0.0790  0.4851
  961MOL0     C29630   1.839   8.017   1.979 -0.3906  0.0313  0.0536
  961MOL0     O29631   1.723   8.024   2.050 -0.2935  0.5226 -0.3339
  961MOL0     C29632   1.598   8.035   1.993 -0.4576  0.8392  0.2849
  961MOL0     C29633   1.562   7.959   1.877 -0.9167  0.1944 -0.5212
  961MOL0     C29634   1.430   7.971   1.825 -0.1079 -0.5222 -0.7770
  961MOL0     C29635   1.340   8.060   1.878  0.4651 -0.8535  0.1084
  961MOL0     O29636   1.213   8.068   1.826  0.1004  0.0644  0.0924
  961MOL0     C29637   1.140   8.191   1.835  0.4681 -0.2985  0.0328
  961MOL0     C29638   1.006   8.172   1.759 -0.3689 -0.2744 -0.4134
  961MOL0     C29639   1.042   8.151   1.615  0.1321  0.3019  1.0411
  961MOL0     C29640   0.916   8.165   1.539  0.3572  0.6046 -0.3971
  961MOL0     C29641   0.934   8.097   1.401  0.0648  0.8326  0.1631
  961MOL0     C29642   0.811   8.072   1.328 -0.6078  0.6642  0.3871
  961MOL0     C29643   0.835   7.972   1.216  0.5009 -0.9050 -0.9743
  961MOL0     C29644   0.710   7.939   1.128 -0.1821 -0.0553  0.7334
  961MOL0    Cl29645   0.774   7.829   1.009  0.3584 -0.0011  0.0298
  961MOL0     C29646   1.381   8.133   1.989  0.3770 -0.4906 -0.7037
  961MOL0     C29647   1.508   8.116   2.046  0.0339  0.1679  0.1245
  961MOL0     O29648   1.852   8.016   1.856 -0.7834 -0.1916 -0.2173
  961MOL0     C29649   1.955   7.955   2.182 -0.2246  0.5077  0.1246
  961MOL0     C29650   2.060   7.947   2.263  0.0359  0.7065  0.2096
  961MOL0     N29651   2.325   7.807   2.853 -0.6398  0.0951 -0.9529
  961MOL0     N29652   2.381   7.713   2.926 -0.5493 -0.4343 -0.0491
  961MOL0     C29653   2.343   8.270   3.453 -1.0508  0.0587  0.6728
  961MOL0     C29654   2.256   8.380   3.413 -0.9364  1.1861 -0.2388
  961MOL0     C29655   1.958   8.742   3.507  0.0149 -0.6052  1.3695
  961MOL0     C29656   1.976   8.869   3.557 -0.6098 -0.4549  0.1996
  961MOL0     C29657   1.901   8.976   3.525  0.6153 -0.3875  0.3548
  961MOL0     C29658   1.791   8.961   3.443  0.9612  0.0016 -0.5245
  961MOL0     O29659   1.715   9.076   3.418 -0.5398 -0.2430 -0.0038
  961MOL0     C29660   1.588   9.061   3.354  0.6800 -0.6885  0.1286
  961MOL0     C29661   1.508   9.194   3.341 -0.4130 -0.3860  0.2325
  961MOL0     C29662   1.582   9.306   3.276  0.5622 -0.9478  0.5892
  961MOL0     C29663   1.495   9.425   3.234  1.3197  0.7006 -1.0691
  961MOL0     C29664   1.430   9.492   3.354  0.1983  0.1841 -0.5587
  961MOL0     C29665   1.385   9.544   3.451  0.2359  0.0348 -0.3202
  961MOL0     C29666   1.766   8.840   3.392  0.7056  1.0039 -0.0469
  961MOL0     C29667   1.852   8.729   3.418  0.8854 -0.0100  0.4691
  961MOL0     H29668   2.034   8.362   3.674 -0.9556 -2.5863  0.0768
  961MOL0     H29669   2.197   8.215   3.752  0.7776  4.7816  2.0578
  961MOL0     H29670   2.558   8.149   3.516  0.5118  1.3423  1.1856
  961MOL0     H29671   2.573   8.112   3.686 -0.6451  2.0307 -0.9991
  961MOL0     H29672   2.684   7.942   3.575 -0.1339  0.0342  1.6323
  961MOL0     H29673   2.531   7.868   3.629 -0.0191  0.2545  0.5953
  961MOL0     H29674   2.451   7.917   3.380 -0.2498  2.6164  2.0429
  961MOL0     H29675   2.631   7.953   3.343  2.6537 -3.2069  1.4576
  961MOL0     H29676   2.703   7.749   3.418  0.9744  1.5217 -4.4745
  961MOL0     H29677   2.546   7.694   3.466  1.1720 -3.0242 -2.1883
  961MOL0     H29678   2.616   7.580   3.254 -0.5653 -0.4274 -2.5299
  961MOL0     H29679   2.486   7.689   3.203  1.2672 -1.2044 -4.0443
  961MOL0     H29680   2.668   7.844   3.111 -1.3254 -0.4480  0.7664
  961MOL0     H29681   2.792   7.765   3.203  0.7073 -3.1694 -1.9455
  961MOL0     H29682   2.794   7.704   2.968 -0.8428  0.8050 -0.2203
  961MOL0     H29683   2.779   7.573   3.074 -3.7852 -2.7199 -0.2962
  961MOL0     H29684   2.538   7.555   3.022 -1.5289  3.6771 -0.5736
  961MOL0     H29685   2.648   7.553   2.877  1.9349 -1.3059 -0.3542
  961MOL0     H29686   2.636   7.893   2.794 -1.8750 -0.4662 -3.6603
  961MOL0     H29687   2.315   8.060   2.795  1.0173 -0.8875  3.0027
  961MOL0     H29688   2.488   8.087   2.772  0.4574 -2.2768  4.6228
  961MOL0     H29689   2.336   7.904   2.570 -2.7199  1.7354 -2.4147
  961MOL0     H29690   2.507   7.967   2.564  1.4415  3.1729 -0.4921
  961MOL0     H29691   2.425   8.188   2.526  1.0593 -0.5987  0.8517
  961MOL0     H29692   2.253   8.134   2.518 -0.3399 -0.6899  3.3533
  961MOL0     H29693   2.478   8.020   2.337 -1.9732 -3.8126  0.1843
  961MOL0     H29694   2.379   8.150   2.283  2.5632 -0.5641 -1.5193
  961MOL0     H29695   2.299   8.050   2.047 -0.0124  0.8680 -0.3766
  961MOL0     H29696   2.231   8.155   1.870 -0.3301  0.6576 -0.2210
  961MOL0     H29697   2.128   8.039   1.785 -4.0701  0.3004  1.7331
  961MOL0     H29698   2.068   8.196   1.844  1.6511  1.5100 -1.6312
  961MOL0     H29699   1.610   7.870   1.837 -1.8752 -0.6027  0.0664
  961MOL0     H29700   1.400   7.910   1.741 -0.9546 -0.9965 -0.1555
  961MOL0     H29701   1.125   8.224   1.938 -1.1765 -1.6864  0.2799
  961MOL0     H29702   1.190   8.272   1.781  0.5971 -0.0597  0.5071
  961MOL0     H29703   0.952   8.089   1.805 -2.3853  0.5133 -1.2197
  961MOL0     H29704   0.948   8.263   1.777  1.3574  0.3956  2.2215
  961MOL0     H29705   1.087   8.053   1.599  0.2091  0.5039 -0.0812
  961MOL0     H29706   1.114   8.228   1.584  1.6247 -1.2353  0.5037
  961MOL0     H29707   0.825   8.139   1.594 -0.9256 -0.6542 -2.9107
  961MOL0     H29708   0.902   8.272   1.520 -2.2682  0.5609  0.7701
  961MOL0     H29709   0.982   8.001   1.420  1.5858  0.7137 -3.5238
  961MOL0     H29710   1.007   8.145   1.336 -0.4793 -0.0162 -1.1271
  961MOL0     H29711   0.733   8.030   1.391 -0.1078  1.9739  1.9608
  961MOL0     H29712   0.778   8.173   1.302 -5.0887 -0.8864 -0.8775
  961MOL0     H29713   0.879   7.882   1.259 -0.5787 -1.9001 -1.8898
  961MOL0     H29714   0.904   8.017   1.143  0.3021  1.7066  0.3239
  961MOL0     H29715   0.676   8.032   1.081 -3.5141 -1.7423 -0.5334
  961MOL0     H29716   0.623   7.894   1.178 -1.0789 -1.4102 -1.9043
  961MOL0     H29717   1.311   8.203   2.035  0.1934 -0.8836 -0.3751
  961MOL0     H29718   1.528   8.173   2.136  2.0586  2.5952 -1.6908
  961MOL0     H29719   1.862   7.914   2.221  1.2171 -2.0590  1.1314
  961MOL0     H29720   2.040   7.907   2.362 -2.9850 -1.5843 -1.1711
  961MOL0     H29721   2.411   8.218   3.386 -0.5662  1.4959  0.0163
  961MOL0     H29722   2.268   8.434   3.320 -4.8972 -0.1768 -1.7729
  961MOL0     H29723   2.060   8.880   3.625 -0.1174 -0.3074 -0.4155
  961MOL0     H29724   1.934   9.070   3.570 -2.5076  0.7530  0.4814
  961MOL0     H29725   1.607   9.013   3.258 -0.4171 -0.1523 -0.3669
  961MOL0     H29726   1.524   8.992   3.409 -1.0347 -0.5117 -1.5832
  961MOL0     H29727   1.493   9.235   3.442  1.0819  2.2367 -0.5018
  961MOL0     H29728   1.407   9.177   3.301 -1.8127 -0.2660  3.3562
  961MOL0     H29729   1.623   9.267   3.182  1.0160  1.8210 -0.4344
  961MOL0     H29730   1.655   9.345   3.348  1.9802  0.8075 -1.6443
  961MOL0     H29731   1.426   9.388   3.158  1.0267  0.1531 -0.5445
  961MOL0     H29732   1.561   9.490   3.175  5.1020 -1.2847  0.5749
  961MOL0     H29733   1.354   9.596   3.540  7.2608  2.5084  1.3823
  961MOL0     H29734   1.688   8.824   3.319 -0.6779  0.4637  1.4961
  961MOL0     H29735   1.830   8.635   3.370 -0.6980 -0.0059  1.1165
  962MOL0     O29736   6.815   2.183   6.442 -0.2683 -0.2473  0.2845
  962MOL0     C29737   6.713   2.122   6.433 -0.3310 -0.4363  0.0821
  962MOL0     O29738   6.613   2.157   6.339 -0.1169 -0.1097 -0.3053
  962MOL0     C29739   6.637   2.270   6.268  0.6089 -0.0197 -0.0393
  962MOL0     C29740   6.696   2.271   6.141  0.5594  0.4623  0.6774
  962MOL0     C29741   6.714   2.391   6.074  0.0829  0.1023 -0.4387
  962MOL0     C29742   6.658   2.512   6.122 -0.0728 -0.2970 -0.8996
  962MOL0     O29743   6.681   2.635   6.064  0.1836  0.0465  0.4155
  962MOL0     C29744   6.728   2.652   5.922  0.4567  0.0347 -0.4181
  962MOL0     C29745   6.785   2.799   5.924  0.6263 -0.0104 -1.2277
  962MOL0     C29746   6.666   2.887   5.917  0.0670  0.0733 -0.2860
  962MOL0     C29747   6.705   3.027   5.968  0.3274 -0.2210 -0.3126
  962MOL0     C29748   6.586   3.079   6.045 -0.3062  0.0057  0.6638
  962MOL0     C29749   6.624   3.225   6.094 -0.0927  0.4230  0.3379
  962MOL0     C29750   6.502   3.302   6.138  0.3670 -0.5293 -0.2528
  962MOL0     C29751   6.525   3.365   6.276  0.1050  0.2682 -0.1366
  962MOL0     N29752   6.412   3.457   6.312 -0.3518  0.1268  0.5852
  962MOL0     C29753   6.384   3.504   6.437 -0.1384 -0.2551 -0.1924
  962MOL0     C29754   6.271   3.579   6.420 -0.4810 -1.0879 -0.6252
  962MOL0     C29755   6.202   3.678   6.521  0.3190  0.2374  0.1399
  962MOL0     C29756   6.204   3.820   6.471  0.1338 -0.2496 -0.0324
  962MOL0     C29757   6.354   3.858   6.474 -0.1310 -0.0578 -0.6557
  962MOL0     C29758   6.363   4.012   6.446  0.2757  0.5136 -0.6313
  962MOL0     O29759   6.346   4.044   6.312 -0.4831 -0.0193 -0.2390
  962MOL0     C29760   6.241   4.124   6.275 -0.5740 -0.0405  0.3807
  962MOL0     C29761   6.203   4.104   6.145  0.2589  0.1775 -0.5147
  962MOL0     C29762   6.102   4.173   6.081  0.1187 -0.2608  0.3615
  962MOL0     C29763   6.066   4.144   5.939  0.4839 -0.9415 -0.0611
  962MOL0     C29764   6.023   4.275   6.156 -0.3369  0.1797 -0.0374
  962MOL0     C29765   5.898   4.350   6.104 -0.2833  0.7691  0.4228
  962MOL0     O29766   5.848   4.444   6.178  0.1300  0.2482  0.1060
  962MOL0     C29767   5.740   4.513   6.131  0.7459 -0.8908 -1.3600
  962MOL0     C29768   5.626   4.452   6.097  1.1926  0.0443 -0.1429
  962MOL0     C29769   5.517   4.521   6.048 -0.0541  0.2831 -0.4607
  962MOL0     C29770   5.508   4.663   6.058  0.3782  0.1973  0.5320
  962MOL0     O29771   5.413   4.745   6.003 -0.1069  0.1016  0.4131
  962MOL0     C29772   5.294   4.698   5.931 -1.3060  0.3414  0.1889
  962MOL0     C29773   5.208   4.817   5.897 -0.2221  0.0172  0.7642
  962MOL0     C29774   5.111   4.878   5.999 -0.5744  0.1077 -0.5405
  962MOL0     C29775   5.189   4.936   6.127  0.8745  0.3771 -0.0189
  962MOL0     C29776   5.095   4.916   6.248  0.0252 -0.7197  0.1414
  962MOL0     C29777   5.127   5.027   6.355  0.2979 -1.2036 -0.1532
  962MOL0     C29778   5.054   5.007   6.484 -0.1850  0.3566  0.1426
  962MOL0     C29779   5.052   5.133   6.573  0.0219 -0.4084 -0.4044
  962MOL0    Cl29780   4.948   5.095   6.715  0.2546 -0.1154 -0.0214
  962MOL0     C29781   5.615   4.726   6.120 -0.4657  0.2928  0.7584
  962MOL0     C29782   5.734   4.656   6.148  0.2358 -0.2065  0.6629
  962MOL0     O29783   5.852   4.306   5.999  0.8545  0.4504  0.0481
  962MOL0     C29784   6.067   4.301   6.292  0.1811 -0.5481 -0.1291
  962MOL0     C29785   6.173   4.226   6.345 -0.3766 -0.6388  0.2588
  962MOL0     N29786   6.247   3.593   6.286  0.7949  0.4447 -0.4549
  962MOL0     N29787   6.325   3.516   6.222  0.0743  1.2549 -0.2450
  962MOL0     C29788   6.606   2.511   6.251  0.2577  0.4676  0.0877
  962MOL0     C29789   6.602   2.390   6.320 -1.0742 -0.2105  0.8709
  962MOL0     C29790   6.683   2.021   6.525  0.6038 -0.2122 -0.5773
  962MOL0     C29791   6.553   1.968   6.535 -0.5003  0.1634 -0.6129
  962MOL0     C29792   6.521   1.870   6.625  0.0453  0.0774  0.8544
  962MOL0     C29793   6.613   1.817   6.715 -0.1402 -0.1740 -0.7143
  962MOL0     O29794   6.588   1.721   6.813  0.6829  0.0459  0.1255
  962MOL0     C29795   6.446   1.685   6.836  0.0073  0.7457 -0.0747
  962MOL0     C29796   6.430   1.580   6.953  0.5596 -0.3614  0.3151
  962MOL0     C29797   6.501   1.599   7.083 -1.2695 -0.0491  0.0359
  962MOL0     C29798   6.430   1.699   7.172 -0.6765  0.5773  0.3876
  962MOL0     C29799   6.441   1.839   7.138 -0.1618 -0.4455  0.0402
  962MOL0     C29800   6.450   1.959   7.111  0.1613 -0.2871  0.8363
  962MOL0     C29801   6.751   1.866   6.705  0.2929 -0.4055  0.0617
  962MOL0     C29802   6.781   1.966   6.612  0.1757 -0.3347  0.3626
  962MOL0     H29803   6.731   2.178   6.098  1.7670  1.6711 -1.1033
  962MOL0     H29804   6.761   2.373   5.978  0.9824 -3.7771  0.5419
  962MOL0     H29805   6.808   2.581   5.902 -1.2363 -2.2225  0.3196
  962MOL0     H29806   6.647   2.631   5.851 -1.3292 -1.7285  1.9783
  962MOL0     H29807   6.836   2.812   6.020 -1.1120  0.8833 -0.3652
  962MOL0     H29808   6.861   2.818   5.847 -1.4807 -3.5426 -4.5195
  962MOL0     H29809   6.631   2.885   5.813 -0.0506 -0.8295 -0.2353
  962MOL0     H29810   6.590   2.849   5.985  2.3589  0.7891  2.9117
  962MOL0     H29811   6.799   3.026   6.025  0.8564 -1.9119 -1.1602
  962MOL0     H29812   6.724   3.083   5.875 -2.5219 -1.4091 -1.7244
  962MOL0     H29813   6.505   3.075   5.972  0.1383  1.8863 -0.0074
  962MOL0     H29814   6.554   3.015   6.127  2.8032 -2.7488 -0.0875
  962MOL0     H29815   6.703   3.225   6.169  0.4728  2.4829 -0.1998
  962MOL0     H29816   6.675   3.279   6.013 -1.0683  2.0337  0.7794
  962MOL0     H29817   6.474   3.383   6.069 -1.3539 -1.7806 -1.0809
  962MOL0     H29818   6.415   3.236   6.146 -2.2841  2.5151 -1.4841
  962MOL0     H29819   6.613   3.429   6.287 -2.2248  3.2461  3.1250
  962MOL0     H29820   6.528   3.285   6.350 -3.8805  0.3905  0.3975
  962MOL0     H29821   6.437   3.489   6.531  3.3327  2.6810 -1.4293
  962MOL0     H29822   6.095   3.659   6.536  0.3498  2.3881  4.1201
  962MOL0     H29823   6.250   3.668   6.618 -0.8622 -1.3047  0.6155
  962MOL0     H29824   6.152   3.885   6.541 -2.1387 -1.3156 -0.6468
  962MOL0     H29825   6.159   3.836   6.373  1.8678  2.1198 -0.5241
  962MOL0     H29826   6.407   3.795   6.402 -1.1533 -2.7755  0.8143
  962MOL0     H29827   6.397   3.835   6.572  1.1763  1.4299 -0.8431
  962MOL0     H29828   6.469   4.034   6.458  0.0791  1.1878 -0.0995
  962MOL0     H29829   6.308   4.077   6.515 -0.0732  2.6500 -2.7709
  962MOL0     H29830   6.261   4.039   6.080  0.4358  0.7682 -0.9535
  962MOL0     H29831   5.970   4.092   5.938  1.5448 -3.0893  1.5096
  962MOL0     H29832   6.053   4.240   5.888 -2.7386 -1.0891  0.2342
  962MOL0     H29833   6.147   4.097   5.882  0.3108 -1.4929  0.1414
  962MOL0     H29834   5.613   4.344   6.100 -1.6207  0.2638  3.2679
  962MOL0     H29835   5.434   4.460   6.015  0.4516 -1.3371  1.1318
  962MOL0     H29836   5.332   4.652   5.839 -2.1941  1.1963 -0.6248
  962MOL0     H29837   5.237   4.621   5.985 -1.2066  0.4074  0.3869
  962MOL0     H29838   5.288   4.883   5.862 -0.4852 -0.7338 -1.4116
  962MOL0     H29839   5.141   4.809   5.811 -0.4328 -4.0614  1.1187
  962MOL0     H29840   5.031   4.807   6.023 -1.7395  1.1644 -1.1561
  962MOL0     H29841   5.065   4.958   5.940 -0.4402 -0.6620 -1.7064
  962MOL0     H29842   5.282   4.881   6.148  2.0666  1.4681 -2.1537
  962MOL0     H29843   5.201   5.044   6.116  1.2640  0.4400  0.8966
  962MOL0     H29844   5.110   4.816   6.290  0.0113 -1.0558 -0.6282
  962MOL0     H29845   4.998   4.918   6.197  1.4155  1.0297 -2.6974
  962MOL0     H29846   5.234   5.023   6.372  0.8996 -2.0752 -3.3474
  962MOL0     H29847   5.107   5.129   6.319  1.9148 -1.2188 -1.2083
  962MOL0     H29848   5.093   4.923   6.542 -4.8716 -1.8461  0.5808
  962MOL0     H29849   4.948   4.984   6.473  0.4216 -1.8595 -1.8346
  962MOL0     H29850   5.021   5.220   6.514 -1.3582 -0.3374  0.3853
  962MOL0     H29851   5.147   5.162   6.618 -1.4377  3.4053  0.5725
  962MOL0     H29852   5.617   4.834   6.131 -0.7092  0.0864  3.7606
  962MOL0     H29853   5.812   4.723   6.182 -1.7124  2.8936 -0.5058
  962MOL0     H29854   6.003   4.358   6.359  0.9067  1.8055 -1.2966
  962MOL0     H29855   6.204   4.259   6.443  1.1515 -2.9983  0.6419
  962MOL0     H29856   6.563   2.599   6.298  0.9088  0.9208 -0.1316
  962MOL0     H29857   6.562   2.390   6.421 -2.6649  2.5224  0.3193
  962MOL0     H29858   6.470   2.007   6.477  0.8641  2.0109 -1.4362
  962MOL0     H29859   6.415   1.845   6.623 -0.0218  0.2971  1.5085
  962MOL0     H29860   6.386   1.770   6.870  0.3781 -0.0085  2.7354
  962MOL0     H29861   6.399   1.647   6.745 -2.5299  1.4133  0.8534
  962MOL0     H29862   6.482   1.496   6.906  3.7010  0.6105  1.8333
  962MOL0     H29863   6.325   1.551   6.966  0.6474 -0.7167  0.2404
  962MOL0     H29864   6.602   1.638   7.066 -0.3262 -0.9189  2.9505
  962MOL0     H29865   6.507   1.502   7.134  1.4167 -0.2591 -0.4974
  962MOL0     H29866   6.476   1.684   7.270 -1.5665 -4.3263  0.3152
  962MOL0     H29867   6.328   1.662   7.183 -0.2535 -1.5221 -1.8571
  962MOL0     H29868   6.441   2.063   7.088 -1.6628 -1.0890 -2.8120
  962MOL0     H29869   6.827   1.835   6.775  1.0882  1.6081  0.1486
  962MOL0     H29870   6.880   2.011   6.610 -0.1385  0.3477 -1.3102
  963MOL0     O29871  11.113   4.171   3.499  0.2509  0.5175 -1.2675
  963MOL0     C29872  11.069   4.060   3.467  0.1091  0.2780 -0.7577
  963MOL0     O29873  11.114   3.975   3.375  0.0289 -0.5108  0.0798
  963MOL0     C29874  11.239   4.003   3.304  0.1393 -1.5205  0.4255
  963MOL0     C29875  11.256   4.113   3.228  0.3289  0.2463 -0.1694
  963MOL0     C29876  11.363   4.123   3.145 -0.9872  0.2447  0.9873
  963MOL0     C29877  11.456   4.024   3.140 -0.1733 -0.5452 -0.5285
  963MOL0     O29878  11.568   4.012   3.060  0.0222 -0.3880  0.5481
  963MOL0     C29879  11.549   4.071   2.933 -0.6064  0.9904 -0.6028
  963MOL0     C29880  11.570   3.962   2.828  0.3108 -0.3083 -0.8018
  963MOL0     C29881  11.582   4.032   2.688  0.1886  0.5554  0.5981
  963MOL0     C29882  11.619   3.926   2.580  0.4266 -0.4960 -0.1415
  963MOL0     C29883  11.668   3.968   2.445 -0.9915 -0.0079  0.6780
  963MOL0     C29884  11.602   4.093   2.388 -0.9377  0.0384 -0.8060
  963MOL0     C29885  11.574   4.081   2.242 -0.0511  0.3113 -0.0025
  963MOL0     C29886  11.430   4.007   2.209 -1.4652 -0.1992 -0.1563
  963MOL0     N29887  11.417   3.997   2.060 -0.1928  0.2324 -0.7874
  963MOL0     C29888  11.358   3.886   2.002  0.2760  0.1883 -0.1989
  963MOL0     C29889  11.367   3.898   1.871  0.3372 -0.4794 -0.0146
  963MOL0     C29890  11.316   3.797   1.778  0.4963 -0.1790  0.1143
  963MOL0     C29891  11.309   3.864   1.645  0.5949 -0.4998 -0.3505
  963MOL0     C29892  11.303   3.761   1.537  0.0720  0.2671 -0.6808
  963MOL0     C29893  11.296   3.827   1.405 -0.4105 -0.5387  0.3498
  963MOL0     O29894  11.161   3.883   1.384  0.0520 -0.5053 -0.6698
  963MOL0     C29895  11.143   3.936   1.254  0.2523 -0.3413 -0.0080
  963MOL0     C29896  11.036   3.892   1.174  0.0898  0.1456  0.0407
  963MOL0     C29897  11.020   3.941   1.048 -0.9459  0.0116  0.8388
  963MOL0     C29898  10.911   3.876   0.960 -0.6117  0.2715 -0.1058
  963MOL0     C29899  11.110   4.043   0.992 -0.6655 -0.1829 -0.4120
  963MOL0     C29900  11.114   4.104   0.858  1.1469 -0.0269 -0.2547
  963MOL0     O29901  11.179   4.220   0.849  0.5461  0.2027  0.7492
  963MOL0     C29902  11.178   4.286   0.729 -0.1987 -1.1651  0.2306
  963MOL0     C29903  11.180   4.235   0.598  0.7818  0.3973  0.9902
  963MOL0     C29904  11.144   4.318   0.487  0.1003 -0.4061  0.2044
  963MOL0     C29905  11.122   4.463   0.504  0.0669 -0.1154 -0.2516
  963MOL0     O29906  11.100   4.552   0.406  0.2046 -0.1054 -0.6462
  963MOL0     C29907  11.141   4.524   0.270  0.1024  0.0361  0.0566
  963MOL0     C29908  11.159   4.658   0.189 -0.4379  0.1867 -0.2516
  963MOL0     C29909  11.031   4.744   0.192 -0.2918 -0.5281 -0.0619
  963MOL0     C29910  10.915   4.688   0.096  0.1444 -0.4212  0.0983
  963MOL0     C29911  10.789   4.781   0.103 -0.7682 -0.3733  0.0107
  963MOL0     C29912  10.819   4.911   0.030 -0.2484 -0.9491  0.0554
  963MOL0     C29913  10.695   4.958  -0.048 -0.0129 -0.0211 -0.8212
  963MOL0     C29914  10.659   4.889  -0.180 -0.5235 -1.0901  0.5483
  963MOL0    Cl29915  10.784   4.948  -0.291 -0.3480 -0.3616 -0.1996
  963MOL0     C29916  11.131   4.509   0.636 -0.8942  0.6387  1.1000
  963MOL0     C29917  11.164   4.424   0.742  1.0094  0.0633  0.5228
  963MOL0     O29918  11.046   4.045   0.769 -0.2360 -0.2921  0.5815
  963MOL0     C29919  11.208   4.098   1.081  0.3455  0.6138  1.0149
  963MOL0     C29920  11.216   4.048   1.211  0.5024 -0.1575 -0.3426
  963MOL0     N29921  11.425   4.022   1.848 -0.8420  0.0920 -0.2120
  963MOL0     N29922  11.461   4.077   1.957  0.1768 -0.0851  1.0416
  963MOL0     C29923  11.437   3.910   3.217  0.4917  0.3796 -0.3306
  963MOL0     C29924  11.326   3.892   3.291  0.2804 -1.0106  0.1072
  963MOL0     C29925  10.943   3.997   3.554  0.0884 -0.2147  0.7378
  963MOL0     C29926  10.876   4.063   3.655 -0.2025 -0.3523 -0.1193
  963MOL0     C29927  10.771   4.001   3.724 -0.3904 -0.3498  1.1210
  963MOL0     C29928  10.730   3.875   3.682  0.0351  0.6882  0.0807
  963MOL0     O29929  10.646   3.794   3.752  0.1061  0.7283 -0.2849
  963MOL0     C29930  10.681   3.754   3.882  0.5338  0.0056  0.4110
  963MOL0     C29931  10.745   3.619   3.887 -1.3872 -0.9139  0.5715
  963MOL0     C29932  10.644   3.520   3.818 -0.6793 -0.8546 -0.0930
  963MOL0     C29933  10.646   3.377   3.867 -0.4379  0.0523  0.0710
  963MOL0     C29934  10.767   3.326   3.917 -0.3529  0.1241 -0.0438
  963MOL0     C29935  10.857   3.258   3.960 -0.8317 -0.0558 -1.0941
  963MOL0     C29936  10.800   3.813   3.572  0.0847  0.0763  0.1415
  963MOL0     C29937  10.902   3.876   3.512 -0.5209 -0.4275  0.3294
  963MOL0     H29938  11.175   4.186   3.233  0.1757  0.2300 -1.8814
  963MOL0     H29939  11.374   4.218   3.093 -2.8871  0.3777  0.7672
  963MOL0     H29940  11.449   4.109   2.909 -1.6140 -1.7727 -1.1879
  963MOL0     H29941  11.626   4.148   2.927 -0.4495  0.9089  0.1609
  963MOL0     H29942  11.644   3.889   2.861 -1.2742 -1.2190  0.9468
  963MOL0     H29943  11.480   3.901   2.844  0.1252  0.5924  2.3407
  963MOL0     H29944  11.491   4.089   2.668 -0.3118 -0.9534 -1.9386
  963MOL0     H29945  11.671   4.094   2.703 -0.4409  1.1294  2.2237
  963MOL0     H29946  11.710   3.875   2.613 -0.1401 -1.3541  0.1024
  963MOL0     H29947  11.543   3.848   2.578 -1.2033  0.8373  2.9261
  963MOL0     H29948  11.775   3.989   2.447 -0.9777  0.1133 -0.5238
  963MOL0     H29949  11.637   3.890   2.375  0.4324 -0.3428  0.3898
  963MOL0     H29950  11.506   4.112   2.438 -1.6980 -1.3959 -1.6474
  963MOL0     H29951  11.659   4.182   2.414 -0.5974 -0.1566 -0.8805
  963MOL0     H29952  11.566   4.185   2.209 -3.0241  0.3787  0.6423
  963MOL0     H29953  11.659   4.030   2.196 -1.6424 -0.4334 -2.3264
  963MOL0     H29954  11.351   4.073   2.244 -1.9552 -0.1393 -1.3162
  963MOL0     H29955  11.413   3.910   2.256  1.5162 -0.0749  1.4498
  963MOL0     H29956  11.322   3.796   2.051  0.0874  0.8340  0.8846
  963MOL0     H29957  11.384   3.711   1.781  1.8152  0.6338 -2.6948
  963MOL0     H29958  11.218   3.769   1.817  0.4439  2.9937  2.6654
  963MOL0     H29959  11.405   3.911   1.621  0.4626 -1.0245 -2.1013
  963MOL0     H29960  11.219   3.926   1.647  0.7613 -0.2428 -0.6800
  963MOL0     H29961  11.215   3.699   1.553  0.5247 -0.0148  0.9040
  963MOL0     H29962  11.379   3.683   1.552 -0.5724 -0.4983 -1.2822
  963MOL0     H29963  11.314   3.756   1.324  0.5618 -0.7969  0.7649
  963MOL0     H29964  11.372   3.905   1.412 -1.9448  1.2089 -1.4186
  963MOL0     H29965  10.979   3.813   1.222  4.2809 -0.8427  4.1719
  963MOL0     H29966  10.829   3.943   0.936 -0.6082  0.4586  0.3921
  963MOL0     H29967  10.951   3.836   0.866  3.0527  0.8504  1.0264
  963MOL0     H29968  10.873   3.790   1.015 -2.7224  0.0811 -1.7527
  963MOL0     H29969  11.198   4.128   0.589 -2.4796 -0.3854  2.4786
  963MOL0     H29970  11.143   4.272   0.388  0.6528 -2.9616  1.3061
  963MOL0     H29971  11.236   4.473   0.287  0.4305 -0.7199 -3.2769
  963MOL0     H29972  11.071   4.465   0.209 -1.7185 -0.1215  2.1763
  963MOL0     H29973  11.240   4.721   0.227 -0.7013  1.3464 -1.5608
  963MOL0     H29974  11.180   4.629   0.086  0.1817 -3.5275  0.7630
  963MOL0     H29975  11.063   4.838   0.147  0.7547 -1.1854 -0.7434
  963MOL0     H29976  10.995   4.760   0.294  2.5722 -2.5208  1.4023
  963MOL0     H29977  10.956   4.670  -0.003  1.7360 -0.8451  0.8072
  963MOL0     H29978  10.888   4.592   0.140  1.8493 -1.9983 -2.1294
  963MOL0     H29979  10.764   4.796   0.208  3.7554  2.0568  0.9998
  963MOL0     H29980  10.716   4.725   0.043  0.0092  0.0050 -1.3552
  963MOL0     H29981  10.850   4.981   0.108 -2.7065  0.2496  0.0281
  963MOL0     H29982  10.902   4.907  -0.042 -0.7643  0.6971 -0.6743
  963MOL0     H29983  10.701   5.065  -0.070 -1.9861  0.2267 -0.3741
  963MOL0     H29984  10.615   4.946   0.025  2.6113 -0.3637  2.2026
  963MOL0     H29985  10.561   4.922  -0.215 -0.3946  1.1204  2.0889
  963MOL0     H29986  10.643   4.781  -0.174 -1.0862 -1.0135  0.4285
  963MOL0     H29987  11.108   4.614   0.652 -0.7551  0.8338  0.0720
  963MOL0     H29988  11.151   4.457   0.844 -4.0532 -0.7266  0.4016
  963MOL0     H29989  11.291   4.152   1.036  0.2888 -0.9522 -1.1213
  963MOL0     H29990  11.299   4.083   1.272  0.8889  0.7624 -1.3481
  963MOL0     H29991  11.515   3.835   3.208  1.4456  1.3173 -0.1204
  963MOL0     H29992  11.304   3.805   3.352 -1.6686 -0.8507 -0.3066
  963MOL0     H29993  10.899   4.161   3.695  0.4918 -1.4916  2.5430
  963MOL0     H29994  10.725   4.071   3.793  2.7516  3.3365 -0.1121
  963MOL0     H29995  10.740   3.834   3.929 -2.5569  1.2003  2.5760
  963MOL0     H29996  10.594   3.732   3.944  0.9652 -3.3201  0.0077
  963MOL0     H29997  10.782   3.585   3.984 -1.3051 -3.6383 -0.3206
  963MOL0     H29998  10.832   3.610   3.821 -1.6734 -0.4118  0.1120
  963MOL0     H29999  10.658   3.510   3.710 -3.2202 -4.2988 -0.2765
  963MOL0     H30000  10.542   3.561   3.819 -0.6584 -0.7353 -1.4175
  963MOL0     H30001  10.626   3.321   3.775 -3.4060  1.1302 -0.0410
  963MOL0     H30002  10.569   3.355   3.942  1.5782  0.7001  2.4464
  963MOL0     H30003  10.937   3.205   4.010 -0.8413  1.4534  0.6413
  963MOL0     H30004  10.741   3.730   3.535 -1.7178  0.3445  2.2135
  963MOL0     H30005  10.962   3.842   3.427  1.8212  2.8345  0.4725
  964MOL0     O30006   0.600   2.454   2.001  0.5432 -0.2439  0.4491
  964MOL0     C30007   0.661   2.415   2.096 -0.2002 -0.0083 -0.3890
  964MOL0     O30008   0.710   2.293   2.109  0.6883  0.1984 -0.0067
  964MOL0     C30009   0.746   2.214   1.999  0.2859 -0.0646  0.1384
  964MOL0     C30010   0.683   2.087   1.980 -0.0597  0.0774  0.8943
  964MOL0     C30011   0.719   2.006   1.874  0.7567  0.7092  0.0784
  964MOL0     C30012   0.821   2.042   1.785  0.5132 -0.3934  0.2462
  964MOL0     O30013   0.857   1.956   1.681 -0.4366  0.5777  0.2524
  964MOL0     C30014   0.840   1.815   1.676  0.0250 -1.2106  0.5722
  964MOL0     C30015   0.890   1.759   1.543 -0.5659  0.5990 -0.3711
  964MOL0     C30016   0.791   1.788   1.426 -0.8608 -0.2845  0.3232
  964MOL0     C30017   0.854   1.818   1.285  0.0502 -0.0401 -0.3593
  964MOL0     C30018   0.744   1.842   1.178  0.1755  0.1670 -0.7076
  964MOL0     C30019   0.804   1.877   1.033  0.4466 -1.0658  0.4559
  964MOL0     C30020   0.853   2.023   1.034  0.8256  0.3200 -0.0528
  964MOL0     C30021   0.913   2.072   0.905  0.2848  0.7768 -0.4426
  964MOL0     N30022   0.819   2.151   0.815 -0.0367  0.3664 -0.3819
  964MOL0     C30023   0.791   2.285   0.815  0.6491 -0.2219  0.1674
  964MOL0     C30024   0.688   2.302   0.724 -0.7885 -0.0722  0.3712
  964MOL0     C30025   0.611   2.424   0.682  0.5839  0.2196  0.2027
  964MOL0     C30026   0.693   2.543   0.640 -0.1481  0.6741  0.3038
  964MOL0     C30027   0.781   2.538   0.511  0.3431 -0.1150 -0.1909
  964MOL0     C30028   0.699   2.551   0.385 -0.4738 -0.3040  0.4766
  964MOL0     O30029   0.636   2.682   0.385 -0.0948  0.4340  0.1662
  964MOL0     C30030   0.539   2.711   0.293  0.0543  0.1579 -0.2361
  964MOL0     C30031   0.513   2.635   0.180  0.5757  0.5112  0.8403
  964MOL0     C30032   0.419   2.683   0.080  0.2357 -0.3190 -0.6789
  964MOL0     C30033   0.406   2.594  -0.042 -0.9864 -0.2470 -0.7562
  964MOL0     C30034   0.345   2.803   0.104  0.1418  0.7353 -1.3718
  964MOL0     C30035   0.230   2.862   0.030  0.5873 -0.5147 -1.0791
  964MOL0     O30036   0.196   2.812  -0.090  0.6249 -0.2328  0.5890
  964MOL0     C30037   0.090   2.848  -0.169  0.0892  0.7184 -0.6464
  964MOL0     C30038  -0.016   2.757  -0.191  0.0852  0.1187 -0.9276
  964MOL0     C30039  -0.125   2.806  -0.259  0.5634  0.3903  0.0348
  964MOL0     C30040  -0.136   2.935  -0.316 -0.1628  0.7280 -0.7106
  964MOL0     O30041  -0.230   2.985  -0.395 -0.3907  0.0981  0.6678
  964MOL0     C30042  -0.363   2.937  -0.375  0.3632  0.3827  0.3703
  964MOL0     C30043  -0.423   3.002  -0.252 -0.7409 -1.0935  0.0460
  964MOL0     C30044  -0.578   2.982  -0.226  0.7569 -0.1653  0.9120
  964MOL0     C30045  -0.599   2.847  -0.161 -0.4958 -0.0082 -0.2144
  964MOL0     C30046  -0.744   2.827  -0.118 -0.2724  1.1373 -0.4449
  964MOL0     C30047  -0.751   2.742   0.011  0.0427  0.2664 -0.4081
  964MOL0     C30048  -0.887   2.690   0.029 -0.1135 -0.1617  0.7618
  964MOL0     C30049  -0.880   2.576   0.142  0.3248  0.3122 -0.2996
  964MOL0    Cl30050  -0.810   2.423   0.082  0.0238  0.0714  0.2884
  964MOL0     C30051  -0.025   3.013  -0.297 -0.6235  0.5741 -0.6179
  964MOL0     C30052   0.090   2.969  -0.227 -0.4668 -0.2823 -0.2210
  964MOL0     O30053   0.169   2.955   0.096  0.9808  0.4793  0.2996
  964MOL0     C30054   0.389   2.877   0.214  0.3641 -0.3298 -0.2875
  964MOL0     C30055   0.476   2.827   0.314  0.7064 -0.4652 -1.1026
  964MOL0     N30056   0.658   2.180   0.669  0.8126  0.0262 -0.7578
  964MOL0     N30057   0.736   2.091   0.722 -0.0437 -0.5060 -0.1847
  964MOL0     C30058   0.886   2.158   1.805  0.0555  0.3538 -0.8050
  964MOL0     C30059   0.849   2.248   1.904  0.2689  0.0087 -0.0150
  964MOL0     C30060   0.660   2.509   2.210  0.7175  1.8152  0.2408
  964MOL0     C30061   0.648   2.644   2.187  0.5289  0.5242 -0.3847
  964MOL0     C30062   0.652   2.734   2.297 -0.0962  0.5971 -0.7112
  964MOL0     C30063   0.672   2.674   2.432 -0.3943  0.1571 -0.1435
  964MOL0     O30064   0.677   2.747   2.542 -0.1192  0.0905 -0.0199
  964MOL0     C30065   0.768   2.854   2.530 -0.1566 -0.2587 -0.2615
  964MOL0     C30066   0.782   2.921   2.666  0.2172  0.4096  0.0818
  964MOL0     C30067   0.926   2.936   2.718 -0.1125 -0.2438 -0.6024
  964MOL0     C30068   1.023   3.007   2.623  0.2005 -0.1211  0.4376
  964MOL0     C30069   0.965   3.116   2.541 -0.6375 -0.0214  0.4037
  964MOL0     C30070   0.921   3.211   2.469  0.6107 -0.0179 -0.4493
  964MOL0     C30071   0.684   2.536   2.451 -0.4597  0.0242 -0.7207
  964MOL0     C30072   0.674   2.453   2.342 -0.4301 -0.0463 -0.0911
  964MOL0     H30073   0.606   2.056   2.050  1.2478 -0.0199  2.3357
  964MOL0     H30074   0.665   1.914   1.854 -0.5456  0.8514  2.5342
  964MOL0     H30075   0.894   1.773   1.761  0.7606 -0.5139  0.4732
  964MOL0     H30076   0.737   1.779   1.680  0.6552 -3.2051 -0.0375
  964MOL0     H30077   0.984   1.802   1.506 -1.4445  1.3244 -1.8373
  964MOL0     H30078   0.902   1.651   1.553 -2.3172  0.4682  0.6823
  964MOL0     H30079   0.722   1.703   1.428 -0.6850 -0.4809 -1.1351
  964MOL0     H30080   0.738   1.882   1.442 -0.0553  0.4355 -1.0277
  964MOL0     H30081   0.922   1.904   1.289 -0.6772  0.4936  1.6080
  964MOL0     H30082   0.917   1.732   1.258 -0.3540 -0.9578  1.4896
  964MOL0     H30083   0.690   1.750   1.157 -0.8396  1.0362 -2.1362
  964MOL0     H30084   0.675   1.919   1.214 -1.4000 -2.0573  1.3246
  964MOL0     H30085   0.888   1.811   1.008  1.4280  0.4052 -0.2989
  964MOL0     H30086   0.715   1.868   0.970 -1.2151 -1.7612  2.7584
  964MOL0     H30087   0.775   2.086   1.078  0.5029 -0.9407  1.2503
  964MOL0     H30088   0.925   2.028   1.117 -1.4641 -1.8875  2.2497
  964MOL0     H30089   0.954   1.986   0.852 -4.5241 -1.4029 -1.1878
  964MOL0     H30090   0.995   2.132   0.945 -0.0928  0.5485  0.7095
  964MOL0     H30091   0.839   2.352   0.885  3.8457 -1.2162 -0.8672
  964MOL0     H30092   0.544   2.398   0.599 -4.1276  1.3400  3.2978
  964MOL0     H30093   0.540   2.444   0.763  2.6662 -2.8276  3.0362
  964MOL0     H30094   0.752   2.567   0.729 -2.2470 -2.0312  2.5898
  964MOL0     H30095   0.618   2.619   0.617  0.1260  1.9158  3.1260
  964MOL0     H30096   0.838   2.446   0.518 -2.0619 -1.7641 -0.8836
  964MOL0     H30097   0.852   2.621   0.519  0.6292 -0.3784  0.0156
  964MOL0     H30098   0.627   2.468   0.388 -0.2423 -0.4874  2.6294
  964MOL0     H30099   0.774   2.540   0.306 -0.9783 -1.9218  0.1848
  964MOL0     H30100   0.562   2.543   0.152 -0.7881 -0.2780  1.0112
  964MOL0     H30101   0.404   2.489  -0.013 -0.2592 -0.1365 -0.2811
  964MOL0     H30102   0.319   2.620  -0.104 -2.1066  1.0466  1.2641
  964MOL0     H30103   0.499   2.597  -0.100  0.7884 -0.3559  1.9110
  964MOL0     H30104   0.008   2.662  -0.145 -1.9300  1.0503  2.3529
  964MOL0     H30105  -0.196   2.724  -0.256  1.2257 -0.1874  2.7761
  964MOL0     H30106  -0.425   2.947  -0.464 -0.5404 -5.1975  0.0520
  964MOL0     H30107  -0.371   2.830  -0.354 -0.9767  0.4426  0.2462
  964MOL0     H30108  -0.363   2.960  -0.171 -2.0047 -3.0788  0.0235
  964MOL0     H30109  -0.394   3.108  -0.254  0.9026 -1.4816  1.1294
  964MOL0     H30110  -0.627   2.987  -0.323  1.9181 -0.0732  0.3059
  964MOL0     H30111  -0.615   3.069  -0.171  1.1962  0.7810 -0.2384
  964MOL0     H30112  -0.564   2.767  -0.228 -0.6959 -1.6811  1.6021
  964MOL0     H30113  -0.532   2.849  -0.075 -0.5825 -0.9592 -0.1183
  964MOL0     H30114  -0.805   2.786  -0.199 -1.9016  2.2940  0.1215
  964MOL0     H30115  -0.782   2.926  -0.090 -0.9522  0.2097  2.2511
  964MOL0     H30116  -0.679   2.661  -0.002  0.3301 -0.1078  2.6087
  964MOL0     H30117  -0.714   2.804   0.093 -0.0293  2.1109 -1.7232
  964MOL0     H30118  -0.931   2.669  -0.068 -0.4378  2.2716  0.3180
  964MOL0     H30119  -0.953   2.773   0.056 -1.5798 -0.3815 -1.8732
  964MOL0     H30120  -0.977   2.541   0.178  1.2561  0.0363  2.1636
  964MOL0     H30121  -0.827   2.611   0.231 -2.9859 -3.5221  3.6796
  964MOL0     H30122  -0.029   3.108  -0.349 -0.3477  0.4670 -0.8367
  964MOL0     H30123   0.181   3.027  -0.214  0.3821 -1.7270  0.5290
  964MOL0     H30124   0.341   2.968   0.249  1.0441 -0.6610  1.6361
  964MOL0     H30125   0.492   2.889   0.402 -1.9890  1.2842 -1.7124
  964MOL0     H30126   0.974   2.187   1.749  1.8420 -0.0940  1.6271
  964MOL0     H30127   0.895   2.346   1.909 -1.4660  1.0459 -2.4355
  964MOL0     H30128   0.644   2.688   2.088 -0.0215 -0.6941 -0.9219
  964MOL0     H30129   0.637   2.840   2.285 -2.3333  0.5132  0.7439
  964MOL0     H30130   0.867   2.816   2.502 -0.3399 -0.4160 -0.6963
  964MOL0     H30131   0.723   2.918   2.454 -3.1242  0.5584  2.0092
  964MOL0     H30132   0.734   2.864   2.745  1.1680 -1.0396 -0.3476
  964MOL0     H30133   0.748   3.025   2.662 -1.2673 -0.0827 -0.6989
  964MOL0     H30134   0.959   2.836   2.745  1.6395  0.2793 -0.7022
  964MOL0     H30135   0.930   2.985   2.816 -1.9343 -2.7492  0.8303
  964MOL0     H30136   1.058   2.929   2.556 -1.0408  1.5957 -2.3898
  964MOL0     H30137   1.098   3.046   2.693 -2.8724  3.1461  2.2576
  964MOL0     H30138   0.887   3.299   2.418 -1.9500 -0.2336  0.7108
  964MOL0     H30139   0.679   2.494   2.551 -3.7117  0.0272 -0.7799
  964MOL0     H30140   0.661   2.347   2.357  1.5071 -0.5542 -1.6349
  965MOL0     O30141  10.834   4.906   2.354  0.1214 -0.2421 -0.8986
  965MOL0     C30142  10.953   4.920   2.380  0.7007  0.1657 -0.2812
  965MOL0     O30143  11.006   4.984   2.487  0.1535 -0.0479 -0.6376
  965MOL0     C30144  10.922   5.058   2.564 -0.2299 -0.0569 -0.1574
  965MOL0     C30145  10.943   5.041   2.702  0.4688  0.6241  0.0410
  965MOL0     C30146  10.861   5.117   2.794 -0.4662  0.0661  0.0710
  965MOL0     C30147  10.758   5.199   2.744 -0.5511  0.3662  0.3759
  965MOL0     O30148  10.682   5.276   2.822  1.2105  0.7611  0.7413
  965MOL0     C30149  10.639   5.243   2.951  0.4267 -1.0417  1.3066
  965MOL0     C30150  10.594   5.099   2.961 -0.3455 -0.2777 -0.3585
  965MOL0     C30151  10.530   5.057   3.098 -0.2499  0.1494 -0.0069
  965MOL0     C30152  10.643   5.023   3.195  0.6483  0.3868 -0.4494
  965MOL0     C30153  10.584   4.989   3.338  0.4812 -0.1194 -0.2296
  965MOL0     C30154  10.562   5.113   3.428  0.6002  0.5729  0.9431
  965MOL0     C30155  10.527   5.068   3.573 -0.0534  0.6793  0.1661
  965MOL0     C30156  10.557   5.181   3.678  0.7698 -0.8641 -0.6392
  965MOL0     N30157  10.693   5.167   3.724  0.8069  0.0446 -0.6079
  965MOL0     C30158  10.748   5.165   3.849  0.2696 -0.2071  0.1346
  965MOL0     C30159  10.881   5.183   3.840 -0.5203 -0.0578 -0.4337
  965MOL0     C30160  10.968   5.217   3.953  0.5167  0.4164  0.1706
  965MOL0     C30161  10.987   5.375   3.943  0.4800 -0.3543 -0.1133
  965MOL0     C30162  11.072   5.438   4.045  0.1660 -0.1034 -0.5872
  965MOL0     C30163  11.114   5.582   3.997 -0.6993  0.4421  0.1391
  965MOL0     O30164  10.999   5.661   3.964  0.2097  0.7876  0.8398
  965MOL0     C30165  11.013   5.798   3.971 -0.2189  0.2864 -0.4836
  965MOL0     C30166  10.917   5.881   4.028 -0.1627  0.4515  0.3742
  965MOL0     C30167  10.935   6.021   4.045  0.8295  0.2795 -0.5872
  965MOL0     C30168  10.834   6.102   4.115 -0.0410  0.7342  0.0987
  965MOL0     C30169  11.057   6.079   3.997  0.6063 -0.9402  0.6329
  965MOL0     C30170  11.081   6.232   3.998  0.2175  0.6845  0.3498
  965MOL0     O30171  11.041   6.304   4.103  1.0070 -0.0336 -0.1735
  965MOL0     C30172  11.035   6.443   4.098 -0.4308  0.3142  0.5982
  965MOL0     C30173  11.013   6.512   3.980 -0.0803 -0.2886  0.3150
  965MOL0     C30174  11.012   6.662   3.982 -0.0052 -0.0182  0.9769
  965MOL0     C30175  11.018   6.735   4.105  0.5302 -0.0395  0.1576
  965MOL0     O30176  11.023   6.868   4.128  0.0709 -0.2229  0.6561
  965MOL0     C30177  11.015   6.957   4.014  0.4087 -0.3825 -0.2655
  965MOL0     C30178  11.017   7.100   4.070 -0.6204  0.1858 -0.0367
  965MOL0     C30179  11.018   7.217   3.967 -0.0931  0.3447 -0.7593
  965MOL0     C30180  11.135   7.218   3.861  0.5501 -0.4346 -0.2232
  965MOL0     C30181  11.128   7.342   3.778 -0.8905 -0.4659  0.4392
  965MOL0     C30182  11.248   7.359   3.681 -1.8510  0.5271  0.3304
  965MOL0     C30183  11.380   7.420   3.747  0.1610  0.4012  0.1783
  965MOL0     C30184  11.476   7.500   3.641 -0.0061  0.2322  0.4583
  965MOL0    Cl30185  11.524   7.389   3.521 -0.4876  0.6424  0.1508
  965MOL0     C30186  11.034   6.652   4.214 -0.3038  0.4373  0.1011
  965MOL0     C30187  11.050   6.516   4.209 -0.3146  0.1352 -0.3428
  965MOL0     O30188  11.144   6.276   3.906  0.3063  0.4576 -0.5180
  965MOL0     C30189  11.150   5.995   3.946 -0.6711 -0.5760  0.2330
  965MOL0     C30190  11.133   5.856   3.933 -0.6148 -0.2625  0.6356
  965MOL0     N30191  10.915   5.186   3.709  0.4628  0.0682  1.1217
  965MOL0     N30192  10.804   5.169   3.641 -0.6361 -0.2279  0.0454
  965MOL0     C30193  10.751   5.223   2.608 -0.3354 -0.4804  0.1572
  965MOL0     C30194  10.831   5.154   2.515  0.2557 -0.9052  0.4952
  965MOL0     C30195  11.045   4.869   2.272  0.5700  0.6289 -0.7085
  965MOL0     C30196  10.991   4.802   2.161  0.1942 -0.2268  0.2903
  965MOL0     C30197  11.074   4.726   2.080 -0.8744  0.1520 -0.1114
  965MOL0     C30198  11.212   4.710   2.115 -0.5269  0.2918 -0.0738
  965MOL0     O30199  11.304   4.626   2.060 -0.1861 -0.0522 -0.0678
  965MOL0     C30200  11.265   4.521   1.972  0.7343 -0.2042 -0.5617
  965MOL0     C30201  11.382   4.431   1.937  0.6049 -0.3606  0.1819
  965MOL0     C30202  11.500   4.510   1.884  0.7324  0.5177 -0.1517
  965MOL0     C30203  11.611   4.420   1.840  0.4195 -0.3699  0.2965
  965MOL0     C30204  11.681   4.480   1.722  0.5733 -0.4867 -0.7425
  965MOL0     C30205  11.737   4.533   1.628  0.7161  0.3024  0.2899
  965MOL0     C30206  11.268   4.785   2.219  0.5414  0.7842 -0.4509
  965MOL0     C30207  11.183   4.863   2.303 -0.4012  0.4376  0.1719
  965MOL0     H30208  11.010   4.963   2.736 -2.7138 -0.8368  3.7111
  965MOL0     H30209  10.864   5.084   2.897 -3.2304 -1.1809 -0.1645
  965MOL0     H30210  10.720   5.259   3.022  0.4061  0.7253  0.9721
  965MOL0     H30211  10.557   5.312   2.974  0.1136 -0.7712 -0.4998
  965MOL0     H30212  10.512   5.098   2.889  0.4021  1.8370 -1.3290
  965MOL0     H30213  10.666   5.023   2.929 -0.6855  0.4760 -3.2434
  965MOL0     H30214  10.462   5.133   3.139 -0.9039 -0.1856 -0.4505
  965MOL0     H30215  10.475   4.968   3.067  0.5695  0.2151 -1.7369
  965MOL0     H30216  10.692   4.935   3.151 -4.3719 -2.4653 -1.0498
  965MOL0     H30217  10.710   5.109   3.194  1.7374 -0.4258  0.1030
  965MOL0     H30218  10.492   4.934   3.315  1.5801 -2.2140  0.1478
  965MOL0     H30219  10.642   4.914   3.394 -2.1777 -3.3316 -1.4582
  965MOL0     H30220  10.651   5.175   3.415  1.1143 -0.2826  0.2975
  965MOL0     H30221  10.475   5.166   3.387  0.4485  1.7840  2.7272
  965MOL0     H30222  10.422   5.039   3.582  0.1522  0.1731  1.2072
  965MOL0     H30223  10.576   4.973   3.597 -2.9456 -0.6208  1.4514
  965MOL0     H30224  10.498   5.170   3.769  2.2395  0.1615  0.4914
  965MOL0     H30225  10.532   5.278   3.632 -1.9085 -1.2131 -0.1097
  965MOL0     H30226  10.684   5.164   3.937  0.0873  2.0021  0.0963
  965MOL0     H30227  10.936   5.178   4.049  3.4690  0.5224  1.3227
  965MOL0     H30228  11.062   5.162   3.942 -1.2864 -2.9832  0.5538
  965MOL0     H30229  10.889   5.422   3.944  2.1822  3.8021 -2.8678
  965MOL0     H30230  11.025   5.407   3.845 -0.5245  3.5262  0.6232
  965MOL0     H30231  11.145   5.372   4.095 -2.5561 -0.5861  3.1845
  965MOL0     H30232  11.019   5.458   4.139  2.0723  1.8331  0.1592
  965MOL0     H30233  11.184   5.570   3.914  1.4196  1.2490  1.7194
  965MOL0     H30234  11.176   5.634   4.070 -3.4875  1.3421  1.9989
  965MOL0     H30235  10.831   5.831   4.069  1.6509 -1.2134  2.3964
  965MOL0     H30236  10.866   6.142   4.211  0.4691  2.1367 -0.6152
  965MOL0     H30237  10.814   6.182   4.042  1.0724  1.5070  0.6157
  965MOL0     H30238  10.744   6.043   4.132  0.8739 -0.8486 -0.3736
  965MOL0     H30239  10.998   6.463   3.884  3.4355  2.0392 -1.6614
  965MOL0     H30240  11.002   6.725   3.894  0.9956 -0.0693  0.8187
  965MOL0     H30241  11.092   6.942   3.937 -0.1160 -0.8843 -0.7007
  965MOL0     H30242  10.925   6.944   3.954  0.6325  3.7390 -1.8329
  965MOL0     H30243  10.941   7.102   4.148 -1.9017 -0.3338 -1.2483
  965MOL0     H30244  11.115   7.110   4.118  0.0684  2.4613 -1.7563
  965MOL0     H30245  11.025   7.311   4.022 -3.9071  1.0723 -1.2188
  965MOL0     H30246  10.922   7.208   3.914 -1.6333  0.3096  1.8626
  965MOL0     H30247  11.230   7.215   3.916  0.9977  3.2141 -0.5148
  965MOL0     H30248  11.128   7.131   3.795 -1.0181 -0.1303 -0.4863
  965MOL0     H30249  11.118   7.436   3.834 -2.1503  0.5573 -1.4222
  965MOL0     H30250  11.034   7.328   3.724 -1.8055 -3.9680  2.5953
  965MOL0     H30251  11.264   7.262   3.633 -2.0389 -0.0539  1.4298
  965MOL0     H30252  11.217   7.427   3.601 -1.0885 -0.4785 -0.8579
  965MOL0     H30253  11.440   7.351   3.808  2.0714  1.8775  0.0495
  965MOL0     H30254  11.352   7.507   3.807  2.2229  1.5899 -0.5020
  965MOL0     H30255  11.556   7.539   3.704  0.0410 -1.3168  1.4190
  965MOL0     H30256  11.431   7.586   3.592  0.5187 -0.1043 -0.6451
  965MOL0     H30257  11.026   6.690   4.316 -1.8720 -1.7980  0.8953
  965MOL0     H30258  11.073   6.462   4.300  1.3393  1.4366  0.0582
  965MOL0     H30259  11.255   6.021   3.935 -0.3374 -0.8257  2.4372
  965MOL0     H30260  11.213   5.809   3.877 -1.4188  1.2750 -1.9968
  965MOL0     H30261  10.689   5.298   2.560  0.1355 -1.0005 -1.3035
  965MOL0     H30262  10.821   5.159   2.408 -2.2549 -0.4726  0.6875
  965MOL0     H30263  10.885   4.792   2.140  0.1795 -0.9002  0.6493
  965MOL0     H30264  11.038   4.665   1.997  1.8671  0.0387 -1.3317
  965MOL0     H30265  11.179   4.462   2.006  0.5186  0.4293  0.0194
  965MOL0     H30266  11.229   4.571   1.881 -1.1288  0.3344  0.4307
  965MOL0     H30267  11.346   4.363   1.859  1.4503 -3.7152  2.4823
  965MOL0     H30268  11.409   4.371   2.024  3.1489  1.2214  0.5633
  965MOL0     H30269  11.547   4.576   1.957 -0.0350  0.2104  0.6274
  965MOL0     H30270  11.470   4.568   1.797 -0.4903 -0.1067 -0.1590
  965MOL0     H30271  11.576   4.326   1.795  0.3853  0.5081 -1.6123
  965MOL0     H30272  11.684   4.412   1.921  2.9057  0.1076 -1.7500
  965MOL0     H30273  11.774   4.577   1.537  2.9705 -0.8816  0.5619
  965MOL0     H30274  11.375   4.787   2.240  0.6651  2.2050 -1.0887
  965MOL0     H30275  11.210   4.905   2.399  1.2674 -3.8495  1.8305
  966MOL0     O30276   7.393  10.469   8.769  0.3103 -0.1277  0.5488
  966MOL0     C30277   7.277  10.435   8.761  0.4584 -0.5736 -0.0317
  966MOL0     O30278   7.207  10.412   8.878  0.0521 -0.5632 -0.2338
  966MOL0     C30279   7.278  10.430   8.999 -0.3631 -0.6659  0.3464
  966MOL0     C30280   7.288  10.554   9.067 -0.0196  0.5170  0.1310
  966MOL0     C30281   7.324  10.562   9.196  0.2804 -0.0252 -0.0595
  966MOL0     C30282   7.373  10.459   9.273  0.8412  0.1816 -0.2843
  966MOL0     O30283   7.414  10.462   9.403 -0.3227  0.5090  0.7616
  966MOL0     C30284   7.474  10.579   9.450 -0.2507 -0.2062 -0.0363
  966MOL0     C30285   7.620  10.614   9.404  0.8356  0.4640  0.6400
  966MOL0     C30286   7.646  10.764   9.450  1.1323  1.0722 -0.3058
  966MOL0     C30287   7.795  10.784   9.441 -0.3750 -0.3552 -0.3582
  966MOL0     C30288   7.834  10.923   9.495 -0.4365  1.1520  0.0684
  966MOL0     C30289   7.988  10.928   9.528  0.4591  0.1498  0.0566
  966MOL0     C30290   8.022  11.074   9.566 -1.5814  0.2338 -0.3776
  966MOL0     C30291   8.167  11.084   9.617  0.7915  0.6491 -0.3690
  966MOL0     N30292   8.199  10.990   9.730 -0.6465 -0.4324  0.4138
  966MOL0     C30293   8.283  10.880   9.722 -0.0162  0.0256  0.0033
  966MOL0     C30294   8.283  10.830   9.842 -0.0670  0.0593 -0.4138
  966MOL0     C30295   8.366  10.704   9.889  0.6574  0.4569 -0.6723
  966MOL0     C30296   8.268  10.587   9.900 -0.5165  0.7923 -0.0368
  966MOL0     C30297   8.345  10.454   9.928  0.6988  0.7288  0.3542
  966MOL0     C30298   8.411  10.392   9.795 -1.2789  0.0962 -0.5836
  966MOL0     O30299   8.462  10.268   9.844 -0.2538  0.4089  0.2408
  966MOL0     C30300   8.590  10.258   9.899 -0.8286  0.1007  0.0574
  966MOL0     C30301   8.701  10.315   9.832  0.5963 -0.1075 -0.3657
  966MOL0     C30302   8.834  10.315   9.884  0.8134 -1.0396 -0.2474
  966MOL0     C30303   8.932  10.391   9.807 -0.2924  1.1025  0.3829
  966MOL0     C30304   8.843  10.272  10.016 -1.3322  0.3084 -0.2360
  966MOL0     C30305   8.979  10.277  10.086 -0.0798 -0.2620 -0.2124
  966MOL0     O30306   8.998  10.206  10.204 -0.8075 -0.7660 -0.0187
  966MOL0     C30307   9.128  10.199  10.254 -0.4665 -0.2888  0.2830
  966MOL0     C30308   9.171  10.281  10.356 -0.4012  0.1196 -0.1659
  966MOL0     C30309   9.301  10.273  10.409  0.1804 -0.1621  0.7260
  966MOL0     C30310   9.387  10.180  10.358  0.2667  0.2797  0.3472
  966MOL0     O30311   9.511  10.198  10.414  0.3528  0.8898 -0.4160
  966MOL0     C30312   9.584  10.073  10.437  0.4834  0.2237  0.1273
  966MOL0     C30313   9.516   9.962  10.517  0.6825 -0.4381 -0.5514
  966MOL0     C30314   9.611   9.853  10.554 -1.2215  0.3521  0.1215
  966MOL0     C30315   9.529   9.724  10.603  0.2507 -0.4326  0.5454
  966MOL0     C30316   9.518   9.634  10.485 -1.0569  0.3446  0.8110
  966MOL0     C30317   9.441   9.507  10.511  0.5159 -0.8624 -0.3259
  966MOL0     C30318   9.488   9.397  10.420 -0.4243 -0.3731  0.6548
  966MOL0     C30319   9.435   9.260  10.461 -0.1307 -0.1246  0.7442
  966MOL0    Cl30320   9.465   9.180  10.613  0.6234  0.7166 -0.7136
  966MOL0     C30321   9.350  10.103  10.244  0.3409  0.1982  0.2124
  966MOL0     C30322   9.220  10.113  10.193  0.3462  0.4511 -0.2818
  966MOL0     O30323   9.064  10.347  10.031 -0.6786  0.4392 -0.0151
  966MOL0     C30324   8.746  10.196  10.077  0.5312 -0.0200  0.9062
  966MOL0     C30325   8.615  10.193  10.020 -0.9016  0.2459  0.5234
  966MOL0     N30326   8.198  10.902   9.930 -0.8805  0.3415  0.6032
  966MOL0     N30327   8.160  11.001   9.858  0.3976 -0.2984 -0.7494
  966MOL0     C30328   7.361  10.337   9.209  0.2481 -0.6755 -0.2094
  966MOL0     C30329   7.306  10.317   9.080 -1.4366 -0.4720  0.5103
  966MOL0     C30330   7.208  10.405   8.626 -1.1217  0.7969  0.1126
  966MOL0     C30331   7.074  10.370   8.615  0.6007  0.0938 -0.0087
  966MOL0     C30332   7.020  10.324   8.495  0.3217  0.3443  1.2603
  966MOL0     C30333   7.093  10.321   8.379 -0.2957  0.5077  0.5459
  966MOL0     O30334   7.065  10.270   8.258  0.3236 -0.5778 -0.6477
  966MOL0     C30335   6.937  10.235   8.205  0.6007 -0.7365 -0.4412
  966MOL0     C30336   6.838  10.352   8.208 -0.1322 -0.5549  0.1334
  966MOL0     C30337   6.863  10.445   8.095  0.0669 -0.2159 -0.9340
  966MOL0     C30338   6.759  10.554   8.076  0.3169 -0.0774 -0.8872
  966MOL0     C30339   6.620  10.502   8.075  0.1144 -0.3709 -0.8249
  966MOL0     C30340   6.516  10.440   8.082 -0.4390  0.2457  0.3532
  966MOL0     C30341   7.226  10.369   8.388  0.1426 -0.3140  0.2299
  966MOL0     C30342   7.284  10.412   8.506 -0.2964 -0.9860 -0.3380
  966MOL0     H30343   7.254  10.643   9.016  1.9527 -0.5946 -3.4855
  966MOL0     H30344   7.302  10.660   9.236  2.6409  0.4131  0.3619
  966MOL0     H30345   7.413  10.668   9.431  0.2671  0.5791  1.7460
  966MOL0     H30346   7.481  10.582   9.559  0.3462  0.4855 -0.0862
  966MOL0     H30347   7.690  10.552   9.461 -0.7817  0.0760  2.2941
  966MOL0     H30348   7.637  10.602   9.297  3.4063 -1.6673  1.1917
  966MOL0     H30349   7.607  10.841   9.384  3.2422  1.3663 -1.2839
  966MOL0     H30350   7.624  10.766   9.558  0.8574 -3.3471 -0.0757
  966MOL0     H30351   7.859  10.715   9.498 -2.0468 -1.9294 -0.3173
  966MOL0     H30352   7.842  10.777   9.343  0.8949 -0.4070  0.2276
  966MOL0     H30353   7.814  11.001   9.420  0.7801  1.0489 -0.3829
  966MOL0     H30354   7.770  10.943   9.581 -0.4357  0.6744  0.1832
  966MOL0     H30355   7.995  10.851   9.605 -0.1946  1.5297  1.5718
  966MOL0     H30356   8.039  10.897   9.437  0.4469 -0.3925  0.2294
  966MOL0     H30357   8.016  11.139   9.479  0.7817 -0.0080 -0.7818
  966MOL0     H30358   7.954  11.113   9.644  0.1341  3.3499 -0.2542
  966MOL0     H30359   8.186  11.188   9.646  1.5636  0.1719  0.9224
  966MOL0     H30360   8.225  11.048   9.532 -0.9720 -2.3510 -0.4458
  966MOL0     H30361   8.339  10.842   9.637  1.9396  2.1821  0.2344
  966MOL0     H30362   8.448  10.684   9.819  1.0460 -2.5213  0.4634
  966MOL0     H30363   8.415  10.712   9.987  4.0386 -1.1240 -2.0808
  966MOL0     H30364   8.206  10.577   9.811 -0.6659  0.0164  0.1522
  966MOL0     H30365   8.194  10.593   9.980 -2.9384 -2.4735 -1.8158
  966MOL0     H30366   8.279  10.376   9.968  0.4876 -0.1320 -1.5282
  966MOL0     H30367   8.425  10.478   9.999  1.4778  0.2526 -0.3385
  966MOL0     H30368   8.487  10.454   9.747 -2.9894  1.5122 -1.5859
  966MOL0     H30369   8.331  10.372   9.723 -1.0882 -1.8613 -0.3138
  966MOL0     H30370   8.678  10.351   9.733 -2.6255 -0.6406  0.0869
  966MOL0     H30371   8.899  10.434   9.712  0.1912  1.1848  0.2478
  966MOL0     H30372   8.981  10.474   9.858  2.5826 -0.0041 -0.3373
  966MOL0     H30373   9.006  10.316   9.776 -0.1575  1.5614 -0.4207
  966MOL0     H30374   9.090  10.346  10.386  0.1691  0.7013  0.1299
  966MOL0     H30375   9.334  10.334  10.493  0.4516 -1.7274  1.8010
  966MOL0     H30376   9.620  10.028  10.344 -1.4495 -0.8895 -0.1383
  966MOL0     H30377   9.665  10.101  10.505 -1.2803  3.5789  1.0993
  966MOL0     H30378   9.471  10.009  10.606 -2.2257 -0.3761 -1.9453
  966MOL0     H30379   9.433   9.921  10.460  1.9380 -3.4433 -0.3712
  966MOL0     H30380   9.683   9.889  10.628  0.6157 -0.8253 -1.0238
  966MOL0     H30381   9.679   9.823  10.474  1.2210  1.6006  1.5955
  966MOL0     H30382   9.586   9.688  10.689  1.3123  0.9177  0.4479
  966MOL0     H30383   9.428   9.739  10.641  0.4245  0.3978  0.6974
  966MOL0     H30384   9.624   9.612  10.465 -1.7052 -0.8045 -1.6985
  966MOL0     H30385   9.470   9.687  10.403  1.1330  0.4694 -0.4725
  966MOL0     H30386   9.453   9.479  10.616 -1.4891  0.2923  0.2624
  966MOL0     H30387   9.337   9.540  10.498  1.4793  2.4091 -0.4718
  966MOL0     H30388   9.595   9.391  10.441 -0.6628  1.3061  2.6220
  966MOL0     H30389   9.471   9.433  10.318 -0.0285 -0.5700  0.5130
  966MOL0     H30390   9.472   9.199  10.378  0.8701  1.9509 -0.4123
  966MOL0     H30391   9.329   9.272  10.436 -0.0116 -0.0336  0.2653
  966MOL0     H30392   9.413  10.025  10.202  0.1273 -0.1962  0.6135
  966MOL0     H30393   9.180  10.066  10.103  0.6296  1.6917 -1.0830
  966MOL0     H30394   8.757  10.153  10.177 -0.4571  0.3051  1.1658
  966MOL0     H30395   8.533  10.149  10.076 -1.5148 -1.2486 -1.3893
  966MOL0     H30396   7.389  10.248   9.266  0.7821  0.3011  1.1143
  966MOL0     H30397   7.328  10.221   9.034  0.3339  1.0562 -2.0440
  966MOL0     H30398   7.011  10.364   8.703 -1.3195 -2.7264 -1.4470
  966MOL0     H30399   6.918  10.288   8.492  0.3205  0.1836  2.6143
  966MOL0     H30400   6.951  10.192   8.106  2.8839 -1.1567  0.0212
  966MOL0     H30401   6.910  10.155   8.275  3.4030 -1.6836 -0.3439
  966MOL0     H30402   6.838  10.398   8.307 -0.4083 -0.8681  0.2825
  966MOL0     H30403   6.737  10.310   8.206 -0.0555 -0.7258 -0.9278
  966MOL0     H30404   6.861  10.377   8.008  0.6657 -1.6544  0.1387
  966MOL0     H30405   6.965  10.483   8.104  1.0558 -2.5094 -1.5645
  966MOL0     H30406   6.768  10.610   7.983 -1.7290  2.4851  0.3001
  966MOL0     H30407   6.759  10.629   8.156  1.7064 -0.8637 -0.1133
  966MOL0     H30408   6.421  10.392   8.082  0.8588 -2.6280 -2.2424
  966MOL0     H30409   7.292  10.381   8.302 -0.7079 -1.6282 -0.6534
  966MOL0     H30410   7.375  10.468   8.524 -0.2096 -1.4802  0.8683
  967MOL0     O30411   3.080   3.488   4.990 -0.2598 -0.0222  0.6047
  967MOL0     C30412   3.109   3.593   5.049  0.6292  0.0352 -1.6469
  967MOL0     O30413   3.095   3.718   5.002 -0.1074 -0.6726 -0.1357
  967MOL0     C30414   3.052   3.739   4.877  0.8818  0.3329  0.6024
  967MOL0     C30415   2.940   3.831   4.862 -0.2347  0.4781 -0.2290
  967MOL0     C30416   2.892   3.865   4.734 -0.5135  0.8031  0.3724
  967MOL0     C30417   2.948   3.802   4.619  0.6321 -0.1279 -0.1582
  967MOL0     O30418   2.913   3.824   4.489  0.7768  0.0847  0.3616
  967MOL0     C30419   2.818   3.919   4.456  0.1242 -0.0349  0.5810
  967MOL0     C30420   2.838   3.936   4.299 -0.0758 -0.4481  0.1896
  967MOL0     C30421   2.976   3.980   4.240  0.0211 -0.5019 -0.7927
  967MOL0     C30422   3.026   4.119   4.292 -0.4036 -0.5219 -0.4063
  967MOL0     C30423   3.136   4.187   4.206  0.2403  0.5032 -0.1254
  967MOL0     C30424   3.181   4.307   4.285 -0.2800 -0.3552 -0.0467
  967MOL0     C30425   3.267   4.401   4.210  0.8072 -0.5933  0.0711
  967MOL0     C30426   3.259   4.535   4.286 -0.0849 -0.1005  0.4016
  967MOL0     N30427   3.325   4.511   4.413 -0.7160 -0.5036 -1.0376
  967MOL0     C30428   3.452   4.486   4.435 -0.3948  0.7990 -1.2121
  967MOL0     C30429   3.469   4.493   4.572 -0.4564  0.4556  0.2823
  967MOL0     C30430   3.589   4.475   4.654 -0.0890  0.0699  0.0132
  967MOL0     C30431   3.640   4.618   4.683 -0.1346 -0.3441  1.5539
  967MOL0     C30432   3.728   4.671   4.571 -0.3730  0.1225  0.6323
  967MOL0     C30433   3.879   4.670   4.608 -0.5151  0.2124  0.1542
  967MOL0     O30434   3.925   4.535   4.630  0.0216 -0.1102 -0.3453
  967MOL0     C30435   4.008   4.485   4.545  0.5896 -0.0750 -0.2629
  967MOL0     C30436   3.953   4.400   4.450 -0.1220 -0.0599 -0.0999
  967MOL0     C30437   4.030   4.319   4.358 -0.1186  1.0723  0.2343
  967MOL0     C30438   3.945   4.254   4.248  0.3629  0.3929 -0.2054
  967MOL0     C30439   4.167   4.318   4.360 -1.4070 -0.4125  0.2821
  967MOL0     C30440   4.269   4.244   4.281 -0.4496  0.2943  0.9480
  967MOL0     O30441   4.391   4.294   4.264  0.6816 -0.5349  0.4865
  967MOL0     C30442   4.491   4.226   4.197  0.4197 -0.5221 -0.7929
  967MOL0     C30443   4.522   4.088   4.196 -0.9579  0.1105 -0.1625
  967MOL0     C30444   4.627   4.040   4.119  0.6498  1.4610  0.6588
  967MOL0     C30445   4.697   4.131   4.042 -1.3179 -0.2339 -0.3297
  967MOL0     O30446   4.791   4.059   3.963  0.0160 -0.6740  0.0078
  967MOL0     C30447   4.910   4.123   3.939 -0.8986  0.1805  0.4429
  967MOL0     C30448   5.016   4.020   3.924 -0.0347 -0.0336 -0.2691
  967MOL0     C30449   5.019   3.917   4.031  0.3786 -0.0807  0.1956
  967MOL0     C30450   5.154   3.846   4.058  0.4601 -0.1925  0.9587
  967MOL0     C30451   5.235   3.810   3.923  0.3112 -0.6464  0.5127
  967MOL0     C30452   5.349   3.698   3.938  0.2805  0.1169 -0.0395
  967MOL0     C30453   5.421   3.656   3.817 -0.7052  0.1186  0.2770
  967MOL0     C30454   5.552   3.582   3.847  1.1388 -0.2569 -0.2646
  967MOL0    Cl30455   5.522   3.414   3.907 -0.0969  0.2674  0.2969
  967MOL0     C30456   4.677   4.265   4.046  0.9183  0.3411 -0.1326
  967MOL0     C30457   4.570   4.311   4.122  0.7615 -0.1304  0.1300
  967MOL0     O30458   4.234   4.126   4.249 -0.1119  0.0288  0.3257
  967MOL0     C30459   4.224   4.399   4.461 -0.0020  0.2599 -1.1225
  967MOL0     C30460   4.147   4.470   4.562 -0.4974 -0.7682 -0.3006
  967MOL0     N30461   3.350   4.534   4.630  0.1195  0.0591 -0.4171
  967MOL0     N30462   3.275   4.559   4.530  0.7469  0.8951  0.0074
  967MOL0     C30463   3.051   3.716   4.627 -0.4267 -0.2914 -0.3994
  967MOL0     C30464   3.102   3.682   4.759  0.6586 -1.4614  0.2851
  967MOL0     C30465   3.143   3.574   5.192  0.0852  0.0469  0.2243
  967MOL0     C30466   3.171   3.448   5.249  0.3869 -0.0226  0.6848
  967MOL0     C30467   3.215   3.441   5.384 -0.8927  0.2532  0.6614
  967MOL0     C30468   3.224   3.556   5.463  0.5132  0.1362  0.3547
  967MOL0     O30469   3.261   3.548   5.592 -0.2699  1.0026  0.3830
  967MOL0     C30470   3.305   3.669   5.663 -0.1485 -0.4173 -0.1089
  967MOL0     C30471   3.410   3.625   5.761  0.3185  0.4279 -0.5216
  967MOL0     C30472   3.441   3.732   5.867  0.6412  0.9298 -0.6252
  967MOL0     C30473   3.553   3.668   5.964 -0.1916 -0.2391  0.2180
  967MOL0     C30474   3.595   3.789   6.041 -0.2607  0.6581 -0.5839
  967MOL0     C30475   3.631   3.890   6.092 -0.3290  0.3397 -0.7640
  967MOL0     C30476   3.181   3.677   5.400 -0.4074 -0.5855 -0.4185
  967MOL0     C30477   3.144   3.688   5.272  0.9493  0.5724  0.5203
  967MOL0     H30478   2.906   3.876   4.955 -0.6374 -1.2200  0.4851
  967MOL0     H30479   2.807   3.932   4.732 -0.8485  0.3745 -0.8455
  967MOL0     H30480   2.714   3.886   4.466 -1.1318  1.1600 -5.0016
  967MOL0     H30481   2.832   4.014   4.507  0.1702 -0.3799  1.2119
  967MOL0     H30482   2.800   3.844   4.252 -0.9624 -1.1965  2.2419
  967MOL0     H30483   2.765   4.012   4.270 -1.1886 -1.3768  0.4404
  967MOL0     H30484   3.050   3.908   4.278  0.6994  0.0131 -1.1184
  967MOL0     H30485   2.964   3.983   4.132 -5.5891 -1.2498 -0.4679
  967MOL0     H30486   2.942   4.187   4.309  1.0527  0.5726  3.7853
  967MOL0     H30487   3.067   4.104   4.392  1.3646  4.3806 -0.1068
  967MOL0     H30488   3.213   4.110   4.211 -0.7451 -0.4961  0.0688
  967MOL0     H30489   3.095   4.219   4.109 -0.2501  1.8632  0.5024
  967MOL0     H30490   3.087   4.358   4.308 -0.2206 -0.0375 -0.4929
  967MOL0     H30491   3.237   4.276   4.373 -0.2010 -1.3786 -0.4359
  967MOL0     H30492   3.370   4.368   4.200  0.9286  0.2929 -2.0362
  967MOL0     H30493   3.225   4.423   4.111  0.4288  0.8682  0.5249
  967MOL0     H30494   3.154   4.565   4.291 -0.5565 -0.9623 -2.3319
  967MOL0     H30495   3.305   4.611   4.223 -0.0373  0.0461  0.6116
  967MOL0     H30496   3.529   4.456   4.364  0.7080 -2.8699  1.2333
  967MOL0     H30497   3.561   4.425   4.748 -0.3431  1.2474  0.5780
  967MOL0     H30498   3.672   4.425   4.603  1.0498  0.7011  1.1807
  967MOL0     H30499   3.703   4.623   4.773  2.8320 -1.1053 -0.3406
  967MOL0     H30500   3.549   4.678   4.693 -0.9074 -1.3317  0.6102
  967MOL0     H30501   3.709   4.772   4.534  2.3234 -0.1528 -1.8797
  967MOL0     H30502   3.716   4.610   4.481  0.9537  0.0010  0.5170
  967MOL0     H30503   3.886   4.736   4.695 -1.4870 -0.8285  1.0478
  967MOL0     H30504   3.927   4.719   4.523  2.4180  1.4239  2.3465
  967MOL0     H30505   3.844   4.404   4.440 -0.6134  3.0816  3.9669
  967MOL0     H30506   3.896   4.167   4.294  5.1756 -1.5401  1.8549
  967MOL0     H30507   3.865   4.320   4.213  1.4412  2.2565  0.7391
  967MOL0     H30508   4.013   4.222   4.168  1.2165  1.5593  0.0361
  967MOL0     H30509   4.461   4.015   4.248 -1.1126 -1.0448 -1.8850
  967MOL0     H30510   4.646   3.933   4.121  0.1779  1.3309 -0.6854
  967MOL0     H30511   4.902   4.186   3.849 -1.7735  0.2550  0.5634
  967MOL0     H30512   4.938   4.186   4.024  1.9597  1.3324 -1.2101
  967MOL0     H30513   5.000   3.979   3.824 -0.1568 -0.5826 -0.0273
  967MOL0     H30514   5.111   4.074   3.935  1.0239 -2.3265  5.7782
  967MOL0     H30515   4.943   3.839   4.018 -0.7476  0.5968  2.3338
  967MOL0     H30516   4.989   3.956   4.129 -0.0373 -1.2271  0.5433
  967MOL0     H30517   5.216   3.906   4.125  0.6216 -1.8229  2.3370
  967MOL0     H30518   5.134   3.751   4.109 -0.3830  0.3776  1.7115
  967MOL0     H30519   5.270   3.899   3.870  1.8820 -1.7598 -0.4068
  967MOL0     H30520   5.157   3.773   3.857  0.0090 -0.8123  0.9620
  967MOL0     H30521   5.416   3.740   4.013 -1.1451  0.1667  1.2441
  967MOL0     H30522   5.306   3.608   3.982 -0.5466  1.1231  1.2760
  967MOL0     H30523   5.439   3.747   3.758 -3.3204  0.9265  0.5738
  967MOL0     H30524   5.350   3.588   3.770  1.6068 -1.9781 -0.4125
  967MOL0     H30525   5.611   3.637   3.921 -2.6595  1.5070  1.7542
  967MOL0     H30526   5.611   3.572   3.756  0.7533  2.3769 -0.8850
  967MOL0     H30527   4.755   4.325   4.001 -0.6432  1.2601 -1.7271
  967MOL0     H30528   4.560   4.419   4.134  1.1990 -0.2681  2.0565
  967MOL0     H30529   4.332   4.403   4.456  0.2636 -2.6286  0.4875
  967MOL0     H30530   4.204   4.519   4.641 -0.3876 -1.2410 -0.0850
  967MOL0     H30531   3.104   3.675   4.542 -0.6492 -0.6603 -0.3593
  967MOL0     H30532   3.192   3.624   4.776  0.7099 -1.2781  0.6490
  967MOL0     H30533   3.163   3.358   5.190 -1.6841  1.2290 -1.1057
  967MOL0     H30534   3.253   3.346   5.420 -2.8383 -0.7135  0.3084
  967MOL0     H30535   3.353   3.747   5.604 -5.1933  3.3730  0.1331
  967MOL0     H30536   3.218   3.710   5.715 -1.4950 -1.4236 -1.4425
  967MOL0     H30537   3.500   3.596   5.707 -0.5778  3.4003 -4.0695
  967MOL0     H30538   3.371   3.533   5.805  0.8510 -0.2475 -1.4425
  967MOL0     H30539   3.354   3.743   5.933 -0.4795  2.6859 -2.2818
  967MOL0     H30540   3.482   3.817   5.811  2.2255 -0.2048 -1.2668
  967MOL0     H30541   3.638   3.617   5.917 -0.4401  0.3618 -0.9169
  967MOL0     H30542   3.504   3.600   6.034 -5.3220  0.8487 -1.8787
  967MOL0     H30543   3.676   3.977   6.136 -0.1437 -0.0747 -0.1141
  967MOL0     H30544   3.191   3.774   5.447 -0.6135 -1.3241  1.2384
  967MOL0     H30545   3.116   3.787   5.238 -3.6208 -0.7446 -0.2270
  968MOL0     O30546   5.969   2.596   6.894  0.5743  0.0938  0.2499
  968MOL0     C30547   6.072   2.629   6.949 -0.9804  0.2614  0.2722
  968MOL0     O30548   6.130   2.750   6.948  0.1943  0.2671  0.0875
  968MOL0     C30549   6.064   2.866   6.921  0.4323 -0.3197  0.6772
  968MOL0     C30550   5.925   2.883   6.922 -0.4164  0.5687  0.2910
  968MOL0     C30551   5.865   3.012   6.910  0.2845 -0.5606 -0.0052
  968MOL0     C30552   5.948   3.127   6.908 -0.0902  0.3293  0.1607
  968MOL0     O30553   5.902   3.247   6.888  0.6891  0.5398  0.0614
  968MOL0     C30554   5.938   3.346   6.980  1.0381 -0.7631 -0.6998
  968MOL0     C30555   5.830   3.456   6.989  0.0874 -0.1561 -0.3090
  968MOL0     C30556   5.693   3.390   6.988 -0.0565 -0.4572 -0.4127
  968MOL0     C30557   5.601   3.514   6.995 -0.5736  0.0323 -0.7347
  968MOL0     C30558   5.457   3.475   6.960  0.4719 -0.8163  0.0458
  968MOL0     C30559   5.380   3.605   6.965 -0.2161 -0.3928  0.0122
  968MOL0     C30560   5.251   3.592   6.891  0.1198  1.0704 -0.0020
  968MOL0     C30561   5.141   3.690   6.936  0.0210 -0.3293  0.6856
  968MOL0     N30562   5.008   3.667   6.864  0.3807  0.6431 -0.0617
  968MOL0     C30563   4.993   3.684   6.727  1.1117  0.4328 -0.2331
  968MOL0     C30564   4.861   3.673   6.705  0.5453  0.4095 -0.1953
  968MOL0     C30565   4.794   3.685   6.575 -0.4708 -0.1198  0.3336
  968MOL0     C30566   4.701   3.796   6.549 -0.7630  0.2066 -0.0853
  968MOL0     C30567   4.787   3.918   6.514 -0.5871  0.5222  0.0562
  968MOL0     C30568   4.704   4.049   6.525  0.1503  0.1065  1.1533
  968MOL0     O30569   4.569   4.020   6.479  0.4168 -0.3582  0.5423
  968MOL0     C30570   4.545   4.034   6.339 -0.8624  0.3247  0.9266
  968MOL0     C30571   4.414   4.031   6.292 -0.3021  1.0228  0.5085
  968MOL0     C30572   4.379   4.055   6.157 -0.3911  0.8776  0.6675
  968MOL0     C30573   4.230   4.054   6.121  0.4126  0.4993  0.6005
  968MOL0     C30574   4.487   4.064   6.064  0.5404  0.7719  0.6086
  968MOL0     C30575   4.462   4.087   5.911 -0.1811 -0.3928  0.7816
  968MOL0     O30576   4.342   4.049   5.856 -0.4794  0.1280  1.5378
  968MOL0     C30577   4.333   3.998   5.722 -1.0381 -0.3747  0.1017
  968MOL0     C30578   4.443   3.953   5.644  0.4461 -0.3706  0.2891
  968MOL0     C30579   4.412   3.928   5.509 -0.4510 -0.4275  1.0862
  968MOL0     C30580   4.276   3.941   5.459  0.7979  0.3752  0.1567
  968MOL0     O30581   4.258   3.900   5.331  0.7792  0.2209  0.4819
  968MOL0     C30582   4.222   4.002   5.232 -0.8568  0.5977  0.1964
  968MOL0     C30583   4.186   3.937   5.099 -0.2771 -0.4403 -0.8481
  968MOL0     C30584   4.305   3.861   5.036 -0.7869 -0.2192  0.6173
  968MOL0     C30585   4.268   3.795   4.902  0.0863 -0.9297 -0.2603
  968MOL0     C30586   4.370   3.698   4.851  0.1789 -0.4343  0.2405
  968MOL0     C30587   4.503   3.753   4.805 -0.4947  0.3286 -0.4822
  968MOL0     C30588   4.602   3.637   4.826 -0.7128  0.0881 -0.7102
  968MOL0     C30589   4.746   3.687   4.812 -0.2269  0.2690  0.7617
  968MOL0    Cl30590   4.806   3.799   4.950 -0.2803 -0.2615 -0.1492
  968MOL0     C30591   4.169   3.967   5.543 -0.8342 -1.0754  0.0926
  968MOL0     C30592   4.198   4.004   5.674 -0.1044  0.3249 -0.2459
  968MOL0     O30593   4.541   4.163   5.855 -0.2563  0.6946  0.1898
  968MOL0     C30594   4.623   4.070   6.107  0.6313 -0.4196  0.3084
  968MOL0     C30595   4.651   4.052   6.246 -0.4918  0.7615 -0.4007
  968MOL0     N30596   4.795   3.642   6.831  0.3968  0.4310  1.1109
  968MOL0     N30597   4.881   3.653   6.921 -0.6750 -0.0642 -0.0652
  968MOL0     C30598   6.082   3.107   6.906 -0.2028 -0.2180 -0.0131
  968MOL0     C30599   6.144   2.981   6.909  0.3016  0.1427 -0.7666
  968MOL0     C30600   6.152   2.530   7.031  0.8100 -0.0145 -0.0847
  968MOL0     C30601   6.285   2.551   7.072  0.2675 -0.8338 -0.1044
  968MOL0     C30602   6.353   2.460   7.160 -0.2536 -0.0971 -0.3438
  968MOL0     C30603   6.279   2.353   7.208 -0.6484  0.0183  0.0905
  968MOL0     O30604   6.349   2.269   7.290  0.0502 -0.2466 -0.1445
  968MOL0     C30605   6.291   2.162   7.362 -0.3971 -0.6984  0.1028
  968MOL0     C30606   6.385   2.102   7.462  0.0382  0.5496 -0.2375
  968MOL0     C30607   6.478   2.205   7.524 -0.0026  0.5528 -0.4915
  968MOL0     C30608   6.561   2.163   7.647  0.3366 -0.8815  0.1009
  968MOL0     C30609   6.607   2.278   7.728 -0.4524  0.4611  1.6184
  968MOL0     C30610   6.651   2.372   7.788  0.2416 -0.3172  0.3087
  968MOL0     C30611   6.136   2.333   7.183 -0.1720 -0.0591  0.9319
  968MOL0     C30612   6.082   2.416   7.082 -0.2328  0.3007  0.0772
  968MOL0     H30613   5.857   2.800   6.943 -0.7390  0.5284 -0.8554
  968MOL0     H30614   5.758   3.027   6.919  0.6427  3.0851 -0.3894
  968MOL0     H30615   5.950   3.302   7.080 -1.2129 -0.4542 -0.2511
  968MOL0     H30616   6.035   3.382   6.945  0.7766 -0.3913 -1.0458
  968MOL0     H30617   5.845   3.521   7.076 -2.2105  0.8090 -0.5600
  968MOL0     H30618   5.854   3.524   6.907  1.3361 -0.8303 -0.5276
  968MOL0     H30619   5.668   3.338   6.895  1.8356  1.1013 -1.8885
  968MOL0     H30620   5.676   3.329   7.077  3.9227 -2.3967 -0.7282
  968MOL0     H30621   5.593   3.551   7.097 -0.0726 -4.2858  1.0530
  968MOL0     H30622   5.648   3.582   6.922  1.5522  0.5960  1.0476
  968MOL0     H30623   5.438   3.416   6.870  0.3487 -0.6155 -0.0592
  968MOL0     H30624   5.417   3.407   7.035 -0.4757  0.2550  0.5329
  968MOL0     H30625   5.360   3.643   7.065 -0.5393  2.6793 -1.1331
  968MOL0     H30626   5.436   3.681   6.909 -0.6957  0.6971  0.9878
  968MOL0     H30627   5.279   3.608   6.786  0.8443 -0.0501 -0.0008
  968MOL0     H30628   5.213   3.490   6.895 -0.4492  1.3219  1.2568
  968MOL0     H30629   5.160   3.795   6.914 -1.8708  0.1284  1.0419
  968MOL0     H30630   5.137   3.668   7.043 -2.4319 -1.8515  0.3652
  968MOL0     H30631   5.074   3.696   6.656  1.8012 -1.9297  0.0750
  968MOL0     H30632   4.867   3.676   6.494 -2.3872 -2.5301 -1.2879
  968MOL0     H30633   4.724   3.601   6.576 -0.7580  0.1258  0.9731
  968MOL0     H30634   4.640   3.814   6.639 -1.8198 -1.1189 -0.5134
  968MOL0     H30635   4.629   3.772   6.470 -0.7570  0.0716 -0.0502
  968MOL0     H30636   4.836   3.912   6.416  0.4785 -1.6465  0.6719
  968MOL0     H30637   4.868   3.926   6.587 -0.8992  0.9311  0.3581
  968MOL0     H30638   4.754   4.131   6.473  0.2854 -1.2676 -0.9810
  968MOL0     H30639   4.698   4.070   6.632  0.2532  0.6186  1.0601
  968MOL0     H30640   4.352   4.012   6.379  2.2678 -1.2583  2.0114
  968MOL0     H30641   4.167   4.064   6.210 -2.6750 -3.7701 -0.7865
  968MOL0     H30642   4.207   4.133   6.049 -1.1339 -1.1294 -0.7860
  968MOL0     H30643   4.214   3.952   6.083 -1.7127  1.5755 -1.6539
  968MOL0     H30644   4.546   3.941   5.677  0.7455 -1.5622 -0.9957
  968MOL0     H30645   4.487   3.914   5.432 -2.3960 -1.1179 -0.7900
  968MOL0     H30646   4.129   4.050   5.265 -1.1352 -1.5908  2.8944
  968MOL0     H30647   4.306   4.071   5.219  1.0644 -1.4778  1.0813
  968MOL0     H30648   4.097   3.874   5.106 -0.5679  0.1761  2.7012
  968MOL0     H30649   4.161   4.020   5.032 -0.6561  0.3073  0.1939
  968MOL0     H30650   4.333   3.776   5.098  0.6837  0.8228  1.4415
  968MOL0     H30651   4.381   3.939   5.027 -1.5676  0.5135  0.1403
  968MOL0     H30652   4.173   3.742   4.916 -0.2426 -0.2181  0.2433
  968MOL0     H30653   4.244   3.873   4.830 -0.4783 -0.8526  0.0121
  968MOL0     H30654   4.321   3.652   4.765 -0.8441  0.2909  0.4234
  968MOL0     H30655   4.379   3.612   4.918 -0.0913 -1.5347 -1.0826
  968MOL0     H30656   4.506   3.791   4.703  1.9937  2.1439  0.1753
  968MOL0     H30657   4.527   3.833   4.876 -3.1092  0.9288 -0.1531
  968MOL0     H30658   4.576   3.548   4.768  0.0118 -1.2156  0.8743
  968MOL0     H30659   4.594   3.602   4.929  0.2995  1.5714 -0.0791
  968MOL0     H30660   4.767   3.742   4.720  2.1352  0.2369  1.2315
  968MOL0     H30661   4.809   3.598   4.815 -0.6431 -0.0423  0.4462
  968MOL0     H30662   4.068   3.957   5.503 -0.4517 -0.2110 -1.1435
  968MOL0     H30663   4.109   4.031   5.730 -1.2467 -0.5693 -1.5760
  968MOL0     H30664   4.700   4.085   6.032 -0.8558  2.7580 -0.7283
  968MOL0     H30665   4.756   4.065   6.272 -0.8194  0.6344  1.0546
  968MOL0     H30666   6.155   3.188   6.908  0.1536 -0.5417  0.2552
  968MOL0     H30667   6.250   2.963   6.924 -0.0277  0.5783  3.1877
  968MOL0     H30668   6.342   2.636   7.039 -2.0273  0.4820 -0.9101
  968MOL0     H30669   6.461   2.473   7.167 -0.3487  0.7864 -0.3049
  968MOL0     H30670   6.220   2.208   7.432  2.1586  1.8402  1.2126
  968MOL0     H30671   6.247   2.083   7.302  0.7808 -1.6535  0.4619
  968MOL0     H30672   6.448   2.029   7.412  0.7002  2.7198 -2.7770
  968MOL0     H30673   6.320   2.061   7.540 -0.4128 -0.0991 -0.9472
  968MOL0     H30674   6.420   2.292   7.557 -1.2348 -0.6108  0.4726
  968MOL0     H30675   6.540   2.233   7.438 -2.1243 -1.3130 -2.7578
  968MOL0     H30676   6.642   2.094   7.622 -0.6141 -1.2388 -2.1962
  968MOL0     H30677   6.497   2.113   7.721 -0.2382  1.4463  1.2609
  968MOL0     H30678   6.677   2.464   7.836 -0.6643  0.7341 -1.1319
  968MOL0     H30679   6.083   2.258   7.242  0.9517 -1.7377 -0.1209
  968MOL0     H30680   5.978   2.400   7.055  0.0854 -1.1836 -0.3700
  969MOL0     O30681   1.863   1.992   9.310  0.0505 -0.2230  0.0875
  969MOL0     C30682   1.927   1.894   9.272 -0.0175 -0.6789  0.4376
  969MOL0     O30683   2.052   1.897   9.222  0.4690  0.0719  0.3733
  969MOL0     C30684   2.141   1.995   9.242  0.8425 -0.9357 -0.5346
  969MOL0     C30685   2.217   2.048   9.136 -0.0715  0.1356 -0.1887
  969MOL0     C30686   2.303   2.150   9.151  0.0242 -0.1814  1.0929
  969MOL0     C30687   2.323   2.211   9.277 -1.2446  0.1003  0.3607
  969MOL0     O30688   2.418   2.312   9.295  0.4395 -0.5045 -0.3316
  969MOL0     C30689   2.393   2.411   9.402 -0.1076 -0.2749 -0.4397
  969MOL0     C30690   2.509   2.418   9.501  0.2878 -0.5573 -0.4167
  969MOL0     C30691   2.515   2.541   9.592  0.3908  0.4781  0.1704
  969MOL0     C30692   2.644   2.567   9.658  0.4120  0.0636 -0.0293
  969MOL0     C30693   2.632   2.699   9.737  0.7431  0.5759 -0.3343
  969MOL0     C30694   2.770   2.764   9.745 -0.1581  0.8296  0.1286
  969MOL0     C30695   2.775   2.900   9.829 -0.2630  0.4309  0.5387
  969MOL0     C30696   2.788   3.025   9.746 -0.0325 -0.7251 -0.1650
  969MOL0     N30697   2.667   3.088   9.697  0.1390  0.2294  0.0537
  969MOL0     C30698   2.633   3.090   9.566  0.4510  1.4437  0.1711
  969MOL0     C30699   2.505   3.137   9.560 -0.2777  0.2541 -0.1691
  969MOL0     C30700   2.431   3.161   9.428  0.7595  0.5283 -0.8975
  969MOL0     C30701   2.473   3.295   9.358 -0.0840  0.9329 -1.2216
  969MOL0     C30702   2.396   3.414   9.415  0.5567 -0.0503 -0.1856
  969MOL0     C30703   2.440   3.536   9.340 -0.1196 -0.3993 -0.0735
  969MOL0     O30704   2.352   3.642   9.324  0.4013 -0.6288  0.4853
  969MOL0     C30705   2.269   3.649   9.212 -0.1915  0.2154 -0.7074
  969MOL0     C30706   2.242   3.542   9.122  0.1369  0.2610  0.1904
  969MOL0     C30707   2.165   3.551   9.008 -0.2458 -0.1540 -0.6994
  969MOL0     C30708   2.172   3.431   8.910  0.4543 -1.0363 -0.0334
  969MOL0     C30709   2.102   3.674   8.986  0.2195  0.2632  0.4745
  969MOL0     C30710   2.007   3.695   8.869  0.1410  0.6364 -0.1210
  969MOL0     O30711   1.943   3.814   8.868 -0.0475 -0.1785 -0.9679
  969MOL0     C30712   1.872   3.848   8.753  0.0862  0.5332 -1.1667
  969MOL0     C30713   1.738   3.815   8.744  0.4354 -0.3351 -0.4768
  969MOL0     C30714   1.651   3.855   8.639  0.1206  0.4775  0.5610
  969MOL0     C30715   1.700   3.917   8.525  0.0028 -0.4071 -0.4781
  969MOL0     O30716   1.633   3.929   8.408  1.3105  0.1744 -0.8296
  969MOL0     C30717   1.499   3.894   8.412 -0.8497  0.0806 -1.0842
  969MOL0     C30718   1.454   3.900   8.264  0.2774  0.1782 -0.3355
  969MOL0     C30719   1.310   3.851   8.253  0.6357  0.5100  0.4835
  969MOL0     C30720   1.240   3.897   8.122  0.0552  0.3198  0.8253
  969MOL0     C30721   1.091   3.860   8.115  0.8407  0.3009  0.5142
  969MOL0     C30722   1.014   3.953   8.203 -0.3626 -0.5652 -0.2699
  969MOL0     C30723   0.870   3.887   8.243  0.1977 -0.5273 -0.4714
  969MOL0     C30724   0.807   3.958   8.362  0.3026  0.3795 -0.4373
  969MOL0    Cl30725   0.746   4.113   8.289 -0.5649  0.4605 -0.3447
  969MOL0     C30726   1.836   3.947   8.529 -0.1308 -0.5303  0.3697
  969MOL0     C30727   1.921   3.920   8.641  0.4716  0.6818  0.5279
  969MOL0     O30728   1.979   3.608   8.785  0.4784 -0.4355  0.2980
  969MOL0     C30729   2.118   3.786   9.077 -0.2179  1.0486  0.8371
  969MOL0     C30730   2.206   3.773   9.183 -0.5980 -0.4542  0.4049
  969MOL0     N30731   2.472   3.160   9.698  0.4920 -0.4105  0.1896
  969MOL0     N30732   2.556   3.106   9.772 -0.7577  0.5197 -0.2391
  969MOL0     C30733   2.260   2.143   9.389 -0.3959  0.5355 -0.6574
  969MOL0     C30734   2.168   2.045   9.370 -0.0108 -0.2746 -0.3366
  969MOL0     C30735   1.854   1.768   9.263 -0.2884 -0.2187  0.0102
  969MOL0     C30736   1.907   1.672   9.169 -0.4291 -0.2983  0.3757
  969MOL0     C30737   1.852   1.542   9.179 -0.6675 -0.4368 -0.2117
  969MOL0     C30738   1.747   1.507   9.259  0.7063  0.0873  0.4980
  969MOL0     O30739   1.700   1.371   9.265 -0.0285 -0.1658 -0.0211
  969MOL0     C30740   1.747   1.280   9.164  0.5892  0.3756 -0.5516
  969MOL0     C30741   1.874   1.191   9.200 -0.5094 -0.6542  0.3807
  969MOL0     C30742   1.915   1.100   9.084 -0.4721 -0.2372 -0.1386
  969MOL0     C30743   2.053   1.049   9.098 -0.4372 -0.1193  0.3944
  969MOL0     C30744   2.082   0.938   9.020  0.9126 -0.7797 -0.3331
  969MOL0     C30745   2.098   0.839   8.946  0.1410 -0.7901  0.0162
  969MOL0     C30746   1.686   1.610   9.337 -0.6468  0.0311 -1.0389
  969MOL0     C30747   1.740   1.739   9.342  0.2193  0.1910 -0.7693
  969MOL0     H30748   2.207   2.009   9.035  0.0766 -4.1595  1.2407
  969MOL0     H30749   2.350   2.179   9.057 -3.1772 -0.1895 -0.6444
  969MOL0     H30750   2.385   2.512   9.359 -4.0536  0.6035  1.8640
  969MOL0     H30751   2.297   2.401   9.453  1.4680  0.1740  2.9124
  969MOL0     H30752   2.499   2.330   9.566 -1.4708  0.3026  0.5309
  969MOL0     H30753   2.604   2.416   9.445  0.7094 -0.2834  0.2727
  969MOL0     H30754   2.496   2.631   9.532  1.7633 -0.3992 -1.6986
  969MOL0     H30755   2.435   2.541   9.666  1.2193 -0.2140  1.0904
  969MOL0     H30756   2.666   2.485   9.727  1.5632 -0.7753 -1.3507
  969MOL0     H30757   2.731   2.573   9.592 -0.1043  0.1173 -0.7141
  969MOL0     H30758   2.566   2.776   9.696 -1.8405 -1.0354  0.5846
  969MOL0     H30759   2.582   2.661   9.826  0.3338  0.7316 -0.4930
  969MOL0     H30760   2.833   2.689   9.795  0.7550  0.8974 -0.8994
  969MOL0     H30761   2.804   2.777   9.642  2.8501  2.0892  1.1793
  969MOL0     H30762   2.684   2.898   9.890 -1.3012  2.2218 -0.8408
  969MOL0     H30763   2.869   2.894   9.885 -0.1431 -0.2187  0.2787
  969MOL0     H30764   2.855   2.994   9.666  1.9004  1.5666  0.4202
  969MOL0     H30765   2.846   3.099   9.802  1.5418 -0.9042 -1.4963
  969MOL0     H30766   2.698   3.057   9.485 -0.2804 -1.4621  0.6498
  969MOL0     H30767   2.456   3.074   9.367  1.8841 -0.1037  0.4221
  969MOL0     H30768   2.322   3.162   9.438  0.9401  0.2837  1.7419
  969MOL0     H30769   2.451   3.281   9.251  0.9714  0.5337 -1.4044
  969MOL0     H30770   2.581   3.304   9.377 -0.4463  0.3901  1.4714
  969MOL0     H30771   2.411   3.418   9.523  1.2356  0.3598 -0.2879
  969MOL0     H30772   2.288   3.406   9.397  0.5297  1.1279 -0.6267
  969MOL0     H30773   2.484   3.511   9.243  1.7292  2.9038 -0.2225
  969MOL0     H30774   2.523   3.578   9.397  1.5663 -2.9104 -0.5066
  969MOL0     H30775   2.287   3.444   9.135 -2.4160 -1.0807 -0.4254
  969MOL0     H30776   2.092   3.358   8.923 -1.4216  0.7433 -0.8754
  969MOL0     H30777   2.165   3.456   8.804 -2.0828 -2.4323 -0.2664
  969MOL0     H30778   2.261   3.372   8.934 -1.4423 -2.8302  3.1617
  969MOL0     H30779   1.702   3.751   8.824 -2.5654  3.8110  1.9272
  969MOL0     H30780   1.549   3.823   8.659 -0.7072  2.9312  0.6277
  969MOL0     H30781   1.485   3.793   8.451 -2.3264  0.6141 -0.1533
  969MOL0     H30782   1.445   3.965   8.475  0.6240  2.2423 -2.1332
  969MOL0     H30783   1.450   4.004   8.233 -0.4441  1.6918  4.0586
  969MOL0     H30784   1.525   3.838   8.208 -0.9947 -4.3660  2.5049
  969MOL0     H30785   1.256   3.877   8.344 -0.0535  0.9561 -0.0413
  969MOL0     H30786   1.321   3.742   8.244  1.5397  0.6646 -0.4810
  969MOL0     H30787   1.255   4.002   8.099  0.3326  0.2802  0.8304
  969MOL0     H30788   1.287   3.840   8.041 -0.2835  0.0281  0.8329
  969MOL0     H30789   1.084   3.754   8.144 -0.1577  0.1681 -0.1523
  969MOL0     H30790   1.051   3.870   8.014  1.4098 -0.8088  0.1554
  969MOL0     H30791   1.067   3.969   8.296 -1.0220 -1.4344  0.2696
  969MOL0     H30792   1.009   4.054   8.161  3.4023  0.8129  2.1211
  969MOL0     H30793   0.902   3.791   8.285  1.1201 -0.3643 -0.7785
  969MOL0     H30794   0.809   3.871   8.154 -0.3432 -0.6858 -0.0736
  969MOL0     H30795   0.875   3.970   8.446  0.4293 -0.8801 -0.3334
  969MOL0     H30796   0.722   3.898   8.395  1.1093  0.1159  1.2421
  969MOL0     H30797   1.877   3.994   8.440  1.8594 -1.3086  0.8477
  969MOL0     H30798   2.028   3.942   8.645  0.4796  0.4893  1.7884
  969MOL0     H30799   2.073   3.883   9.057  4.4460  3.2710 -0.2412
  969MOL0     H30800   2.219   3.855   9.253  3.7279 -0.1348 -0.5049
  969MOL0     H30801   2.264   2.176   9.492  1.3007 -1.0850 -0.1417
  969MOL0     H30802   2.098   2.000   9.440 -2.0846 -1.1258 -2.7818
  969MOL0     H30803   1.986   1.691   9.097 -2.1481  1.3263 -1.2309
  969MOL0     H30804   1.900   1.466   9.118 -1.2324  0.7021 -2.1771
  969MOL0     H30805   1.655   1.221   9.169 -0.7474  2.2687 -1.3693
  969MOL0     H30806   1.752   1.333   9.068  1.9124 -0.2354 -0.8450
  969MOL0     H30807   1.867   1.132   9.292 -0.0281 -1.9877 -0.4135
  969MOL0     H30808   1.957   1.260   9.217  0.0930 -0.6767 -2.1857
  969MOL0     H30809   1.917   1.172   9.001 -2.7131  2.5578  2.0040
  969MOL0     H30810   1.841   1.024   9.061 -0.7484  0.2082 -0.7497
  969MOL0     H30811   2.091   1.050   9.200 -2.0512  4.5489  1.2050
  969MOL0     H30812   2.121   1.123   9.055  0.0854  0.3521  1.9688
  969MOL0     H30813   2.103   0.755   8.881 -0.5580  0.6909 -2.0465
  969MOL0     H30814   1.602   1.600   9.406 -0.1946  0.5204 -0.4091
  969MOL0     H30815   1.696   1.815   9.405 -1.9900 -1.3363 -0.3731
  970MOL0     O30816   3.166   5.194   6.876 -0.4095  0.1265  0.1547
  970MOL0     C30817   3.190   5.219   6.991 -0.6536 -0.3992  0.0496
  970MOL0     O30818   3.304   5.166   7.063 -0.5301  1.0683  0.4444
  970MOL0     C30819   3.372   5.061   7.013  0.2636  0.1945  0.5444
  970MOL0     C30820   3.503   5.073   6.963  0.4051 -0.7401 -0.0458
  970MOL0     C30821   3.569   4.960   6.905  0.1324 -0.4089 -0.6208
  970MOL0     C30822   3.502   4.844   6.893 -0.8462  1.0010  1.0071
  970MOL0     O30823   3.560   4.732   6.840  0.3768 -0.2755  0.1166
  970MOL0     C30824   3.690   4.731   6.780  0.2679 -0.4582  0.0323
  970MOL0     C30825   3.706   4.591   6.734 -0.1020 -0.4303 -0.1491
  970MOL0     C30826   3.852   4.560   6.692  0.1079 -0.0842  0.5813
  970MOL0     C30827   3.941   4.499   6.807 -0.8592 -0.4510  0.4839
  970MOL0     C30828   3.986   4.591   6.923 -0.8996 -0.3227 -0.7727
  970MOL0     C30829   4.100   4.538   7.020 -0.3751  0.7108  0.1096
  970MOL0     C30830   4.037   4.418   7.103 -0.6103  0.1598 -0.1401
  970MOL0     C30831   4.151   4.320   7.158 -0.2347  0.0457 -0.3410
  970MOL0     N30832   4.262   4.380   7.222 -0.1714 -0.4319 -0.5914
  970MOL0     C30833   4.378   4.426   7.159  0.6122 -1.1481  0.8778
  970MOL0     C30834   4.442   4.490   7.258  0.0303  0.3753 -0.2445
  970MOL0     C30835   4.580   4.546   7.258 -0.4609 -0.1529 -0.9355
  970MOL0     C30836   4.685   4.448   7.206 -0.2016  1.0362  0.3373
  970MOL0     C30837   4.684   4.311   7.282 -0.5220  0.1042 -0.3494
  970MOL0     C30838   4.736   4.311   7.424 -0.4219  0.2285  1.3649
  970MOL0     O30839   4.886   4.328   7.435 -0.3225 -0.5017  0.2510
  970MOL0     C30840   4.963   4.217   7.420 -0.0888 -0.3680 -0.1314
  970MOL0     C30841   4.920   4.084   7.420 -0.3697  0.2235 -0.3874
  970MOL0     C30842   5.007   3.974   7.394 -0.9033  0.4691 -0.1004
  970MOL0     C30843   4.957   3.833   7.388  0.0286 -0.1425  0.8392
  970MOL0     C30844   5.146   4.001   7.387 -0.6997  0.1388  0.5448
  970MOL0     C30845   5.246   3.904   7.356  0.1075 -1.0603 -0.6406
  970MOL0     O30846   5.348   3.898   7.437  0.1423 -0.0069 -0.1613
  970MOL0     C30847   5.437   3.792   7.441 -1.2550  0.4315  0.5193
  970MOL0     C30848   5.558   3.808   7.502  0.8638  0.2708 -0.9055
  970MOL0     C30849   5.652   3.706   7.516 -0.0109 -1.0062 -0.3909
  970MOL0     C30850   5.626   3.592   7.443  0.0204  1.6013  0.6036
  970MOL0     O30851   5.722   3.501   7.473 -0.8344  0.5858  0.3135
  970MOL0     C30852   5.757   3.386   7.391  0.1826 -0.6651  0.2536
  970MOL0     C30853   5.851   3.294   7.482 -0.2001  0.0592  1.0967
  970MOL0     C30854   5.895   3.170   7.409 -0.1692  0.1050 -0.6891
  970MOL0     C30855   6.035   3.176   7.337  0.8865  0.5679  0.4243
  970MOL0     C30856   6.073   3.039   7.271  0.4549 -0.4979  0.6403
  970MOL0     C30857   6.098   2.916   7.372 -0.0555 -0.0180 -0.1287
  970MOL0     C30858   6.095   2.773   7.304  0.4912  0.7908 -0.4256
  970MOL0     C30859   6.081   2.661   7.408 -0.3772 -0.1811  0.1547
  970MOL0    Cl30860   5.902   2.642   7.453 -0.0941 -0.2529  0.1148
  970MOL0     C30861   5.507   3.559   7.379 -0.7270 -0.3712  0.0038
  970MOL0     C30862   5.411   3.666   7.377 -0.4933 -0.0269 -0.2891
  970MOL0     O30863   5.220   3.832   7.259  0.2321  0.0182  0.0547
  970MOL0     C30864   5.186   4.130   7.410 -0.1540  0.2670 -0.4834
  970MOL0     C30865   5.101   4.236   7.421  0.2875  0.0146 -0.1752
  970MOL0     N30866   4.366   4.488   7.379 -0.2577 -0.4748  0.1265
  970MOL0     N30867   4.254   4.436   7.352 -0.0121  0.1127  0.2253
  970MOL0     C30868   3.366   4.836   6.927 -0.2842  0.2098  0.1922
  970MOL0     C30869   3.303   4.940   6.989  0.4208 -0.8047 -1.0212
  970MOL0     C30870   3.115   5.332   7.056  0.6610  0.3259  0.3558
  970MOL0     C30871   3.038   5.431   6.989 -1.4276  0.2340  0.4859
  970MOL0     C30872   2.964   5.532   7.053 -0.5067 -0.1384  0.4880
  970MOL0     C30873   2.958   5.534   7.190 -0.4252  0.5113  0.4179
  970MOL0     O30874   2.901   5.650   7.236  0.4564 -0.5584  0.2646
  970MOL0     C30875   2.898   5.668   7.377 -0.1147 -0.1161  0.4258
  970MOL0     C30876   2.778   5.598   7.444 -0.4405  0.8355  1.4677
  970MOL0     C30877   2.657   5.688   7.423 -0.0434  0.0119 -0.6460
  970MOL0     C30878   2.533   5.645   7.492  1.5698 -0.0961  0.3003
  970MOL0     C30879   2.426   5.744   7.501 -0.2549  0.0249  0.7879
  970MOL0     C30880   2.336   5.821   7.510  0.6555  0.9205 -0.3327
  970MOL0     C30881   3.014   5.425   7.254  0.0797  0.4896  0.0856
  970MOL0     C30882   3.095   5.330   7.191  0.0270  0.7343 -0.5235
  970MOL0     H30883   3.550   5.171   6.974  0.4864 -0.9159  1.3234
  970MOL0     H30884   3.674   4.967   6.880 -0.1164 -2.4816 -2.6671
  970MOL0     H30885   3.676   4.801   6.698 -3.6296  3.0601  3.2255
  970MOL0     H30886   3.776   4.758   6.842  1.0750 -2.3779 -0.2075
  970MOL0     H30887   3.679   4.518   6.811 -1.7249  0.2461 -0.0314
  970MOL0     H30888   3.638   4.578   6.649 -1.6297 -0.1133  0.9857
  970MOL0     H30889   3.865   4.490   6.609  2.5523  2.6369 -1.5543
  970MOL0     H30890   3.900   4.656   6.670 -0.3220  0.4869  1.9998
  970MOL0     H30891   3.883   4.413   6.842 -1.0268  0.4741  2.6625
  970MOL0     H30892   4.040   4.477   6.767 -0.1931  1.3642  1.0340
  970MOL0     H30893   4.040   4.677   6.881  0.9380 -0.3311  1.3921
  970MOL0     H30894   3.903   4.629   6.982  1.9505  0.3943  3.1969
  970MOL0     H30895   4.189   4.513   6.962  0.3292  1.8688  0.6665
  970MOL0     H30896   4.134   4.616   7.089  0.6452  0.4384 -0.0716
  970MOL0     H30897   3.989   4.459   7.193  3.0032 -2.2930  3.2796
  970MOL0     H30898   3.958   4.361   7.055 -2.1358  1.4768  0.6857
  970MOL0     H30899   4.189   4.254   7.080 -3.7890  1.4205 -3.5804
  970MOL0     H30900   4.108   4.243   7.223  1.8252 -0.3158  0.6978
  970MOL0     H30901   4.412   4.402   7.058  0.8012 -2.7141  1.2943
  970MOL0     H30902   4.577   4.632   7.190  0.4776 -0.0212 -0.8123
  970MOL0     H30903   4.602   4.572   7.362 -1.3056 -1.2348 -0.4612
  970MOL0     H30904   4.782   4.500   7.204 -0.3020  1.2126  0.0009
  970MOL0     H30905   4.653   4.418   7.106 -0.1741 -0.7292  0.8188
  970MOL0     H30906   4.731   4.240   7.214  1.2280  0.2141  0.6962
  970MOL0     H30907   4.577   4.290   7.292 -0.4255  0.1502  1.0197
  970MOL0     H30908   4.688   4.232   7.483 -1.0738  1.5326  2.6441
  970MOL0     H30909   4.704   4.398   7.482  1.0537  1.1553  0.8433
  970MOL0     H30910   4.815   4.065   7.440 -0.7891  0.9924 -1.7447
  970MOL0     H30911   5.025   3.752   7.418  0.1159 -0.6394 -0.5970
  970MOL0     H30912   4.880   3.823   7.465 -0.1285  0.0976  0.7126
  970MOL0     H30913   4.932   3.806   7.285  1.6178  3.2581 -0.5526
  970MOL0     H30914   5.584   3.898   7.556  1.7204 -0.2427 -0.4321
  970MOL0     H30915   5.747   3.720   7.566 -0.6185  1.3092  0.2413
  970MOL0     H30916   5.678   3.325   7.347  1.8629 -1.2508 -2.1646
  970MOL0     H30917   5.814   3.422   7.305  1.3212  1.7160  1.9025
  970MOL0     H30918   5.947   3.334   7.515 -0.9969 -0.7653  4.9377
  970MOL0     H30919   5.793   3.269   7.572  2.3338  0.3506  2.9158
  970MOL0     H30920   5.823   3.142   7.332 -1.7669 -2.0288  1.4060
  970MOL0     H30921   5.898   3.089   7.483  1.2140  0.0840 -0.7474
  970MOL0     H30922   6.034   3.260   7.268  0.6080  0.2902  0.0878
  970MOL0     H30923   6.112   3.202   7.410  0.7623  1.3945  0.2643
  970MOL0     H30924   6.160   3.067   7.210 -1.1198  3.1675 -0.1818
  970MOL0     H30925   5.991   3.011   7.205 -1.1399  1.5337  1.6411
  970MOL0     H30926   6.193   2.926   7.424  0.3084 -1.1668 -0.5562
  970MOL0     H30927   6.020   2.915   7.448  1.1313 -1.0167  1.1164
  970MOL0     H30928   6.190   2.772   7.250  0.2614  2.7576 -0.9388
  970MOL0     H30929   6.011   2.752   7.237  0.4886 -0.4440 -0.0473
  970MOL0     H30930   6.146   2.681   7.494 -0.7672 -1.4129  0.7561
  970MOL0     H30931   6.105   2.569   7.355 -0.3117 -0.7948  1.2303
  970MOL0     H30932   5.476   3.465   7.336  2.3699 -1.3194 -0.3871
  970MOL0     H30933   5.328   3.631   7.315  0.8870 -3.4997 -0.4276
  970MOL0     H30934   5.290   4.158   7.425 -0.3147  2.0592 -2.3117
  970MOL0     H30935   5.132   4.338   7.441 -2.0104  1.0567 -1.5251
  970MOL0     H30936   3.302   4.757   6.889  0.9986  0.1626 -2.0632
  970MOL0     H30937   3.213   4.938   7.049  2.1162 -3.6965  1.7061
  970MOL0     H30938   3.048   5.426   6.881 -2.7887 -1.0253  0.3866
  970MOL0     H30939   2.927   5.613   6.991 -1.1846 -1.7953 -1.3637
  970MOL0     H30940   2.987   5.621   7.420 -0.2492 -1.3379 -0.5710
  970MOL0     H30941   2.903   5.776   7.395  1.0910 -0.3573  1.7557
  970MOL0     H30942   2.809   5.574   7.546 -1.8998 -1.1918  1.5023
  970MOL0     H30943   2.758   5.502   7.395 -0.7861  1.0749  1.1305
  970MOL0     H30944   2.638   5.699   7.316 -0.7513 -1.5951 -0.7004
  970MOL0     H30945   2.692   5.785   7.460  0.3795 -0.4088  0.0799
  970MOL0     H30946   2.557   5.627   7.597 -0.5644  1.1321  1.0753
  970MOL0     H30947   2.497   5.554   7.442  0.0101  0.4214  0.4214
  970MOL0     H30948   2.241   5.870   7.523 -0.5117 -1.8656  3.2092
  970MOL0     H30949   2.992   5.410   7.359 -0.5091 -0.7857 -0.1988
  970MOL0     H30950   3.138   5.247   7.246 -0.8078 -0.5328 -1.6893
  971MOL0     O30951  10.761   2.510  10.467 -0.5654  0.2923  0.2683
  971MOL0     C30952  10.789   2.438  10.367 -0.2197 -0.6199 -0.5116
  971MOL0     O30953  10.696   2.363  10.293  0.1440  0.2337  0.5648
  971MOL0     C30954  10.573   2.337  10.359 -0.1421  0.2932  0.1128
  971MOL0     C30955  10.462   2.325  10.276  0.2353  0.7534  0.6496
  971MOL0     C30956  10.335   2.316  10.336  0.6409 -0.0050 -0.7762
  971MOL0     C30957  10.311   2.304  10.476  0.6628  0.6988 -0.5019
  971MOL0     O30958  10.180   2.280  10.518  0.1677 -0.2311  0.6385
  971MOL0     C30959  10.139   2.255  10.652  0.6033  0.5142 -0.0372
  971MOL0     C30960   9.988   2.236  10.662  1.3758 -0.8052 -0.4430
  971MOL0     C30961   9.947   2.205  10.809 -0.0736 -0.5767 -0.0690
  971MOL0     C30962   9.796   2.169  10.812 -0.8863  0.0156 -0.4719
  971MOL0     C30963   9.757   2.115  10.947 -0.2113 -0.0047 -0.3003
  971MOL0     C30964   9.609   2.092  10.935  0.1940  0.4227 -1.1075
  971MOL0     C30965   9.562   2.034  11.075  0.6095  0.4862  0.8750
  971MOL0     C30966   9.451   1.929  11.054 -0.0720  0.4208 -0.8928
  971MOL0     N30967   9.416   1.859  11.179 -0.0244 -0.2246 -0.0300
  971MOL0     C30968   9.411   1.919  11.298  0.3494  0.6728 -0.0686
  971MOL0     C30969   9.365   1.819  11.382 -0.8157 -0.7507  0.6379
  971MOL0     C30970   9.331   1.831  11.526 -0.6673 -0.3025  0.2515
  971MOL0     C30971   9.223   1.738  11.588 -0.8710 -0.2386 -0.3567
  971MOL0     C30972   9.278   1.602  11.627 -0.8169  0.4300  0.6678
  971MOL0     C30973   9.355   1.603  11.764 -0.0938 -0.0095 -0.6896
  971MOL0     O30974   9.264   1.605  11.869 -0.7406  0.1661  0.0637
  971MOL0     C30975   9.241   1.497  11.953  0.3164  0.4778 -0.1429
  971MOL0     C30976   9.155   1.513  12.056  0.4294  0.6375  0.5400
  971MOL0     C30977   9.126   1.410  12.149  0.6301  0.0165  0.1440
  971MOL0     C30978   9.034   1.451  12.266  0.0150 -0.2111 -0.3346
  971MOL0     C30979   9.191   1.294  12.142 -0.8931 -0.4714 -0.0646
  971MOL0     C30980   9.183   1.179  12.231 -0.7130 -0.1088  0.0943
  971MOL0     O30981   9.070   1.167  12.301 -0.0445 -0.2037 -0.1149
  971MOL0     C30982   9.068   1.046  12.373  1.1168 -0.2153  0.4711
  971MOL0     C30983   8.965   0.955  12.343  0.1904  0.3372  0.0990
  971MOL0     C30984   8.964   0.827  12.399  0.2265 -0.2068  0.6247
  971MOL0     C30985   9.044   0.795  12.503 -0.0215 -0.4607 -0.7640
  971MOL0     O30986   9.020   0.677  12.566 -0.3586  0.2294 -0.6950
  971MOL0     C30987   9.115   0.641  12.674 -0.1310 -0.8210 -0.1711
  971MOL0     C30988   9.252   0.596  12.626  0.1563 -0.4078 -1.2778
  971MOL0     C30989   9.329   0.516  12.737 -0.7191 -0.4632  0.0468
  971MOL0     C30990   9.481   0.498  12.706  0.1545 -0.3708  0.4107
  971MOL0     C30991   9.548   0.414  12.809  0.4298  0.9486  0.2811
  971MOL0     C30992   9.509   0.264  12.802 -0.0159 -0.0112  0.7461
  971MOL0     C30993   9.637   0.169  12.841 -0.1358  0.0308  0.2820
  971MOL0     C30994   9.714   0.209  12.966 -0.4728  0.5605 -0.2352
  971MOL0    Cl30995   9.618   0.252  13.107  0.3372  0.1646 -0.1571
  971MOL0     C30996   9.143   0.891  12.547 -0.1972 -0.0390 -0.0150
  971MOL0     C30997   9.162   1.011  12.482  0.1079 -1.0199  1.4154
  971MOL0     O30998   9.272   1.096  12.219 -0.3458 -0.1551  0.0140
  971MOL0     C30999   9.279   1.270  12.029  0.2456 -0.7562 -0.7547
  971MOL0     C31000   9.303   1.370  11.939  1.4604  0.1447  0.2956
  971MOL0     N31001   9.342   1.709  11.304 -0.2827 -0.8100  0.0819
  971MOL0     N31002   9.370   1.736  11.182 -0.1053 -0.3618 -0.2386
  971MOL0     C31003  10.427   2.304  10.558 -0.1447  0.6188  0.5260
  971MOL0     C31004  10.555   2.321  10.499  0.8243 -0.7682  0.3622
  971MOL0     C31005  10.921   2.435  10.304 -0.4004 -0.1419  0.6931
  971MOL0     C31006  11.028   2.474  10.384 -0.7497  0.2758 -0.3909
  971MOL0     C31007  11.159   2.446  10.333 -0.2526  0.0079 -0.7714
  971MOL0     C31008  11.185   2.394  10.213  0.7670 -0.0300 -0.5704
  971MOL0     O31009  11.297   2.341  10.166 -0.4306  0.4664 -0.4622
  971MOL0     C31010  11.418   2.347  10.232 -0.8404  0.6203 -0.8335
  971MOL0     C31011  11.433   2.230  10.335 -0.6706 -0.8709  0.5401
  971MOL0     C31012  11.407   2.090  10.270  0.6443  0.8749  0.0411
  971MOL0     C31013  11.381   1.961  10.363  0.7316 -0.5040  0.5757
  971MOL0     C31014  11.482   1.939  10.456 -0.2360  0.0686  0.1391
  971MOL0     C31015  11.550   1.918  10.557  0.3424  1.2125  0.2163
  971MOL0     C31016  11.077   2.353  10.138  0.2152  0.8871 -0.2651
  971MOL0     C31017  10.948   2.378  10.179  0.0976 -0.8309  0.4134
  971MOL0     H31018  10.486   2.332  10.170  1.0832 -1.0338  0.6799
  971MOL0     H31019  10.248   2.322  10.272 -1.1210 -2.5088  1.1662
  971MOL0     H31020  10.199   2.174  10.692  0.9466 -0.6291 -2.6456
  971MOL0     H31021  10.165   2.345  10.709  1.2086  3.3444 -4.3222
  971MOL0     H31022   9.932   2.319  10.619  0.4785 -0.9286  0.4310
  971MOL0     H31023   9.962   2.159  10.590 -4.2254 -1.5794  1.9042
  971MOL0     H31024  10.012   2.132  10.859  3.0307  0.3400 -2.4954
  971MOL0     H31025   9.966   2.296  10.867  2.4677 -0.5184 -0.8998
  971MOL0     H31026   9.741   2.260  10.786 -0.3177  0.6663  0.5526
  971MOL0     H31027   9.784   2.091  10.736 -0.2590 -2.6375  1.9801
  971MOL0     H31028   9.817   2.028  10.974  1.8045  1.0376 -1.2029
  971MOL0     H31029   9.773   2.186  11.028  0.5542 -0.9264  0.3786
  971MOL0     H31030   9.548   2.180  10.913 -0.7920 -0.1874 -0.8750
  971MOL0     H31031   9.578   2.021  10.857 -0.7290 -1.3456  0.7719
  971MOL0     H31032   9.649   1.990  11.124  3.1804  5.3384  1.2566
  971MOL0     H31033   9.535   2.114  11.144 -0.6832 -0.8109  1.9361
  971MOL0     H31034   9.482   1.838  11.001  2.8601  0.8495 -0.0739
  971MOL0     H31035   9.368   1.976  11.002  0.2404  0.3580 -1.4541
  971MOL0     H31036   9.433   2.024  11.318 -3.5623  1.5078  0.7748
  971MOL0     H31037   9.428   1.816  11.575 -0.5610  0.7040  0.3582
  971MOL0     H31038   9.286   1.929  11.546 -2.9406 -1.8255  3.4642
  971MOL0     H31039   9.137   1.719  11.523  0.7283 -3.0724 -1.8158
  971MOL0     H31040   9.175   1.783  11.676 -1.1134 -2.3963  0.6715
  971MOL0     H31041   9.343   1.565  11.547  1.8536  1.9234  2.0296
  971MOL0     H31042   9.191   1.536  11.638 -0.6907 -1.5914 -6.0489
  971MOL0     H31043   9.422   1.688  11.778 -1.4524  0.8365  1.1688
  971MOL0     H31044   9.412   1.510  11.753  0.1683  0.1940 -1.0825
  971MOL0     H31045   9.104   1.607  12.068  0.1237  0.3911  1.1926
  971MOL0     H31046   8.971   1.536  12.238  0.1651  0.3649  1.0209
  971MOL0     H31047   8.959   1.376  12.293 -2.3536  2.6623  1.6702
  971MOL0     H31048   9.095   1.474  12.353 -0.7437  3.4707 -0.6206
  971MOL0     H31049   8.885   0.982  12.275  0.6940 -1.8804 -1.4752
  971MOL0     H31050   8.889   0.756  12.366  1.2438 -1.0381  0.0445
  971MOL0     H31051   9.113   0.722  12.747 -2.3328 -0.4857 -0.5246
  971MOL0     H31052   9.063   0.564  12.732  1.0394 -0.6082  1.1973
  971MOL0     H31053   9.223   0.529  12.545 -0.4912 -1.6707 -0.0506
  971MOL0     H31054   9.306   0.687  12.597  0.6405  1.1158  3.4952
  971MOL0     H31055   9.290   0.417  12.763 -1.2620 -0.1285  0.5182
  971MOL0     H31056   9.315   0.574  12.829 -2.5060 -0.1179 -0.3855
  971MOL0     H31057   9.492   0.464  12.603  0.8709 -0.2150  0.4286
  971MOL0     H31058   9.545   0.587  12.702  2.6362 -1.9803  1.8718
  971MOL0     H31059   9.520   0.444  12.910  1.6411 -3.5199  2.2108
  971MOL0     H31060   9.654   0.428  12.786  0.6995  0.2052  1.0569
  971MOL0     H31061   9.418   0.245  12.860  0.7885 -0.7085  1.8141
  971MOL0     H31062   9.477   0.249  12.698  1.1579  1.3615  0.1588
  971MOL0     H31063   9.713   0.165  12.762  3.0044  2.3511  2.9325
  971MOL0     H31064   9.592   0.072  12.865 -0.3604 -0.0367 -0.3826
  971MOL0     H31065   9.779   0.295  12.950 -2.2440  2.3191  1.5308
  971MOL0     H31066   9.768   0.122  13.005  0.0584  2.1087  2.8702
  971MOL0     H31067   9.214   0.863  12.624  1.5769 -1.2767 -1.9826
  971MOL0     H31068   9.242   1.076  12.515 -1.4760  0.3424  2.7253
  971MOL0     H31069   9.328   1.174  12.015  0.1826 -0.9292  0.1568
  971MOL0     H31070   9.357   1.349  11.847 -0.0297 -3.2568  0.0467
  971MOL0     H31071  10.409   2.303  10.665  4.3826  5.8740  1.7672
  971MOL0     H31072  10.638   2.328  10.568 -0.3925 -1.3573  1.9472
  971MOL0     H31073  11.018   2.534  10.474 -0.8318  2.1287 -1.5802
  971MOL0     H31074  11.246   2.450  10.398  0.2179  0.4959 -1.4283
  971MOL0     H31075  11.503   2.339  10.164  1.3295  2.6152  1.4395
  971MOL0     H31076  11.432   2.444  10.279  3.5573  0.3716 -1.1763
  971MOL0     H31077  11.360   2.237  10.417 -1.2323 -5.5032  0.7128
  971MOL0     H31078  11.530   2.227  10.386 -1.7532  2.4780  3.1886
  971MOL0     H31079  11.496   2.062  10.212 -0.5556 -0.6079 -1.1655
  971MOL0     H31080  11.323   2.105  10.201  0.5303  1.6557  0.3441
  971MOL0     H31081  11.387   1.867  10.307  0.5928  1.1244 -2.3203
  971MOL0     H31082  11.286   1.957  10.418 -0.4182  0.1242 -1.2721
  971MOL0     H31083  11.613   1.891  10.639 -1.3067 -3.0131  0.3298
  971MOL0     H31084  11.083   2.305  10.041 -1.6046 -0.0784  0.0512
  971MOL0     H31085  10.864   2.355  10.114 -0.5442  1.0695  0.4972
  972MOL0     O31086   2.047  11.230  10.823  0.7980  0.4297 -0.5355
  972MOL0     C31087   2.057  11.329  10.896 -0.0531  1.0562  0.4181
  972MOL0     O31088   2.088  11.453  10.852  0.3721 -0.1034 -0.1179
  972MOL0     C31089   2.099  11.464  10.717  0.3406 -0.7716 -0.1892
  972MOL0     C31090   2.222  11.416  10.661  0.3382  0.6366 -0.1072
  972MOL0     C31091   2.257  11.437  10.531 -0.3676 -1.1859 -0.0153
  972MOL0     C31092   2.154  11.480  10.443 -0.0900 -0.4557 -0.1546
  972MOL0     O31093   2.173  11.497  10.305  1.0958  0.0306  0.1473
  972MOL0     C31094   2.298  11.474  10.247 -0.3084 -0.1824 -0.1949
  972MOL0     C31095   2.310  11.522  10.098  0.6033 -0.6544  0.0979
  972MOL0     C31096   2.223  11.435  10.013 -0.3817 -0.1777  0.4862
  972MOL0     C31097   2.231  11.496   9.868  0.1066  0.3618 -0.2656
  972MOL0     C31098   2.123  11.417   9.778 -0.6326 -1.0114  0.0847
  972MOL0     C31099   2.072  11.506   9.667  0.2639 -0.7519 -0.2202
  972MOL0     C31100   1.926  11.561   9.688 -1.1906  0.3390 -0.4712
  972MOL0     C31101   1.934  11.647   9.818  0.3876  0.6265  0.1287
  972MOL0     N31102   1.818  11.746   9.821 -0.4983  0.0995 -0.2989
  972MOL0     C31103   1.692  11.716   9.779  0.0678 -0.5886  0.2521
  972MOL0     C31104   1.626  11.832   9.765 -0.4667  0.4831  0.1918
  972MOL0     C31105   1.486  11.857   9.707 -0.0672  0.3188  0.1662
  972MOL0     C31106   1.413  11.729   9.661 -0.0313  0.6079 -0.6342
  972MOL0     C31107   1.470  11.656   9.536 -0.3493 -0.9607  0.5855
  972MOL0     C31108   1.415  11.517   9.497 -0.3093 -0.1300  0.6794
  972MOL0     O31109   1.525  11.446   9.438  0.1983  0.7641 -0.4845
  972MOL0     C31110   1.507  11.303   9.429  0.0667  0.6312  0.3344
  972MOL0     C31111   1.372  11.242   9.436  0.2580  0.4288  0.7272
  972MOL0     C31112   1.358  11.104   9.404  0.3942  0.8865  0.3843
  972MOL0     C31113   1.211  11.059   9.384  0.1278  0.6419 -0.1579
  972MOL0     C31114   1.465  11.017   9.396 -0.4214 -0.0055 -0.3893
  972MOL0     C31115   1.459  10.867   9.366 -1.1019  0.4884 -0.5966
  972MOL0     O31116   1.359  10.787   9.418  0.1004  0.4836 -0.0361
  972MOL0     C31117   1.346  10.654   9.393 -0.2484  0.3468 -0.2834
  972MOL0     C31118   1.330  10.600   9.269  0.3296 -0.1612 -0.4111
  972MOL0     C31119   1.299  10.468   9.266 -0.1213 -0.2291  0.1763
  972MOL0     C31120   1.291  10.381   9.377 -0.4743  0.2202  0.2560
  972MOL0     O31121   1.259  10.240   9.362  0.2799  0.2751 -0.1368
  972MOL0     C31122   1.202  10.170   9.479 -0.4202 -0.5916  0.1035
  972MOL0     C31123   1.159  10.033   9.438 -0.3817  1.3287 -0.1442
  972MOL0     C31124   1.055   9.974   9.528  0.0414 -0.3368 -0.1158
  972MOL0     C31125   0.911   9.993   9.485  0.2211 -0.9645  0.2353
  972MOL0     C31126   0.829   9.885   9.557 -0.3951 -0.0040 -0.0180
  972MOL0     C31127   0.678   9.928   9.559 -0.1288  0.2395 -0.9337
  972MOL0     C31128   0.579   9.809   9.604 -0.3304 -0.8690 -0.8531
  972MOL0     C31129   0.449   9.864   9.667 -0.1669  0.3676  0.0282
  972MOL0    Cl31130   0.356   9.733   9.722 -0.0068 -0.2272  0.3894
  972MOL0     C31131   1.307  10.437   9.507  0.2107  0.9881 -0.4684
  972MOL0     C31132   1.333  10.570   9.510 -0.3643 -0.2170  0.3395
  972MOL0     O31133   1.553  10.821   9.300 -0.1530  0.8412  0.1533
  972MOL0     C31134   1.597  11.074   9.411 -0.8380 -1.1263  0.4801
  972MOL0     C31135   1.614  11.218   9.414  0.0218  0.4891  0.4964
  972MOL0     N31136   1.714  11.939   9.787  0.1281 -0.1272 -0.4321
  972MOL0     N31137   1.821  11.882   9.832 -0.9684  0.5545 -0.0917
  972MOL0     C31138   2.029  11.528  10.500 -0.4393  0.1317  0.2377
  972MOL0     C31139   1.999  11.519  10.635 -0.2692 -0.8981  0.4754
  972MOL0     C31140   2.045  11.301  11.032 -0.1392  0.3800 -0.7954
  972MOL0     C31141   1.947  11.217  11.083  1.0135 -0.3639 -0.2320
  972MOL0     C31142   1.936  11.199  11.217  0.2325 -1.0683 -0.0007
  972MOL0     C31143   2.014  11.264  11.304  0.2845 -0.3806 -0.4764
  972MOL0     O31144   2.035  11.233  11.437  0.4493  0.0886 -0.4552
  972MOL0     C31145   1.932  11.261  11.532 -0.0808 -0.1246  0.4395
  972MOL0     C31146   1.840  11.146  11.559 -0.6233  0.5848 -0.4366
  972MOL0     C31147   1.702  11.149  11.481 -0.7454 -0.2053  0.1349
  972MOL0     C31148   1.592  11.065  11.551  0.1428  0.0186  0.4500
  972MOL0     C31149   1.455  11.112  11.518 -0.5126 -0.2755 -0.1589
  972MOL0     C31150   1.338  11.129  11.482  0.2288  0.5553 -0.3633
  972MOL0     C31151   2.112  11.353  11.257 -0.5504 -0.2874 -0.2509
  972MOL0     C31152   2.129  11.373  11.122 -0.0591 -0.6817 -0.0147
  972MOL0     H31153   2.294  11.356  10.715  1.6472 -0.1001 -2.5613
  972MOL0     H31154   2.354  11.403  10.496 -1.1424 -4.0985  0.4425
  972MOL0     H31155   2.373  11.522  10.309 -0.4672 -2.0410  1.5520
  972MOL0     H31156   2.323  11.368  10.241  0.0549 -0.1952  1.2578
  972MOL0     H31157   2.274  11.625  10.085 -2.0145 -1.5383 -0.2990
  972MOL0     H31158   2.413  11.514  10.061  0.4986 -2.0548  0.0704
  972MOL0     H31159   2.258  11.332  10.016 -1.1575 -0.4283  1.4835
  972MOL0     H31160   2.122  11.445  10.054 -0.0254  3.0127  0.8481
  972MOL0     H31161   2.198  11.600   9.865 -0.4151  0.2195  0.3545
  972MOL0     H31162   2.335  11.488   9.835  0.7401  0.7912  1.4872
  972MOL0     H31163   2.159  11.320   9.742 -0.2159 -0.8497  0.0524
  972MOL0     H31164   2.042  11.401   9.850 -1.8819  0.6044 -0.9027
  972MOL0     H31165   2.138  11.593   9.659  0.0873 -0.7091 -1.4305
  972MOL0     H31166   2.064  11.450   9.573 -1.1550 -0.2853 -0.4005
  972MOL0     H31167   1.890  11.619   9.603 -2.5041  3.3255  1.9286
  972MOL0     H31168   1.867  11.471   9.706  0.8786 -0.8128  1.0249
  972MOL0     H31169   2.027  11.705   9.827  0.5036  0.3924  0.4662
  972MOL0     H31170   1.924  11.571   9.896  1.2018 -0.6646 -0.9725
  972MOL0     H31171   1.651  11.616   9.771 -0.3290 -0.5344  1.4436
  972MOL0     H31172   1.424  11.904   9.784  2.1141 -1.7617  3.4700
  972MOL0     H31173   1.487  11.930   9.626 -1.1181  1.6836  1.3359
  972MOL0     H31174   1.307  11.753   9.645 -0.5187  0.2612  1.6714
  972MOL0     H31175   1.428  11.663   9.747  1.9955 -1.1017 -2.2005
  972MOL0     H31176   1.574  11.637   9.561 -0.3823 -2.9172 -0.5146
  972MOL0     H31177   1.478  11.729   9.454 -0.2817  1.6937  2.8007
  972MOL0     H31178   1.328  11.526   9.432 -0.9758 -2.4110  1.1634
  972MOL0     H31179   1.384  11.471   9.592  3.2008 -1.4807  1.3481
  972MOL0     H31180   1.286  11.307   9.446 -0.6127 -1.0017  3.5663
  972MOL0     H31181   1.140  11.138   9.359 -0.3063  0.9143  1.7674
  972MOL0     H31182   1.215  10.981   9.308 -2.0722  0.2956  0.0382
  972MOL0     H31183   1.168  11.015   9.474 -1.0750  3.2207  0.6227
  972MOL0     H31184   1.319  10.658   9.178 -4.7560 -0.2637 -0.1654
  972MOL0     H31185   1.270  10.419   9.173 -1.5747 -1.6200  1.2868
  972MOL0     H31186   1.283  10.167   9.552  0.5393  3.2954 -0.5690
  972MOL0     H31187   1.113  10.224   9.512  0.3857 -0.1990  1.7433
  972MOL0     H31188   1.131  10.032   9.332  1.2586  1.6959 -0.6131
  972MOL0     H31189   1.243   9.964   9.447 -1.9450 -0.6747 -0.2891
  972MOL0     H31190   1.078   9.991   9.634 -0.4138 -1.2042  0.1281
  972MOL0     H31191   1.076   9.867   9.522  2.7585  0.1656 -0.9723
  972MOL0     H31192   0.881  10.098   9.500 -0.4879 -0.8618 -1.6160
  972MOL0     H31193   0.906   9.965   9.379  1.2703 -0.0020 -0.0914
  972MOL0     H31194   0.872   9.865   9.656 -1.8378 -0.9620  0.4500
  972MOL0     H31195   0.834   9.794   9.497 -0.7257  1.0218 -1.6494
  972MOL0     H31196   0.658  10.021   9.612  0.1783 -1.4921  2.5410
  972MOL0     H31197   0.667   9.938   9.450  0.7332  0.1823 -1.0310
  972MOL0     H31198   0.625   9.753   9.685 -0.4100  2.3467  1.5935
  972MOL0     H31199   0.551   9.748   9.518 -0.9611 -2.2381  0.2858
  972MOL0     H31200   0.394   9.932   9.601 -0.1703  1.0250  0.7101
  972MOL0     H31201   0.485   9.914   9.757  1.6882 -0.1738 -0.3748
  972MOL0     H31202   1.284  10.383   9.598 -1.2539  2.6739  0.2115
  972MOL0     H31203   1.352  10.611   9.609  3.3333 -2.1792  0.5997
  972MOL0     H31204   1.688  11.016   9.402  2.7937  4.2142 -2.9979
  972MOL0     H31205   1.710  11.269   9.410 -0.9645  2.3429 -0.8790
  972MOL0     H31206   1.951  11.544  10.425  0.4144 -0.5160 -0.8124
  972MOL0     H31207   1.904  11.562  10.665  0.6359 -0.0029  2.2215
  972MOL0     H31208   1.871  11.171  11.020  0.6655  2.6765 -2.2866
  972MOL0     H31209   1.863  11.124  11.244 -0.1479 -0.1699  1.6279
  972MOL0     H31210   1.973  11.294  11.628 -1.9561  1.4204  0.7784
  972MOL0     H31211   1.861  11.341  11.508 -0.5867 -0.3171  1.2295
  972MOL0     H31212   1.814  11.160  11.665 -2.2206  2.0388 -0.9668
  972MOL0     H31213   1.885  11.047  11.553  1.6407  1.5782 -0.6710
  972MOL0     H31214   1.722  11.099  11.386 -0.8311  1.8250 -0.9951
  972MOL0     H31215   1.679  11.254  11.461  2.1416  1.2292  3.3258
  972MOL0     H31216   1.616  11.063  11.658  2.3904 -1.6191 -0.0242
  972MOL0     H31217   1.597  10.962  11.516  2.8022  0.8936 -2.1298
  972MOL0     H31218   1.236  11.132  11.447 -0.2171  1.9685  0.9787
  972MOL0     H31219   2.183  11.391  11.329  2.1195 -0.6938 -2.4730
  972MOL0     H31220   2.213  11.433  11.088 -0.6887  0.3807  0.2916
  973MOL0     O31221   6.811   2.087   3.488 -0.2822  0.5563 -0.4924
  973MOL0     C31222   6.914   2.070   3.551  0.3300 -0.1768  0.0867
  973MOL0     O31223   7.032   2.143   3.543  0.4119  0.6726 -0.1947
  973MOL0     C31224   7.032   2.245   3.450  0.0430 -0.6858  0.5008
  973MOL0     C31225   7.126   2.235   3.348 -0.5110 -0.4260  0.7511
  973MOL0     C31226   7.124   2.322   3.242  0.3647 -0.3942  0.0432
  973MOL0     C31227   7.025   2.421   3.236  0.4403 -0.1247  0.4113
  973MOL0     O31228   7.021   2.501   3.126 -0.4493 -0.1960 -0.5431
  973MOL0     C31229   6.984   2.635   3.137 -0.2549 -0.6230  0.6802
  973MOL0     C31230   6.841   2.658   3.077  0.0728 -0.3934  0.3283
  973MOL0     C31231   6.799   2.564   2.968  0.2670  0.8039 -0.0259
  973MOL0     C31232   6.651   2.582   2.921 -0.0536 -0.3967  0.0820
  973MOL0     C31233   6.609   2.485   2.807 -0.2530 -0.3693 -0.5200
  973MOL0     C31234   6.694   2.506   2.677  0.0674  1.2123 -1.2413
  973MOL0     C31235   6.632   2.421   2.572 -1.1816  1.2929  0.4476
  973MOL0     C31236   6.706   2.405   2.441 -0.2873  0.4923 -0.1457
  973MOL0     N31237   6.709   2.540   2.381  0.1733  0.3439  0.0429
  973MOL0     C31238   6.605   2.597   2.306 -0.3631  0.8622 -0.7356
  973MOL0     C31239   6.642   2.728   2.300  0.7610 -0.4242  1.1084
  973MOL0     C31240   6.564   2.846   2.254  0.0076  0.3804 -0.0426
  973MOL0     C31241   6.452   2.821   2.149  0.1602  0.2850 -0.4477
  973MOL0     C31242   6.349   2.939   2.142 -0.8302 -0.9576 -0.1254
  973MOL0     C31243   6.421   3.079   2.113 -0.0272 -0.5544 -0.7423
  973MOL0     O31244   6.422   3.167   2.229  0.1518 -0.6136  0.0754
  973MOL0     C31245   6.338   3.276   2.220 -0.4066  0.6679 -0.3278
  973MOL0     C31246   6.228   3.278   2.304  1.1027 -0.5319  0.5749
  973MOL0     C31247   6.150   3.390   2.324  0.3438  0.2431 -0.7818
  973MOL0     C31248   6.019   3.378   2.409  0.1519 -0.3027  0.7793
  973MOL0     C31249   6.192   3.508   2.263 -0.2092  0.3920 -0.0674
  973MOL0     C31250   6.128   3.641   2.283 -0.1643 -0.2919 -0.0321
  973MOL0     O31251   6.139   3.739   2.187  0.5169  0.2433  0.0780
  973MOL0     C31252   6.100   3.868   2.209 -0.4578 -0.7594 -0.9214
  973MOL0     C31253   5.979   3.902   2.269 -0.4349  0.8784 -0.0064
  973MOL0     C31254   5.944   4.037   2.285 -0.4001  0.3611  0.3461
  973MOL0     C31255   6.031   4.146   2.250 -0.1044  1.4030  0.2392
  973MOL0     O31256   5.991   4.269   2.280 -0.3754  0.1106  0.1776
  973MOL0     C31257   6.089   4.374   2.258 -1.1018 -0.1073  0.3330
  973MOL0     C31258   6.012   4.502   2.271  0.5089 -0.5439 -0.3048
  973MOL0     C31259   6.066   4.615   2.187 -0.3133  0.8355 -0.0480
  973MOL0     C31260   5.965   4.733   2.199  0.6686  0.5020 -0.2292
  973MOL0     C31261   5.978   4.791   2.340 -0.3035 -0.2629 -0.2982
  973MOL0     C31262   5.962   4.942   2.343 -0.8086  0.5952 -0.7315
  973MOL0     C31263   5.890   4.977   2.473  0.3527 -0.0143  0.2018
  973MOL0     C31264   5.843   5.123   2.473  0.0172 -0.4216 -0.3541
  973MOL0    Cl31265   5.988   5.238   2.473 -0.1179  0.1075 -0.2624
  973MOL0     C31266   6.148   4.106   2.184 -0.4910  0.8759 -0.2017
  973MOL0     C31267   6.178   3.966   2.161 -0.4322 -0.0695 -0.3365
  973MOL0     O31268   6.085   3.660   2.399  0.7163 -0.0534 -0.3535
  973MOL0     C31269   6.303   3.508   2.176  0.2101 -0.0948 -0.1648
  973MOL0     C31270   6.372   3.391   2.158  0.4657 -0.4501  0.1544
  973MOL0     N31271   6.760   2.737   2.358  0.0751 -0.3076  0.4667
  973MOL0     N31272   6.808   2.628   2.397 -0.3100 -0.7108 -0.7809
  973MOL0     C31273   6.933   2.429   3.337 -0.3446  0.0404  0.4505
  973MOL0     C31274   6.938   2.344   3.444  0.3868  0.0114  0.0673
  973MOL0     C31275   6.906   1.953   3.646 -0.7059  0.4772  0.0070
  973MOL0     C31276   6.790   1.882   3.672  0.4088 -0.5284 -0.3508
  973MOL0     C31277   6.790   1.771   3.761 -0.6949  0.2522  0.5039
  973MOL0     C31278   6.912   1.715   3.808  0.5722  0.6754  0.9502
  973MOL0     O31279   6.912   1.590   3.870  0.5157 -0.3254 -0.8174
  973MOL0     C31280   6.885   1.479   3.790  0.0399 -0.1050  0.2371
  973MOL0     C31281   6.953   1.349   3.830  0.7185  0.3081 -0.3797
  973MOL0     C31282   6.874   1.291   3.953  1.1148  0.1916  0.9229
  973MOL0     C31283   6.937   1.169   4.007  0.1817  0.1375 -0.0765
  973MOL0     C31284   6.900   1.040   3.945  1.0555  0.1075 -1.0183
  973MOL0     C31285   6.857   0.933   3.906 -1.3603 -1.2772  0.2409
  973MOL0     C31286   7.036   1.780   3.771 -0.6053  0.5135  0.5010
  973MOL0     C31287   7.031   1.897   3.690  1.0051  0.3130 -0.5572
  973MOL0     H31288   7.197   2.154   3.342 -0.2982 -0.3204  1.7259
  973MOL0     H31289   7.193   2.307   3.159 -0.6373 -0.2634 -0.8376
  973MOL0     H31290   6.980   2.684   3.234 -0.8077 -1.8473  1.2926
  973MOL0     H31291   7.062   2.687   3.080 -1.3065  1.9029  1.3850
  973MOL0     H31292   6.766   2.656   3.156  1.4855 -1.2259  1.6977
  973MOL0     H31293   6.835   2.755   3.027  1.1539 -1.6598 -2.4769
  973MOL0     H31294   6.857   2.581   2.876 -3.2012 -0.6288 -2.7207
  973MOL0     H31295   6.814   2.460   2.998  2.3930  0.5636 -1.6576
  973MOL0     H31296   6.584   2.560   3.005  1.4314 -1.4433  1.0524
  973MOL0     H31297   6.632   2.688   2.903 -3.1123 -0.3678  2.6220
  973MOL0     H31298   6.634   2.385   2.845  0.5784 -0.5708 -1.5484
  973MOL0     H31299   6.504   2.480   2.780  0.1322 -0.1525 -2.1524
  973MOL0     H31300   6.696   2.614   2.663  0.4244  1.2871 -0.6346
  973MOL0     H31301   6.799   2.482   2.696 -0.4487  0.2525  0.6818
  973MOL0     H31302   6.621   2.321   2.614 -1.1495  0.8840 -0.5149
  973MOL0     H31303   6.533   2.465   2.555 -1.5213  1.1862  2.0016
  973MOL0     H31304   6.653   2.337   2.374  0.1676 -0.0944  0.0734
  973MOL0     H31305   6.809   2.368   2.454 -1.3302 -1.5980  3.6009
  973MOL0     H31306   6.519   2.538   2.275  0.0820 -0.8295  1.0517
  973MOL0     H31307   6.526   2.904   2.338 -2.6957  1.0713 -1.6074
  973MOL0     H31308   6.629   2.909   2.192 -0.9901 -2.6184 -4.7130
  973MOL0     H31309   6.392   2.739   2.190  1.0706 -0.3246 -0.3077
  973MOL0     H31310   6.498   2.798   2.053 -2.1235  0.8843 -1.7437
  973MOL0     H31311   6.288   2.947   2.232 -2.2762 -0.1120 -1.1330
  973MOL0     H31312   6.278   2.923   2.060  0.1109  0.1802 -1.2005
  973MOL0     H31313   6.361   3.125   2.034 -1.1985 -0.8634 -0.0654
  973MOL0     H31314   6.524   3.060   2.082 -0.1366 -2.3925 -0.0729
  973MOL0     H31315   6.208   3.186   2.358 -0.7989 -0.8771 -0.6272
  973MOL0     H31316   5.993   3.272   2.411  0.4404 -0.4408 -0.9852
  973MOL0     H31317   6.029   3.423   2.508 -0.9459  2.3543 -0.2277
  973MOL0     H31318   5.946   3.434   2.349  1.0444 -0.5834 -0.6269
  973MOL0     H31319   5.915   3.827   2.315  0.3748 -0.4205 -0.9357
  973MOL0     H31320   5.843   4.048   2.324 -0.2877 -2.2295  1.5709
  973MOL0     H31321   6.177   4.378   2.323 -1.4048 -2.8865  1.0376
  973MOL0     H31322   6.131   4.368   2.157 -1.0796  0.7102  0.2828
  973MOL0     H31323   5.912   4.487   2.230 -0.6998  1.9801  1.5106
  973MOL0     H31324   6.008   4.526   2.377 -0.5024 -0.9949 -0.2360
  973MOL0     H31325   6.067   4.591   2.081 -0.1600  1.4082 -0.1800
  973MOL0     H31326   6.163   4.650   2.223 -0.0127  2.3781 -2.1967
  973MOL0     H31327   5.987   4.805   2.120  0.6314  0.1011 -0.6092
  973MOL0     H31328   5.861   4.700   2.196  0.1236  2.1102  0.0621
  973MOL0     H31329   6.074   4.772   2.387 -0.6227 -0.8763  0.1234
  973MOL0     H31330   5.897   4.740   2.394 -1.0661  0.7797 -0.4127
  973MOL0     H31331   6.057   4.996   2.346  1.4842 -3.0889  2.7695
  973MOL0     H31332   5.900   4.970   2.257 -1.0244 -2.2717 -1.6101
  973MOL0     H31333   5.959   4.951   2.554  2.8583  0.1879 -1.7221
  973MOL0     H31334   5.798   4.918   2.474  1.6696 -2.2175 -1.3399
  973MOL0     H31335   5.792   5.149   2.566  0.6567 -0.4718  0.0191
  973MOL0     H31336   5.778   5.161   2.393  2.4590  2.5148 -1.1483
  973MOL0     H31337   6.217   4.180   2.145  2.7848 -0.2903  2.8586
  973MOL0     H31338   6.270   3.934   2.115 -1.3739  0.0332 -2.4031
  973MOL0     H31339   6.337   3.600   2.129 -0.1215 -0.0314 -0.2815
  973MOL0     H31340   6.468   3.390   2.108  1.8418  0.8363  2.5753
  973MOL0     H31341   6.860   2.510   3.331 -1.2628 -0.7690  0.4696
  973MOL0     H31342   6.855   2.341   3.514 -1.0883  2.5082 -1.4166
  973MOL0     H31343   6.695   1.916   3.632 -0.3804 -2.3182 -0.1179
  973MOL0     H31344   6.693   1.724   3.777 -0.8298  0.5222  0.4796
  973MOL0     H31345   6.777   1.461   3.794  0.2464 -2.0877 -1.2714
  973MOL0     H31346   6.906   1.487   3.683  1.7429 -1.0545  0.4672
  973MOL0     H31347   7.057   1.372   3.856  1.6807 -0.7985 -2.8997
  973MOL0     H31348   6.957   1.278   3.747  1.9977  0.9046 -0.8548
  973MOL0     H31349   6.768   1.276   3.929  0.4799  3.0923  1.5497
  973MOL0     H31350   6.870   1.363   4.035 -3.3828  0.1722  0.9666
  973MOL0     H31351   6.917   1.158   4.114 -1.0886  0.3073 -0.2855
  973MOL0     H31352   7.045   1.184   4.019  0.3926 -0.6047 -0.9399
  973MOL0     H31353   6.828   0.838   3.866 -0.5341 -0.5628 -2.3127
  973MOL0     H31354   7.130   1.735   3.803  0.0998  0.6746 -1.2180
  973MOL0     H31355   7.119   1.956   3.664 -1.7946  3.3654 -4.3556
  974MOL0     O31356   8.386   4.775   8.364  0.4235 -0.1555 -0.3019
  974MOL0     C31357   8.383   4.896   8.330  0.4689  0.4794  0.3720
  974MOL0     O31358   8.493   4.972   8.318 -0.8513 -0.8068  0.2690
  974MOL0     C31359   8.613   4.905   8.332 -0.6789 -0.6586 -1.2400
  974MOL0     C31360   8.653   4.809   8.243 -1.0374  0.3824 -0.3632
  974MOL0     C31361   8.781   4.747   8.261 -0.3198  0.0546  0.4360
  974MOL0     C31362   8.866   4.780   8.371 -0.4997 -0.3205  0.0772
  974MOL0     O31363   8.993   4.741   8.389  0.6749  0.0980  0.2978
  974MOL0     C31364   9.033   4.611   8.336  0.8747 -0.2677 -0.1323
  974MOL0     C31365   9.176   4.574   8.373 -0.0441 -0.2371 -0.5076
  974MOL0     C31366   9.211   4.435   8.340 -0.6613  0.2680 -0.2191
  974MOL0     C31367   9.361   4.401   8.315  0.5923  0.3576 -0.1718
  974MOL0     C31368   9.358   4.259   8.256  0.6462  0.4042  0.5888
  974MOL0     C31369   9.291   4.236   8.119 -0.0254  0.6012  0.8617
  974MOL0     C31370   9.331   4.352   8.030  0.7708 -0.1739  1.1212
  974MOL0     C31371   9.314   4.324   7.870  0.3869  0.3086 -0.4432
  974MOL0     N31372   9.432   4.256   7.822 -0.0834 -0.0576 -0.4433
  974MOL0     C31373   9.547   4.317   7.779 -1.1487 -0.4438  0.3911
  974MOL0     C31374   9.644   4.217   7.764 -0.3946 -0.7982 -0.1631
  974MOL0     C31375   9.773   4.229   7.705  0.3627  0.3677  0.4561
  974MOL0     C31376   9.899   4.245   7.795 -0.5132 -0.0099 -1.7798
  974MOL0     C31377   9.952   4.108   7.854 -0.1781 -0.1532  1.0554
  974MOL0     C31378   9.971   3.987   7.766 -0.5558 -0.0738 -0.0414
  974MOL0     O31379  10.068   3.882   7.806  0.6222 -0.3996 -0.3582
  974MOL0     C31380  10.131   3.827   7.699 -0.5089 -0.4258  0.3449
  974MOL0     C31381  10.245   3.762   7.730 -0.0744  0.7577 -0.3988
  974MOL0     C31382  10.330   3.713   7.635  0.5657  0.2332 -0.0812
  974MOL0     C31383  10.447   3.642   7.695  0.3226 -0.0905  0.7475
  974MOL0     C31384  10.302   3.724   7.495  0.0678 -0.3938 -0.6366
  974MOL0     C31385  10.408   3.688   7.393  0.4622  0.1639  0.0508
  974MOL0     O31386  10.540   3.711   7.419  0.6294 -0.1951  0.1201
  974MOL0     C31387  10.626   3.689   7.316 -0.6265 -0.3911 -0.4439
  974MOL0     C31388  10.617   3.765   7.198  0.0623  0.4875  0.9932
  974MOL0     C31389  10.712   3.745   7.102 -0.0221 -0.2549 -0.1108
  974MOL0     C31390  10.833   3.679   7.122  0.1372 -0.1459 -0.3088
  974MOL0     O31391  10.937   3.680   7.036  0.7295  0.1417  0.0092
  974MOL0     C31392  10.964   3.791   6.950  0.2459  0.9635  0.2835
  974MOL0     C31393  11.078   3.746   6.859 -0.3761  0.4752  0.8563
  974MOL0     C31394  11.132   3.856   6.762 -0.0066 -0.2786  0.1855
  974MOL0     C31395  11.233   3.803   6.672  0.3358  0.6660 -0.5246
  974MOL0     C31396  11.261   3.902   6.567 -0.1830 -0.2538  0.5904
  974MOL0     C31397  11.323   4.039   6.603  0.0781 -0.1078 -0.1933
  974MOL0     C31398  11.273   4.154   6.507  0.4523 -0.3048 -0.4490
  974MOL0     C31399  11.124   4.189   6.505 -0.7047 -0.1207  0.7403
  974MOL0    Cl31400  11.091   4.346   6.414  0.4351 -0.3508 -0.3008
  974MOL0     C31401  10.847   3.628   7.252 -0.2880  0.6162 -0.1234
  974MOL0     C31402  10.742   3.619   7.348 -0.0272 -0.4660 -0.3113
  974MOL0     O31403  10.358   3.648   7.290 -0.3604  1.1125 -0.3232
  974MOL0     C31404  10.171   3.768   7.468 -0.3089  0.7365  0.4697
  974MOL0     C31405  10.093   3.825   7.568 -0.2190 -0.5233  0.2723
  974MOL0     N31406   9.582   4.098   7.811 -0.1656 -0.0324  0.3185
  974MOL0     N31407   9.462   4.125   7.842  0.0687 -0.2313  0.1598
  974MOL0     C31408   8.823   4.887   8.446 -0.6207 -0.2675  0.7734
  974MOL0     C31409   8.696   4.944   8.437  0.7764 -0.2313 -0.4881
  974MOL0     C31410   8.259   4.958   8.289  0.2420 -0.4178 -0.0708
  974MOL0     C31411   8.137   4.876   8.290 -0.4531 -0.0751 -0.1697
  974MOL0     C31412   8.009   4.920   8.254 -0.6013  0.5637 -0.3424
  974MOL0     C31413   7.995   5.048   8.211 -0.2193  0.0477  0.1411
  974MOL0     O31414   7.872   5.091   8.174 -0.6882 -0.2427  0.0428
  974MOL0     C31415   7.846   5.231   8.172  0.5117  0.3892  0.3127
  974MOL0     C31416   7.704   5.256   8.122 -0.0158 -0.1437 -0.2202
  974MOL0     C31417   7.590   5.194   8.210 -0.1164 -0.2556 -0.4750
  974MOL0     C31418   7.528   5.307   8.294  0.2994 -0.4517  0.0897
  974MOL0     C31419   7.409   5.257   8.360 -0.0855 -0.2794 -0.2998
  974MOL0     C31420   7.315   5.207   8.419  0.7073  0.7112 -0.3619
  974MOL0     C31421   8.111   5.128   8.194 -0.1569  0.3737 -0.1672
  974MOL0     C31422   8.240   5.089   8.237  0.2566  0.5054  0.1543
  974MOL0     H31423   8.600   4.790   8.150  2.8661  1.2911 -3.0290
  974MOL0     H31424   8.819   4.677   8.187  1.5436  0.6150  0.7956
  974MOL0     H31425   8.963   4.541   8.385  1.2194  1.9034  3.9095
  974MOL0     H31426   9.017   4.611   8.228  0.6527  5.1944 -0.3785
  974MOL0     H31427   9.228   4.652   8.317  0.2802 -0.0280  0.0834
  974MOL0     H31428   9.188   4.572   8.481 -0.4499 -3.1905 -0.4285
  974MOL0     H31429   9.185   4.370   8.424  0.0270  1.2715  0.8003
  974MOL0     H31430   9.136   4.398   8.269  0.1688 -3.6054  0.7102
  974MOL0     H31431   9.403   4.477   8.248 -2.8074  3.1756  0.5979
  974MOL0     H31432   9.419   4.406   8.408 -1.1625  0.4475  0.9598
  974MOL0     H31433   9.466   4.248   8.241  0.8669  0.2097  2.1324
  974MOL0     H31434   9.323   4.184   8.327 -1.5526  1.0611  0.2713
  974MOL0     H31435   9.321   4.138   8.082  0.8538  0.8281  0.9637
  974MOL0     H31436   9.182   4.242   8.129 -0.2715 -2.1599  0.5914
  974MOL0     H31437   9.264   4.435   8.055 -0.6735 -0.2227 -2.1085
  974MOL0     H31438   9.440   4.359   8.041  0.7086 -0.4667  2.0030
  974MOL0     H31439   9.301   4.422   7.823 -1.9114  0.7400  0.9552
  974MOL0     H31440   9.221   4.274   7.841  1.1606  0.2977 -3.1609
  974MOL0     H31441   9.553   4.423   7.758 -4.1270 -0.3137 -0.3681
  974MOL0     H31442   9.774   4.138   7.644 -0.9449  0.4621  0.2698
  974MOL0     H31443   9.767   4.310   7.632  0.7181 -3.3357 -4.1719
  974MOL0     H31444   9.862   4.300   7.882  1.3644 -3.1823  1.3017
  974MOL0     H31445   9.975   4.304   7.745  0.9638 -0.9017 -0.6546
  974MOL0     H31446   9.891   4.079   7.940 -1.0413  2.5948  1.4566
  974MOL0     H31447  10.049   4.138   7.896 -0.4426  1.5630  0.4969
  974MOL0     H31448  10.018   4.030   7.677 -0.4453 -3.0787 -1.5726
  974MOL0     H31449   9.871   3.952   7.736 -1.0216 -2.1269  3.3621
  974MOL0     H31450  10.266   3.763   7.836  0.2173 -0.2697 -0.4361
  974MOL0     H31451  10.457   3.665   7.802 -3.2384 -0.4572  1.2818
  974MOL0     H31452  10.443   3.533   7.687 -0.6026  0.0821 -2.1484
  974MOL0     H31453  10.539   3.664   7.640 -1.5153  0.8665 -2.1700
  974MOL0     H31454  10.540   3.837   7.174 -0.2328  0.3735  1.5854
  974MOL0     H31455  10.691   3.797   7.009 -4.9606  1.0902  1.4867
  974MOL0     H31456  10.883   3.807   6.878  2.2325 -0.9139 -2.5987
  974MOL0     H31457  10.991   3.876   7.013 -2.5858  2.3899 -0.2600
  974MOL0     H31458  11.160   3.715   6.925  0.6972  0.2327 -0.5496
  974MOL0     H31459  11.058   3.663   6.792  3.3621  3.1187 -4.2502
  974MOL0     H31460  11.190   3.930   6.818  0.7978 -2.1455  1.9329
  974MOL0     H31461  11.048   3.904   6.710 -1.6798 -2.1911  0.9769
  974MOL0     H31462  11.325   3.785   6.727 -0.8573  2.1199  2.1229
  974MOL0     H31463  11.190   3.711   6.631  3.0041 -1.0094  0.2280
  974MOL0     H31464  11.181   3.912   6.494  0.1919  1.2780  0.3450
  974MOL0     H31465  11.336   3.847   6.510 -2.0718  0.8335 -3.2452
  974MOL0     H31466  11.295   4.065   6.706  2.5981 -0.6660  0.7042
  974MOL0     H31467  11.432   4.028   6.611 -0.2165 -1.8208  2.9823
  974MOL0     H31468  11.299   4.122   6.405  3.2321 -2.4467  0.7877
  974MOL0     H31469  11.350   4.229   6.527  0.5852 -0.5264 -0.1105
  974MOL0     H31470  11.093   4.205   6.609 -0.4648  1.3541  0.6056
  974MOL0     H31471  11.075   4.105   6.455  2.4460 -1.2840 -0.6834
  974MOL0     H31472  10.936   3.572   7.276 -1.8048 -1.6039  0.7002
  974MOL0     H31473  10.747   3.563   7.441 -0.5792  3.5021  2.3753
  974MOL0     H31474  10.137   3.774   7.366  0.8430  1.3653  0.1049
  974MOL0     H31475  10.003   3.878   7.538 -0.4220 -0.4204  1.0530
  974MOL0     H31476   8.898   4.915   8.520 -0.0137 -0.0623  0.0982
  974MOL0     H31477   8.652   5.019   8.501  1.3367 -0.8215  0.6128
  974MOL0     H31478   8.131   4.787   8.352  0.1118  1.2287  1.8908
  974MOL0     H31479   7.925   4.851   8.253  1.0781 -1.6847  1.5851
  974MOL0     H31480   7.854   5.276   8.271  2.8440 -1.0182  0.8471
  974MOL0     H31481   7.915   5.287   8.108 -0.7847  1.9972  0.2330
  974MOL0     H31482   7.686   5.214   8.022 -2.3741  1.9024 -0.7452
  974MOL0     H31483   7.690   5.364   8.118 -3.5976 -0.3374  2.4410
  974MOL0     H31484   7.634   5.123   8.281 -0.7277  0.1993  0.3805
  974MOL0     H31485   7.522   5.149   8.138 -2.0661  0.5937  0.7426
  974MOL0     H31486   7.506   5.383   8.219  0.0166 -0.8478 -0.2374
  974MOL0     H31487   7.604   5.336   8.366 -0.0285 -0.2558  0.3581
  974MOL0     H31488   7.231   5.157   8.462  0.9028  0.4174 -0.3176
  974MOL0     H31489   8.102   5.222   8.141 -0.3569  0.0722 -0.6722
  974MOL0     H31490   8.326   5.148   8.207  1.9678 -1.7124  0.4992
  975MOL0     O31491  11.428  10.204   5.304  0.5256 -0.2415 -0.2102
  975MOL0     C31492  11.358  10.200   5.202 -0.2811 -0.8981  0.3398
  975MOL0     O31493  11.222  10.178   5.198  0.3695 -0.0894  0.5381
  975MOL0     C31494  11.144  10.145   5.305 -0.6974  0.0435 -0.9951
  975MOL0     C31495  11.170  10.221   5.427 -0.0707  0.1760  0.7001
  975MOL0     C31496  11.093  10.196   5.544 -0.0855  0.5409  0.4991
  975MOL0     C31497  10.985  10.106   5.536 -0.4090 -0.7081 -0.3420
  975MOL0     O31498  10.893  10.089   5.639  0.0856 -0.3747  0.4158
  975MOL0     C31499  10.936  10.061   5.773 -0.7835 -1.0740 -1.0963
  975MOL0     C31500  10.824  10.101   5.875 -0.9051  0.0956 -0.4630
  975MOL0     C31501  10.858  10.027   6.000 -0.2654 -0.2278 -0.1021
  975MOL0     C31502  10.752  10.047   6.106 -0.0716 -0.2783 -0.9417
  975MOL0     C31503  10.795   9.987   6.238 -0.1794 -0.6931 -0.1439
  975MOL0     C31504  10.907  10.068   6.306 -0.4310  0.3540 -0.3390
  975MOL0     C31505  10.923  10.019   6.452  0.5470 -0.7099  0.5776
  975MOL0     C31506  11.059  10.056   6.511 -0.0922  0.6356 -0.1899
  975MOL0     N31507  11.163   9.967   6.459 -0.7086  0.1208 -0.7552
  975MOL0     C31508  11.194   9.839   6.492 -0.0437  0.1736 -0.8734
  975MOL0     C31509  11.282   9.793   6.401 -0.6694  0.0013 -1.0677
  975MOL0     C31510  11.305   9.650   6.365  0.9211  0.3334 -0.7127
  975MOL0     C31511  11.192   9.580   6.287 -1.0378 -0.3431 -0.2079
  975MOL0     C31512  11.200   9.607   6.129  0.4314  0.4868 -0.1596
  975MOL0     C31513  11.295   9.505   6.057  0.8053  0.3789 -0.2731
  975MOL0     O31514  11.252   9.467   5.932  0.6079 -0.0423  0.4828
  975MOL0     C31515  11.140   9.388   5.923 -0.2189  0.3090 -0.0812
  975MOL0     C31516  11.073   9.319   6.026 -0.7585 -0.0405  0.2446
  975MOL0     C31517  10.948   9.248   5.999  1.0389  1.0559 -0.0707
  975MOL0     C31518  10.872   9.192   6.113 -0.1873  0.2303 -0.3791
  975MOL0     C31519  10.907   9.231   5.868 -0.0645  0.8091  0.0047
  975MOL0     C31520  10.774   9.167   5.834  0.2611 -0.2157  0.5497
  975MOL0     O31521  10.732   9.056   5.903 -0.2198 -0.0959  0.4303
  975MOL0     C31522  10.626   8.992   5.842 -0.0354 -0.4175 -0.6740
  975MOL0     C31523  10.643   8.893   5.746  0.3984  0.4346 -1.4518
  975MOL0     C31524  10.535   8.841   5.680  0.5982  0.0746  1.4487
  975MOL0     C31525  10.404   8.888   5.710  0.3067  0.3470 -0.8056
  975MOL0     O31526  10.287   8.836   5.661  0.0136 -0.1462  0.3425
  975MOL0     C31527  10.285   8.721   5.582 -1.2826  0.0356 -0.2922
  975MOL0     C31528  10.292   8.589   5.667 -0.5105 -0.2494  0.7227
  975MOL0     C31529  10.176   8.574   5.765 -0.5554 -0.1593 -0.0650
  975MOL0     C31530  10.197   8.440   5.825 -0.1431 -0.6946 -0.2212
  975MOL0     C31531  10.080   8.390   5.901 -0.6651  0.2976 -0.4941
  975MOL0     C31532  10.097   8.240   5.950  0.6655 -0.0736 -0.5995
  975MOL0     C31533  10.034   8.236   6.088 -1.2004  0.3942 -0.2206
  975MOL0     C31534  10.133   8.266   6.195  0.0175 -0.3257 -0.3953
  975MOL0    Cl31535  10.187   8.113   6.266 -0.2337  0.5759 -0.1963
  975MOL0     C31536  10.388   8.987   5.805  0.6669  0.4840 -0.1018
  975MOL0     C31537  10.498   9.046   5.868 -1.6650  0.3583 -0.0859
  975MOL0     O31538  10.709   9.215   5.742 -0.3620 -0.8388 -0.1518
  975MOL0     C31539  10.982   9.292   5.761  0.5263  0.6960  0.3784
  975MOL0     C31540  11.096   9.363   5.791 -0.5526 -0.7206  0.1026
  975MOL0     N31541  11.317   9.894   6.323 -0.6515 -0.0087  0.1354
  975MOL0     N31542  11.253  10.002   6.355  1.0253  0.0852 -0.2127
  975MOL0     C31543  10.955  10.039   5.419  0.6721  0.6172 -1.1852
  975MOL0     C31544  11.038  10.052   5.302 -0.4928  0.4170 -0.2907
  975MOL0     C31545  11.413  10.230   5.066 -0.2288  0.2788 -0.2938
  975MOL0     C31546  11.318  10.251   4.962  0.7262 -0.4772 -0.1607
  975MOL0     C31547  11.366  10.282   4.837  0.0873 -0.2511 -0.6084
  975MOL0     C31548  11.501  10.295   4.800  0.7068 -0.1836  0.2537
  975MOL0     O31549  11.554  10.318   4.675 -0.1413  0.4250  0.5113
  975MOL0     C31550  11.473  10.299   4.568  0.5549 -0.0344  0.8388
  975MOL0     C31551  11.560  10.320   4.445 -0.3385  1.0452  0.0197
  975MOL0     C31552  11.492  10.415   4.341  0.4295 -0.4224 -0.1634
  975MOL0     C31553  11.523  10.371   4.196  0.5139 -0.3641 -0.0646
  975MOL0     C31554  11.444  10.441   4.093  0.0144 -0.0778  0.8601
  975MOL0     C31555  11.380  10.481   3.999 -0.6216 -0.2512  0.3599
  975MOL0     C31556  11.584  10.273   4.906  0.0264  0.2164 -0.8563
  975MOL0     C31557  11.550  10.248   5.039  1.2721 -0.2204 -0.2542
  975MOL0     H31558  11.251  10.291   5.415  0.8150 -1.0943 -1.6125
  975MOL0     H31559  11.106  10.253   5.636  0.4569  2.2171 -0.5795
  975MOL0     H31560  10.955   9.954   5.778 -0.9130 -1.0416  1.1466
  975MOL0     H31561  11.028  10.120   5.787 -0.4659 -1.1064 -2.7901
  975MOL0     H31562  10.828  10.208   5.895 -0.1003 -0.4899  3.3074
  975MOL0     H31563  10.724  10.075   5.836 -1.2497  2.4312 -1.2852
  975MOL0     H31564  10.878   9.920   5.994 -0.0193 -0.1683 -0.3618
  975MOL0     H31565  10.950  10.078   6.032  0.5053 -0.0115 -2.5014
  975MOL0     H31566  10.731  10.153   6.120  0.0014 -0.1682 -1.6034
  975MOL0     H31567  10.672   9.997   6.050  0.0463 -1.0532 -0.4365
  975MOL0     H31568  10.703   9.997   6.298 -0.5879 -1.0072 -0.7055
  975MOL0     H31569  10.805   9.878   6.229 -1.2048 -1.0741  2.2643
  975MOL0     H31570  11.001  10.064   6.250 -0.8155 -0.4495 -0.9462
  975MOL0     H31571  10.880  10.174   6.303  0.9035  0.6896 -1.8592
  975MOL0     H31572  10.852  10.075   6.512 -2.2704 -1.6867 -1.5831
  975MOL0     H31573  10.905   9.911   6.445  2.3465 -0.9777 -0.5823
  975MOL0     H31574  11.064  10.044   6.619  0.1901 -1.9322 -0.4258
  975MOL0     H31575  11.087  10.157   6.479  3.0742 -0.2143 -0.4670
  975MOL0     H31576  11.138   9.771   6.555 -0.7558  1.5757  0.0669
  975MOL0     H31577  11.399   9.632   6.311  1.0380 -0.2013 -0.3398
  975MOL0     H31578  11.322   9.598   6.460  2.5028  0.9544 -0.6282
  975MOL0     H31579  11.097   9.614   6.330  0.6050  1.2243  2.4365
  975MOL0     H31580  11.209   9.473   6.306  0.6310 -0.1877 -0.7013
  975MOL0     H31581  11.230   9.712   6.120 -0.2132  0.6327 -0.6951
  975MOL0     H31582  11.099   9.591   6.091 -0.5275  0.5300  2.1906
  975MOL0     H31583  11.323   9.417   6.115  0.8139 -0.6420 -1.7909
  975MOL0     H31584  11.383   9.567   6.042  0.8285  0.5573  0.5516
  975MOL0     H31585  11.103   9.325   6.129  2.8134  0.5634 -0.7162
  975MOL0     H31586  10.765   9.212   6.103 -0.3958 -0.1354  1.0033
  975MOL0     H31587  10.877   9.083   6.122  0.2560  0.0860 -1.9745
  975MOL0     H31588  10.903   9.226   6.212 -1.0912 -0.9608  0.3440
  975MOL0     H31589  10.741   8.856   5.715  1.3686  1.4611  0.2175
  975MOL0     H31590  10.572   8.765   5.612 -0.7774  0.0392  0.6945
  975MOL0     H31591  10.189   8.727   5.529 -1.8207 -0.8467  0.5600
  975MOL0     H31592  10.370   8.726   5.513 -1.3465  1.6531 -0.2892
  975MOL0     H31593  10.303   8.502   5.602 -0.9413  1.2953 -1.5380
  975MOL0     H31594  10.390   8.584   5.716 -0.2521  0.9655  0.3581
  975MOL0     H31595  10.084   8.572   5.706  0.0582 -1.6914 -1.0567
  975MOL0     H31596  10.179   8.648   5.845  0.8152 -1.8821  1.5659
  975MOL0     H31597  10.215   8.362   5.750  3.3033 -1.2820  1.0700
  975MOL0     H31598  10.279   8.439   5.897  1.1963 -0.4119 -1.6728
  975MOL0     H31599   9.992   8.391   5.836 -2.1065 -1.1271  1.3058
  975MOL0     H31600  10.052   8.469   5.972 -3.7295  2.7527 -4.0347
  975MOL0     H31601  10.050   8.156   5.898 -0.0208 -1.4373  2.0559
  975MOL0     H31602  10.202   8.211   5.961  1.3035  2.0334 -0.7800
  975MOL0     H31603   9.994   8.138   6.113  0.2964 -0.4905 -1.1515
  975MOL0     H31604   9.954   8.312   6.090  0.6577  2.4763 -0.5676
  975MOL0     H31605  10.088   8.314   6.282  1.4505 -4.5252  2.9790
  975MOL0     H31606  10.209   8.336   6.159 -0.5177 -0.8775 -2.8143
  975MOL0     H31607  10.287   9.024   5.823 -0.3049 -0.4706 -2.9950
  975MOL0     H31608  10.500   9.139   5.923 -0.9527  0.3847 -0.1445
  975MOL0     H31609  10.943   9.297   5.659  0.1788  1.9941  0.5561
  975MOL0     H31610  11.167   9.408   5.723 -0.8172 -0.6216 -0.1093
  975MOL0     H31611  10.865   9.979   5.412 -1.6964  3.8824 -1.1650
  975MOL0     H31612  11.013   9.996   5.212  0.7295 -0.4204 -0.1443
  975MOL0     H31613  11.209  10.242   4.964  0.6306  0.2667 -1.1976
  975MOL0     H31614  11.301  10.301   4.752  0.2436  0.3855 -0.5941
  975MOL0     H31615  11.439  10.196   4.557  1.4256 -0.0725 -2.7748
  975MOL0     H31616  11.389  10.369   4.571 -2.7050 -3.6635  2.8012
  975MOL0     H31617  11.594  10.223   4.407  2.6676  2.1329 -0.3739
  975MOL0     H31618  11.658  10.362   4.471  0.7283 -0.2060 -1.7830
  975MOL0     H31619  11.526  10.518   4.351 -0.3852 -0.1134 -0.5227
  975MOL0     H31620  11.385  10.417   4.362  0.6397 -0.1857  0.9601
  975MOL0     H31621  11.499  10.265   4.189 -0.5847 -0.0330 -1.7443
  975MOL0     H31622  11.627  10.399   4.172  0.1553  2.7959  1.5693
  975MOL0     H31623  11.341  10.515   3.905  1.3566  2.0236  0.3002
  975MOL0     H31624  11.691  10.271   4.887  0.0401  1.5722 -1.0193
  975MOL0     H31625  11.617  10.234   5.124 -0.8292  1.5566  1.8281
  976MOL0     O31626   4.484   6.860   0.056  0.0613  0.5916  0.0811
  976MOL0     C31627   4.542   6.863  -0.048 -0.8036  0.6515 -0.0915
  976MOL0     O31628   4.602   6.749  -0.104  0.0561  0.1386  0.1859
  976MOL0     C31629   4.608   6.629  -0.037 -0.2876  0.0717  0.4475
  976MOL0     C31630   4.523   6.527  -0.077  0.3988 -0.0675 -0.9685
  976MOL0     C31631   4.541   6.404   0.001 -0.3439 -0.2313  0.4319
  976MOL0     C31632   4.629   6.388   0.108  0.2337 -0.0566  0.0738
  976MOL0     O31633   4.655   6.268   0.172 -0.2893 -0.5167  0.1227
  976MOL0     C31634   4.558   6.201   0.243  0.8877 -0.4710 -0.1176
  976MOL0     C31635   4.616   6.086   0.319 -0.1852  0.2032  0.0108
  976MOL0     C31636   4.512   6.027   0.412  0.0706  0.3679 -0.0312
  976MOL0     C31637   4.501   5.869   0.414 -0.1032 -0.7090  1.2419
  976MOL0     C31638   4.429   5.826   0.542  0.5996  0.3892 -0.8982
  976MOL0     C31639   4.407   5.677   0.546  0.0255  0.0081 -1.4188
  976MOL0     C31640   4.532   5.575   0.542 -0.6516  0.3856 -0.5308
  976MOL0     C31641   4.614   5.584   0.675  0.5402  0.4086  0.2368
  976MOL0     N31642   4.550   5.515   0.785  0.8030 -0.1268  0.0138
  976MOL0     C31643   4.489   5.573   0.891  0.3271 -0.5487 -0.1615
  976MOL0     C31644   4.411   5.475   0.942  0.6608  0.3694 -0.5640
  976MOL0     C31645   4.320   5.497   1.059 -0.3560 -0.3657  0.1873
  976MOL0     C31646   4.180   5.510   1.017 -0.7548  0.5020 -0.1568
  976MOL0     C31647   4.155   5.655   0.972  0.6763  0.2332  0.7653
  976MOL0     C31648   4.000   5.685   0.962 -0.9979  0.3804  0.2017
  976MOL0     O31649   3.994   5.827   0.926  0.0424  0.0139 -0.2797
  976MOL0     C31650   3.969   5.867   0.796  0.0609  0.9342  0.0786
  976MOL0     C31651   3.905   5.996   0.791 -1.1869  1.0117  0.8784
  976MOL0     C31652   3.900   6.071   0.670 -0.5777  0.1176 -0.3613
  976MOL0     C31653   3.858   6.216   0.702  0.3628  0.1735  0.4724
  976MOL0     C31654   3.937   6.010   0.553 -0.7863 -0.0112 -0.5692
  976MOL0     C31655   3.946   6.097   0.434  0.0907 -0.3631 -0.8101
  976MOL0     O31656   4.056   6.079   0.360 -0.4959  0.0385 -0.6705
  976MOL0     C31657   4.077   6.164   0.254 -0.5271 -0.1204 -0.3479
  976MOL0     C31658   4.005   6.141   0.132 -0.5453  0.7017 -0.2324
  976MOL0     C31659   4.034   6.232   0.031 -0.0369  0.2343 -0.1263
  976MOL0     C31660   4.144   6.323   0.042  0.2982  0.0851 -0.9123
  976MOL0     O31661   4.163   6.410  -0.059  0.3998 -0.8589  0.4369
  976MOL0     C31662   4.062   6.491  -0.120 -0.0597 -0.4064 -0.6632
  976MOL0     C31663   4.066   6.631  -0.045 -0.1010  0.2469  0.2366
  976MOL0     C31664   3.990   6.741  -0.121  0.9199 -0.3707 -0.0859
  976MOL0     C31665   4.082   6.804  -0.229  0.6315 -0.0963  0.3829
  976MOL0     C31666   4.021   6.910  -0.312  0.1688  0.2030  0.9935
  976MOL0     C31667   4.137   6.968  -0.403  1.3709  0.3670 -0.4127
  976MOL0     C31668   4.073   7.063  -0.506  0.1727 -0.8091 -0.1995
  976MOL0     C31669   4.163   7.168  -0.557  0.3202  0.8996 -0.3184
  976MOL0    Cl31670   4.305   7.097  -0.635  0.3407 -0.0484 -0.3043
  976MOL0     C31671   4.215   6.343   0.162  0.6483  0.1019  0.2613
  976MOL0     C31672   4.179   6.259   0.269 -0.3928  1.1556 -0.3140
  976MOL0     O31673   3.863   6.187   0.417 -1.0170 -0.3792  0.1677
  976MOL0     C31674   3.981   5.874   0.557  0.1027 -0.0485  0.1469
  976MOL0     C31675   4.001   5.804   0.677 -0.3533 -0.2015  0.3140
  976MOL0     N31676   4.429   5.359   0.865  0.7205 -0.0379  0.2501
  976MOL0     N31677   4.516   5.380   0.772  0.5294 -1.0446  0.2242
  976MOL0     C31678   4.715   6.493   0.138  0.6044 -0.1245 -0.5464
  976MOL0     C31679   4.697   6.614   0.067 -0.1441  0.7909 -0.6291
  976MOL0     C31680   4.548   6.982  -0.135  0.4142  0.5572 -1.1961
  976MOL0     C31681   4.494   7.105  -0.097  0.0328 -0.3811  0.2220
  976MOL0     C31682   4.498   7.215  -0.189 -0.0666 -0.5051 -0.0692
  976MOL0     C31683   4.560   7.218  -0.310 -0.0954  1.2612 -0.2018
  976MOL0     O31684   4.550   7.332  -0.385 -0.7450 -0.4000 -0.0203
  976MOL0     C31685   4.629   7.329  -0.506  0.1801 -0.8787  0.2277
  976MOL0     C31686   4.615   7.467  -0.574  0.1232  0.1145  0.4282
  976MOL0     C31687   4.675   7.581  -0.486 -0.0061 -0.3773 -0.2990
  976MOL0     C31688   4.818   7.562  -0.445  0.0060 -0.2770 -0.3666
  976MOL0     C31689   4.898   7.537  -0.562 -1.0480 -0.1771 -0.7329
  976MOL0     C31690   4.993   7.528  -0.642 -0.0316 -0.8707 -0.0861
  976MOL0     C31691   4.619   7.096  -0.340 -1.0384  0.3892  0.9855
  976MOL0     C31692   4.620   6.982  -0.263 -0.3130 -0.0031 -0.2285
  976MOL0     H31693   4.449   6.537  -0.156 -1.7445 -1.1169  0.7879
  976MOL0     H31694   4.474   6.319  -0.004  0.7319 -1.1463  1.1293
  976MOL0     H31695   4.524   6.277   0.315  0.5611 -2.5812  2.0649
  976MOL0     H31696   4.475   6.175   0.176 -0.1143 -0.9336  1.2570
  976MOL0     H31697   4.655   6.010   0.252  2.0996  0.1209  1.3460
  976MOL0     H31698   4.701   6.128   0.373  1.0814 -0.1850 -1.6247
  976MOL0     H31699   4.532   6.052   0.517 -0.7641 -0.2190  0.2775
  976MOL0     H31700   4.408   6.057   0.397 -0.4283 -1.8995 -1.5923
  976MOL0     H31701   4.455   5.842   0.318  0.2797  2.0965  0.1764
  976MOL0     H31702   4.603   5.829   0.403 -0.2076 -0.6455 -0.2142
  976MOL0     H31703   4.486   5.843   0.634  0.7891 -2.8730 -0.2737
  976MOL0     H31704   4.333   5.878   0.536  1.2317  1.4852 -2.0344
  976MOL0     H31705   4.347   5.643   0.631 -0.3740  1.1167 -1.2372
  976MOL0     H31706   4.343   5.647   0.462 -2.0502  0.9936 -0.2436
  976MOL0     H31707   4.495   5.473   0.523 -1.4648  0.9503 -2.1183
  976MOL0     H31708   4.599   5.604   0.461  0.7657 -0.9154  0.1226
  976MOL0     H31709   4.637   5.688   0.699 -0.0951  1.3509 -2.8410
  976MOL0     H31710   4.713   5.538   0.667  0.3707 -0.1701  1.3170
  976MOL0     H31711   4.487   5.666   0.946 -2.6335 -2.0321  2.5906
  976MOL0     H31712   4.330   5.411   1.126  1.3893  0.0371  0.4871
  976MOL0     H31713   4.346   5.589   1.112  0.9597  1.1414 -2.8712
  976MOL0     H31714   4.114   5.490   1.102 -1.9350  3.6427 -0.2241
  976MOL0     H31715   4.148   5.448   0.933 -2.5133  0.1349  0.7356
  976MOL0     H31716   4.199   5.676   0.874  1.5110 -1.4681  0.7282
  976MOL0     H31717   4.204   5.725   1.039  1.9201 -3.6097  4.3102
  976MOL0     H31718   3.940   5.666   1.052 -1.7555 -1.1114 -0.5700
  976MOL0     H31719   3.950   5.623   0.886  0.7952 -0.9985  0.0883
  976MOL0     H31720   3.882   6.037   0.889 -1.5470 -3.0061  2.6654
  976MOL0     H31721   3.760   6.239   0.659  0.6417  1.0000  0.2535
  976MOL0     H31722   3.843   6.231   0.809  0.3655 -0.9615  0.6383
  976MOL0     H31723   3.937   6.282   0.664 -0.2672  0.4400 -0.4259
  976MOL0     H31724   3.935   6.061   0.112  2.8927 -2.0628 -2.2394
  976MOL0     H31725   3.985   6.216  -0.065  1.7942 -0.3230 -1.0119
  976MOL0     H31726   4.081   6.523  -0.223  0.0517  0.2462 -0.4399
  976MOL0     H31727   3.959   6.456  -0.107  0.5993 -1.8180  1.4100
  976MOL0     H31728   4.014   6.608   0.048 -1.2419  1.4830 -0.0706
  976MOL0     H31729   4.173   6.650  -0.038  0.2959 -0.9403 -1.8750
  976MOL0     H31730   3.959   6.811  -0.042 -1.7079  1.1687 -2.2905
  976MOL0     H31731   3.901   6.696  -0.167 -0.3480  1.6903  0.2191
  976MOL0     H31732   4.164   6.837  -0.164  0.5464  1.0293 -0.0586
  976MOL0     H31733   4.106   6.722  -0.297 -2.3178 -2.0181  1.4697
  976MOL0     H31734   3.983   6.991  -0.249  6.2191  2.5829  2.3072
  976MOL0     H31735   3.950   6.857  -0.375  2.5935 -0.1249 -1.6584
  976MOL0     H31736   4.223   7.001  -0.344  3.2222  0.6281 -3.0587
  976MOL0     H31737   4.170   6.879  -0.458  0.1209  0.1221 -0.7940
  976MOL0     H31738   3.991   7.127  -0.471 -0.3407 -1.4927 -0.1301
  976MOL0     H31739   4.032   7.015  -0.595  1.2941 -1.8872 -0.1643
  976MOL0     H31740   4.207   7.237  -0.484 -1.1484  0.3256  1.1951
  976MOL0     H31741   4.114   7.239  -0.623  0.5904  2.4303  1.0695
  976MOL0     H31742   4.292   6.418   0.180 -1.0821  1.2273  4.1105
  976MOL0     H31743   4.232   6.273   0.363 -2.1040  3.7095  0.3683
  976MOL0     H31744   4.010   5.826   0.464 -0.3392 -3.1559  1.4715
  976MOL0     H31745   4.040   5.703   0.671 -0.6893 -0.3842  1.0233
  976MOL0     H31746   4.787   6.490   0.219 -0.3775  0.2339  0.3640
  976MOL0     H31747   4.737   6.709   0.101  0.3515  0.1660  0.5851
  976MOL0     H31748   4.445   7.093  -0.002 -1.9816 -1.7851 -0.9200
  976MOL0     H31749   4.460   7.315  -0.171  4.8181  1.8098 -0.9257
  976MOL0     H31750   4.734   7.309  -0.483  1.1360  0.7120 -2.3318
  976MOL0     H31751   4.601   7.252  -0.578  0.1968 -0.9515  0.2982
  976MOL0     H31752   4.507   7.474  -0.587  0.4235  1.0098 -2.1284
  976MOL0     H31753   4.663   7.469  -0.672  1.7992  2.4998  1.1892
  976MOL0     H31754   4.614   7.599  -0.396  2.3804  0.1331  1.3136
  976MOL0     H31755   4.670   7.670  -0.550  0.8077  0.6558  0.9933
  976MOL0     H31756   4.819   7.473  -0.381 -2.8000 -0.0887  0.0846
  976MOL0     H31757   4.856   7.646  -0.387 -0.7562 -0.2544  0.1062
  976MOL0     H31758   5.052   7.504  -0.728  3.6186  1.2436  1.5899
  976MOL0     H31759   4.658   7.082  -0.440 -2.2386  2.4842  0.1484
  976MOL0     H31760   4.665   6.894  -0.308  0.3054 -0.1024  0.5609
  977MOL0     O31761   7.937   3.610   8.165  1.1308  0.2449 -0.1225
  977MOL0     C31762   7.946   3.730   8.203 -0.0357  0.3157  1.1548
  977MOL0     O31763   7.856   3.784   8.291 -0.0169  0.2962  0.1403
  977MOL0     C31764   7.750   3.707   8.331  0.6798 -0.4668  0.0702
  977MOL0     C31765   7.786   3.612   8.427 -0.5423  0.0231  0.6621
  977MOL0     C31766   7.686   3.527   8.478 -0.1634 -0.6172  0.7535
  977MOL0     C31767   7.552   3.533   8.446  0.7797 -0.0612  1.2606
  977MOL0     O31768   7.468   3.438   8.503 -0.5145 -0.6321  0.5521
  977MOL0     C31769   7.358   3.492   8.580 -0.5302  0.1751 -0.1450
  977MOL0     C31770   7.349   3.409   8.720  1.0246 -1.1783  0.0411
  977MOL0     C31771   7.252   3.288   8.721  0.0678  0.1243 -0.0255
  977MOL0     C31772   7.111   3.334   8.751 -0.8118 -0.1129 -0.1699
  977MOL0     C31773   7.013   3.222   8.778 -0.0530 -0.4054 -0.2318
  977MOL0     C31774   6.944   3.180   8.649  0.9932 -0.4510  0.4456
  977MOL0     C31775   6.883   3.045   8.643 -0.8449  0.1867 -0.1196
  977MOL0     C31776   6.788   3.004   8.759 -0.4783  0.3799 -0.4256
  977MOL0     N31777   6.731   2.866   8.752 -0.8194 -0.3874  0.2150
  977MOL0     C31778   6.779   2.761   8.672  0.2434  0.8032  0.1242
  977MOL0     C31779   6.675   2.675   8.656  0.9196  0.4411 -0.3381
  977MOL0     C31780   6.672   2.564   8.560  0.9744 -0.1138 -0.8391
  977MOL0     C31781   6.780   2.457   8.571  0.1847 -0.0747  0.2302
  977MOL0     C31782   6.727   2.360   8.677  0.6365  0.3193  0.4949
  977MOL0     C31783   6.835   2.278   8.721 -1.3153  0.8491  0.0355
  977MOL0     O31784   6.779   2.207   8.833 -0.7866  0.1957 -0.0299
  977MOL0     C31785   6.695   2.099   8.820 -1.0820 -0.1656  0.0794
  977MOL0     C31786   6.639   2.053   8.936 -0.3786 -0.0127  0.1565
  977MOL0     C31787   6.576   1.933   8.947  0.4156  0.8538  0.6327
  977MOL0     C31788   6.517   1.907   9.079  0.5839 -0.1862  0.1029
  977MOL0     C31789   6.549   1.858   8.822 -0.8089 -0.1689 -0.0852
  977MOL0     C31790   6.474   1.734   8.813 -0.3332 -0.2142 -0.0347
  977MOL0     O31791   6.527   1.649   8.728  0.2988  0.4620 -0.1837
  977MOL0     C31792   6.502   1.514   8.714 -0.3192  0.0734 -1.0337
  977MOL0     C31793   6.454   1.430   8.821  0.0681  0.2956  0.8964
  977MOL0     C31794   6.416   1.294   8.806 -0.2898 -0.4131  0.4042
  977MOL0     C31795   6.437   1.235   8.679 -0.7382  0.2703  0.1369
  977MOL0     O31796   6.407   1.109   8.639 -0.3069  0.1569 -0.7175
  977MOL0     C31797   6.421   1.012   8.742 -0.2863  0.1951 -0.5507
  977MOL0     C31798   6.440   0.865   8.690 -0.3771  0.1310 -0.7369
  977MOL0     C31799   6.562   0.843   8.605 -0.0068 -0.3717 -0.0495
  977MOL0     C31800   6.603   0.692   8.617 -1.3237 -0.1863 -0.8261
  977MOL0     C31801   6.730   0.648   8.530  0.0911 -1.0657  0.0133
  977MOL0     C31802   6.873   0.698   8.564 -0.2852  0.7094  0.4118
  977MOL0     C31803   6.977   0.648   8.450 -0.2090  0.1424 -0.1253
  977MOL0     C31804   7.101   0.722   8.455 -0.1405  0.4458 -0.1317
  977MOL0    Cl31805   7.143   0.777   8.622 -0.2259 -0.4477 -0.2593
  977MOL0     C31806   6.482   1.321   8.576  0.4804 -0.0523 -0.6414
  977MOL0     C31807   6.514   1.453   8.590  0.3942 -0.1202 -0.1911
  977MOL0     O31808   6.372   1.727   8.882  0.5801 -0.1365  0.2941
  977MOL0     C31809   6.596   1.915   8.702  0.5387 -0.0607 -0.7691
  977MOL0     C31810   6.670   2.034   8.706  0.1595 -0.1025  0.7719
  977MOL0     N31811   6.571   2.719   8.736 -0.1375 -0.5674  0.1453
  977MOL0     N31812   6.608   2.829   8.793 -0.5576 -0.4812  0.7953
  977MOL0     C31813   7.523   3.632   8.336 -0.4246  1.3103 -0.4102
  977MOL0     C31814   7.616   3.721   8.298 -0.5987 -0.0809  0.4630
  977MOL0     C31815   8.038   3.817   8.135 -0.5132  1.0206  1.3496
  977MOL0     C31816   8.102   3.768   8.015  0.0764  0.0341  0.5688
  977MOL0     C31817   8.194   3.849   7.944 -0.3560 -1.1234 -0.3667
  977MOL0     C31818   8.228   3.973   7.996  0.5906 -0.7821  0.8291
  977MOL0     O31819   8.323   4.052   7.937  0.2581 -0.0999  0.1025
  977MOL0     C31820   8.452   3.999   7.903  0.6108 -1.4150  0.6103
  977MOL0     C31821   8.552   4.108   7.852  0.0644 -0.1592  0.4790
  977MOL0     C31822   8.695   4.059   7.860 -0.3920 -0.3580  0.4187
  977MOL0     C31823   8.802   4.159   7.811 -0.0825 -0.2027 -0.1947
  977MOL0     C31824   8.933   4.102   7.843 -0.4038 -0.4369  0.0669
  977MOL0     C31825   9.042   4.050   7.853  0.1904  0.5393  0.0182
  977MOL0     C31826   8.161   4.020   8.111 -0.1357 -0.2067  0.5225
  977MOL0     C31827   8.068   3.942   8.174  1.0677 -0.8381  0.2299
  977MOL0     H31828   7.885   3.582   8.461  0.3960  2.8270  0.6731
  977MOL0     H31829   7.718   3.462   8.559  0.7635  0.9787  1.7248
  977MOL0     H31830   7.373   3.598   8.605 -0.2559  1.5332 -5.0662
  977MOL0     H31831   7.264   3.494   8.525  0.7160  1.3002 -2.3420
  977MOL0     H31832   7.446   3.373   8.754  1.0842  0.5955  1.9579
  977MOL0     H31833   7.310   3.487   8.787 -1.2252 -2.7841  0.7028
  977MOL0     H31834   7.256   3.234   8.626 -0.5207 -1.0618  0.6124
  977MOL0     H31835   7.281   3.220   8.802 -1.8950  1.3205  1.7851
  977MOL0     H31836   7.116   3.400   8.839  1.6429 -0.9767  0.4270
  977MOL0     H31837   7.082   3.392   8.663  1.5394 -1.5107 -1.9704
  977MOL0     H31838   7.079   3.143   8.816 -1.6305 -0.7276  2.0124
  977MOL0     H31839   6.937   3.243   8.853 -2.0720  1.7484 -2.6702
  977MOL0     H31840   6.878   3.262   8.619 -1.2199 -2.5307 -0.7408
  977MOL0     H31841   7.026   3.176   8.577 -1.8221  0.7827 -3.1723
  977MOL0     H31842   6.837   3.037   8.544 -1.5838  2.6959 -0.0329
  977MOL0     H31843   6.969   2.977   8.641  1.2488  2.6948 -1.4417
  977MOL0     H31844   6.710   3.080   8.770 -0.2342  0.6379 -0.4681
  977MOL0     H31845   6.841   3.014   8.854 -1.2709 -0.0052  0.0695
  977MOL0     H31846   6.875   2.751   8.623  0.2594 -0.5274  0.3893
  977MOL0     H31847   6.574   2.517   8.567 -0.4326  2.9260  2.4466
  977MOL0     H31848   6.676   2.603   8.458 -0.8600  1.3721 -0.3837
  977MOL0     H31849   6.878   2.502   8.589 -0.2183  1.6472 -1.5117
  977MOL0     H31850   6.778   2.400   8.477 -1.2407 -1.3826  1.0125
  977MOL0     H31851   6.652   2.304   8.621 -0.6039  3.0635 -0.7901
  977MOL0     H31852   6.681   2.421   8.756  0.8686 -0.2267  1.0578
  977MOL0     H31853   6.917   2.340   8.760 -3.0102  2.5933  0.9564
  977MOL0     H31854   6.881   2.213   8.645 -0.2223 -2.7053  3.3938
  977MOL0     H31855   6.661   2.116   9.021 -1.4743  2.8810 -1.5645
  977MOL0     H31856   6.516   1.799   9.099 -2.7204 -0.4750 -1.0539
  977MOL0     H31857   6.564   1.966   9.158 -0.0603 -0.6230  0.8226
  977MOL0     H31858   6.412   1.935   9.081  0.0781 -1.9099 -0.3550
  977MOL0     H31859   6.428   1.474   8.917 -1.0051  2.9421 -0.4947
  977MOL0     H31860   6.373   1.236   8.888 -1.8566  0.3652  0.1753
  977MOL0     H31861   6.503   1.030   8.812  0.3450 -0.7391 -1.0275
  977MOL0     H31862   6.338   1.002   8.812  1.5459  2.4497  2.1382
  977MOL0     H31863   6.449   0.792   8.772  3.9467 -0.1657 -1.2310
  977MOL0     H31864   6.354   0.834   8.631  0.0802  0.1403 -1.4149
  977MOL0     H31865   6.653   0.895   8.633  0.4674 -1.6758  0.9321
  977MOL0     H31866   6.532   0.863   8.502 -2.9079 -0.2272  0.7081
  977MOL0     H31867   6.613   0.656   8.719 -6.0023 -2.0495 -0.7538
  977MOL0     H31868   6.519   0.629   8.585  0.4533 -1.5406 -3.1064
  977MOL0     H31869   6.707   0.685   8.430  1.8481  0.1140 -0.0120
  977MOL0     H31870   6.719   0.539   8.533 -0.8678 -0.9562  0.9726
  977MOL0     H31871   6.873   0.807   8.557 -1.5181  0.6611 -0.8883
  977MOL0     H31872   6.889   0.665   8.667 -1.0338  0.0126  0.3153
  977MOL0     H31873   6.936   0.652   8.349  1.3798  1.5273 -0.7663
  977MOL0     H31874   6.998   0.543   8.468 -1.6467 -0.4375 -1.5544
  977MOL0     H31875   7.097   0.818   8.403 -0.7224  1.2992  1.4108
  977MOL0     H31876   7.183   0.670   8.406  0.4131  2.8269 -1.9260
  977MOL0     H31877   6.528   1.277   8.487  0.8983 -1.5521  0.2764
  977MOL0     H31878   6.545   1.506   8.501  1.5119  1.3635  1.0273
  977MOL0     H31879   6.564   1.869   8.609 -2.2369 -0.3761  0.2511
  977MOL0     H31880   6.699   2.069   8.608  0.1595 -1.2668  0.3383
  977MOL0     H31881   7.417   3.643   8.313 -0.5176 -0.1024 -0.7998
  977MOL0     H31882   7.583   3.804   8.237  0.1873  1.2275  1.7724
  977MOL0     H31883   8.080   3.672   7.970 -2.0307 -0.3172  2.1495
  977MOL0     H31884   8.249   3.817   7.856  0.5179 -1.8402  0.4136
  977MOL0     H31885   8.482   3.937   7.989  1.1483  0.1286  1.5719
  977MOL0     H31886   8.429   3.941   7.813  0.5178  1.3312 -1.2400
  977MOL0     H31887   8.529   4.200   7.907 -3.7179  0.9770 -2.5638
  977MOL0     H31888   8.526   4.131   7.749  0.3346  5.5537  1.3573
  977MOL0     H31889   8.713   3.964   7.808  1.9266 -0.6719  1.6499
  977MOL0     H31890   8.704   4.033   7.965 -0.9432 -3.3505 -0.1817
  977MOL0     H31891   8.790   4.257   7.857  1.9111 -0.5240  1.1311
  977MOL0     H31892   8.798   4.164   7.701 -0.1328  1.4058 -0.1537
  977MOL0     H31893   9.146   4.026   7.847 -0.6345 -3.5242 -1.5309
  977MOL0     H31894   8.194   4.121   8.136 -0.2869  0.1110 -0.5072
  977MOL0     H31895   8.033   3.996   8.262  1.4670 -3.1879  1.9293
  978MOL0     O31896   9.231  10.380   5.181 -0.7345  0.1318 -0.0162
  978MOL0     C31897   9.328  10.388   5.097  0.1530 -0.2805 -0.1039
  978MOL0     O31898   9.449  10.435   5.135 -0.2012 -0.4889  0.5363
  978MOL0     C31899   9.494  10.472   5.258 -0.5961 -0.0839 -0.6649
  978MOL0     C31900   9.438  10.567   5.334  0.0238  0.2119  0.0363
  978MOL0     C31901   9.482  10.606   5.464 -0.3333  1.4295 -0.1923
  978MOL0     C31902   9.600  10.540   5.514  0.3561 -0.5301  0.1622
  978MOL0     O31903   9.651  10.562   5.636 -0.9161  0.2417  0.1518
  978MOL0     C31904   9.619  10.453   5.723  0.4328  0.2254 -0.8947
  978MOL0     C31905   9.473  10.481   5.789 -0.8020  0.2599  0.4773
  978MOL0     C31906   9.433  10.369   5.872  0.8879 -0.1090 -0.2331
  978MOL0     C31907   9.290  10.404   5.908 -0.5242  1.0912 -0.7133
  978MOL0     C31908   9.221  10.297   5.993  0.8220 -0.1338 -0.0174
  978MOL0     C31909   9.068  10.304   6.004 -1.4902  0.4078 -0.5324
  978MOL0     C31910   8.983  10.371   5.900 -0.2762  0.2728 -0.2620
  978MOL0     C31911   8.838  10.360   5.946  0.4539  0.3950  0.2764
  978MOL0     N31912   8.759  10.450   5.856  0.1365 -0.1332 -0.4237
  978MOL0     C31913   8.698  10.417   5.740  1.2019  0.0489 -0.6315
  978MOL0     C31914   8.619  10.526   5.712 -0.7290 -0.2904 -0.2690
  978MOL0     C31915   8.537  10.521   5.590  0.6498  0.4686  0.9272
  978MOL0     C31916   8.439  10.636   5.564 -0.2217  0.2738 -0.2540
  978MOL0     C31917   8.510  10.767   5.536  0.1698  1.2333  0.0749
  978MOL0     C31918   8.417  10.863   5.446  0.8469  0.2722  0.7000
  978MOL0     O31919   8.478  10.983   5.427  0.6985 -0.2607  0.5400
  978MOL0     C31920   8.414  11.099   5.390  0.2114  0.2696  0.3470
  978MOL0     C31921   8.278  11.112   5.368 -0.1332 -0.0953 -0.3491
  978MOL0     C31922   8.228  11.236   5.331 -0.0855  0.7419 -0.4798
  978MOL0     C31923   8.077  11.235   5.323  0.1693 -0.5568  0.4967
  978MOL0     C31924   8.311  11.356   5.336 -0.4599  0.1586 -0.3327
  978MOL0     C31925   8.258  11.493   5.323  0.9159  0.1288 -0.6195
  978MOL0     O31926   8.295  11.587   5.423 -0.1767  0.6849 -0.9624
  978MOL0     C31927   8.208  11.683   5.464 -0.5680  0.3713 -0.1483
  978MOL0     C31928   8.267  11.804   5.513 -0.5059  0.1359 -0.5423
  978MOL0     C31929   8.191  11.920   5.538  0.2460 -0.1022  0.0256
  978MOL0     C31930   8.051  11.918   5.523  0.3808  0.5369  0.4333
  978MOL0     O31931   7.974  12.028   5.544  0.3200  0.1945 -0.3557
  978MOL0     C31932   8.028  12.157   5.506 -1.0932 -0.5419 -1.1573
  978MOL0     C31933   7.930  12.260   5.478  0.2615  0.4494 -0.9991
  978MOL0     C31934   7.850  12.295   5.613 -0.2010  0.1546  0.3454
  978MOL0     C31935   7.775  12.430   5.624 -0.3507  0.5725  0.0153
  978MOL0     C31936   7.695  12.438   5.749  0.4232 -0.5008  0.2719
  978MOL0     C31937   7.626  12.579   5.756  0.9083  1.1848  0.4007
  978MOL0     C31938   7.707  12.700   5.777  0.1834  0.5660 -0.3231
  978MOL0     C31939   7.633  12.832   5.718 -0.1746 -0.1999  0.6911
  978MOL0    Cl31940   7.633  12.810   5.542  0.3706  0.0414 -0.4460
  978MOL0     C31941   7.994  11.794   5.488  0.7829 -0.0135  0.8653
  978MOL0     C31942   8.071  11.682   5.454 -0.0170  0.7313 -0.0903
  978MOL0     O31943   8.172  11.513   5.234 -0.5050  0.3611 -0.3577
  978MOL0     C31944   8.441  11.342   5.373 -0.4908  0.2212  0.4674
  978MOL0     C31945   8.489  11.216   5.394 -0.5328  0.8642 -0.2261
  978MOL0     N31946   8.637  10.624   5.815 -0.1549  0.4140  0.7697
  978MOL0     N31947   8.710  10.565   5.907  0.6155 -0.8074 -0.3701
  978MOL0     C31948   9.663  10.453   5.436 -0.4036  0.5503 -0.7232
  978MOL0     C31949   9.621  10.425   5.301 -0.1515  0.0584  0.1373
  978MOL0     C31950   9.306  10.362   4.949 -0.1665 -0.0311  0.0272
  978MOL0     C31951   9.384  10.417   4.847  0.1525 -0.2194  0.4155
  978MOL0     C31952   9.339  10.407   4.715 -0.7330 -0.6139  0.1155
  978MOL0     C31953   9.221  10.346   4.676 -0.6736 -0.7558 -0.5736
  978MOL0     O31954   9.187  10.348   4.541  0.2408 -0.8428  0.0718
  978MOL0     C31955   9.074  10.268   4.490 -1.0374 -0.2619 -0.9427
  978MOL0     C31956   9.039  10.255   4.346 -0.4458  0.2290 -0.7085
  978MOL0     C31957   9.159  10.235   4.258  0.0431  0.5193 -0.5474
  978MOL0     C31958   9.198  10.085   4.232  0.3717 -0.2038  0.0770
  978MOL0     C31959   9.084  10.024   4.165 -0.2665  0.1886 -0.0330
  978MOL0     C31960   9.005   9.963   4.097  1.1020 -0.2563 -0.1521
  978MOL0     C31961   9.148  10.281   4.777 -0.7351  0.4116  0.2016
  978MOL0     C31962   9.190  10.290   4.913  0.6354  0.0986  0.9607
  978MOL0     H31963   9.343  10.607   5.301 -0.9506  0.2144  2.6646
  978MOL0     H31964   9.433  10.689   5.514 -1.1797  0.2702  0.9535
  978MOL0     H31965   9.619  10.353   5.678 -1.9112 -0.8718  1.3029
  978MOL0     H31966   9.694  10.452   5.804  2.5669 -1.5514 -2.7605
  978MOL0     H31967   9.486  10.568   5.854 -0.2885 -0.4939  1.4104
  978MOL0     H31968   9.416  10.520   5.704  0.8203  1.4997 -0.1094
  978MOL0     H31969   9.440  10.275   5.816 -1.2500 -0.2727 -0.2949
  978MOL0     H31970   9.492  10.376   5.964  0.0353  0.9915  0.2426
  978MOL0     H31971   9.291  10.492   5.972  2.0483  1.0140 -0.5433
  978MOL0     H31972   9.228  10.419   5.819 -0.6953  0.7695 -0.6500
  978MOL0     H31973   9.244  10.199   5.951 -1.0251  0.1459 -1.8550
  978MOL0     H31974   9.271  10.307   6.089 -1.3381  2.4544  0.9732
  978MOL0     H31975   9.031  10.202   6.020  1.7202 -0.7362  0.3165
  978MOL0     H31976   9.051  10.363   6.095  0.4872  3.5980 -2.0512
  978MOL0     H31977   9.014  10.476   5.890 -0.7369  0.6535  1.8091
  978MOL0     H31978   8.998  10.320   5.804 -2.9601 -1.6958  0.2676
  978MOL0     H31979   8.841  10.384   6.052  2.5440 -6.3091  2.2364
  978MOL0     H31980   8.808  10.255   5.947  0.4068  0.4033 -0.0073
  978MOL0     H31981   8.683  10.325   5.686  0.0687 -0.5417  0.6125
  978MOL0     H31982   8.604  10.510   5.504  1.6730  1.2204  1.5992
  978MOL0     H31983   8.467  10.438   5.602 -0.5573  1.5229  1.4350
  978MOL0     H31984   8.380  10.647   5.655  0.1757 -4.8635  0.9186
  978MOL0     H31985   8.366  10.604   5.488 -1.9019 -1.0349  1.7911
  978MOL0     H31986   8.601  10.743   5.481 -0.5233 -1.7782  0.0498
  978MOL0     H31987   8.547  10.821   5.623  2.5419 -0.1659  0.0385
  978MOL0     H31988   8.325  10.887   5.500  3.0592  1.9244  4.1673
  978MOL0     H31989   8.397  10.818   5.349  3.0421  1.5069 -0.4018
  978MOL0     H31990   8.204  11.037   5.390 -1.0057  0.5773 -0.9189
  978MOL0     H31991   8.034  11.293   5.406  2.9070  0.8340  1.0711
  978MOL0     H31992   8.036  11.274   5.230 -1.1370 -0.7367  0.9750
  978MOL0     H31993   8.048  11.129   5.330 -0.7168 -0.3042  0.7719
  978MOL0     H31994   8.374  11.815   5.525 -0.8366  4.6182 -0.3563
  978MOL0     H31995   8.235  12.016   5.565 -2.8087  1.0023  1.5253
  978MOL0     H31996   8.087  12.197   5.588 -2.0470 -0.2810 -0.5813
  978MOL0     H31997   8.089  12.164   5.416 -1.3885  4.7045 -1.2435
  978MOL0     H31998   7.987  12.347   5.443 -0.7777  1.1462 -0.9926
  978MOL0     H31999   7.857  12.232   5.401 -0.5546 -0.3264  0.0394
  978MOL0     H32000   7.926  12.288   5.691 -0.3216  2.2211  0.6932
  978MOL0     H32001   7.774  12.220   5.635 -0.2628  0.3818  0.9184
  978MOL0     H32002   7.844  12.515   5.621  1.4677 -0.4900  4.4023
  978MOL0     H32003   7.696  12.419   5.549 -0.1165  0.7325 -0.2551
  978MOL0     H32004   7.760  12.432   5.837 -0.7756 -0.6238  1.1705
  978MOL0     H32005   7.620  12.359   5.753  0.7075 -1.0535 -2.8463
  978MOL0     H32006   7.561  12.596   5.670 -0.9654  3.8818  2.1868
  978MOL0     H32007   7.560  12.570   5.843 -1.8725  0.7509 -1.6093
  978MOL0     H32008   7.806  12.688   5.732  0.3135  1.8954 -0.4306
  978MOL0     H32009   7.712  12.708   5.886 -1.6059  1.4107 -0.2696
  978MOL0     H32010   7.679  12.927   5.747 -0.5948 -0.4051  2.0843
  978MOL0     H32011   7.529  12.847   5.748 -0.0822  2.3811 -0.0446
  978MOL0     H32012   7.889  11.790   5.465  0.0659  1.0514  3.4793
  978MOL0     H32013   8.027  11.593   5.410  2.2927  1.5036 -4.5636
  978MOL0     H32014   8.506  11.429   5.366 -2.7091  1.9319 -0.1599
  978MOL0     H32015   8.594  11.211   5.419 -1.3164 -1.5875  3.5204
  978MOL0     H32016   9.753  10.410   5.478 -0.8430 -0.9944 -1.2618
  978MOL0     H32017   9.662  10.339   5.249 -1.0560  0.3739 -1.1379
  978MOL0     H32018   9.479  10.462   4.873  1.0596 -1.3631 -0.7995
  978MOL0     H32019   9.407  10.448   4.641  0.1694 -0.6037  0.9250
  978MOL0     H32020   9.104  10.170   4.530 -0.5980  1.4061  3.2692
  978MOL0     H32021   8.983  10.296   4.544 -0.5920 -1.0529  0.2711
  978MOL0     H32022   8.996  10.351   4.316 -0.6991  0.4369  0.2794
  978MOL0     H32023   8.958  10.183   4.332  0.8421 -1.2595 -0.7624
  978MOL0     H32024   9.242  10.281   4.313  0.1153 -1.6620  1.3089
  978MOL0     H32025   9.136  10.291   4.167 -0.6905  1.5355  0.2411
  978MOL0     H32026   9.217  10.030   4.325 -1.0668 -0.2899  0.3429
  978MOL0     H32027   9.276  10.075   4.156  0.3350  0.3911 -0.0431
  978MOL0     H32028   8.948   9.913   4.022 -1.7720  0.2169  1.5715
  978MOL0     H32029   9.064  10.220   4.745 -0.8356  0.3047  0.6715
  978MOL0     H32030   9.138  10.228   4.985 -0.6768  0.0626  0.0049
  979MOL0     O32031   8.577   4.598   5.088 -0.4909 -0.6284 -0.3274
  979MOL0     C32032   8.581   4.673   5.182 -0.2595 -0.8255 -1.0276
  979MOL0     O32033   8.648   4.645   5.302 -0.2181  0.7439 -0.5114
  979MOL0     C32034   8.750   4.546   5.298 -0.0197 -0.6414  0.0640
  979MOL0     C32035   8.878   4.593   5.276  0.6515  0.1844 -0.3877
  979MOL0     C32036   8.993   4.510   5.277 -0.7245 -0.1905 -0.8470
  979MOL0     C32037   8.973   4.369   5.276 -0.8721  0.3138 -0.9927
  979MOL0     O32038   9.089   4.289   5.258  1.0621  0.1286  0.3702
  979MOL0     C32039   9.161   4.320   5.140 -0.2766 -0.6634 -0.4563
  979MOL0     C32040   9.246   4.205   5.078  0.6894  0.9065  0.6109
  979MOL0     C32041   9.335   4.130   5.174 -0.2449  0.6882 -0.7315
  979MOL0     C32042   9.344   3.977   5.139  0.2517 -0.1381 -0.5593
  979MOL0     C32043   9.461   3.894   5.204  0.3268 -0.4679  0.7953
  979MOL0     C32044   9.600   3.888   5.127  0.0906  0.6435 -1.3948
  979MOL0     C32045   9.701   3.997   5.153 -0.6535 -0.0996 -0.5005
  979MOL0     C32046   9.758   4.021   5.294  0.2225 -0.0867  0.0484
  979MOL0     N32047   9.766   3.902   5.371  0.1980  0.8654 -0.2281
  979MOL0     C32048   9.854   3.800   5.345  0.7598 -0.7273  0.0570
  979MOL0     C32049   9.866   3.727   5.460 -0.5959 -0.2376  0.0806
  979MOL0     C32050   9.948   3.613   5.484  0.1426 -0.0245  0.0598
  979MOL0     C32051  10.088   3.649   5.540  0.1546 -0.6757  0.9647
  979MOL0     C32052  10.090   3.668   5.687 -0.3035  0.3921  0.2201
  979MOL0     C32053  10.239   3.709   5.714  0.5320 -0.1224 -0.5353
  979MOL0     O32054  10.335   3.600   5.724  0.3264  0.3115  0.6051
  979MOL0     C32055  10.339   3.500   5.818 -0.1899 -0.2717  0.6090
  979MOL0     C32056  10.422   3.396   5.800 -0.6973 -1.4057  0.5553
  979MOL0     C32057  10.453   3.293   5.889 -0.3270  0.2499 -0.7037
  979MOL0     C32058  10.541   3.175   5.828 -0.0141 -1.0260 -0.7816
  979MOL0     C32059  10.383   3.299   6.016  1.0814 -1.4035 -0.2404
  979MOL0     C32060  10.398   3.185   6.108  0.4272 -0.1900  0.2239
  979MOL0     O32061  10.433   3.216   6.234  0.2151 -0.1219  0.7954
  979MOL0     C32062  10.467   3.118   6.328  0.1815 -0.1963  1.2938
  979MOL0     C32063  10.531   2.993   6.301 -0.0911 -0.5161  1.0318
  979MOL0     C32064  10.559   2.901   6.406 -0.2425 -0.3741  0.8511
  979MOL0     C32065  10.514   2.926   6.535 -0.4434 -0.4142 -0.1856
  979MOL0     O32066  10.548   2.826   6.633  0.1300 -0.3823 -0.9164
  979MOL0     C32067  10.519   2.848   6.766 -0.4840 -0.1171 -0.2348
  979MOL0     C32068  10.569   2.727   6.846 -0.2529 -0.6273  0.3442
  979MOL0     C32069  10.527   2.732   6.990 -0.5388 -0.0863 -0.4896
  979MOL0     C32070  10.551   2.863   7.054  0.4802 -0.2038  0.4811
  979MOL0     C32071  10.519   2.854   7.204 -1.4734 -0.4631 -0.1626
  979MOL0     C32072  10.546   2.987   7.279  0.1085  0.4677  0.5978
  979MOL0     C32073  10.556   2.946   7.429  0.5694 -0.7012  1.2563
  979MOL0     C32074  10.541   3.070   7.516  0.8536  0.4408  0.3865
  979MOL0    Cl32075  10.667   3.200   7.452 -0.1491 -0.3413 -0.2406
  979MOL0     C32076  10.456   3.049   6.561 -0.8523 -0.5297 -0.4834
  979MOL0     C32077  10.446   3.146   6.460 -0.0477  0.2908  0.7684
  979MOL0     O32078  10.385   3.075   6.057  0.8283 -0.4295 -0.6823
  979MOL0     C32079  10.295   3.406   6.042  0.7516 -0.8569 -0.2935
  979MOL0     C32080  10.281   3.505   5.946  0.7784  0.2895 -0.7929
  979MOL0     N32081   9.779   3.793   5.554 -0.7767 -0.3188 -0.0243
  979MOL0     N32082   9.726   3.895   5.502  0.0953  0.2414 -0.1394
  979MOL0     C32083   8.841   4.317   5.293  0.0094 -0.1291 -0.1868
  979MOL0     C32084   8.728   4.406   5.312  0.7994  0.1589  0.1741
  979MOL0     C32085   8.522   4.814   5.168 -0.0993 -0.1241  0.8134
  979MOL0     C32086   8.445   4.845   5.058  0.6123  0.4424  0.7780
  979MOL0     C32087   8.371   4.965   5.056 -0.0019  0.5205  0.2333
  979MOL0     C32088   8.376   5.058   5.160 -0.8429 -0.2397  0.8327
  979MOL0     O32089   8.307   5.185   5.162 -0.0153  0.1960 -0.1334
  979MOL0     C32090   8.226   5.210   5.053 -0.3208 -0.2362 -0.0871
  979MOL0     C32091   8.184   5.356   5.060  0.3920 -0.4430  0.1979
  979MOL0     C32092   8.071   5.388   4.954  0.4238  0.4152  0.6008
  979MOL0     C32093   7.964   5.271   4.925 -0.6747  0.5309 -1.2808
  979MOL0     C32094   7.907   5.218   5.050 -0.5636 -0.2395  0.9463
  979MOL0     C32095   7.862   5.172   5.151  0.4937 -0.2508 -0.2343
  979MOL0     C32096   8.467   5.028   5.265 -0.0743  0.1321 -0.0101
  979MOL0     C32097   8.537   4.908   5.275  0.4387 -0.2166  0.8206
  979MOL0     H32098   8.895   4.700   5.270  0.4470  0.1913 -0.9013
  979MOL0     H32099   9.094   4.551   5.276 -0.8979  0.5057  2.1870
  979MOL0     H32100   9.098   4.369   5.065 -0.3286  0.8423  0.5359
  979MOL0     H32101   9.232   4.394   5.177 -1.2191 -0.8655  1.9449
  979MOL0     H32102   9.167   4.135   5.050  1.5596  0.5890 -1.2149
  979MOL0     H32103   9.302   4.235   4.989  1.4532 -1.0059  0.3904
  979MOL0     H32104   9.439   4.159   5.153 -0.9322  1.6938 -3.0532
  979MOL0     H32105   9.311   4.141   5.280  1.3749  0.8002 -0.3350
  979MOL0     H32106   9.250   3.927   5.166 -0.0387  0.7593  0.1281
  979MOL0     H32107   9.361   3.975   5.031 -3.7370  0.8700 -1.3841
  979MOL0     H32108   9.468   3.921   5.310 -0.8690  1.3366  0.4661
  979MOL0     H32109   9.419   3.794   5.192 -1.9761  0.5686 -0.3308
  979MOL0     H32110   9.637   3.790   5.156 -0.9715  0.3611 -0.9378
  979MOL0     H32111   9.587   3.884   5.018 -1.6658  0.9215 -1.2264
  979MOL0     H32112   9.781   3.963   5.086  0.7286  3.0508 -0.6494
  979MOL0     H32113   9.653   4.090   5.123  1.7201  0.7475 -1.9632
  979MOL0     H32114   9.698   4.099   5.341  0.9484  1.3199 -1.2848
  979MOL0     H32115   9.855   4.070   5.281  0.3182  0.2972  1.9579
  979MOL0     H32116   9.920   3.780   5.261  0.9148  0.3553 -0.0882
  979MOL0     H32117   9.885   3.559   5.555  1.3399  0.9986  1.9658
  979MOL0     H32118   9.952   3.553   5.392 -0.8414  0.5560 -0.3738
  979MOL0     H32119  10.139   3.726   5.481  0.4035 -2.0406 -0.6878
  979MOL0     H32120  10.152   3.563   5.515 -0.5561 -0.7697 -0.6465
  979MOL0     H32121  10.064   3.577   5.741 -4.0506  0.9372 -0.3917
  979MOL0     H32122  10.033   3.756   5.718  0.6298  0.3812  2.0960
  979MOL0     H32123  10.229   3.766   5.806 -0.5813  1.0411 -1.3427
  979MOL0     H32124  10.276   3.781   5.640 -1.2189  2.5100  0.9898
  979MOL0     H32125  10.491   3.419   5.720 -2.3462  3.2898  0.2158
  979MOL0     H32126  10.507   3.073   5.851  0.6556 -0.7599  1.6160
  979MOL0     H32127  10.561   3.174   5.720  0.3627  0.6082 -0.7472
  979MOL0     H32128  10.644   3.179   5.865 -0.1703 -1.3298 -0.3094
  979MOL0     H32129  10.558   2.964   6.200 -2.9083 -1.8781  0.5595
  979MOL0     H32130  10.588   2.804   6.367 -2.6069  0.5240 -3.9814
  979MOL0     H32131  10.566   2.939   6.807 -1.0002  1.1812 -2.3701
  979MOL0     H32132  10.413   2.865   6.782 -0.6064 -1.8456  1.0003
  979MOL0     H32133  10.524   2.634   6.811 -3.7529  1.1055 -0.1362
  979MOL0     H32134  10.677   2.727   6.829 -0.1637 -0.7435  0.8849
  979MOL0     H32135  10.575   2.650   7.044  0.5192  1.8212  1.6069
  979MOL0     H32136  10.419   2.712   6.997 -0.7991  0.6208 -2.0006
  979MOL0     H32137  10.649   2.910   7.045 -0.8401  2.6348 -0.0706
  979MOL0     H32138  10.473   2.925   7.009  0.8062 -1.8288 -2.6215
  979MOL0     H32139  10.572   2.769   7.247 -1.6350 -0.6554 -0.3393
  979MOL0     H32140  10.417   2.822   7.227 -0.6375 -3.8916 -0.6950
  979MOL0     H32141  10.639   3.029   7.242  1.0179 -2.1633 -0.3080
  979MOL0     H32142  10.465   3.059   7.264  0.1125  0.3090 -0.2182
  979MOL0     H32143  10.644   2.882   7.439  1.5480  0.4016  0.0645
  979MOL0     H32144  10.468   2.887   7.459 -1.5129  0.9782 -1.1745
  979MOL0     H32145  10.564   3.037   7.618  1.2534 -0.9157 -0.1212
  979MOL0     H32146  10.436   3.101   7.524 -0.2735 -3.0739  0.7334
  979MOL0     H32147  10.417   3.093   6.652 -1.2903  0.1806 -1.0013
  979MOL0     H32148  10.410   3.247   6.478  0.5056  0.4689  0.8914
  979MOL0     H32149  10.251   3.426   6.139  3.2477  0.0081  0.7507
  979MOL0     H32150  10.212   3.583   5.978  3.6294  1.3147  3.5869
  979MOL0     H32151   8.829   4.210   5.284 -0.3831  0.0774 -2.7416
  979MOL0     H32152   8.633   4.385   5.359 -0.3013  0.8207 -1.6291
  979MOL0     H32153   8.435   4.791   4.965  1.1436  0.2370  0.8353
  979MOL0     H32154   8.306   4.967   4.969 -0.9030 -5.1420  0.4316
  979MOL0     H32155   8.277   5.188   4.959  3.6576  0.7315  1.6436
  979MOL0     H32156   8.147   5.134   5.057 -0.2450 -0.5243 -2.7083
  979MOL0     H32157   8.270   5.422   5.050 -0.5271  0.6844 -0.4891
  979MOL0     H32158   8.144   5.383   5.159  2.0350  2.3431  0.2077
  979MOL0     H32159   8.126   5.408   4.861  0.2543 -0.1771  0.3621
  979MOL0     H32160   8.020   5.477   4.991 -2.2683  1.0732 -3.9459
  979MOL0     H32161   8.015   5.196   4.864 -0.4767  1.2114 -1.9795
  979MOL0     H32162   7.881   5.304   4.861  0.2437  0.7575 -2.3859
  979MOL0     H32163   7.826   5.132   5.243  0.8216  3.2884  1.5992
  979MOL0     H32164   8.480   5.086   5.356 -0.0159  2.8532 -1.6585
  979MOL0     H32165   8.593   4.899   5.368 -2.0556 -0.9249  2.3565
  980MOL0     O32166   2.449   2.243   8.445  0.1894  0.1206  0.1446
  980MOL0     C32167   2.502   2.273   8.549 -0.9254  0.8478 -0.2478
  980MOL0     O32168   2.528   2.402   8.598  0.6920  0.3292  0.0504
  980MOL0     C32169   2.508   2.505   8.505  0.2303  0.0710  0.1193
  980MOL0     C32170   2.620   2.569   8.447  0.3045  0.1600 -0.8127
  980MOL0     C32171   2.608   2.682   8.363  0.3660 -0.0465 -0.0706
  980MOL0     C32172   2.480   2.731   8.333  0.0403 -0.3027  0.5080
  980MOL0     O32173   2.467   2.848   8.258 -0.2285 -0.8803 -0.1103
  980MOL0     C32174   2.344   2.878   8.188  0.2769 -0.1304 -0.2317
  980MOL0     C32175   2.354   3.019   8.130  0.2276  0.0159  0.1465
  980MOL0     C32176   2.254   3.051   8.015  0.2528 -0.1867 -0.2083
  980MOL0     C32177   2.279   3.191   7.957 -0.3139  0.1670  0.4051
  980MOL0     C32178   2.171   3.243   7.860  0.5456  0.0603 -0.5374
  980MOL0     C32179   2.196   3.398   7.859  0.7250  0.0456 -0.1996
  980MOL0     C32180   2.094   3.472   7.775 -0.7292 -0.8375  0.0802
  980MOL0     C32181   2.121   3.459   7.621 -0.3906 -0.1709 -0.7907
  980MOL0     N32182   2.258   3.512   7.591  0.5458 -0.0850 -0.2630
  980MOL0     C32183   2.301   3.647   7.588 -0.0631  0.1410 -0.6205
  980MOL0     C32184   2.417   3.643   7.522 -0.2792  0.3989  0.0507
  980MOL0     C32185   2.490   3.762   7.488 -0.6596 -0.3858  0.5960
  980MOL0     C32186   2.457   3.806   7.352 -0.6625  0.1645  0.4298
  980MOL0     C32187   2.562   3.793   7.238 -0.7610 -0.1113  0.0494
  980MOL0     C32188   2.509   3.804   7.093  0.2095 -0.0366 -1.2882
  980MOL0     O32189   2.615   3.785   7.003  0.0851 -0.3973 -0.0600
  980MOL0     C32190   2.569   3.785   6.880  0.6520 -0.3996  0.4881
  980MOL0     C32191   2.593   3.897   6.796 -0.8319 -0.0774  0.5209
  980MOL0     C32192   2.556   3.910   6.661  0.3875  0.8250  0.3810
  980MOL0     C32193   2.632   4.017   6.582 -0.5648  0.3866 -0.8738
  980MOL0     C32194   2.478   3.807   6.608 -0.2188 -0.9646  0.0628
  980MOL0     C32195   2.429   3.813   6.462 -0.6160 -0.5626 -0.2202
  980MOL0     O32196   2.316   3.737   6.432 -0.4917 -0.0642 -0.1139
  980MOL0     C32197   2.265   3.729   6.303  0.6449 -0.7896 -0.5344
  980MOL0     C32198   2.128   3.746   6.284  0.6008 -0.6552  1.0604
  980MOL0     C32199   2.078   3.753   6.154 -0.6064 -1.0548  0.4036
  980MOL0     C32200   2.163   3.721   6.044  0.3465 -0.3292 -0.0320
  980MOL0     O32201   2.122   3.719   5.913  0.5790  0.0224 -0.0611
  980MOL0     C32202   1.986   3.738   5.885 -0.5820 -0.1916 -0.2694
  980MOL0     C32203   1.981   3.777   5.740  0.8879  0.3231  0.0073
  980MOL0     C32204   1.834   3.779   5.693  0.1580  0.0932 -0.2591
  980MOL0     C32205   1.823   3.822   5.547  1.3060  0.0465 -0.7071
  980MOL0     C32206   1.876   3.732   5.436  0.3025  0.0496  0.2770
  980MOL0     C32207   1.850   3.805   5.300 -0.8549 -0.5126 -0.1116
  980MOL0     C32208   1.885   3.696   5.191 -0.5896 -0.2020 -0.5407
  980MOL0     C32209   1.914   3.770   5.054 -0.0261 -0.5948 -0.8495
  980MOL0    Cl32210   1.756   3.807   4.986 -0.0344 -0.4882 -0.1847
  980MOL0     C32211   2.294   3.686   6.062 -0.5803  0.4145 -0.0270
  980MOL0     C32212   2.350   3.699   6.192  0.4444  0.0366  0.6716
  980MOL0     O32213   2.496   3.876   6.383  0.2131  0.7155  0.1104
  980MOL0     C32214   2.431   3.699   6.692 -0.2260  0.3239  0.0246
  980MOL0     C32215   2.480   3.691   6.828 -1.1126 -0.2218 -0.3293
  980MOL0     N32216   2.444   3.514   7.483 -0.2588 -0.5921  0.3307
  980MOL0     N32217   2.354   3.441   7.523 -0.0155  0.4239 -0.3739
  980MOL0     C32218   2.366   2.666   8.392 -0.4340 -0.6634  0.7347
  980MOL0     C32219   2.380   2.557   8.466 -0.6503 -0.0484 -0.6596
  980MOL0     C32220   2.554   2.161   8.638 -0.2199  0.4197 -1.5159
  980MOL0     C32221   2.585   2.195   8.776 -1.4279  0.3119  0.8700
  980MOL0     C32222   2.629   2.105   8.871 -0.3913 -0.6135  0.5159
  980MOL0     C32223   2.655   1.975   8.826 -0.9032  0.3263  0.1654
  980MOL0     O32224   2.696   1.877   8.918  0.0931  0.1657  0.2939
  980MOL0     C32225   2.604   1.777   8.965  0.2230  0.0455 -0.8966
  980MOL0     C32226   2.607   1.768   9.116  0.2167 -1.0565  0.3469
  980MOL0     C32227   2.747   1.773   9.174 -0.5833  0.3430  0.0438
  980MOL0     C32228   2.838   1.890   9.165 -1.0125  0.0217 -1.1895
  980MOL0     C32229   2.780   2.001   9.241  0.3028 -0.3221  0.6546
  980MOL0     C32230   2.741   2.083   9.322 -0.2357 -1.0148  0.2304
  980MOL0     C32231   2.638   1.938   8.695 -0.4101 -0.1933 -0.5190
  980MOL0     C32232   2.583   2.029   8.596 -0.9174  0.5791  0.2544
  980MOL0     H32233   2.721   2.531   8.464  0.3796  0.7211  0.0510
  980MOL0     H32234   2.700   2.727   8.328  1.7281 -0.4035  2.7691
  980MOL0     H32235   2.336   2.812   8.101 -2.0653  1.1911 -1.1123
  980MOL0     H32236   2.251   2.871   8.244  0.5001 -1.0965  0.0384
  980MOL0     H32237   2.350   3.100   8.203 -1.7460  0.4419 -0.3735
  980MOL0     H32238   2.458   3.015   8.094  0.5850 -2.3076  1.2981
  980MOL0     H32239   2.263   2.984   7.929 -2.8438 -1.0119  0.0049
  980MOL0     H32240   2.151   3.033   8.047 -0.5601  0.0217 -2.5052
  980MOL0     H32241   2.290   3.262   8.039 -0.5555  1.2508 -0.4833
  980MOL0     H32242   2.372   3.187   7.899 -0.1350  0.4885  0.6646
  980MOL0     H32243   2.200   3.193   7.767  1.7671  1.2248 -0.8080
  980MOL0     H32244   2.069   3.226   7.896  2.0028  0.6885  4.6598
  980MOL0     H32245   2.190   3.444   7.958  1.9833  1.4001 -0.7077
  980MOL0     H32246   2.302   3.408   7.830  0.6922 -0.5459 -0.5365
  980MOL0     H32247   1.992   3.435   7.787 -0.9036 -1.1171 -1.9148
  980MOL0     H32248   2.101   3.579   7.798 -0.5145 -0.8476  0.0655
  980MOL0     H32249   2.046   3.518   7.567 -0.3814  1.7463  1.1919
  980MOL0     H32250   2.119   3.357   7.579  2.1605 -0.0577 -1.3440
  980MOL0     H32251   2.243   3.733   7.622 -3.2235 -1.4994 -1.4683
  980MOL0     H32252   2.472   3.848   7.553 -1.0451 -0.6574  0.8507
  980MOL0     H32253   2.595   3.734   7.498 -1.1907 -2.5713  0.4516
  980MOL0     H32254   2.422   3.910   7.355 -1.7547 -0.2167  2.0053
  980MOL0     H32255   2.374   3.751   7.306 -1.1771  0.8256  0.5480
  980MOL0     H32256   2.615   3.698   7.253 -0.0850 -0.0260 -1.6273
  980MOL0     H32257   2.623   3.880   7.262 -1.6299 -0.0326  2.1860
  980MOL0     H32258   2.478   3.908   7.084 -3.3404 -0.3188  3.7027
  980MOL0     H32259   2.419   3.744   7.077  0.5174 -1.3507  1.3212
  980MOL0     H32260   2.662   3.969   6.840  1.7864 -2.2905  0.2978
  980MOL0     H32261   2.684   4.077   6.657 -0.3101  1.5307 -1.9391
  980MOL0     H32262   2.709   3.987   6.511 -0.6693 -0.2563 -0.7195
  980MOL0     H32263   2.556   4.082   6.538 -1.2642  0.5538  0.5073
  980MOL0     H32264   2.067   3.774   6.370  2.5943  2.8978  1.5045
  980MOL0     H32265   1.974   3.774   6.129  0.1745  1.0269 -1.4299
  980MOL0     H32266   1.932   3.646   5.911 -4.1573  2.0355  0.9349
  980MOL0     H32267   1.941   3.818   5.945 -0.7213  0.5806 -1.3810
  980MOL0     H32268   2.021   3.876   5.716 -0.1669  1.3504  2.1705
  980MOL0     H32269   2.033   3.698   5.687  0.5439  0.0903  0.0129
  980MOL0     H32270   1.784   3.844   5.765 -0.3162 -1.9223  1.3298
  980MOL0     H32271   1.789   3.680   5.707 -1.2132  0.2688 -2.9015
  980MOL0     H32272   1.715   3.832   5.533  1.1243 -0.9874 -0.1828
  980MOL0     H32273   1.852   3.927   5.533 -2.5599  0.8573 -5.5151
  980MOL0     H32274   1.819   3.639   5.448 -0.5428  0.6991  1.6952
  980MOL0     H32275   1.981   3.706   5.444  0.8566  2.2891  0.9821
  980MOL0     H32276   1.750   3.848   5.291  0.2092  2.1249 -0.2107
  980MOL0     H32277   1.918   3.891   5.296 -4.5843  2.7147 -2.7680
  980MOL0     H32278   1.803   3.626   5.176 -1.7461  0.8683  0.5778
  980MOL0     H32279   1.976   3.639   5.212 -0.5548 -0.5662 -1.6219
  980MOL0     H32280   1.960   3.690   4.995  0.4935 -2.2189  1.6236
  980MOL0     H32281   1.968   3.864   5.059 -4.5319  2.4624 -2.7063
  980MOL0     H32282   2.368   3.662   5.986 -3.3625 -0.2813 -2.7130
  980MOL0     H32283   2.457   3.691   6.205  0.6250 -3.1298 -1.6172
  980MOL0     H32284   2.365   3.623   6.655 -3.9021  2.7271  1.1117
  980MOL0     H32285   2.450   3.596   6.872 -0.5528 -0.0395  0.4482
  980MOL0     H32286   2.264   2.697   8.368  0.5052  1.0997 -1.3422
  980MOL0     H32287   2.289   2.525   8.514 -1.8001  3.4461 -0.2252
  980MOL0     H32288   2.545   2.291   8.806 -0.3910  0.3967  2.0565
  980MOL0     H32289   2.651   2.148   8.968 -3.8444  1.9541  0.3773
  980MOL0     H32290   2.501   1.799   8.933  0.0676  0.6387 -0.0219
  980MOL0     H32291   2.632   1.677   8.932  0.8916 -1.8517  4.4565
  980MOL0     H32292   2.554   1.674   9.132 -3.4423  0.5923 -0.9095
  980MOL0     H32293   2.542   1.847   9.154 -4.5106 -3.7289 -1.2645
  980MOL0     H32294   2.795   1.693   9.116 -0.5864 -0.6723  1.4036
  980MOL0     H32295   2.739   1.747   9.280 -1.5909 -0.4167 -0.2138
  980MOL0     H32296   2.867   1.914   9.063  0.6971 -0.0767 -0.7619
  980MOL0     H32297   2.935   1.871   9.211 -0.8916  2.2239 -0.4107
  980MOL0     H32298   2.703   2.149   9.397 -0.1637 -0.7491  0.0324
  980MOL0     H32299   2.666   1.838   8.665  1.8355 -0.3871  1.8016
  980MOL0     H32300   2.569   2.001   8.492  1.6504 -1.0893  0.2701
  981MOL0     O32301   1.682   4.443   4.091 -0.8493  0.4260  0.3410
  981MOL0     C32302   1.619   4.349   4.138  0.5051  0.2649  0.2829
  981MOL0     O32303   1.612   4.319   4.269 -0.5616  0.0015  0.3456
  981MOL0     C32304   1.647   4.412   4.363 -0.6035 -0.2102  0.1067
  981MOL0     C32305   1.692   4.362   4.490  0.7157  0.0355 -0.4177
  981MOL0     C32306   1.742   4.443   4.586 -0.6843 -0.2011 -1.1297
  981MOL0     C32307   1.741   4.581   4.570 -0.7977 -0.9270  0.1793
  981MOL0     O32308   1.797   4.661   4.664 -0.2210 -0.2611  0.5422
  981MOL0     C32309   1.937   4.642   4.663  0.9300 -0.0093 -0.3998
  981MOL0     C32310   1.988   4.751   4.767 -0.4788  0.0704  0.1334
  981MOL0     C32311   1.951   4.891   4.735 -0.3598  0.3106  0.7584
  981MOL0     C32312   2.027   4.979   4.844 -0.0110 -0.1678  0.8770
  981MOL0     C32313   2.014   5.135   4.807 -0.4590 -0.3336  0.1435
  981MOL0     C32314   2.122   5.163   4.701  0.0186 -0.7470  0.1824
  981MOL0     C32315   2.121   5.316   4.670  0.2035 -0.2233  0.3350
  981MOL0     C32316   2.172   5.331   4.525 -0.3149 -0.9019 -0.8349
  981MOL0     N32317   2.159   5.488   4.507  0.8656  0.4179  0.4618
  981MOL0     C32318   2.253   5.583   4.528 -0.8342  0.3564  0.1913
  981MOL0     C32319   2.199   5.698   4.477  0.2304  0.3930 -0.3873
  981MOL0     C32320   2.253   5.846   4.478  0.5073 -0.0656 -0.6376
  981MOL0     C32321   2.209   5.925   4.603  0.8415  0.2197 -0.1106
  981MOL0     C32322   2.277   6.060   4.635  0.1147 -0.2658  0.4814
  981MOL0     C32323   2.266   6.166   4.522 -0.3252  0.6435 -0.1558
  981MOL0     O32324   2.127   6.183   4.493  0.7006  0.0938 -0.0215
  981MOL0     C32325   2.056   6.268   4.580 -0.3472  0.1045 -0.2137
  981MOL0     C32326   1.918   6.269   4.558 -0.1538 -0.0828  0.5492
  981MOL0     C32327   1.829   6.355   4.626  0.4318  0.5158  0.6018
  981MOL0     C32328   1.681   6.328   4.588  0.2184  0.5070  0.0191
  981MOL0     C32329   1.877   6.436   4.729 -0.3241 -0.0851 -0.8203
  981MOL0     C32330   1.788   6.519   4.822  0.3001 -0.1664  0.6526
  981MOL0     O32331   1.833   6.537   4.948 -0.3694 -0.0806 -0.1698
  981MOL0     C32332   1.757   6.563   5.062 -0.2992 -0.4991  0.2739
  981MOL0     C32333   1.623   6.602   5.065  0.1693  0.6032 -0.0590
  981MOL0     C32334   1.558   6.641   5.178  1.0483  1.1620 -0.2666
  981MOL0     C32335   1.619   6.624   5.297 -0.2883 -0.3028  0.4883
  981MOL0     O32336   1.541   6.672   5.403  0.9077  0.1454  0.0463
  981MOL0     C32337   1.601   6.671   5.528 -0.2595  0.1932 -0.1703
  981MOL0     C32338   1.656   6.804   5.594  0.2345  0.2297 -0.6630
  981MOL0     C32339   1.673   6.774   5.744  0.7021  0.2006 -1.0505
  981MOL0     C32340   1.702   6.919   5.806  0.4799  0.5837  1.7382
  981MOL0     C32341   1.721   6.929   5.967 -0.7005  0.4744 -0.5312
  981MOL0     C32342   1.838   6.832   6.018  0.3196  0.4410 -0.5151
  981MOL0     C32343   1.975   6.852   5.945 -0.1443 -0.7934  0.5693
  981MOL0     C32344   2.089   6.881   6.054  0.5435 -0.2354  0.3211
  981MOL0    Cl32345   2.054   7.035   6.143 -0.4458  0.3275  0.2622
  981MOL0     C32346   1.750   6.570   5.304 -0.6064  0.6048 -0.1048
  981MOL0     C32347   1.816   6.537   5.184  0.4003 -0.9237 -0.0249
  981MOL0     O32348   1.688   6.572   4.772 -0.3326  0.8221 -0.2525
  981MOL0     C32349   2.015   6.434   4.755  0.3596 -0.3392  0.3725
  981MOL0     C32350   2.102   6.355   4.679 -0.2375  0.0374 -0.4389
  981MOL0     N32351   2.076   5.672   4.427 -0.1037  0.6714 -0.4567
  981MOL0     N32352   2.064   5.544   4.430  0.1776 -0.3272  0.2457
  981MOL0     C32353   1.695   4.643   4.459 -0.5305 -0.4756  0.2960
  981MOL0     C32354   1.647   4.559   4.351 -0.3865  0.0936  0.9638
  981MOL0     C32355   1.548   4.261   4.045 -0.3012 -0.4482  1.3313
  981MOL0     C32356   1.473   4.150   4.089 -0.2638 -0.8806 -0.5977
  981MOL0     C32357   1.419   4.058   3.999  0.9062  0.9941 -0.0553
  981MOL0     C32358   1.437   4.064   3.864  0.0176 -0.3100  0.3614
  981MOL0     O32359   1.386   3.970   3.776  0.4966  0.1495 -0.6779
  981MOL0     C32360   1.395   3.985   3.633  0.0577  0.1785 -0.1262
  981MOL0     C32361   1.351   3.852   3.573  0.3685  0.0971  1.1040
  981MOL0     C32362   1.196   3.831   3.582  0.6653 -0.0061  0.6849
  981MOL0     C32363   1.172   3.672   3.567 -0.3239 -0.4697 -0.0902
  981MOL0     C32364   1.034   3.638   3.587  0.7000  0.5153 -0.3098
  981MOL0     C32365   0.920   3.618   3.613 -0.1068 -0.0416 -0.4860
  981MOL0     C32366   1.498   4.180   3.815 -0.0415 -0.7831 -0.4163
  981MOL0     C32367   1.542   4.280   3.906  1.1244  0.2708  0.0913
  981MOL0     H32368   1.692   4.254   4.495  1.8558  0.0790  1.2545
  981MOL0     H32369   1.781   4.398   4.677  0.7438 -1.7114 -2.4466
  981MOL0     H32370   1.967   4.543   4.697 -0.3187 -1.2335 -2.6104
  981MOL0     H32371   1.993   4.663   4.572  0.1196 -1.6051 -1.3065
  981MOL0     H32372   1.956   4.720   4.867  1.2216 -2.2300  0.0372
  981MOL0     H32373   2.097   4.745   4.760 -0.6423 -3.1878 -1.6846
  981MOL0     H32374   1.978   4.910   4.631  3.9014  0.3295  1.7132
  981MOL0     H32375   1.842   4.899   4.742 -0.6864 -2.7411  0.4232
  981MOL0     H32376   1.961   4.953   4.928 -1.1437 -1.0466 -0.2378
  981MOL0     H32377   2.130   4.945   4.858  0.5439 -0.2160 -2.4790
  981MOL0     H32378   1.912   5.166   4.782 -0.1940  1.8994  1.5712
  981MOL0     H32379   2.040   5.196   4.894 -0.7096  3.7344 -2.3405
  981MOL0     H32380   2.222   5.136   4.736  0.8627  1.3677 -0.4590
  981MOL0     H32381   2.098   5.102   4.613 -1.1327  0.4717 -0.3796
  981MOL0     H32382   2.019   5.353   4.677  1.0239  1.9094  2.3904
  981MOL0     H32383   2.178   5.366   4.749 -1.1038 -0.7745  1.6590
  981MOL0     H32384   2.092   5.291   4.461 -1.1057  1.7013 -1.6128
  981MOL0     H32385   2.270   5.291   4.499  0.7417  0.9808  0.0483
  981MOL0     H32386   2.348   5.581   4.581 -0.9575 -3.3903  0.5226
  981MOL0     H32387   2.362   5.841   4.481  0.5016  0.0156 -0.2711
  981MOL0     H32388   2.224   5.890   4.382 -1.7481  2.4879  1.0739
  981MOL0     H32389   2.229   5.860   4.689  1.1534  1.8620  1.1310
  981MOL0     H32390   2.100   5.936   4.598  0.9573  1.7004  0.0303
  981MOL0     H32391   2.380   6.037   4.662  0.1992  0.2444  0.6019
  981MOL0     H32392   2.224   6.105   4.720 -0.3551 -2.3421  1.3559
  981MOL0     H32393   2.325   6.132   4.437  1.7902  2.8550  0.3269
  981MOL0     H32394   2.312   6.257   4.562 -0.8388  1.4669 -1.3931
  981MOL0     H32395   1.865   6.205   4.487 -1.6400 -1.9259  3.1499
  981MOL0     H32396   1.651   6.234   4.636  4.5217 -0.7796  0.6454
  981MOL0     H32397   1.622   6.415   4.616  0.1467  1.9436 -4.0332
  981MOL0     H32398   1.669   6.315   4.480  0.6721 -1.6544  0.1777
  981MOL0     H32399   1.566   6.614   4.972  0.8404  2.9752 -0.2421
  981MOL0     H32400   1.454   6.671   5.173  0.1243 -1.8190 -1.6719
  981MOL0     H32401   1.527   6.626   5.595  1.4238 -2.2362  0.2004
  981MOL0     H32402   1.689   6.607   5.543 -1.7345 -2.0244 -0.5424
  981MOL0     H32403   1.737   6.859   5.546  0.6798 -0.6787 -0.9889
  981MOL0     H32404   1.572   6.874   5.592 -2.8773 -3.0959  1.2128
  981MOL0     H32405   1.756   6.712   5.777  1.3250  1.8327  0.6801
  981MOL0     H32406   1.586   6.737   5.798  0.0113  1.9046 -0.9050
  981MOL0     H32407   1.791   6.951   5.751 -2.0715  3.7361 -1.0288
  981MOL0     H32408   1.624   6.988   5.771 -0.8995 -0.9004  1.7347
  981MOL0     H32409   1.627   6.918   6.022 -0.8396 -0.9638 -1.0214
  981MOL0     H32410   1.766   7.029   5.977  0.3824  0.8194 -5.9026
  981MOL0     H32411   1.844   6.843   6.127 -2.8921  1.5706 -0.3475
  981MOL0     H32412   1.805   6.729   6.001 -0.4785  0.2360  1.9157
  981MOL0     H32413   1.979   6.933   5.872  2.1669 -2.2307 -1.0019
  981MOL0     H32414   2.010   6.764   5.892 -0.0292 -1.1528  1.2337
  981MOL0     H32415   2.196   6.866   6.035  1.1833  3.3938  0.4333
  981MOL0     H32416   2.067   6.792   6.113 -0.8763  0.0208  0.2151
  981MOL0     H32417   1.806   6.534   5.390 -0.0433 -2.2061 -1.5522
  981MOL0     H32418   1.921   6.508   5.190  0.2533 -1.2338  1.5764
  981MOL0     H32419   2.067   6.473   4.842  1.0540 -0.1331 -0.1223
  981MOL0     H32420   2.207   6.349   4.706 -0.3121 -1.3086 -0.3618
  981MOL0     H32421   1.702   4.750   4.448  0.1166 -0.3805  1.4668
  981MOL0     H32422   1.618   4.612   4.261  0.8170  0.8990  1.0212
  981MOL0     H32423   1.461   4.141   4.196  0.0692 -3.8712 -0.7405
  981MOL0     H32424   1.349   3.983   4.035  1.4414  0.8409  0.6763
  981MOL0     H32425   1.335   4.068   3.594 -0.1807  1.7978  3.2867
  981MOL0     H32426   1.502   3.998   3.615  0.2228  2.1053  1.7869
  981MOL0     H32427   1.390   3.780   3.646  1.3497 -0.9331 -0.3712
  981MOL0     H32428   1.394   3.845   3.472  1.5025 -2.5692  1.7051
  981MOL0     H32429   1.145   3.895   3.509 -0.8338  0.1949  1.8630
  981MOL0     H32430   1.153   3.860   3.678  0.5248  1.1878  0.2886
  981MOL0     H32431   1.238   3.608   3.625 -0.6866 -2.3172 -1.5899
  981MOL0     H32432   1.197   3.646   3.463  0.1095  3.7205 -1.2208
  981MOL0     H32433   0.815   3.605   3.631  0.0827  1.0728  1.8389
  981MOL0     H32434   1.510   4.193   3.708  0.3759 -0.9375 -0.3892
  981MOL0     H32435   1.603   4.363   3.870 -1.6525  3.5276  2.2461
  982MOL0     O32436  10.637   3.849   2.088 -0.3732  0.3540  0.0367
  982MOL0     C32437  10.591   3.929   2.172 -0.9714  0.1843  0.0257
  982MOL0     O32438  10.542   4.053   2.141 -0.6499 -0.1251  0.5990
  982MOL0     C32439  10.531   4.092   2.008 -0.2118  0.2451 -0.0234
  982MOL0     C32440  10.610   4.199   1.968 -0.7818  0.0905 -0.6251
  982MOL0     C32441  10.598   4.251   1.843 -0.2790  0.6334 -0.1731
  982MOL0     C32442  10.502   4.204   1.759  0.3447  0.7223 -0.8406
  982MOL0     O32443  10.478   4.259   1.636  0.0584  0.0392 -0.4997
  982MOL0     C32444  10.439   4.401   1.640 -0.4845  0.5886 -0.0226
  982MOL0     C32445  10.302   4.428   1.709  0.3075 -0.5542 -0.0293
  982MOL0     C32446  10.280   4.583   1.710 -0.1387  1.5212 -0.9668
  982MOL0     C32447  10.143   4.633   1.762 -1.2466  0.1808  1.0742
  982MOL0     C32448  10.134   4.621   1.917 -0.3466 -0.5639 -0.9540
  982MOL0     C32449  10.007   4.682   1.972 -0.6460 -1.2423 -0.2049
  982MOL0     C32450   9.884   4.617   1.913 -0.6322 -0.2042 -0.0944
  982MOL0     C32451   9.758   4.688   1.950  0.7072 -0.6552  1.0206
  982MOL0     N32452   9.727   4.676   2.093  0.9926  0.3451  0.4656
  982MOL0     C32453   9.683   4.565   2.160  0.6562 -0.7468  0.7417
  982MOL0     C32454   9.618   4.611   2.274 -0.6775  0.5620 -0.4667
  982MOL0     C32455   9.558   4.533   2.391  0.4453 -0.4154 -0.0326
  982MOL0     C32456   9.411   4.575   2.412 -0.2584 -0.0592  0.5471
  982MOL0     C32457   9.333   4.507   2.525  0.7243 -1.1937  0.0911
  982MOL0     C32458   9.199   4.579   2.542 -0.7238  0.2512 -0.3523
  982MOL0     O32459   9.201   4.711   2.581  0.1237  0.5443 -0.4657
  982MOL0     C32460   9.091   4.783   2.611 -0.3525  0.6213 -0.7612
  982MOL0     C32461   8.966   4.757   2.559 -0.1489 -0.3616  0.0749
  982MOL0     C32462   8.853   4.844   2.570  0.4753  0.1138  1.2208
  982MOL0     C32463   8.717   4.789   2.523 -0.0124  0.5066 -0.5967
  982MOL0     C32464   8.881   4.975   2.636 -0.5983 -1.0276 -1.1526
  982MOL0     C32465   8.773   5.082   2.654  0.4305  0.1670 -0.4135
  982MOL0     O32466   8.799   5.174   2.749 -0.8414  0.5557  0.7339
  982MOL0     C32467   8.690   5.225   2.820 -0.0748 -0.5552  0.4189
  982MOL0     C32468   8.599   5.149   2.895 -0.5483  0.0545 -0.2041
  982MOL0     C32469   8.503   5.211   2.975  0.0691  0.5210  0.0492
  982MOL0     C32470   8.505   5.349   2.988  0.3225 -0.2583  0.4353
  982MOL0     O32471   8.411   5.395   3.077  0.1705 -0.0980 -0.4877
  982MOL0     C32472   8.387   5.540   3.075 -0.8353 -0.1867  0.7768
  982MOL0     C32473   8.295   5.555   3.194  0.4262  0.4099  0.7871
  982MOL0     C32474   8.370   5.520   3.332  0.8128  0.0344  1.1090
  982MOL0     C32475   8.264   5.531   3.436  0.3368  1.3321 -0.6790
  982MOL0     C32476   8.286   5.450   3.562  0.0951  0.9068 -0.3857
  982MOL0     C32477   8.386   5.515   3.664  0.0678  0.3254  0.6905
  982MOL0     C32478   8.381   5.452   3.805 -0.1099  0.5469  0.8093
  982MOL0     C32479   8.473   5.332   3.825  0.2494 -0.3359  0.3840
  982MOL0    Cl32480   8.422   5.244   3.987  0.0141 -0.3300  0.0600
  982MOL0     C32481   8.596   5.425   2.914  0.3337  0.5951  1.0078
  982MOL0     C32482   8.681   5.362   2.822 -0.7266 -1.0500 -0.5679
  982MOL0     O32483   8.676   5.089   2.587  0.1334  0.4189 -0.0627
  982MOL0     C32484   9.016   5.007   2.679 -0.0392  0.6094  0.8026
  982MOL0     C32485   9.118   4.915   2.663  0.7400  0.0662  0.1692
  982MOL0     N32486   9.644   4.749   2.280  0.0320  0.1487  0.9450
  982MOL0     N32487   9.719   4.773   2.180 -1.3310 -0.5553 -0.9262
  982MOL0     C32488  10.430   4.094   1.798  0.1164  0.4333 -0.0694
  982MOL0     C32489  10.439   4.035   1.924 -0.7371 -0.3113  0.0996
  982MOL0     C32490  10.601   3.895   2.317 -0.0517 -0.5070  0.4031
  982MOL0     C32491  10.588   3.993   2.406  0.6014  0.9047 -1.0356
  982MOL0     C32492  10.603   3.958   2.545 -0.4240 -0.1388 -0.9205
  982MOL0     C32493  10.639   3.830   2.585 -0.0173 -0.3089 -1.0364
  982MOL0     O32494  10.641   3.811   2.725  0.3419  0.0976 -0.6124
  982MOL0     C32495  10.685   3.686   2.782 -0.4115  0.0872 -1.2984
  982MOL0     C32496  10.573   3.590   2.805 -0.2115 -0.2103  1.0452
  982MOL0     C32497  10.618   3.472   2.879  0.2842 -0.7544 -0.1133
  982MOL0     C32498  10.517   3.356   2.889  0.0636 -0.3543 -1.1601
  982MOL0     C32499  10.547   3.293   3.017 -0.3340 -1.0792 -0.5074
  982MOL0     C32500  10.557   3.252   3.132 -0.0346 -0.1152 -0.0730
  982MOL0     C32501  10.669   3.736   2.494 -0.2006  0.2968  0.2414
  982MOL0     C32502  10.646   3.766   2.355  0.1568  0.5145 -0.4499
  982MOL0     H32503  10.688   4.232   2.036  0.7684 -0.8618 -1.8809
  982MOL0     H32504  10.657   4.333   1.802 -3.2292  3.2850  0.5006
  982MOL0     H32505  10.517   4.441   1.705  3.0449 -4.3787 -0.6646
  982MOL0     H32506  10.440   4.444   1.540 -1.8620  0.4797 -0.1045
  982MOL0     H32507  10.225   4.367   1.661  1.0931 -1.2970 -0.3591
  982MOL0     H32508  10.315   4.400   1.814 -2.3650  1.3692  0.9429
  982MOL0     H32509  10.356   4.632   1.771 -2.8966  2.4327  2.0202
  982MOL0     H32510  10.291   4.615   1.606 -0.1436  1.9554 -0.8333
  982MOL0     H32511  10.139   4.741   1.744  1.3309  0.2049  0.2998
  982MOL0     H32512  10.057   4.581   1.719  0.5219 -1.6971 -0.3607
  982MOL0     H32513  10.150   4.516   1.943 -0.8351 -0.9642 -2.1882
  982MOL0     H32514  10.225   4.673   1.948  0.0862 -0.0460 -2.9406
  982MOL0     H32515   9.999   4.676   2.081 -3.9812  0.1177 -0.2639
  982MOL0     H32516  10.004   4.786   1.938 -1.3477 -1.0470  0.4264
  982MOL0     H32517   9.894   4.608   1.804 -3.4095 -0.7522 -0.3738
  982MOL0     H32518   9.885   4.512   1.943  0.4280 -0.3319 -0.5141
  982MOL0     H32519   9.678   4.649   1.887  0.6143  1.6812 -0.4290
  982MOL0     H32520   9.768   4.793   1.921  2.1726 -1.3893 -1.4975
  982MOL0     H32521   9.668   4.468   2.113  0.3016 -0.8121  0.9835
  982MOL0     H32522   9.563   4.425   2.372  2.6215 -0.9010  2.7157
  982MOL0     H32523   9.608   4.548   2.487 -0.2505 -1.1266  0.4556
  982MOL0     H32524   9.345   4.558   2.326  0.0104 -2.9292  0.8093
  982MOL0     H32525   9.412   4.683   2.428 -1.2632  0.4080 -1.9675
  982MOL0     H32526   9.379   4.524   2.622  0.3642 -2.4466  0.5066
  982MOL0     H32527   9.328   4.398   2.522 -1.8561 -1.2834  2.7513
  982MOL0     H32528   9.147   4.525   2.622  1.1396 -0.3555  0.5011
  982MOL0     H32529   9.138   4.566   2.452 -1.5554  0.5994  0.1479
  982MOL0     H32530   8.954   4.663   2.505 -1.3984 -1.0085  1.3868
  982MOL0     H32531   8.722   4.691   2.474 -1.6652 -0.8651  1.7784
  982MOL0     H32532   8.663   4.771   2.616 -0.6526 -1.9750 -1.3599
  982MOL0     H32533   8.672   4.868   2.461 -0.7915  0.5543  0.0077
  982MOL0     H32534   8.616   5.042   2.884 -0.6059 -0.5902  4.1559
  982MOL0     H32535   8.431   5.155   3.034  1.3649  1.4174  2.6870
  982MOL0     H32536   8.487   5.583   3.093  1.0956 -3.5673 -1.0001
  982MOL0     H32537   8.345   5.569   2.979 -0.3241 -1.8772  0.0140
  982MOL0     H32538   8.242   5.651   3.202 -1.4361  0.0667 -3.9154
  982MOL0     H32539   8.210   5.487   3.183  0.6430  0.5344 -2.9427
  982MOL0     H32540   8.446   5.598   3.341  0.3856  0.2336  4.1206
  982MOL0     H32541   8.406   5.417   3.326  0.5963 -0.0584  1.3817
  982MOL0     H32542   8.248   5.637   3.459 -1.4885  0.7856  0.8428
  982MOL0     H32543   8.167   5.494   3.401  0.2231 -1.0431  1.8492
  982MOL0     H32544   8.320   5.349   3.535 -4.1947 -0.2823 -2.2352
  982MOL0     H32545   8.191   5.442   3.617  0.2326  2.3576  0.1138
  982MOL0     H32546   8.491   5.514   3.632 -0.1247  0.6779  0.0156
  982MOL0     H32547   8.354   5.620   3.671 -2.3137 -0.3781  0.9230
  982MOL0     H32548   8.279   5.415   3.818 -0.3748  0.8505 -0.3193
  982MOL0     H32549   8.414   5.526   3.879  0.5947  2.5475 -1.3973
  982MOL0     H32550   8.576   5.370   3.826 -0.4132  1.5542  1.4266
  982MOL0     H32551   8.452   5.274   3.735 -0.5913  2.5341 -1.4046
  982MOL0     H32552   8.596   5.533   2.926 -2.0321  1.0616 -2.0593
  982MOL0     H32553   8.739   5.417   2.749 -0.9754  1.2446  0.8698
  982MOL0     H32554   9.034   5.103   2.725  0.5363  0.9594 -0.1095
  982MOL0     H32555   9.219   4.942   2.693  1.7449 -3.7578  0.7230
  982MOL0     H32556  10.345   4.067   1.737 -1.2907  1.9978  1.0999
  982MOL0     H32557  10.364   3.967   1.962 -1.1138 -0.0571 -0.1759
  982MOL0     H32558  10.567   4.095   2.375  1.1813  1.1310 -0.6917
  982MOL0     H32559  10.574   4.029   2.622 -0.4435 -1.5088  0.3730
  982MOL0     H32560  10.750   3.641   2.707 -0.3715  0.4633 -1.4957
  982MOL0     H32561  10.745   3.696   2.873  0.9267  2.3000 -2.3521
  982MOL0     H32562  10.522   3.569   2.710  0.4521  3.3816 -0.3012
  982MOL0     H32563  10.493   3.640   2.861 -3.3873 -0.4237 -2.8189
  982MOL0     H32564  10.641   3.515   2.977  0.5929  1.7642 -1.2263
  982MOL0     H32565  10.718   3.451   2.841  0.6133  0.3137  0.1138
  982MOL0     H32566  10.521   3.294   2.799 -2.6386 -0.7363 -1.0852
  982MOL0     H32567  10.414   3.392   2.883  0.3928  0.5362 -1.7197
  982MOL0     H32568  10.577   3.209   3.227  1.6902  1.1135  0.1791
  982MOL0     H32569  10.699   3.633   2.514 -1.1997  0.5961  3.8850
  982MOL0     H32570  10.675   3.682   2.293  0.7894  1.2404 -1.1535
  983MOL0     O32571  11.061   1.192   1.472 -0.0163  0.1055  0.2667
  983MOL0     C32572  11.069   1.276   1.384  1.0390  0.1931 -0.1976
  983MOL0     O32573  11.061   1.253   1.255 -0.4941 -0.4139 -0.5658
  983MOL0     C32574  11.076   1.128   1.202 -0.1165  0.6800  0.5877
  983MOL0     C32575  10.981   1.075   1.114 -0.5508 -0.1737 -0.2342
  983MOL0     C32576  10.999   0.950   1.056  0.5815  0.3936  0.1972
  983MOL0     C32577  11.107   0.867   1.084  0.3236  0.7393  0.3932
  983MOL0     O32578  11.116   0.748   1.016  0.6034  0.5217  0.3361
  983MOL0     C32579  11.070   0.747   0.884 -1.0383  0.9465 -0.0651
  983MOL0     C32580  11.127   0.617   0.817  0.6296 -0.2246 -0.8486
  983MOL0     C32581  11.037   0.499   0.835 -0.1651 -0.8246 -0.1141
  983MOL0     C32582  11.106   0.370   0.797  0.4742  0.2592  0.6251
  983MOL0     C32583  11.001   0.264   0.754  0.6679  0.2609 -0.3556
  983MOL0     C32584  10.906   0.234   0.872 -1.1926 -0.6757 -0.2532
  983MOL0     C32585  10.839   0.096   0.884  0.1502 -0.1354 -0.9931
  983MOL0     C32586  10.772   0.053   0.755  0.3800 -0.2067  0.3915
  983MOL0     N32587  10.658   0.136   0.715  0.7096 -0.4812  0.2793
  983MOL0     C32588  10.545   0.152   0.793  0.7472  1.0159  0.5971
  983MOL0     C32589  10.460   0.232   0.730 -0.4727 -0.5205 -0.7219
  983MOL0     C32590  10.324   0.270   0.786 -0.1841 -0.1566  0.0894
  983MOL0     C32591  10.228   0.158   0.807 -0.0475 -0.8133  0.6197
  983MOL0     C32592  10.227   0.046   0.698  0.0801  0.6684  0.1870
  983MOL0     C32593  10.091  -0.033   0.702  0.9252 -0.0000 -0.2657
  983MOL0     O32594  10.079  -0.074   0.840  0.3145 -0.1879  0.0702
  983MOL0     C32595   9.964  -0.141   0.883  0.7724 -0.0844 -0.3861
  983MOL0     C32596   9.912  -0.121   1.013 -0.6417 -0.0099 -0.0230
  983MOL0     C32597   9.805  -0.197   1.066 -0.4520  0.3393  0.2724
  983MOL0     C32598   9.758  -0.165   1.205 -1.0830 -0.5405 -0.4538
  983MOL0     C32599   9.753  -0.309   0.998 -0.8448  0.0905  0.0462
  983MOL0     C32600   9.647  -0.410   1.039 -0.2565  0.1736 -0.6368
  983MOL0     O32601   9.643  -0.527   0.967  0.2910 -0.6895 -0.4425
  983MOL0     C32602   9.531  -0.598   0.968 -0.3124  0.0492  0.6848
  983MOL0     C32603   9.418  -0.547   0.900 -0.3041  0.9029  0.1678
  983MOL0     C32604   9.307  -0.623   0.880  0.6197 -0.3291 -0.4065
  983MOL0     C32605   9.302  -0.756   0.936  0.5572 -0.7662  0.2806
  983MOL0     O32606   9.179  -0.826   0.922  0.1382  0.2329 -0.9918
  983MOL0     C32607   9.167  -0.966   0.952  0.9796 -0.6536  0.6833
  983MOL0     C32608   9.022  -1.011   0.918  0.1536  0.2752  0.3727
  983MOL0     C32609   8.933  -1.026   1.044  0.7981  1.1861 -0.3703
  983MOL0     C32610   8.864  -0.893   1.084  0.5996 -0.2210 -0.8325
  983MOL0     C32611   8.768  -0.910   1.204  0.8303  1.2249 -1.0222
  983MOL0     C32612   8.677  -0.788   1.191  0.1881  0.1733  0.2099
  983MOL0     C32613   8.557  -0.789   1.288  0.4369  0.3920 -0.5944
  983MOL0     C32614   8.603  -0.803   1.432  0.0344  0.0231  0.4867
  983MOL0    Cl32615   8.709  -0.661   1.480 -0.3656 -0.2175 -0.1842
  983MOL0     C32616   9.411  -0.806   1.007  0.4351  1.4052  0.1925
  983MOL0     C32617   9.530  -0.728   1.010  0.1783 -0.5937 -0.6810
  983MOL0     O32618   9.566  -0.380   1.125 -0.2258  0.7363 -0.2101
  983MOL0     C32619   9.812  -0.326   0.869 -0.4650  0.6163 -0.1922
  983MOL0     C32620   9.903  -0.239   0.818 -0.4581  0.1657 -0.1567
  983MOL0     N32621  10.527   0.277   0.616 -0.5537 -0.4918  0.1054
  983MOL0     N32622  10.645   0.224   0.612  0.0589  0.6887  0.7856
  983MOL0     C32623  11.199   0.903   1.170  0.1738 -0.7926 -0.4685
  983MOL0     C32624  11.192   1.043   1.226  1.3118 -0.1721 -0.2937
  983MOL0     C32625  11.088   1.421   1.425  0.4577 -0.2740  0.7441
  983MOL0     C32626  11.110   1.510   1.324 -0.2363  0.2088  0.0490
  983MOL0     C32627  11.131   1.647   1.349 -0.1007 -0.0991 -0.0190
  983MOL0     C32628  11.153   1.697   1.469  0.2297 -0.2462 -0.4991
  983MOL0     O32629  11.173   1.830   1.484 -0.2203 -0.1794 -0.1264
  983MOL0     C32630  11.295   1.852   1.556  0.6696  0.9888 -0.2110
  983MOL0     C32631  11.335   2.005   1.556 -0.5383 -0.8592 -0.4149
  983MOL0     C32632  11.480   2.033   1.601 -0.1203 -0.4125  0.6038
  983MOL0     C32633  11.506   2.178   1.628 -0.8134 -0.3188  0.1023
  983MOL0     C32634  11.647   2.199   1.653 -0.4718  0.6405  0.2458
  983MOL0     C32635  11.765   2.226   1.673  0.5795  0.3343  0.2005
  983MOL0     C32636  11.139   1.602   1.578 -0.0345  1.1161 -0.3310
  983MOL0     C32637  11.108   1.468   1.555  0.3964 -0.3331 -0.1159
  983MOL0     H32638  10.897   1.134   1.078  0.1005 -0.3032 -2.0888
  983MOL0     H32639  10.924   0.936   0.979 -0.6010  2.3709  0.9100
  983MOL0     H32640  10.960   0.749   0.889 -1.4183 -4.8250  2.8674
  983MOL0     H32641  11.114   0.827   0.824  0.1957 -1.9933 -3.3730
  983MOL0     H32642  11.142   0.622   0.709  0.8378 -0.7222 -0.8455
  983MOL0     H32643  11.230   0.603   0.852 -0.1904  0.2084  1.9888
  983MOL0     H32644  11.007   0.479   0.939 -1.8996 -0.6588 -0.5537
  983MOL0     H32645  10.948   0.526   0.778 -0.6278 -2.1060 -0.0388
  983MOL0     H32646  11.181   0.380   0.718  2.2119  0.4317  2.2055
  983MOL0     H32647  11.166   0.330   0.880  0.7566  0.6192  0.5945
  983MOL0     H32648  10.935   0.311   0.681  2.9364  0.2130 -2.5803
  983MOL0     H32649  11.051   0.176   0.712 -0.4821 -0.8894  0.5800
  983MOL0     H32650  10.962   0.236   0.967 -1.7183  0.2160  0.0502
  983MOL0     H32651  10.833   0.312   0.893  0.3071  0.8214 -0.3632
  983MOL0     H32652  10.926   0.033   0.908  0.1159  0.2164  0.1124
  983MOL0     H32653  10.772   0.077   0.968  2.3024 -1.9845  0.4353
  983MOL0     H32654  10.742  -0.049   0.782 -0.9230 -0.1238 -0.6583
  983MOL0     H32655  10.836   0.063   0.666 -1.0014 -0.3545 -0.6608
  983MOL0     H32656  10.528   0.102   0.888 -1.2177 -0.0252 -0.2455
  983MOL0     H32657  10.335   0.317   0.885 -3.1841  2.8871 -0.8028
  983MOL0     H32658  10.282   0.352   0.727 -2.0024  0.7027  2.4094
  983MOL0     H32659  10.125   0.196   0.809  0.1647 -0.1737 -0.4200
  983MOL0     H32660  10.247   0.114   0.906  1.6171  0.3744  0.8636
  983MOL0     H32661  10.308  -0.026   0.711 -0.7312 -0.3410 -0.2581
  983MOL0     H32662  10.239   0.089   0.598 -2.9679  0.2110 -0.4489
  983MOL0     H32663  10.104  -0.122   0.639 -0.3957 -2.4281  2.6285
  983MOL0     H32664  10.015   0.030   0.656  1.7509 -0.6736 -2.6930
  983MOL0     H32665   9.954  -0.041   1.074  0.6869  1.1719 -2.3252
  983MOL0     H32666   9.803  -0.230   1.281  0.8128  0.4286 -0.7027
  983MOL0     H32667   9.784  -0.062   1.229 -0.5632 -0.9672  0.9048
  983MOL0     H32668   9.649  -0.178   1.210 -0.8839 -2.3566 -0.1264
  983MOL0     H32669   9.412  -0.451   0.851 -1.7986 -0.6986 -3.1324
  983MOL0     H32670   9.224  -0.580   0.826  1.5884  0.1622 -1.5545
  983MOL0     H32671   9.243  -1.014   0.890  2.6362 -0.3275  2.3893
  983MOL0     H32672   9.195  -0.989   1.055  1.1217 -1.6562  0.4301
  983MOL0     H32673   8.974  -0.957   0.835  1.2219 -0.7496 -0.9601
  983MOL0     H32674   9.031  -1.109   0.871 -2.3471  0.3329 -0.3646
  983MOL0     H32675   8.998  -1.059   1.126 -0.6627  0.0690  0.3723
  983MOL0     H32676   8.857  -1.103   1.036  2.2791 -0.2479 -1.4969
  983MOL0     H32677   8.946  -0.826   1.108  2.4843 -2.5452 -0.3579
  983MOL0     H32678   8.807  -0.859   0.997 -2.2138  0.7724  1.2654
  983MOL0     H32679   8.810  -0.920   1.304 -1.8158 -5.3163 -0.0984
  983MOL0     H32680   8.709  -1.001   1.190 -1.7211  2.9644 -2.4521
  983MOL0     H32681   8.736  -0.699   1.214 -1.1677  0.6056  2.2334
  983MOL0     H32682   8.639  -0.783   1.088  0.6260  3.1205  0.1056
  983MOL0     H32683   8.491  -0.872   1.262 -0.6709  0.9679  0.3138
  983MOL0     H32684   8.494  -0.702   1.268  0.1044 -0.0457 -1.4865
  983MOL0     H32685   8.649  -0.899   1.458 -0.8254  0.1656  2.8012
  983MOL0     H32686   8.513  -0.791   1.492 -0.7572 -1.8024 -0.2487
  983MOL0     H32687   9.420  -0.911   1.032 -0.5534  1.2532 -0.0327
  983MOL0     H32688   9.620  -0.770   1.054  0.2735  0.9332  0.6809
  983MOL0     H32689   9.781  -0.400   0.796  1.4157 -1.7009  1.2136
  983MOL0     H32690   9.936  -0.260   0.717 -0.0703  0.2578 -0.0504
  983MOL0     H32691  11.284   0.842   1.197 -0.1821 -1.9000 -1.8045
  983MOL0     H32692  11.283   1.087   1.265  0.9740  3.1445 -2.8418
  983MOL0     H32693  11.099   1.487   1.219 -2.0252  1.0115  0.0324
  983MOL0     H32694  11.136   1.711   1.261 -2.1494  0.2996  0.1158
  983MOL0     H32695  11.290   1.823   1.661  3.6352 -0.0728 -0.2698
  983MOL0     H32696  11.371   1.791   1.505 -2.6836 -0.6743 -3.7324
  983MOL0     H32697  11.271   2.057   1.629  0.1919 -2.3444  1.3717
  983MOL0     H32698  11.315   2.039   1.454 -3.7224  1.4274  0.7984
  983MOL0     H32699  11.545   1.987   1.526 -0.2951  0.5483 -0.1624
  983MOL0     H32700  11.502   1.977   1.692 -1.6406  0.8664  1.8126
  983MOL0     H32701  11.478   2.193   1.733  2.1405 -0.2366  0.9566
  983MOL0     H32702  11.460   2.247   1.557  0.5128  0.3226 -0.1466
  983MOL0     H32703  11.867   2.249   1.697 -0.2161  2.6808  1.6994
  983MOL0     H32704  11.152   1.649   1.675 -0.4988  1.5680 -0.4839
  983MOL0     H32705  11.108   1.419   1.652  0.3317  0.7284  0.4283
  984MOL0     O32706  10.548   5.318   4.101 -0.3467 -0.4905 -0.6637
  984MOL0     C32707  10.463   5.313   4.188  0.3116 -0.1517 -0.2278
  984MOL0     O32708  10.468   5.365   4.308 -0.1870 -0.4124 -0.2472
  984MOL0     C32709  10.575   5.442   4.344 -1.2505 -1.3886 -0.7902
  984MOL0     C32710  10.578   5.576   4.296 -0.2037  1.2405  0.4328
  984MOL0     C32711  10.687   5.654   4.339  0.1551  0.0668 -0.6822
  984MOL0     C32712  10.788   5.616   4.424  0.0079  0.0039  0.5218
  984MOL0     O32713  10.900   5.700   4.444  0.5285  0.2970  0.2704
  984MOL0     C32714  10.994   5.689   4.339 -0.3814  0.2781 -0.1719
  984MOL0     C32715  11.091   5.805   4.321  0.6905 -0.0254 -1.3883
  984MOL0     C32716  11.201   5.819   4.426  0.7416  0.6982 -0.7230
  984MOL0     C32717  11.246   5.963   4.432 -0.8765  0.0094 -0.1686
  984MOL0     C32718  11.272   6.024   4.296 -0.0617  0.1134 -0.3106
  984MOL0     C32719  11.348   6.158   4.298 -0.4594  0.2567  1.2801
  984MOL0     C32720  11.289   6.266   4.393 -1.0143  0.3721  1.0332
  984MOL0     C32721  11.409   6.367   4.423  0.4579  0.4286  1.2389
  984MOL0     N32722  11.367   6.489   4.487 -0.0357  0.7832 -0.1758
  984MOL0     C32723  11.292   6.590   4.425 -0.0632  0.3791 -0.1439
  984MOL0     C32724  11.277   6.681   4.526  0.2968  0.0819 -0.3519
  984MOL0     C32725  11.229   6.819   4.521  0.0881  0.7875 -0.0546
  984MOL0     C32726  11.114   6.859   4.613  0.5308  0.0399  0.0591
  984MOL0     C32727  11.034   6.989   4.565  0.7401  0.1511 -0.3585
  984MOL0     C32728  10.890   6.985   4.639 -0.1531 -0.4512 -0.4797
  984MOL0     O32729  10.821   7.108   4.618  0.7828  0.4226 -0.5761
  984MOL0     C32730  10.857   7.213   4.689 -0.7364  0.1968 -0.3592
  984MOL0     C32731  10.797   7.231   4.814  0.2920 -0.6716 -0.3110
  984MOL0     C32732  10.809   7.346   4.887  0.4165  0.5260  0.7881
  984MOL0     C32733  10.722   7.364   5.004  0.0507  0.2999 -0.2523
  984MOL0     C32734  10.910   7.438   4.845  1.1885 -0.3543 -0.2441
  984MOL0     C32735  10.946   7.562   4.915  0.3919 -0.4315  0.5291
  984MOL0     O32736  11.033   7.650   4.867 -0.0667 -0.2503 -0.7047
  984MOL0     C32737  11.111   7.716   4.956 -0.1240  0.4062  0.0025
  984MOL0     C32738  11.091   7.852   4.959  0.9125  0.4014 -0.0815
  984MOL0     C32739  11.179   7.926   5.035 -0.0875 -0.5685 -0.4414
  984MOL0     C32740  11.282   7.873   5.112 -0.0549 -0.0117 -0.1294
  984MOL0     O32741  11.369   7.947   5.204  0.7811 -0.5975 -0.3717
  984MOL0     C32742  11.460   8.009   5.124 -0.7746 -0.0355  0.3508
  984MOL0     C32743  11.590   7.925   5.117 -0.3984 -0.3948 -0.3367
  984MOL0     C32744  11.689   7.992   5.020  0.3052  0.2143  0.2877
  984MOL0     C32745  11.807   7.895   4.984  0.3788  0.6555  1.4931
  984MOL0     C32746  11.934   7.968   4.929  0.3320  0.1160 -0.4969
  984MOL0     C32747  12.059   7.879   4.971  1.0128 -0.3513  0.2899
  984MOL0     C32748  12.194   7.916   4.903 -0.3461 -0.3859 -0.6943
  984MOL0     C32749  12.198   7.920   4.746 -0.1237 -0.0143 -0.0346
  984MOL0    Cl32750  12.190   7.749   4.692  0.0871  0.1505  0.2957
  984MOL0     C32751  11.304   7.732   5.097 -0.7698 -0.4719 -1.2374
  984MOL0     C32752  11.220   7.655   5.018 -0.6700  0.0729  1.3716
  984MOL0     O32753  10.887   7.584   5.020 -0.4391  0.2147 -0.6175
  984MOL0     C32754  10.971   7.422   4.721  0.0069 -0.0802 -0.0729
  984MOL0     C32755  10.947   7.306   4.635  0.3103 -0.2613 -0.3057
  984MOL0     N32756  11.332   6.631   4.640  0.3308  0.8276 -0.1441
  984MOL0     N32757  11.385   6.510   4.625  0.2915 -0.1294 -0.7505
  984MOL0     C32758  10.770   5.491   4.485  0.2487 -0.7049  0.0640
  984MOL0     C32759  10.660   5.409   4.452  0.6531  0.0977 -0.2624
  984MOL0     C32760  10.343   5.237   4.154 -0.3769 -0.1849  0.8187
  984MOL0     C32761  10.231   5.257   4.225  0.8394 -0.6837  0.6948
  984MOL0     C32762  10.110   5.188   4.195  0.1830 -0.7002 -0.6434
  984MOL0     C32763  10.105   5.088   4.104 -0.2189 -0.4366  0.3002
  984MOL0     O32764   9.997   5.010   4.071 -0.1204  0.5701 -0.9663
  984MOL0     C32765   9.859   5.021   4.116 -0.0403  0.7336  0.6605
  984MOL0     C32766   9.841   4.977   4.264 -0.7063 -0.6867 -0.1723
  984MOL0     C32767   9.696   4.998   4.294 -0.2988 -0.1275 -0.5127
  984MOL0     C32768   9.660   4.969   4.444  0.5265  0.1300 -0.4553
  984MOL0     C32769   9.714   5.059   4.545  0.0735  0.4840 -0.3030
  984MOL0     C32770   9.763   5.145   4.620  0.1776  0.0181  0.1910
  984MOL0     C32771  10.229   5.061   4.041 -0.3074 -0.0300 -0.2058
  984MOL0     C32772  10.348   5.137   4.056  0.1021  0.0468 -0.1698
  984MOL0     H32773  10.499   5.622   4.238 -0.4842  0.9327  0.5643
  984MOL0     H32774  10.711   5.749   4.293 -1.6478  1.4091  0.9772
  984MOL0     H32775  11.051   5.596   4.346  0.1737  0.6176 -0.0813
  984MOL0     H32776  10.955   5.672   4.238 -0.0845 -4.7975  0.3094
  984MOL0     H32777  11.145   5.800   4.226 -1.8804  3.0241 -3.2148
  984MOL0     H32778  11.027   5.894   4.314 -0.8213 -1.1839 -4.0235
  984MOL0     H32779  11.170   5.771   4.519  1.6743 -0.5204 -1.0069
  984MOL0     H32780  11.282   5.753   4.394  1.8216  0.0251  2.9496
  984MOL0     H32781  11.182   6.027   4.493  1.8297  1.1308  1.7109
  984MOL0     H32782  11.352   5.969   4.461 -0.1492 -0.7331 -2.4291
  984MOL0     H32783  11.325   5.951   4.233 -1.8668  1.1610 -3.2493
  984MOL0     H32784  11.179   6.037   4.241 -0.7887  0.7202  1.0311
  984MOL0     H32785  11.453   6.139   4.322  0.4498  2.6471 -0.4779
  984MOL0     H32786  11.362   6.200   4.198  1.4926  0.2437  1.5006
  984MOL0     H32787  11.202   6.327   4.367 -1.3693  0.9175  3.3371
  984MOL0     H32788  11.253   6.205   4.476  0.9449  0.5975  2.0881
  984MOL0     H32789  11.460   6.386   4.328 -4.0555  3.2799 -0.9785
  984MOL0     H32790  11.483   6.321   4.489 -1.8103 -1.9537  2.3125
  984MOL0     H32791  11.261   6.612   4.323 -1.8514  0.7036  0.4337
  984MOL0     H32792  11.319   6.879   4.535  0.6393 -0.4310  1.9771
  984MOL0     H32793  11.198   6.834   4.417 -3.8713 -2.6828  0.3538
  984MOL0     H32794  11.149   6.882   4.714  3.7828 -0.8535 -0.7500
  984MOL0     H32795  11.046   6.773   4.613  1.0826 -0.4446 -2.0654
  984MOL0     H32796  11.018   6.977   4.457  3.5770 -0.5112 -0.7692
  984MOL0     H32797  11.090   7.078   4.595  0.1968  0.7373 -1.0548
  984MOL0     H32798  10.920   6.961   4.742  4.2990 -0.4420 -1.5711
  984MOL0     H32799  10.831   6.901   4.600  0.4488  0.3160 -3.2771
  984MOL0     H32800  10.722   7.160   4.847 -0.0873  0.1949  0.8026
  984MOL0     H32801  10.650   7.447   5.000 -0.7593 -0.2272  1.9191
  984MOL0     H32802  10.654   7.280   5.020 -0.7748  0.7529 -1.2879
  984MOL0     H32803  10.776   7.368   5.099  1.6435 -0.1535 -1.0933
  984MOL0     H32804  11.011   7.892   4.897 -0.7477 -1.3311  0.8072
  984MOL0     H32805  11.187   8.033   5.046  2.0565 -0.9594  3.6670
  984MOL0     H32806  11.434   8.013   5.017  2.5805  1.2733 -0.5715
  984MOL0     H32807  11.485   8.107   5.166  2.2341  1.0164 -3.2243
  984MOL0     H32808  11.614   7.916   5.223  0.0329 -1.7607 -0.5325
  984MOL0     H32809  11.576   7.823   5.079  0.6439 -1.2412  1.4222
  984MOL0     H32810  11.719   8.084   5.070  0.0082  1.9092 -2.4561
  984MOL0     H32811  11.635   8.009   4.926 -2.3722 -0.8679  1.5199
  984MOL0     H32812  11.815   7.839   5.077 -2.1278 -0.3311  1.1793
  984MOL0     H32813  11.774   7.831   4.901  0.3643 -1.4554  3.0510
  984MOL0     H32814  11.959   8.065   4.973  2.7741 -1.8296  2.9098
  984MOL0     H32815  11.911   7.972   4.822 -3.6161 -1.2126  0.1424
  984MOL0     H32816  12.071   7.874   5.080  3.8800 -1.5321  0.0066
  984MOL0     H32817  12.049   7.777   4.933  1.8165 -0.0902 -0.6945
  984MOL0     H32818  12.263   7.840   4.940 -1.4641 -1.6614 -1.1479
  984MOL0     H32819  12.225   8.011   4.948 -1.4834 -0.8643  1.2195
  984MOL0     H32820  12.287   7.977   4.720  1.5141 -1.6796  1.6366
  984MOL0     H32821  12.120   7.979   4.697  1.1376  1.4829 -0.3056
  984MOL0     H32822  11.376   7.681   5.161 -0.6899  2.3528  1.1466
  984MOL0     H32823  11.232   7.549   5.002 -2.0995 -0.1481  1.6161
  984MOL0     H32824  11.032   7.504   4.684  2.0764 -2.4976 -2.4585
  984MOL0     H32825  10.993   7.297   4.537  3.0243  0.4898  0.7973
  984MOL0     H32826  10.856   5.452   4.539 -1.3085 -2.2068  1.5802
  984MOL0     H32827  10.641   5.318   4.508 -1.6771  1.4847  1.4262
  984MOL0     H32828  10.229   5.321   4.313 -2.7569  0.7999 -0.3230
  984MOL0     H32829  10.024   5.223   4.251  1.5422  0.8533  0.5838
  984MOL0     H32830   9.819   5.123   4.111 -1.2663  0.3090  1.5239
  984MOL0     H32831   9.797   4.961   4.049 -2.1744 -0.4791  3.5455
  984MOL0     H32832   9.904   5.047   4.320 -2.5698  1.0349 -0.0994
  984MOL0     H32833   9.864   4.871   4.269 -0.0825 -0.7636 -3.0725
  984MOL0     H32834   9.640   4.933   4.227 -1.8453  0.3839  0.2539
  984MOL0     H32835   9.668   5.103   4.278 -3.9121 -0.8356  0.4630
  984MOL0     H32836   9.683   4.866   4.473 -1.9439 -0.2403  0.4027
  984MOL0     H32837   9.552   4.981   4.452  0.5533 -0.3884  0.8341
  984MOL0     H32838   9.804   5.215   4.690 -0.8408  1.0155 -0.1796
  984MOL0     H32839  10.215   4.984   3.966 -0.9991  1.0434 -1.2102
  984MOL0     H32840  10.438   5.111   4.001 -1.0057 -1.9679 -1.1559
  985MOL0     O32841   3.878   7.679   9.394 -0.3554  0.2296  0.5728
  985MOL0     C32842   3.837   7.606   9.484  1.0614  0.0887 -0.0061
  985MOL0     O32843   3.748   7.638   9.577 -0.6730 -0.6778 -1.2776
  985MOL0     C32844   3.674   7.754   9.590  0.0050 -0.6828  0.7782
  985MOL0     C32845   3.662   7.837   9.476 -0.0771  0.8516 -0.0477
  985MOL0     C32846   3.572   7.944   9.468 -0.8534 -0.0066 -0.2015
  985MOL0     C32847   3.496   7.978   9.585  0.4168  0.0311 -0.8600
  985MOL0     O32848   3.429   8.094   9.598  0.3580 -0.7632 -0.5255
  985MOL0     C32849   3.395   8.167   9.477 -1.2801  0.3897 -0.2946
  985MOL0     C32850   3.316   8.294   9.503  0.0554  0.0283  0.0954
  985MOL0     C32851   3.323   8.391   9.384 -0.2624  0.0728 -0.4584
  985MOL0     C32852   3.288   8.542   9.407  0.2606  0.1244  0.6229
  985MOL0     C32853   3.296   8.626   9.283 -0.2217 -0.3447  0.6502
  985MOL0     C32854   3.266   8.774   9.316  0.2596  1.3567  1.0114
  985MOL0     C32855   3.246   8.851   9.181 -0.2010  0.0345 -1.1405
  985MOL0     C32856   3.227   9.001   9.218 -0.3695  0.0882  0.0447
  985MOL0     N32857   3.341   9.054   9.300 -1.2453  0.3862 -0.0180
  985MOL0     C32858   3.468   9.063   9.247 -0.2874  0.2860  0.0354
  985MOL0     C32859   3.545   9.105   9.353  0.0343 -0.8323  0.3944
  985MOL0     C32860   3.685   9.127   9.323 -0.5371  1.0067  0.1429
  985MOL0     C32861   3.771   9.023   9.397 -0.5357  0.9878  0.0074
  985MOL0     C32862   3.924   9.049   9.383 -0.5127  0.2792 -0.1935
  985MOL0     C32863   4.010   8.944   9.446 -0.1848  0.3947  0.3257
  985MOL0     O32864   3.993   8.813   9.389  0.3285  0.0030 -0.4907
  985MOL0     C32865   4.060   8.709   9.440  0.0329  0.3168 -1.6264
  985MOL0     C32866   4.045   8.591   9.385  0.1542  0.5654 -0.5898
  985MOL0     C32867   4.120   8.483   9.418 -0.7203  0.2626 -1.1064
  985MOL0     C32868   4.091   8.356   9.341  0.6530 -0.6942  0.0770
  985MOL0     C32869   4.209   8.489   9.531  0.8835 -0.6585 -0.4337
  985MOL0     C32870   4.303   8.384   9.567 -0.3115 -0.0656  0.1810
  985MOL0     O32871   4.319   8.350   9.696  0.0185 -0.0064 -0.7729
  985MOL0     C32872   4.387   8.238   9.736  0.4221  0.4387 -0.0801
  985MOL0     C32873   4.334   8.113   9.703  0.0274  0.0881 -0.5791
  985MOL0     C32874   4.392   7.995   9.756 -0.0950 -0.3167  0.0145
  985MOL0     C32875   4.507   8.011   9.843  0.8740  0.0753 -0.2094
  985MOL0     O32876   4.563   7.908   9.908 -0.0184 -0.1038  0.0108
  985MOL0     C32877   4.702   7.899   9.872  0.0135 -0.7550  0.8188
  985MOL0     C32878   4.748   7.771   9.950 -0.3817  1.0033 -1.4390
  985MOL0     C32879   4.789   7.656   9.854  1.3290 -0.8663 -0.5008
  985MOL0     C32880   4.785   7.524   9.931  0.9249  0.4997  0.9701
  985MOL0     C32881   4.885   7.429   9.884 -0.6553  0.1760 -0.4617
  985MOL0     C32882   4.832   7.354   9.762 -0.0332  0.4141  0.6800
  985MOL0     C32883   4.933   7.241   9.735  0.3556  0.2324  0.2364
  985MOL0     C32884   5.041   7.274   9.617  1.7753  0.0968 -1.3121
  985MOL0    Cl32885   5.161   7.146   9.626 -0.0866 -0.2148  0.7814
  985MOL0     C32886   4.550   8.141   9.888  0.4202 -0.1434 -0.3952
  985MOL0     C32887   4.488   8.252   9.828  0.0389  0.8868 -0.6523
  985MOL0     O32888   4.371   8.338   9.479 -0.5799  0.7880  0.5509
  985MOL0     C32889   4.206   8.603   9.614 -0.0528  0.2474  0.4156
  985MOL0     C32890   4.135   8.717   9.561  0.0002  0.2477  0.4943
  985MOL0     N32891   3.463   9.112   9.465 -0.1991 -0.2139 -0.5353
  985MOL0     N32892   3.347   9.082   9.430 -0.6473  0.2383 -0.5351
  985MOL0     C32893   3.517   7.895   9.695  0.4612  1.2475  0.0067
  985MOL0     C32894   3.603   7.780   9.701  1.0420 -0.2776 -0.5954
  985MOL0     C32895   3.863   7.457   9.473  0.2293 -0.6085  0.0306
  985MOL0     C32896   3.924   7.415   9.351  0.2629  0.7147 -0.5177
  985MOL0     C32897   3.975   7.288   9.349 -0.0850 -0.3149  0.1246
  985MOL0     C32898   3.955   7.200   9.449  1.0244  0.1757  0.1634
  985MOL0     O32899   4.008   7.075   9.418 -0.8478  0.3569 -0.4313
  985MOL0     C32900   4.008   6.966   9.516  0.7046 -0.1139 -0.2617
  985MOL0     C32901   4.126   6.995   9.612  0.2767 -0.0409 -1.1191
  985MOL0     C32902   4.134   6.869   9.701  0.8227  0.3053  0.2806
  985MOL0     C32903   4.258   6.871   9.788 -0.3753  0.0090  0.0238
  985MOL0     C32904   4.247   6.760   9.880 -0.9085  0.9295  0.4664
  985MOL0     C32905   4.251   6.660   9.953 -0.4887  0.1635  1.1511
  985MOL0     C32906   3.888   7.231   9.567  0.7501  0.1012 -0.2669
  985MOL0     C32907   3.835   7.364   9.573 -0.5478 -0.2944 -0.9382
  985MOL0     H32908   3.712   7.830   9.380 -0.1302  2.0805 -0.1836
  985MOL0     H32909   3.563   7.998   9.374 -1.7279  1.1470  0.5189
  985MOL0     H32910   3.492   8.193   9.434 -0.5724 -1.3545  0.1331
  985MOL0     H32911   3.345   8.110   9.398 -2.0432  0.6438 -0.0106
  985MOL0     H32912   3.213   8.266   9.526  0.4747 -1.2459  0.4911
  985MOL0     H32913   3.353   8.350   9.589  2.5554  0.9618 -1.4497
  985MOL0     H32914   3.430   8.382   9.362  0.0457  0.2452  0.9271
  985MOL0     H32915   3.275   8.353   9.293  2.7584 -1.4951 -1.5793
  985MOL0     H32916   3.184   8.552   9.439 -0.0064 -1.1467  0.1999
  985MOL0     H32917   3.364   8.581   9.475  3.4329 -3.7531 -0.3192
  985MOL0     H32918   3.398   8.624   9.245 -1.3440  2.6869 -3.2744
  985MOL0     H32919   3.235   8.578   9.205 -2.8262 -0.2260  2.4580
  985MOL0     H32920   3.171   8.774   9.370 -1.1455 -0.2133 -1.2679
  985MOL0     H32921   3.349   8.815   9.374  0.9449 -0.0493  1.0464
  985MOL0     H32922   3.327   8.835   9.110 -0.3955  1.7812 -1.8053
  985MOL0     H32923   3.156   8.810   9.134 -0.1004 -1.2685 -0.2454
  985MOL0     H32924   3.138   9.011   9.281  0.2867 -3.5154  1.7853
  985MOL0     H32925   3.214   9.064   9.129 -0.0998 -0.1379 -0.1550
  985MOL0     H32926   3.492   9.038   9.144 -1.1059 -3.1422  0.5593
  985MOL0     H32927   3.698   9.106   9.217 -0.7224 -3.0403  0.7897
  985MOL0     H32928   3.722   9.229   9.342 -3.4373  2.0734  0.5788
  985MOL0     H32929   3.736   8.921   9.378 -2.3947  1.7035 -0.6178
  985MOL0     H32930   3.752   9.030   9.504  1.5307 -2.7821  0.8049
  985MOL0     H32931   3.948   9.148   9.424 -0.8586  1.8874 -3.5655
  985MOL0     H32932   3.962   9.066   9.282 -0.4780 -0.3289 -0.2896
  985MOL0     H32933   3.979   8.938   9.551 -2.5161  2.1480 -0.1917
  985MOL0     H32934   4.117   8.965   9.440  0.5535 -2.0983  2.8779
  985MOL0     H32935   3.978   8.591   9.299 -0.5922  1.1464 -0.0265
  985MOL0     H32936   3.983   8.343   9.325  0.9681 -0.7207 -2.5872
  985MOL0     H32937   4.126   8.358   9.237  1.1236 -1.1525  0.2196
  985MOL0     H32938   4.136   8.266   9.383  2.3922 -0.4034 -1.0803
  985MOL0     H32939   4.248   8.106   9.637 -0.0971  0.8490 -0.5082
  985MOL0     H32940   4.341   7.902   9.732 -1.2067  0.7716 -2.0595
  985MOL0     H32941   4.731   7.888   9.767  1.2149  0.7104  0.9615
  985MOL0     H32942   4.759   7.988   9.899  3.4891 -1.9750 -1.6355
  985MOL0     H32943   4.827   7.786  10.024 -1.6109 -1.4756  0.5604
  985MOL0     H32944   4.672   7.723  10.013  2.5284 -0.7752  0.9683
  985MOL0     H32945   4.890   7.670   9.814  1.4810  1.0558  0.4457
  985MOL0     H32946   4.721   7.650   9.768  0.1866  0.3644  0.2760
  985MOL0     H32947   4.812   7.528  10.037  1.0640 -2.7237  1.1430
  985MOL0     H32948   4.682   7.487   9.934  0.8903  0.6588  2.6770
  985MOL0     H32949   4.885   7.360   9.969 -0.5001  0.5629 -0.1448
  985MOL0     H32950   4.988   7.464   9.870  0.1729 -0.4787  3.0216
  985MOL0     H32951   4.730   7.317   9.777 -0.0416  0.1147 -0.0572
  985MOL0     H32952   4.827   7.414   9.671  1.7654  0.1388  0.3673
  985MOL0     H32953   4.880   7.156   9.691  2.2209 -1.0545  0.3545
  985MOL0     H32954   4.982   7.201   9.824 -1.6062 -0.1868  1.1730
  985MOL0     H32955   5.078   7.375   9.641 -1.8132  1.2707 -0.0099
  985MOL0     H32956   4.990   7.279   9.521  0.3544  0.7615 -0.5621
  985MOL0     H32957   4.632   8.164   9.955  2.0478  0.2831 -2.4227
  985MOL0     H32958   4.518   8.351   9.861 -3.0044  1.7214 -0.0113
  985MOL0     H32959   4.272   8.623   9.698  0.2005  0.0013  0.2723
  985MOL0     H32960   4.163   8.814   9.600 -0.1931  0.7033 -0.4837
  985MOL0     H32961   3.458   7.911   9.784 -1.5446  2.4630 -1.4466
  985MOL0     H32962   3.622   7.718   9.788  1.7941  0.3395 -0.3070
  985MOL0     H32963   3.936   7.482   9.267 -1.1849 -0.1891 -1.4922
  985MOL0     H32964   4.033   7.250   9.265  0.7180 -2.0138  1.3987
  985MOL0     H32965   3.919   6.971   9.580  1.9045 -2.8848  1.8245
  985MOL0     H32966   4.021   6.880   9.451  3.2373  0.5806 -0.7583
  985MOL0     H32967   4.098   7.083   9.670 -0.2585  1.3763 -3.3865
  985MOL0     H32968   4.221   7.011   9.561  2.2270 -0.8171  1.9805
  985MOL0     H32969   4.126   6.790   9.625  1.0392  0.2741  0.2900
  985MOL0     H32970   4.040   6.880   9.756 -2.1684 -1.9355 -3.7926
  985MOL0     H32971   4.265   6.957   9.856 -2.4018 -1.1827  1.8554
  985MOL0     H32972   4.347   6.856   9.726  0.8457 -3.0513  2.2535
  985MOL0     H32973   4.251   6.567  10.007 -3.5332 -0.0329  1.0152
  985MOL0     H32974   3.844   7.169   9.644  1.3842  1.7155  1.4889
  985MOL0     H32975   3.787   7.392   9.666  0.9969 -0.8718  0.0798
  986MOL0     O32976   6.483   7.012   6.147  0.2294 -0.2366  0.1992
  986MOL0     C32977   6.526   6.929   6.234  0.9438  0.9559 -0.2614
  986MOL0     O32978   6.494   6.930   6.371 -0.3820  0.5633  0.5490
  986MOL0     C32979   6.407   7.022   6.425 -1.0229 -0.0488  0.0907
  986MOL0     C32980   6.287   7.061   6.356  1.2070 -0.1063 -0.2437
  986MOL0     C32981   6.186   7.130   6.436 -0.7357  0.2235  0.8881
  986MOL0     C32982   6.213   7.194   6.558 -1.0619  0.0593 -0.2782
  986MOL0     O32983   6.139   7.295   6.613  1.0182 -0.1679 -0.6503
  986MOL0     C32984   6.006   7.325   6.558 -0.4456 -1.0603  0.2391
  986MOL0     C32985   5.933   7.414   6.656  0.3466 -1.0233  0.5459
  986MOL0     C32986   6.014   7.544   6.659  0.4225  0.7922  0.7747
  986MOL0     C32987   5.962   7.651   6.754  0.4444 -0.8181  0.7963
  986MOL0     C32988   5.961   7.792   6.692  0.7634  0.4033 -0.6696
  986MOL0     C32989   5.928   7.895   6.795  0.2455 -0.2996 -1.5692
  986MOL0     C32990   5.779   7.897   6.830  0.2259  0.4307 -0.5327
  986MOL0     C32991   5.754   7.995   6.939  0.1221  0.3962 -0.1848
  986MOL0     N32992   5.614   8.007   6.995 -0.6952 -0.0818 -0.4300
  986MOL0     C32993   5.564   7.982   7.123  0.1435  0.1593 -0.2220
  986MOL0     C32994   5.426   7.992   7.115  1.1302 -0.6319  0.7449
  986MOL0     C32995   5.332   7.969   7.226 -0.4487  0.2921 -0.5244
  986MOL0     C32996   5.351   7.826   7.293 -0.4634 -0.9199  0.3410
  986MOL0     C32997   5.338   7.724   7.181 -0.0978 -0.2089  0.1160
  986MOL0     C32998   5.192   7.698   7.132 -0.4900 -0.1462 -0.4420
  986MOL0     O32999   5.105   7.699   7.253 -0.0677  0.3068  0.3312
  986MOL0     C33000   4.985   7.647   7.237  0.2470  0.2982  0.3225
  986MOL0     C33001   4.909   7.626   7.355  0.3708 -0.6802  1.1965
  986MOL0     C33002   4.783   7.558   7.343 -0.8636 -0.2333 -0.0587
  986MOL0     C33003   4.699   7.557   7.468 -0.1230  0.2032  0.2558
  986MOL0     C33004   4.719   7.537   7.212 -0.9899 -0.7085 -1.0590
  986MOL0     C33005   4.580   7.494   7.201 -0.2009  0.2988  0.5395
  986MOL0     O33006   4.538   7.390   7.281 -0.0130 -0.2356  0.4702
  986MOL0     C33007   4.410   7.372   7.318 -0.4636 -0.2149 -0.4701
  986MOL0     C33008   4.298   7.452   7.294  0.1433  0.7026 -0.1788
  986MOL0     C33009   4.169   7.398   7.322  0.1025 -0.3920 -0.0581
  986MOL0     C33010   4.157   7.278   7.392 -0.8663 -0.8539  0.0292
  986MOL0     O33011   4.035   7.239   7.442  0.0340 -0.7060  0.2854
  986MOL0     C33012   3.929   7.225   7.345  0.5204  0.7148 -1.1632
  986MOL0     C33013   3.799   7.184   7.416  0.7058  0.1642  0.5466
  986MOL0     C33014   3.687   7.152   7.315 -0.2085  0.1447 -0.0778
  986MOL0     C33015   3.576   7.092   7.394 -0.9303  0.9207 -0.4259
  986MOL0     C33016   3.453   7.044   7.313 -0.5701 -0.4661  0.7222
  986MOL0     C33017   3.410   6.902   7.341  0.6760 -0.0777  0.1104
  986MOL0     C33018   3.365   6.876   7.483  1.3241  0.2578 -0.0676
  986MOL0     C33019   3.362   6.722   7.508  0.1060  0.1885 -0.2069
  986MOL0    Cl33020   3.536   6.655   7.519 -0.7954  0.4316 -0.3741
  986MOL0     C33021   4.274   7.212   7.433  0.0731 -0.0306  0.3873
  986MOL0     C33022   4.403   7.255   7.393 -0.1076  1.1953 -0.4156
  986MOL0     O33023   4.513   7.564   7.136  0.4094 -0.2081  0.2553
  986MOL0     C33024   4.792   7.577   7.103  0.1524  0.1599 -0.3342
  986MOL0     C33025   4.921   7.616   7.110  0.6441 -0.1947  0.8870
  986MOL0     N33026   5.386   8.015   6.982  0.4566  0.7937  0.2807
  986MOL0     N33027   5.502   8.035   6.917 -0.1510  0.4654 -0.9878
  986MOL0     C33028   6.336   7.162   6.619  0.5641  1.0844  0.4281
  986MOL0     C33029   6.434   7.082   6.552  0.8154 -0.1030 -0.3440
  986MOL0     C33030   6.639   6.855   6.182 -0.1521 -0.3331  0.3094
  986MOL0     C33031   6.727   6.783   6.268 -0.3647  0.6693 -0.5715
  986MOL0     C33032   6.840   6.715   6.209  0.4640  0.4722 -0.3195
  986MOL0     C33033   6.865   6.714   6.067  0.0668  0.1072 -0.9175
  986MOL0     O33034   6.965   6.648   6.000 -0.4430  0.2268 -0.0038
  986MOL0     C33035   7.078   6.600   6.081 -0.4790  0.2033  0.1971
  986MOL0     C33036   7.206   6.567   5.992  0.0039  0.0851  0.5221
  986MOL0     C33037   7.178   6.477   5.866 -0.3710 -0.3757 -0.0588
  986MOL0     C33038   7.091   6.351   5.903  0.0771  0.2548 -0.2798
  986MOL0     C33039   7.143   6.278   6.020  0.7105  0.3627 -0.7711
  986MOL0     C33040   7.178   6.216   6.122  1.2146 -0.3561  0.3558
  986MOL0     C33041   6.783   6.794   5.987  0.9442  0.2051 -0.3850
  986MOL0     C33042   6.672   6.864   6.047 -0.1307 -0.4540 -0.6343
  986MOL0     H33043   6.258   7.038   6.253  0.9527 -0.5570 -0.0769
  986MOL0     H33044   6.101   7.164   6.377  1.6501  3.2180 -1.1532
  986MOL0     H33045   6.019   7.377   6.462  1.0585  1.1898  1.5640
  986MOL0     H33046   5.945   7.236   6.544 -2.5434  0.1958  0.8551
  986MOL0     H33047   5.834   7.446   6.620  1.1583 -1.0239 -1.8815
  986MOL0     H33048   5.933   7.360   6.751  2.8579  0.7810  1.6739
  986MOL0     H33049   6.118   7.529   6.688  1.2312  1.2758 -1.6661
  986MOL0     H33050   6.004   7.576   6.555  1.8480  1.1713  0.7392
  986MOL0     H33051   5.867   7.618   6.799 -1.5637  0.8949 -1.8745
  986MOL0     H33052   6.047   7.658   6.822  0.6214 -0.8430  0.5742
  986MOL0     H33053   6.055   7.811   6.638  1.6914 -2.5773 -0.2674
  986MOL0     H33054   5.882   7.800   6.616  1.7547 -0.3752 -1.8194
  986MOL0     H33055   5.990   7.910   6.884 -1.7385 -0.5624 -0.0512
  986MOL0     H33056   5.937   7.990   6.742 -0.6234  1.1915  0.7677
  986MOL0     H33057   5.721   7.904   6.738 -1.0728 -0.2622  0.2052
  986MOL0     H33058   5.761   7.796   6.868  2.4119  0.4076  0.6439
  986MOL0     H33059   5.771   8.093   6.894  0.6410  0.7074  0.6593
  986MOL0     H33060   5.823   7.979   7.022 -1.6661  0.2082  1.3344
  986MOL0     H33061   5.623   7.961   7.211 -2.2545 -0.5934  1.3038
  986MOL0     H33062   5.334   8.054   7.295  2.8147 -0.3345  0.3071
  986MOL0     H33063   5.234   7.969   7.176 -0.6507 -1.1822 -0.1889
  986MOL0     H33064   5.282   7.806   7.375 -0.4687  2.4020  1.2917
  986MOL0     H33065   5.452   7.823   7.335  0.7747 -1.4650 -2.3901
  986MOL0     H33066   5.380   7.629   7.213  1.3333  0.2047 -0.4497
  986MOL0     H33067   5.404   7.758   7.100 -1.0152  0.5082 -0.3549
  986MOL0     H33068   5.187   7.601   7.081 -1.6807  1.2148 -3.1626
  986MOL0     H33069   5.168   7.778   7.061 -1.5837 -0.1768 -0.1266
  986MOL0     H33070   4.960   7.645   7.449 -0.1273  2.6282  0.9285
  986MOL0     H33071   4.637   7.647   7.472 -1.7557 -0.9048  0.9676
  986MOL0     H33072   4.638   7.467   7.479 -2.2902  1.7544  1.5672
  986MOL0     H33073   4.754   7.561   7.563 -1.3401  0.1394  0.9861
  986MOL0     H33074   4.297   7.549   7.244  1.4344  1.0958  0.5310
  986MOL0     H33075   4.084   7.465   7.316 -1.9350 -2.9244 -1.1934
  986MOL0     H33076   3.903   7.318   7.292  1.7921  0.7306 -1.7802
  986MOL0     H33077   3.960   7.150   7.273 -3.6867 -1.0683 -1.4025
  986MOL0     H33078   3.813   7.094   7.478 -3.4078 -0.5366  0.7291
  986MOL0     H33079   3.777   7.259   7.492 -1.4645 -0.0137  0.1536
  986MOL0     H33080   3.722   7.077   7.244 -1.7743 -1.7858  1.0755
  986MOL0     H33081   3.652   7.238   7.258  0.7045 -2.1055 -4.3986
  986MOL0     H33082   3.616   7.009   7.453 -4.1924 -0.1223  0.5464
  986MOL0     H33083   3.528   7.164   7.461  0.7951  0.5751  1.2856
  986MOL0     H33084   3.487   7.043   7.209  2.9525  0.8694  1.7451
  986MOL0     H33085   3.368   7.112   7.324 -3.5433 -3.8168  0.3486
  986MOL0     H33086   3.329   6.887   7.268  2.6665  5.2354 -3.8086
  986MOL0     H33087   3.484   6.835   7.298 -0.9097 -0.8574 -1.5061
  986MOL0     H33088   3.265   6.915   7.506  0.9938  0.4889 -1.7926
  986MOL0     H33089   3.438   6.909   7.558  0.6316 -1.9301  1.6751
  986MOL0     H33090   3.308   6.665   7.432 -1.2970 -0.7485  1.4088
  986MOL0     H33091   3.310   6.704   7.603  0.9057  2.5600  0.7784
  986MOL0     H33092   4.255   7.112   7.471 -0.4557 -0.7789 -1.6656
  986MOL0     H33093   4.490   7.199   7.425 -0.5656  0.2955 -0.7183
  986MOL0     H33094   4.769   7.567   6.997  1.2176  1.4141 -0.7138
  986MOL0     H33095   4.968   7.627   7.013  2.2635 -2.3381  1.3649
  986MOL0     H33096   6.366   7.196   6.717  0.1070  1.2559  0.5108
  986MOL0     H33097   6.529   7.065   6.602 -0.1420 -2.6911  0.8015
  986MOL0     H33098   6.722   6.783   6.376 -3.2159  1.0543 -0.6162
  986MOL0     H33099   6.889   6.651   6.282 -0.8111 -0.3741 -0.1743
  986MOL0     H33100   7.096   6.661   6.170 -2.4884 -2.4830  2.6206
  986MOL0     H33101   7.041   6.506   6.121 -1.4383  0.9120  1.0242
  986MOL0     H33102   7.270   6.509   6.059  0.4451 -0.3540 -0.2651
  986MOL0     H33103   7.263   6.659   5.976 -3.4366  3.2297  4.0833
  986MOL0     H33104   7.268   6.436   5.818  2.2505  1.9661  2.4546
  986MOL0     H33105   7.122   6.538   5.795  1.7477  0.9914 -0.6377
  986MOL0     H33106   7.073   6.288   5.815 -0.6002 -0.2255  0.1927
  986MOL0     H33107   6.989   6.386   5.920 -0.2049  0.0814 -1.4854
  986MOL0     H33108   7.212   6.161   6.207  1.0555 -1.1203 -0.0618
  986MOL0     H33109   6.808   6.799   5.882  1.0796 -0.8845 -0.4102
  986MOL0     H33110   6.610   6.920   5.978  0.8929 -1.0623 -2.0923
  987MOL0     O33111   2.830   2.179   5.907  0.1889 -0.3439  0.2928
  987MOL0     C33112   2.859   2.085   5.978 -0.5647  0.3373  0.2311
  987MOL0     O33113   2.841   1.955   5.954  0.1829  0.1768  0.5456
  987MOL0     C33114   2.839   1.914   5.826  0.1891 -0.6724  0.1736
  987MOL0     C33115   2.757   1.805   5.798 -0.4933  0.3549 -0.0089
  987MOL0     C33116   2.757   1.738   5.678 -0.5203 -1.3036  0.3319
  987MOL0     C33117   2.828   1.805   5.574 -0.7000  1.2763 -0.8813
  987MOL0     O33118   2.836   1.756   5.450  0.2782  0.5774  0.2442
  987MOL0     C33119   2.789   1.629   5.409 -0.1912  0.2813 -0.0462
  987MOL0     C33120   2.721   1.644   5.267  0.3735 -0.2208 -0.4817
  987MOL0     C33121   2.650   1.513   5.228  0.6423 -0.6072  0.7110
  987MOL0     C33122   2.535   1.477   5.318 -0.8563  0.2238  0.4160
  987MOL0     C33123   2.459   1.370   5.250  0.5256  0.1976 -0.3587
  987MOL0     C33124   2.327   1.359   5.315  0.1696  0.3980  0.0737
  987MOL0     C33125   2.341   1.289   5.453 -0.0156 -0.2818 -0.0351
  987MOL0     C33126   2.194   1.248   5.505 -0.8954  0.3515  0.8557
  987MOL0     N33127   2.152   1.111   5.456 -0.8972 -0.4477 -0.0604
  987MOL0     C33128   2.227   1.002   5.436  0.0362 -0.3022 -0.0380
  987MOL0     C33129   2.139   0.899   5.414 -0.4704 -1.0173  0.2632
  987MOL0     C33130   2.186   0.762   5.403  0.1047 -0.0704 -0.8688
  987MOL0     C33131   2.269   0.707   5.519 -1.4777 -0.3246 -0.5612
  987MOL0     C33132   2.197   0.668   5.651  0.8951  1.1138 -0.9286
  987MOL0     C33133   2.068   0.583   5.629 -0.1958 -0.5608 -0.2535
  987MOL0     O33134   2.088   0.474   5.546 -0.0002 -0.4541  0.4541
  987MOL0     C33135   2.138   0.350   5.596  0.0400 -0.3580  0.7092
  987MOL0     C33136   2.151   0.242   5.510  0.0227 -0.8863 -0.2850
  987MOL0     C33137   2.204   0.116   5.549 -0.3535 -0.0556  0.3289
  987MOL0     C33138   2.204   0.005   5.444 -0.8457  0.5122  0.0968
  987MOL0     C33139   2.251   0.095   5.683 -0.1863  0.1654  0.4041
  987MOL0     C33140   2.282  -0.040   5.743 -0.2394  0.5861  0.0009
  987MOL0     O33141   2.230  -0.156   5.700 -0.2860  0.3517  0.4986
  987MOL0     C33142   2.286  -0.274   5.718  0.1329  0.1111 -0.4575
  987MOL0     C33143   2.411  -0.315   5.666  0.4787  0.6761 -0.3757
  987MOL0     C33144   2.472  -0.438   5.696  0.4443 -0.0671 -0.5260
  987MOL0     C33145   2.402  -0.536   5.766  0.5104 -0.9057 -1.3760
  987MOL0     O33146   2.471  -0.643   5.804  0.6069  1.3659  0.3134
  987MOL0     C33147   2.408  -0.740   5.881  0.5292  0.3155  0.8986
  987MOL0     C33148   2.515  -0.839   5.926 -0.3574 -0.1217  0.4230
  987MOL0     C33149   2.601  -0.901   5.818 -0.1103  0.0015  0.5996
  987MOL0     C33150   2.673  -1.035   5.841 -0.1745  0.1727 -0.5381
  987MOL0     C33151   2.712  -1.114   5.713  0.2908 -0.2420  0.0371
  987MOL0     C33152   2.791  -1.025   5.621 -0.3149  0.0005 -1.1323
  987MOL0     C33153   2.828  -1.105   5.495  0.1401  0.3130 -0.5225
  987MOL0     C33154   2.934  -1.045   5.410 -0.1188  0.0283 -0.7745
  987MOL0    Cl33155   3.074  -0.997   5.508  0.2885 -0.0675 -0.1072
  987MOL0     C33156   2.265  -0.509   5.808 -0.0199 -0.1562  0.0242
  987MOL0     C33157   2.212  -0.381   5.785  0.2056 -0.5546  0.1300
  987MOL0     O33158   2.360  -0.035   5.837  0.1123 -0.5981 -0.4702
  987MOL0     C33159   2.227   0.207   5.769  0.1819 -0.2099  0.3030
  987MOL0     C33160   2.172   0.331   5.732  0.8075  0.3721  0.6945
  987MOL0     N33161   2.019   0.950   5.403 -1.3239 -0.2820 -0.4476
  987MOL0     N33162   2.029   1.078   5.425 -0.1279 -0.3283  0.0640
  987MOL0     C33163   2.895   1.925   5.596 -0.8725  0.1134 -0.2279
  987MOL0     C33164   2.910   1.979   5.726 -0.3802 -0.3982  0.7425
  987MOL0     C33165   2.943   2.104   6.092 -1.2633  0.4150 -0.4584
  987MOL0     C33166   2.979   2.003   6.185 -0.5312  0.4438  0.8676
  987MOL0     C33167   3.074   2.027   6.291 -0.6495 -0.3234  0.4965
  987MOL0     C33168   3.133   2.154   6.303  0.8399 -1.1641  0.1442
  987MOL0     O33169   3.233   2.157   6.391 -0.1931 -0.3666  0.2464
  987MOL0     C33170   3.319   2.282   6.389 -0.6396  0.1219  0.4568
  987MOL0     C33171   3.455   2.216   6.398 -0.2927  0.6654  0.6585
  987MOL0     C33172   3.577   2.309   6.388  0.9345 -0.5064  0.6375
  987MOL0     C33173   3.589   2.414   6.503  0.0447  0.9872 -0.0717
  987MOL0     C33174   3.642   2.350   6.630  0.0763 -0.2478 -0.6041
  987MOL0     C33175   3.696   2.330   6.742 -0.2214  0.9633 -0.2258
  987MOL0     C33176   3.086   2.264   6.217  0.0735  1.7241 -0.0813
  987MOL0     C33177   2.994   2.232   6.118 -0.3395 -0.7339  0.9273
  987MOL0     H33178   2.678   1.781   5.869  0.8795 -1.1216  1.1187
  987MOL0     H33179   2.678   1.664   5.671 -1.6679 -0.2403  1.4862
  987MOL0     H33180   2.869   1.555   5.411 -0.7443 -0.4554 -2.2216
  987MOL0     H33181   2.711   1.594   5.477  1.1824 -1.2103  0.8339
  987MOL0     H33182   2.651   1.728   5.277  1.4804  0.8979 -1.7330
  987MOL0     H33183   2.799   1.665   5.193  2.0229 -1.3472  0.8686
  987MOL0     H33184   2.613   1.528   5.126 -1.9806 -0.1676  1.6370
  987MOL0     H33185   2.710   1.422   5.231 -0.3457 -1.3257 -0.3588
  987MOL0     H33186   2.580   1.432   5.407  2.2096  2.5663  0.1965
  987MOL0     H33187   2.472   1.563   5.340  1.3548  2.0318  0.0129
  987MOL0     H33188   2.450   1.395   5.144  0.7278  1.0725 -0.1764
  987MOL0     H33189   2.515   1.275   5.251 -0.6609 -0.5168  0.7831
  987MOL0     H33190   2.283   1.457   5.330 -0.0941  0.2327  0.4039
  987MOL0     H33191   2.259   1.304   5.249 -0.8354 -1.7048  2.6354
  987MOL0     H33192   2.404   1.200   5.447  1.1649  0.6190 -2.9047
  987MOL0     H33193   2.392   1.354   5.523 -2.6899  2.4527 -0.4062
  987MOL0     H33194   2.121   1.321   5.470 -0.5558  0.4473  0.3405
  987MOL0     H33195   2.193   1.235   5.614 -0.6066 -1.7466  0.6678
  987MOL0     H33196   2.331   0.991   5.465 -0.3933 -0.0305  1.6698
  987MOL0     H33197   2.107   0.686   5.397 -1.8852  1.7824  0.3713
  987MOL0     H33198   2.246   0.749   5.312 -1.9200 -1.3974 -2.1110
  987MOL0     H33199   2.361   0.765   5.527 -0.7143 -1.3698 -1.4161
  987MOL0     H33200   2.287   0.607   5.477 -0.5614 -0.0434 -0.8481
  987MOL0     H33201   2.165   0.759   5.702  1.5096  0.6179  0.4073
  987MOL0     H33202   2.265   0.613   5.717 -0.9949 -0.6241 -0.3253
  987MOL0     H33203   1.994   0.646   5.578  1.6684  3.0396  1.0587
  987MOL0     H33204   2.032   0.552   5.727  2.5266 -1.5953  0.5154
  987MOL0     H33205   2.144   0.266   5.404  2.5859  0.2538 -0.2691
  987MOL0     H33206   2.208   0.037   5.340  0.4504  0.6546  0.1731
  987MOL0     H33207   2.292  -0.060   5.454  1.5573  3.4545 -0.3843
  987MOL0     H33208   2.111  -0.051   5.448  0.1859 -1.3204 -0.3193
  987MOL0     H33209   2.452  -0.244   5.594  1.4089 -1.1094 -1.6724
  987MOL0     H33210   2.570  -0.464   5.657  0.0839 -2.5695  0.0439
  987MOL0     H33211   2.347  -0.697   5.962  2.4190  4.7384  0.2812
  987MOL0     H33212   2.343  -0.799   5.817 -2.7200  1.9739  2.4310
  987MOL0     H33213   2.577  -0.786   5.999 -0.5876 -1.1759  1.4209
  987MOL0     H33214   2.459  -0.916   5.980 -0.2495  0.4558  1.3805
  987MOL0     H33215   2.674  -0.823   5.790 -0.3474 -0.6982 -2.2151
  987MOL0     H33216   2.547  -0.909   5.724  1.2668 -1.3940 -0.1116
  987MOL0     H33217   2.749  -1.023   5.918 -0.1531 -0.2524 -0.4877
  987MOL0     H33218   2.591  -1.095   5.882 -0.8071  1.1265 -0.3697
  987MOL0     H33219   2.619  -1.137   5.660  0.3123  0.3040 -0.2496
  987MOL0     H33220   2.773  -1.203   5.727  2.2591  0.8109 -1.2580
  987MOL0     H33221   2.726  -0.940   5.597 -0.9422 -0.3746 -0.8065
  987MOL0     H33222   2.884  -0.997   5.671 -2.4787  0.6301  2.9793
  987MOL0     H33223   2.735  -1.122   5.440 -1.5409  1.0126  1.9857
  987MOL0     H33224   2.870  -1.201   5.525  1.2645  1.3086  1.2608
  987MOL0     H33225   2.888  -0.961   5.356  2.8359  0.4515 -2.8425
  987MOL0     H33226   2.955  -1.119   5.333  1.4020  1.8882 -2.2478
  987MOL0     H33227   2.206  -0.573   5.872 -1.0652  1.5614  0.8704
  987MOL0     H33228   2.113  -0.354   5.823  0.0478 -0.0457 -0.6091
  987MOL0     H33229   2.253   0.189   5.873 -2.4309 -2.0029  0.7492
  987MOL0     H33230   2.168   0.412   5.804 -1.9582  0.3859  0.6483
  987MOL0     H33231   2.954   1.976   5.522 -1.4440  1.2073  0.0416
  987MOL0     H33232   2.973   2.065   5.746 -0.3635  0.1054 -1.2055
  987MOL0     H33233   2.939   1.904   6.165 -0.1040  0.7118 -1.5059
  987MOL0     H33234   3.108   1.952   6.363  3.1979  2.2149  1.6588
  987MOL0     H33235   3.316   2.340   6.296  0.9121 -0.5883 -0.0725
  987MOL0     H33236   3.302   2.352   6.471 -0.7176  0.3310  0.2644
  987MOL0     H33237   3.457   2.153   6.309 -0.1598  1.1087  0.3439
  987MOL0     H33238   3.471   2.150   6.483 -1.0610  2.3225  2.1734
  987MOL0     H33239   3.573   2.366   6.295  1.8178 -1.8999 -0.2988
  987MOL0     H33240   3.666   2.246   6.398  0.1213 -1.5115  2.1363
  987MOL0     H33241   3.491   2.457   6.529 -2.0793 -2.7867 -1.1034
  987MOL0     H33242   3.664   2.490   6.480  2.4391 -0.9160  0.9770
  987MOL0     H33243   3.758   2.318   6.828  1.5754  1.1546 -1.4408
  987MOL0     H33244   3.137   2.360   6.215  0.8981  1.2822 -0.7898
  987MOL0     H33245   2.972   2.322   6.062  2.5767 -1.7478 -2.1522
  988MOL0     O33246   0.368   4.287   4.316 -0.4228 -0.0281  0.6611
  988MOL0     C33247   0.338   4.370   4.231  0.6330  0.0971 -0.7483
  988MOL0     O33248   0.336   4.342   4.091 -0.1218 -0.3107 -0.5874
  988MOL0     C33249   0.404   4.232   4.039 -0.6067 -0.4219  0.3812
  988MOL0     C33250   0.422   4.098   4.097 -0.3482 -0.3825  0.6183
  988MOL0     C33251   0.484   3.997   4.029 -0.3011 -0.5062 -0.5357
  988MOL0     C33252   0.530   4.020   3.900 -0.2665  0.7595  0.2930
  988MOL0     O33253   0.589   3.918   3.823  0.6862 -1.0376 -0.2785
  988MOL0     C33254   0.710   3.946   3.752 -0.0257  0.6630 -0.1872
  988MOL0     C33255   0.842   3.876   3.811  0.3152 -0.2728  0.9949
  988MOL0     C33256   0.886   3.934   3.948 -1.0930 -0.7182  1.1137
  988MOL0     C33257   0.967   4.062   3.927  0.2963 -0.9980 -1.1458
  988MOL0     C33258   1.024   4.123   4.062 -0.1494  0.0508 -1.0635
  988MOL0     C33259   1.105   4.250   4.030  0.6078  0.4500  0.4576
  988MOL0     C33260   1.127   4.322   4.163 -0.0071  0.2530 -0.0350
  988MOL0     C33261   1.193   4.459   4.151  0.1637  0.4946  0.5770
  988MOL0     N33262   1.204   4.514   4.280  0.1222  0.0965  0.5172
  988MOL0     C33263   1.306   4.486   4.367 -0.4992 -0.4642 -0.2422
  988MOL0     C33264   1.276   4.553   4.482  0.1046 -0.3651  0.5713
  988MOL0     C33265   1.366   4.559   4.604 -0.2788  0.1120  0.8554
  988MOL0     C33266   1.402   4.703   4.624  0.4793 -0.3152  0.5602
  988MOL0     C33267   1.477   4.710   4.763  0.3529  0.1823 -0.1483
  988MOL0     C33268   1.549   4.851   4.778 -0.0091  0.2232  0.2558
  988MOL0     O33269   1.605   4.853   4.907 -0.4213  0.0572 -0.3253
  988MOL0     C33270   1.652   4.978   4.954 -0.5641  0.8023  0.0880
  988MOL0     C33271   1.675   5.093   4.879 -0.5756 -0.6385  0.5541
  988MOL0     C33272   1.726   5.210   4.950  0.5752  0.7025 -0.1769
  988MOL0     C33273   1.721   5.343   4.873  1.4939  0.4728 -0.1367
  988MOL0     C33274   1.764   5.200   5.081  0.4550 -0.0455 -0.5882
  988MOL0     C33275   1.832   5.310   5.157 -0.7648 -0.6914  0.1415
  988MOL0     O33276   1.799   5.323   5.288  0.5588 -0.2587 -0.4297
  988MOL0     C33277   1.813   5.441   5.356  0.0004 -0.0781  0.5465
  988MOL0     C33278   1.715   5.541   5.357  0.0497 -0.7523 -0.3086
  988MOL0     C33279   1.736   5.659   5.421  1.0523 -0.2207  0.4399
  988MOL0     C33280   1.866   5.688   5.476  0.4588 -0.6664  0.5389
  988MOL0     O33281   1.876   5.811   5.527 -0.7671 -0.9244  0.1645
  988MOL0     C33282   2.003   5.856   5.575 -0.6965 -0.1150  0.0162
  988MOL0     C33283   1.968   5.995   5.629 -0.3654 -0.9502 -0.3933
  988MOL0     C33284   1.901   5.988   5.767  0.0173 -1.2453  0.6764
  988MOL0     C33285   1.799   6.097   5.787 -0.1948  1.0904 -0.1333
  988MOL0     C33286   1.666   6.055   5.718  0.1954  0.5100 -0.9278
  988MOL0     C33287   1.566   6.178   5.721 -0.3199  0.4211 -0.0567
  988MOL0     C33288   1.438   6.161   5.637  1.1097  0.3042  0.3485
  988MOL0     C33289   1.465   6.136   5.484  0.1746 -0.0230  0.3776
  988MOL0    Cl33290   1.510   6.279   5.405 -0.0986 -0.2314  0.3764
  988MOL0     C33291   1.969   5.592   5.471  0.5037 -0.6210  0.1624
  988MOL0     C33292   1.941   5.465   5.414  0.5819  0.6811  1.0515
  988MOL0     O33293   1.922   5.378   5.100 -0.7582 -0.1151 -0.4206
  988MOL0     C33294   1.746   5.073   5.146  0.0926  0.0592  0.2264
  988MOL0     C33295   1.676   4.969   5.090 -0.1986 -0.3191  0.7826
  988MOL0     N33296   1.170   4.634   4.460 -0.1708 -0.0723 -0.3460
  988MOL0     N33297   1.128   4.613   4.339 -0.1315  0.0280 -0.5136
  988MOL0     C33298   0.513   4.150   3.845 -0.0101  0.4976  0.0672
  988MOL0     C33299   0.457   4.258   3.914  0.3873 -0.4787 -0.3278
  988MOL0     C33300   0.284   4.497   4.279 -1.0066 -0.6957  0.3497
  988MOL0     C33301   0.193   4.581   4.210  0.2175  0.0986  0.2720
  988MOL0     C33302   0.149   4.707   4.257 -0.5877 -0.0762  0.1677
  988MOL0     C33303   0.197   4.758   4.375 -0.9837 -0.5012  0.7391
  988MOL0     O33304   0.149   4.885   4.409  0.0096  0.2665 -1.5666
  988MOL0     C33305   0.112   4.903   4.544  0.4843 -0.7121 -0.4974
  988MOL0     C33306  -0.023   4.832   4.564 -0.2125  0.0898  0.2487
  988MOL0     C33307  -0.140   4.874   4.474  0.0415 -0.5306 -0.9433
  988MOL0     C33308  -0.222   4.976   4.543 -0.1779 -0.7271 -0.0849
  988MOL0     C33309  -0.307   5.061   4.454  0.0922 -0.2228  0.3514
  988MOL0     C33310  -0.389   5.121   4.381 -0.5021 -0.3098 -0.0161
  988MOL0     C33311   0.293   4.679   4.439 -0.6751 -0.5464 -0.9691
  988MOL0     C33312   0.330   4.551   4.402  0.1056 -0.4717  0.4758
  988MOL0     H33313   0.398   4.080   4.201 -1.5805  1.0189  0.6016
  988MOL0     H33314   0.493   3.899   4.074  0.2806  0.2526  1.0868
  988MOL0     H33315   0.693   3.916   3.648 -1.8882  0.2556  0.2020
  988MOL0     H33316   0.725   4.055   3.759  2.1624  0.4453 -0.6688
  988MOL0     H33317   0.813   3.771   3.828 -0.0121 -0.0001  2.2016
  988MOL0     H33318   0.925   3.869   3.740  1.8828  1.5036  2.5632
  988MOL0     H33319   0.799   3.965   4.005 -0.9436  0.8896  0.5068
  988MOL0     H33320   0.949   3.855   3.991 -0.0718 -0.3732  0.2798
  988MOL0     H33321   1.052   4.030   3.866  2.0162 -0.5507  0.8953
  988MOL0     H33322   0.905   4.142   3.884  0.5427 -1.6522 -2.7734
  988MOL0     H33323   0.947   4.136   4.138  0.9903  1.4895 -0.1063
  988MOL0     H33324   1.095   4.050   4.104 -0.4366  0.0102 -0.6473
  988MOL0     H33325   1.203   4.219   3.993 -0.4774 -0.9584 -1.4380
  988MOL0     H33326   1.047   4.311   3.959  0.4885 -1.6551 -1.3654
  988MOL0     H33327   1.036   4.343   4.219  0.5209  1.5435  0.3921
  988MOL0     H33328   1.190   4.282   4.243 -0.8440  4.4464  3.0746
  988MOL0     H33329   1.131   4.511   4.076 -0.4002 -0.3962  0.4095
  988MOL0     H33330   1.291   4.443   4.105  1.6876 -0.1071  3.7669
  988MOL0     H33331   1.392   4.422   4.350 -1.7031 -2.1713 -0.2869
  988MOL0     H33332   1.303   4.529   4.688 -2.0106  0.8528 -0.1165
  988MOL0     H33333   1.440   4.479   4.596  0.9927  1.3486 -0.1700
  988MOL0     H33334   1.311   4.762   4.638  0.6282 -0.0657  0.4829
  988MOL0     H33335   1.468   4.755   4.554 -3.7107  2.3210 -1.8744
  988MOL0     H33336   1.546   4.625   4.775 -1.2099 -1.1122 -0.0346
  988MOL0     H33337   1.387   4.691   4.822 -0.0033 -1.8363 -1.2573
  988MOL0     H33338   1.478   4.933   4.765 -1.0043 -0.3206  1.9304
  988MOL0     H33339   1.633   4.848   4.709 -0.4140 -3.1334 -0.2475
  988MOL0     H33340   1.643   5.096   4.775  1.6673  0.9309 -0.1699
  988MOL0     H33341   1.710   5.330   4.765  2.9174  0.7662 -0.3366
  988MOL0     H33342   1.648   5.408   4.921  2.5013  1.5475 -0.0287
  988MOL0     H33343   1.810   5.406   4.871 -0.0540  3.1116 -5.3868
  988MOL0     H33344   1.622   5.521   5.305 -0.2072 -2.9336  0.8514
  988MOL0     H33345   1.665   5.741   5.428  3.2053  1.6649  1.2379
  988MOL0     H33346   2.058   5.801   5.651 -0.4601  1.9660  1.4203
  988MOL0     H33347   2.077   5.868   5.496  0.0758 -1.0969  0.5818
  988MOL0     H33348   2.061   6.046   5.658 -1.8236  0.2108  2.6120
  988MOL0     H33349   1.925   6.054   5.547  0.7797  2.3133  1.1756
  988MOL0     H33350   1.980   5.990   5.842  0.9363 -1.7001 -0.2513
  988MOL0     H33351   1.846   5.895   5.783 -0.6739 -0.8651  0.5547
  988MOL0     H33352   1.783   6.114   5.893  2.9720  0.1214  0.6175
  988MOL0     H33353   1.828   6.191   5.740 -0.0384  2.0527  1.8149
  988MOL0     H33354   1.625   5.963   5.759 -0.1869  1.1138  0.0889
  988MOL0     H33355   1.686   6.032   5.613 -0.6689 -2.3962 -0.5244
  988MOL0     H33356   1.530   6.189   5.823 -0.8408 -0.2911 -0.1564
  988MOL0     H33357   1.613   6.274   5.696 -1.2367  0.3683 -2.2315
  988MOL0     H33358   1.385   6.257   5.638 -1.3257 -0.9444  0.3653
  988MOL0     H33359   1.372   6.083   5.678 -0.5562  1.0605 -0.7571
  988MOL0     H33360   1.372   6.100   5.439  1.1723 -0.5312 -1.3428
  988MOL0     H33361   1.544   6.063   5.469 -0.2203 -0.6791  1.3783
  988MOL0     H33362   2.061   5.618   5.522  0.4318 -0.1709  0.0694
  988MOL0     H33363   1.997   5.374   5.398 -2.5055 -1.0595 -1.0112
  988MOL0     H33364   1.780   5.072   5.249  0.8588 -2.1727  0.0104
  988MOL0     H33365   1.660   4.876   5.145  1.7192 -0.7986  0.6090
  988MOL0     H33366   0.538   4.155   3.740  2.2801 -2.9835  0.2977
  988MOL0     H33367   0.455   4.356   3.867 -0.3416  0.2244  1.1230
  988MOL0     H33368   0.165   4.544   4.112  2.1956 -1.9482  0.4102
  988MOL0     H33369   0.075   4.753   4.193  0.0798 -2.3892 -2.4785
  988MOL0     H33370   0.180   4.858   4.617 -2.0694  0.1405  2.6362
  988MOL0     H33371   0.092   5.009   4.563  1.8473 -0.5394  0.0628
  988MOL0     H33372  -0.054   4.839   4.669 -0.1028 -0.9422  0.3618
  988MOL0     H33373  -0.005   4.726   4.542 -1.2540 -0.3613  1.4531
  988MOL0     H33374  -0.210   4.791   4.460 -0.2849 -1.0580  2.6304
  988MOL0     H33375  -0.106   4.914   4.378  0.0017 -0.9577 -1.1371
  988MOL0     H33376  -0.161   5.048   4.599  0.3607 -0.1119 -1.4123
  988MOL0     H33377  -0.293   4.933   4.614  1.4487 -2.2658  0.6732
  988MOL0     H33378  -0.449   5.178   4.313 -0.2178  0.5259  0.4229
  988MOL0     H33379   0.335   4.722   4.529 -1.3332 -0.5659 -0.6469
  988MOL0     H33380   0.403   4.503   4.465 -0.2339 -1.1777  0.3362
  989MOL0     O33381   4.954   3.875   0.004 -0.2640 -0.7568 -0.5012
  989MOL0     C33382   4.982   3.983  -0.051 -0.4357 -1.5975 -0.3546
  989MOL0     O33383   4.954   4.110  -0.011 -0.5945 -0.4768 -0.1496
  989MOL0     C33384   4.893   4.144   0.104 -0.4900  0.1962 -0.8450
  989MOL0     C33385   4.968   4.152   0.225  1.2012 -0.0587 -0.5522
  989MOL0     C33386   4.904   4.191   0.344  0.6840  0.5621 -0.3254
  989MOL0     C33387   4.769   4.230   0.337 -0.3247 -0.2503 -0.4642
  989MOL0     O33388   4.697   4.282   0.448 -0.3121 -0.2670  0.6004
  989MOL0     C33389   4.689   4.426   0.454 -0.0944 -0.5635  0.5815
  989MOL0     C33390   4.815   4.506   0.459 -0.6866  0.7457 -0.6633
  989MOL0     C33391   4.864   4.485   0.605  0.2356 -0.2966  0.1420
  989MOL0     C33392   5.006   4.549   0.628 -0.9396  0.0965 -1.4044
  989MOL0     C33393   5.031   4.530   0.779  1.0065 -0.2298  0.3660
  989MOL0     C33394   5.141   4.619   0.832  0.2046 -0.5503  0.3120
  989MOL0     C33395   5.175   4.607   0.985  0.4938 -0.1430 -0.0074
  989MOL0     C33396   5.327   4.616   1.002 -0.5786  0.2411 -0.2616
  989MOL0     N33397   5.401   4.731   0.939 -0.4673  0.2642  0.2832
  989MOL0     C33398   5.374   4.861   0.951 -1.1141  0.2480 -0.6813
  989MOL0     C33399   5.448   4.933   0.868  0.0029  0.1420  0.4327
  989MOL0     C33400   5.456   5.081   0.854  0.2901 -0.1635  0.3301
  989MOL0     C33401   5.534   5.155   0.961  0.6331 -1.2461 -0.9860
  989MOL0     C33402   5.687   5.163   0.955 -0.3049 -0.7691 -0.2787
  989MOL0     C33403   5.742   5.246   0.830  0.0072  0.8999 -0.6068
  989MOL0     O33404   5.681   5.376   0.837  0.1750  0.1591 -0.2034
  989MOL0     C33405   5.724   5.478   0.755  0.0897 -0.4710 -0.5530
  989MOL0     C33406   5.833   5.482   0.664  0.6967 -0.1058 -0.1651
  989MOL0     C33407   5.875   5.592   0.589  0.1407 -0.3945  0.3292
  989MOL0     C33408   5.990   5.575   0.496  0.0831  0.0912 -0.6356
  989MOL0     C33409   5.818   5.716   0.623  0.6385 -0.3799  0.1669
  989MOL0     C33410   5.860   5.842   0.556 -0.4440 -0.2316  0.2768
  989MOL0     O33411   5.894   5.852   0.429 -0.1861 -0.5616 -0.0081
  989MOL0     C33412   5.958   5.967   0.392  0.1119  0.2344  0.6248
  989MOL0     C33413   5.892   6.060   0.301  0.0042  0.3704 -0.7420
  989MOL0     C33414   5.974   6.156   0.238 -0.7849 -0.2423  0.5542
  989MOL0     C33415   6.107   6.153   0.256  0.2621 -0.5028  0.5949
  989MOL0     O33416   6.165   6.257   0.188 -0.1516  0.2915  0.5902
  989MOL0     C33417   6.302   6.252   0.159  0.5199 -0.5442  0.9352
  989MOL0     C33418   6.327   6.356   0.046 -1.1806 -0.4678 -0.1773
  989MOL0     C33419   6.478   6.362   0.004  0.6338  0.4993 -0.1860
  989MOL0     C33420   6.489   6.428  -0.128 -0.2390  0.2960 -0.4912
  989MOL0     C33421   6.631   6.450  -0.170 -0.3046  0.6670 -0.0774
  989MOL0     C33422   6.653   6.547  -0.286  0.3625  0.4603  0.3187
  989MOL0     C33423   6.611   6.473  -0.424  0.6298  0.0845 -1.2997
  989MOL0     C33424   6.641   6.546  -0.547  0.3549  0.0855  0.4252
  989MOL0    Cl33425   6.814   6.592  -0.574 -0.2851 -0.0413 -0.3874
  989MOL0     C33426   6.169   6.069   0.348  0.1174  0.4686  0.4977
  989MOL0     C33427   6.093   5.974   0.416  0.1003  0.3539 -0.1089
  989MOL0     O33428   5.858   5.939   0.639 -0.0779  0.1111 -0.7905
  989MOL0     C33429   5.706   5.713   0.715  0.1418  0.2431 -0.1711
  989MOL0     C33430   5.665   5.604   0.783 -0.0493  0.0985 -0.1916
  989MOL0     N33431   5.515   4.842   0.794  0.3375  0.1075 -0.2760
  989MOL0     N33432   5.486   4.721   0.834  0.1649 -0.9080  0.4746
  989MOL0     C33433   4.690   4.212   0.230 -0.9227  0.1675  0.4690
  989MOL0     C33434   4.750   4.161   0.113  0.0545  0.7236 -0.0469
  989MOL0     C33435   5.034   3.988  -0.193 -0.6363  0.4062  0.1553
  989MOL0     C33436   5.054   3.865  -0.263  0.4223  0.2404 -0.9034
  989MOL0     C33437   5.088   3.867  -0.398 -0.3302  0.9304  1.0809
  989MOL0     C33438   5.101   3.985  -0.468  0.5581  0.2152  0.9414
  989MOL0     O33439   5.126   3.988  -0.603  0.1908 -0.0382  0.0970
  989MOL0     C33440   5.117   3.875  -0.690 -0.6594 -0.1307  0.2842
  989MOL0     C33441   4.973   3.836  -0.719 -0.9920  0.2408 -0.7024
  989MOL0     C33442   4.967   3.780  -0.861  0.5099 -0.1129  0.9182
  989MOL0     C33443   4.832   3.711  -0.890 -0.8746 -0.3482 -0.5237
  989MOL0     C33444   4.714   3.797  -0.895 -0.0343 -0.2911  0.7973
  989MOL0     C33445   4.623   3.878  -0.905 -0.3098  0.1598  0.0913
  989MOL0     C33446   5.086   4.106  -0.400  0.0419  0.0515 -0.3523
  989MOL0     C33447   5.059   4.106  -0.268 -0.5179 -0.6438 -0.4808
  989MOL0     H33448   5.071   4.119   0.221  1.0077 -0.5885 -1.4228
  989MOL0     H33449   4.952   4.198   0.441  0.2027  1.6687 -0.1418
  989MOL0     H33450   4.623   4.467   0.377 -0.0254 -0.7236  0.4377
  989MOL0     H33451   4.635   4.458   0.544  2.2856 -0.5350  2.0987
  989MOL0     H33452   4.889   4.474   0.386  0.8583  1.2448  0.6287
  989MOL0     H33453   4.797   4.611   0.435 -4.3699  0.3963 -0.0716
  989MOL0     H33454   4.786   4.527   0.670 -0.9448 -0.7020 -0.9645
  989MOL0     H33455   4.862   4.378   0.627 -5.2157 -0.4006  0.4575
  989MOL0     H33456   5.087   4.503   0.569 -0.1808 -1.8397  0.9713
  989MOL0     H33457   4.990   4.655   0.606 -1.0919  0.7184  1.3407
  989MOL0     H33458   4.945   4.563   0.838  0.6108  3.2427 -1.8632
  989MOL0     H33459   5.048   4.424   0.802  1.5041  0.1372  1.8219
  989MOL0     H33460   5.232   4.601   0.776  2.6593 -0.2878  3.8854
  989MOL0     H33461   5.115   4.724   0.815 -2.9564 -1.4971 -1.6197
  989MOL0     H33462   5.113   4.687   1.028  2.3188  2.6291 -2.1674
  989MOL0     H33463   5.158   4.506   1.025  4.4517  0.4067  3.7493
  989MOL0     H33464   5.371   4.521   0.974 -3.0529 -1.1795  0.3550
  989MOL0     H33465   5.343   4.630   1.110 -1.5803 -0.4430 -0.0134
  989MOL0     H33466   5.295   4.897   1.017 -0.3535 -0.2553  0.5418
  989MOL0     H33467   5.493   5.118   0.758  0.0964  0.7975  0.6078
  989MOL0     H33468   5.355   5.119   0.871  0.6818 -0.3456  3.9911
  989MOL0     H33469   5.514   5.090   1.047 -2.3358 -0.2026 -0.7911
  989MOL0     H33470   5.487   5.249   0.990 -0.4792 -1.8777 -0.6889
  989MOL0     H33471   5.727   5.062   0.947  1.5692  0.0435 -1.9320
  989MOL0     H33472   5.730   5.205   1.047 -2.1955 -0.1516  0.3802
  989MOL0     H33473   5.710   5.186   0.744 -1.7367 -1.5094  1.5869
  989MOL0     H33474   5.850   5.248   0.844 -0.0956  0.8928  0.2199
  989MOL0     H33475   5.895   5.393   0.661  1.0654  0.0276  1.8159
  989MOL0     H33476   6.075   5.638   0.525 -0.0407 -0.0679  0.0938
  989MOL0     H33477   6.015   5.469   0.505  0.8040  0.3362  0.3842
  989MOL0     H33478   5.966   5.594   0.391  0.8650  0.7664 -0.7001
  989MOL0     H33479   5.785   6.050   0.288 -0.3146 -1.1684  2.1709
  989MOL0     H33480   5.910   6.220   0.178 -4.2262 -1.9495  2.1123
  989MOL0     H33481   6.360   6.268   0.250  1.5906 -0.8326  0.3220
  989MOL0     H33482   6.323   6.151   0.122  1.5057  0.1598 -0.5009
  989MOL0     H33483   6.263   6.334  -0.040  0.4899 -2.5736 -0.9631
  989MOL0     H33484   6.301   6.456   0.084 -2.8190 -0.6039 -0.8787
  989MOL0     H33485   6.515   6.260  -0.008  3.5726  1.6706 -1.9175
  989MOL0     H33486   6.529   6.422   0.080  2.8713 -0.2186 -1.0433
  989MOL0     H33487   6.438   6.371  -0.207  1.7355 -0.5622 -1.2012
  989MOL0     H33488   6.445   6.529  -0.124 -0.1396  0.3501 -0.7343
  989MOL0     H33489   6.680   6.353  -0.189 -0.2728  0.4406  1.0873
  989MOL0     H33490   6.693   6.493  -0.090 -0.2716  1.5030 -0.5496
  989MOL0     H33491   6.591   6.636  -0.271  1.6057  1.8524 -2.1050
  989MOL0     H33492   6.760   6.570  -0.289  1.0592 -2.5644 -0.8001
  989MOL0     H33493   6.502   6.463  -0.418  0.4250  2.3165  0.1360
  989MOL0     H33494   6.659   6.375  -0.427 -2.7221 -1.6968 -1.8704
  989MOL0     H33495   6.581   6.638  -0.550  0.4037  0.0946 -1.2012
  989MOL0     H33496   6.624   6.487  -0.638  1.3087 -0.0703  0.3381
  989MOL0     H33497   6.272   6.084   0.380  0.1331 -0.8630  1.1337
  989MOL0     H33498   6.132   5.902   0.488 -2.1680 -0.4364  0.4062
  989MOL0     H33499   5.663   5.812   0.726  2.7669  1.2037  3.1809
  989MOL0     H33500   5.588   5.624   0.858  0.7788  0.8446  0.4721
  989MOL0     H33501   4.585   4.237   0.231 -1.2523 -1.0051 -0.8686
  989MOL0     H33502   4.688   4.148   0.025  3.7660  1.5728 -3.0624
  989MOL0     H33503   5.039   3.776  -0.203 -1.8613  1.9330  1.2333
  989MOL0     H33504   5.107   3.770  -0.444  0.8224  1.7586 -0.2967
  989MOL0     H33505   5.165   3.895  -0.786  0.4212  1.5654  1.1451
  989MOL0     H33506   5.179   3.798  -0.644  1.5909  1.8400  0.7226
  989MOL0     H33507   4.914   3.928  -0.714  2.3590  2.5701 -0.2813
  989MOL0     H33508   4.931   3.774  -0.639 -1.6215  1.7625  0.1910
  989MOL0     H33509   5.047   3.708  -0.880  0.3407  0.5258 -2.9648
  989MOL0     H33510   4.976   3.867  -0.926 -3.0347 -0.5769 -0.4560
  989MOL0     H33511   4.802   3.634  -0.818 -2.0780 -0.1751 -0.8114
  989MOL0     H33512   4.842   3.673  -0.992 -0.7186  2.3404 -1.6087
  989MOL0     H33513   4.549   3.956  -0.912 -1.9906 -1.2846  0.8834
  989MOL0     H33514   5.115   4.191  -0.461 -2.8530  0.8772 -0.7028
  989MOL0     H33515   5.043   4.201  -0.216 -0.4480 -1.3057  0.7779
  990MOL0     O33516   1.164   8.108  10.516 -0.2414 -1.2475 -0.5612
  990MOL0     C33517   1.053   8.148  10.482  0.7790 -0.4067 -0.8028
  990MOL0     O33518   0.977   8.229  10.552  0.1323 -0.2808  0.0214
  990MOL0     C33519   1.019   8.266  10.678  0.6198 -1.0431 -0.0842
  990MOL0     C33520   1.045   8.180  10.785  0.9433  0.1392 -0.8409
  990MOL0     C33521   1.089   8.225  10.906 -0.4145  0.7272  0.7774
  990MOL0     C33522   1.122   8.360  10.925  0.1991  1.0168 -0.0493
  990MOL0     O33523   1.167   8.422  11.035  0.1100 -0.2485 -0.3447
  990MOL0     C33524   1.268   8.337  11.109  0.9832 -0.7001  0.4820
  990MOL0     C33525   1.320   8.423  11.219  0.3902  0.7003  0.3468
  990MOL0     C33526   1.411   8.548  11.171 -0.3649  0.3494 -0.3040
  990MOL0     C33527   1.475   8.616  11.287  0.5476  0.7762  0.9786
  990MOL0     C33528   1.567   8.532  11.369 -1.4081 -0.7022  0.5747
  990MOL0     C33529   1.619   8.585  11.502  0.5194 -0.5217  0.2455
  990MOL0     C33530   1.721   8.489  11.548  0.1330  0.3792 -0.1998
  990MOL0     C33531   1.785   8.544  11.674  0.2208  0.0053  0.3610
  990MOL0     N33532   1.896   8.447  11.714  0.8853 -0.0529 -0.7390
  990MOL0     C33533   2.025   8.461  11.685  0.4947 -0.2287 -0.3285
  990MOL0     C33534   2.076   8.346  11.743  0.3278 -0.9626  0.3909
  990MOL0     C33535   2.223   8.317  11.736 -0.7855 -0.0738 -0.1070
  990MOL0     C33536   2.275   8.220  11.848 -0.7766 -0.4939  0.3853
  990MOL0     C33537   2.303   8.307  11.974 -0.0136 -0.6958  0.4823
  990MOL0     C33538   2.354   8.219  12.091  1.4129 -0.2715  0.4762
  990MOL0     O33539   2.357   8.283  12.220  0.2380  0.0892  0.0777
  990MOL0     C33540   2.396   8.213  12.336  0.1686  0.9517  0.9296
  990MOL0     C33541   2.408   8.281  12.452  0.2622  0.3475  0.0175
  990MOL0     C33542   2.441   8.232  12.573  0.3626  0.4773 -0.0391
  990MOL0     C33543   2.431   8.324  12.694  0.7484  0.3405 -0.1495
  990MOL0     C33544   2.473   8.099  12.581  0.4105 -0.1954 -0.1483
  990MOL0     C33545   2.526   8.040  12.698 -0.3864 -0.2082  0.4508
  990MOL0     O33546   2.571   7.912  12.674 -0.0467 -0.4005 -0.1520
  990MOL0     C33547   2.556   7.809  12.771  0.0153 -0.0357 -1.5740
  990MOL0     C33548   2.450   7.801  12.862 -0.1362  0.3739  0.5834
  990MOL0     C33549   2.438   7.701  12.950 -1.2432 -0.1963 -0.1646
  990MOL0     C33550   2.526   7.588  12.953  0.0571 -0.7910  0.1688
  990MOL0     O33551   2.524   7.486  13.046 -0.0607 -0.4660  0.0489
  990MOL0     C33552   2.413   7.469  13.137  0.1709 -0.3875 -0.2564
  990MOL0     C33553   2.299   7.412  13.053  0.1473  0.1483 -0.2853
  990MOL0     C33554   2.167   7.353  13.123  0.4955  0.4575  0.3144
  990MOL0     C33555   2.197   7.273  13.247  0.0567 -0.7355 -0.3286
  990MOL0     C33556   2.153   7.346  13.380 -0.2831  1.0999  0.8467
  990MOL0     C33557   2.164   7.252  13.503  0.2838 -0.4953 -0.4802
  990MOL0     C33558   2.299   7.193  13.515 -0.4455 -1.1293  0.9612
  990MOL0     C33559   2.293   7.107  13.638 -0.2585 -0.3580  1.1997
  990MOL0    Cl33560   2.455   7.038  13.677 -0.0502  0.1054 -0.1985
  990MOL0     C33561   2.626   7.594  12.855 -0.1849  0.0354  0.3432
  990MOL0     C33562   2.646   7.703  12.768 -0.2384  0.0194  0.7195
  990MOL0     O33563   2.532   8.101  12.799 -0.8422 -0.1000 -0.6825
  990MOL0     C33564   2.468   8.022  12.457  0.2060  0.4759 -0.2829
  990MOL0     C33565   2.431   8.079  12.333  0.5450  0.1999  0.2855
  990MOL0     N33566   1.989   8.275  11.820 -1.0322 -0.2958 -0.5711
  990MOL0     N33567   1.877   8.339  11.801  0.6617  1.2614 -0.0829
  990MOL0     C33568   1.090   8.447  10.823 -0.4023 -0.4888  0.8958
  990MOL0     C33569   1.038   8.406  10.697 -0.1454  0.4850 -0.8545
  990MOL0     C33570   1.004   8.105  10.351  1.4997  0.5001 -0.1509
  990MOL0     C33571   0.919   8.179  10.268 -0.2051  0.7743 -1.2112
  990MOL0     C33572   0.879   8.142  10.149  0.0063  0.2603 -0.2667
  990MOL0     C33573   0.915   8.013  10.099  0.2158  0.1583 -0.6671
  990MOL0     O33574   0.894   7.964   9.978 -0.0177  0.6233  0.2056
  990MOL0     C33575   0.849   8.055   9.874  0.2517 -0.2494 -0.4923
  990MOL0     C33576   0.961   8.118   9.793 -0.9098  0.3313 -0.8147
  990MOL0     C33577   0.909   8.208   9.677  0.2276 -0.7399  0.7185
  990MOL0     C33578   1.020   8.283   9.607 -0.0188 -1.2029 -0.3493
  990MOL0     C33579   1.068   8.381   9.701 -0.0066  0.4928  0.0540
  990MOL0     C33580   1.078   8.463   9.788  0.1282  0.3463  0.0780
  990MOL0     C33581   1.001   7.930  10.181  0.7238 -0.4909  0.1690
  990MOL0     C33582   1.045   7.982  10.297 -0.1336  1.1371  0.3981
  990MOL0     H33583   1.037   8.072  10.776 -0.4421 -0.1085  2.1322
  990MOL0     H33584   1.110   8.145  10.976 -1.1357 -0.0590  0.1128
  990MOL0     H33585   1.215   8.247  11.142 -2.2767  0.2630 -1.7540
  990MOL0     H33586   1.347   8.301  11.042  0.1771 -0.8446 -0.3994
  990MOL0     H33587   1.229   8.457  11.269 -1.6489 -0.0098 -2.6163
  990MOL0     H33588   1.380   8.353  11.278  1.4150  1.2345 -0.0293
  990MOL0     H33589   1.492   8.510  11.108 -0.9402 -0.3315 -0.6429
  990MOL0     H33590   1.348   8.615  11.113  0.5650  2.6817  1.1968
  990MOL0     H33591   1.532   8.706  11.261 -1.9714  1.9027 -1.1464
  990MOL0     H33592   1.390   8.653  11.346  0.1580  0.4290  0.6466
  990MOL0     H33593   1.517   8.438  11.396  0.2826 -1.9545 -0.4424
  990MOL0     H33594   1.657   8.507  11.311 -0.7862  0.6034  0.9460
  990MOL0     H33595   1.658   8.682  11.472  2.5162 -0.8879  1.4636
  990MOL0     H33596   1.529   8.590  11.564 -0.3252 -3.6992 -0.5233
  990MOL0     H33597   1.675   8.394  11.578  0.2620  0.3440 -0.1098
  990MOL0     H33598   1.801   8.458  11.480 -0.4801 -1.4960 -0.1202
  990MOL0     H33599   1.715   8.558  11.756  1.0730 -3.9510  1.9878
  990MOL0     H33600   1.819   8.645  11.650  0.4644  0.5460  2.7206
  990MOL0     H33601   2.070   8.544  11.632  5.4062 -0.3223  2.9676
  990MOL0     H33602   2.250   8.282  11.636 -0.2223 -0.4340  0.1650
  990MOL0     H33603   2.290   8.403  11.742  1.7882 -1.9423 -0.7023
  990MOL0     H33604   2.369   8.169  11.827 -1.0967 -1.9822  2.2213
  990MOL0     H33605   2.196   8.147  11.869 -1.6881  0.3868  0.0921
  990MOL0     H33606   2.218   8.367  12.008  0.9469  0.4799  0.8938
  990MOL0     H33607   2.385   8.376  11.954 -0.9624  0.7487  1.3722
  990MOL0     H33608   2.450   8.183  12.054  1.4063 -0.8030  0.9573
  990MOL0     H33609   2.293   8.128  12.092 -1.2273  1.3353 -0.9126
  990MOL0     H33610   2.378   8.385  12.443  2.6422  0.9705 -1.8731
  990MOL0     H33611   2.384   8.275  12.780 -1.7627  3.7361  0.6598
  990MOL0     H33612   2.526   8.366  12.728 -0.0382  3.5273 -1.5016
  990MOL0     H33613   2.364   8.408  12.674 -2.1455 -2.1722 -1.7946
  990MOL0     H33614   2.375   7.879  12.874  0.4833  0.7084  2.7307
  990MOL0     H33615   2.352   7.713  13.016 -1.8034  2.0398 -1.1736
  990MOL0     H33616   2.443   7.390  13.206  2.6389 -0.7555 -1.6306
  990MOL0     H33617   2.394   7.564  13.188 -0.3181 -0.8337  0.4131
  990MOL0     H33618   2.269   7.473  12.967 -1.9384 -2.0998 -1.2947
  990MOL0     H33619   2.339   7.320  13.009  2.4273  0.7818  0.3317
  990MOL0     H33620   2.113   7.295  13.048  1.1454  0.5735 -0.2529
  990MOL0     H33621   2.099   7.436  13.144  1.7697  1.9912 -1.3171
  990MOL0     H33622   2.137   7.182  13.229 -1.0274 -0.3380  1.0374
  990MOL0     H33623   2.299   7.234  13.252 -0.4603 -2.0745  3.9008
  990MOL0     H33624   2.052   7.387  13.370 -0.3844  0.8936  1.0096
  990MOL0     H33625   2.215   7.433  13.399 -1.0912  2.0395 -0.6679
  990MOL0     H33626   2.140   7.312  13.591 -3.2327 -1.7829 -0.4151
  990MOL0     H33627   2.096   7.167  13.508 -2.9524  1.9934  1.7613
  990MOL0     H33628   2.371   7.275  13.522 -0.4610 -1.1193  0.9935
  990MOL0     H33629   2.345   7.131  13.437 -2.3143 -1.5969  0.1658
  990MOL0     H33630   2.215   7.031  13.632 -1.3795  0.6179  2.7103
  990MOL0     H33631   2.272   7.166  13.727  0.6611 -1.0582  1.9034
  990MOL0     H33632   2.686   7.504  12.842 -1.3434 -1.1108  2.4107
  990MOL0     H33633   2.727   7.712  12.695 -1.1841 -1.1289 -0.5150
  990MOL0     H33634   2.473   7.915  12.441 -0.0775  0.8458 -3.6565
  990MOL0     H33635   2.423   8.020  12.242 -2.0683 -1.3761  1.4263
  990MOL0     H33636   1.095   8.554  10.843  1.6591  0.2000 -2.4428
  990MOL0     H33637   1.008   8.482  10.625  1.8301  2.9014  0.7020
  990MOL0     H33638   0.891   8.278  10.302  1.8944  0.9105  0.3521
  990MOL0     H33639   0.810   8.212  10.104 -0.7436 -0.3769 -0.1495
  990MOL0     H33640   0.796   7.994   9.800  1.7855 -2.5083  0.1380
  990MOL0     H33641   0.787   8.139   9.905  1.3073 -0.3600  2.1522
  990MOL0     H33642   1.033   8.043   9.759  0.2325  0.1721  1.7525
  990MOL0     H33643   1.006   8.186   9.865 -4.0047  0.2004  1.4297
  990MOL0     H33644   0.839   8.287   9.707 -1.4749 -1.4303 -1.1539
  990MOL0     H33645   0.861   8.140   9.605  1.0642 -0.7001  0.1147
  990MOL0     H33646   0.985   8.331   9.515 -3.5535 -1.8614  0.4760
  990MOL0     H33647   1.105   8.215   9.598 -0.3152 -1.6605  0.2581
  990MOL0     H33648   1.092   8.540   9.862  2.8397  0.6412 -0.6229
  990MOL0     H33649   1.031   7.832  10.144  2.4093 -1.2471  3.2316
  990MOL0     H33650   1.109   7.918  10.357  1.5294  1.9925 -0.4130
  991MOL0     O33651   9.413   3.815   4.786 -0.2416  0.5431 -0.1327
  991MOL0     C33652   9.407   3.903   4.710  0.4495 -0.4019 -0.4007
  991MOL0     O33653   9.508   3.948   4.626  0.3412  0.2349 -0.5525
  991MOL0     C33654   9.624   3.872   4.599  0.6086 -0.2051 -0.5725
  991MOL0     C33655   9.646   3.847   4.465 -0.5459  0.2334  0.1955
  991MOL0     C33656   9.773   3.797   4.426 -0.5292 -0.3086  0.4053
  991MOL0     C33657   9.860   3.749   4.526 -0.3026  0.4215  0.1057
  991MOL0     O33658   9.984   3.705   4.490 -0.1614 -1.1471  0.1663
  991MOL0     C33659  10.092   3.697   4.586 -0.0316  0.4460  0.4758
  991MOL0     C33660  10.223   3.668   4.514 -0.1438  0.7603 -0.1027
  991MOL0     C33661  10.224   3.546   4.418  0.0943  0.4406 -1.0602
  991MOL0     C33662  10.365   3.489   4.381  0.2581 -0.0744 -0.5624
  991MOL0     C33663  10.445   3.603   4.312 -0.2744 -0.8504 -0.2253
  991MOL0     C33664  10.551   3.552   4.220  0.7229  0.0807  0.0122
  991MOL0     C33665  10.643   3.446   4.286 -0.0216  0.5373 -0.4624
  991MOL0     C33666  10.749   3.525   4.376  1.1606  0.2913  0.2414
  991MOL0     N33667  10.854   3.427   4.401 -0.0736  0.7760 -0.4895
  991MOL0     C33668  10.968   3.409   4.332 -0.7944  0.4576  0.7910
  991MOL0     C33669  11.025   3.299   4.387 -1.0755  0.2783 -0.2099
  991MOL0     C33670  11.173   3.252   4.351  0.3299  0.8994 -0.6586
  991MOL0     C33671  11.238   3.303   4.220  0.6854 -0.1064 -0.3344
  991MOL0     C33672  11.270   3.458   4.214  0.1316  0.4472 -0.4706
  991MOL0     C33673  11.364   3.506   4.328 -0.6002 -0.1131  0.1494
  991MOL0     O33674  11.407   3.642   4.291 -0.3701 -0.1160 -0.0782
  991MOL0     C33675  11.496   3.720   4.360  0.1484  0.5314  0.7676
  991MOL0     C33676  11.582   3.671   4.465  0.6347  0.7259 -0.3027
  991MOL0     C33677  11.678   3.760   4.526 -0.2156  0.7183 -0.4001
  991MOL0     C33678  11.771   3.702   4.624  0.5014 -0.3019 -0.0050
  991MOL0     C33679  11.692   3.898   4.495 -0.0315 -0.0052 -0.6143
  991MOL0     C33680  11.768   4.003   4.568 -0.3377 -0.5535  0.7525
  991MOL0     O33681  11.719   4.131   4.578  0.3931 -0.5307 -0.4337
  991MOL0     C33682  11.767   4.225   4.675  0.1391  0.7577 -0.0066
  991MOL0     C33683  11.896   4.276   4.676 -0.1210 -0.0964  0.4373
  991MOL0     C33684  11.925   4.392   4.746 -0.7997  0.2445 -0.5009
  991MOL0     C33685  11.838   4.451   4.838 -0.8523  0.3227  0.1259
  991MOL0     O33686  11.870   4.566   4.908 -0.0753  0.5056 -0.1252
  991MOL0     C33687  11.982   4.560   4.999 -0.0225  0.6692  0.3418
  991MOL0     C33688  12.025   4.705   5.046  0.1965  1.0601  0.5232
  991MOL0     C33689  12.135   4.716   5.144  0.3207  0.4591 -0.5375
  991MOL0     C33690  12.210   4.850   5.127  0.1593 -0.4009  0.4448
  991MOL0     C33691  12.296   4.871   5.249  0.1005 -0.4769  0.0822
  991MOL0     C33692  12.370   5.003   5.236  0.9929 -0.9998  1.2091
  991MOL0     C33693  12.283   5.137   5.240 -0.1617  0.5261 -0.1594
  991MOL0     C33694  12.360   5.248   5.299  0.5354  0.1975 -0.0954
  991MOL0    Cl33695  12.247   5.363   5.356 -0.2996 -0.1447  0.4519
  991MOL0     C33696  11.709   4.391   4.845 -0.2320  0.9807 -0.0085
  991MOL0     C33697  11.678   4.289   4.758  0.4245 -0.0739  0.1562
  991MOL0     O33698  11.864   3.964   4.626 -0.5343  0.0616  0.6266
  991MOL0     C33699  11.607   3.940   4.393 -0.2898 -0.0932  0.4239
  991MOL0     C33700  11.511   3.858   4.329 -0.1815  0.3289 -0.8586
  991MOL0     N33701  10.947   3.254   4.486 -0.1236 -0.8442  0.3036
  991MOL0     N33702  10.846   3.333   4.494 -0.3072  0.7800  1.1272
  991MOL0     C33703   9.820   3.756   4.663  0.5118  0.1884  0.0866
  991MOL0     C33704   9.709   3.819   4.704  1.2348 -0.5631  0.5185
  991MOL0     C33705   9.282   3.981   4.715  0.9828 -0.0720  0.1097
  991MOL0     C33706   9.260   4.101   4.634  0.8954 -0.0365  0.4005
  991MOL0     C33707   9.146   4.185   4.639  0.8458 -0.4662 -0.3391
  991MOL0     C33708   9.046   4.154   4.732  0.5926  0.1575 -0.4592
  991MOL0     O33709   8.944   4.244   4.742  0.0831 -0.5108  0.3166
  991MOL0     C33710   8.829   4.206   4.813 -0.2535  0.3420  0.2258
  991MOL0     C33711   8.710   4.285   4.767 -0.6938  0.0888 -0.1708
  991MOL0     C33712   8.604   4.291   4.879  0.8871 -1.3298  0.1794
  991MOL0     C33713   8.492   4.387   4.844 -0.1119 -0.0836 -0.1940
  991MOL0     C33714   8.384   4.316   4.763 -0.0521  0.3153  1.6172
  991MOL0     C33715   8.286   4.272   4.697 -0.1276 -0.5862  0.3870
  991MOL0     C33716   9.058   4.030   4.804  0.5867 -0.9372 -0.7576
  991MOL0     C33717   9.168   3.943   4.796 -0.6543 -0.6943 -0.2111
  991MOL0     H33718   9.572   3.876   4.391 -1.8158  2.3031  2.1198
  991MOL0     H33719   9.816   3.789   4.327 -1.0421  0.1310  0.1414
  991MOL0     H33720  10.112   3.790   4.639  1.0594  2.4857 -3.1401
  991MOL0     H33721  10.070   3.606   4.643 -1.1592 -1.2546 -2.4061
  991MOL0     H33722  10.263   3.752   4.456  1.2763  0.7017  0.7394
  991MOL0     H33723  10.298   3.641   4.589 -0.3342 -5.4118 -1.6257
  991MOL0     H33724  10.174   3.458   4.459  0.4206 -0.8813 -3.2972
  991MOL0     H33725  10.159   3.562   4.331 -0.3103  2.7820 -0.3832
  991MOL0     H33726  10.419   3.458   4.470  1.0301 -0.5630 -1.1840
  991MOL0     H33727  10.356   3.398   4.321 -1.8224 -0.6400  0.5313
  991MOL0     H33728  10.375   3.664   4.252  0.0801  1.1157  1.2607
  991MOL0     H33729  10.473   3.673   4.391 -2.5479 -1.6453  1.4143
  991MOL0     H33730  10.506   3.491   4.141 -0.6107  0.2071  0.6594
  991MOL0     H33731  10.592   3.629   4.152 -1.9276 -1.3627 -3.5349
  991MOL0     H33732  10.595   3.371   4.350 -0.4054  1.6328  0.5742
  991MOL0     H33733  10.701   3.394   4.210 -0.2534  3.9244 -3.1721
  991MOL0     H33734  10.705   3.568   4.467  1.5325  0.3995  0.3758
  991MOL0     H33735  10.786   3.603   4.309 -0.7233  0.7650 -0.3120
  991MOL0     H33736  11.006   3.472   4.251 -0.5037  1.5176  1.7147
  991MOL0     H33737  11.231   3.290   4.436 -1.5442 -2.3245  2.3280
  991MOL0     H33738  11.183   3.143   4.353 -2.9436  0.4952 -0.9419
  991MOL0     H33739  11.180   3.283   4.129  0.1676 -0.6205  0.0966
  991MOL0     H33740  11.330   3.245   4.216  1.2129  0.7557 -3.1743
  991MOL0     H33741  11.185   3.528   4.216 -1.3008 -1.2140  0.5976
  991MOL0     H33742  11.328   3.470   4.122  3.3618 -4.5860  0.5233
  991MOL0     H33743  11.455   3.445   4.335  0.6260  1.5771 -0.4219
  991MOL0     H33744  11.302   3.511   4.418 -4.6618  1.5607 -2.4598
  991MOL0     H33745  11.577   3.567   4.496 -2.4016  0.3075 -1.8079
  991MOL0     H33746  11.734   3.603   4.651  0.4395 -1.2871 -3.2586
  991MOL0     H33747  11.867   3.697   4.571  0.5864 -1.1162  0.2176
  991MOL0     H33748  11.786   3.760   4.715  4.3774  2.6412 -2.1615
  991MOL0     H33749  11.956   4.224   4.602 -0.3379 -2.9159  2.1027
  991MOL0     H33750  12.019   4.442   4.727  0.0252 -1.4807 -1.1654
  991MOL0     H33751  11.961   4.497   5.087  2.6043  1.8598  1.9552
  991MOL0     H33752  12.074   4.539   4.943  1.2191  1.7504  1.8860
  991MOL0     H33753  12.054   4.764   4.958 -0.1432 -0.4040 -0.6193
  991MOL0     H33754  11.936   4.760   5.078 -0.6733  0.0680 -0.1119
  991MOL0     H33755  12.212   4.640   5.125  1.8079  1.6206  0.6344
  991MOL0     H33756  12.082   4.698   5.238 -1.0995 -0.8214 -1.5106
  991MOL0     H33757  12.280   4.844   5.042 -0.4303  0.5012 -0.1275
  991MOL0     H33758  12.140   4.933   5.114 -0.2784 -0.2695  3.1401
  991MOL0     H33759  12.366   4.787   5.244 -0.1645 -0.6332 -1.5651
  991MOL0     H33760  12.234   4.859   5.338 -1.3129  1.8336 -0.5100
  991MOL0     H33761  12.447   5.009   5.314 -1.3932  2.7571  3.6521
  991MOL0     H33762  12.420   5.006   5.139 -2.4140  0.0746 -0.7205
  991MOL0     H33763  12.203   5.119   5.313 -0.8728  0.2084 -1.0069
  991MOL0     H33764  12.229   5.135   5.145 -1.1929 -3.5353  0.2952
  991MOL0     H33765  12.422   5.301   5.226 -0.1132  2.2131  0.7587
  991MOL0     H33766  12.419   5.222   5.388  1.4210  1.4669 -0.2881
  991MOL0     H33767  11.632   4.410   4.919 -2.5517 -1.8429 -1.4944
  991MOL0     H33768  11.582   4.239   4.750  1.3171 -1.4950 -4.1676
  991MOL0     H33769  11.610   4.045   4.366 -3.4312 -0.1961 -0.7353
  991MOL0     H33770  11.454   3.894   4.244 -2.2435  0.4323  0.4997
  991MOL0     H33771   9.893   3.715   4.734  0.2971 -1.6974 -0.7176
  991MOL0     H33772   9.678   3.823   4.808  2.6564  0.3712  0.9361
  991MOL0     H33773   9.340   4.125   4.565 -1.0376  1.0027 -1.5873
  991MOL0     H33774   9.144   4.272   4.573 -2.7284  0.6241  0.9301
  991MOL0     H33775   8.807   4.101   4.792 -1.1857  0.5208  0.2773
  991MOL0     H33776   8.857   4.225   4.917  3.1338 -0.3826 -0.4253
  991MOL0     H33777   8.675   4.228   4.680  1.9516 -0.3263 -1.0403
  991MOL0     H33778   8.755   4.377   4.730  2.5550 -1.6075 -0.7567
  991MOL0     H33779   8.639   4.327   4.977 -1.8342 -0.7063  1.0258
  991MOL0     H33780   8.563   4.194   4.910  1.5848 -1.6916 -0.0037
  991MOL0     H33781   8.529   4.467   4.778  1.4229 -0.2345  0.4517
  991MOL0     H33782   8.450   4.426   4.937 -2.3036 -0.9034 -0.7739
  991MOL0     H33783   8.195   4.238   4.652 -0.4830  1.5520 -0.6048
  991MOL0     H33784   8.986   3.990   4.875  3.5804 -3.5724  1.0622
  991MOL0     H33785   9.164   3.856   4.861  1.5044 -0.5301  0.2110
  992MOL0     O33786   9.705   3.229   2.502 -0.9180 -0.2688 -0.0443
  992MOL0     C33787   9.817   3.260   2.467  0.9047 -0.1426 -0.5719
  992MOL0     O33788   9.924   3.284   2.557  0.3694 -0.0299 -0.9514
  992MOL0     C33789   9.898   3.246   2.687  0.2575  0.3500  1.2739
  992MOL0     C33790   9.955   3.127   2.747 -0.7673 -0.2892  0.4980
  992MOL0     C33791   9.904   3.071   2.860  0.6300  0.8672  0.4630
  992MOL0     C33792   9.807   3.141   2.934 -0.2694  0.0542  0.2222
  992MOL0     O33793   9.776   3.083   3.052  0.5297  1.0019  0.0929
  992MOL0     C33794   9.767   3.168   3.175  0.4942  0.0942  1.3694
  992MOL0     C33795   9.746   3.081   3.297  0.6025  0.1367 -0.4239
  992MOL0     C33796   9.867   2.989   3.341  0.4451 -0.0042  0.3574
  992MOL0     C33797   9.966   3.048   3.450 -0.1634 -0.1598  0.4727
  992MOL0     C33798  10.111   3.052   3.404  0.1604  0.2973 -0.1257
  992MOL0     C33799  10.199   3.105   3.525  0.2122  0.2249  0.2421
  992MOL0     C33800  10.347   3.097   3.485  0.3919 -0.2333  0.0702
  992MOL0     C33801  10.432   3.171   3.582  0.2843 -0.2947  0.0046
  992MOL0     N33802  10.484   3.290   3.513  0.7864 -0.7339 -0.1022
  992MOL0     C33803  10.401   3.397   3.463  0.9342  1.3302  0.4507
  992MOL0     C33804  10.489   3.462   3.401 -0.8962  0.9391 -1.0579
  992MOL0     C33805  10.449   3.567   3.300  0.4900 -1.1353  1.2325
  992MOL0     C33806  10.437   3.715   3.359 -0.4763  1.3318  1.3006
  992MOL0     C33807  10.331   3.729   3.461 -0.1605 -0.2777 -0.3411
  992MOL0     C33808  10.329   3.871   3.514  0.3389  0.0136 -0.5246
  992MOL0     O33809  10.191   3.879   3.573 -0.2213  0.1960 -0.3709
  992MOL0     C33810  10.096   3.963   3.503 -0.6003 -0.0467 -0.4741
  992MOL0     C33811   9.979   4.012   3.575  0.2350  0.1427  0.4626
  992MOL0     C33812   9.877   4.095   3.524 -0.4615 -0.0020 -0.1455
  992MOL0     C33813   9.766   4.142   3.622 -0.2768  0.8723 -0.4054
  992MOL0     C33814   9.878   4.115   3.392 -0.8883 -0.5669 -0.1310
  992MOL0     C33815   9.768   4.181   3.317 -0.8137 -0.7043  0.2670
  992MOL0     O33816   9.764   4.159   3.175  0.7196 -0.1472 -0.5227
  992MOL0     C33817   9.679   4.241   3.107  0.1121 -0.2631  0.0924
  992MOL0     C33818   9.638   4.373   3.119 -0.1865  1.3761 -0.4597
  992MOL0     C33819   9.541   4.433   3.035  0.4745  0.3352 -1.1255
  992MOL0     C33820   9.475   4.356   2.946  0.3548  0.6349  0.0809
  992MOL0     O33821   9.373   4.401   2.862 -0.2796 -0.5148 -0.4494
  992MOL0     C33822   9.295   4.524   2.901  0.8346 -0.6161  0.2232
  992MOL0     C33823   9.217   4.502   3.023  0.3174 -0.5277  0.0167
  992MOL0     C33824   9.152   4.627   3.061 -0.4393 -0.3058  0.3538
  992MOL0     C33825   9.053   4.621   3.178  0.2980 -0.7580  0.2125
  992MOL0     C33826   8.997   4.762   3.211 -0.4512  0.1687  0.6057
  992MOL0     C33827   8.916   4.829   3.089  0.6379  0.5157 -0.7069
  992MOL0     C33828   8.860   4.971   3.111  0.1603  0.5662 -0.1173
  992MOL0     C33829   8.754   4.994   3.224  0.5276  0.7373  1.2823
  992MOL0    Cl33830   8.618   4.872   3.202  0.2145  0.1236 -0.1241
  992MOL0     C33831   9.510   4.224   2.925 -0.4363  0.0782  0.5706
  992MOL0     C33832   9.608   4.168   3.004  0.0237  0.7948  0.5776
  992MOL0     O33833   9.687   4.257   3.378 -0.4695 -0.0129  0.5124
  992MOL0     C33834   9.991   4.072   3.318  0.4467 -0.4257 -0.4071
  992MOL0     C33835  10.097   4.000   3.369  1.0901  0.9038  0.0602
  992MOL0     N33836  10.621   3.411   3.420 -0.2312 -0.0617  0.2815
  992MOL0     N33837  10.609   3.308   3.489  0.1718  0.6478 -0.9824
  992MOL0     C33838   9.767   3.262   2.882 -0.1738  0.0874 -0.3306
  992MOL0     C33839   9.803   3.308   2.759 -0.4320  0.8045 -0.4707
  992MOL0     C33840   9.848   3.278   2.331  0.3351  0.5269  1.4217
  992MOL0     C33841   9.975   3.330   2.280  0.3404 -0.2164  0.1715
  992MOL0     C33842  10.002   3.347   2.139  0.3084 -0.2906  0.4277
  992MOL0     C33843   9.899   3.299   2.046 -0.4555 -0.5733  0.5435
  992MOL0     O33844   9.921   3.320   1.913 -0.6798  0.7577 -0.1789
  992MOL0     C33845   9.870   3.226   1.820 -0.3247  0.0652 -0.5670
  992MOL0     C33846   9.909   3.241   1.681  0.0352  0.3936  1.3525
  992MOL0     C33847   9.923   3.385   1.636 -0.0621 -0.9024  1.0725
  992MOL0     C33848   9.879   3.401   1.489 -0.6615  0.2002  0.3289
  992MOL0     C33849   9.956   3.481   1.396 -0.2703 -0.3358  0.0827
  992MOL0     C33850  10.023   3.538   1.321 -0.0223  0.5511  0.2650
  992MOL0     C33851   9.778   3.257   2.096 -0.4765 -0.5296 -0.0943
  992MOL0     C33852   9.751   3.249   2.234  0.6639 -0.7101  1.0209
  992MOL0     H33853  10.036   3.074   2.697  0.6189 -0.4865  2.8171
  992MOL0     H33854   9.957   2.979   2.880  0.8677  0.6821 -0.8709
  992MOL0     H33855   9.863   3.220   3.186 -0.7322  2.7047  0.6461
  992MOL0     H33856   9.687   3.243   3.172  0.5367  0.1274  1.0706
  992MOL0     H33857   9.714   3.153   3.374 -0.6277 -0.2491 -0.5458
  992MOL0     H33858   9.659   3.015   3.286 -1.0607  1.3995  3.3411
  992MOL0     H33859   9.841   2.890   3.379  0.3279 -1.0642 -2.2279
  992MOL0     H33860   9.929   2.971   3.252  1.9146 -1.9579  1.6679
  992MOL0     H33861   9.933   3.151   3.470 -1.1283 -0.9848  4.0043
  992MOL0     H33862   9.943   2.992   3.542 -2.1480 -4.6493 -2.3951
  992MOL0     H33863  10.145   2.952   3.376  2.9290  1.0350  0.3709
  992MOL0     H33864  10.116   3.120   3.319  0.6118  1.1099  0.5398
  992MOL0     H33865  10.171   3.210   3.535  0.3592  0.6929 -3.1958
  992MOL0     H33866  10.176   3.054   3.619 -2.3989 -2.1806 -1.5329
  992MOL0     H33867  10.366   2.989   3.495  0.9755  0.0094  2.2080
  992MOL0     H33868  10.374   3.127   3.384 -0.6316 -2.3657 -0.8877
  992MOL0     H33869  10.512   3.102   3.610 -0.2206 -1.0417 -0.3600
  992MOL0     H33870  10.381   3.190   3.677 -2.7647 -0.9781 -1.3789
  992MOL0     H33871  10.293   3.413   3.465 -0.2376 -4.5816  1.0053
  992MOL0     H33872  10.520   3.562   3.217 -1.9357  0.2224 -1.1031
  992MOL0     H33873  10.351   3.549   3.255 -0.1481  0.1769  2.0309
  992MOL0     H33874  10.399   3.773   3.275  0.3037 -1.6162 -1.2822
  992MOL0     H33875  10.528   3.749   3.411 -1.5981  2.5551  2.5460
  992MOL0     H33876  10.347   3.664   3.548  1.0115  1.8717  1.1504
  992MOL0     H33877  10.233   3.701   3.421  1.0717 -3.4467 -1.4208
  992MOL0     H33878  10.342   3.940   3.430  0.6803 -0.3649 -0.7859
  992MOL0     H33879  10.397   3.890   3.598 -3.6671  0.7165  2.9155
  992MOL0     H33880   9.967   3.996   3.682 -2.5984  1.2625  0.3983
  992MOL0     H33881   9.725   4.242   3.609 -1.4856  0.1204 -2.8746
  992MOL0     H33882   9.685   4.069   3.620  0.0627  0.4377 -3.8443
  992MOL0     H33883   9.812   4.138   3.721 -1.3607  0.5922  0.1053
  992MOL0     H33884   9.685   4.435   3.194 -0.9847  1.5976 -0.1316
  992MOL0     H33885   9.515   4.538   3.044  1.3217  0.5749 -1.3897
  992MOL0     H33886   9.361   4.612   2.908 -1.0109  0.6994  2.6807
  992MOL0     H33887   9.223   4.550   2.824 -0.3616  2.6044  2.2195
  992MOL0     H33888   9.134   4.436   2.999 -0.6015  0.4161  0.5352
  992MOL0     H33889   9.270   4.464   3.111 -0.2071  0.7672  0.9296
  992MOL0     H33890   9.095   4.657   2.972  2.4823  0.0268 -1.5193
  992MOL0     H33891   9.235   4.697   3.076  0.0721 -0.7678 -0.2714
  992MOL0     H33892   8.974   4.550   3.151  0.9781 -1.8154  0.9529
  992MOL0     H33893   9.101   4.587   3.270  1.0079 -2.3153 -0.6945
  992MOL0     H33894   9.082   4.827   3.236 -0.1576 -0.9557  2.8620
  992MOL0     H33895   8.932   4.751   3.299  0.0607 -2.3012  0.7478
  992MOL0     H33896   8.976   4.835   2.997  0.1030 -1.5721 -1.2421
  992MOL0     H33897   8.829   4.767   3.066 -1.8552  2.8847  1.5837
  992MOL0     H33898   8.806   4.985   3.017  1.1283 -0.8623 -0.9187
  992MOL0     H33899   8.929   5.056   3.116 -2.5216  3.0011 -1.6267
  992MOL0     H33900   8.714   5.096   3.228 -2.4333 -0.2632 -0.2622
  992MOL0     H33901   8.790   4.976   3.326 -3.2205  0.2643  2.6840
  992MOL0     H33902   9.461   4.169   2.844 -1.5829 -1.4781  2.2375
  992MOL0     H33903   9.640   4.066   2.982 -0.3040  1.0215 -1.0302
  992MOL0     H33904   9.990   4.100   3.213  0.9813  1.4947  0.0717
  992MOL0     H33905  10.171   3.951   3.307  0.1973 -1.7986  0.9706
  992MOL0     H33906   9.685   3.317   2.926 -2.1212 -1.5172 -1.7035
  992MOL0     H33907   9.741   3.387   2.717 -2.9463 -1.5316 -1.4248
  992MOL0     H33908  10.066   3.348   2.336  0.2312  0.2091  0.2125
  992MOL0     H33909  10.096   3.387   2.101  0.5726 -1.2799  0.0259
  992MOL0     H33910   9.895   3.124   1.851 -0.4709  0.8886  2.7033
  992MOL0     H33911   9.760   3.231   1.822 -0.4745 -1.8642 -1.5896
  992MOL0     H33912   9.830   3.192   1.624 -1.0643  1.1530  2.1960
  992MOL0     H33913  10.002   3.186   1.662 -0.1708  1.1244 -2.6106
  992MOL0     H33914  10.029   3.411   1.644 -0.2664  0.2297  0.3791
  992MOL0     H33915   9.858   3.447   1.698  3.7757  0.4657  4.2091
  992MOL0     H33916   9.780   3.445   1.499 -0.5327  0.0940  2.7064
  992MOL0     H33917   9.875   3.302   1.442  1.6306  0.3439 -0.3025
  992MOL0     H33918  10.090   3.594   1.259 -2.2714  2.7622 -0.3666
  992MOL0     H33919   9.701   3.230   2.025 -0.4116  0.5112 -0.5767
  992MOL0     H33920   9.651   3.211   2.254 -0.8310  1.2878 -1.8084
  993MOL0     O33921   3.891   9.240   5.601  0.1878  0.0353 -0.3486
  993MOL0     C33922   3.842   9.350   5.586  0.1985  0.7403 -0.6795
  993MOL0     O33923   3.908   9.468   5.587  0.1277 -0.1330  0.2906
  993MOL0     C33924   4.040   9.457   5.637 -0.0583  0.1090  0.0726
  993MOL0     C33925   4.143   9.380   5.594  0.4360  0.7303 -0.7856
  993MOL0     C33926   4.262   9.369   5.664  0.1463 -0.5401 -0.6548
  993MOL0     C33927   4.287   9.448   5.774  0.5255 -0.6919  0.1033
  993MOL0     O33928   4.409   9.437   5.824 -0.8582 -0.2495  0.0193
  993MOL0     C33929   4.421   9.472   5.965 -0.3066 -0.5248  0.6022
  993MOL0     C33930   4.567   9.432   6.022  0.3165  0.3060  0.2026
  993MOL0     C33931   4.687   9.487   5.953  0.5897  0.5971  0.3075
  993MOL0     C33932   4.815   9.429   6.017  0.3303 -0.5250  0.4931
  993MOL0     C33933   4.939   9.460   5.938 -0.8358 -0.2054 -0.9221
  993MOL0     C33934   5.062   9.470   6.028 -0.0092  0.0695  0.0713
  993MOL0     C33935   5.188   9.475   5.935  0.6138 -0.6481 -0.5938
  993MOL0     C33936   5.218   9.619   5.893 -0.3540 -0.5793  0.1667
  993MOL0     N33937   5.120   9.659   5.795 -0.6560 -0.0752  0.1014
  993MOL0     C33938   5.089   9.592   5.681  0.6553  0.5907  0.3626
  993MOL0     C33939   4.974   9.654   5.633 -0.3296  0.3864  0.9998
  993MOL0     C33940   4.885   9.615   5.512  0.3038  0.5401 -0.4964
  993MOL0     C33941   4.756   9.550   5.575 -1.3610 -0.1848  0.6052
  993MOL0     C33942   4.664   9.514   5.456 -0.8470  0.8072 -0.1707
  993MOL0     C33943   4.546   9.429   5.505  0.2479  0.0237  0.0632
  993MOL0     O33944   4.460   9.394   5.402  0.0921  0.2412  0.8415
  993MOL0     C33945   4.443   9.264   5.377  0.4241  0.7408 -0.3386
  993MOL0     C33946   4.544   9.167   5.394  0.0914  0.1439  0.7698
  993MOL0     C33947   4.523   9.028   5.354 -0.1058  0.2908  0.5890
  993MOL0     C33948   4.643   8.931   5.378 -0.0293  0.0426 -0.1399
  993MOL0     C33949   4.387   8.988   5.313 -0.1440  0.5611 -0.2404
  993MOL0     C33950   4.337   8.843   5.296  0.6197 -1.0055  1.2203
  993MOL0     O33951   4.241   8.824   5.198  0.0759  0.2675  0.5836
  993MOL0     C33952   4.219   8.701   5.147 -0.2391  0.6286 -0.1238
  993MOL0     C33953   4.080   8.686   5.111  0.2840  0.3126  0.4064
  993MOL0     C33954   4.035   8.558   5.074 -0.7033  0.4758 -0.0567
  993MOL0     C33955   4.120   8.451   5.064 -0.4868 -1.4397  0.6439
  993MOL0     O33956   4.074   8.346   4.999  0.1151 -0.1927  0.9225
  993MOL0     C33957   4.085   8.208   5.049 -0.5005 -0.7450  0.1796
  993MOL0     C33958   3.943   8.160   5.092  0.2792 -0.7301  0.8038
  993MOL0     C33959   3.881   8.251   5.198 -0.1168 -0.1873 -0.6940
  993MOL0     C33960   3.734   8.219   5.245 -0.4399  0.3727 -0.9074
  993MOL0     C33961   3.726   8.081   5.325  0.6304  0.1621  0.7553
  993MOL0     C33962   3.806   8.075   5.450 -0.2903 -0.3355 -0.3655
  993MOL0     C33963   3.821   7.931   5.516  0.0487 -0.1974 -0.1952
  993MOL0     C33964   3.971   7.886   5.521 -0.1828  0.6290 -0.1405
  993MOL0    Cl33965   4.037   7.806   5.369 -0.7006 -0.1727 -0.1691
  993MOL0     C33966   4.254   8.468   5.082  0.5967 -0.2932 -0.2934
  993MOL0     C33967   4.305   8.584   5.136  0.9092  0.0697  0.6568
  993MOL0     O33968   4.399   8.759   5.346  0.2196 -0.2118  0.2843
  993MOL0     C33969   4.294   9.091   5.302 -0.7733 -0.1471 -0.1331
  993MOL0     C33970   4.315   9.222   5.325  0.2871  0.1607 -0.3374
  993MOL0     N33971   4.954   9.767   5.716 -0.1525  0.6222  0.8486
  993MOL0     N33972   5.032   9.765   5.811  0.3690 -0.3598 -0.2695
  993MOL0     C33973   4.182   9.530   5.821  0.1787  0.3199 -0.2553
  993MOL0     C33974   4.070   9.534   5.744  0.3262  1.0396 -0.3820
  993MOL0     C33975   3.706   9.336   5.536  0.0101 -0.1683  0.7347
  993MOL0     C33976   3.641   9.213   5.534  0.1883 -0.0913  1.2672
  993MOL0     C33977   3.515   9.200   5.462 -0.2132 -0.4660 -0.3350
  993MOL0     C33978   3.452   9.319   5.423 -1.0559 -0.5826  0.2306
  993MOL0     O33979   3.330   9.330   5.349  0.4276  0.5939 -0.1054
  993MOL0     C33980   3.238   9.221   5.343 -0.1917  0.4713  0.8807
  993MOL0     C33981   3.138   9.221   5.234 -0.0807 -0.3117 -0.0108
  993MOL0     C33982   3.211   9.209   5.101  0.4358 -0.5352  0.5361
  993MOL0     C33983   3.196   9.333   5.010  0.2482 -0.4505  0.5221
  993MOL0     C33984   3.056   9.366   4.999  0.8157  0.1693 -0.3131
  993MOL0     C33985   2.937   9.399   4.998 -0.8340  0.0742  0.2768
  993MOL0     C33986   3.516   9.440   5.434  0.3463 -0.0893  0.5150
  993MOL0     C33987   3.637   9.456   5.497 -0.7177 -0.0302  0.3548
  993MOL0     H33988   4.130   9.330   5.498  1.1975 -0.2009 -0.4310
  993MOL0     H33989   4.336   9.292   5.646 -0.0961 -1.2007  1.0247
  993MOL0     H33990   4.396   9.578   5.971 -0.8094  0.0403 -5.1418
  993MOL0     H33991   4.343   9.417   6.018 -0.5939 -1.0863 -0.3800
  993MOL0     H33992   4.586   9.463   6.125  0.5709  0.7858  0.0158
  993MOL0     H33993   4.564   9.323   6.022  2.2557  0.2093  0.9780
  993MOL0     H33994   4.685   9.445   5.852  1.4310  0.3439  0.3865
  993MOL0     H33995   4.685   9.595   5.939 -0.3321  0.6955  1.0629
  993MOL0     H33996   4.833   9.462   6.120  1.4263  0.7756 -0.0835
  993MOL0     H33997   4.806   9.320   6.014  1.1809 -0.6101  0.8349
  993MOL0     H33998   4.949   9.380   5.864 -0.5031 -0.8666 -0.1906
  993MOL0     H33999   4.919   9.560   5.899  1.6957  1.0742  0.7859
  993MOL0     H34000   5.058   9.556   6.095  3.2806 -1.2862  2.2580
  993MOL0     H34001   5.076   9.391   6.102  3.0458  2.0793  1.8648
  993MOL0     H34002   5.276   9.442   5.991 -0.0018  0.3690  1.0462
  993MOL0     H34003   5.181   9.408   5.849 -1.2449  3.1311 -3.6737
  993MOL0     H34004   5.317   9.632   5.849 -1.4719  0.1664 -2.2766
  993MOL0     H34005   5.221   9.690   5.976  1.5810 -0.6939  0.2542
  993MOL0     H34006   5.130   9.500   5.642  1.3310  0.4573  1.3640
  993MOL0     H34007   4.863   9.710   5.463  2.8358  1.1682 -0.5489
  993MOL0     H34008   4.945   9.545   5.453  1.7428  0.9915  0.3709
  993MOL0     H34009   4.696   9.619   5.634 -0.4775  2.5386 -1.5060
  993MOL0     H34010   4.786   9.458   5.626  0.7520  0.6825  1.0419
  993MOL0     H34011   4.714   9.446   5.387  1.3825  1.6885  0.4973
  993MOL0     H34012   4.631   9.594   5.389  3.2570 -0.5208 -4.2383
  993MOL0     H34013   4.489   9.506   5.559 -0.4420  0.1879 -0.8703
  993MOL0     H34014   4.582   9.353   5.574 -0.7125  2.0779  3.0277
  993MOL0     H34015   4.643   9.177   5.438  0.0519 -2.9940  1.8788
  993MOL0     H34016   4.619   8.876   5.470 -2.0128  2.3633  0.8412
  993MOL0     H34017   4.655   8.855   5.300 -1.1579 -0.0849 -0.2206
  993MOL0     H34018   4.736   8.988   5.383 -0.5894  0.8883  2.0581
  993MOL0     H34019   4.011   8.770   5.118 -1.5322 -1.0723  0.0377
  993MOL0     H34020   3.934   8.539   5.039  0.0904 -0.5625 -1.8944
  993MOL0     H34021   4.119   8.143   4.968 -0.2226  0.3331 -0.5986
  993MOL0     H34022   4.153   8.201   5.134  0.8989  0.2353 -0.8204
  993MOL0     H34023   3.877   8.154   5.006  1.5554 -1.1754 -0.1753
  993MOL0     H34024   3.952   8.056   5.125  4.1460 -0.4390  1.1447
  993MOL0     H34025   3.872   8.356   5.171 -0.3514  0.7623  2.6717
  993MOL0     H34026   3.947   8.255   5.285 -0.8534  0.2105 -0.1458
  993MOL0     H34027   3.699   8.297   5.313  0.4939 -0.5979  0.7515
  993MOL0     H34028   3.669   8.216   5.157 -1.5582 -0.7930 -0.0922
  993MOL0     H34029   3.754   8.003   5.254  0.6490  0.4778  0.4063
  993MOL0     H34030   3.619   8.069   5.342  0.0166  2.3301 -1.0440
  993MOL0     H34031   3.906   8.108   5.423 -1.1618  2.9253  0.0201
  993MOL0     H34032   3.775   8.155   5.518  0.9967  1.3334 -1.6609
  993MOL0     H34033   3.766   7.859   5.455  1.9911 -1.3354 -0.7053
  993MOL0     H34034   3.785   7.921   5.619  0.9480  0.7385  0.2351
  993MOL0     H34035   3.980   7.824   5.610 -2.0105  0.7680  0.1797
  993MOL0     H34036   4.030   7.975   5.545 -1.7343  1.2374  1.6550
  993MOL0     H34037   4.315   8.382   5.054 -1.3916 -2.2508  1.0589
  993MOL0     H34038   4.411   8.599   5.154  1.1552 -1.1375  0.2994
  993MOL0     H34039   4.198   9.055   5.265 -0.5620  1.4954 -2.4957
  993MOL0     H34040   4.237   9.292   5.294  0.5120  0.2470 -0.7066
  993MOL0     H34041   4.206   9.614   5.885  3.1179  1.5776 -2.7768
  993MOL0     H34042   3.997   9.609   5.772  1.3101  1.7516  0.3390
  993MOL0     H34043   3.693   9.121   5.561  2.1536  0.4423 -0.4867
  993MOL0     H34044   3.480   9.100   5.436 -0.3785  0.1190 -2.5330
  993MOL0     H34045   3.290   9.127   5.319 -0.4621  0.7895 -1.0750
  993MOL0     H34046   3.189   9.211   5.440  1.4183  1.6023  1.8579
  993MOL0     H34047   3.084   9.316   5.236  0.1385  0.0468 -3.7475
  993MOL0     H34048   3.067   9.138   5.246 -0.2786  0.1279  2.0956
  993MOL0     H34049   3.167   9.119   5.057 -0.0782  0.4176 -0.9864
  993MOL0     H34050   3.319   9.201   5.110  0.3392 -0.4657  1.9975
  993MOL0     H34051   3.235   9.311   4.910 -0.0589  1.5193 -0.0716
  993MOL0     H34052   3.247   9.421   5.051  1.7532 -0.3993 -1.3233
  993MOL0     H34053   2.832   9.423   5.003 -0.6317  0.7675  1.5617
  993MOL0     H34054   3.472   9.529   5.391 -0.8493 -0.4965  0.8556
  993MOL0     H34055   3.672   9.556   5.519  0.7052  0.7714 -4.4566
  994MOL0     O34056   3.837   4.157   5.670 -0.2888 -0.4592 -1.1385
  994MOL0     C34057   3.891   4.251   5.728  0.4416 -0.3750 -0.0443
  994MOL0     O34058   3.938   4.371   5.665  0.0590  0.0934 -0.0464
  994MOL0     C34059   3.935   4.381   5.527 -0.1037 -0.2811 -0.7843
  994MOL0     C34060   3.828   4.434   5.461 -0.6676 -0.1652 -0.1407
  994MOL0     C34061   3.815   4.429   5.317  0.2488  0.2477 -0.0306
  994MOL0     C34062   3.904   4.354   5.241 -0.3615 -0.1098  0.2968
  994MOL0     O34063   3.876   4.336   5.113 -0.7506 -0.2624  0.5655
  994MOL0     C34064   3.961   4.252   5.038  0.8862  0.3159  0.6654
  994MOL0     C34065   3.887   4.216   4.904 -0.9687 -1.0712 -0.1614
  994MOL0     C34066   3.969   4.127   4.818  0.1973  0.0505 -0.0629
  994MOL0     C34067   3.893   4.081   4.692  0.4977 -0.6141 -0.3494
  994MOL0     C34068   4.001   4.005   4.614  0.3472  0.3745  0.5167
  994MOL0     C34069   3.934   3.928   4.502 -0.7196 -0.2911  1.0098
  994MOL0     C34070   4.036   3.849   4.414 -0.3690  0.1791 -0.4810
  994MOL0     C34071   3.958   3.762   4.323 -0.2141 -0.1787  0.3976
  994MOL0     N34072   4.043   3.712   4.214  0.4159 -0.3740 -0.8290
  994MOL0     C34073   4.077   3.792   4.112  0.0187 -0.4216  0.7737
  994MOL0     C34074   4.165   3.720   4.037 -0.5055  0.5436 -0.2058
  994MOL0     C34075   4.232   3.765   3.908 -1.0325 -1.1368 -1.2468
  994MOL0     C34076   4.187   3.676   3.791 -0.6043  0.0223 -0.0731
  994MOL0     C34077   4.058   3.731   3.735  0.2123  0.8589 -0.1119
  994MOL0     C34078   4.020   3.613   3.628 -0.6006 -1.1456  0.9341
  994MOL0     O34079   3.927   3.652   3.528 -0.6072  0.3263 -0.0428
  994MOL0     C34080   3.980   3.738   3.429 -0.1889  0.6857  0.2433
  994MOL0     C34081   3.890   3.837   3.385  0.7616 -0.5997 -0.3030
  994MOL0     C34082   3.902   3.912   3.269 -0.5274 -0.6213  0.5575
  994MOL0     C34083   3.809   4.030   3.241  0.2325  0.2905  0.3638
  994MOL0     C34084   4.017   3.886   3.191  0.5877 -0.1568 -0.1822
  994MOL0     C34085   4.063   3.959   3.073 -0.3028 -0.4823 -0.2421
  994MOL0     O34086   4.103   4.086   3.097  0.3943 -0.0611 -0.3547
  994MOL0     C34087   4.160   4.160   2.994 -0.0270  0.3371  0.2981
  994MOL0     C34088   4.077   4.212   2.893 -0.2730 -0.6413  0.2898
  994MOL0     C34089   4.141   4.287   2.784 -0.7643  0.6640 -0.7822
  994MOL0     C34090   4.275   4.305   2.778 -0.5556 -0.7196 -0.2083
  994MOL0     O34091   4.334   4.385   2.682  0.8620 -0.6029 -0.0150
  994MOL0     C34092   4.464   4.344   2.643  0.1111 -0.5804  0.8206
  994MOL0     C34093   4.503   4.429   2.520 -0.9265  0.2348 -0.2632
  994MOL0     C34094   4.551   4.566   2.566  0.3494 -0.1722  0.9065
  994MOL0     C34095   4.549   4.669   2.446 -0.6888  0.2409 -0.2722
  994MOL0     C34096   4.652   4.625   2.330  0.3093 -0.0587 -1.1219
  994MOL0     C34097   4.692   4.752   2.264 -0.5153  0.0001  0.5194
  994MOL0     C34098   4.804   4.743   2.165 -0.5125  0.7908 -0.0065
  994MOL0     C34099   4.765   4.683   2.026 -0.0702  1.1119 -0.3217
  994MOL0    Cl34100   4.763   4.495   2.030  0.0807 -0.2007 -0.5972
  994MOL0     C34101   4.358   4.246   2.879 -0.6080  0.0539 -0.4241
  994MOL0     C34102   4.295   4.171   2.987  0.6056  0.1612  1.0691
  994MOL0     O34103   4.081   3.904   2.970  0.8538 -0.1224 -0.1771
  994MOL0     C34104   4.116   3.790   3.231 -0.1062  0.1485  0.2651
  994MOL0     C34105   4.093   3.723   3.354 -0.3527 -0.2394  0.6874
  994MOL0     N34106   4.183   3.593   4.089  0.5970 -0.0408  0.1945
  994MOL0     N34107   4.105   3.590   4.197 -0.0205  0.7214  0.6810
  994MOL0     C34108   4.020   4.314   5.300 -0.6463 -0.0454 -0.8475
  994MOL0     C34109   4.031   4.316   5.440  0.8332  0.7104 -0.5981
  994MOL0     C34110   3.915   4.246   5.871  0.9038 -0.4150 -0.6790
  994MOL0     C34111   3.918   4.114   5.926 -0.0348 -0.2469 -0.5638
  994MOL0     C34112   3.941   4.105   6.067 -0.6101  0.6607  0.0581
  994MOL0     C34113   3.968   4.217   6.150 -0.4291 -0.8042 -0.7217
  994MOL0     O34114   3.958   4.195   6.286  0.8690  0.2721 -0.1927
  994MOL0     C34115   3.838   4.233   6.338 -0.2704  0.1236 -0.7342
  994MOL0     C34116   3.800   4.137   6.453 -0.3816  0.2093 -0.3821
  994MOL0     C34117   3.680   4.193   6.521  0.0588 -0.1688 -0.1816
  994MOL0     C34118   3.616   4.109   6.632 -0.3221 -0.4631  0.2501
  994MOL0     C34119   3.541   3.998   6.565 -0.2096  0.5985  0.4534
  994MOL0     C34120   3.488   3.924   6.480 -0.5894  0.2609 -0.7303
  994MOL0     C34121   3.966   4.346   6.086 -0.5457  0.9463 -0.3108
  994MOL0     C34122   3.940   4.356   5.950  0.1382 -0.1384  0.4475
  994MOL0     H34123   3.748   4.476   5.521 -0.6544 -2.1710  1.3754
  994MOL0     H34124   3.724   4.455   5.265 -0.4610 -0.9108  0.5860
  994MOL0     H34125   4.060   4.296   5.021  1.7897 -1.2001  1.7936
  994MOL0     H34126   3.973   4.157   5.091 -1.8176  0.5288  1.8149
  994MOL0     H34127   3.800   4.153   4.925 -0.5513 -1.8203 -0.6254
  994MOL0     H34128   3.854   4.305   4.849  0.9638  0.4782  1.0435
  994MOL0     H34129   4.052   4.185   4.777 -0.4143 -0.2957 -1.8985
  994MOL0     H34130   4.014   4.041   4.869  0.7957  0.1673 -0.3899
  994MOL0     H34131   3.821   4.004   4.718  1.7458 -1.1663  1.7580
  994MOL0     H34132   3.856   4.176   4.652  1.2595 -0.4770 -0.7571
  994MOL0     H34133   4.078   4.072   4.575 -0.5711  0.8182 -0.5743
  994MOL0     H34134   4.048   3.935   4.683  2.2133  0.9357 -0.1134
  994MOL0     H34135   3.875   3.846   4.544  0.0823 -0.8241  1.1239
  994MOL0     H34136   3.866   4.001   4.457 -1.0035  0.5807  2.7685
  994MOL0     H34137   4.098   3.919   4.356  1.1681 -1.1598 -0.5132
  994MOL0     H34138   4.100   3.789   4.479  1.7375  1.4948 -1.2466
  994MOL0     H34139   3.870   3.807   4.277 -1.1363 -4.0561 -2.1329
  994MOL0     H34140   3.922   3.684   4.390  0.3529 -1.8386 -1.1549
  994MOL0     H34141   4.033   3.884   4.074  0.6853 -0.6663 -0.6595
  994MOL0     H34142   4.219   3.871   3.887 -0.4041 -0.8358 -0.1957
  994MOL0     H34143   4.339   3.751   3.924 -1.4495 -0.6600  3.7459
  994MOL0     H34144   4.189   3.569   3.813  0.4893 -0.4180 -2.0846
  994MOL0     H34145   4.264   3.684   3.714  0.9428 -0.1419  1.4022
  994MOL0     H34146   4.078   3.826   3.684  0.2487  2.3292  2.4883
  994MOL0     H34147   3.982   3.741   3.813  0.3214 -0.7755  0.2404
  994MOL0     H34148   3.972   3.533   3.687 -0.5885 -0.7090  1.5434
  994MOL0     H34149   4.107   3.568   3.580 -0.8463 -0.1363 -0.5057
  994MOL0     H34150   3.800   3.852   3.445  1.2944  0.3847  0.2845
  994MOL0     H34151   3.704   4.004   3.256  0.2211 -0.0010 -0.2238
  994MOL0     H34152   3.849   4.120   3.289 -0.3370  0.2852  0.8662
  994MOL0     H34153   3.804   4.061   3.136 -4.8365 -0.1770  0.1966
  994MOL0     H34154   3.968   4.208   2.895 -0.2588 -1.1311  0.4057
  994MOL0     H34155   4.076   4.324   2.706  0.3624 -2.3024 -3.3484
  994MOL0     H34156   4.537   4.360   2.722  1.1550  0.8398 -0.3709
  994MOL0     H34157   4.460   4.237   2.622 -0.9981 -0.6926  1.5104
  994MOL0     H34158   4.579   4.375   2.462 -0.0652 -0.3105  1.3266
  994MOL0     H34159   4.417   4.427   2.452 -1.0037  0.3285 -0.1686
  994MOL0     H34160   4.638   4.558   2.631  0.4417  0.8158  0.9282
  994MOL0     H34161   4.488   4.623   2.635  1.3137 -0.5201  2.0975
  994MOL0     H34162   4.447   4.683   2.409 -0.7948  1.1018  0.3150
  994MOL0     H34163   4.581   4.766   2.484  2.1313 -0.3308 -0.9525
  994MOL0     H34164   4.597   4.566   2.256 -0.3404  0.0595 -0.7434
  994MOL0     H34165   4.733   4.570   2.378 -1.6040 -2.1867 -0.1443
  994MOL0     H34166   4.599   4.800   2.231  0.2986  0.1308 -1.6987
  994MOL0     H34167   4.731   4.815   2.344 -0.4272 -2.6401  2.7168
  994MOL0     H34168   4.891   4.689   2.203 -0.1148 -0.5247 -2.5702
  994MOL0     H34169   4.838   4.842   2.133 -1.9575  0.1055 -4.4764
  994MOL0     H34170   4.841   4.719   1.956  0.7917  1.1520  0.6169
  994MOL0     H34171   4.661   4.704   2.000 -1.4244 -2.8458  1.1058
  994MOL0     H34172   4.465   4.252   2.868 -0.3627  1.0820  1.9965
  994MOL0     H34173   4.350   4.114   3.061 -0.2989 -1.5458  0.4872
  994MOL0     H34174   4.201   3.776   3.164  0.0766  1.4547  0.2002
  994MOL0     H34175   4.162   3.648   3.392  1.4855  1.7755  1.4797
  994MOL0     H34176   4.107   4.265   5.258  1.0042 -0.4114  2.6575
  994MOL0     H34177   4.116   4.274   5.493  0.4786  2.8820  1.8484
  994MOL0     H34178   3.892   4.031   5.862 -1.2431  0.1121 -0.5502
  994MOL0     H34179   3.944   4.010   6.120 -1.9746  1.2366  1.2400
  994MOL0     H34180   3.875   4.332   6.366 -0.1493 -0.6157  2.0143
  994MOL0     H34181   3.750   4.234   6.274 -0.0199 -2.2856 -1.1938
  994MOL0     H34182   3.885   4.111   6.517 -0.5469  0.3438 -0.1066
  994MOL0     H34183   3.761   4.047   6.405 -3.0868  1.2171 -0.2736
  994MOL0     H34184   3.597   4.215   6.453  0.1150 -0.5223 -0.3646
  994MOL0     H34185   3.709   4.291   6.562  0.3201  1.1876 -3.2793
  994MOL0     H34186   3.548   4.177   6.684  0.0430  1.4825 -1.6554
  994MOL0     H34187   3.695   4.064   6.692 -0.2965 -3.9973 -2.0999
  994MOL0     H34188   3.462   3.860   6.398  1.2386 -1.7265  0.1299
  994MOL0     H34189   3.990   4.441   6.132 -0.5574  0.7258  0.1594
  994MOL0     H34190   3.936   4.453   5.902 -1.6554 -1.3223 -2.0150
  995MOL0     O34191   1.366   2.309   4.577 -0.6993  0.3297 -0.1111
  995MOL0     C34192   1.415   2.223   4.498  0.1687  0.2574 -0.5332
  995MOL0     O34193   1.403   2.231   4.356 -0.0786  0.8679 -0.2823
  995MOL0     C34194   1.322   2.323   4.296 -0.4487  0.3775 -0.4416
  995MOL0     C34195   1.376   2.455   4.273  0.2545  0.6300 -0.4864
  995MOL0     C34196   1.297   2.552   4.221  0.7258 -0.3527 -0.2957
  995MOL0     C34197   1.166   2.523   4.187 -0.0622 -0.0361  0.6765
  995MOL0     O34198   1.098   2.628   4.132 -0.2962 -0.2866  0.4564
  995MOL0     C34199   0.957   2.625   4.093 -0.8032  0.7086  0.0210
  995MOL0     C34200   0.902   2.750   4.023  0.0826 -0.7809 -0.0539
  995MOL0     C34201   0.974   2.776   3.896 -0.1538 -0.4961  0.1582
  995MOL0     C34202   0.920   2.902   3.826 -0.7613 -0.0918  0.7162
  995MOL0     C34203   0.981   2.930   3.690  0.1425 -0.0094  0.4195
  995MOL0     C34204   1.130   2.932   3.684 -0.7356  0.5343  0.5926
  995MOL0     C34205   1.191   3.033   3.790 -0.3787 -0.4790  0.6739
  995MOL0     C34206   1.183   3.182   3.767 -0.4978  0.2946 -0.5101
  995MOL0     N34207   1.248   3.229   3.633 -0.2908  0.0484  0.4584
  995MOL0     C34208   1.182   3.236   3.514  0.2511 -0.3692  0.0147
  995MOL0     C34209   1.270   3.272   3.418 -0.6060  0.0072  0.4186
  995MOL0     C34210   1.249   3.329   3.284 -0.2304  0.2618 -0.7567
  995MOL0     C34211   1.281   3.226   3.181 -0.2279 -0.8092 -0.0504
  995MOL0     C34212   1.192   3.108   3.184 -0.7145  0.5694 -0.1116
  995MOL0     C34213   1.216   3.025   3.052 -0.7170  0.3485  0.3050
  995MOL0     O34214   1.348   2.968   3.055  0.5232  0.0135 -0.5353
  995MOL0     C34215   1.437   3.002   2.955  0.8807 -1.1515  0.9197
  995MOL0     C34216   1.550   3.062   3.003  1.1991  0.3376  0.1367
  995MOL0     C34217   1.662   3.107   2.925  0.6490  0.2991  0.2445
  995MOL0     C34218   1.776   3.176   2.998  0.8117  0.3068  0.5204
  995MOL0     C34219   1.638   3.086   2.787 -1.4167 -0.1919  0.3191
  995MOL0     C34220   1.735   3.118   2.691 -0.5144 -0.6656  0.4455
  995MOL0     O34221   1.697   3.131   2.564  0.0012 -1.0438  0.3175
  995MOL0     C34222   1.797   3.148   2.470 -0.3612  0.4711  0.6615
  995MOL0     C34223   1.860   3.273   2.444  0.8485  0.6940  0.4310
  995MOL0     C34224   1.970   3.284   2.368  1.0740  0.1635 -0.0245
  995MOL0     C34225   2.019   3.172   2.297  0.6690 -0.0218 -0.4288
  995MOL0     O34226   2.134   3.178   2.234  0.2753  0.5696  0.7956
  995MOL0     C34227   2.247   3.173   2.324 -0.7781 -0.5008 -0.1599
  995MOL0     C34228   2.380   3.133   2.243  0.1442 -1.1602  1.2833
  995MOL0     C34229   2.375   2.996   2.170  0.0938 -0.3543  0.3264
  995MOL0     C34230   2.416   2.879   2.263  0.2113 -0.0648  0.0097
  995MOL0     C34231   2.404   2.741   2.188 -0.3725  1.0014 -0.6267
  995MOL0     C34232   2.423   2.623   2.292 -0.2500 -0.1374 -0.6860
  995MOL0     C34233   2.368   2.487   2.236  0.5151 -0.2751 -0.7374
  995MOL0     C34234   2.350   2.389   2.346 -0.1835  0.8323  0.2005
  995MOL0    Cl34235   2.501   2.348   2.429  0.0595 -0.5192 -0.4253
  995MOL0     C34236   1.957   3.048   2.314  0.3018  0.4723 -0.5214
  995MOL0     C34237   1.837   3.035   2.391 -0.3223  0.0652 -1.0398
  995MOL0     O34238   1.848   3.134   2.731  0.0809  0.4676  0.5695
  995MOL0     C34239   1.520   3.017   2.730 -0.7616  0.0878  0.7211
  995MOL0     C34240   1.416   2.971   2.820 -0.3339 -0.7707  0.7771
  995MOL0     N34241   1.389   3.291   3.485 -0.0404 -0.1789  0.3127
  995MOL0     N34242   1.375   3.280   3.611  0.4787  0.6303  0.1795
  995MOL0     C34243   1.111   2.398   4.207  0.2596 -0.0865  0.0153
  995MOL0     C34244   1.190   2.293   4.256 -0.0163 -0.3989 -0.2314
  995MOL0     C34245   1.499   2.113   4.547 -0.8921 -1.1218 -0.0509
  995MOL0     C34246   1.523   2.095   4.686  0.3018 -0.2257 -0.1602
  995MOL0     C34247   1.615   1.995   4.736  0.0879  0.1772  0.2807
  995MOL0     C34248   1.682   1.915   4.643  0.4773  0.4558  0.1276
  995MOL0     O34249   1.766   1.816   4.696  0.2620  0.2539 -0.0165
  995MOL0     C34250   1.831   1.728   4.604 -0.2287  0.5146  0.5712
  995MOL0     C34251   1.913   1.605   4.673 -0.6516 -0.6621  0.7616
  995MOL0     C34252   1.831   1.526   4.774  0.0727  1.1731  0.0178
  995MOL0     C34253   1.724   1.434   4.715  0.6169 -0.4121 -0.5066
  995MOL0     C34254   1.629   1.376   4.815 -0.0423  0.0586 -0.6603
  995MOL0     C34255   1.551   1.331   4.894 -0.7662  1.3393 -0.2201
  995MOL0     C34256   1.655   1.929   4.503  0.6094  1.2930  0.7177
  995MOL0     C34257   1.567   2.026   4.462 -0.3792  0.3381  0.2820
  995MOL0     H34258   1.481   2.480   4.285  0.2951  1.0816 -1.5972
  995MOL0     H34259   1.341   2.650   4.209 -0.6481  0.2206 -0.9268
  995MOL0     H34260   0.933   2.534   4.037 -2.1110 -0.4420  2.3226
  995MOL0     H34261   0.915   2.604   4.192  1.0588 -0.1240  0.6574
  995MOL0     H34262   0.795   2.736   4.011  0.2740 -0.7857 -2.1447
  995MOL0     H34263   0.923   2.830   4.094  3.3506 -1.8870  0.4079
  995MOL0     H34264   1.081   2.784   3.916 -0.0401  0.7846 -0.8435
  995MOL0     H34265   0.962   2.687   3.834  1.1612 -0.2665 -0.4674
  995MOL0     H34266   0.813   2.894   3.803 -0.4391 -1.9487 -0.3273
  995MOL0     H34267   0.940   2.995   3.880  1.4429  0.4978 -0.9994
  995MOL0     H34268   0.940   2.851   3.626 -0.1730 -0.4277  1.1258
  995MOL0     H34269   0.934   3.020   3.650 -0.5813 -0.4886  0.1577
  995MOL0     H34270   1.174   2.833   3.701 -0.1392  0.8837  1.1562
  995MOL0     H34271   1.166   2.961   3.585  0.6286 -0.8741  0.6405
  995MOL0     H34272   1.147   3.017   3.888  0.1176  2.2871  1.4302
  995MOL0     H34273   1.297   3.004   3.784 -0.5395 -0.7875 -1.5649
  995MOL0     H34274   1.213   3.239   3.855 -1.7939 -1.9264  1.4719
  995MOL0     H34275   1.076   3.197   3.777 -0.2042  0.8689  2.7578
  995MOL0     H34276   1.076   3.213   3.502 -0.0339 -0.4282  2.3176
  995MOL0     H34277   1.145   3.357   3.263 -0.2831  1.0144  0.4121
  995MOL0     H34278   1.310   3.418   3.267  1.7647 -0.7794  0.6076
  995MOL0     H34279   1.384   3.196   3.203 -0.7138 -0.4200  3.3857
  995MOL0     H34280   1.289   3.271   3.082  0.8541  0.7093  0.6840
  995MOL0     H34281   1.084   3.125   3.186 -1.3529 -2.3553 -2.3598
  995MOL0     H34282   1.222   3.044   3.268  2.5381  1.4183 -0.4849
  995MOL0     H34283   1.205   3.091   2.966 -0.6738  0.7789  0.6260
  995MOL0     H34284   1.147   2.941   3.040  1.8254 -1.9519  0.7028
  995MOL0     H34285   1.559   3.071   3.111 -0.5430 -1.8566  0.5463
  995MOL0     H34286   1.779   3.154   3.105 -2.8666 -0.5627  0.6058
  995MOL0     H34287   1.869   3.142   2.952  0.0173 -0.1177 -0.8464
  995MOL0     H34288   1.770   3.285   2.988 -1.5680  0.2854  1.0251
  995MOL0     H34289   1.839   3.366   2.495  0.2720  1.0240 -0.3965
  995MOL0     H34290   2.024   3.378   2.363  1.9270 -0.2270  1.4339
  995MOL0     H34291   2.246   3.271   2.374 -2.5970  0.4711 -1.9560
  995MOL0     H34292   2.220   3.097   2.398 -0.2713  1.0305  1.6616
  995MOL0     H34293   2.403   3.210   2.168 -0.0057  0.2502  2.6368
  995MOL0     H34294   2.457   3.135   2.321 -0.8406  0.5446  2.2774
  995MOL0     H34295   2.432   3.000   2.077  0.1807 -1.8435  0.2853
  995MOL0     H34296   2.269   2.978   2.150  0.4469 -1.1395 -1.0014
  995MOL0     H34297   2.515   2.891   2.307 -0.3681  1.6554  0.9422
  995MOL0     H34298   2.344   2.876   2.346  1.0976 -0.8484  0.7726
  995MOL0     H34299   2.477   2.731   2.106  0.0657  0.0915 -0.1396
  995MOL0     H34300   2.309   2.746   2.134 -1.8328  3.5065  1.9460
  995MOL0     H34301   2.529   2.604   2.312 -0.0583 -0.1079 -1.6161
  995MOL0     H34302   2.373   2.642   2.387  1.0750 -1.7594  0.3988
  995MOL0     H34303   2.446   2.457   2.165 -1.3502 -1.3151 -2.4619
  995MOL0     H34304   2.271   2.499   2.186  0.1697 -4.0341 -1.2666
  995MOL0     H34305   2.318   2.297   2.295  2.0320  1.6722 -3.0002
  995MOL0     H34306   2.267   2.422   2.408 -0.1015 -0.6783  1.1720
  995MOL0     H34307   2.014   2.968   2.268  0.7603  0.1223  0.6286
  995MOL0     H34308   1.794   2.937   2.408  1.9949 -0.9633 -0.6350
  995MOL0     H34309   1.498   2.988   2.628 -2.0188 -1.1535  1.3084
  995MOL0     H34310   1.327   2.920   2.785 -1.1935  0.5489  0.9588
  995MOL0     H34311   1.011   2.365   4.178 -0.4135  0.8492  1.1676
  995MOL0     H34312   1.152   2.192   4.256  0.2121 -0.4932 -1.1050
  995MOL0     H34313   1.485   2.169   4.755 -1.5325  1.4170 -2.7543
  995MOL0     H34314   1.650   2.001   4.839  2.7588 -1.7224 -0.3944
  995MOL0     H34315   1.763   1.694   4.525 -0.9752 -0.6608  1.6614
  995MOL0     H34316   1.904   1.785   4.547 -0.4467 -0.5022 -0.7744
  995MOL0     H34317   1.998   1.655   4.721 -0.7065 -0.3492  0.5386
  995MOL0     H34318   1.954   1.538   4.598 -0.1910  1.2793 -0.8208
  995MOL0     H34319   1.796   1.596   4.851  0.1819  1.3666 -0.1068
  995MOL0     H34320   1.894   1.459   4.834 -1.4765  0.5981  1.0774
  995MOL0     H34321   1.760   1.346   4.661  0.1505 -1.0826  0.2432
  995MOL0     H34322   1.675   1.487   4.633 -0.6706  1.8078  1.5575
  995MOL0     H34323   1.491   1.295   4.975  2.9165  1.4635  2.8308
  995MOL0     H34324   1.730   1.881   4.441  1.2608  1.1471  1.6021
  995MOL0     H34325   1.568   2.042   4.355  3.9223 -0.2746  0.0637
  996MOL0     O34326   3.979   5.790  10.442 -0.2638  0.3610 -0.6619
  996MOL0     C34327   4.089   5.771  10.484 -0.4534  0.2228 -0.6544
  996MOL0     O34328   4.210   5.761  10.421 -0.8471 -0.3465 -0.1713
  996MOL0     C34329   4.222   5.774  10.280  0.8501  0.3031  0.8270
  996MOL0     C34330   4.119   5.810  10.185 -0.6362 -0.0137  0.9330
  996MOL0     C34331   4.147   5.819  10.051  0.3569 -0.3355 -0.0038
  996MOL0     C34332   4.275   5.788   9.999 -0.1965 -0.0891  0.1158
  996MOL0     O34333   4.309   5.794   9.865  0.3076  0.9515 -0.2759
  996MOL0     C34334   4.447   5.789   9.823 -0.3267 -1.0371 -0.1530
  996MOL0     C34335   4.473   5.812   9.667 -0.6908  0.4509 -0.4908
  996MOL0     C34336   4.457   5.952   9.617 -0.5166  0.4162 -0.0012
  996MOL0     C34337   4.450   5.954   9.469 -0.1316 -0.7404  0.5244
  996MOL0     C34338   4.341   5.868   9.404 -0.4374 -0.3748 -0.8367
  996MOL0     C34339   4.329   5.897   9.254  0.6472  0.7777  0.6761
  996MOL0     C34340   4.190   5.839   9.209  0.3088  0.4194  0.4259
  996MOL0     C34341   4.191   5.683   9.214  1.0829 -0.3672  0.2634
  996MOL0     N34342   4.075   5.621   9.150 -0.9100 -0.7429 -0.2298
  996MOL0     C34343   3.953   5.665   9.115 -0.6300 -0.3293  0.0045
  996MOL0     C34344   3.894   5.567   9.046  0.7876  0.5965 -0.6125
  996MOL0     C34345   3.754   5.563   9.012 -0.2002 -0.4627 -0.2353
  996MOL0     C34346   3.654   5.590   9.129 -1.0985  0.0885 -0.2035
  996MOL0     C34347   3.515   5.585   9.066 -0.6663 -0.1483 -0.0783
  996MOL0     C34348   3.434   5.706   9.131  0.8897 -0.7779  0.6053
  996MOL0     O34349   3.430   5.686   9.272  0.1363  0.4179  0.8810
  996MOL0     C34350   3.371   5.775   9.360 -0.9401  0.5802  1.5900
  996MOL0     C34351   3.301   5.889   9.316 -0.4429  0.5428 -0.6444
  996MOL0     C34352   3.240   5.976   9.405 -0.6410 -1.2873  0.6992
  996MOL0     C34353   3.164   6.096   9.346 -0.0409 -0.1411 -0.2030
  996MOL0     C34354   3.268   5.968   9.540 -0.5110  0.3742  0.0264
  996MOL0     C34355   3.240   6.070   9.650  0.0619 -0.7081  0.0171
  996MOL0     O34356   3.335   6.068   9.757 -0.3304  0.9476 -0.1301
  996MOL0     C34357   3.307   6.154   9.859  0.2653  0.6658 -0.0856
  996MOL0     C34358   3.270   6.289   9.856  0.2641 -0.1564 -0.1011
  996MOL0     C34359   3.251   6.369   9.975  0.7811 -0.0994  0.2970
  996MOL0     C34360   3.269   6.305  10.091 -0.5869  0.7291  1.1597
  996MOL0     O34361   3.295   6.381  10.204  0.2754  0.1199  0.7474
  996MOL0     C34362   3.410   6.454  10.216  0.4413  0.0266  1.4994
  996MOL0     C34363   3.382   6.602  10.188 -0.2489  0.3297 -0.1501
  996MOL0     C34364   3.483   6.693  10.269 -1.1069  0.2956  0.3522
  996MOL0     C34365   3.611   6.716  10.185 -0.4009  0.0122  0.2832
  996MOL0     C34366   3.696   6.836  10.241  0.8010  0.0868 -0.2958
  996MOL0     C34367   3.744   6.818  10.382 -0.2017  0.2160  0.9578
  996MOL0     C34368   3.801   6.953  10.426  0.7585 -0.1084  0.5654
  996MOL0     C34369   3.812   6.948  10.584  0.5002  0.0605 -0.2185
  996MOL0    Cl34370   3.977   6.882  10.605  0.3601 -0.3202 -0.4465
  996MOL0     C34371   3.305   6.164  10.095  0.1208  0.6210 -0.5256
  996MOL0     C34372   3.315   6.097   9.981 -0.5307  0.0503 -0.7928
  996MOL0     O34373   3.146   6.150   9.633 -0.0975 -0.2371  0.0729
  996MOL0     C34374   3.336   5.852   9.590 -0.6430 -0.2468  0.8050
  996MOL0     C34375   3.385   5.760   9.494  0.2668  0.0852 -0.4234
  996MOL0     N34376   3.987   5.464   9.030  0.4234 -1.2581  0.2210
  996MOL0     N34377   4.084   5.501   9.093 -0.1478 -0.2140 -0.2312
  996MOL0     C34378   4.373   5.747  10.092 -0.2317 -0.3485  1.2345
  996MOL0     C34379   4.349   5.739  10.231  0.1868  0.5718  0.4177
  996MOL0     C34380   4.095   5.731  10.633 -0.1798 -0.8693  0.2935
  996MOL0     C34381   4.218   5.686  10.688  0.1910 -0.0464  0.2859
  996MOL0     C34382   4.224   5.653  10.830 -0.2556 -0.7413  0.3016
  996MOL0     C34383   4.107   5.660  10.916 -0.3742  0.2674  0.9861
  996MOL0     O34384   4.097   5.623  11.047 -0.1929 -0.1199 -0.1408
  996MOL0     C34385   4.218   5.555  11.099  0.1888  0.1366  0.2505
  996MOL0     C34386   4.202   5.525  11.250 -1.2479 -0.1093 -0.7835
  996MOL0     C34387   4.240   5.652  11.334 -0.0385 -0.4878 -0.6168
  996MOL0     C34388   4.254   5.613  11.483 -0.0680 -0.4668  0.6697
  996MOL0     C34389   4.225   5.720  11.579  0.0269 -0.2990 -1.1081
  996MOL0     C34390   4.204   5.803  11.664  0.0610 -0.1256  0.3185
  996MOL0     C34391   3.986   5.694  10.852  0.5800 -0.2439  0.8601
  996MOL0     C34392   3.980   5.733  10.717 -0.2441  0.4595  0.4379
  996MOL0     H34393   4.018   5.824  10.223 -1.6708 -0.5162 -1.4075
  996MOL0     H34394   4.071   5.851   9.981  1.5297 -0.8935 -1.5862
  996MOL0     H34395   4.503   5.864   9.879 -1.9768  0.9195 -1.0107
  996MOL0     H34396   4.492   5.693   9.851 -0.8195 -0.4272  3.1268
  996MOL0     H34397   4.578   5.792   9.645 -0.9023 -1.3199 -0.0227
  996MOL0     H34398   4.414   5.731   9.622 -2.8200  1.5495  0.1524
  996MOL0     H34399   4.361   5.993   9.647 -1.3336  0.9650 -2.9693
  996MOL0     H34400   4.547   6.010   9.642  0.9302 -1.3723 -0.7960
  996MOL0     H34401   4.425   6.055   9.433  0.9624 -1.2651 -1.9205
  996MOL0     H34402   4.552   5.926   9.439  0.5678  0.0038  2.1012
  996MOL0     H34403   4.355   5.760   9.418  1.4342 -0.4451 -2.7305
  996MOL0     H34404   4.251   5.895   9.460 -0.2926 -0.5700 -0.5143
  996MOL0     H34405   4.327   6.005   9.236  2.3301  0.9854  1.4789
  996MOL0     H34406   4.411   5.857   9.194 -1.4504 -2.1270 -0.4569
  996MOL0     H34407   4.117   5.869   9.284  0.1413 -1.4081  1.0281
  996MOL0     H34408   4.163   5.878   9.110 -2.5416  1.2528  1.4314
  996MOL0     H34409   4.177   5.651   9.318  0.7606 -0.9232  0.0535
  996MOL0     H34410   4.285   5.635   9.184  1.5541 -0.7403  2.2134
  996MOL0     H34411   3.891   5.744   9.157 -1.3869 -0.8506 -0.0941
  996MOL0     H34412   3.733   5.641   8.939  1.5924 -1.5333 -2.0051
  996MOL0     H34413   3.734   5.472   8.954 -2.0316 -0.5156  0.4169
  996MOL0     H34414   3.688   5.689   9.161 -0.6712  0.4991 -1.8231
  996MOL0     H34415   3.648   5.523   9.215 -0.9815  1.7820  1.1753
  996MOL0     H34416   3.458   5.496   9.095  0.0794 -0.2754  1.0864
  996MOL0     H34417   3.520   5.597   8.958  1.5036 -2.7456 -0.3574
  996MOL0     H34418   3.334   5.697   9.086  1.3273  1.1349 -0.9001
  996MOL0     H34419   3.478   5.799   9.092  0.9275 -1.3413 -0.7530
  996MOL0     H34420   3.285   5.904   9.210 -0.7220 -3.9457 -1.4504
  996MOL0     H34421   3.070   6.103   9.401  0.2533 -1.8090  0.5921
  996MOL0     H34422   3.220   6.190   9.339  0.0574 -0.0891  0.9529
  996MOL0     H34423   3.131   6.073   9.245  1.5808 -0.4589 -0.6895
  996MOL0     H34424   3.269   6.337   9.759  0.1182  1.3700  0.6301
  996MOL0     H34425   3.225   6.474   9.976 -1.8912 -0.7110  0.8371
  996MOL0     H34426   3.448   6.437  10.316 -0.3130 -0.9137  1.6414
  996MOL0     H34427   3.483   6.415  10.144  0.3806 -0.2559  1.5916
  996MOL0     H34428   3.392   6.606  10.079 -2.9083 -1.6499 -0.5567
  996MOL0     H34429   3.279   6.628  10.212 -0.5016 -1.9473  1.5283
  996MOL0     H34430   3.488   6.654  10.371  1.3740 -1.4857 -0.3516
  996MOL0     H34431   3.440   6.792  10.282  0.2526  1.1152 -1.0564
  996MOL0     H34432   3.678   6.630  10.184 -0.4495 -0.0308  0.6503
  996MOL0     H34433   3.586   6.733  10.080 -1.1901  0.8774  0.5961
  996MOL0     H34434   3.634   6.926  10.236  0.8089  0.0230 -1.8562
  996MOL0     H34435   3.785   6.848  10.179  2.7776 -3.8098  1.4187
  996MOL0     H34436   3.661   6.788  10.446  0.0004 -2.5162  0.0510
  996MOL0     H34437   3.811   6.732  10.381 -1.3873 -0.7384  0.7813
  996MOL0     H34438   3.727   7.031  10.406  2.1396  0.7724 -1.3184
  996MOL0     H34439   3.897   6.979  10.382  1.3957 -1.2371  1.2298
  996MOL0     H34440   3.740   6.888  10.640  1.3393 -1.4200 -0.6652
  996MOL0     H34441   3.798   7.049  10.625  0.1366 -0.0474 -0.0744
  996MOL0     H34442   3.332   6.110  10.185 -2.5043 -1.6162 -0.9380
  996MOL0     H34443   3.339   5.991   9.983 -0.2587 -0.0126  3.9771
  996MOL0     H34444   3.365   5.845   9.694  3.2139  0.1969 -0.1057
  996MOL0     H34445   3.450   5.684   9.537 -1.2649 -0.4451  1.0871
  996MOL0     H34446   4.478   5.736  10.069 -0.5887 -0.8104 -0.2584
  996MOL0     H34447   4.432   5.713  10.295  1.7009 -1.9262 -2.3280
  996MOL0     H34448   4.305   5.699  10.624  0.4798  1.1292  0.8833
  996MOL0     H34449   4.325   5.633  10.865  1.6477  4.6178 -1.1609
  996MOL0     H34450   4.235   5.460  11.048  0.6792  0.8770 -1.0134
  996MOL0     H34451   4.300   5.625  11.082  0.4847 -0.8437 -2.9731
  996MOL0     H34452   4.265   5.439  11.274 -0.5946  1.1701  2.8619
  996MOL0     H34453   4.099   5.492  11.266 -1.8115  1.2069 -1.5576
  996MOL0     H34454   4.155   5.718  11.311 -1.3575 -1.8006  0.3107
  996MOL0     H34455   4.331   5.703  11.303  1.0884 -1.1963  1.3988
  996MOL0     H34456   4.357   5.585  11.507  0.0225  3.0488  5.9859
  996MOL0     H34457   4.183   5.534  11.505  0.6245 -0.6538  2.3911
  996MOL0     H34458   4.168   5.883  11.725  0.4702 -1.1953  2.0215
  996MOL0     H34459   3.897   5.685  10.914 -1.8542  0.4888 -2.2855
  996MOL0     H34460   3.882   5.761  10.679 -0.1638 -0.0032 -0.1275
  997MOL0     O34461   1.545   1.491   0.872  0.0441 -0.2176  0.1704
  997MOL0     C34462   1.498   1.379   0.871  0.5212 -0.6445  0.5527
  997MOL0     O34463   1.425   1.330   0.761 -0.0611  0.2570 -0.0024
  997MOL0     C34464   1.447   1.396   0.644  0.7829 -1.2306  0.4062
  997MOL0     C34465   1.571   1.409   0.576  0.7763 -0.0160  0.1162
  997MOL0     C34466   1.582   1.486   0.456  0.7867 -0.3999  0.1024
  997MOL0     C34467   1.461   1.538   0.395  0.5118  0.5217  0.0070
  997MOL0     O34468   1.465   1.617   0.285  0.1686 -0.3815  0.6646
  997MOL0     C34469   1.576   1.608   0.189  0.2745 -0.3914 -0.6106
  997MOL0     C34470   1.569   1.473   0.117  0.0575 -0.0926 -0.1138
  997MOL0     C34471   1.664   1.475  -0.006  0.2911  0.1685  0.2836
  997MOL0     C34472   1.604   1.555  -0.120  0.7422  0.4703 -0.5428
  997MOL0     C34473   1.702   1.559  -0.230 -0.6960 -0.3539 -0.4603
  997MOL0     C34474   1.632   1.655  -0.341  0.2482 -0.6900  0.1504
  997MOL0     C34475   1.660   1.588  -0.473 -0.4152  0.3043  0.5116
  997MOL0     C34476   1.645   1.684  -0.576  0.4970  0.8443 -0.0809
  997MOL0     N34477   1.510   1.738  -0.582  0.0374 -0.6086 -0.2934
  997MOL0     C34478   1.385   1.683  -0.603  0.2424  0.2827 -0.7970
  997MOL0     C34479   1.305   1.775  -0.662  0.3271 -0.2516 -0.9247
  997MOL0     C34480   1.169   1.756  -0.707 -0.1846  0.1114  0.1998
  997MOL0     C34481   1.070   1.825  -0.614 -0.0931  0.1113 -0.0141
  997MOL0     C34482   1.059   1.771  -0.471  0.1523 -0.3362 -0.3679
  997MOL0     C34483   0.915   1.777  -0.437  0.5602  0.2884 -0.2844
  997MOL0     O34484   0.858   1.911  -0.454 -0.5432 -0.1377  0.1345
  997MOL0     C34485   0.722   1.914  -0.486 -0.0715 -0.3800  0.2347
  997MOL0     C34486   0.629   1.804  -0.494  0.0157  0.0626 -0.6895
  997MOL0     C34487   0.494   1.818  -0.551 -1.3549 -0.7960 -0.2742
  997MOL0     C34488   0.416   1.691  -0.574 -0.1855  0.2981  0.6253
  997MOL0     C34489   0.459   1.950  -0.574  0.2683  0.4446 -0.0592
  997MOL0     C34490   0.325   1.986  -0.611  0.5129  0.0590  0.2900
  997MOL0     O34491   0.305   2.097  -0.689  0.1598 -0.6071 -0.6289
  997MOL0     C34492   0.181   2.156  -0.700 -0.5793 -0.4302 -0.1183
  997MOL0     C34493   0.086   2.160  -0.594 -0.3486  0.6125  0.4004
  997MOL0     C34494  -0.034   2.227  -0.607  0.5288 -0.2070 -0.4213
  997MOL0     C34495  -0.057   2.292  -0.735 -0.2009 -0.5163 -0.4965
  997MOL0     O34496  -0.170   2.379  -0.745  0.0576 -0.0717 -0.2726
  997MOL0     C34497  -0.294   2.312  -0.715  0.4223  1.2782  0.3193
  997MOL0     C34498  -0.417   2.373  -0.767  0.1423 -1.2213  0.3910
  997MOL0     C34499  -0.548   2.379  -0.679 -1.3741 -0.5040  1.0853
  997MOL0     C34500  -0.612   2.237  -0.692  0.6320  0.2414 -0.2016
  997MOL0     C34501  -0.747   2.236  -0.619 -0.3839  0.2197 -0.5016
  997MOL0     C34502  -0.820   2.105  -0.630  0.0552 -0.0588  0.2834
  997MOL0     C34503  -0.962   2.105  -0.576 -0.1725  0.7308  0.4384
  997MOL0     C34504  -0.984   2.189  -0.453 -1.2225 -1.0739 -0.3464
  997MOL0    Cl34505  -0.902   2.127  -0.307  0.2572  0.2023 -0.0457
  997MOL0     C34506   0.042   2.297  -0.834 -0.1201 -0.2211  0.1453
  997MOL0     C34507   0.165   2.238  -0.809 -0.3242  0.2662  0.0343
  997MOL0     O34508   0.230   1.924  -0.559 -0.4205  0.0894  0.6400
  997MOL0     C34509   0.541   2.058  -0.557  0.1102 -0.1623 -1.7934
  997MOL0     C34510   0.671   2.041  -0.512 -0.4041 -0.0534 -0.6160
  997MOL0     N34511   1.377   1.891  -0.651 -0.3333 -0.2673 -0.1472
  997MOL0     N34512   1.494   1.873  -0.599 -0.0011 -0.3382  0.5213
  997MOL0     C34513   1.335   1.512   0.462 -0.1617 -0.3637  0.4644
  997MOL0     C34514   1.333   1.450   0.584  0.3091  0.8891  0.3689
  997MOL0     C34515   1.483   1.301   0.989  0.5613 -0.5716  0.0727
  997MOL0     C34516   1.435   1.168   0.983  1.1062  0.5988 -0.0911
  997MOL0     C34517   1.416   1.106   1.103  0.2141  0.4714  0.1257
  997MOL0     C34518   1.460   1.146   1.231  0.1603  0.8079  0.5497
  997MOL0     O34519   1.436   1.058   1.336 -0.1267 -0.4231 -0.5421
  997MOL0     C34520   1.470   1.088   1.474  0.2779 -0.3339  0.7482
  997MOL0     C34521   1.361   1.170   1.539  0.1080  0.0505  0.2211
  997MOL0     C34522   1.356   1.170   1.694 -1.2163 -1.6058  0.4039
  997MOL0     C34523   1.280   1.292   1.737  0.1856  0.4584  0.1569
  997MOL0     C34524   1.248   1.295   1.885  0.8155  0.0744  0.4983
  997MOL0     C34525   1.234   1.309   1.999  0.5554 -0.1891  0.0306
  997MOL0     C34526   1.523   1.270   1.235  0.1218 -0.5602 -0.4863
  997MOL0     C34527   1.537   1.340   1.114 -0.3542  0.6183 -0.0008
  997MOL0     H34528   1.654   1.358   0.625  2.0129  1.8685  0.0844
  997MOL0     H34529   1.679   1.500   0.410  0.0501 -1.6726 -1.9672
  997MOL0     H34530   1.553   1.691   0.121 -0.0698  0.3169  0.3410
  997MOL0     H34531   1.672   1.618   0.240  0.8488  0.9614 -1.8867
  997MOL0     H34532   1.597   1.383   0.173 -0.2859 -0.0520  0.1212
  997MOL0     H34533   1.468   1.463   0.076 -0.5384 -2.2127  1.6595
  997MOL0     H34534   1.765   1.512   0.016  0.4837  0.7061 -1.3761
  997MOL0     H34535   1.680   1.372  -0.040  1.4125  0.1226  0.9035
  997MOL0     H34536   1.521   1.496  -0.161 -2.4149  2.8990  1.7714
  997MOL0     H34537   1.570   1.654  -0.087 -0.8108 -0.8695  2.2576
  997MOL0     H34538   1.787   1.614  -0.189  0.2394 -3.2685  1.8246
  997MOL0     H34539   1.738   1.458  -0.253  1.8522 -0.1237  2.0043
  997MOL0     H34540   1.523   1.661  -0.333  0.4074  2.6800  1.4465
  997MOL0     H34541   1.678   1.754  -0.331  0.5240 -0.7793 -0.2215
  997MOL0     H34542   1.767   1.566  -0.479 -0.2461  0.3428  2.7987
  997MOL0     H34543   1.608   1.496  -0.503  1.3779 -0.8129  0.6813
  997MOL0     H34544   1.661   1.634  -0.671 -0.7660 -1.0092  0.6316
  997MOL0     H34545   1.717   1.764  -0.558  1.5318 -0.2270  0.6810
  997MOL0     H34546   1.369   1.576  -0.600  1.6342  0.0354  2.8402
  997MOL0     H34547   1.159   1.793  -0.810  1.4508 -1.5518 -0.6110
  997MOL0     H34548   1.136   1.652  -0.709  1.2467 -0.8143  5.9832
  997MOL0     H34549   0.973   1.832  -0.664 -1.3406  2.7803  2.4875
  997MOL0     H34550   1.093   1.932  -0.613 -0.3198  0.1603  0.1409
  997MOL0     H34551   1.118   1.825  -0.396 -3.2402  1.2194  1.3741
  997MOL0     H34552   1.089   1.666  -0.483 -2.5086 -1.1993 -0.0587
  997MOL0     H34553   0.904   1.740  -0.335  0.5565  0.6051 -0.1665
  997MOL0     H34554   0.869   1.703  -0.503  1.2173  1.6074 -2.3187
  997MOL0     H34555   0.650   1.698  -0.479  0.8082 -0.4869 -4.6435
  997MOL0     H34556   0.395   1.665  -0.678  2.3661  1.0227 -0.1484
  997MOL0     H34557   0.482   1.613  -0.536  1.7137  2.3589  1.8338
  997MOL0     H34558   0.322   1.704  -0.520 -0.6023  1.8310 -0.3864
  997MOL0     H34559   0.102   2.116  -0.496 -0.7573 -0.9378 -0.1978
  997MOL0     H34560  -0.103   2.234  -0.524  0.1212  0.2603 -0.7897
  997MOL0     H34561  -0.281   2.211  -0.753  0.7197  0.9570  1.2382
  997MOL0     H34562  -0.300   2.294  -0.607  1.3998 -0.3125  0.1357
  997MOL0     H34563  -0.399   2.477  -0.795 -2.2616 -0.8092  0.1446
  997MOL0     H34564  -0.444   2.316  -0.856 -1.2927 -2.4606  1.5665
  997MOL0     H34565  -0.615   2.456  -0.718  0.4552  0.6720  0.1210
  997MOL0     H34566  -0.524   2.398  -0.574  1.7513  1.3899  0.1619
  997MOL0     H34567  -0.614   2.205  -0.797 -2.1463 -0.8960  0.1019
  997MOL0     H34568  -0.551   2.154  -0.655  2.3652  0.2474 -2.7672
  997MOL0     H34569  -0.809   2.320  -0.652 -0.1249 -0.0888 -1.8312
  997MOL0     H34570  -0.730   2.255  -0.513  2.8751 -0.0408 -0.8833
  997MOL0     H34571  -0.826   2.094  -0.739  0.3890  5.9344 -0.6802
  997MOL0     H34572  -0.772   2.019  -0.583 -1.0543 -0.5742  0.5100
  997MOL0     H34573  -0.987   2.000  -0.555 -0.0058  0.4683 -0.5947
  997MOL0     H34574  -1.030   2.147  -0.651 -1.2099  0.8840  1.4406
  997MOL0     H34575  -1.092   2.172  -0.443 -0.8283 -2.6873  1.9028
  997MOL0     H34576  -0.954   2.293  -0.473  0.2342 -0.9124  2.2398
  997MOL0     H34577   0.030   2.365  -0.917  0.5116 -0.9645 -0.5735
  997MOL0     H34578   0.244   2.252  -0.883 -1.5335 -3.3017 -2.1766
  997MOL0     H34579   0.501   2.158  -0.545  1.0694  0.0223  0.3050
  997MOL0     H34580   0.737   2.126  -0.496 -1.6294  1.9750 -5.0033
  997MOL0     H34581   1.242   1.548   0.421 -0.1988 -1.0745 -0.0803
  997MOL0     H34582   1.237   1.439   0.634  0.7919  0.1324  1.1594
  997MOL0     H34583   1.393   1.121   0.895 -2.6168 -0.5846  2.1243
  997MOL0     H34584   1.369   1.008   1.089  0.6912  0.5228 -2.1902
  997MOL0     H34585   1.462   0.990   1.523 -1.7847 -0.3173  0.5266
  997MOL0     H34586   1.573   1.121   1.492  0.9646 -1.3043 -1.1334
  997MOL0     H34587   1.263   1.133   1.506  1.0038 -2.3444  0.0448
  997MOL0     H34588   1.366   1.274   1.505  0.6953 -0.3233 -0.8848
  997MOL0     H34589   1.462   1.164   1.722 -0.5865 -0.4223 -1.5513
  997MOL0     H34590   1.312   1.075   1.727 -1.6579 -1.6190 -0.2013
  997MOL0     H34591   1.184   1.294   1.683 -0.9796  2.0314  2.1432
  997MOL0     H34592   1.333   1.379   1.699  2.7330 -1.2006 -0.3092
  997MOL0     H34593   1.217   1.311   2.104 -0.5396 -1.4561 -0.1033
  997MOL0     H34594   1.557   1.311   1.329 -1.6443  2.1240 -0.9054
  997MOL0     H34595   1.575   1.441   1.128  0.3120  0.0025  3.9879
  998MOL0     O34596  10.043   3.422   9.012  0.2969  0.2303  0.0756
  998MOL0     C34597   9.915   3.409   9.012 -0.2028 -0.2440 -0.1466
  998MOL0     O34598   9.833   3.422   9.123 -0.3413 -0.1424  0.1701
  998MOL0     C34599   9.882   3.442   9.258 -0.1056 -0.2079  0.3040
  998MOL0     C34600   9.822   3.384   9.369  0.2117  0.5050 -0.7235
  998MOL0     C34601   9.849   3.432   9.499  1.0975  0.7945  1.3945
  998MOL0     C34602   9.942   3.533   9.520  0.4580  0.8368  0.7003
  998MOL0     O34603   9.964   3.583   9.641 -1.0603 -0.0824 -1.7060
  998MOL0     C34604  10.101   3.563   9.681 -0.6250 -0.3724 -0.5652
  998MOL0     C34605  10.122   3.629   9.824  0.0311 -0.1866  0.0950
  998MOL0     C34606  10.266   3.633   9.867  0.8223  0.2525  0.6050
  998MOL0     C34607  10.305   3.515   9.953  0.5622 -0.7594 -0.6331
  998MOL0     C34608  10.452   3.509   9.993 -0.4468 -1.3944  0.5635
  998MOL0     C34609  10.489   3.423  10.108 -0.6254  0.7822 -0.9401
  998MOL0     C34610  10.639   3.418  10.157 -0.3041  0.0745  0.4662
  998MOL0     C34611  10.742   3.400  10.032 -0.0286  0.5146  0.4386
  998MOL0     N34612  10.877   3.387  10.067 -0.1898  0.1704 -1.0065
  998MOL0     C34613  10.930   3.269  10.105 -0.6154  0.2294 -0.1520
  998MOL0     C34614  11.055   3.299  10.145  0.3412  0.2680 -0.4400
  998MOL0     C34615  11.140   3.176  10.201  0.4526 -0.1903  0.3163
  998MOL0     C34616  11.289   3.201  10.223  0.0151  0.1098  0.1519
  998MOL0     C34617  11.393   3.211  10.105  0.4388  0.4254  0.9713
  998MOL0     C34618  11.542   3.229  10.161 -0.2547  0.0667 -0.1484
  998MOL0     O34619  11.587   3.101  10.196 -0.1334 -0.4066  0.4348
  998MOL0     C34620  11.712   3.095  10.254  0.2854 -0.1540 -0.4140
  998MOL0     C34621  11.825   3.039  10.195 -0.1814 -0.0753  0.6775
  998MOL0     C34622  11.948   3.005  10.268 -0.3184 -0.5492 -0.2347
  998MOL0     C34623  12.071   2.937  10.202 -0.2026 -0.2009  0.0032
  998MOL0     C34624  11.950   3.019  10.407  0.3875 -0.6007 -0.4761
  998MOL0     C34625  12.065   2.995  10.495  0.1202  0.5685 -0.3181
  998MOL0     O34626  12.035   2.993  10.633 -0.7516 -0.6486  0.1013
  998MOL0     C34627  12.117   2.926  10.716  0.3338 -0.5438  0.5214
  998MOL0     C34628  12.164   2.786  10.700 -0.5932  0.1089 -0.2932
  998MOL0     C34629  12.255   2.729  10.791 -0.0774  0.6939  1.3214
  998MOL0     C34630  12.288   2.798  10.911 -0.8384  0.6507 -0.1194
  998MOL0     O34631  12.385   2.751  10.998  0.2370  1.1363 -0.1156
  998MOL0     C34632  12.458   2.621  10.981 -0.0753 -0.3482 -0.0971
  998MOL0     C34633  12.602   2.641  11.021 -0.4823 -0.2814 -0.2189
  998MOL0     C34634  12.613   2.693  11.166  1.0194  0.5170 -0.1451
  998MOL0     C34635  12.756   2.674  11.232  0.3108 -0.0837 -1.0899
  998MOL0     C34636  12.743   2.700  11.385 -1.0746  0.3317 -0.1376
  998MOL0     C34637  12.843   2.609  11.462 -0.2684  0.8115  0.3894
  998MOL0     C34638  12.856   2.653  11.607  0.2309  0.6367 -1.2793
  998MOL0     C34639  12.990   2.602  11.665 -0.1493  0.5730 -0.4563
  998MOL0    Cl34640  13.032   2.415  11.664  0.3309 -0.2167 -0.2627
  998MOL0     C34641  12.230   2.920  10.935  0.3915  0.3510 -0.9961
  998MOL0     C34642  12.143   2.985  10.843  0.0755 -0.8802 -1.1109
  998MOL0     O34643  12.174   2.995  10.454 -0.4794  0.2882  0.1530
  998MOL0     C34644  11.831   3.081  10.464  0.3652 -0.2245 -0.2117
  998MOL0     C34645  11.720   3.123  10.391  0.4496  1.4013 -0.1136
  998MOL0     N34646  11.077   3.436  10.130 -0.2702  0.2120 -0.2764
  998MOL0     N34647  10.964   3.490  10.091  0.4875  0.3033 -0.1958
  998MOL0     C34648  10.009   3.581   9.404  0.1934 -1.1057 -0.2002
  998MOL0     C34649   9.990   3.534   9.270 -0.9106 -0.1051 -0.1039
  998MOL0     C34650   9.842   3.408   8.883 -0.8485  0.2529  0.2357
  998MOL0     C34651   9.718   3.462   8.874  0.9762  0.0584  0.5176
  998MOL0     C34652   9.640   3.443   8.762  0.9630  0.4198 -0.0108
  998MOL0     C34653   9.703   3.389   8.651  0.1931 -0.0926 -0.5186
  998MOL0     O34654   9.632   3.355   8.539 -0.3365  0.7887 -0.3791
  998MOL0     C34655   9.575   3.218   8.525 -0.7360  0.1268 -0.3021
  998MOL0     C34656   9.429   3.201   8.463  0.0619 -0.7696 -0.0078
  998MOL0     C34657   9.314   3.289   8.531 -0.2070  0.5142 -0.1858
  998MOL0     C34658   9.199   3.202   8.570 -0.7980 -0.2406 -0.5918
  998MOL0     C34659   9.111   3.264   8.659  0.5776  0.8391 -1.1733
  998MOL0     C34660   9.036   3.315   8.738 -0.2390  0.3300  0.7795
  998MOL0     C34661   9.838   3.366   8.655  0.4930  0.2283 -0.1061
  998MOL0     C34662   9.910   3.368   8.772 -0.8148 -0.4257  0.4830
  998MOL0     H34663   9.740   3.315   9.354  1.6051 -1.1543 -1.1287
  998MOL0     H34664   9.797   3.394   9.586  2.4319 -2.4138  0.9159
  998MOL0     H34665  10.127   3.457   9.689 -1.4150 -0.8562 -3.4001
  998MOL0     H34666  10.177   3.618   9.625 -0.8740 -0.6437 -1.1684
  998MOL0     H34667  10.096   3.735   9.817 -0.2061 -0.2770 -0.4223
  998MOL0     H34668  10.061   3.572   9.895 -1.5901 -0.4144 -1.4178
  998MOL0     H34669  10.326   3.622   9.776 -1.8408 -0.6403 -1.1356
  998MOL0     H34670  10.281   3.728   9.919 -2.6749  2.2699 -1.6845
  998MOL0     H34671  10.253   3.536  10.047  1.4902 -0.0467 -0.2632
  998MOL0     H34672  10.275   3.416   9.917 -1.9979 -0.8930  1.5548
  998MOL0     H34673  10.500   3.479   9.899  1.4198  1.2052  0.5711
  998MOL0     H34674  10.477   3.614  10.012 -2.1050 -0.2957 -2.6010
  998MOL0     H34675  10.430   3.463  10.191  0.4241  3.4044 -1.3702
  998MOL0     H34676  10.460   3.320  10.085  1.6580 -0.0599 -0.3888
  998MOL0     H34677  10.651   3.508  10.219 -2.3807  0.6949  0.0623
  998MOL0     H34678  10.660   3.333  10.222  4.6921 -0.4444 -1.3832
  998MOL0     H34679  10.732   3.489   9.969 -0.2757 -0.1935 -0.5518
  998MOL0     H34680  10.713   3.312   9.973 -0.1982  0.3807  0.7202
  998MOL0     H34681  10.883   3.171  10.112 -0.7040  0.2460 -0.4748
  998MOL0     H34682  11.092   3.129  10.287 -0.4462 -2.4902 -1.3333
  998MOL0     H34683  11.134   3.093  10.131  1.7108  0.9296 -1.1923
  998MOL0     H34684  11.335   3.119  10.278  0.4653  0.8639  0.9303
  998MOL0     H34685  11.300   3.286  10.291  2.9093  0.1559 -0.2640
  998MOL0     H34686  11.355   3.295  10.046 -0.5411  0.1945  1.2589
  998MOL0     H34687  11.394   3.125  10.037  2.5223  2.0698 -1.2863
  998MOL0     H34688  11.545   3.307  10.238  1.0286 -0.3736  0.2725
  998MOL0     H34689  11.608   3.265  10.082 -0.4929  3.0817  0.9268
  998MOL0     H34690  11.832   3.007  10.092  1.4867 -3.0598  1.6251
  998MOL0     H34691  12.079   2.835  10.239  1.2647  0.1626  0.7508
  998MOL0     H34692  12.066   2.937  10.093 -1.3036  1.3803  0.0225
  998MOL0     H34693  12.170   2.982  10.215 -0.5609  0.5871  0.0935
  998MOL0     H34694  12.140   2.728  10.612  0.9746  1.6054 -1.7809
  998MOL0     H34695  12.297   2.632  10.770  1.4152  1.7960 -1.3346
  998MOL0     H34696  12.422   2.540  11.046 -0.4976  0.1020  0.2418
  998MOL0     H34697  12.465   2.590  10.876  1.0038  0.6469 -0.3306
  998MOL0     H34698  12.643   2.540  11.009 -2.4091 -1.3785  1.7561
  998MOL0     H34699  12.655   2.711  10.955  0.5492 -0.0297  0.8479
  998MOL0     H34700  12.529   2.648  11.221  1.3932 -1.5527 -1.1639
  998MOL0     H34701  12.601   2.802  11.164 -0.8406  0.4216  1.9110
  998MOL0     H34702  12.789   2.572  11.212  0.4372 -1.0513  3.1258
  998MOL0     H34703  12.830   2.742  11.188 -0.9841  2.1056 -0.0942
  998MOL0     H34704  12.645   2.666  11.419 -2.5275  2.6945 -1.6919
  998MOL0     H34705  12.757   2.803  11.418  1.3393  0.4717 -1.4220
  998MOL0     H34706  12.820   2.503  11.449  3.7441  0.1418 -3.1128
  998MOL0     H34707  12.940   2.620  11.413  0.2363  0.3060  1.2431
  998MOL0     H34708  12.773   2.632  11.675  1.1301  2.1969  0.4048
  998MOL0     H34709  12.877   2.761  11.608  3.4960  0.0956 -1.2759
  998MOL0     H34710  13.010   2.649  11.762  2.9705  0.1760 -0.8054
  998MOL0     H34711  13.067   2.645  11.599 -0.0725  2.7405  0.9398
  998MOL0     H34712  12.231   2.971  11.031 -2.9967  1.1214 -1.2381
  998MOL0     H34713  12.095   3.074  10.882 -0.0652 -0.1846 -2.7924
  998MOL0     H34714  11.816   3.106  10.568  0.5314 -0.3282 -0.1617
  998MOL0     H34715  11.631   3.157  10.442  1.3910  0.6963  2.1823
  998MOL0     H34716  10.075   3.665   9.424 -0.8109 -0.5818  1.0292
  998MOL0     H34717  10.039   3.590   9.191  0.9801 -0.3255  0.8639
  998MOL0     H34718   9.682   3.503   8.968  3.4849  1.3408  1.0096
  998MOL0     H34719   9.534   3.467   8.762  0.2242 -2.1798  3.2186
  998MOL0     H34720   9.645   3.155   8.469  0.5117  1.1130  0.0958
  998MOL0     H34721   9.569   3.176   8.626 -2.3493  0.6767 -0.1481
  998MOL0     H34722   9.413   3.094   8.479  1.6090 -1.2180 -1.2228
  998MOL0     H34723   9.421   3.223   8.356  1.1628 -1.0985 -0.1624
  998MOL0     H34724   9.276   3.366   8.462 -3.5181  2.8253  3.7289
  998MOL0     H34725   9.352   3.344   8.618  0.0999  0.1210 -0.0718
  998MOL0     H34726   9.241   3.132   8.643  1.2067  2.6072  1.2502
  998MOL0     H34727   9.153   3.154   8.484 -0.1350  1.3079 -1.8713
  998MOL0     H34728   8.969   3.361   8.807 -0.2075  1.5520  0.0138
  998MOL0     H34729   9.876   3.341   8.556 -0.3437  1.0727 -0.6544
  998MOL0     H34730  10.011   3.331   8.783 -0.2575  0.8662 -0.0605
  999MOL0     O34731   7.957   0.192   8.713 -0.0516 -0.1517 -0.1874
  999MOL0     C34732   8.055   0.132   8.687 -1.1262 -1.0655 -0.1047
  999MOL0     O34733   8.072   0.053   8.575 -1.0008  0.6766  0.1122
  999MOL0     C34734   7.962   0.030   8.503 -0.1289  0.8523  0.0185
  999MOL0     C34735   7.889  -0.085   8.524 -0.0434  1.0444 -1.1239
  999MOL0     C34736   7.777  -0.109   8.442 -1.2812 -0.3900 -0.2545
  999MOL0     C34737   7.726  -0.014   8.357 -0.7450  0.9604  0.4625
  999MOL0     O34738   7.612  -0.016   8.284  0.3589  0.3711  0.7180
  999MOL0     C34739   7.506  -0.104   8.336 -0.3710 -0.1549 -0.1485
  999MOL0     C34740   7.395  -0.122   8.228 -0.6535  0.2487 -0.7331
  999MOL0     C34741   7.312   0.000   8.190 -0.8061 -0.3610 -0.2673
  999MOL0     C34742   7.222  -0.028   8.068  0.1087 -0.6695 -0.6919
  999MOL0     C34743   7.135   0.092   8.029 -0.6615  0.2080  0.0856
  999MOL0     C34744   7.063   0.069   7.896  0.1664 -0.0386  0.9448
  999MOL0     C34745   6.960   0.189   7.876  0.3024  0.1221 -0.3651
  999MOL0     C34746   6.908   0.212   7.733  0.7468  0.4781 -0.8160
  999MOL0     N34747   7.005   0.253   7.635 -0.0623  0.1750 -0.1945
  999MOL0     C34748   7.134   0.292   7.654  0.9734 -0.6728  0.1406
  999MOL0     C34749   7.175   0.335   7.538  0.1328  0.0040  0.9551
  999MOL0     C34750   7.307   0.403   7.506 -0.2998  0.2866  0.1069
  999MOL0     C34751   7.295   0.554   7.504  0.7399 -0.8480 -0.3029
  999MOL0     C34752   7.410   0.624   7.430 -0.1653 -0.2282  0.7568
  999MOL0     C34753   7.558   0.606   7.482 -0.1630  0.2013  0.0747
  999MOL0     O34754   7.602   0.469   7.468 -0.3780  0.3556  0.0843
  999MOL0     C34755   7.743   0.450   7.495 -0.3275  0.1596 -0.9919
  999MOL0     C34756   7.793   0.342   7.429  0.5651  1.2451  0.6343
  999MOL0     C34757   7.927   0.308   7.412  0.4817 -0.3031  0.1381
  999MOL0     C34758   7.959   0.203   7.314  0.2062 -0.9520 -0.7373
  999MOL0     C34759   8.021   0.379   7.491  0.4997 -0.4032  0.4658
  999MOL0     C34760   8.167   0.340   7.498  0.1491  0.1318  0.5618
  999MOL0     O34761   8.240   0.427   7.572  0.1480 -0.3739  0.7993
  999MOL0     C34762   8.370   0.431   7.586  0.2942  0.0872  0.1872
  999MOL0     C34763   8.456   0.404   7.482 -0.4517 -0.1544 -0.8319
  999MOL0     C34764   8.590   0.412   7.512 -0.2193  0.2957  0.3374
  999MOL0     C34765   8.641   0.458   7.638 -0.1153  1.2663  0.2664
  999MOL0     O34766   8.770   0.475   7.679  0.4301  0.5697 -0.0864
  999MOL0     C34767   8.876   0.411   7.612  0.0322  0.0126 -0.1016
  999MOL0     C34768   8.909   0.288   7.694 -0.6974 -0.0007  0.7834
  999MOL0     C34769   9.014   0.328   7.807  0.7428  0.0814  0.0208
  999MOL0     C34770   9.161   0.325   7.754  0.3085  0.4957 -0.4699
  999MOL0     C34771   9.258   0.358   7.882  0.0552 -0.1451  0.6787
  999MOL0     C34772   9.408   0.344   7.855 -0.0254  0.4932  0.3624
  999MOL0     C34773   9.474   0.346   7.996 -0.3158  0.9945 -0.4595
  999MOL0     C34774   9.622   0.373   7.981  0.2430  0.2846 -0.2033
  999MOL0    Cl34775   9.665   0.536   7.936 -0.0523 -0.1244  0.0130
  999MOL0     C34776   8.550   0.483   7.739 -0.0086  0.9709  0.0158
  999MOL0     C34777   8.412   0.470   7.715 -0.6974  0.0994  0.8785
  999MOL0     O34778   8.218   0.236   7.448  0.1141 -0.2189  0.0743
  999MOL0     C34779   7.973   0.493   7.566  0.0273 -0.1294 -0.9261
  999MOL0     C34780   7.836   0.537   7.556 -0.5537  0.0443  0.4488
  999MOL0     N34781   7.071   0.315   7.443 -0.5735  0.4667 -0.2990
  999MOL0     N34782   6.966   0.278   7.507  0.8225  0.3030  0.1987
  999MOL0     C34783   7.807   0.100   8.330  0.4675  0.6097  0.0610
  999MOL0     C34784   7.929   0.120   8.399 -0.4809  0.5933 -0.0355
  999MOL0     C34785   8.170   0.159   8.778  0.5547 -0.7895 -0.4759
  999MOL0     C34786   8.288   0.093   8.755  0.7518 -0.4245  0.0269
  999MOL0     C34787   8.403   0.122   8.828 -0.0256  0.6019 -0.0329
  999MOL0     C34788   8.410   0.212   8.931 -0.3213  0.3971 -0.0408
  999MOL0     O34789   8.520   0.235   9.013  0.5143  0.0672  0.0886
  999MOL0     C34790   8.542   0.137   9.117 -0.3825 -0.1255  0.6774
  999MOL0     C34791   8.590  -0.002   9.070 -0.1017  0.9690 -0.1413
  999MOL0     C34792   8.711   0.002   8.983 -0.2926 -0.2840  0.1838
  999MOL0     C34793   8.845  -0.026   9.060 -0.2103  0.9605  0.4075
  999MOL0     C34794   8.878   0.077   9.153 -0.0037 -0.8900  0.7838
  999MOL0     C34795   8.908   0.151   9.238 -0.7714 -0.1285 -0.6894
  999MOL0     C34796   8.291   0.274   8.959  0.6298 -0.6219  0.5509
  999MOL0     C34797   8.170   0.256   8.873  0.2878  0.4900 -0.2840
  999MOL0     H34798   7.934  -0.157   8.591 -0.1652  2.8108  0.9480
  999MOL0     H34799   7.718  -0.200   8.452  0.5168 -1.8221 -1.7470
  999MOL0     H34800   7.541  -0.206   8.355 -0.0599  0.0454  0.3867
  999MOL0     H34801   7.463  -0.071   8.430 -3.2427  0.0956 -1.4595
  999MOL0     H34802   7.449  -0.143   8.135  0.1668  0.3134 -0.2882
  999MOL0     H34803   7.327  -0.203   8.255  0.3073 -0.1764  0.5267
  999MOL0     H34804   7.254   0.040   8.274 -1.6447 -0.5852 -0.7314
  999MOL0     H34805   7.378   0.086   8.174 -3.1820  1.3025 -1.8375
  999MOL0     H34806   7.271  -0.068   7.979 -1.6285  0.5071 -2.2201
  999MOL0     H34807   7.168  -0.117   8.103  0.0913 -0.2528  0.4015
  999MOL0     H34808   7.060   0.106   8.108 -2.4093 -2.6056 -0.9531
  999MOL0     H34809   7.200   0.180   8.026  0.1809 -0.2904  2.0567
  999MOL0     H34810   7.137   0.052   7.818 -0.3468  1.6910  0.0327
  999MOL0     H34811   7.004  -0.023   7.897 -2.9134  1.7361 -0.5150
  999MOL0     H34812   6.874   0.171   7.940  0.2530  2.6209  0.3891
  999MOL0     H34813   7.013   0.279   7.910  3.6127 -2.2042  1.1399
  999MOL0     H34814   6.839   0.295   7.748  0.0078 -0.4131  0.9402
  999MOL0     H34815   6.863   0.118   7.699  1.4877  0.7369 -2.6358
  999MOL0     H34816   7.193   0.297   7.745  2.1342 -1.4813 -0.5439
  999MOL0     H34817   7.374   0.373   7.586  0.8548 -0.1765 -1.0084
  999MOL0     H34818   7.357   0.365   7.417  0.3050 -1.3691  1.1217
  999MOL0     H34819   7.285   0.586   7.608 -0.7580 -1.3723 -0.2638
  999MOL0     H34820   7.201   0.581   7.454 -1.4567 -2.3008  2.7152
  999MOL0     H34821   7.398   0.732   7.418 -0.0523 -0.4514 -2.0864
  999MOL0     H34822   7.414   0.601   7.323  2.2393 -1.9625  1.1230
  999MOL0     H34823   7.562   0.637   7.587 -1.7281 -0.9926  0.5226
  999MOL0     H34824   7.637   0.657   7.425 -2.1571 -0.4891 -3.5769
  999MOL0     H34825   7.708   0.301   7.376  0.0465  0.8687  1.7317
  999MOL0     H34826   8.057   0.230   7.274  0.4977 -2.8355 -1.4337
  999MOL0     H34827   7.952   0.099   7.347 -1.4906 -0.8533 -0.6576
  999MOL0     H34828   7.888   0.198   7.231 -0.5411 -3.1529 -0.0418
  999MOL0     H34829   8.424   0.387   7.380  2.6896  2.8821 -2.5236
  999MOL0     H34830   8.654   0.393   7.427 -2.2246  0.2796 -1.2374
  999MOL0     H34831   8.857   0.392   7.506 -2.9715 -4.5031  0.9639
  999MOL0     H34832   8.967   0.472   7.614  1.7018 -2.1747 -2.3293
  999MOL0     H34833   8.817   0.246   7.736  1.7021 -5.6688  1.2818
  999MOL0     H34834   8.948   0.207   7.631 -0.8345  0.9757 -0.6158
  999MOL0     H34835   8.988   0.259   7.887 -1.4848  0.1568 -0.5768
  999MOL0     H34836   8.994   0.428   7.848  3.7929 -0.3700  3.0430
  999MOL0     H34837   9.172   0.225   7.710  0.3111  0.4924 -0.4615
  999MOL0     H34838   9.188   0.393   7.672  0.1688  1.0472 -0.0617
  999MOL0     H34839   9.229   0.294   7.966  0.0419  0.7505  1.3673
  999MOL0     H34840   9.234   0.461   7.907  0.2682 -0.6638  3.3639
  999MOL0     H34841   9.430   0.252   7.800  0.0038  0.3670  0.5835
  999MOL0     H34842   9.452   0.424   7.794  1.3197 -0.4701  0.0268
  999MOL0     H34843   9.473   0.246   8.042  0.1543  0.9566 -0.5254
  999MOL0     H34844   9.442   0.408   8.080  0.7466 -0.1842  0.8654
  999MOL0     H34845   9.634   0.299   7.901 -2.5977  0.7202 -1.1167
  999MOL0     H34846   9.676   0.338   8.070 -0.5017  1.1327  0.5983
  999MOL0     H34847   8.597   0.517   7.831  2.1142 -0.3877 -0.4970
  999MOL0     H34848   8.347   0.496   7.798 -1.8165 -0.1458  0.0931
  999MOL0     H34849   8.028   0.561   7.630 -2.4217 -1.3554  2.8033
  999MOL0     H34850   7.783   0.611   7.615 -2.5695 -0.2656 -0.8698
  999MOL0     H34851   7.787   0.174   8.253 -0.3892  0.1579 -0.1661
  999MOL0     H34852   7.993   0.205   8.377 -0.2228  0.5576  0.5802
  999MOL0     H34853   8.289   0.011   8.685  3.5369 -0.3526 -0.1382
  999MOL0     H34854   8.490   0.060   8.808  0.0424  1.3969 -2.6060
  999MOL0     H34855   8.614   0.182   9.186 -0.4984 -2.3747  2.3669
  999MOL0     H34856   8.449   0.133   9.175  0.5238 -2.9118  2.1299
  999MOL0     H34857   8.507  -0.068   9.044  1.6857 -2.0398  1.2538
  999MOL0     H34858   8.626  -0.040   9.167  0.5017  0.2757 -0.6293
  999MOL0     H34859   8.712   0.097   8.928  1.7643 -0.9510 -1.0471
  999MOL0     H34860   8.704  -0.086   8.919  1.1071 -1.4476  1.5575
  999MOL0     H34861   8.915  -0.043   8.978 -0.8385 -2.8303  0.4879
  999MOL0     H34862   8.841  -0.125   9.107 -0.7640  1.0413  0.5412
  999MOL0     H34863   8.949   0.204   9.321 -0.7189 -0.1954 -0.6726
  999MOL0     H34864   8.291   0.346   9.040 -0.0931  1.4429 -1.1947
  999MOL0     H34865   8.082   0.307   8.909 -0.2957 -0.3923 -0.4190
 1000MOL0     O34866   3.686   8.760   9.052 -0.2545 -0.8474 -0.5189
 1000MOL0     C34867   3.765   8.667   9.042  0.5966 -0.3810  0.4757
 1000MOL0     O34868   3.773   8.559   9.130 -0.1466 -0.5825 -0.2984
 1000MOL0     C34869   3.706   8.551   9.252 -0.7157  0.1132  0.1617
 1000MOL0     C34870   3.646   8.652   9.329  0.0193 -0.3447 -0.7072
 1000MOL0     C34871   3.607   8.631   9.468  0.9669 -0.8632  0.1685
 1000MOL0     C34872   3.626   8.503   9.516  0.2846 -0.9862 -0.8128
 1000MOL0     O34873   3.602   8.494   9.649  0.1025 -0.2109 -0.3600
 1000MOL0     C34874   3.640   8.372   9.722  0.2497 -0.3094  0.1298
 1000MOL0     C34875   3.622   8.379   9.868  0.3219 -0.3330 -0.4034
 1000MOL0     C34876   3.731   8.447   9.957  0.6369 -0.2566  0.4799
 1000MOL0     C34877   3.844   8.523   9.888 -0.4743 -0.9429  0.6429
 1000MOL0     C34878   3.956   8.549   9.997 -0.0607  0.2052 -0.4240
 1000MOL0     C34879   4.067   8.649   9.963  0.5646  0.5285  0.5311
 1000MOL0     C34880   4.189   8.640  10.051 -0.0604  0.8452 -0.0907
 1000MOL0     C34881   4.277   8.525  10.003  0.4604  0.0608  0.1789
 1000MOL0     N34882   4.381   8.494  10.114  0.2192 -0.5000  0.8778
 1000MOL0     C34883   4.348   8.409  10.217  0.2521  0.2974 -0.5935
 1000MOL0     C34884   4.464   8.416  10.295 -0.0828 -0.4733  0.1802
 1000MOL0     C34885   4.487   8.337  10.422 -0.3623  1.0010  1.2692
 1000MOL0     C34886   4.505   8.407  10.559  0.1877 -0.7156 -0.0349
 1000MOL0     C34887   4.617   8.513  10.564  1.4122 -0.6127 -0.3638
 1000MOL0     C34888   4.641   8.551  10.704 -0.4107  0.1494 -0.4257
 1000MOL0     O34889   4.521   8.596  10.769  0.8109 -0.6759 -0.4927
 1000MOL0     C34890   4.528   8.646  10.893  0.2540  0.0532  0.2831
 1000MOL0     C34891   4.580   8.554  10.989  0.3920 -0.7618  0.4267
 1000MOL0     C34892   4.594   8.587  11.129 -0.6574  0.0671 -0.4537
 1000MOL0     C34893   4.656   8.482  11.224  0.6125  0.2906  0.2626
 1000MOL0     C34894   4.560   8.725  11.175 -0.7134  0.3807  0.1447
 1000MOL0     C34895   4.558   8.773  11.310  0.9020 -0.0497  0.2139
 1000MOL0     O34896   4.543   8.910  11.319  0.8707 -0.3240  0.1251
 1000MOL0     C34897   4.532   8.977  11.443  0.1713 -0.6695  0.6468
 1000MOL0     C34898   4.636   8.978  11.537  0.2408  0.6975 -1.1599
 1000MOL0     C34899   4.626   9.049  11.661  0.5900 -0.3289 -0.6214
 1000MOL0     C34900   4.514   9.127  11.689  1.1760  0.3172 -0.2283
 1000MOL0     O34901   4.514   9.199  11.817  0.3457  0.7603 -0.1497
 1000MOL0     C34902   4.404   9.286  11.842  0.4613 -0.1808  0.4204
 1000MOL0     C34903   4.444   9.375  11.954 -0.4013  0.1527 -0.2072
 1000MOL0     C34904   4.338   9.487  11.990 -0.3036 -0.1220  0.8223
 1000MOL0     C34905   4.397   9.629  11.990  0.8979 -0.1194 -0.2271
 1000MOL0     C34906   4.497   9.654  12.103 -0.0360  0.4990 -0.3131
 1000MOL0     C34907   4.588   9.776  12.092  0.3605 -1.0129  0.1365
 1000MOL0     C34908   4.508   9.913  12.118  0.0456 -0.7795  0.3126
 1000MOL0     C34909   4.583  10.007  12.216  0.0386  0.3558  0.6133
 1000MOL0    Cl34910   4.730  10.068  12.132  0.2000 -0.1406  0.6490
 1000MOL0     C34911   4.411   9.125  11.591  0.4514 -0.9820  0.2520
 1000MOL0     C34912   4.417   9.042  11.473 -0.6325 -0.1573 -0.9304
 1000MOL0     O34913   4.559   8.694  11.401  0.4984  0.6085 -0.4270
 1000MOL0     C34914   4.501   8.808  11.074  0.0232 -0.4605 -0.2906
 1000MOL0     C34915   4.494   8.774  10.940  0.9911  0.7728 -0.3803
 1000MOL0     N34916   4.556   8.501  10.223  0.4531 -0.3249 -0.3949
 1000MOL0     N34917   4.497   8.555  10.124  0.5858  0.3502 -0.1182
 1000MOL0     C34918   3.683   8.398   9.441  1.1027 -1.1090 -0.4630
 1000MOL0     C34919   3.714   8.421   9.305 -0.2125  0.3113 -0.6263
 1000MOL0     C34920   3.838   8.672   8.918 -0.2970  0.2954 -0.0998
 1000MOL0     C34921   3.891   8.557   8.843 -0.3431 -0.0672 -0.2292
 1000MOL0     C34922   3.943   8.569   8.707 -0.8684  0.8915 -0.1280
 1000MOL0     C34923   3.936   8.690   8.644 -0.5214 -0.2318  0.1318
 1000MOL0     O34924   3.980   8.691   8.517 -0.4849 -0.3630  0.1610
 1000MOL0     C34925   3.992   8.821   8.456  0.1584  0.0494 -0.2332
 1000MOL0     C34926   3.869   8.876   8.389  0.6256 -0.3475 -0.0737
 1000MOL0     C34927   3.831   8.804   8.258  0.4183 -0.2501 -0.4907
 1000MOL0     C34928   3.681   8.800   8.256 -0.1790 -0.2905  0.2687
 1000MOL0     C34929   3.649   8.713   8.139  0.3749 -0.2910 -0.5166
 1000MOL0     C34930   3.629   8.639   8.045  0.5029  0.1433 -0.1728
 1000MOL0     C34931   3.891   8.809   8.718 -0.4602  1.1020  0.4312
 1000MOL0     C34932   3.851   8.796   8.847  0.2220  0.7468 -0.1167
 1000MOL0     H34933   3.633   8.750   9.284 -0.3404  0.4759  1.1154
 1000MOL0     H34934   3.561   8.722   9.506 -3.6589  0.4295 -6.6077
 1000MOL0     H34935   3.581   8.291   9.679  1.3657 -1.0982  0.0326
 1000MOL0     H34936   3.742   8.337   9.702  1.0810  0.5174  2.4809
 1000MOL0     H34937   3.523   8.424   9.878  0.6128  0.1197  0.5769
 1000MOL0     H34938   3.621   8.277   9.907  2.9748 -0.7291 -1.1957
 1000MOL0     H34939   3.679   8.523  10.017 -2.3134  3.4268 -5.7316
 1000MOL0     H34940   3.779   8.368  10.015  3.3928  2.8619  2.8721
 1000MOL0     H34941   3.893   8.460   9.813 -0.3368 -1.9912  1.5789
 1000MOL0     H34942   3.810   8.621   9.852  2.2907 -0.4446 -0.8942
 1000MOL0     H34943   3.910   8.585  10.089  2.0184 -0.3450  0.9048
 1000MOL0     H34944   3.993   8.448  10.017 -2.4720 -0.3576  1.7531
 1000MOL0     H34945   4.090   8.640   9.856  0.4959  0.0665  0.5553
 1000MOL0     H34946   4.028   8.750   9.977  1.8554  1.5136 -2.1536
 1000MOL0     H34947   4.243   8.735  10.058 -0.6640  1.2301 -0.5212
 1000MOL0     H34948   4.165   8.622  10.156  5.1341  1.2899  1.4834
 1000MOL0     H34949   4.318   8.575   9.915 -1.7056  1.8988  0.1084
 1000MOL0     H34950   4.227   8.431   9.978 -0.7514  0.3133  1.4843
 1000MOL0     H34951   4.259   8.347  10.215  1.1473 -1.0363 -0.0490
 1000MOL0     H34952   4.412   8.258  10.423  1.3191 -0.8534 -1.5444
 1000MOL0     H34953   4.574   8.274  10.400 -1.2082  0.6790 -1.5332
 1000MOL0     H34954   4.508   8.320  10.625 -2.5815 -0.0108  1.1402
 1000MOL0     H34955   4.416   8.460  10.591  1.0583 -0.1612  1.5574
 1000MOL0     H34956   4.579   8.607  10.522 -0.2970 -0.1324  2.0461
 1000MOL0     H34957   4.711   8.474  10.525  2.5888  2.5143 -0.8940
 1000MOL0     H34958   4.715   8.631  10.694 -1.1361  1.3264  2.4733
 1000MOL0     H34959   4.690   8.476  10.767 -2.3646  1.4939  2.9509
 1000MOL0     H34960   4.595   8.452  10.956 -0.9054 -0.5514 -0.9209
 1000MOL0     H34961   4.703   8.398  11.171 -1.3863 -0.3188 -0.6620
 1000MOL0     H34962   4.740   8.519  11.284  1.1434  0.3008 -0.4759
 1000MOL0     H34963   4.580   8.439  11.290  0.6120 -3.4224 -1.8722
 1000MOL0     H34964   4.730   8.925  11.523 -1.9221 -4.3745  0.9975
 1000MOL0     H34965   4.709   9.062  11.729  1.5589 -1.1539 -1.6163
 1000MOL0     H34966   4.376   9.338  11.751 -3.9958 -0.7468  1.2186
 1000MOL0     H34967   4.323   9.215  11.866  1.3805 -1.8144 -1.0851
 1000MOL0     H34968   4.461   9.306  12.037 -1.6884  1.2214  1.0036
 1000MOL0     H34969   4.536   9.429  11.929 -0.7428  1.1929  0.6773
 1000MOL0     H34970   4.294   9.464  12.087 -5.1857  0.2182 -1.0695
 1000MOL0     H34971   4.255   9.470  11.922 -0.3784  0.4558  0.7597
 1000MOL0     H34972   4.443   9.658  11.896  1.5610  3.5442  1.0805
 1000MOL0     H34973   4.318   9.696  12.024  2.6272  1.9096  0.0230
 1000MOL0     H34974   4.568   9.571  12.113 -0.5382  0.3451  3.3114
 1000MOL0     H34975   4.444   9.667  12.197 -2.9009  0.1892 -1.7718
 1000MOL0     H34976   4.667   9.761  12.166  1.0815 -0.9051 -0.5933
 1000MOL0     H34977   4.632   9.780  11.992 -0.3150 -1.7672 -0.2025
 1000MOL0     H34978   4.408   9.897  12.158  0.7827 -0.1275  2.5897
 1000MOL0     H34979   4.508   9.966  12.022 -0.6321 -0.9435  0.2231
 1000MOL0     H34980   4.611   9.955  12.307  1.2292  0.4519  0.3157
 1000MOL0     H34981   4.525  10.093  12.252  2.5136  1.5794  1.9273
 1000MOL0     H34982   4.319   9.177  11.614  1.7656  2.0848 -0.9040
 1000MOL0     H34983   4.337   9.042  11.399  0.4969 -4.0887 -2.3893
 1000MOL0     H34984   4.464   8.910  11.082 -1.9320 -1.0311 -1.3273
 1000MOL0     H34985   4.460   8.850  10.871  0.1027 -1.3420 -2.4369
 1000MOL0     H34986   3.702   8.304   9.493 -0.4618 -0.8248  0.7022
 1000MOL0     H34987   3.760   8.337   9.255  0.6021  1.0835 -1.2024
 1000MOL0     H34988   3.885   8.453   8.870 -0.1317 -0.0677 -0.1830
 1000MOL0     H34989   3.995   8.488   8.656 -1.8288  0.3788 -0.3188
 1000MOL0     H34990   4.042   8.890   8.524 -4.6855  0.2584  3.6693
 1000MOL0     H34991   4.069   8.813   8.378  0.9503  1.3842  0.3869
 1000MOL0     H34992   3.882   8.981   8.364  0.5292 -0.1401  0.7238
 1000MOL0     H34993   3.787   8.871   8.462  1.5636 -1.1992  0.9648
 1000MOL0     H34994   3.879   8.706   8.250 -1.8833 -1.5120  0.3937
 1000MOL0     H34995   3.871   8.853   8.169  1.3398  0.4760  0.2947
 1000MOL0     H34996   3.645   8.902   8.236 -1.0558 -0.8669 -1.2409
 1000MOL0     H34997   3.635   8.762   8.347 -0.4601 -2.8149 -0.8603
 1000MOL0     H34998   3.617   8.563   7.970  0.6060  1.5805 -1.6987
 1000MOL0     H34999   3.900   8.909   8.679 -0.2506  0.9092 -0.0213
 1000MOL0     H35000   3.817   8.887   8.896  0.4029  2.3897 -2.8067
 1001MOL0     O35001   6.593   3.641   9.093 -0.8924 -0.5407 -0.1652
 1001MOL0     C35002   6.495   3.628   9.015 -0.4440 -1.6214 -0.1009
 1001MOL0     O35003   6.374   3.687   9.029 -0.5054  0.7847  0.2205
 1001MOL0     C35004   6.327   3.755   9.144  0.0491 -0.5245  0.6003
 1001MOL0     C35005   6.185   3.772   9.135 -0.6652  0.2715  0.0455
 1001MOL0     C35006   6.125   3.830   9.240  0.0606  0.3423  0.0092
 1001MOL0     C35007   6.188   3.858   9.359 -0.6735  0.2681 -0.4770
 1001MOL0     O35008   6.111   3.900   9.464 -0.0300  0.7622 -0.3792
 1001MOL0     C35009   6.145   3.864   9.601  0.6710  0.0931  0.6301
 1001MOL0     C35010   6.060   3.948   9.698 -0.6165 -0.2808  0.2571
 1001MOL0     C35011   6.116   3.911   9.835  0.3937  0.3770  0.3490
 1001MOL0     C35012   6.030   3.979   9.937  0.2844 -0.0327  0.5223
 1001MOL0     C35013   6.031   3.905  10.084 -0.6989  0.1481  0.8813
 1001MOL0     C35014   5.970   3.766  10.091  0.5065 -0.3327  0.2167
 1001MOL0     C35015   5.949   3.730  10.237  0.7700  0.0123 -0.0517
 1001MOL0     C35016   5.887   3.583  10.248 -0.1029 -0.3864  1.0026
 1001MOL0     N35017   5.996   3.483  10.226 -0.4037 -0.4720 -0.4011
 1001MOL0     C35018   6.085   3.435  10.322 -0.2931 -0.4890  0.6004
 1001MOL0     C35019   6.167   3.349  10.246  0.3378  0.5381  0.0970
 1001MOL0     C35020   6.281   3.274  10.308  0.6303  0.0098  0.0262
 1001MOL0     C35021   6.261   3.121  10.298 -0.7259 -0.0938 -0.2045
 1001MOL0     C35022   6.158   3.071  10.397 -0.5923 -0.4478 -0.5548
 1001MOL0     C35023   6.187   3.103  10.545 -0.1530 -0.4004 -0.2962
 1001MOL0     O35024   6.085   3.172  10.611  0.1007  0.2531 -0.6801
 1001MOL0     C35025   6.114   3.201  10.743  0.3961 -0.1396  0.7278
 1001MOL0     C35026   5.997   3.217  10.818  0.0380 -1.1012 -0.5499
 1001MOL0     C35027   5.990   3.240  10.954  0.2376  0.0152  0.7864
 1001MOL0     C35028   5.850   3.247  11.014  0.4707 -0.3196  0.4860
 1001MOL0     C35029   6.113   3.253  11.020 -0.4393 -0.0235 -1.1114
 1001MOL0     C35030   6.113   3.277  11.170 -1.1586 -0.4702 -0.2230
 1001MOL0     O35031   6.237   3.315  11.220 -0.6618  0.5974  0.7995
 1001MOL0     C35032   6.262   3.347  11.344 -0.1398  0.2829 -0.6293
 1001MOL0     C35033   6.198   3.285  11.453 -0.6347  0.2512  0.1374
 1001MOL0     C35034   6.208   3.328  11.585  0.4993 -1.2833  0.1813
 1001MOL0     C35035   6.308   3.426  11.609 -0.7270  0.8587 -0.0730
 1001MOL0     O35036   6.329   3.479  11.730 -0.6596 -0.2394  0.4684
 1001MOL0     C35037   6.212   3.542  11.782  0.1641  0.3156 -0.4942
 1001MOL0     C35038   6.164   3.669  11.729  0.0985 -0.3490  0.2868
 1001MOL0     C35039   6.246   3.786  11.787 -0.3930 -0.5426 -0.0696
 1001MOL0     C35040   6.199   3.918  11.724 -0.2850 -0.2035  0.2370
 1001MOL0     C35041   6.270   4.054  11.770 -0.1364  0.3933 -0.1029
 1001MOL0     C35042   6.201   4.176  11.709  0.4814 -0.0216  0.3080
 1001MOL0     C35043   6.242   4.302  11.786  0.5359 -0.0586  0.6012
 1001MOL0     C35044   6.196   4.432  11.720 -0.2354 -0.4917  0.0713
 1001MOL0    Cl35045   6.268   4.457  11.567 -0.0757 -0.4221  0.1934
 1001MOL0     C35046   6.392   3.475  11.510  0.2902 -1.0582 -0.8698
 1001MOL0     C35047   6.363   3.427  11.383  0.1407 -0.1103  0.6570
 1001MOL0     O35048   6.018   3.243  11.233  0.5053 -0.0485  0.2568
 1001MOL0     C35049   6.236   3.227  10.943 -0.3878  0.3142 -0.3722
 1001MOL0     C35050   6.239   3.200  10.808  0.5436 -0.1908  0.6718
 1001MOL0     N35051   6.132   3.357  10.111 -0.8736  0.5570 -0.7450
 1001MOL0     N35052   6.041   3.441  10.102 -0.5257 -0.4807  0.8399
 1001MOL0     C35053   6.325   3.828   9.367 -0.2923  0.3030  0.3534
 1001MOL0     C35054   6.389   3.778   9.261  0.4216 -0.5338 -0.6030
 1001MOL0     C35055   6.522   3.536   8.905 -0.0238  0.2282  0.2018
 1001MOL0     C35056   6.414   3.489   8.814  0.3130 -1.1189 -0.7059
 1001MOL0     C35057   6.452   3.408   8.706  0.5474  0.7275 -0.4910
 1001MOL0     C35058   6.582   3.365   8.687 -0.2000  0.1077  0.4083
 1001MOL0     O35059   6.616   3.274   8.594  0.0487  0.2705 -0.1324
 1001MOL0     C35060   6.528   3.161   8.574 -0.0036 -0.3722  0.8544
 1001MOL0     C35061   6.548   3.129   8.425  0.4957 -0.5010 -0.6505
 1001MOL0     C35062   6.479   3.211   8.318 -0.2179 -0.3223  1.0690
 1001MOL0     C35063   6.520   3.180   8.176  1.1252  0.2507  0.1638
 1001MOL0     C35064   6.494   3.040   8.151 -0.3035  0.6049  0.1050
 1001MOL0     C35065   6.474   2.927   8.110 -0.1122  0.0338  0.1772
 1001MOL0     C35066   6.680   3.419   8.774 -0.5747 -0.3553  0.6630
 1001MOL0     C35067   6.656   3.502   8.882  0.2809  0.6366  0.4207
 1001MOL0     H35068   6.120   3.748   9.052  1.3950 -1.8198 -1.0728
 1001MOL0     H35069   6.023   3.865   9.238 -1.1706 -2.7184  2.1053
 1001MOL0     H35070   6.127   3.757   9.620  2.9328 -0.1531  1.7976
 1001MOL0     H35071   6.252   3.877   9.616  1.0597 -1.9793  0.0466
 1001MOL0     H35072   6.080   4.055   9.685  2.8192 -0.5062  2.2094
 1001MOL0     H35073   5.954   3.923   9.693 -0.8543 -1.5093  5.6028
 1001MOL0     H35074   6.125   3.803   9.843  1.7025  0.3413 -1.1040
 1001MOL0     H35075   6.217   3.950   9.848  1.5772 -2.8830  1.8144
 1001MOL0     H35076   6.063   4.081   9.956 -1.4582  0.2775  2.1920
 1001MOL0     H35077   5.926   3.975   9.903  0.3862 -2.8554  0.3400
 1001MOL0     H35078   6.127   3.910  10.136  0.5675  1.6455 -1.4493
 1001MOL0     H35079   5.967   3.972  10.141 -3.8421 -3.3138  1.8225
 1001MOL0     H35080   5.875   3.749  10.040  0.5768 -1.6822  0.4891
 1001MOL0     H35081   6.049   3.705  10.044  1.4184  0.4473  0.7100
 1001MOL0     H35082   6.039   3.752  10.294 -1.1475 -0.0694  3.3202
 1001MOL0     H35083   5.876   3.795  10.287  0.8277  0.4599 -0.5327
 1001MOL0     H35084   5.801   3.572  10.182  0.3167 -2.8023  0.7467
 1001MOL0     H35085   5.856   3.566  10.351  0.4418 -1.7595  0.9720
 1001MOL0     H35086   6.098   3.476  10.421 -2.6702  1.9219  0.0482
 1001MOL0     H35087   6.371   3.297  10.249  0.3460  2.4761  0.4667
 1001MOL0     H35088   6.300   3.297  10.413  0.3453  1.0324 -0.1338
 1001MOL0     H35089   6.362   3.080  10.307  0.9394  3.8570  1.3188
 1001MOL0     H35090   6.225   3.104  10.196 -1.1560  4.4543 -1.0081
 1001MOL0     H35091   6.139   2.964  10.386  0.0102 -0.6905  0.6139
 1001MOL0     H35092   6.069   3.129  10.372  2.1094  2.5894 -4.3719
 1001MOL0     H35093   6.282   3.156  10.552 -0.9600  1.0998 -0.3468
 1001MOL0     H35094   6.199   3.003  10.588  0.3806  0.5701  1.9733
 1001MOL0     H35095   5.900   3.218  10.768 -0.8961  1.6405  1.1086
 1001MOL0     H35096   5.846   3.339  11.074  0.1709 -1.5386  2.3984
 1001MOL0     H35097   5.769   3.248  10.941 -0.4492 -1.6891  1.4518
 1001MOL0     H35098   5.834   3.157  11.074 -0.8439 -0.5422 -0.1715
 1001MOL0     H35099   6.121   3.210  11.439 -2.0436  1.3872  1.3901
 1001MOL0     H35100   6.137   3.295  11.661  1.3956 -0.0929  1.5684
 1001MOL0     H35101   6.125   3.477  11.799  0.9143 -0.3192  1.2039
 1001MOL0     H35102   6.246   3.548  11.886 -0.4715 -2.8611  0.0056
 1001MOL0     H35103   6.175   3.672  11.620 -0.4608  1.4813  0.2466
 1001MOL0     H35104   6.059   3.679  11.760 -0.5341 -0.2754 -1.7238
 1001MOL0     H35105   6.352   3.786  11.760 -0.3274  1.0272  0.0925
 1001MOL0     H35106   6.230   3.782  11.895 -3.5248 -0.0086 -0.4011
 1001MOL0     H35107   6.199   3.914  11.615  0.6421  2.0269  0.0991
 1001MOL0     H35108   6.093   3.922  11.752 -0.3037  0.5879  0.0707
 1001MOL0     H35109   6.375   4.048  11.740  0.2103 -0.3445  1.1740
 1001MOL0     H35110   6.276   4.060  11.879  0.3545  0.8115 -0.1533
 1001MOL0     H35111   6.241   4.174  11.607 -0.0573 -0.0243  0.0917
 1001MOL0     H35112   6.093   4.160  11.702  0.2316  1.0416  1.3575
 1001MOL0     H35113   6.351   4.299  11.795  0.8988  3.0192 -1.0774
 1001MOL0     H35114   6.205   4.285  11.887  1.4570 -3.0662  0.5288
 1001MOL0     H35115   6.229   4.513  11.787  0.5991 -0.9419  0.2201
 1001MOL0     H35116   6.088   4.449  11.717  0.0473  1.9395  0.7787
 1001MOL0     H35117   6.474   3.538  11.540 -0.9324  0.9184 -1.4981
 1001MOL0     H35118   6.422   3.447  11.294  0.2550  0.1532  0.7906
 1001MOL0     H35119   6.329   3.224  10.999 -0.9714 -1.3118  0.5517
 1001MOL0     H35120   6.334   3.181  10.760 -0.0503  0.7544 -0.9519
 1001MOL0     H35121   6.374   3.840   9.463 -0.7653  0.9115  0.5248
 1001MOL0     H35122   6.492   3.746   9.278  0.7219  1.2953  1.4322
 1001MOL0     H35123   6.317   3.529   8.840  1.6892  1.8620  0.3867
 1001MOL0     H35124   6.367   3.384   8.642 -0.8176  2.1135  0.7250
 1001MOL0     H35125   6.562   3.074   8.631 -1.9430 -1.8417 -0.1201
 1001MOL0     H35126   6.422   3.179   8.595 -1.4920 -3.1519 -3.0235
 1001MOL0     H35127   6.507   3.029   8.406 -2.2123  0.7641 -2.1179
 1001MOL0     H35128   6.655   3.132   8.405  0.8577 -0.9554  1.1050
 1001MOL0     H35129   6.495   3.319   8.324  2.1766 -0.3012 -2.4778
 1001MOL0     H35130   6.372   3.189   8.326 -0.6064  0.7846 -0.5879
 1001MOL0     H35131   6.628   3.199   8.173  1.1863  0.7756  2.8178
 1001MOL0     H35132   6.457   3.236   8.106  2.8192  0.0850 -1.5645
 1001MOL0     H35133   6.462   2.823   8.091  1.1613 -0.2120  0.6050
 1001MOL0     H35134   6.781   3.383   8.755 -1.0136 -1.8270  0.9726
 1001MOL0     H35135   6.735   3.545   8.942 -0.8586 -0.6281  3.0016
 1002MOL0     O35136   4.306   0.187  10.314  0.1118 -0.2534  0.0918
 1002MOL0     C35137   4.384   0.232  10.394 -0.9182 -1.3439  0.5832
 1002MOL0     O35138   4.376   0.367  10.434  0.2950 -0.5301  0.8561
 1002MOL0     C35139   4.255   0.413  10.479  0.7368 -0.3644 -0.4354
 1002MOL0     C35140   4.240   0.548  10.498 -0.0545  0.0191 -0.1860
 1002MOL0     C35141   4.123   0.608  10.558 -0.2398  0.5363  0.5440
 1002MOL0     C35142   4.034   0.525  10.617 -0.3811 -0.2785  0.1327
 1002MOL0     O35143   3.927   0.560  10.694 -0.1627  0.9282  0.1911
 1002MOL0     C35144   3.922   0.671  10.771  0.2758 -0.3097  0.5050
 1002MOL0     C35145   3.802   0.660  10.860  0.3010 -0.4854 -0.0467
 1002MOL0     C35146   3.829   0.745  10.982 -0.3729 -0.2087  0.0751
 1002MOL0     C35147   3.869   0.660  11.100 -0.3072 -0.1760  0.3918
 1002MOL0     C35148   3.899   0.742  11.227  0.1662  1.6699 -0.6207
 1002MOL0     C35149   3.943   0.644  11.348 -0.1694  0.2303  0.9176
 1002MOL0     C35150   3.886   0.696  11.486 -0.6819 -0.2845 -0.2861
 1002MOL0     C35151   3.979   0.652  11.596 -0.4378  0.2614 -1.1036
 1002MOL0     N35152   3.932   0.722  11.720 -0.0282  0.1532 -0.4836
 1002MOL0     C35153   3.835   0.672  11.807 -0.0292 -0.5760 -1.3348
 1002MOL0     C35154   3.830   0.751  11.915  0.2686  0.6835 -0.2414
 1002MOL0     C35155   3.740   0.745  12.035  0.6346 -0.2628  0.5000
 1002MOL0     C35156   3.642   0.861  12.047 -0.2607  0.1570 -0.4749
 1002MOL0     C35157   3.560   0.843  12.174  0.1322 -0.2515 -0.4064
 1002MOL0     C35158   3.493   0.978  12.212  1.3330 -0.1403  0.2398
 1002MOL0     O35159   3.391   1.028  12.115  0.3394  1.1457  0.5318
 1002MOL0     C35160   3.266   0.973  12.116  0.0058  0.0749  0.2037
 1002MOL0     C35161   3.225   0.896  12.005 -0.2396 -0.8545  0.6966
 1002MOL0     C35162   3.097   0.839  12.001  0.4536  0.1914  1.1825
 1002MOL0     C35163   3.068   0.754  11.883 -0.0214 -0.4456  0.2175
 1002MOL0     C35164   3.017   0.850  12.119 -0.0491 -0.8445  0.5609
 1002MOL0     C35165   2.881   0.788  12.130 -0.5854 -0.3951  0.8869
 1002MOL0     O35166   2.806   0.816  12.247 -0.4471 -0.0696  0.4794
 1002MOL0     C35167   2.673   0.786  12.262 -0.0885  0.6854  0.2552
 1002MOL0     C35168   2.576   0.727  12.167  0.0928 -1.0567  0.1612
 1002MOL0     C35169   2.443   0.719  12.200  0.3608 -0.6052  0.1576
 1002MOL0     C35170   2.397   0.769  12.327 -0.3122  1.1636  0.2682
 1002MOL0     O35171   2.260   0.762  12.342  0.3459  0.6521 -0.2607
 1002MOL0     C35172   2.214   0.657  12.423 -0.4909  0.4013 -0.7117
 1002MOL0     C35173   2.065   0.666  12.454 -0.1087  0.2423  0.1147
 1002MOL0     C35174   2.016   0.748  12.580  0.0792  0.0073 -0.3526
 1002MOL0     C35175   2.115   0.745  12.701  0.0892 -0.8721  0.2340
 1002MOL0     C35176   2.046   0.809  12.828 -1.0474  0.4605 -0.2010
 1002MOL0     C35177   1.980   0.943  12.794  0.0348  0.8312  0.7520
 1002MOL0     C35178   1.921   0.996  12.927  0.1295  0.1214  0.0139
 1002MOL0     C35179   1.860   1.140  12.908  0.4014  0.2011 -0.1359
 1002MOL0    Cl35180   1.817   1.223  13.060 -0.2636 -0.3766  0.0934
 1002MOL0     C35181   2.490   0.824  12.418  0.1643  0.3825 -0.0518
 1002MOL0     C35182   2.617   0.827  12.385 -1.0056 -0.4997 -0.0615
 1002MOL0     O35183   2.840   0.720  12.037 -0.4983  0.1905  0.2833
 1002MOL0     C35184   3.059   0.932  12.220 -0.0357 -0.3979  0.4941
 1002MOL0     C35185   3.184   0.996  12.221  0.1965  0.9450 -0.6550
 1002MOL0     N35186   3.929   0.848  11.889 -0.7890 -0.1176 -0.4757
 1002MOL0     N35187   3.994   0.828  11.779  0.1875 -0.3110 -0.2761
 1002MOL0     C35188   4.051   0.391  10.595 -0.6789 -0.5066  0.8677
 1002MOL0     C35189   4.157   0.336  10.532  0.3059  0.8303 -0.3012
 1002MOL0     C35190   4.493   0.150  10.444 -0.1312  0.6165 -0.4260
 1002MOL0     C35191   4.501   0.015  10.407  0.3312 -0.5851 -0.2027
 1002MOL0     C35192   4.619  -0.061  10.441 -0.5593 -0.3923 -0.3516
 1002MOL0     C35193   4.721  -0.002  10.520 -0.6875 -0.1994  0.0221
 1002MOL0     O35194   4.826  -0.083  10.550  0.2636  1.0169  0.0336
 1002MOL0     C35195   4.908  -0.049  10.664 -0.0964 -0.5285 -1.1459
 1002MOL0     C35196   4.940  -0.184  10.742  0.6563  0.1781 -0.1363
 1002MOL0     C35197   5.085  -0.232  10.715 -0.1674 -0.0987 -0.1510
 1002MOL0     C35198   5.087  -0.377  10.672  0.6492 -0.2192  0.1388
 1002MOL0     C35199   5.214  -0.434  10.640  0.4130  0.0294 -0.2494
 1002MOL0     C35200   5.314  -0.495  10.626 -0.0591  0.4481 -0.3081
 1002MOL0     C35201   4.712   0.129  10.560  0.5442 -0.1250  0.1232
 1002MOL0     C35202   4.596   0.197  10.525  0.4978  0.4463  0.5363
 1002MOL0     H35203   4.314   0.613  10.453 -1.3672  1.0502 -0.9342
 1002MOL0     H35204   4.103   0.714  10.551 -0.1977  0.5576  0.7415
 1002MOL0     H35205   4.016   0.656  10.824  0.5004 -3.1982 -0.5740
 1002MOL0     H35206   3.913   0.766  10.718  1.3234  0.7494  2.1494
 1002MOL0     H35207   3.710   0.696  10.812  0.9483  2.4395  0.7323
 1002MOL0     H35208   3.785   0.555  10.886 -1.1861 -1.3150 -3.7665
 1002MOL0     H35209   3.910   0.817  10.967 -2.2514  2.6952  2.6226
 1002MOL0     H35210   3.738   0.803  11.002  0.6646  0.9329  1.7468
 1002MOL0     H35211   3.790   0.589  11.126 -1.2633  0.6397 -0.2344
 1002MOL0     H35212   3.962   0.614  11.065  1.8281  3.0896  1.2846
 1002MOL0     H35213   3.974   0.820  11.216  1.2219  1.3684  3.2781
 1002MOL0     H35214   3.808   0.794  11.258 -0.2857  0.0886  0.8695
 1002MOL0     H35215   3.903   0.544  11.328  0.7907 -0.3430  1.7642
 1002MOL0     H35216   4.052   0.644  11.350 -0.1383 -1.6211  1.5929
 1002MOL0     H35217   3.895   0.805  11.496 -0.9299 -0.4147  2.1233
 1002MOL0     H35218   3.788   0.655  11.512 -0.2490 -0.0607  1.9868
 1002MOL0     H35219   4.083   0.674  11.575  0.5021  0.9021  3.2440
 1002MOL0     H35220   3.965   0.544  11.608 -0.1945 -0.0327 -3.1323
 1002MOL0     H35221   3.776   0.586  11.776 -0.6222  0.9138 -4.8049
 1002MOL0     H35222   3.684   0.651  12.026  0.5676 -0.1114 -0.7435
 1002MOL0     H35223   3.791   0.738  12.132  1.5726 -0.0828  0.0226
 1002MOL0     H35224   3.575   0.860  11.960 -2.7693  1.8392  1.2958
 1002MOL0     H35225   3.697   0.955  12.050 -0.7489  0.4213  1.0848
 1002MOL0     H35226   3.617   0.810  12.262 -2.1259 -1.4512  0.7148
 1002MOL0     H35227   3.483   0.771  12.143 -1.7164  2.8105 -3.6650
 1002MOL0     H35228   3.559   1.065  12.215  1.9918 -0.4905 -2.1882
 1002MOL0     H35229   3.445   0.963  12.310  0.3244  1.0862 -0.0375
 1002MOL0     H35230   3.297   0.896  11.924  0.3375  1.2453  1.1351
 1002MOL0     H35231   3.139   0.767  11.800 -1.5213  1.9568 -0.7872
 1002MOL0     H35232   3.077   0.646  11.902  0.6076 -0.3379  0.5798
 1002MOL0     H35233   2.968   0.778  11.846 -0.3319  0.1057  1.3912
 1002MOL0     H35234   2.602   0.705  12.063 -3.9557  0.8914 -1.4835
 1002MOL0     H35235   2.366   0.687  12.131 -0.9485 -0.9855  1.7207
 1002MOL0     H35236   2.244   0.563  12.378  0.5843  1.3788 -2.1045
 1002MOL0     H35237   2.269   0.651  12.517  0.4123  3.2298 -0.9485
 1002MOL0     H35238   2.005   0.700  12.369 -0.7789  0.9806  0.8730
 1002MOL0     H35239   2.033   0.562  12.465 -0.4807  0.1532 -1.4695
 1002MOL0     H35240   1.917   0.706  12.602  0.5451 -2.4934 -2.4998
 1002MOL0     H35241   2.003   0.851  12.545  1.6164  0.7768  1.2224
 1002MOL0     H35242   2.143   0.643  12.727  0.8114 -1.1262 -1.4494
 1002MOL0     H35243   2.198   0.810  12.672  2.0926 -2.4397  2.1028
 1002MOL0     H35244   2.120   0.831  12.906  0.8798 -4.4875 -0.2748
 1002MOL0     H35245   1.970   0.741  12.868  0.4677 -1.8079 -0.9345
 1002MOL0     H35246   2.053   1.013  12.753  0.8939  0.0967  1.0029
 1002MOL0     H35247   1.898   0.934  12.721  1.0664 -0.3210 -0.3050
 1002MOL0     H35248   2.001   0.990  13.001 -2.0227 -0.0202  2.4787
 1002MOL0     H35249   1.838   0.930  12.955 -0.1702  1.2717  1.9766
 1002MOL0     H35250   1.778   1.140  12.836 -0.5773  1.0696  0.9464
 1002MOL0     H35251   1.939   1.199  12.860 -0.5259  0.4152 -1.4388
 1002MOL0     H35252   2.462   0.859  12.517  0.6376 -2.3819  1.1496
 1002MOL0     H35253   2.680   0.876  12.459  0.0090 -0.3642 -0.9846
 1002MOL0     H35254   2.992   0.954  12.302 -0.0321 -1.7167  0.8800
 1002MOL0     H35255   3.226   1.060  12.298 -0.9846  0.6779  0.2433
 1002MOL0     H35256   3.983   0.319  10.638  0.5955 -2.6556 -0.4804
 1002MOL0     H35257   4.171   0.228  10.529  0.8839  0.7929  1.8721
 1002MOL0     H35258   4.420  -0.025  10.346 -2.4783  0.1735  2.7171
 1002MOL0     H35259   4.621  -0.161  10.398  0.7904 -0.1502 -0.9050
 1002MOL0     H35260   4.995  -0.000  10.619 -0.4684  1.1843 -0.1179
 1002MOL0     H35261   4.860   0.017  10.737 -1.5370 -3.7694  1.0634
 1002MOL0     H35262   4.880  -0.271  10.715 -0.2043  0.4016  0.9574
 1002MOL0     H35263   4.919  -0.178  10.850 -0.2182 -1.1970 -0.2085
 1002MOL0     H35264   5.147  -0.214  10.804  0.5995  4.5077 -1.3777
 1002MOL0     H35265   5.132  -0.175  10.635 -0.8395 -0.3272 -0.7097
 1002MOL0     H35266   5.021  -0.395  10.587 -0.1077 -1.2660  0.9217
 1002MOL0     H35267   5.038  -0.427  10.756  0.7605 -1.1943 -0.3565
 1002MOL0     H35268   5.407  -0.548  10.635  0.9373  2.2775  0.6004
 1002MOL0     H35269   4.796   0.180  10.606  0.1685 -1.3642  2.3757
 1002MOL0     H35270   4.591   0.301  10.557 -0.2717  0.1668  1.3530
 1003MOL0     O35271   0.153  10.207   3.213  0.4239 -0.1254 -0.6511
 1003MOL0     C35272   0.168  10.304   3.289  0.7789  0.3557 -0.8219
 1003MOL0     O35273   0.084  10.336   3.387  0.7587  0.1114  0.1459
 1003MOL0     C35274  -0.037  10.267   3.415 -0.0358 -0.1664  0.3329
 1003MOL0     C35275  -0.117  10.191   3.327 -0.5013  0.1574  0.2587
 1003MOL0     C35276  -0.236  10.126   3.367 -0.6791  0.1342  0.0398
 1003MOL0     C35277  -0.268  10.130   3.499  0.0242  0.6741  1.2083
 1003MOL0     O35278  -0.388  10.088   3.560  0.7728 -0.6922 -0.2730
 1003MOL0     C35279  -0.472   9.991   3.483 -0.1013  1.0826 -0.4476
 1003MOL0     C35280  -0.546   9.919   3.586  0.1897 -0.1862  0.7248
 1003MOL0     C35281  -0.655  10.004   3.661  0.1442  0.0324  0.9908
 1003MOL0     C35282  -0.794   9.938   3.652 -0.0117 -0.4092 -0.4596
 1003MOL0     C35283  -0.922  10.010   3.722 -0.3621 -0.5699  0.4073
 1003MOL0     C35284  -0.879  10.037   3.868  0.7816  0.5644  0.5760
 1003MOL0     C35285  -1.012  10.053   3.957 -0.0916 -0.2708 -0.5449
 1003MOL0     C35286  -0.994  10.054   4.108  0.2237 -0.1892  0.3072
 1003MOL0     N35287  -1.114  10.068   4.183 -0.0179 -0.0306  1.1437
 1003MOL0     C35288  -1.173  10.191   4.224 -0.1717  0.0077  0.5878
 1003MOL0     C35289  -1.276  10.156   4.310 -0.1867  0.4219 -0.4694
 1003MOL0     C35290  -1.357  10.245   4.402 -0.0107  0.9273 -0.7482
 1003MOL0     C35291  -1.290  10.301   4.529 -0.3867 -0.1634  0.3274
 1003MOL0     C35292  -1.359  10.422   4.605 -0.8636 -0.1528 -0.0021
 1003MOL0     C35293  -1.368  10.547   4.520 -0.2230 -0.5561 -0.0269
 1003MOL0     O35294  -1.477  10.646   4.550  0.0453  0.4348  0.8970
 1003MOL0     C35295  -1.453  10.743   4.646  0.0007  0.0709  0.0068
 1003MOL0     C35296  -1.532  10.855   4.643  0.0683  0.4342  0.1711
 1003MOL0     C35297  -1.516  10.963   4.731 -0.5321  0.2568 -0.3706
 1003MOL0     C35298  -1.615  11.086   4.712 -0.2876  0.4720 -0.2009
 1003MOL0     C35299  -1.408  10.972   4.820 -0.1659  0.1765  0.4519
 1003MOL0     C35300  -1.385  11.077   4.924 -0.0571  0.0287 -0.7279
 1003MOL0     O35301  -1.285  11.043   5.021  0.0183  0.7755 -0.0248
 1003MOL0     C35302  -1.278  11.137   5.121 -0.0962  0.2477 -0.3764
 1003MOL0     C35303  -1.293  11.100   5.251  0.7914  0.1993  0.4547
 1003MOL0     C35304  -1.281  11.198   5.350 -0.6180  0.2309 -0.4727
 1003MOL0     C35305  -1.252  11.334   5.330  0.6615 -0.2368 -0.2496
 1003MOL0     O35306  -1.229  11.432   5.413  0.0584  0.7318 -0.1797
 1003MOL0     C35307  -1.194  11.408   5.559  0.5346  0.4428 -0.0238
 1003MOL0     C35308  -1.325  11.377   5.647 -0.2492 -0.8262  1.0273
 1003MOL0     C35309  -1.295  11.370   5.795  0.0689 -0.2119 -0.2267
 1003MOL0     C35310  -1.410  11.365   5.899 -0.8127 -0.3598  0.2129
 1003MOL0     C35311  -1.371  11.356   6.043 -0.2134 -0.4437 -0.1020
 1003MOL0     C35312  -1.500  11.390   6.125 -0.6054 -0.1829 -0.1307
 1003MOL0     C35313  -1.466  11.405   6.270  0.3873 -0.5428  0.9654
 1003MOL0     C35314  -1.591  11.426   6.368 -0.2718 -0.2431  0.0797
 1003MOL0    Cl35315  -1.536  11.538   6.490  0.2906 -0.2316 -0.2173
 1003MOL0     C35316  -1.250  11.371   5.195 -0.6381  0.3983  0.0383
 1003MOL0     C35317  -1.253  11.275   5.091  0.8335 -0.1177  0.2337
 1003MOL0     O35318  -1.468  11.173   4.933 -0.4302  0.2555  0.1985
 1003MOL0     C35319  -1.336  10.844   4.837  0.4777  0.4425  0.3280
 1003MOL0     C35320  -1.355  10.735   4.752  0.1373 -0.4274  0.2755
 1003MOL0     N35321  -1.283  10.014   4.307  0.2059 -1.4735  0.1014
 1003MOL0     N35322  -1.191   9.964   4.234 -0.5064 -0.9596 -0.2828
 1003MOL0     C35323  -0.195  10.202   3.591 -0.4494 -0.5486 -1.0792
 1003MOL0     C35324  -0.078  10.275   3.554 -0.3222  0.8287 -0.1394
 1003MOL0     C35325   0.305  10.360   3.288  0.8717  0.5498 -0.5493
 1003MOL0     C35326   0.397  10.326   3.201 -0.2983  0.3888 -0.1676
 1003MOL0     C35327   0.537  10.359   3.213  0.5109 -0.1053 -0.2964
 1003MOL0     C35328   0.573  10.445   3.311  0.1167  0.1266 -0.4349
 1003MOL0     O35329   0.706  10.500   3.308  0.1700  0.6432  0.2938
 1003MOL0     C35330   0.744  10.595   3.415  0.5482 -0.7423  0.5556
 1003MOL0     C35331   0.891  10.637   3.400 -0.8677  0.1664 -0.0853
 1003MOL0     C35332   0.936  10.742   3.503  0.3308  0.4737  0.4911
 1003MOL0     C35333   0.883  10.720   3.646 -0.0239 -0.1784 -0.2193
 1003MOL0     C35334   0.935  10.838   3.720 -0.2417  0.3434  0.5297
 1003MOL0     C35335   0.971  10.926   3.793 -0.4252  0.1817 -0.2655
 1003MOL0     C35336   0.478  10.492   3.398  1.2310  1.0003  0.2319
 1003MOL0     C35337   0.347  10.445   3.400  0.3339  0.1934  0.5798
 1003MOL0     H35338  -0.084  10.171   3.226 -1.1270 -1.2779  0.3007
 1003MOL0     H35339  -0.287  10.091   3.278  0.7493  0.5694 -0.9831
 1003MOL0     H35340  -0.527  10.048   3.407  0.2582 -0.2510 -1.7650
 1003MOL0     H35341  -0.420   9.905   3.437  1.3257  1.4171  0.4716
 1003MOL0     H35342  -0.600   9.838   3.536 -1.4340  0.2112  1.7831
 1003MOL0     H35343  -0.481   9.879   3.664  0.2663  2.9083  2.4070
 1003MOL0     H35344  -0.623  10.031   3.762  0.6749 -0.8843  1.0779
 1003MOL0     H35345  -0.654  10.101   3.611 -1.0649 -0.3434  0.1898
 1003MOL0     H35346  -0.826   9.915   3.550  2.7382 -0.6327 -1.3460
 1003MOL0     H35347  -0.777   9.844   3.705 -2.3763 -1.0177 -0.6579
 1003MOL0     H35348  -0.935  10.107   3.673 -0.1072 -1.3733 -1.3291
 1003MOL0     H35349  -1.013   9.952   3.708 -1.1081  0.6405  0.1124
 1003MOL0     H35350  -0.819   9.950   3.896  0.1266 -0.6583 -1.5833
 1003MOL0     H35351  -0.821  10.130   3.875 -0.6291  2.5429 -6.5474
 1003MOL0     H35352  -1.054  10.154   3.947  0.3842  0.0200  0.2928
 1003MOL0     H35353  -1.079   9.969   3.941 -0.2715 -0.5271  1.3291
 1003MOL0     H35354  -0.917  10.124   4.141 -1.3078  0.9998  1.5117
 1003MOL0     H35355  -0.953   9.954   4.129 -0.5821 -0.6794 -0.3570
 1003MOL0     H35356  -1.131  10.287   4.195 -1.2929 -0.2430 -2.1431
 1003MOL0     H35357  -1.390  10.324   4.334  2.6296  1.1984 -1.8485
 1003MOL0     H35358  -1.438  10.178   4.431  0.1808  0.6469 -0.8564
 1003MOL0     H35359  -1.187  10.330   4.506  0.1237 -0.1632  2.4347
 1003MOL0     H35360  -1.275  10.217   4.597 -0.4104 -0.7644 -0.3916
 1003MOL0     H35361  -1.292  10.442   4.689 -0.9231  1.8487 -0.3890
 1003MOL0     H35362  -1.456  10.394   4.647 -1.8581  0.9650 -1.4721
 1003MOL0     H35363  -1.389  10.508   4.419  1.7684 -0.7020 -0.4281
 1003MOL0     H35364  -1.272  10.599   4.508  1.3650 -3.4123 -0.5321
 1003MOL0     H35365  -1.611  10.862   4.569  0.8209  2.2744 -0.5255
 1003MOL0     H35366  -1.676  11.067   4.622 -1.6235 -1.2995  0.9935
 1003MOL0     H35367  -1.671  11.099   4.805  0.7544  0.6838  0.4124
 1003MOL0     H35368  -1.558  11.177   4.694  0.0825  0.2868  0.0513
 1003MOL0     H35369  -1.296  10.993   5.268 -1.6500 -0.2258 -2.0083
 1003MOL0     H35370  -1.279  11.168   5.454 -1.8074 -2.1824 -1.0606
 1003MOL0     H35371  -1.106  11.347   5.585  1.7501  2.1302 -0.0122
 1003MOL0     H35372  -1.160  11.509   5.579 -1.6915  0.7496  2.7751
 1003MOL0     H35373  -1.400  11.449   5.614 -0.7807 -2.2315 -0.9780
 1003MOL0     H35374  -1.369  11.280   5.624  3.6878 -1.9824 -2.8597
 1003MOL0     H35375  -1.232  11.456   5.818  1.0765 -0.1016 -3.0146
 1003MOL0     H35376  -1.241  11.278   5.818  2.4668  1.7695  2.8960
 1003MOL0     H35377  -1.462  11.459   5.878  2.1033  1.0320 -1.2934
 1003MOL0     H35378  -1.481  11.284   5.879 -2.8448  1.7168 -1.4439
 1003MOL0     H35379  -1.292  11.430   6.063  1.6535 -2.9822  3.0246
 1003MOL0     H35380  -1.334  11.256   6.067 -3.7964 -1.1900  3.3254
 1003MOL0     H35381  -1.533  11.486   6.086 -0.2034  0.0062 -0.0166
 1003MOL0     H35382  -1.577  11.317   6.101  0.0298 -0.2431 -2.1659
 1003MOL0     H35383  -1.397  11.489   6.281 -0.6597  0.6341 -0.8023
 1003MOL0     H35384  -1.425  11.310   6.304 -1.4002 -1.1921  1.4429
 1003MOL0     H35385  -1.640  11.334   6.403 -0.0354  0.6690  3.0518
 1003MOL0     H35386  -1.669  11.486   6.319  0.4782  0.8268  0.1782
 1003MOL0     H35387  -1.247  11.476   5.167 -4.1626  0.4469 -0.6093
 1003MOL0     H35388  -1.229  11.308   4.990  1.8593 -0.1169  0.4690
 1003MOL0     H35389  -1.254  10.835   4.908 -1.1665 -2.9608  2.0287
 1003MOL0     H35390  -1.313  10.639   4.779  3.1207  1.0216  1.1299
 1003MOL0     H35391  -0.220  10.192   3.696  4.0882  1.7799  0.4723
 1003MOL0     H35392  -0.027  10.337   3.627 -1.2077  0.7068  0.5996
 1003MOL0     H35393   0.383  10.249   3.125 -0.2425  1.3661 -1.1930
 1003MOL0     H35394   0.605  10.318   3.139 -0.8389 -2.4747 -0.3490
 1003MOL0     H35395   0.683  10.683   3.397  1.4993 -0.5161 -2.1217
 1003MOL0     H35396   0.720  10.568   3.518 -1.0258  1.9667  0.9674
 1003MOL0     H35397   0.916  10.666   3.297  1.1000 -5.2790 -1.5164
 1003MOL0     H35398   0.952  10.547   3.410 -0.4452  0.5547  0.9108
 1003MOL0     H35399   0.929  10.846   3.471  1.5604  0.1114 -1.0514
 1003MOL0     H35400   1.043  10.724   3.518  0.3193 -0.7055 -0.6783
 1003MOL0     H35401   0.919  10.628   3.692  0.9207  0.3490  0.1322
 1003MOL0     H35402   0.774  10.722   3.651  0.0217 -0.2250  3.3472
 1003MOL0     H35403   0.991  11.000   3.868  1.1214 -1.2270  0.7804
 1003MOL0     H35404   0.506  10.551   3.485 -1.3396 -0.7589  2.4200
 1003MOL0     H35405   0.283  10.467   3.484  0.9875 -0.9146  1.3965
 1004MOL0     O35406   5.875   6.330   1.937 -0.0797 -0.7307 -0.1553
 1004MOL0     C35407   5.820   6.269   2.031 -0.6028 -0.4155 -0.0142
 1004MOL0     O35408   5.690   6.236   2.043 -0.0498 -0.1839  0.2248
 1004MOL0     C35409   5.598   6.306   1.973  0.0460  0.4671  0.1355
 1004MOL0     C35410   5.587   6.303   1.830  0.4106  0.0074  0.9195
 1004MOL0     C35411   5.495   6.383   1.762  0.0115 -0.2433 -0.5774
 1004MOL0     C35412   5.405   6.463   1.838 -0.5907 -0.0348  0.5154
 1004MOL0     O35413   5.302   6.538   1.789 -0.1170  0.5977 -0.2600
 1004MOL0     C35414   5.246   6.498   1.663  0.2447 -0.6697 -0.2412
 1004MOL0     C35415   5.100   6.500   1.664 -0.1048 -0.2773 -0.3320
 1004MOL0     C35416   5.031   6.430   1.779 -0.3098 -0.1593 -0.3752
 1004MOL0     C35417   4.878   6.455   1.771  0.9318  0.1672 -0.0087
 1004MOL0     C35418   4.798   6.358   1.874  0.1016 -0.7970  0.3241
 1004MOL0     C35419   4.652   6.324   1.835  0.3787 -0.5658 -0.0613
 1004MOL0     C35420   4.568   6.448   1.810  0.2540  0.0921 -0.8800
 1004MOL0     C35421   4.420   6.417   1.847 -0.0438  0.1719  0.8441
 1004MOL0     N35422   4.392   6.421   1.993 -0.3342 -0.1945 -0.6089
 1004MOL0     C35423   4.446   6.517   2.079  0.2101 -0.1972 -0.0210
 1004MOL0     C35424   4.443   6.467   2.207  0.0096  0.2202 -0.1095
 1004MOL0     C35425   4.469   6.552   2.332  0.3171  0.4344 -0.2458
 1004MOL0     C35426   4.558   6.485   2.434 -0.3569 -0.5480 -0.5122
 1004MOL0     C35427   4.567   6.582   2.557  0.8910 -0.6205 -0.0369
 1004MOL0     C35428   4.702   6.576   2.628  0.5033 -0.0660  0.9352
 1004MOL0     O35429   4.720   6.437   2.681  0.1778 -1.0288 -0.0896
 1004MOL0     C35430   4.834   6.416   2.748 -0.5951 -1.0578 -0.4982
 1004MOL0     C35431   4.826   6.347   2.871 -0.1855 -0.4015  0.1154
 1004MOL0     C35432   4.938   6.338   2.955  0.1131  0.2992 -0.8890
 1004MOL0     C35433   4.915   6.264   3.085  0.8634  0.6091 -0.0065
 1004MOL0     C35434   5.059   6.383   2.906  0.0066 -0.3062 -0.3718
 1004MOL0     C35435   5.171   6.376   3.003  0.0628  0.6156  0.3550
 1004MOL0     O35436   5.289   6.348   2.948  0.2995 -0.4799  0.5861
 1004MOL0     C35437   5.395   6.374   3.024 -0.9537 -0.8329  0.2170
 1004MOL0     C35438   5.494   6.274   3.034  0.4286 -0.4441  0.2361
 1004MOL0     C35439   5.614   6.290   3.108  0.3690 -0.5853 -0.3268
 1004MOL0     C35440   5.629   6.410   3.176 -0.7145  1.1339 -0.4076
 1004MOL0     O35441   5.740   6.437   3.247  0.0560 -0.3366 -0.1434
 1004MOL0     C35442   5.802   6.334   3.318 -0.2094  0.5063 -0.1358
 1004MOL0     C35443   5.909   6.241   3.261  1.2816 -0.7336 -0.3881
 1004MOL0     C35444   5.936   6.124   3.356  0.3741  0.2455  0.5133
 1004MOL0     C35445   5.820   6.019   3.373 -0.1820  0.7040 -0.3338
 1004MOL0     C35446   5.785   5.943   3.234 -1.0106 -0.0268 -0.1939
 1004MOL0     C35447   5.678   5.840   3.274  0.0442  0.0673  0.3784
 1004MOL0     C35448   5.576   5.822   3.163  1.2935 -0.5970  0.4817
 1004MOL0     C35449   5.467   5.714   3.174 -0.0330  0.3970 -0.6041
 1004MOL0    Cl35450   5.398   5.691   3.015 -0.3259 -0.0893 -0.0639
 1004MOL0     C35451   5.539   6.508   3.174  0.3503 -0.1249  0.1696
 1004MOL0     C35452   5.418   6.492   3.099 -1.1365 -0.3893  0.5809
 1004MOL0     O35453   5.158   6.403   3.124 -0.0556  0.0136 -0.3926
 1004MOL0     C35454   5.069   6.454   2.782  0.6187 -0.4552  0.1737
 1004MOL0     C35455   4.956   6.469   2.706 -0.6615 -0.1335 -0.0075
 1004MOL0     N35456   4.408   6.331   2.190 -0.4572  0.3800 -0.8061
 1004MOL0     N35457   4.369   6.314   2.070 -0.7460  0.7419 -0.4179
 1004MOL0     C35458   5.420   6.466   1.980 -0.0116 -0.1082  0.6204
 1004MOL0     C35459   5.513   6.391   2.045  1.0520  0.3051  0.4930
 1004MOL0     C35460   5.894   6.204   2.134 -0.2474  0.4779 -0.8422
 1004MOL0     C35461   6.033   6.185   2.122 -0.2677  0.0013  0.4153
 1004MOL0     C35462   6.110   6.121   2.218  0.1723 -0.0728  0.1523
 1004MOL0     C35463   6.043   6.072   2.335  0.0240  0.7380 -0.5545
 1004MOL0     O35464   6.085   5.998   2.445 -0.7948 -0.3162  0.5682
 1004MOL0     C35465   6.229   5.969   2.452 -0.3412  0.1422 -0.0948
 1004MOL0     C35466   6.248   5.845   2.531 -0.0086 -0.4047 -0.0092
 1004MOL0     C35467   6.375   5.757   2.503  0.7056 -0.3658 -0.0651
 1004MOL0     C35468   6.414   5.660   2.610  0.4253 -0.4675 -0.1054
 1004MOL0     C35469   6.356   5.527   2.573 -0.4822 -0.0963 -0.6513
 1004MOL0     C35470   6.310   5.423   2.536  0.5929 -0.3211  0.8591
 1004MOL0     C35471   5.905   6.082   2.352  0.9389  1.4029  1.1808
 1004MOL0     C35472   5.832   6.144   2.241  0.1088 -0.7370 -0.2725
 1004MOL0     H35473   5.648   6.229   1.780 -0.6242  1.0835 -2.1322
 1004MOL0     H35474   5.495   6.378   1.653  1.9282 -0.2216 -0.6184
 1004MOL0     H35475   5.290   6.568   1.591 -0.9559 -1.8969 -2.2748
 1004MOL0     H35476   5.283   6.397   1.645 -2.3513 -1.4555 -1.6159
 1004MOL0     H35477   5.076   6.607   1.661 -1.3383 -0.4546  1.5865
 1004MOL0     H35478   5.067   6.452   1.572 -2.0443  0.4574 -0.0668
 1004MOL0     H35479   5.034   6.323   1.756 -3.8201 -0.3389 -0.5127
 1004MOL0     H35480   5.070   6.448   1.880  0.4829 -2.4270 -0.2141
 1004MOL0     H35481   4.847   6.559   1.786  2.3699  1.0084 -2.3768
 1004MOL0     H35482   4.841   6.423   1.673 -1.1397  1.5347  0.2720
 1004MOL0     H35483   4.856   6.266   1.886 -1.1990 -1.5220  1.3415
 1004MOL0     H35484   4.797   6.409   1.971 -0.9798  0.2939 -0.2415
 1004MOL0     H35485   4.650   6.261   1.745 -1.7384 -0.5141 -0.0950
 1004MOL0     H35486   4.612   6.266   1.919 -0.3514 -0.5546 -0.3976
 1004MOL0     H35487   4.609   6.527   1.874  0.0733 -1.1899  0.9075
 1004MOL0     H35488   4.571   6.465   1.702 -0.0570  0.8386 -0.7776
 1004MOL0     H35489   4.382   6.320   1.814  1.5459 -1.6889  4.0106
 1004MOL0     H35490   4.368   6.488   1.782  2.2133 -0.4866 -1.8765
 1004MOL0     H35491   4.489   6.613   2.053 -2.0936  1.1047  0.6778
 1004MOL0     H35492   4.523   6.638   2.292 -1.2959  0.4908 -2.4910
 1004MOL0     H35493   4.377   6.583   2.382  1.0533  2.5467 -0.1069
 1004MOL0     H35494   4.653   6.453   2.390 -0.4501  0.8829 -1.7959
 1004MOL0     H35495   4.507   6.392   2.463  0.5601 -1.2941 -1.2357
 1004MOL0     H35496   4.495   6.544   2.630 -0.1300  0.1012 -0.6495
 1004MOL0     H35497   4.530   6.682   2.533  1.9927 -0.1359  0.1996
 1004MOL0     H35498   4.701   6.648   2.710 -1.3648  0.6195  0.3552
 1004MOL0     H35499   4.784   6.599   2.558 -0.0826 -1.7989 -0.3953
 1004MOL0     H35500   4.730   6.309   2.904  0.0063 -1.7040 -0.7405
 1004MOL0     H35501   4.929   6.315   3.181  2.3307 -0.5606  0.4413
 1004MOL0     H35502   4.810   6.239   3.097  0.7601  0.7355 -0.6365
 1004MOL0     H35503   4.982   6.178   3.086  0.2737  0.1481  0.6786
 1004MOL0     H35504   5.479   6.172   3.001 -3.2259  0.1138 -0.2117
 1004MOL0     H35505   5.681   6.206   3.119  0.0219 -0.5623  2.8801
 1004MOL0     H35506   5.851   6.369   3.408  0.2951 -2.5532  0.9103
 1004MOL0     H35507   5.729   6.274   3.374  1.0867  0.5346  1.6516
 1004MOL0     H35508   5.878   6.213   3.160 -0.6755 -2.6294  0.6788
 1004MOL0     H35509   5.994   6.310   3.255 -1.6923  3.3825  0.0936
 1004MOL0     H35510   5.947   6.163   3.458 -0.8084 -0.1465  0.8052
 1004MOL0     H35511   6.026   6.068   3.328  1.3051  0.3773  2.9646
 1004MOL0     H35512   5.852   5.937   3.438  1.0179 -0.1161 -1.9199
 1004MOL0     H35513   5.738   6.070   3.426  0.6249  0.8284  0.8330
 1004MOL0     H35514   5.872   5.896   3.187  0.5289  0.5883  1.8734
 1004MOL0     H35515   5.749   6.008   3.154  3.1434  1.0864 -1.4427
 1004MOL0     H35516   5.710   5.736   3.288 -1.2337 -0.1628  1.8718
 1004MOL0     H35517   5.616   5.868   3.359 -1.3068 -3.8767  0.9214
 1004MOL0     H35518   5.637   5.812   3.072  3.8185  1.7175  1.7741
 1004MOL0     H35519   5.523   5.918   3.161  0.7087 -0.9184 -1.8789
 1004MOL0     H35520   5.390   5.745   3.246 -1.5511 -0.3043 -1.8660
 1004MOL0     H35521   5.511   5.617   3.201 -1.2177  0.2747  1.0181
 1004MOL0     H35522   5.549   6.601   3.227  0.8393  1.9156 -3.1936
 1004MOL0     H35523   5.354   6.577   3.079  0.8340  0.5364 -2.5923
 1004MOL0     H35524   5.157   6.499   2.738 -2.7553  5.4574 -1.6043
 1004MOL0     H35525   4.969   6.515   2.609  2.0237 -1.8198 -0.5518
 1004MOL0     H35526   5.351   6.527   2.037 -0.5954 -0.3447  0.1777
 1004MOL0     H35527   5.534   6.403   2.151  1.5634 -1.5291  0.6347
 1004MOL0     H35528   6.086   6.229   2.038 -1.3443  2.6028  1.0036
 1004MOL0     H35529   6.217   6.106   2.206  0.4139  1.5301  0.0975
 1004MOL0     H35530   6.265   5.955   2.350  0.9056  1.4419  0.1262
 1004MOL0     H35531   6.273   6.057   2.501  0.3564 -0.4500  0.3703
 1004MOL0     H35532   6.160   5.784   2.511  0.5655 -1.2726  0.0509
 1004MOL0     H35533   6.244   5.855   2.640  1.2592 -2.7539  0.3203
 1004MOL0     H35534   6.461   5.825   2.501  1.0619 -0.7962 -2.3085
 1004MOL0     H35535   6.371   5.718   2.401  2.1497  1.0640 -0.7006
 1004MOL0     H35536   6.374   5.680   2.710  2.2494  1.5908  0.2831
 1004MOL0     H35537   6.522   5.647   2.616  0.1539 -2.8848  0.2763
 1004MOL0     H35538   6.278   5.323   2.517  0.3552 -0.2147  0.6933
 1004MOL0     H35539   5.848   6.043   2.435 -4.9102  3.6387 -1.2627
 1004MOL0     H35540   5.727   6.158   2.265  0.1758 -1.5826  0.5775
 1005MOL0     O35541   3.253  10.250   1.148  0.7754  0.7468  0.4492
 1005MOL0     C35542   3.158  10.173   1.145 -0.2353 -0.3108 -1.1242
 1005MOL0     O35543   3.072  10.151   1.246  0.3506 -0.2698  0.1236
 1005MOL0     C35544   3.077  10.213   1.368  0.2651 -0.4145  0.5738
 1005MOL0     C35545   3.092  10.138   1.485  0.0947  0.9347 -0.9252
 1005MOL0     C35546   3.111  10.193   1.612  1.0113  1.2538  0.0703
 1005MOL0     C35547   3.123  10.331   1.623 -0.1300  0.1876 -0.2078
 1005MOL0     O35548   3.149  10.386   1.747 -0.5302  0.2265 -0.1765
 1005MOL0     C35549   3.155  10.525   1.756  0.1363 -1.0561 -0.1552
 1005MOL0     C35550   3.171  10.588   1.897 -0.9761  0.1221  0.8010
 1005MOL0     C35551   3.309  10.563   1.951  0.0699 -0.3683  0.3557
 1005MOL0     C35552   3.325  10.657   2.057 -0.1179  0.1157 -0.0489
 1005MOL0     C35553   3.454  10.644   2.139  0.2444 -0.8852 -0.9269
 1005MOL0     C35554   3.440  10.735   2.257 -0.1735  0.2192  0.1253
 1005MOL0     C35555   3.574  10.755   2.323 -0.9113 -0.3142  0.3616
 1005MOL0     C35556   3.649  10.620   2.358 -0.1529 -0.3629 -0.0518
 1005MOL0     N35557   3.589  10.550   2.470  0.2588  0.2748 -0.5496
 1005MOL0     C35558   3.468  10.497   2.474  1.4286  0.1600  0.2494
 1005MOL0     C35559   3.460  10.423   2.591 -0.3531  0.4508 -0.3616
 1005MOL0     C35560   3.335  10.351   2.653 -0.0916 -0.4053 -0.3623
 1005MOL0     C35561   3.283  10.427   2.775 -0.3023  0.5578 -0.0917
 1005MOL0     C35562   3.272  10.579   2.754 -0.1656  0.0162  0.1502
 1005MOL0     C35563   3.177  10.632   2.643  0.1000  0.3894 -0.3258
 1005MOL0     O35564   3.175  10.775   2.633  0.4399  0.4558 -0.3843
 1005MOL0     C35565   3.108  10.852   2.718  0.5160  0.4038 -0.6116
 1005MOL0     C35566   3.174  10.928   2.810  0.2111 -0.1900 -0.6415
 1005MOL0     C35567   3.114  10.990   2.928 -0.1352 -0.1936 -0.6897
 1005MOL0     C35568   3.202  11.073   3.024  0.2260  0.0744  0.0897
 1005MOL0     C35569   2.973  10.998   2.928  0.4891  0.4737 -0.0433
 1005MOL0     C35570   2.909  11.076   3.028 -0.4189  0.5661 -0.1082
 1005MOL0     O35571   2.903  11.213   3.019 -0.0413  0.5606  0.0840
 1005MOL0     C35572   2.861  11.286   3.123 -0.0880 -0.5631 -0.0492
 1005MOL0     C35573   2.945  11.386   3.174 -0.2911  0.1167  1.5646
 1005MOL0     C35574   2.905  11.472   3.270  0.5376  0.7614 -0.0893
 1005MOL0     C35575   2.773  11.467   3.318 -0.1464 -0.1996 -0.4223
 1005MOL0     O35576   2.714  11.529   3.427  0.1680  0.1189  0.3958
 1005MOL0     C35577   2.798  11.583   3.528  0.0107  0.7116 -0.4846
 1005MOL0     C35578   2.731  11.591   3.667  0.6635  0.3571 -0.4277
 1005MOL0     C35579   2.638  11.707   3.683 -0.0126 -0.4166  0.4115
 1005MOL0     C35580   2.619  11.738   3.832 -0.3091 -0.2586 -0.1008
 1005MOL0     C35581   2.706  11.852   3.891 -0.8508 -0.5456 -0.7320
 1005MOL0     C35582   2.644  11.905   4.017  0.3444 -0.7130 -0.9050
 1005MOL0     C35583   2.697  12.030   4.099  0.6420 -0.1939  0.6978
 1005MOL0     C35584   2.670  12.160   4.022  0.3332 -0.2528  0.3394
 1005MOL0    Cl35585   2.766  12.164   3.872  0.1579  0.0741 -0.1860
 1005MOL0     C35586   2.685  11.377   3.262  0.3494 -0.4630  0.1542
 1005MOL0     C35587   2.736  11.287   3.173  0.2083  0.2044  0.2544
 1005MOL0     O35588   2.849  11.011   3.105  0.2848 -0.1745 -0.3431
 1005MOL0     C35589   2.906  10.924   2.832 -0.6042 -0.0013 -0.5700
 1005MOL0     C35590   2.968  10.841   2.745 -0.3885  0.4559 -0.0668
 1005MOL0     N35591   3.578  10.449   2.656  0.5721  0.2119  0.3249
 1005MOL0     N35592   3.647  10.536   2.590 -0.3610  0.1742 -0.8190
 1005MOL0     C35593   3.106  10.409   1.505 -0.3597  0.2668  0.8702
 1005MOL0     C35594   3.081  10.348   1.387  0.0684 -0.6137  0.4427
 1005MOL0     C35595   3.134  10.082   1.025 -0.3614 -0.9906 -0.7358
 1005MOL0     C35596   3.009  10.004   1.009  0.2973 -0.6237 -0.9593
 1005MOL0     C35597   2.973   9.951   0.890 -1.2730 -0.0928  0.5529
 1005MOL0     C35598   3.051   9.974   0.773  1.2852 -1.5250  0.3549
 1005MOL0     O35599   3.000   9.936   0.645 -0.0396  0.2478  1.1933
 1005MOL0     C35600   2.883   9.853   0.621 -0.5877 -1.4627  0.0016
 1005MOL0     C35601   2.865   9.840   0.460 -0.6233 -0.2375  0.3249
 1005MOL0     C35602   2.747   9.742   0.416  0.5527 -1.1681  0.0435
 1005MOL0     C35603   2.773   9.592   0.440 -0.1929 -0.4951 -0.0118
 1005MOL0     C35604   2.707   9.550   0.568 -0.2306  0.6960  0.2159
 1005MOL0     C35605   2.652   9.520   0.663 -0.9631  0.1054 -0.6841
 1005MOL0     C35606   3.168  10.046   0.785  0.5064 -0.3707 -0.3785
 1005MOL0     C35607   3.221  10.090   0.908 -0.8015  0.6399 -0.0589
 1005MOL0     H35608   3.072  10.034   1.463 -1.7970  1.4687 -1.9744
 1005MOL0     H35609   3.102  10.142   1.707  1.7141  2.4465  0.8083
 1005MOL0     H35610   3.245  10.554   1.701 -0.6153 -1.8619 -1.8897
 1005MOL0     H35611   3.065  10.572   1.716  1.4129  1.3657 -0.3923
 1005MOL0     H35612   3.165  10.697   1.892  2.6133  0.3765 -0.1887
 1005MOL0     H35613   3.096  10.549   1.967 -2.0922  1.7739  0.5842
 1005MOL0     H35614   3.309  10.460   1.986  0.4354 -0.3596  0.3850
 1005MOL0     H35615   3.391  10.580   1.881 -0.0687  2.0143  0.6733
 1005MOL0     H35616   3.315  10.763   2.029 -0.9659  0.5963  1.8770
 1005MOL0     H35617   3.240  10.645   2.125 -0.4589 -1.7311 -0.7652
 1005MOL0     H35618   3.472  10.541   2.170 -0.4083 -0.3867  1.3566
 1005MOL0     H35619   3.533  10.675   2.070 -1.4576  1.6641 -1.8963
 1005MOL0     H35620   3.404  10.834   2.227 -2.6763 -0.0838  1.7968
 1005MOL0     H35621   3.360  10.711   2.327  0.0433  1.5017  0.8564
 1005MOL0     H35622   3.632  10.807   2.246 -0.7948 -1.0442 -0.0466
 1005MOL0     H35623   3.581  10.824   2.408  1.0446  2.8727 -2.1238
 1005MOL0     H35624   3.751  10.642   2.394 -0.7509  0.0565  1.4788
 1005MOL0     H35625   3.673  10.561   2.269  5.0834  0.2323  0.6452
 1005MOL0     H35626   3.392  10.494   2.396 -0.2544 -1.9234  1.8367
 1005MOL0     H35627   3.258  10.343   2.576 -0.7434  0.2519  0.2022
 1005MOL0     H35628   3.360  10.253   2.695  0.0092 -0.0740  0.3679
 1005MOL0     H35629   3.365  10.397   2.842 -0.1871 -1.9983 -1.2593
 1005MOL0     H35630   3.186  10.394   2.813 -0.3601  0.7612 -0.0587
 1005MOL0     H35631   3.374  10.614   2.739 -0.5539 -0.0315 -3.3847
 1005MOL0     H35632   3.236  10.614   2.851 -0.0556 -0.3195  0.3154
 1005MOL0     H35633   3.079  10.593   2.670  0.8398 -2.1691 -1.0464
 1005MOL0     H35634   3.200  10.590   2.544  5.2597 -3.0687  1.8498
 1005MOL0     H35635   3.279  10.938   2.785  0.5758 -2.3386 -0.1631
 1005MOL0     H35636   3.164  11.051   3.124  1.8217  0.9623  0.9215
 1005MOL0     H35637   3.302  11.030   3.024 -0.1372 -0.7886  0.1217
 1005MOL0     H35638   3.202  11.181   3.008 -2.0802 -0.2310 -3.0453
 1005MOL0     H35639   3.047  11.391   3.136 -1.0756  1.4207 -0.5575
 1005MOL0     H35640   2.976  11.544   3.309 -0.1487 -0.8582  4.8270
 1005MOL0     H35641   2.887  11.521   3.541 -0.6614  0.2157  2.7176
 1005MOL0     H35642   2.832  11.682   3.498  1.8816 -0.3025 -1.8692
 1005MOL0     H35643   2.694  11.493   3.697  3.6480 -1.0670 -1.1176
 1005MOL0     H35644   2.814  11.615   3.735  1.6823 -0.7915 -1.2418
 1005MOL0     H35645   2.552  11.684   3.619 -0.0091  1.8308 -0.5046
 1005MOL0     H35646   2.689  11.795   3.641 -0.0290 -1.7967 -2.7544
 1005MOL0     H35647   2.513  11.759   3.850  0.2939  0.5470  3.3730
 1005MOL0     H35648   2.638  11.641   3.880 -0.6951 -0.1809  0.2167
 1005MOL0     H35649   2.694  11.937   3.823 -0.1296  2.7323  2.8720
 1005MOL0     H35650   2.811  11.830   3.911 -0.1912  1.4153 -1.7337
 1005MOL0     H35651   2.537  11.899   3.993 -0.6349 -2.1342  3.0454
 1005MOL0     H35652   2.662  11.826   4.091 -1.5129 -0.0163  0.3679
 1005MOL0     H35653   2.803  12.012   4.120  0.4359 -0.6261  1.4222
 1005MOL0     H35654   2.647  12.041   4.195 -1.2931  2.2692 -0.4952
 1005MOL0     H35655   2.708  12.240   4.087 -1.0660  0.4440  0.3370
 1005MOL0     H35656   2.563  12.173   4.008  0.5507 -0.4295 -1.7245
 1005MOL0     H35657   2.586  11.379   3.306  0.5662  1.9559  0.7019
 1005MOL0     H35658   2.677  11.197   3.156  0.0828  0.1369  1.0181
 1005MOL0     H35659   2.799  10.935   2.819 -1.1708  0.3733  3.1754
 1005MOL0     H35660   2.901  10.791   2.676 -1.7609  1.4632  0.4858
 1005MOL0     H35661   3.119  10.517   1.500  1.3211  0.1435  1.7850
 1005MOL0     H35662   3.074  10.416   1.302 -1.6432 -1.7811 -0.4084
 1005MOL0     H35663   2.942   9.980   1.092  0.6205 -1.6740 -0.9976
 1005MOL0     H35664   2.879   9.897   0.891 -1.5136  0.2936 -0.3591
 1005MOL0     H35665   2.888   9.752   0.662 -0.3441 -1.2632  0.4669
 1005MOL0     H35666   2.792   9.896   0.662  0.4832  1.7197 -0.6386
 1005MOL0     H35667   2.956   9.801   0.414 -1.0387 -1.0364  0.1488
 1005MOL0     H35668   2.842   9.939   0.419 -1.2533 -0.1982  0.7498
 1005MOL0     H35669   2.724   9.771   0.313  2.6965 -1.0002 -0.4350
 1005MOL0     H35670   2.665   9.787   0.473 -1.6671 -1.2374 -2.8461
 1005MOL0     H35671   2.880   9.574   0.448 -0.4975 -2.0026  0.9891
 1005MOL0     H35672   2.735   9.527   0.360 -1.9207 -2.1162  2.0072
 1005MOL0     H35673   2.621   9.474   0.755  5.0628 -2.4896  0.6012
 1005MOL0     H35674   3.232  10.054   0.698  1.3172 -2.6064 -0.0625
 1005MOL0     H35675   3.314  10.146   0.915  0.6170 -1.0492 -3.1584
 1006MOL0     O35676   5.869   8.678   8.396 -0.4565  0.2324  0.2084
 1006MOL0     C35677   5.939   8.628   8.486  0.2545 -0.4707 -0.2040
 1006MOL0     O35678   6.070   8.662   8.513  0.4826 -0.2043 -0.4184
 1006MOL0     C35679   6.137   8.745   8.430  0.9331 -0.5654  0.9429
 1006MOL0     C35680   6.221   8.839   8.479  0.0610 -0.2345  0.3071
 1006MOL0     C35681   6.284   8.929   8.392  0.2591  0.3356 -0.2950
 1006MOL0     C35682   6.283   8.916   8.257 -0.0802 -0.6407  0.8762
 1006MOL0     O35683   6.370   8.993   8.181  0.4748  0.0714  0.0071
 1006MOL0     C35684   6.407   8.956   8.044 -0.3407  0.6400  0.2691
 1006MOL0     C35685   6.502   9.043   7.962 -0.6577 -0.4808 -0.0699
 1006MOL0     C35686   6.651   9.057   8.000 -0.0802 -0.3391 -1.1238
 1006MOL0     C35687   6.676   9.173   8.095  0.1629 -1.6237 -0.6003
 1006MOL0     C35688   6.602   9.165   8.222 -0.5865 -1.0025 -0.2227
 1006MOL0     C35689   6.667   9.245   8.339 -0.1928  0.7341  0.2360
 1006MOL0     C35690   6.611   9.200   8.475  0.2164 -0.6840 -0.1981
 1006MOL0     C35691   6.644   9.057   8.511 -0.4962  0.0924  0.3925
 1006MOL0     N35692   6.603   9.032   8.648 -0.2641 -0.9961 -0.0940
 1006MOL0     C35693   6.644   9.108   8.757 -0.2247  1.5725  0.4023
 1006MOL0     C35694   6.558   9.059   8.857 -0.0800 -0.7354 -0.4415
 1006MOL0     C35695   6.564   9.102   8.997  0.7580 -0.1156 -0.3350
 1006MOL0     C35696   6.431   9.167   9.056  0.4014 -0.1050  0.4580
 1006MOL0     C35697   6.329   9.058   9.100  0.0869 -0.4283  0.4501
 1006MOL0     C35698   6.202   9.112   9.174 -0.4030 -0.2917 -0.0965
 1006MOL0     O35699   6.236   9.177   9.303 -0.5692  0.1389  0.3936
 1006MOL0     C35700   6.127   9.211   9.379  0.1716  0.6120 -0.0084
 1006MOL0     C35701   6.033   9.109   9.413 -0.5684  0.2326  0.0735
 1006MOL0     C35702   5.921   9.135   9.486  0.5783 -0.7909  0.0854
 1006MOL0     C35703   5.843   9.015   9.518  0.5888 -0.0931 -0.3539
 1006MOL0     C35704   5.892   9.265   9.519  0.5379 -0.4262 -0.2119
 1006MOL0     C35705   5.775   9.318   9.598 -0.1200 -0.5191 -0.6220
 1006MOL0     O35706   5.785   9.453   9.629 -0.4182 -0.0244  0.0840
 1006MOL0     C35707   5.703   9.521   9.711 -0.2627  0.3897 -1.0262
 1006MOL0     C35708   5.645   9.634   9.659 -0.2175  1.3693 -0.2164
 1006MOL0     C35709   5.560   9.701   9.734  0.4991  0.0755 -0.5476
 1006MOL0     C35710   5.540   9.672   9.870  0.4351 -0.9263 -0.5417
 1006MOL0     O35711   5.452   9.750   9.957 -0.8935 -0.4883  1.1488
 1006MOL0     C35712   5.478   9.888   9.972  0.8218  0.2771  0.2985
 1006MOL0     C35713   5.405   9.917  10.104  0.7645 -0.8821 -0.3448
 1006MOL0     C35714   5.444   9.825  10.221  0.4154 -0.8561  0.9913
 1006MOL0     C35715   5.397   9.895  10.348  0.3678 -0.9367  0.3405
 1006MOL0     C35716   5.424   9.805  10.477 -0.3716 -0.0312  0.1380
 1006MOL0     C35717   5.337   9.851  10.597  0.4832  0.7867 -0.0200
 1006MOL0     C35718   5.386   9.801  10.738  0.2460  0.8039  0.9181
 1006MOL0     C35719   5.307   9.840  10.865  0.8433 -0.2216  0.4326
 1006MOL0    Cl35720   5.350  10.011  10.897  0.0718 -0.2416  0.0338
 1006MOL0     C35721   5.597   9.553   9.926  0.4326  0.0250 -0.1307
 1006MOL0     C35722   5.672   9.471   9.844  0.2754  0.0914  0.9191
 1006MOL0     O35723   5.691   9.240   9.639  0.3818 -1.0448  0.7866
 1006MOL0     C35724   5.985   9.367   9.488  0.0780 -0.3067  0.2472
 1006MOL0     C35725   6.102   9.341   9.421  0.1902  0.6331 -0.3440
 1006MOL0     N35726   6.477   8.961   8.811  0.0064  0.3658 -0.3591
 1006MOL0     N35727   6.498   8.958   8.687 -0.8946 -0.5149 -0.3346
 1006MOL0     C35728   6.204   8.809   8.206 -0.2305 -0.1265 -0.0273
 1006MOL0     C35729   6.138   8.722   8.295 -0.6633  0.5046  0.6103
 1006MOL0     C35730   5.866   8.531   8.571 -0.3298  0.4703  0.6795
 1006MOL0     C35731   5.736   8.498   8.551 -0.6805  0.5712  0.0559
 1006MOL0     C35732   5.677   8.420   8.651  0.2688  0.1836 -0.2005
 1006MOL0     C35733   5.740   8.376   8.768 -0.1986 -0.5533  0.5067
 1006MOL0     O35734   5.677   8.293   8.850  0.2435 -0.4531 -0.1876
 1006MOL0     C35735   5.751   8.258   8.969 -0.2388  0.3701 -0.3626
 1006MOL0     C35736   5.653   8.200   9.070  0.3499 -0.1998 -1.4652
 1006MOL0     C35737   5.616   8.054   9.040 -0.5541 -0.7406  0.3895
 1006MOL0     C35738   5.529   8.009   9.163 -0.0989 -0.0279  0.3621
 1006MOL0     C35739   5.476   7.874   9.157 -0.0677 -0.2491 -0.1776
 1006MOL0     C35740   5.435   7.767   9.164 -0.3542 -0.0393 -1.1343
 1006MOL0     C35741   5.878   8.408   8.773  1.0167  0.2201 -0.0236
 1006MOL0     C35742   5.949   8.476   8.677 -0.5023  0.1213  1.1947
 1006MOL0     H35743   6.230   8.857   8.585  1.6168  0.5690  0.0623
 1006MOL0     H35744   6.341   9.010   8.435  0.1442 -0.5056  1.5444
 1006MOL0     H35745   6.460   8.861   8.058  1.0960  1.7218  2.9988
 1006MOL0     H35746   6.316   8.935   7.987  1.9965 -0.6278 -3.3558
 1006MOL0     H35747   6.497   8.992   7.865  0.2312 -0.9500  0.1239
 1006MOL0     H35748   6.457   9.143   7.960 -0.6569 -0.4561  0.7025
 1006MOL0     H35749   6.691   8.968   8.049 -0.0119  1.8606  3.3544
 1006MOL0     H35750   6.693   9.077   7.901 -1.8616 -0.9123 -2.0474
 1006MOL0     H35751   6.782   9.167   8.123  0.3885  1.1817 -0.5914
 1006MOL0     H35752   6.658   9.268   8.043 -2.0403 -0.3312  2.2568
 1006MOL0     H35753   6.499   9.200   8.220 -0.1717  0.2616 -0.2518
 1006MOL0     H35754   6.602   9.059   8.249  0.9957 -1.5493 -2.1379
 1006MOL0     H35755   6.775   9.228   8.343 -0.1921  1.0017  2.5494
 1006MOL0     H35756   6.650   9.352   8.326  0.5768  0.8159 -0.1440
 1006MOL0     H35757   6.640   9.258   8.564 -1.1490 -1.5070  0.8199
 1006MOL0     H35758   6.504   9.223   8.476 -0.2263 -2.2498  3.5114
 1006MOL0     H35759   6.753   9.052   8.497 -0.6103 -0.3733 -0.3760
 1006MOL0     H35760   6.590   8.991   8.443 -1.3696  2.4220 -1.3035
 1006MOL0     H35761   6.719   9.185   8.769  0.9909  0.7306 -1.4573
 1006MOL0     H35762   6.582   9.022   9.070  1.0615 -2.4699 -2.8090
 1006MOL0     H35763   6.654   9.160   9.019  0.1117  1.1306 -0.8504
 1006MOL0     H35764   6.386   9.231   8.979 -1.3539 -0.7145  0.9445
 1006MOL0     H35765   6.444   9.235   9.141 -3.4313  0.7023  0.5773
 1006MOL0     H35766   6.354   8.988   9.180 -2.9900 -0.5107  1.4799
 1006MOL0     H35767   6.295   8.998   9.015  1.7241 -5.9529  3.1867
 1006MOL0     H35768   6.133   9.028   9.190  0.4719 -0.7323  1.7547
 1006MOL0     H35769   6.157   9.193   9.117  0.4385  1.0001  1.0063
 1006MOL0     H35770   6.042   9.009   9.372 -0.3260  0.0799  0.4873
 1006MOL0     H35771   5.824   9.004   9.625  0.7892  0.1352 -0.2933
 1006MOL0     H35772   5.743   9.023   9.475 -1.1509  3.6794  3.6166
 1006MOL0     H35773   5.898   8.928   9.479  2.0746  1.0987 -1.0320
 1006MOL0     H35774   5.686   9.667   9.564  1.6863 -0.3994 -0.0706
 1006MOL0     H35775   5.507   9.777   9.677  0.6361  1.7314  1.4170
 1006MOL0     H35776   5.583   9.918   9.985  1.0967 -0.9112  1.0298
 1006MOL0     H35777   5.435   9.938   9.886 -0.7672  3.7910  2.8891
 1006MOL0     H35778   5.421  10.017  10.146 -0.4019 -0.2161 -1.4079
 1006MOL0     H35779   5.300   9.900  10.076  0.5732 -1.7872  0.8368
 1006MOL0     H35780   5.553   9.818  10.223  0.6629  0.4422 -2.1870
 1006MOL0     H35781   5.397   9.726  10.219  1.3201 -1.3004 -0.8173
 1006MOL0     H35782   5.442   9.993  10.366 -1.1145 -0.1190 -0.2280
 1006MOL0     H35783   5.291   9.919  10.340  0.0819 -1.5957  1.7794
 1006MOL0     H35784   5.526   9.820  10.511 -0.2343 -1.9565  0.6743
 1006MOL0     H35785   5.404   9.700  10.455  0.1350  0.1403 -1.2505
 1006MOL0     H35786   5.359   9.957  10.611  1.8321  0.4550  0.4867
 1006MOL0     H35787   5.228   9.852  10.582  0.3597  5.3238 -0.3576
 1006MOL0     H35788   5.492   9.822  10.753  0.0993  0.7052  2.1721
 1006MOL0     H35789   5.366   9.695  10.720  1.5160  0.7594 -0.4478
 1006MOL0     H35790   5.340   9.767  10.939 -0.6492 -2.3235 -0.8766
 1006MOL0     H35791   5.200   9.821  10.849  1.1950 -0.9961 -1.2486
 1006MOL0     H35792   5.560   9.523  10.024 -3.3794 -1.3603 -1.7717
 1006MOL0     H35793   5.712   9.382   9.890  1.3308 -0.1200 -0.3681
 1006MOL0     H35794   5.965   9.470   9.517 -0.5456 -0.6448  1.0725
 1006MOL0     H35795   6.165   9.423   9.387  1.5153 -1.0164 -2.0389
 1006MOL0     H35796   6.212   8.769   8.106  2.1489  1.0959 -0.4112
 1006MOL0     H35797   6.065   8.657   8.247  1.3130  0.0725 -2.0464
 1006MOL0     H35798   5.679   8.525   8.463  1.2342  1.0800 -1.1024
 1006MOL0     H35799   5.578   8.379   8.634  0.2377 -0.2815  0.9580
 1006MOL0     H35800   5.829   8.188   8.938  0.5141  1.7426 -1.6347
 1006MOL0     H35801   5.797   8.347   9.011 -0.0757  0.6890 -1.2101
 1006MOL0     H35802   5.572   8.272   9.084  2.9306  2.3872  2.3694
 1006MOL0     H35803   5.705   8.208   9.166 -0.2828  2.4888 -1.2796
 1006MOL0     H35804   5.699   7.984   9.027  1.4203  1.6886 -1.0584
 1006MOL0     H35805   5.566   8.056   8.943  0.8015  1.2302 -0.3298
 1006MOL0     H35806   5.446   8.079   9.160 -0.1963 -0.0735  1.4941
 1006MOL0     H35807   5.586   8.022   9.256 -2.9427 -1.2099  2.4264
 1006MOL0     H35808   5.396   7.667   9.169  0.8695 -0.4929 -0.1898
 1006MOL0     H35809   5.942   8.370   8.853  2.3914 -0.6915 -1.4797
 1006MOL0     H35810   6.052   8.503   8.695 -0.5135  0.0140  1.4216
 1007MOL0     O35811  10.628   6.783   0.772  0.8358 -0.4479 -0.3834
 1007MOL0     C35812  10.618   6.898   0.811  1.0535 -1.4315 -0.7515
 1007MOL0     O35813  10.646   6.931   0.934  0.5271  0.3880 -0.6260
 1007MOL0     C35814  10.672   6.829   1.027  0.0443  1.2536  0.3710
 1007MOL0     C35815  10.782   6.739   0.998  0.2794  0.4406 -0.0615
 1007MOL0     C35816  10.796   6.622   1.085 -0.3365  0.6413  0.3536
 1007MOL0     C35817  10.693   6.583   1.172  0.1365  0.8793 -0.0077
 1007MOL0     O35818  10.678   6.456   1.228  0.1265  0.3133  0.6946
 1007MOL0     C35819  10.794   6.394   1.279 -0.0902 -0.0051  0.3589
 1007MOL0     C35820  10.790   6.250   1.220  0.6567  1.0811 -0.2098
 1007MOL0     C35821  10.921   6.179   1.261  0.2955 -0.4514  0.2192
 1007MOL0     C35822  10.925   6.021   1.243  0.1730  0.0909 -0.8817
 1007MOL0     C35823  11.049   5.968   1.326  0.5761  0.7900 -0.2323
 1007MOL0     C35824  10.979   5.934   1.465 -0.5058  1.0746  0.3772
 1007MOL0     C35825  11.079   5.879   1.560 -0.2499 -0.5954 -0.4869
 1007MOL0     C35826  11.164   5.761   1.529  0.0073  0.5270  0.1372
 1007MOL0     N35827  11.252   5.718   1.643  0.0819  0.5448  0.1349
 1007MOL0     C35828  11.231   5.715   1.780 -0.5648 -0.3354  0.5894
 1007MOL0     C35829  11.341   5.672   1.835 -0.1982  0.0566 -0.6361
 1007MOL0     C35830  11.358   5.642   1.980 -0.0256  0.2726  1.1620
 1007MOL0     C35831  11.398   5.495   2.011  0.3194  0.7889 -0.6208
 1007MOL0     C35832  11.321   5.393   1.935 -0.2526  0.0581  0.8315
 1007MOL0     C35833  11.165   5.401   1.956 -0.2498  0.8131  0.2712
 1007MOL0     O35834  11.103   5.302   1.869  0.4767  0.1448  0.7915
 1007MOL0     C35835  11.065   5.342   1.743  0.0397 -0.0127 -0.4754
 1007MOL0     C35836  11.141   5.311   1.639 -0.5697 -0.3598  0.3938
 1007MOL0     C35837  11.130   5.368   1.511  0.0142 -0.0526 -1.5747
 1007MOL0     C35838  11.238   5.334   1.415 -0.2098 -0.0385 -0.5537
 1007MOL0     C35839  11.020   5.453   1.487  0.0777 -1.0002  0.1292
 1007MOL0     C35840  10.988   5.503   1.356 -0.4809 -0.2450 -0.2205
 1007MOL0     O35841  10.868   5.566   1.329  0.0715 -0.3568  0.2048
 1007MOL0     C35842  10.832   5.617   1.209 -0.1806 -0.9005  0.5437
 1007MOL0     C35843  10.922   5.690   1.126  0.6296 -0.2872  0.2215
 1007MOL0     C35844  10.879   5.749   1.003  0.4816 -0.1174 -0.6935
 1007MOL0     C35845  10.749   5.722   0.948  0.9163  0.0014  0.3344
 1007MOL0     O35846  10.695   5.773   0.833 -0.1785 -0.3578  0.7110
 1007MOL0     C35847  10.732   5.902   0.802  0.3932  0.3395  0.1653
 1007MOL0     C35848  10.641   5.951   0.695  0.7829 -0.6167  0.0328
 1007MOL0     C35849  10.660   6.102   0.653 -0.0314 -0.5511 -0.3080
 1007MOL0     C35850  10.586   6.205   0.740  0.5633 -0.0861  0.6017
 1007MOL0     C35851  10.596   6.349   0.683  0.7186  0.8595  0.5053
 1007MOL0     C35852  10.479   6.377   0.576  0.1666 -0.1245  0.8248
 1007MOL0     C35853  10.502   6.506   0.497 -0.2587  1.1208 -0.6663
 1007MOL0     C35854  10.391   6.516   0.397  0.0113  0.3846  0.3894
 1007MOL0    Cl35855  10.430   6.410   0.255  0.1932 -0.4923  0.1531
 1007MOL0     C35856  10.669   5.640   1.028 -0.1521 -0.7435  0.0738
 1007MOL0     C35857  10.706   5.597   1.158  1.1761  0.1654 -0.2891
 1007MOL0     O35858  11.076   5.491   1.273 -0.2143  0.8080 -0.2727
 1007MOL0     C35859  10.937   5.487   1.594  0.7663  0.8295  0.5586
 1007MOL0     C35860  10.962   5.434   1.721  0.0644 -0.0628  0.7143
 1007MOL0     N35861  11.440   5.649   1.739  0.2854  0.7022 -0.7497
 1007MOL0     N35862  11.387   5.684   1.632  0.8749 -0.4025 -1.2135
 1007MOL0     C35863  10.591   6.681   1.201 -1.3300  0.6335  0.6761
 1007MOL0     C35864  10.581   6.805   1.132  0.4411  0.9750 -0.2333
 1007MOL0     C35865  10.573   7.001   0.714  0.1591 -0.0368  0.3791
 1007MOL0     C35866  10.521   6.968   0.591  1.1673 -1.1727  0.8106
 1007MOL0     C35867  10.486   7.058   0.489 -1.4734 -0.4525  0.2200
 1007MOL0     C35868  10.493   7.194   0.522 -0.4669 -0.0785 -0.3454
 1007MOL0     O35869  10.477   7.274   0.411 -0.1333 -0.1100 -0.0577
 1007MOL0     C35870  10.561   7.383   0.408 -1.0598  0.3299  0.5449
 1007MOL0     C35871  10.588   7.429   0.259 -0.0692  0.5184  0.3982
 1007MOL0     C35872  10.685   7.558   0.254 -0.4609 -1.0080  0.1614
 1007MOL0     C35873  10.631   7.678   0.332 -0.6023  0.2199  0.2825
 1007MOL0     C35874  10.495   7.705   0.294 -0.5945  0.0024  0.4683
 1007MOL0     C35875  10.382   7.714   0.243  0.4887  0.5569  0.0685
 1007MOL0     C35876  10.534   7.229   0.653  0.0419 -0.4459 -0.2255
 1007MOL0     C35877  10.561   7.137   0.748  0.7462 -0.2651  0.0208
 1007MOL0     H35878  10.841   6.747   0.907 -0.8106  1.9832 -0.6842
 1007MOL0     H35879  10.877   6.554   1.059 -0.6180  0.0967  0.8704
 1007MOL0     H35880  10.884   6.438   1.234 -1.4088 -2.4026 -5.5919
 1007MOL0     H35881  10.807   6.396   1.387 -1.4601  3.7439  0.5812
 1007MOL0     H35882  10.696   6.212   1.261  1.5282 -0.2391  0.6675
 1007MOL0     H35883  10.789   6.253   1.110  0.9491 -0.7605 -0.3079
 1007MOL0     H35884  10.998   6.218   1.194  0.1175 -4.7344 -2.8884
 1007MOL0     H35885  10.943   6.202   1.366  3.5474  2.6741 -0.9204
 1007MOL0     H35886  10.833   5.973   1.275 -1.5767  2.4189 -2.0892
 1007MOL0     H35887  10.941   6.004   1.136 -0.1394 -0.4375 -0.8434
 1007MOL0     H35888  11.095   5.878   1.286  0.1691 -0.2582  1.5361
 1007MOL0     H35889  11.115   6.055   1.338  1.0378  0.4208 -0.0769
 1007MOL0     H35890  10.928   6.023   1.504 -3.1786 -0.9680  1.8849
 1007MOL0     H35891  10.904   5.855   1.464  0.3621  0.2058 -1.8204
 1007MOL0     H35892  11.153   5.957   1.581  0.4784 -1.7988  1.8140
 1007MOL0     H35893  11.037   5.864   1.660  1.8125  0.4329  0.5956
 1007MOL0     H35894  11.226   5.767   1.440  2.2016 -3.2495  1.1583
 1007MOL0     H35895  11.099   5.676   1.504  2.0726 -0.5750 -1.9373
 1007MOL0     H35896  11.140   5.735   1.836  0.6360  0.4763  2.3648
 1007MOL0     H35897  11.438   5.706   2.021  1.5805 -1.2138  0.4576
 1007MOL0     H35898  11.264   5.669   2.029 -0.7770 -3.8426  2.3718
 1007MOL0     H35899  11.393   5.469   2.117 -0.7710  1.4257 -0.5036
 1007MOL0     H35900  11.503   5.480   1.984 -0.1349  0.5358 -2.3638
 1007MOL0     H35901  11.350   5.290   1.956  0.4795  0.2602  0.8178
 1007MOL0     H35902  11.356   5.406   1.832 -0.2086 -2.7692  0.3975
 1007MOL0     H35903  11.123   5.500   1.934 -0.3943  0.6191 -0.3737
 1007MOL0     H35904  11.141   5.367   2.057  2.2527 -1.6280  0.1519
 1007MOL0     H35905  11.231   5.250   1.650 -0.4234 -0.7166 -2.2205
 1007MOL0     H35906  11.188   5.294   1.326 -3.6396 -0.1855  1.2977
 1007MOL0     H35907  11.292   5.424   1.384 -0.9936  0.9665  0.9268
 1007MOL0     H35908  11.304   5.261   1.463 -0.1836 -0.7201 -1.5768
 1007MOL0     H35909  11.027   5.696   1.155  0.6898  2.4861 -0.2912
 1007MOL0     H35910  10.954   5.819   0.968 -1.8946  2.2253 -1.4708
 1007MOL0     H35911  10.704   5.965   0.887 -0.5905  2.4836 -1.6365
 1007MOL0     H35912  10.837   5.904   0.772  0.1116 -2.2458 -1.2787
 1007MOL0     H35913  10.646   5.901   0.598 -0.0122  0.4289 -0.5622
 1007MOL0     H35914  10.535   5.945   0.720  0.5547 -1.0432 -0.9817
 1007MOL0     H35915  10.626   6.117   0.550 -1.6446  1.3872  0.4520
 1007MOL0     H35916  10.764   6.136   0.659 -0.4226  0.5076  0.9407
 1007MOL0     H35917  10.486   6.163   0.742  0.6860 -0.3669  1.4285
 1007MOL0     H35918  10.617   6.210   0.845 -0.9623  5.1773  1.1130
 1007MOL0     H35919  10.696   6.361   0.639  2.4311 -1.2569  3.4175
 1007MOL0     H35920  10.597   6.430   0.756 -0.2913  3.7562 -2.4167
 1007MOL0     H35921  10.487   6.294   0.505 -1.6272  1.7034 -1.6668
 1007MOL0     H35922  10.379   6.387   0.618  0.3586  0.5529  1.1249
 1007MOL0     H35923  10.606   6.515   0.462  1.2264  0.5125  3.1303
 1007MOL0     H35924  10.497   6.589   0.568  1.0964  1.7443 -1.2606
 1007MOL0     H35925  10.386   6.620   0.366 -3.7111  0.4048  0.5674
 1007MOL0     H35926  10.294   6.494   0.442 -0.6353  0.8311 -0.7450
 1007MOL0     H35927  10.569   5.615   0.993 -0.7139 -0.3377  1.3273
 1007MOL0     H35928  10.636   5.541   1.219  1.7439  1.2668  1.4679
 1007MOL0     H35929  10.860   5.562   1.576  0.0950 -0.0266 -0.2489
 1007MOL0     H35930  10.900   5.462   1.805 -1.7461 -3.7385  0.7698
 1007MOL0     H35931  10.529   6.643   1.282  0.4995 -0.2816  1.7220
 1007MOL0     H35932  10.506   6.879   1.157 -0.7790  0.3986 -2.0039
 1007MOL0     H35933  10.517   6.864   0.560  2.0153 -1.1266  0.5186
 1007MOL0     H35934  10.445   7.025   0.394 -0.0528  1.0889 -0.9889
 1007MOL0     H35935  10.510   7.464   0.462 -0.7505  0.3604  0.8004
 1007MOL0     H35936  10.655   7.374   0.463 -1.0553 -2.3420  0.2257
 1007MOL0     H35937  10.501   7.426   0.193 -2.3402 -3.0200  3.1625
 1007MOL0     H35938  10.651   7.347   0.223  3.9021  2.2451  2.7455
 1007MOL0     H35939  10.714   7.592   0.154  0.2211 -0.1386  0.6445
 1007MOL0     H35940  10.783   7.525   0.289 -0.9461 -3.9823 -0.9892
 1007MOL0     H35941  10.689   7.769   0.315 -0.9883  0.1178 -1.8490
 1007MOL0     H35942  10.634   7.663   0.440  2.4324  2.2639  0.6096
 1007MOL0     H35943  10.283   7.730   0.206 -0.4728  0.0675  2.2797
 1007MOL0     H35944  10.554   7.331   0.684 -0.4472  0.3929 -2.5140
 1007MOL0     H35945  10.598   7.170   0.845  0.1373 -1.5079  0.6944
 1008MOL0     O35946   6.349  10.711   0.030 -0.5683 -0.0160  0.0893
 1008MOL0     C35947   6.402  10.601   0.009 -0.3233 -0.2726  0.2560
 1008MOL0     O35948   6.541  10.572   0.019 -0.3866  0.0122  0.2115
 1008MOL0     C35949   6.650  10.658   0.015  0.2576 -0.0922 -0.7548
 1008MOL0     C35950   6.775  10.608   0.025 -0.9121 -0.3401 -0.5636
 1008MOL0     C35951   6.894  10.683   0.010  0.5059 -0.0551  0.0510
 1008MOL0     C35952   6.878  10.819  -0.013  0.5130 -0.8098 -0.0412
 1008MOL0     O35953   6.985  10.898  -0.028 -0.4224 -0.5197  0.7714
 1008MOL0     C35954   7.099  10.841  -0.104 -0.0967 -0.8895 -0.1303
 1008MOL0     C35955   7.225  10.919  -0.115  0.5603  0.3388 -0.4656
 1008MOL0     C35956   7.316  10.865  -0.225  0.5224  0.6497 -0.0115
 1008MOL0     C35957   7.388  10.962  -0.317  0.1690  0.3530 -0.0491
 1008MOL0     C35958   7.292  10.993  -0.436  0.5319  0.5443 -0.1808
 1008MOL0     C35959   7.310  11.130  -0.515 -1.0971  0.2418  0.1372
 1008MOL0     C35960   7.229  11.126  -0.655  0.2315 -0.3237  0.0011
 1008MOL0     C35961   7.242  11.277  -0.727 -0.4780  1.6723 -0.2294
 1008MOL0     N35962   7.197  11.263  -0.865  0.5512 -0.1578  0.1989
 1008MOL0     C35963   7.068  11.286  -0.908 -0.2870  0.1814 -0.2177
 1008MOL0     C35964   7.078  11.279  -1.046 -0.4314  0.1179 -0.3306
 1008MOL0     C35965   6.960  11.298  -1.147  0.7824 -0.4549 -0.3208
 1008MOL0     C35966   6.998  11.374  -1.268  0.6729 -0.2216 -0.5692
 1008MOL0     C35967   7.113  11.318  -1.347 -0.8890 -0.3467 -0.1616
 1008MOL0     C35968   7.160  11.427  -1.448  0.2740 -0.2445 -0.3850
 1008MOL0     O35969   7.272  11.485  -1.389  0.4036 -0.1727  0.9377
 1008MOL0     C35970   7.355  11.560  -1.468 -0.0024 -0.0180 -0.1861
 1008MOL0     C35971   7.349  11.577  -1.611 -0.1195  0.1673 -0.1155
 1008MOL0     C35972   7.448  11.648  -1.680  0.1351 -0.4655 -0.1517
 1008MOL0     C35973   7.465  11.649  -1.831 -0.6891  0.6963  0.4147
 1008MOL0     C35974   7.553  11.710  -1.600 -0.5076 -0.2803  0.1599
 1008MOL0     C35975   7.673  11.787  -1.651 -0.7835  0.5383 -0.0238
 1008MOL0     O35976   7.654  11.885  -1.734  0.1561  0.1836  0.0870
 1008MOL0     C35977   7.751  11.974  -1.773  0.1590 -0.7394 -1.0933
 1008MOL0     C35978   7.874  11.947  -1.833  0.6359  0.5737  0.1585
 1008MOL0     C35979   7.958  12.058  -1.869  0.3517 -0.3574 -0.2132
 1008MOL0     C35980   7.933  12.195  -1.823 -0.0940  0.3262  0.3508
 1008MOL0     O35981   8.032  12.280  -1.847 -0.1592  0.3363  0.3297
 1008MOL0     C35982   8.040  12.412  -1.788  0.3794 -0.6447  0.7484
 1008MOL0     C35983   8.172  12.487  -1.843 -0.6740 -0.0285  0.1531
 1008MOL0     C35984   8.295  12.393  -1.831 -0.2034  0.9968  0.4371
 1008MOL0     C35985   8.420  12.470  -1.816  0.2120  0.2725  1.1207
 1008MOL0     C35986   8.540  12.371  -1.817 -0.2685  0.1562 -0.6126
 1008MOL0     C35987   8.635  12.409  -1.924  0.5513 -0.6398 -0.3465
 1008MOL0     C35988   8.704  12.545  -1.907 -0.7884  0.1016  0.6446
 1008MOL0     C35989   8.834  12.562  -1.991  0.1459 -0.4401  0.5988
 1008MOL0    Cl35990   8.953  12.426  -1.977  0.0944 -0.3312  0.2200
 1008MOL0     C35991   7.824  12.204  -1.739 -0.2516 -0.5513  0.3555
 1008MOL0     C35992   7.736  12.106  -1.712  0.0018  0.2861  1.0750
 1008MOL0     O35993   7.785  11.755  -1.604 -0.3283  0.1005 -0.0406
 1008MOL0     C35994   7.543  11.706  -1.463 -0.7092  0.3631 -0.2098
 1008MOL0     C35995   7.445  11.634  -1.393 -0.2623  0.2288 -0.2961
 1008MOL0     N35996   7.203  11.240  -1.062  0.4536 -0.2965  0.0810
 1008MOL0     N35997   7.286  11.245  -0.964  0.3661  0.0330 -0.4122
 1008MOL0     C35998   6.749  10.876  -0.020  0.6321 -0.3052 -0.0320
 1008MOL0     C35999   6.637  10.795  -0.004  1.1452  0.2280  0.2933
 1008MOL0     C36000   6.321  10.481   0.000 -0.7052 -0.7310  0.3818
 1008MOL0     C36001   6.180  10.501  -0.012  1.0170  0.7003 -0.0141
 1008MOL0     C36002   6.097  10.390  -0.002 -0.4152 -0.6490 -0.3902
 1008MOL0     C36003   6.145  10.259   0.018  0.0497  0.0762 -0.2974
 1008MOL0     O36004   6.074  10.139   0.030 -0.1072  0.0620 -0.8187
 1008MOL0     C36005   5.935  10.146   0.050 -0.2689 -0.0402  0.4934
 1008MOL0     C36006   5.888  10.027   0.123 -0.1741  0.0674  0.2562
 1008MOL0     C36007   5.921   9.897   0.059 -0.0623  0.2020 -0.0479
 1008MOL0     C36008   5.853   9.774   0.109 -0.2945  0.0513 -0.1705
 1008MOL0     C36009   5.901   9.652   0.035 -1.0955 -1.1497  0.1894
 1008MOL0     C36010   5.919   9.554  -0.029  0.6439 -0.1052 -0.6250
 1008MOL0     C36011   6.288  10.252   0.021 -0.2526 -0.6305 -0.9275
 1008MOL0     C36012   6.373  10.358   0.011 -0.3845 -0.4101  0.4576
 1008MOL0     H36013   6.791  10.503   0.046 -0.1059  0.2313  1.9257
 1008MOL0     H36014   6.992  10.641   0.030  1.8396  2.5093 -0.6782
 1008MOL0     H36015   7.137  10.748  -0.062  0.9833 -0.0954  0.7066
 1008MOL0     H36016   7.055  10.833  -0.204 -1.2241  0.6010  0.1978
 1008MOL0     H36017   7.193  11.023  -0.128 -3.2542 -0.8462 -2.0795
 1008MOL0     H36018   7.273  10.923  -0.017 -2.5664  1.5915  1.1554
 1008MOL0     H36019   7.400  10.811  -0.181 -0.3147  2.3310  4.1882
 1008MOL0     H36020   7.259  10.801  -0.294  0.7047 -1.0877  1.3677
 1008MOL0     H36021   7.408  11.050  -0.256 -1.1452  1.0366 -0.5623
 1008MOL0     H36022   7.481  10.930  -0.366 -1.4812 -0.3731 -2.9554
 1008MOL0     H36023   7.285  10.913  -0.510 -2.6974 -0.7937  1.3689
 1008MOL0     H36024   7.190  11.007  -0.399  1.3157  0.9658  1.9534
 1008MOL0     H36025   7.283  11.218  -0.456 -2.1548  0.2812 -0.3856
 1008MOL0     H36026   7.414  11.132  -0.552 -1.4978 -1.0420 -1.1474
 1008MOL0     H36027   7.273  11.054  -0.725 -1.3982  0.5599 -2.0318
 1008MOL0     H36028   7.127  11.092  -0.634  0.6658 -4.4189 -3.1906
 1008MOL0     H36029   7.349  11.298  -0.736 -0.2957  0.1297 -2.7699
 1008MOL0     H36030   7.201  11.360  -0.668 -3.0121  1.0092 -0.9438
 1008MOL0     H36031   6.984  11.313  -0.845 -0.6510 -1.1507 -0.0988
 1008MOL0     H36032   6.923  11.198  -1.172 -2.0917  0.3181  0.4958
 1008MOL0     H36033   6.882  11.361  -1.103  1.2208 -1.4506  2.0550
 1008MOL0     H36034   7.007  11.477  -1.232 -0.7484 -0.8362  1.8020
 1008MOL0     H36035   6.920  11.378  -1.345  1.4679  3.0029 -1.3517
 1008MOL0     H36036   7.077  11.232  -1.404 -0.6975 -1.1266  0.8764
 1008MOL0     H36037   7.195  11.280  -1.286 -0.2542 -1.8189 -1.8686
 1008MOL0     H36038   7.081  11.500  -1.467 -0.5969 -0.9973  0.2587
 1008MOL0     H36039   7.186  11.378  -1.543 -0.3262  0.0793 -0.7217
 1008MOL0     H36040   7.276  11.524  -1.671  3.2054 -6.1107  0.5288
 1008MOL0     H36041   7.571  11.652  -1.855 -0.5747  1.2574  0.9609
 1008MOL0     H36042   7.421  11.562  -1.879 -2.2940  0.7019  1.7609
 1008MOL0     H36043   7.411  11.738  -1.865 -2.8305 -1.3764 -1.9814
 1008MOL0     H36044   7.896  11.852  -1.880  0.5255  0.2200  0.8135
 1008MOL0     H36045   8.045  12.038  -1.930 -0.2274  3.0386 -2.3774
 1008MOL0     H36046   7.951  12.473  -1.803  2.2987  1.9547 -0.9191
 1008MOL0     H36047   8.054  12.404  -1.679 -0.4761  1.2811  1.0490
 1008MOL0     H36048   8.157  12.516  -1.947  1.9130  2.0078  0.2216
 1008MOL0     H36049   8.188  12.578  -1.785 -2.3808  1.6767 -1.8819
 1008MOL0     H36050   8.311  12.329  -1.918  1.9028  1.4261  0.4451
 1008MOL0     H36051   8.283  12.316  -1.754  0.8389 -0.8910 -1.1793
 1008MOL0     H36052   8.423  12.536  -1.903  0.6674 -0.2355  0.7487
 1008MOL0     H36053   8.420  12.528  -1.723 -0.4974  2.6948 -0.3129
 1008MOL0     H36054   8.507  12.267  -1.828  0.1306 -0.1511  0.8930
 1008MOL0     H36055   8.583  12.366  -1.717 -2.4980 -1.3493  0.3396
 1008MOL0     H36056   8.713  12.332  -1.912 -1.2092 -2.7609 -1.7181
 1008MOL0     H36057   8.589  12.398  -2.023 -2.8613 -1.8353  1.2300
 1008MOL0     H36058   8.736  12.544  -1.802  0.9652 -1.6275  0.1353
 1008MOL0     H36059   8.640  12.634  -1.912 -0.5069  0.2255 -1.0111
 1008MOL0     H36060   8.880  12.657  -1.963 -1.4582  0.0964  1.5391
 1008MOL0     H36061   8.806  12.565  -2.097  1.7160  0.3473  0.1863
 1008MOL0     H36062   7.804  12.302  -1.698  0.9915 -0.5188  0.9224
 1008MOL0     H36063   7.663  12.132  -1.637  0.4853  3.2703  0.6101
 1008MOL0     H36064   7.613  11.766  -1.406  2.4196 -4.1063  1.2010
 1008MOL0     H36065   7.442  11.628  -1.285 -0.6013  0.8616 -0.2652
 1008MOL0     H36066   6.744  10.983  -0.036 -1.9428 -0.6373 -2.2055
 1008MOL0     H36067   6.537  10.838  -0.003 -0.1638 -2.5729  2.2190
 1008MOL0     H36068   6.143  10.598  -0.043 -2.9960 -0.7315 -0.2962
 1008MOL0     H36069   5.991  10.416  -0.005 -0.2918  0.0876  0.8130
 1008MOL0     H36070   5.921  10.234   0.114  2.7890 -0.0278  1.2748
 1008MOL0     H36071   5.879  10.153  -0.044  0.1401 -0.4724  0.2164
 1008MOL0     H36072   5.779  10.036   0.110  0.0793  1.0970 -1.2828
 1008MOL0     H36073   5.929  10.031   0.225  0.4323 -2.2724  0.1785
 1008MOL0     H36074   6.030   9.895   0.064 -0.0493  0.1355 -0.3354
 1008MOL0     H36075   5.894   9.911  -0.046  3.3773  1.4239 -0.9038
 1008MOL0     H36076   5.744   9.782   0.109 -0.8151 -4.5391 -0.0273
 1008MOL0     H36077   5.887   9.753   0.211 -1.0174 -1.3633 -0.1894
 1008MOL0     H36078   5.918   9.464  -0.087 -2.6346  0.1547 -1.1931
 1008MOL0     H36079   6.324  10.149   0.020 -2.2341 -1.3985  0.2126
 1008MOL0     H36080   6.479  10.344  -0.006 -0.4085  0.4218 -0.4746
 1009MOL0     O36081   4.163   3.224   0.573 -0.3865 -0.1302 -0.2946
 1009MOL0     C36082   4.282   3.220   0.571 -0.3772  0.7012  0.2537
 1009MOL0     O36083   4.353   3.108   0.553 -0.0916  0.7155  0.5396
 1009MOL0     C36084   4.289   2.987   0.543 -0.2935 -0.9876  0.0927
 1009MOL0     C36085   4.203   2.962   0.437 -0.3234  0.7000  0.3144
 1009MOL0     C36086   4.128   2.840   0.436  0.3455  0.6143  0.1067
 1009MOL0     C36087   4.143   2.744   0.539  0.6209 -0.5577  0.1611
 1009MOL0     O36088   4.084   2.622   0.515 -0.3812 -0.6511 -0.5184
 1009MOL0     C36089   4.036   2.551   0.639  0.2046 -0.7676  0.2045
 1009MOL0     C36090   3.902   2.599   0.660  0.5715 -0.4352  0.0935
 1009MOL0     C36091   3.806   2.555   0.536 -0.1139 -0.0938 -0.1606
 1009MOL0     C36092   3.663   2.616   0.533  0.0830 -0.8372  0.5867
 1009MOL0     C36093   3.560   2.564   0.648  0.2013 -0.0467  0.3642
 1009MOL0     C36094   3.549   2.411   0.670  0.6921 -0.6363  0.1543
 1009MOL0     C36095   3.432   2.394   0.770  0.0141  0.0771 -0.1825
 1009MOL0     C36096   3.443   2.461   0.912  0.7526 -0.4961 -0.4871
 1009MOL0     N36097   3.564   2.428   0.983  0.6891 -0.6933 -0.1369
 1009MOL0     C36098   3.601   2.297   1.012  0.0534 -1.0635 -0.5430
 1009MOL0     C36099   3.728   2.303   1.040 -0.6049  0.0305 -0.3319
 1009MOL0     C36100   3.801   2.195   1.116  0.6483  0.6801  0.3314
 1009MOL0     C36101   3.825   2.222   1.270  0.4019 -0.3833  0.7116
 1009MOL0     C36102   3.932   2.333   1.287  0.3982  1.1574  0.1743
 1009MOL0     C36103   3.968   2.352   1.433  0.0121  0.3735  0.2062
 1009MOL0     O36104   3.850   2.351   1.513 -0.1082  0.0142 -0.2638
 1009MOL0     C36105   3.862   2.377   1.645 -0.5662 -0.9247 -0.0760
 1009MOL0     C36106   3.918   2.289   1.730  0.3866 -0.3422  1.5240
 1009MOL0     C36107   3.936   2.314   1.869 -0.5064 -0.4452 -0.5461
 1009MOL0     C36108   4.014   2.221   1.953  0.7029 -0.9386 -0.1815
 1009MOL0     C36109   3.880   2.439   1.923 -0.1416 -0.1182  0.1162
 1009MOL0     C36110   3.880   2.475   2.064  0.2440  0.5044 -0.4345
 1009MOL0     O36111   3.986   2.446   2.143  0.0976 -0.7998  0.4142
 1009MOL0     C36112   4.005   2.532   2.249 -0.1605  1.6429 -0.4360
 1009MOL0     C36113   4.131   2.592   2.260 -0.5562  0.1913 -0.6676
 1009MOL0     C36114   4.162   2.676   2.368 -0.4706  0.6052 -0.1366
 1009MOL0     C36115   4.076   2.684   2.477  0.3146 -0.2421 -0.6926
 1009MOL0     O36116   4.124   2.752   2.591  0.7152 -0.3323 -0.3799
 1009MOL0     C36117   4.065   2.732   2.722  0.0822 -0.7124 -0.1517
 1009MOL0     C36118   4.171   2.792   2.821  0.0014  0.6051 -1.1776
 1009MOL0     C36119   4.199   2.701   2.943  0.1360  0.5529  0.3451
 1009MOL0     C36120   4.076   2.655   3.023 -0.6246 -0.3203  0.9655
 1009MOL0     C36121   4.103   2.626   3.173  0.5900  0.5856  0.3290
 1009MOL0     C36122   4.190   2.494   3.186 -0.9661 -0.1832  0.3803
 1009MOL0     C36123   4.245   2.467   3.320  0.2263  1.2170  0.5594
 1009MOL0     C36124   4.339   2.568   3.373 -0.0580  0.5035 -0.9761
 1009MOL0    Cl36125   4.426   2.509   3.521  0.1450  0.0820 -0.3926
 1009MOL0     C36126   3.952   2.626   2.462  0.2758  0.2345 -1.0286
 1009MOL0     C36127   3.918   2.546   2.352  0.6700 -0.0522  1.1752
 1009MOL0     O36128   3.772   2.513   2.107  0.0875 -0.0458  0.3663
 1009MOL0     C36129   3.821   2.527   1.835 -0.6184 -0.4916 -0.4246
 1009MOL0     C36130   3.810   2.497   1.698  0.4030  0.3225 -0.5634
 1009MOL0     N36131   3.781   2.425   1.019  0.0608  0.3442  0.1418
 1009MOL0     N36132   3.681   2.500   0.985 -0.1456 -0.4868 -0.7043
 1009MOL0     C36133   4.234   2.770   0.646 -0.2595 -0.6430  0.1007
 1009MOL0     C36134   4.299   2.896   0.653  0.7504  0.5837 -0.3338
 1009MOL0     C36135   4.366   3.344   0.582  0.7710  0.1617  0.7182
 1009MOL0     C36136   4.296   3.471   0.610 -0.0132 -0.0757  0.2598
 1009MOL0     C36137   4.364   3.594   0.591 -0.9419 -0.4048 -0.4583
 1009MOL0     C36138   4.499   3.601   0.562  0.6804 -0.2150  0.0793
 1009MOL0     O36139   4.564   3.720   0.541 -0.2632 -0.3360 -0.3411
 1009MOL0     C36140   4.500   3.816   0.449 -0.5758 -0.2035  0.1299
 1009MOL0     C36141   4.544   3.778   0.304 -0.5171 -0.9257 -0.0147
 1009MOL0     C36142   4.517   3.880   0.192 -1.4421  0.0975  1.3286
 1009MOL0     C36143   4.369   3.894   0.136 -0.0507  0.1598 -0.3075
 1009MOL0     C36144   4.347   4.015   0.062 -0.3091 -0.3351  0.2294
 1009MOL0     C36145   4.331   4.129   0.011 -0.9130  0.5526 -0.3581
 1009MOL0     C36146   4.570   3.482   0.538  0.2778  1.5270 -0.4217
 1009MOL0     C36147   4.502   3.353   0.554 -0.4743 -1.1554 -0.1211
 1009MOL0     H36148   4.188   3.037   0.361 -2.0740 -3.0668 -3.4902
 1009MOL0     H36149   4.056   2.817   0.359  1.1579  1.1428 -0.8314
 1009MOL0     H36150   4.041   2.443   0.619  0.6130 -0.5628 -0.8578
 1009MOL0     H36151   4.099   2.574   0.725  0.4735 -2.8876  0.6411
 1009MOL0     H36152   3.858   2.562   0.753 -0.2056 -2.3404 -0.9702
 1009MOL0     H36153   3.904   2.708   0.661  0.2953 -0.4315  0.4479
 1009MOL0     H36154   3.857   2.589   0.446  0.3390  2.1114  0.8653
 1009MOL0     H36155   3.799   2.445   0.535 -2.2143  0.0109  0.0338
 1009MOL0     H36156   3.685   2.724   0.537  3.5751 -1.3389 -1.1579
 1009MOL0     H36157   3.615   2.588   0.439  0.7969 -0.6042  0.1364
 1009MOL0     H36158   3.602   2.606   0.739  3.0224 -0.8747 -0.4301
 1009MOL0     H36159   3.459   2.595   0.622 -1.3171 -3.5583  1.4509
 1009MOL0     H36160   3.518   2.362   0.577 -1.3753  3.1559 -1.3805
 1009MOL0     H36161   3.645   2.376   0.708  0.7260  0.1207  0.7845
 1009MOL0     H36162   3.335   2.433   0.737  1.0286  3.4824  0.4399
 1009MOL0     H36163   3.414   2.287   0.780  0.3485  0.1706  1.9727
 1009MOL0     H36164   3.351   2.429   0.961  0.1009  0.0529 -1.3176
 1009MOL0     H36165   3.435   2.569   0.904 -0.7974 -0.4196  1.5120
 1009MOL0     H36166   3.524   2.221   1.022  1.2256 -2.2472 -0.2666
 1009MOL0     H36167   3.730   2.112   1.106 -0.0587  1.4472 -1.6384
 1009MOL0     H36168   3.888   2.164   1.057 -0.4271  0.8232 -1.4232
 1009MOL0     H36169   3.858   2.129   1.317  0.6494 -1.2316 -1.0452
 1009MOL0     H36170   3.728   2.245   1.315 -0.1075 -1.6709  0.3468
 1009MOL0     H36171   3.893   2.427   1.249  1.1468  2.0420  1.5154
 1009MOL0     H36172   4.029   2.301   1.248 -0.1135 -0.6786  0.2985
 1009MOL0     H36173   4.034   2.433   1.463 -0.0285  0.6948 -0.5496
 1009MOL0     H36174   4.019   2.257   1.452 -1.5370 -0.9886 -1.9758
 1009MOL0     H36175   3.953   2.200   1.678  0.1853 -0.6982  1.9891
 1009MOL0     H36176   4.041   2.127   1.903  0.1201 -2.6066  2.4314
 1009MOL0     H36177   4.100   2.271   1.998 -0.3678  1.2870 -0.4485
 1009MOL0     H36178   3.946   2.194   2.034 -0.4423 -1.1954 -1.1953
 1009MOL0     H36179   4.193   2.570   2.174 -1.9516 -0.8867 -1.4344
 1009MOL0     H36180   4.257   2.729   2.369 -0.4761  0.8112 -2.9433
 1009MOL0     H36181   3.969   2.783   2.733 -1.7471 -3.4353 -2.1722
 1009MOL0     H36182   4.043   2.627   2.744  0.2416 -0.6703  0.2167
 1009MOL0     H36183   4.268   2.807   2.772  0.8619  0.9317  0.5206
 1009MOL0     H36184   4.138   2.888   2.861 -1.2127  0.2120 -1.1920
 1009MOL0     H36185   4.269   2.757   3.006  1.0277 -1.2524  1.0334
 1009MOL0     H36186   4.253   2.617   2.899 -0.9551  0.5033 -0.9548
 1009MOL0     H36187   3.986   2.716   3.008 -1.1947 -1.2864  0.3420
 1009MOL0     H36188   4.040   2.565   2.973  2.8794 -1.0306 -0.5355
 1009MOL0     H36189   4.006   2.609   3.221  0.3532 -0.7422 -0.5591
 1009MOL0     H36190   4.144   2.719   3.213 -1.7878  2.2744 -0.9229
 1009MOL0     H36191   4.135   2.410   3.142  0.5220  0.1230 -2.2555
 1009MOL0     H36192   4.278   2.508   3.123 -0.4230 -0.0899  1.1523
 1009MOL0     H36193   4.296   2.370   3.315 -0.8160  0.4040  3.6885
 1009MOL0     H36194   4.161   2.457   3.389  2.0721 -2.1882  2.5968
 1009MOL0     H36195   4.290   2.662   3.401  3.7624  2.2499  0.5253
 1009MOL0     H36196   4.400   2.597   3.287  1.4608 -0.2839 -0.2036
 1009MOL0     H36197   3.892   2.644   2.551  0.7047 -3.0318  0.0561
 1009MOL0     H36198   3.819   2.502   2.349  1.2756 -1.5371  1.8884
 1009MOL0     H36199   3.784   2.618   1.880  0.3957 -0.1604 -0.2365
 1009MOL0     H36200   3.762   2.574   1.639 -1.2254  0.1510  0.4685
 1009MOL0     H36201   4.254   2.692   0.718 -1.9148 -0.4173  0.8398
 1009MOL0     H36202   4.374   2.911   0.729  3.0912  4.2164 -3.0184
 1009MOL0     H36203   4.191   3.475   0.635  0.5743  0.5759  2.8855
 1009MOL0     H36204   4.309   3.687   0.602  1.8434  1.1304  2.0375
 1009MOL0     H36205   4.391   3.810   0.453 -0.8313  3.0196  0.5778
 1009MOL0     H36206   4.520   3.923   0.462 -0.9049  0.1973 -2.2515
 1009MOL0     H36207   4.506   3.680   0.274  1.1467 -1.8617  0.8017
 1009MOL0     H36208   4.652   3.772   0.315 -0.2894  1.9570  0.0672
 1009MOL0     H36209   4.584   3.854   0.109 -1.2318  1.2173  1.1263
 1009MOL0     H36210   4.552   3.980   0.219 -1.0685  1.0278 -2.0473
 1009MOL0     H36211   4.303   3.867   0.219  1.5548 -0.9255  0.6732
 1009MOL0     H36212   4.349   3.816   0.062  1.2231 -1.1374  0.6672
 1009MOL0     H36213   4.308   4.223  -0.035  0.4040  1.3535  0.5608
 1009MOL0     H36214   4.677   3.484   0.518  0.3659  2.0839  0.0974
 1009MOL0     H36215   4.545   3.265   0.508 -1.5607 -1.4438 -0.6065
 1010MOL0     O36216   2.763   0.991   5.826 -0.2099 -0.0965  0.7198
 1010MOL0     C36217   2.799   0.939   5.932  1.1883  0.4410 -0.0369
 1010MOL0     O36218   2.776   0.809   5.968 -0.0586 -0.0725 -0.6593
 1010MOL0     C36219   2.711   0.717   5.893  0.6516  0.5085  0.0466
 1010MOL0     C36220   2.750   0.677   5.765 -1.1473  0.2790 -0.5484
 1010MOL0     C36221   2.703   0.559   5.707  1.1968  0.3025 -0.2852
 1010MOL0     C36222   2.599   0.480   5.765  0.5786  0.1821  0.2145
 1010MOL0     O36223   2.541   0.370   5.712 -0.1988 -0.0206 -0.0494
 1010MOL0     C36224   2.633   0.288   5.644 -0.4242 -0.4985 -0.7840
 1010MOL0     C36225   2.549   0.158   5.600  0.6400 -0.1201  0.0245
 1010MOL0     C36226   2.619   0.056   5.512  0.7038  0.3998 -0.7593
 1010MOL0     C36227   2.601   0.089   5.363 -1.2154 -0.1227  0.3635
 1010MOL0     C36228   2.728   0.022   5.281  0.0030  0.1652 -0.1184
 1010MOL0     C36229   2.696  -0.131   5.254 -0.1444 -0.6380  0.9829
 1010MOL0     C36230   2.792  -0.208   5.157 -0.4731 -0.0200 -0.0272
 1010MOL0     C36231   2.767  -0.361   5.137 -0.7518 -0.3398  0.0775
 1010MOL0     N36232   2.762  -0.437   5.258 -0.0727  0.7997  0.8925
 1010MOL0     C36233   2.870  -0.506   5.312 -0.3385  0.6190  0.2373
 1010MOL0     C36234   2.836  -0.537   5.442 -0.0991  0.0339  0.3700
 1010MOL0     C36235   2.902  -0.627   5.539 -0.1146  0.4153 -0.0154
 1010MOL0     C36236   2.895  -0.592   5.688  0.3758 -0.9622  0.1984
 1010MOL0     C36237   2.959  -0.452   5.713  0.3178 -0.1312 -0.4681
 1010MOL0     C36238   2.866  -0.331   5.714 -0.4407 -0.6843  0.7146
 1010MOL0     O36239   2.958  -0.214   5.728  0.9681  0.1153 -0.5951
 1010MOL0     C36240   2.989  -0.174   5.859 -1.6640 -1.0430  0.1616
 1010MOL0     C36241   3.071  -0.058   5.878  0.2028  1.0942 -0.1192
 1010MOL0     C36242   3.117  -0.016   6.010  0.6458  0.4429  1.9203
 1010MOL0     C36243   3.212   0.096   6.011  1.5905  0.1070  0.0340
 1010MOL0     C36244   3.077  -0.086   6.124 -1.0214 -0.3031  0.6062
 1010MOL0     C36245   3.110  -0.055   6.269 -0.5409  0.8850  0.0292
 1010MOL0     O36246   3.155   0.065   6.304 -0.4227  1.2838  0.3898
 1010MOL0     C36247   3.206   0.084   6.426 -0.7631 -0.7329  0.1952
 1010MOL0     C36248   3.337   0.051   6.457 -0.8955 -0.2369 -0.5154
 1010MOL0     C36249   3.383   0.069   6.582  0.5136 -0.3082 -0.3600
 1010MOL0     C36250   3.301   0.128   6.686  0.3766  0.1850  0.8625
 1010MOL0     O36251   3.357   0.175   6.799 -0.6647 -0.1125 -0.1225
 1010MOL0     C36252   3.451   0.279   6.787  0.9716  0.3069  0.9554
 1010MOL0     C36253   3.477   0.360   6.911  0.9812  0.4352 -0.9257
 1010MOL0     C36254   3.480   0.277   7.042 -0.1215 -0.6386 -0.0336
 1010MOL0     C36255   3.579   0.353   7.148 -0.3173 -0.3055 -0.1298
 1010MOL0     C36256   3.557   0.328   7.293 -0.2222  0.9552 -0.4917
 1010MOL0     C36257   3.655   0.419   7.373  1.1309 -0.3707  1.0482
 1010MOL0     C36258   3.675   0.382   7.517  0.5344 -0.2223 -1.0425
 1010MOL0     C36259   3.737   0.489   7.596 -0.1850  0.2219 -1.0719
 1010MOL0    Cl36260   3.736   0.454   7.769 -0.3259 -0.0558  0.1259
 1010MOL0     C36261   3.173   0.177   6.650  0.1580 -0.6919 -0.1705
 1010MOL0     C36262   3.125   0.142   6.522  0.4052  0.4184  0.5222
 1010MOL0     O36263   3.106  -0.153   6.343 -0.4737 -0.2792 -0.4865
 1010MOL0     C36264   2.994  -0.197   6.098 -0.3000  1.4672 -1.2330
 1010MOL0     C36265   2.960  -0.244   5.974 -0.0209  0.4127  0.2461
 1010MOL0     N36266   2.703  -0.492   5.449  0.2389  0.3415  0.0686
 1010MOL0     N36267   2.657  -0.437   5.337 -0.0008  0.0227 -0.2849
 1010MOL0     C36268   2.557   0.526   5.892  0.2318  0.0635 -0.7513
 1010MOL0     C36269   2.606   0.646   5.944  0.2821  0.8200 -0.4908
 1010MOL0     C36270   2.896   1.012   6.016  0.1315 -0.8613 -0.7831
 1010MOL0     C36271   3.008   1.078   5.956 -0.3609 -0.4863  0.1546
 1010MOL0     C36272   3.085   1.163   6.040  0.7812 -0.0993  0.1041
 1010MOL0     C36273   3.065   1.164   6.183 -1.2033 -0.4398 -0.2900
 1010MOL0     O36274   3.122   1.272   6.250  0.3046 -0.3183 -0.4669
 1010MOL0     C36275   3.184   1.251   6.377  1.0881  0.3747  0.0465
 1010MOL0     C36276   3.261   1.378   6.431  0.3124  1.2420  0.8066
 1010MOL0     C36277   3.384   1.408   6.345 -0.6372 -0.3535 -0.2684
 1010MOL0     C36278   3.481   1.528   6.391 -0.1365  0.8260 -0.0991
 1010MOL0     C36279   3.413   1.645   6.349  1.5872 -0.5956 -0.1077
 1010MOL0     C36280   3.358   1.751   6.320  0.6339  0.0842  0.7467
 1010MOL0     C36281   2.974   1.082   6.243  0.1102 -0.6389 -0.5380
 1010MOL0     C36282   2.888   1.009   6.163 -0.1028  0.0626 -0.5718
 1010MOL0     H36283   2.828   0.739   5.723 -1.8316  0.6144 -1.3556
 1010MOL0     H36284   2.734   0.538   5.605  0.2182 -0.1526 -0.4963
 1010MOL0     H36285   2.658   0.341   5.552 -4.6755  4.0090  0.2137
 1010MOL0     H36286   2.723   0.263   5.701  0.9609 -0.8490 -3.0463
 1010MOL0     H36287   2.510   0.116   5.693 -3.3612  1.0706 -0.8932
 1010MOL0     H36288   2.459   0.196   5.549 -0.9532 -0.1910  2.6101
 1010MOL0     H36289   2.726   0.055   5.535  0.4774 -2.5737  0.5566
 1010MOL0     H36290   2.567  -0.039   5.525 -2.0378  1.3864 -3.3225
 1010MOL0     H36291   2.505   0.066   5.316  0.0158  0.5558 -2.6631
 1010MOL0     H36292   2.616   0.197   5.369  0.6232 -0.3568  0.5877
 1010MOL0     H36293   2.733   0.057   5.177  0.7149  3.0310  0.7939
 1010MOL0     H36294   2.822   0.035   5.334 -0.6877 -3.2083  2.2420
 1010MOL0     H36295   2.714  -0.177   5.351 -0.3614  0.4764  1.5716
 1010MOL0     H36296   2.596  -0.145   5.212  0.3115 -1.8952  0.2550
 1010MOL0     H36297   2.791  -0.168   5.055  1.4775  4.5181  1.4574
 1010MOL0     H36298   2.891  -0.203   5.203 -0.8300 -1.4624  0.9661
 1010MOL0     H36299   2.842  -0.396   5.066 -1.6344 -1.2518 -0.4287
 1010MOL0     H36300   2.671  -0.354   5.083 -0.2257  3.0044 -0.6541
 1010MOL0     H36301   2.963  -0.527   5.261 -1.6532 -1.7362 -1.3789
 1010MOL0     H36302   2.849  -0.723   5.544 -1.7029  1.3018  3.8939
 1010MOL0     H36303   3.008  -0.630   5.512  0.3726  3.5719  1.1126
 1010MOL0     H36304   2.949  -0.667   5.746  0.6535  0.1664  1.4451
 1010MOL0     H36305   2.792  -0.590   5.725  1.4122  0.7423  3.3476
 1010MOL0     H36306   3.033  -0.436   5.634  1.7366  0.5407  0.9452
 1010MOL0     H36307   3.019  -0.456   5.804  2.5235 -0.7199 -1.8706
 1010MOL0     H36308   2.783  -0.332   5.785 -0.3001 -1.7750  0.8867
 1010MOL0     H36309   2.816  -0.336   5.617 -2.0505 -0.4608  1.5063
 1010MOL0     H36310   3.118  -0.006   5.795  1.1434  1.6329  0.7333
 1010MOL0     H36311   3.279   0.108   5.926  1.6825 -1.2741 -0.1076
 1010MOL0     H36312   3.152   0.187   6.022  0.7699 -0.2837 -1.0117
 1010MOL0     H36313   3.279   0.085   6.097 -2.1221 -0.1525  3.1593
 1010MOL0     H36314   3.402   0.017   6.377  2.3242 -2.7781  2.8679
 1010MOL0     H36315   3.491   0.067   6.593  0.5479 -0.6918 -0.7707
 1010MOL0     H36316   3.544   0.230   6.758 -2.0193 -4.8717 -1.1707
 1010MOL0     H36317   3.425   0.342   6.702 -1.2627 -1.9339 -0.1376
 1010MOL0     H36318   3.569   0.420   6.914 -0.3288  2.5092  0.4470
 1010MOL0     H36319   3.391   0.426   6.922  1.9119  1.2023  3.2751
 1010MOL0     H36320   3.505   0.171   7.030 -2.5240 -1.2204 -0.5874
 1010MOL0     H36321   3.382   0.292   7.089  0.6578 -0.1893  1.5051
 1010MOL0     H36322   3.685   0.330   7.127 -0.3744  0.5397 -1.4451
 1010MOL0     H36323   3.564   0.460   7.134 -1.6687 -0.5777 -0.9293
 1010MOL0     H36324   3.572   0.226   7.330 -1.3044  1.7826  2.5504
 1010MOL0     H36325   3.450   0.343   7.311 -0.2239  1.6715 -1.0711
 1010MOL0     H36326   3.746   0.415   7.312 -0.9582 -1.4718 -2.2067
 1010MOL0     H36327   3.609   0.518   7.374  1.2855 -0.2844  0.2550
 1010MOL0     H36328   3.736   0.293   7.533 -0.0761 -0.4715  0.0151
 1010MOL0     H36329   3.575   0.365   7.559  1.1885  0.5309  0.9713
 1010MOL0     H36330   3.686   0.582   7.572  0.2524  0.8110  0.1897
 1010MOL0     H36331   3.841   0.493   7.561 -0.8207 -1.2642 -3.3774
 1010MOL0     H36332   3.121   0.243   6.718  3.7198  2.2845 -0.0274
 1010MOL0     H36333   3.027   0.178   6.495  0.1025 -0.8360 -0.1275
 1010MOL0     H36334   2.955  -0.258   6.179  1.4777 -0.6082 -1.8423
 1010MOL0     H36335   2.891  -0.327   5.963 -2.5989  2.2887  1.2961
 1010MOL0     H36336   2.473   0.479   5.942  0.7911 -1.8780 -1.5620
 1010MOL0     H36337   2.562   0.690   6.033 -2.4409 -1.8144 -0.3736
 1010MOL0     H36338   3.025   1.081   5.849  2.0427  2.1283  0.4761
 1010MOL0     H36339   3.160   1.226   5.993  1.1793 -0.6768 -0.0504
 1010MOL0     H36340   3.100   1.231   6.444 -0.4263  0.1311 -1.8283
 1010MOL0     H36341   3.247   1.162   6.385 -0.3032 -0.5154  1.8214
 1010MOL0     H36342   3.300   1.363   6.533 -0.3727  0.0169  0.9192
 1010MOL0     H36343   3.200   1.468   6.421 -1.4853 -0.0577 -0.5250
 1010MOL0     H36344   3.357   1.415   6.239 -0.5501  1.6525 -0.2048
 1010MOL0     H36345   3.448   1.320   6.354  2.5967  1.7542 -0.8240
 1010MOL0     H36346   3.578   1.530   6.340  0.6394  0.3897  1.3413
 1010MOL0     H36347   3.500   1.531   6.498  0.9621 -0.2726 -0.2411
 1010MOL0     H36348   3.298   1.831   6.281 -0.8730 -2.5577 -2.9595
 1010MOL0     H36349   2.965   1.087   6.351 -0.4012 -2.2847 -0.4857
 1010MOL0     H36350   2.806   0.951   6.205 -0.9132  2.1759  0.9595
 1011MOL0     O36351   7.842  10.234   7.686 -0.6167  0.1053  0.5221
 1011MOL0     C36352   7.838  10.126   7.743  0.2595 -0.1171  0.1772
 1011MOL0     O36353   7.747  10.025   7.727 -0.1321 -0.5673 -0.4752
 1011MOL0     C36354   7.653  10.025   7.629  0.2312 -0.5562  0.4995
 1011MOL0     C36355   7.675  10.087   7.504 -0.5254  0.2130 -0.5142
 1011MOL0     C36356   7.578  10.067   7.403 -0.2900 -1.0511  0.3500
 1011MOL0     C36357   7.465   9.979   7.418  0.1788 -0.3505 -0.2278
 1011MOL0     O36358   7.397   9.934   7.301 -0.3142  0.3606 -0.1905
 1011MOL0     C36359   7.252   9.960   7.316  0.4918  0.4374 -0.3407
 1011MOL0     C36360   7.193   9.995   7.181 -1.6772 -1.0896  0.1828
 1011MOL0     C36361   7.194   9.878   7.092  0.1701 -0.1118  0.0002
 1011MOL0     C36362   7.088   9.877   6.985  0.1267 -1.0218  0.4739
 1011MOL0     C36363   7.101   9.782   6.869  0.1005  0.2925 -0.0624
 1011MOL0     C36364   7.196   9.826   6.762 -0.0879  0.3658  0.4193
 1011MOL0     C36365   7.231   9.715   6.678 -0.3056 -0.1372 -0.2236
 1011MOL0     C36366   7.127   9.699   6.562 -0.5546 -0.2067 -0.3219
 1011MOL0     N36367   7.143   9.806   6.458  0.0877  0.0804 -0.4894
 1011MOL0     C36368   7.247   9.798   6.364 -0.3890  0.1345  0.6612
 1011MOL0     C36369   7.221   9.906   6.284 -0.1500 -0.0422  0.1485
 1011MOL0     C36370   7.265   9.932   6.146 -0.4001 -0.7368  1.1110
 1011MOL0     C36371   7.412   9.965   6.120 -0.1802 -0.0602 -0.0128
 1011MOL0     C36372   7.471  10.045   6.236  0.6383  0.1171 -0.7510
 1011MOL0     C36373   7.614  10.071   6.217  0.1337  0.2113 -1.0392
 1011MOL0     O36374   7.667  10.183   6.292  0.1720  0.1387  0.3832
 1011MOL0     C36375   7.662  10.313   6.249  1.0507  0.3388 -0.6258
 1011MOL0     C36376   7.734  10.403   6.332 -0.2249 -0.8482 -0.1195
 1011MOL0     C36377   7.753  10.539   6.289  0.5800  0.2418  0.2441
 1011MOL0     C36378   7.834  10.621   6.388 -1.0400 -0.3231 -0.3911
 1011MOL0     C36379   7.672  10.591   6.184 -0.0081 -0.0934  0.7326
 1011MOL0     C36380   7.660  10.741   6.144 -0.0947 -0.9013  0.1587
 1011MOL0     O36381   7.544  10.779   6.071 -0.2713  0.2306  0.2040
 1011MOL0     C36382   7.522  10.912   6.046 -0.3631  0.7715  0.1885
 1011MOL0     C36383   7.570  11.013   6.127  0.1603  0.0522  0.0793
 1011MOL0     C36384   7.524  11.147   6.107  0.3353 -0.4577 -0.1653
 1011MOL0     C36385   7.435  11.171   6.001 -0.1970 -0.6527 -0.2952
 1011MOL0     O36386   7.404  11.311   5.994 -0.8231 -0.7733 -0.6487
 1011MOL0     C36387   7.296  11.341   5.900  1.0709  0.2624 -1.7872
 1011MOL0     C36388   7.292  11.488   5.900  0.7959 -0.2311 -0.0506
 1011MOL0     C36389   7.214  11.529   5.775  0.2112 -0.1325 -0.0089
 1011MOL0     C36390   7.196  11.679   5.751 -0.1413 -0.6098 -0.3015
 1011MOL0     C36391   7.144  11.714   5.608  0.3027 -0.2590  0.1351
 1011MOL0     C36392   7.014  11.628   5.568 -0.3150  0.2037 -0.3233
 1011MOL0     C36393   6.936  11.684   5.450 -0.8178 -0.7109  0.8554
 1011MOL0     C36394   7.020  11.730   5.326 -0.0420  0.2125 -0.6456
 1011MOL0    Cl36395   6.908  11.785   5.203 -0.4461  0.7035 -0.2253
 1011MOL0     C36396   7.398  11.066   5.922  0.0991  0.4141  0.0857
 1011MOL0     C36397   7.433  10.935   5.941  0.3742 -0.9311  0.2427
 1011MOL0     O36398   7.757  10.815   6.152  0.0348  0.3570 -0.2485
 1011MOL0     C36399   7.601  10.498   6.103 -0.2018 -0.6246 -0.3722
 1011MOL0     C36400   7.603  10.360   6.136  0.4336  0.2431 -0.3294
 1011MOL0     N36401   7.099   9.966   6.322 -0.6322  0.0587  0.3058
 1011MOL0     N36402   7.054   9.905   6.430 -0.2208 -0.2350 -0.0834
 1011MOL0     C36403   7.454   9.901   7.536 -0.8012 -1.3935  0.6189
 1011MOL0     C36404   7.546   9.925   7.640  0.1297 -1.4842 -0.0588
 1011MOL0     C36405   7.949  10.103   7.843 -0.3816  1.4198 -0.7754
 1011MOL0     C36406   8.054  10.192   7.858  0.2791  0.0575  1.1049
 1011MOL0     C36407   8.154  10.171   7.956  0.0206 -0.7641  0.3884
 1011MOL0     C36408   8.153  10.069   8.040 -0.8958 -0.0399  0.1979
 1011MOL0     O36409   8.248  10.067   8.140  1.1649 -0.7490 -0.2047
 1011MOL0     C36410   8.307   9.945   8.187 -0.2306 -0.5040  1.5787
 1011MOL0     C36411   8.411   9.895   8.090 -0.1550 -0.6432  0.5533
 1011MOL0     C36412   8.510  10.009   8.031 -0.5643  0.1849 -0.6840
 1011MOL0     C36413   8.587  10.078   8.149  0.3486 -0.2308 -0.3367
 1011MOL0     C36414   8.716  10.152   8.125 -0.3439 -0.2013  0.3222
 1011MOL0     C36415   8.813  10.222   8.107 -0.1251 -0.4525 -0.0591
 1011MOL0     C36416   8.049   9.970   8.019 -0.0192 -0.2830  0.3290
 1011MOL0     C36417   7.946   9.989   7.932  0.1871  0.7821 -0.6542
 1011MOL0     H36418   7.764  10.144   7.479  0.3332 -0.8964 -0.1109
 1011MOL0     H36419   7.581  10.110   7.303 -1.0875  0.3941  0.9227
 1011MOL0     H36420   7.193   9.883   7.365 -0.1147  0.6801 -0.6821
 1011MOL0     H36421   7.242  10.046   7.384  1.8154 -0.1653  0.6675
 1011MOL0     H36422   7.094  10.034   7.206 -1.3864 -1.4991  2.1553
 1011MOL0     H36423   7.251  10.074   7.133 -1.9316  0.0447  1.6621
 1011MOL0     H36424   7.288   9.872   7.036  0.0787 -0.7528 -0.0887
 1011MOL0     H36425   7.174   9.782   7.139 -1.6094 -0.9080 -2.1781
 1011MOL0     H36426   6.998   9.863   7.046  1.1990 -1.5136  2.0055
 1011MOL0     H36427   7.082   9.974   6.934  3.4636 -0.5835  0.7174
 1011MOL0     H36428   7.130   9.684   6.906 -0.2299  1.0054  2.2350
 1011MOL0     H36429   7.000   9.774   6.826 -0.8624 -1.3157  2.2843
 1011MOL0     H36430   7.136   9.897   6.703 -1.6317 -1.5234 -0.3771
 1011MOL0     H36431   7.284   9.874   6.805 -0.0611 -1.2892  2.3059
 1011MOL0     H36432   7.328   9.733   6.632 -0.8517 -1.7436 -2.1256
 1011MOL0     H36433   7.238   9.616   6.723  1.7201 -0.2177 -0.6306
 1011MOL0     H36434   7.021   9.693   6.588 -0.1868 -0.9176  1.0692
 1011MOL0     H36435   7.150   9.610   6.502 -0.7601  0.4293 -1.3772
 1011MOL0     H36436   7.321   9.719   6.356 -1.5478 -1.0172  0.9365
 1011MOL0     H36437   7.259   9.843   6.083  1.5072  0.4886 -0.9342
 1011MOL0     H36438   7.197  10.012   6.116  2.8710  2.0173  0.5061
 1011MOL0     H36439   7.440  10.009   6.023 -1.7231  0.8134 -0.0930
 1011MOL0     H36440   7.456   9.865   6.123  0.6511  0.3144  0.6459
 1011MOL0     H36441   7.458   9.991   6.330  2.6572  1.8926  0.6609
 1011MOL0     H36442   7.417  10.140   6.235  0.7470  0.1781 -0.9975
 1011MOL0     H36443   7.645  10.075   6.112  0.9573 -0.7744 -0.8512
 1011MOL0     H36444   7.659   9.983   6.264 -0.4623  0.7265  0.5363
 1011MOL0     H36445   7.776  10.382   6.430  1.6112  3.4588  0.2334
 1011MOL0     H36446   7.940  10.594   6.393 -1.3795 -2.4558 -2.8288
 1011MOL0     H36447   7.821  10.728   6.374 -1.0444 -0.5159 -2.0257
 1011MOL0     H36448   7.806  10.612   6.494  2.3073 -0.0229  0.6330
 1011MOL0     H36449   7.645  11.008   6.205 -0.4199 -0.3551  0.6188
 1011MOL0     H36450   7.559  11.234   6.162  0.7299 -2.1239  2.4011
 1011MOL0     H36451   7.314  11.295   5.802  0.1236 -1.2485 -1.2937
 1011MOL0     H36452   7.195  11.307   5.925 -0.6640  0.6381 -7.0524
 1011MOL0     H36453   7.252  11.526   5.994  1.7326  2.7316 -0.7318
 1011MOL0     H36454   7.391  11.534   5.888  0.1327  0.6212 -3.0053
 1011MOL0     H36455   7.114  11.487   5.780 -0.2061  0.8631  0.2980
 1011MOL0     H36456   7.265  11.473   5.696  2.2006  0.2158  0.9541
 1011MOL0     H36457   7.117  11.708   5.822 -2.0169 -1.8472 -1.7741
 1011MOL0     H36458   7.288  11.732   5.778  0.1593 -1.1616 -0.2250
 1011MOL0     H36459   7.220  11.705   5.529 -0.1304  0.0726 -0.3298
 1011MOL0     H36460   7.109  11.818   5.610  0.5052 -0.1766 -0.3720
 1011MOL0     H36461   7.061  11.534   5.538  0.5711 -0.2088  2.1412
 1011MOL0     H36462   6.940  11.614   5.648 -0.6372  2.7047 -0.1232
 1011MOL0     H36463   6.876  11.771   5.479 -1.9586 -0.9946 -0.5415
 1011MOL0     H36464   6.863  11.607   5.425  1.6586 -3.2762  1.0604
 1011MOL0     H36465   7.077  11.640   5.302 -1.3185 -1.2030  1.2455
 1011MOL0     H36466   7.090  11.810   5.353 -3.3260  3.2937 -0.3967
 1011MOL0     H36467   7.329  11.090   5.841 -1.0448  0.0139  0.9163
 1011MOL0     H36468   7.393  10.854   5.881 -0.5353  2.0354 -3.5454
 1011MOL0     H36469   7.545  10.532   6.016  0.3249 -0.2766 -0.5823
 1011MOL0     H36470   7.558  10.286   6.071  0.8693  0.5535 -0.9933
 1011MOL0     H36471   7.372   9.831   7.532 -1.8568 -0.2250  1.0977
 1011MOL0     H36472   7.518   9.862   7.724  1.0884 -2.5113 -0.4736
 1011MOL0     H36473   8.063  10.274   7.787 -0.5654 -0.9477 -0.2212
 1011MOL0     H36474   8.234  10.245   7.961 -0.2970 -0.4740  1.5030
 1011MOL0     H36475   8.352   9.969   8.284  2.2528  0.9980  0.1652
 1011MOL0     H36476   8.225   9.877   8.212 -1.4874  1.2909  2.6047
 1011MOL0     H36477   8.354   9.846   8.010  1.7748 -1.3121 -0.4597
 1011MOL0     H36478   8.475   9.817   8.131  4.0861  1.0067 -2.2502
 1011MOL0     H36479   8.466  10.091   7.974  0.1737 -0.1480 -1.7525
 1011MOL0     H36480   8.573   9.946   7.968  1.9496 -0.1815  1.9498
 1011MOL0     H36481   8.614  10.004   8.225 -0.7364 -2.5467 -2.0949
 1011MOL0     H36482   8.519  10.155   8.187  3.0484  0.7831  2.9841
 1011MOL0     H36483   8.893  10.293   8.103 -2.4695  2.3274 -1.3040
 1011MOL0     H36484   8.042   9.882   8.083 -2.2897 -0.7068 -0.4074
 1011MOL0     H36485   7.856   9.930   7.924 -0.3170  1.6100 -1.1909
 1012MOL0     O36486  11.332   4.451   3.352 -0.1755  0.3330  0.1226
 1012MOL0     C36487  11.325   4.435   3.473  0.7607  0.2755  0.9561
 1012MOL0     O36488  11.416   4.373   3.554  0.0127  0.1820  1.0277
 1012MOL0     C36489  11.538   4.335   3.514 -0.1616 -0.9087  0.3026
 1012MOL0     C36490  11.569   4.289   3.384  0.4859  0.1437  0.9211
 1012MOL0     C36491  11.694   4.245   3.349  0.1596 -0.1283 -0.9995
 1012MOL0     C36492  11.801   4.258   3.438  0.5400 -0.5535  0.7016
 1012MOL0     O36493  11.927   4.213   3.417  0.3307  0.4338  0.3010
 1012MOL0     C36494  11.981   4.165   3.285  0.1778 -0.2392 -0.4308
 1012MOL0     C36495  12.114   4.092   3.318  0.4063 -0.5678 -0.3697
 1012MOL0     C36496  12.210   4.168   3.408 -0.2385  0.0049  0.0793
 1012MOL0     C36497  12.337   4.081   3.430  1.0213  0.0013  0.7207
 1012MOL0     C36498  12.419   4.165   3.528 -0.4684  0.1640 -0.0298
 1012MOL0     C36499  12.506   4.264   3.443 -0.1254  0.4072 -0.0631
 1012MOL0     C36500  12.622   4.323   3.531  0.5754  0.3660  0.3158
 1012MOL0     C36501  12.583   4.415   3.643  0.3628 -0.3434  0.0544
 1012MOL0     N36502  12.687   4.500   3.683 -0.7255  0.3703 -0.1758
 1012MOL0     C36503  12.729   4.619   3.627 -0.1337  0.0228  0.2412
 1012MOL0     C36504  12.828   4.669   3.701  0.2873 -0.8277  0.5019
 1012MOL0     C36505  12.910   4.800   3.667  0.8872 -0.1154  0.4011
 1012MOL0     C36506  13.046   4.792   3.606 -1.0192  0.6207 -0.3606
 1012MOL0     C36507  13.136   4.679   3.678 -0.2527  0.0756 -0.4218
 1012MOL0     C36508  13.191   4.714   3.813 -0.3385  0.5655 -0.5168
 1012MOL0     O36509  13.245   4.847   3.830 -0.0222  0.1750 -0.7547
 1012MOL0     C36510  13.341   4.873   3.928 -0.4214 -0.1968  0.0515
 1012MOL0     C36511  13.406   5.000   3.938  1.1391  0.0334  0.3876
 1012MOL0     C36512  13.497   5.047   4.029  0.0961  0.2280  1.1857
 1012MOL0     C36513  13.550   5.174   4.005 -0.2914 -0.0781 -0.9195
 1012MOL0     C36514  13.535   4.960   4.135 -0.1334 -0.4546  0.1942
 1012MOL0     C36515  13.643   4.988   4.241 -0.3906 -0.6301 -0.6234
 1012MOL0     O36516  13.685   4.880   4.307  0.3157 -0.1070  0.3152
 1012MOL0     C36517  13.780   4.893   4.404 -0.3895  0.3608 -0.4932
 1012MOL0     C36518  13.743   4.881   4.531  1.3135 -0.2019  0.0646
 1012MOL0     C36519  13.840   4.882   4.640  0.9425 -0.1474  0.2294
 1012MOL0     C36520  13.967   4.928   4.618 -0.0330 -0.9624 -0.6924
 1012MOL0     O36521  14.048   4.950   4.726 -0.6906 -0.4278 -0.4084
 1012MOL0     C36522  14.004   5.015   4.848 -0.2439  0.4029  0.1108
 1012MOL0     C36523  14.065   4.954   4.977  0.7640 -0.1083 -0.6470
 1012MOL0     C36524  14.215   4.992   4.972 -0.1899 -0.0805 -1.5247
 1012MOL0     C36525  14.270   5.013   5.114 -0.6758 -0.3237 -0.0252
 1012MOL0     C36526  14.402   5.095   5.121 -0.1433 -0.0091  1.1268
 1012MOL0     C36527  14.380   5.243   5.101  1.0066  0.6765 -0.2267
 1012MOL0     C36528  14.501   5.324   5.109 -0.3965  0.0084 -0.5323
 1012MOL0     C36529  14.612   5.287   5.010 -0.3810 -0.0613  0.0269
 1012MOL0    Cl36530  14.752   5.388   5.066 -0.4426 -0.1585 -0.1883
 1012MOL0     C36531  14.002   4.961   4.485 -0.6679 -0.6472 -0.9387
 1012MOL0     C36532  13.916   4.934   4.382  0.1104 -0.6183  0.3180
 1012MOL0     O36533  13.681   5.108   4.258  0.5435  0.3750 -0.0994
 1012MOL0     C36534  13.461   4.838   4.137  0.3386  0.6514 -1.2879
 1012MOL0     C36535  13.382   4.787   4.037 -0.3144 -0.1016  0.0114
 1012MOL0     N36536  12.863   4.561   3.787 -0.0728  0.8575 -0.4955
 1012MOL0     N36537  12.779   4.468   3.778  0.2176  0.1460  0.2928
 1012MOL0     C36538  11.783   4.309   3.561 -0.6061 -1.0264  0.1775
 1012MOL0     C36539  11.647   4.332   3.602 -0.3757  0.4589  0.8436
 1012MOL0     C36540  11.201   4.486   3.531  0.7268 -0.1702 -1.7824
 1012MOL0     C36541  11.155   4.448   3.665  0.0307  1.0099  0.4841
 1012MOL0     C36542  11.033   4.484   3.705 -0.0279 -0.3013 -0.1025
 1012MOL0     C36543  10.959   4.581   3.642 -0.7056 -0.3070 -0.2059
 1012MOL0     O36544  10.846   4.607   3.710 -0.2507  0.4707  0.1097
 1012MOL0     C36545  10.751   4.695   3.647 -0.4800  0.5649  1.1301
 1012MOL0     C36546  10.616   4.700   3.726 -0.4068 -0.0422  0.0318
 1012MOL0     C36547  10.638   4.783   3.858  1.0706  0.5330 -0.5483
 1012MOL0     C36548  10.510   4.799   3.947 -1.0781  0.9039 -0.0489
 1012MOL0     C36549  10.446   4.669   3.979 -0.4006 -0.3308  0.2954
 1012MOL0     C36550  10.393   4.561   3.980 -0.0152 -0.8435 -0.1454
 1012MOL0     C36551  11.004   4.627   3.524 -0.1163 -0.5191 -0.5062
 1012MOL0     C36552  11.120   4.581   3.463  0.0439  0.5897 -1.0523
 1012MOL0     H36553  11.493   4.279   3.308  0.0674 -1.0036  1.4755
 1012MOL0     H36554  11.702   4.205   3.248 -0.1410  0.2816 -1.1856
 1012MOL0     H36555  11.918   4.096   3.229  0.4754 -1.0210  0.1798
 1012MOL0     H36556  11.995   4.256   3.226  1.2811  1.2029  1.8856
 1012MOL0     H36557  12.095   3.992   3.358  0.5874 -0.8391 -0.9519
 1012MOL0     H36558  12.165   4.070   3.225  2.2826 -1.4178  0.8011
 1012MOL0     H36559  12.223   4.271   3.374  2.5182 -0.4270 -0.4595
 1012MOL0     H36560  12.166   4.173   3.508 -0.0872 -1.7966  0.2769
 1012MOL0     H36561  12.318   3.988   3.485  1.1561 -1.7530 -2.0131
 1012MOL0     H36562  12.377   4.061   3.330 -3.3548 -0.1894 -1.1888
 1012MOL0     H36563  12.357   4.219   3.599  0.6432  2.1063 -0.4681
 1012MOL0     H36564  12.480   4.098   3.590 -1.2231 -0.6595 -0.1500
 1012MOL0     H36565  12.548   4.213   3.355 -0.5416 -1.4148  0.7444
 1012MOL0     H36566  12.444   4.345   3.405  3.3397  2.5329 -1.6464
 1012MOL0     H36567  12.693   4.244   3.560  2.2714 -0.1182 -4.2461
 1012MOL0     H36568  12.696   4.374   3.467  1.3892 -1.9165 -0.6927
 1012MOL0     H36569  12.560   4.356   3.733 -1.0505  0.8872  0.5505
 1012MOL0     H36570  12.505   4.487   3.618 -0.1119  0.0269  2.3666
 1012MOL0     H36571  12.692   4.668   3.538  0.7607  1.3738  0.5910
 1012MOL0     H36572  12.867   4.879   3.604  1.7531 -0.3570 -0.5252
 1012MOL0     H36573  12.925   4.847   3.765  1.9699 -1.2658  0.8138
 1012MOL0     H36574  13.103   4.885   3.613  1.1086 -0.7366  1.9463
 1012MOL0     H36575  13.039   4.762   3.502 -0.1063  0.0240 -0.2572
 1012MOL0     H36576  13.219   4.660   3.609 -0.3170 -4.6502  0.4766
 1012MOL0     H36577  13.089   4.580   3.678  0.7123 -0.5340 -4.1097
 1012MOL0     H36578  13.278   4.649   3.829 -2.1688 -1.6297  1.1961
 1012MOL0     H36579  13.121   4.692   3.894  1.1073  4.1375  1.9396
 1012MOL0     H36580  13.370   5.072   3.866  2.9892  3.8624  2.9498
 1012MOL0     H36581  13.657   5.162   4.024 -0.0175  0.7492 -1.8872
 1012MOL0     H36582  13.531   5.210   3.904 -1.7821 -0.0602 -0.6676
 1012MOL0     H36583  13.501   5.244   4.074 -2.2413 -1.3040 -0.9932
 1012MOL0     H36584  13.639   4.859   4.552  1.0108 -1.4402 -2.4232
 1012MOL0     H36585  13.814   4.852   4.741 -0.4213  0.3651  0.0581
 1012MOL0     H36586  14.038   5.116   4.824  1.0165  0.1722  0.8445
 1012MOL0     H36587  13.895   5.008   4.855 -0.3333  0.8583 -0.7996
 1012MOL0     H36588  14.009   4.995   5.062  1.5110  2.0066 -1.1181
 1012MOL0     H36589  14.048   4.846   4.979  1.8078 -0.2777  0.6927
 1012MOL0     H36590  14.240   5.070   4.901  5.9022 -1.8857 -1.8902
 1012MOL0     H36591  14.263   4.905   4.926  0.2796 -1.9854  2.1746
 1012MOL0     H36592  14.192   5.060   5.175 -1.8493  1.5826 -2.8039
 1012MOL0     H36593  14.285   4.914   5.159  0.3192 -0.2346 -0.1314
 1012MOL0     H36594  14.471   5.069   5.040  1.4273  0.4575  2.2713
 1012MOL0     H36595  14.444   5.061   5.216  1.5793 -2.5958 -0.4517
 1012MOL0     H36596  14.334   5.268   5.005  0.3508  0.4253  0.0103
 1012MOL0     H36597  14.323   5.280   5.187 -1.4004  3.0158 -2.6276
 1012MOL0     H36598  14.545   5.312   5.208  1.6353 -2.2216 -1.6175
 1012MOL0     H36599  14.487   5.432   5.097 -0.7655  0.2637  1.8642
 1012MOL0     H36600  14.590   5.316   4.907 -0.0045  1.3959  0.3314
 1012MOL0     H36601  14.637   5.181   5.012 -0.5412 -0.1190 -0.6784
 1012MOL0     H36602  14.097   5.009   4.468 -0.4790  1.6403  4.6078
 1012MOL0     H36603  13.945   4.961   4.281  3.7393 -0.4511  1.2460
 1012MOL0     H36604  13.486   4.782   4.226 -2.1706  3.4176  1.4050
 1012MOL0     H36605  13.352   4.683   4.047 -1.3169  0.2535  0.8539
 1012MOL0     H36606  11.872   4.320   3.623  0.3634 -2.9257 -0.7948
 1012MOL0     H36607  11.631   4.365   3.704 -4.8580  0.2357  0.3991
 1012MOL0     H36608  11.232   4.389   3.715 -0.3986 -0.2831 -0.3205
 1012MOL0     H36609  11.002   4.442   3.800  2.3823 -0.6843  0.5700
 1012MOL0     H36610  10.793   4.796   3.649  0.2415  0.2616  1.6127
 1012MOL0     H36611  10.736   4.670   3.542  2.6142  0.7167  0.5377
 1012MOL0     H36612  10.585   4.597   3.747 -0.2044  0.2053  1.6325
 1012MOL0     H36613  10.547   4.768   3.674  2.1874  3.3127  0.6438
 1012MOL0     H36614  10.684   4.880   3.833  3.1556 -0.4263 -0.6408
 1012MOL0     H36615  10.711   4.732   3.921  0.1883  0.0022  0.0544
 1012MOL0     H36616  10.436   4.865   3.900 -0.9820  2.4287  1.8156
 1012MOL0     H36617  10.544   4.844   4.040  0.1907 -0.2975  0.0920
 1012MOL0     H36618  10.348   4.464   3.984  0.2752 -1.0484 -1.4647
 1012MOL0     H36619  10.942   4.707   3.486 -1.1467 -1.6343 -1.2203
 1012MOL0     H36620  11.131   4.630   3.368 -0.5052  1.0565 -0.8823
 1013MOL0     O36621  11.186   6.315   3.349 -0.4621 -0.0814  1.0523
 1013MOL0     C36622  11.075   6.265   3.343  0.3004 -0.1891  0.6474
 1013MOL0     O36623  10.960   6.332   3.385 -0.1048 -0.1591 -0.1768
 1013MOL0     C36624  10.974   6.457   3.430  0.4743  0.0098 -0.6444
 1013MOL0     C36625  10.948   6.556   3.344  0.1214 -0.6215 -0.1914
 1013MOL0     C36626  10.956   6.691   3.376 -0.0163 -0.0498  0.2648
 1013MOL0     C36627  10.991   6.733   3.510  0.1862 -0.1151  0.3308
 1013MOL0     O36628  10.981   6.858   3.566 -0.6349  0.5167  0.1910
 1013MOL0     C36629  10.938   6.963   3.479 -1.0371 -0.5526  0.4568
 1013MOL0     C36630  10.908   7.092   3.566  1.0622 -0.4592  0.1726
 1013MOL0     C36631  10.809   7.095   3.688  0.1745 -0.7589 -0.9578
 1013MOL0     C36632  10.677   7.024   3.666  0.7291  0.7545 -0.2151
 1013MOL0     C36633  10.612   6.977   3.801  1.3671  0.7857  0.3350
 1013MOL0     C36634  10.509   6.871   3.760 -0.2560 -0.3993  0.3201
 1013MOL0     C36635  10.576   6.729   3.721  0.2118  0.6493  1.1273
 1013MOL0     C36636  10.675   6.671   3.814 -0.6493  0.5365  0.7449
 1013MOL0     N36637  10.681   6.519   3.811  0.9575 -0.9550 -0.3115
 1013MOL0     C36638  10.726   6.445   3.707 -0.0123  0.0179 -0.7399
 1013MOL0     C36639  10.699   6.317   3.748 -0.0626 -0.5286 -0.3769
 1013MOL0     C36640  10.762   6.195   3.683 -0.2393  0.3585 -0.0305
 1013MOL0     C36641  10.662   6.075   3.670  0.0840  0.7726  1.0881
 1013MOL0     C36642  10.726   5.951   3.593 -0.9898 -0.7755  0.2196
 1013MOL0     C36643  10.831   5.875   3.685  0.5950  0.2875  0.4244
 1013MOL0     O36644  10.955   5.946   3.697 -0.1077  0.1210  0.5218
 1013MOL0     C36645  11.054   5.922   3.601  0.5160 -0.1790 -0.8817
 1013MOL0     C36646  11.163   6.008   3.607 -0.9808  0.2201  0.6381
 1013MOL0     C36647  11.281   5.986   3.529 -0.6164 -0.3200 -1.1647
 1013MOL0     C36648  11.389   6.079   3.558 -0.5456 -0.0142 -1.1220
 1013MOL0     C36649  11.291   5.878   3.442  0.4853 -0.2628 -0.1071
 1013MOL0     C36650  11.410   5.839   3.368 -0.1181  0.8474  0.1160
 1013MOL0     O36651  11.491   5.940   3.321 -0.3487  0.2797 -0.7444
 1013MOL0     C36652  11.589   5.892   3.246  0.0107  0.2724  0.0683
 1013MOL0     C36653  11.560   5.861   3.112  0.1115 -0.2218  0.6585
 1013MOL0     C36654  11.670   5.823   3.031 -0.4300 -0.4725  0.4124
 1013MOL0     C36655  11.797   5.824   3.084 -0.5134  0.4141  0.3909
 1013MOL0     O36656  11.899   5.787   3.001  0.0810  0.1110 -0.3664
 1013MOL0     C36657  12.035   5.767   3.044  1.6653 -0.6968 -0.5756
 1013MOL0     C36658  12.075   5.671   2.930 -0.9663 -0.0616  0.0737
 1013MOL0     C36659  12.209   5.590   2.966 -0.1398 -0.1609 -0.7951
 1013MOL0     C36660  12.253   5.505   2.843 -0.5992  0.9379  0.2293
 1013MOL0     C36661  12.399   5.470   2.850 -0.3920  0.5739 -1.1602
 1013MOL0     C36662  12.453   5.372   2.738 -0.0863 -0.2673  0.0797
 1013MOL0     C36663  12.579   5.284   2.771 -0.6373  0.5435  0.2632
 1013MOL0     C36664  12.619   5.205   2.639  0.2956 -0.5331  0.3163
 1013MOL0    Cl36665  12.780   5.129   2.657 -0.2758  0.0625  0.2397
 1013MOL0     C36666  11.815   5.864   3.219 -0.2619  0.3438 -0.1644
 1013MOL0     C36667  11.705   5.883   3.303  0.7005 -0.2980 -0.3636
 1013MOL0     O36668  11.437   5.716   3.359 -0.1531 -0.2061  0.0941
 1013MOL0     C36669  11.171   5.806   3.421 -0.6190  0.8119  0.1219
 1013MOL0     C36670  11.056   5.821   3.505 -0.6234 -0.4498 -0.2583
 1013MOL0     N36671  10.646   6.320   3.884 -1.2841  0.5039  0.3503
 1013MOL0     N36672  10.638   6.444   3.918  0.5146 -0.5018 -0.0512
 1013MOL0     C36673  11.018   6.630   3.602  1.0464 -0.3610 -0.3233
 1013MOL0     C36674  11.009   6.494   3.561 -0.3309  0.0684  0.1130
 1013MOL0     C36675  11.056   6.136   3.274  0.3023 -1.0559  0.2109
 1013MOL0     C36676  10.934   6.069   3.278  0.6363  0.4860 -0.6559
 1013MOL0     C36677  10.923   5.940   3.222  0.8293 -0.2203  0.5460
 1013MOL0     C36678  11.021   5.888   3.135 -0.1001 -0.3696 -0.3748
 1013MOL0     O36679  11.002   5.770   3.060 -0.2902  0.2209 -0.3458
 1013MOL0     C36680  10.895   5.683   3.080  1.0237 -0.4131 -0.4609
 1013MOL0     C36681  10.773   5.733   2.996  0.7061 -0.7221  0.5897
 1013MOL0     C36682  10.646   5.658   3.036 -0.6323  0.0983  0.1640
 1013MOL0     C36683  10.508   5.697   2.964  0.2060  0.5964  0.3427
 1013MOL0     C36684  10.412   5.595   2.994 -0.3316  0.5535 -0.0223
 1013MOL0     C36685  10.346   5.501   3.041 -0.6918  0.0287  0.3472
 1013MOL0     C36686  11.143   5.952   3.133 -0.1807  0.6633  0.2250
 1013MOL0     C36687  11.160   6.073   3.199 -0.2837  0.2569 -0.4867
 1013MOL0     H36688  10.940   6.521   3.241 -0.5002 -4.4249  0.9674
 1013MOL0     H36689  10.932   6.757   3.293 -4.0636 -1.4509  0.0809
 1013MOL0     H36690  11.017   6.981   3.406  2.9345 -3.3498  3.6201
 1013MOL0     H36691  10.856   6.931   3.414  1.3016 -3.2629 -1.4286
 1013MOL0     H36692  11.003   7.133   3.602  1.3485 -2.0934  1.3379
 1013MOL0     H36693  10.879   7.172   3.496  3.6403  0.2159 -0.2381
 1013MOL0     H36694  10.865   7.063   3.777  0.0006  3.1513  0.7714
 1013MOL0     H36695  10.790   7.201   3.710  0.5407 -0.9174  0.2192
 1013MOL0     H36696  10.611   7.082   3.601  1.1433  2.2905  0.6796
 1013MOL0     H36697  10.709   6.939   3.605  1.9953  0.9002  0.2207
 1013MOL0     H36698  10.690   6.924   3.857  4.0404  0.4589 -3.2706
 1013MOL0     H36699  10.557   7.051   3.859  0.8298  0.1839  0.6033
 1013MOL0     H36700  10.437   6.851   3.840 -2.7651  0.1481 -1.6511
 1013MOL0     H36701  10.450   6.893   3.670 -0.3592  0.5588  0.6155
 1013MOL0     H36702  10.497   6.653   3.721  0.5656  0.2275 -0.9755
 1013MOL0     H36703  10.621   6.738   3.622 -1.3496  0.0765  0.3308
 1013MOL0     H36704  10.653   6.684   3.920  0.0778 -2.9691  1.4595
 1013MOL0     H36705  10.769   6.726   3.805 -0.6111  0.6753  1.9023
 1013MOL0     H36706  10.768   6.476   3.612 -4.0580  2.0903 -2.0886
 1013MOL0     H36707  10.813   6.214   3.588 -0.3999  2.5033  0.2516
 1013MOL0     H36708  10.848   6.166   3.745  1.4922 -0.3376 -2.6178
 1013MOL0     H36709  10.588   6.103   3.595 -0.7581 -2.1746  0.7071
 1013MOL0     H36710  10.626   6.040   3.767  1.8160 -0.9228  1.1683
 1013MOL0     H36711  10.784   6.001   3.515  2.0562  0.1689  2.8368
 1013MOL0     H36712  10.648   5.879   3.569 -3.1523  2.0904 -1.9970
 1013MOL0     H36713  10.833   5.772   3.649 -0.8644  0.8600 -1.4521
 1013MOL0     H36714  10.798   5.856   3.788  0.4050 -1.0202  0.1408
 1013MOL0     H36715  11.169   6.088   3.680  2.3069 -1.1480  2.0930
 1013MOL0     H36716  11.356   6.137   3.645 -1.8787  0.1529 -1.7083
 1013MOL0     H36717  11.488   6.033   3.556 -0.2543  0.4542  1.0073
 1013MOL0     H36718  11.391   6.150   3.475 -5.1024  0.0250 -1.4849
 1013MOL0     H36719  11.461   5.853   3.069  0.3970 -3.7503  0.3078
 1013MOL0     H36720  11.656   5.797   2.926 -2.0255 -1.8282  0.9154
 1013MOL0     H36721  12.087   5.862   3.057 -1.2187  1.5176 -3.5227
 1013MOL0     H36722  12.041   5.708   3.136  3.8592 -0.7489 -0.7173
 1013MOL0     H36723  11.999   5.598   2.901 -1.8290  0.1883  1.5904
 1013MOL0     H36724  12.102   5.734   2.845  1.2467 -0.4903  0.3745
 1013MOL0     H36725  12.192   5.530   3.056 -1.3231  0.5599 -0.4999
 1013MOL0     H36726  12.301   5.647   2.982  1.1102 -1.2810 -3.4770
 1013MOL0     H36727  12.182   5.422   2.843 -2.9311  2.6663  3.5047
 1013MOL0     H36728  12.238   5.559   2.750 -0.4019  2.4577  1.0460
 1013MOL0     H36729  12.402   5.415   2.944 -0.0718  4.1459  1.1256
 1013MOL0     H36730  12.461   5.559   2.863  0.3837 -0.3416  2.3070
 1013MOL0     H36731  12.367   5.307   2.718 -0.5635 -0.0844  1.4808
 1013MOL0     H36732  12.469   5.425   2.643  3.3811  0.9775  1.1895
 1013MOL0     H36733  12.578   5.218   2.859  2.9478 -0.1246 -0.0506
 1013MOL0     H36734  12.663   5.348   2.799  1.7761 -2.4999  0.4751
 1013MOL0     H36735  12.605   5.271   2.553 -0.1946 -1.2702 -0.1771
 1013MOL0     H36736  12.541   5.129   2.631 -0.8926  0.7825 -1.2223
 1013MOL0     H36737  11.918   5.867   3.255  1.2823  0.1630 -4.0304
 1013MOL0     H36738  11.727   5.907   3.406  1.4978  2.2523 -1.0480
 1013MOL0     H36739  11.155   5.732   3.343  1.1471 -1.0212  1.3931
 1013MOL0     H36740  10.982   5.744   3.487  0.4904 -1.2023 -1.8800
 1013MOL0     H36741  11.048   6.651   3.704  4.7779 -1.2222 -1.1076
 1013MOL0     H36742  11.040   6.411   3.623 -0.2976  0.9148  1.2764
 1013MOL0     H36743  10.844   6.109   3.323  1.5371  0.6756  1.0600
 1013MOL0     H36744  10.834   5.881   3.240  0.7378  0.2789  1.7943
 1013MOL0     H36745  10.912   5.580   3.049 -3.3616 -1.1740 -1.0140
 1013MOL0     H36746  10.867   5.679   3.186 -4.3115  2.0946 -1.3857
 1013MOL0     H36747  10.778   5.706   2.890 -0.7690  3.4789 -0.7519
 1013MOL0     H36748  10.759   5.841   3.006 -0.0219 -0.5115 -2.1415
 1013MOL0     H36749  10.631   5.680   3.143 -0.4555  1.1881 -0.0248
 1013MOL0     H36750  10.664   5.553   3.015 -0.6870  0.2331 -0.5642
 1013MOL0     H36751  10.519   5.685   2.856  1.7357 -0.6575  0.5954
 1013MOL0     H36752  10.473   5.798   2.988 -1.8706  0.1677 -0.6795
 1013MOL0     H36753  10.271   5.448   3.095 -1.0525 -1.1254 -1.2262
 1013MOL0     H36754  11.215   5.914   3.061 -0.6727 -1.7045  0.8769
 1013MOL0     H36755  11.260   6.115   3.193 -0.0914 -0.0570  0.3415
 1014MOL0     O36756   2.793   1.240   8.375  0.6518 -0.6330 -0.1322
 1014MOL0     C36757   2.894   1.266   8.437  0.7228 -0.3117 -0.3406
 1014MOL0     O36758   3.017   1.253   8.395 -0.2926 -0.1104  1.3066
 1014MOL0     C36759   3.056   1.198   8.273 -0.5300 -0.3075  0.7965
 1014MOL0     C36760   3.165   1.109   8.272 -0.3544 -0.0060  0.1076
 1014MOL0     C36761   3.201   1.052   8.158  1.1402  0.4022 -0.4339
 1014MOL0     C36762   3.131   1.059   8.043  0.6351 -0.2755  0.5381
 1014MOL0     O36763   3.180   0.986   7.934 -0.4893 -1.2327  0.0971
 1014MOL0     C36764   3.088   0.927   7.841  0.0711  0.3988  0.5840
 1014MOL0     C36765   3.182   0.857   7.731  0.7906 -0.9196 -0.3372
 1014MOL0     C36766   3.094   0.772   7.635  0.0611  0.8347  0.2590
 1014MOL0     C36767   3.190   0.682   7.543  1.5814 -1.4405 -0.9540
 1014MOL0     C36768   3.106   0.594   7.453 -1.0882 -0.3625 -0.3398
 1014MOL0     C36769   3.197   0.522   7.352  0.4491 -0.2050 -0.1261
 1014MOL0     C36770   3.119   0.425   7.264  0.3909 -0.1750  1.0489
 1014MOL0     C36771   3.011   0.489   7.168 -0.3866 -0.0491  0.0230
 1014MOL0     N36772   2.950   0.380   7.085  0.2279 -0.5963 -0.3757
 1014MOL0     C36773   2.816   0.351   7.098  0.3228 -1.1494  0.0653
 1014MOL0     C36774   2.778   0.265   7.000  0.0592  0.0816 -0.4580
 1014MOL0     C36775   2.643   0.197   7.003 -0.1702  1.0476  0.4804
 1014MOL0     C36776   2.598   0.147   7.134  0.0483 -0.3925 -0.1955
 1014MOL0     C36777   2.684   0.028   7.186 -0.0641  0.1250  0.7837
 1014MOL0     C36778   2.609  -0.056   7.294 -0.1617  0.6198 -0.1984
 1014MOL0     O36779   2.710  -0.101   7.382  0.1718  0.1084 -0.4561
 1014MOL0     C36780   2.746  -0.038   7.489 -0.3031  0.1551  0.4844
 1014MOL0     C36781   2.800  -0.112   7.588 -0.5904  0.7662  0.1339
 1014MOL0     C36782   2.832  -0.053   7.717  0.5098  0.3672 -0.1657
 1014MOL0     C36783   2.872  -0.156   7.823  0.6544 -0.2308  0.4065
 1014MOL0     C36784   2.828   0.087   7.739 -0.3766  1.2760  0.9474
 1014MOL0     C36785   2.884   0.157   7.855  0.7033 -0.9104 -0.0739
 1014MOL0     O36786   2.855   0.285   7.870 -0.4426 -0.7668  0.8491
 1014MOL0     C36787   2.947   0.360   7.944  0.7387 -0.5789  0.1425
 1014MOL0     C36788   2.933   0.354   8.087 -0.0757 -0.6389  0.3876
 1014MOL0     C36789   3.026   0.434   8.158  0.2423 -0.0976  0.4035
 1014MOL0     C36790   3.128   0.516   8.103  0.7900  0.1627  0.5859
 1014MOL0     O36791   3.213   0.586   8.191 -0.5083  0.2475  0.6125
 1014MOL0     C36792   3.298   0.696   8.146 -0.3656  0.1501  0.2194
 1014MOL0     C36793   3.424   0.636   8.083 -0.0674 -0.2872  0.3495
 1014MOL0     C36794   3.507   0.554   8.185 -0.3899 -0.1943  0.0527
 1014MOL0     C36795   3.652   0.548   8.134  0.3837 -0.1095  0.5071
 1014MOL0     C36796   3.742   0.441   8.202 -0.5910 -0.7295 -0.1874
 1014MOL0     C36797   3.777   0.454   8.349  0.2497 -0.8832  0.3489
 1014MOL0     C36798   3.868   0.577   8.387  0.3274  0.2604 -0.4281
 1014MOL0     C36799   3.890   0.590   8.541  0.0008 -0.6797 -0.4078
 1014MOL0    Cl36800   3.999   0.727   8.576 -0.4365  0.1019  0.1558
 1014MOL0     C36801   3.128   0.526   7.964 -0.2046  0.9997 -0.1219
 1014MOL0     C36802   3.047   0.439   7.887  0.4007  0.5460  0.1342
 1014MOL0     O36803   2.956   0.087   7.931  0.9464  0.5950 -0.0459
 1014MOL0     C36804   2.765   0.159   7.638  0.3653  0.0879 -0.7565
 1014MOL0     C36805   2.722   0.100   7.516 -0.6802  0.5400  0.2082
 1014MOL0     N36806   2.892   0.254   6.906 -0.4091  1.0824 -0.5886
 1014MOL0     N36807   2.987   0.330   6.966 -0.5775  0.3141  0.1479
 1014MOL0     C36808   3.025   1.150   8.037  0.3151 -0.1681 -0.2425
 1014MOL0     C36809   2.993   1.220   8.154 -0.7020 -0.4471  0.5506
 1014MOL0     C36810   2.885   1.295   8.578  0.9756  0.0314  0.6537
 1014MOL0     C36811   2.995   1.295   8.655 -0.0299 -0.0686 -0.4735
 1014MOL0     C36812   2.984   1.320   8.794  0.3780 -0.2638 -0.4950
 1014MOL0     C36813   2.861   1.325   8.863 -0.4250  0.8561 -0.2699
 1014MOL0     O36814   2.860   1.341   9.002  0.3424 -0.4165 -0.4776
 1014MOL0     C36815   2.751   1.282   9.076 -0.5088 -0.7477  0.4236
 1014MOL0     C36816   2.797   1.281   9.228  0.0800  0.0722  1.1775
 1014MOL0     C36817   2.672   1.260   9.314 -0.0408 -0.2806  0.3604
 1014MOL0     C36818   2.726   1.227   9.461  0.4080  0.0319  0.6447
 1014MOL0     C36819   2.802   1.344   9.513 -0.8043  0.7971 -0.4673
 1014MOL0     C36820   2.888   1.418   9.558 -0.3640  0.3289  0.4295
 1014MOL0     C36821   2.748   1.326   8.778  0.6146 -0.1913 -0.5466
 1014MOL0     C36822   2.759   1.314   8.636  0.2888 -0.4039 -0.0975
 1014MOL0     H36823   3.222   1.087   8.362  0.9044  1.1482 -0.3645
 1014MOL0     H36824   3.293   0.995   8.170  0.0314 -1.2357  0.8041
 1014MOL0     H36825   3.040   0.851   7.904 -1.7012  2.2585  1.6172
 1014MOL0     H36826   3.009   0.987   7.794 -0.6522 -1.2630 -0.4095
 1014MOL0     H36827   3.239   0.930   7.672  0.0758 -0.9599 -1.0969
 1014MOL0     H36828   3.248   0.788   7.785 -0.2989 -1.4599  0.3432
 1014MOL0     H36829   3.025   0.712   7.695 -0.9261  2.9359  1.3198
 1014MOL0     H36830   3.032   0.838   7.574  0.6589  1.3994  0.2500
 1014MOL0     H36831   3.245   0.744   7.472  1.9758 -1.7489 -0.9272
 1014MOL0     H36832   3.270   0.627   7.594  1.1075 -0.4611  0.9445
 1014MOL0     H36833   3.056   0.515   7.510 -3.1986 -0.8545 -2.6749
 1014MOL0     H36834   3.034   0.666   7.411 -1.3629  0.2534  1.1311
 1014MOL0     H36835   3.256   0.596   7.297 -0.6970  0.1935 -0.8542
 1014MOL0     H36836   3.276   0.461   7.397  1.5645  2.4377  1.7701
 1014MOL0     H36837   3.192   0.374   7.200  3.0479  2.1092  2.0585
 1014MOL0     H36838   3.076   0.354   7.336  0.9572 -0.1008  1.4708
 1014MOL0     H36839   3.060   0.555   7.095  0.2368 -1.6918 -1.0906
 1014MOL0     H36840   2.955   0.558   7.231 -0.6544 -0.3968  0.1682
 1014MOL0     H36841   2.761   0.378   7.188  3.8066 -2.5237  2.8758
 1014MOL0     H36842   2.566   0.264   6.965  0.4207  0.2924 -2.2616
 1014MOL0     H36843   2.627   0.112   6.937 -2.3365  1.0412  0.9405
 1014MOL0     H36844   2.492   0.120   7.126 -0.3885  0.9219  0.8279
 1014MOL0     H36845   2.602   0.221   7.214  1.3919 -0.4250 -0.2194
 1014MOL0     H36846   2.777   0.071   7.225  0.2084 -0.5002  0.8369
 1014MOL0     H36847   2.711  -0.041   7.105 -1.4799  0.1728  0.2483
 1014MOL0     H36848   2.566  -0.131   7.228  1.1115  0.6589 -1.1214
 1014MOL0     H36849   2.536   0.001   7.352 -1.3502 -1.3653  0.3442
 1014MOL0     H36850   2.818  -0.219   7.578 -1.0005  0.8735 -2.4048
 1014MOL0     H36851   2.978  -0.183   7.828  0.6041 -0.6298 -0.4646
 1014MOL0     H36852   2.843  -0.120   7.922 -1.0446  1.6662 -0.7060
 1014MOL0     H36853   2.817  -0.250   7.821  3.7918 -2.2661  1.4352
 1014MOL0     H36854   2.861   0.285   8.128 -1.7012 -0.0845 -1.3859
 1014MOL0     H36855   3.021   0.426   8.266 -3.6598 -0.0325  0.3860
 1014MOL0     H36856   3.247   0.744   8.061  0.6308  0.3571 -0.2799
 1014MOL0     H36857   3.319   0.771   8.223 -1.0694  1.1240 -0.4956
 1014MOL0     H36858   3.388   0.580   7.996 -1.5105  0.7080  0.2804
 1014MOL0     H36859   3.491   0.709   8.037  0.6616  0.2834  2.1997
 1014MOL0     H36860   3.461   0.456   8.203  1.0227 -0.4988  2.5092
 1014MOL0     H36861   3.509   0.625   8.269 -1.7833  1.6685 -1.4088
 1014MOL0     H36862   3.633   0.522   8.030 -0.7892 -0.6845  0.8474
 1014MOL0     H36863   3.685   0.652   8.137  0.7137 -0.1783 -0.5105
 1014MOL0     H36864   3.839   0.431   8.153  0.3639  3.1677  0.5145
 1014MOL0     H36865   3.681   0.352   8.191  0.6089 -1.4516 -1.3074
 1014MOL0     H36866   3.678   0.463   8.394 -1.4924 -1.0084 -3.0820
 1014MOL0     H36867   3.822   0.363   8.387 -0.5679 -0.6890  1.8827
 1014MOL0     H36868   3.811   0.668   8.363 -0.6595 -0.8536 -2.5801
 1014MOL0     H36869   3.965   0.560   8.339  0.0755  0.4311 -1.0127
 1014MOL0     H36870   3.937   0.509   8.597  3.7834  0.2741 -1.8478
 1014MOL0     H36871   3.793   0.605   8.589 -0.0886 -1.2681 -0.3998
 1014MOL0     H36872   3.199   0.589   7.913 -0.6027  3.0254  1.6636
 1014MOL0     H36873   3.040   0.418   7.781  2.3724 -2.2417  0.4685
 1014MOL0     H36874   2.764   0.266   7.654  0.0529 -0.2689  2.1250
 1014MOL0     H36875   2.680   0.162   7.438 -1.5950 -1.1653 -0.7101
 1014MOL0     H36876   2.956   1.155   7.953 -1.9765 -0.3636  1.5475
 1014MOL0     H36877   2.912   1.290   8.134  0.1700  0.3493 -0.3250
 1014MOL0     H36878   3.098   1.303   8.620 -0.1134  3.2895 -0.3210
 1014MOL0     H36879   3.075   1.326   8.853  1.6033 -1.9324 -2.0830
 1014MOL0     H36880   2.665   1.350   9.081 -0.7511 -1.0248  0.0406
 1014MOL0     H36881   2.730   1.182   9.038 -0.5492 -1.3782  2.0618
 1014MOL0     H36882   2.841   1.380   9.242 -0.8771  0.6078  0.5109
 1014MOL0     H36883   2.864   1.194   9.231  1.7351  1.0519 -2.2261
 1014MOL0     H36884   2.630   1.169   9.270  1.6116 -0.8183 -0.1575
 1014MOL0     H36885   2.601   1.343   9.304  0.2875  0.0946  1.0477
 1014MOL0     H36886   2.788   1.137   9.463  0.3944  0.0057 -0.0155
 1014MOL0     H36887   2.638   1.213   9.524 -0.8822 -0.7066 -1.2380
 1014MOL0     H36888   2.982   1.463   9.586  0.3236 -1.7847  1.7073
 1014MOL0     H36889   2.656   1.331   8.836  1.4419  0.0494  0.7837
 1014MOL0     H36890   2.666   1.309   8.582 -1.9967  1.1674  3.3104
 1015MOL0     O36891   6.146   9.428   9.887  0.0759  0.1061  1.1795
 1015MOL0     C36892   6.212   9.529   9.863  0.0310  0.8033  0.1675
 1015MOL0     O36893   6.336   9.540   9.803  0.4169  0.0406  0.1549
 1015MOL0     C36894   6.408   9.425   9.761 -0.0204  0.1025 -0.5774
 1015MOL0     C36895   6.352   9.340   9.672 -1.2487  0.5755 -0.6839
 1015MOL0     C36896   6.412   9.226   9.631 -0.6867 -0.0444 -0.1284
 1015MOL0     C36897   6.541   9.209   9.659 -0.8570 -0.4155  0.0233
 1015MOL0     O36898   6.632   9.122   9.597  0.5120 -0.0464 -0.6007
 1015MOL0     C36899   6.595   9.008   9.528 -0.6002  0.7405  0.1172
 1015MOL0     C36900   6.722   8.935   9.489 -0.7190 -1.1173  0.4857
 1015MOL0     C36901   6.802   9.029   9.393 -0.3868 -0.0534  1.0644
 1015MOL0     C36902   6.935   8.980   9.363 -0.2920 -0.4695 -1.3554
 1015MOL0     C36903   7.003   9.050   9.253 -0.4421  1.1004  0.6023
 1015MOL0     C36904   7.144   8.997   9.223  0.9156 -0.5507  0.2531
 1015MOL0     C36905   7.229   9.102   9.140 -0.0156 -0.2028 -0.9500
 1015MOL0     C36906   7.326   9.014   9.054 -0.3310  0.4184  0.3328
 1015MOL0     N36907   7.444   8.981   9.132  1.1832 -0.4133 -1.3769
 1015MOL0     C36908   7.471   8.865   9.217  0.4898 -0.1335  0.2290
 1015MOL0     C36909   7.590   8.891   9.266 -0.8056 -0.0551  0.1840
 1015MOL0     C36910   7.667   8.788   9.353 -0.2174  0.7680 -0.4123
 1015MOL0     C36911   7.771   8.850   9.442 -0.4438 -0.3746 -0.3356
 1015MOL0     C36912   7.830   8.750   9.550 -0.2692  0.9099 -0.0436
 1015MOL0     C36913   7.933   8.822   9.648  0.3667  0.7914  0.7376
 1015MOL0     O36914   7.993   8.724   9.731 -0.7074 -0.7436 -0.0573
 1015MOL0     C36915   8.054   8.784   9.840 -0.9150  0.4641 -0.0323
 1015MOL0     C36916   8.125   8.686   9.911 -0.5930  0.3387  0.3250
 1015MOL0     C36917   8.197   8.713  10.027  0.2259 -0.7264 -0.4735
 1015MOL0     C36918   8.248   8.596  10.098 -0.2866  0.5501  0.1811
 1015MOL0     C36919   8.210   8.852  10.064 -0.6763  0.0815  0.0633
 1015MOL0     C36920   8.303   8.899  10.174  1.0643 -0.1602  0.3161
 1015MOL0     O36921   8.301   9.034  10.217 -0.2848 -0.2642 -0.2781
 1015MOL0     C36922   8.399   9.078  10.296  0.8620 -0.3955  0.4766
 1015MOL0     C36923   8.409   9.031  10.422  0.6537  0.0403 -0.1900
 1015MOL0     C36924   8.516   9.074  10.507 -0.4403 -0.2298 -0.6254
 1015MOL0     C36925   8.597   9.176  10.459  0.0255 -0.7320  0.3538
 1015MOL0     O36926   8.678   9.237  10.553 -0.0336 -0.5497 -0.0684
 1015MOL0     C36927   8.810   9.287  10.522 -0.5915 -0.2528 -0.3095
 1015MOL0     C36928   8.922   9.184  10.538 -0.2040 -0.4512  0.0378
 1015MOL0     C36929   9.068   9.239  10.542  1.1158  0.3636  0.3824
 1015MOL0     C36930   9.117   9.300  10.673 -0.4683  0.6597 -0.6185
 1015MOL0     C36931   9.147   9.191  10.780  1.5195 -0.9426  0.0556
 1015MOL0     C36932   9.206   9.252  10.908  0.1700  0.1107 -0.2847
 1015MOL0     C36933   9.230   9.149  11.014 -0.7683 -0.3594  0.5162
 1015MOL0     C36934   9.236   9.206  11.153 -0.1545 -1.1662 -0.2409
 1015MOL0    Cl36935   9.174   9.086  11.275  0.2213  0.1338 -0.1496
 1015MOL0     C36936   8.584   9.230  10.334  0.0575 -0.3264 -0.1055
 1015MOL0     C36937   8.493   9.179  10.247  0.0918  1.4444  0.5884
 1015MOL0     O36938   8.367   8.808  10.231 -0.3766  0.1670 -0.0150
 1015MOL0     C36939   8.149   8.951   9.987 -1.3697  0.8151 -0.3247
 1015MOL0     C36940   8.073   8.923   9.871 -0.1727 -0.1570 -1.3426
 1015MOL0     N36941   7.623   9.016   9.243 -0.0308 -0.9219  0.0598
 1015MOL0     N36942   7.542   9.072   9.155  0.4248 -0.3762  0.0680
 1015MOL0     C36943   6.611   9.290   9.748  0.2853 -0.5570  0.2627
 1015MOL0     C36944   6.542   9.408   9.795 -0.7611 -0.6423  0.0287
 1015MOL0     C36945   6.136   9.653   9.901 -0.4497  0.2539  0.2523
 1015MOL0     C36946   6.207   9.773   9.902  0.2365  0.1448 -0.4882
 1015MOL0     C36947   6.134   9.890   9.935 -0.2827 -0.2108 -0.1662
 1015MOL0     C36948   5.999   9.891   9.971 -0.7880  0.0288 -0.3983
 1015MOL0     O36949   5.953  10.011  10.023 -0.2265 -0.4502 -0.1829
 1015MOL0     C36950   5.859   9.995  10.130 -0.5057 -0.0722  0.2623
 1015MOL0     C36951   5.865  10.111  10.233  0.6167  0.5587  0.1799
 1015MOL0     C36952   5.745  10.093  10.334  0.3871  0.5880  1.1701
 1015MOL0     C36953   5.807  10.106  10.472 -0.7841 -0.9047  0.2413
 1015MOL0     C36954   5.704  10.117  10.577 -0.0261 -0.0952 -0.2679
 1015MOL0     C36955   5.625  10.130  10.673 -0.0414 -1.3811 -1.0065
 1015MOL0     C36956   5.936   9.767   9.974 -0.1771 -0.5122  0.0658
 1015MOL0     C36957   5.998   9.651   9.933 -0.1322  0.5750  0.2087
 1015MOL0     H36958   6.249   9.357   9.641 -1.6547 -0.0261  0.2792
 1015MOL0     H36959   6.358   9.177   9.551  0.7285 -2.2754  0.1988
 1015MOL0     H36960   6.528   8.939   9.581  0.9142 -1.7857 -1.0546
 1015MOL0     H36961   6.544   9.043   9.438 -4.0001  0.4181  1.7714
 1015MOL0     H36962   6.781   8.912   9.578 -1.5094  1.2583  1.7078
 1015MOL0     H36963   6.696   8.848   9.428  2.1158 -1.3933 -0.4749
 1015MOL0     H36964   6.742   9.040   9.302 -1.8368 -0.7451  1.8977
 1015MOL0     H36965   6.802   9.133   9.426 -2.7947  0.6532 -0.8207
 1015MOL0     H36966   6.984   8.996   9.460 -2.2474 -2.7347  0.1217
 1015MOL0     H36967   6.919   8.874   9.341 -3.5981 -0.8037  1.6744
 1015MOL0     H36968   6.935   9.048   9.167  0.2652  0.3808  0.0408
 1015MOL0     H36969   7.019   9.155   9.279 -0.9560  1.5496 -0.7871
 1015MOL0     H36970   7.201   8.963   9.309  0.9474 -2.2131 -0.3828
 1015MOL0     H36971   7.134   8.910   9.158  2.9709 -2.3796  2.2550
 1015MOL0     H36972   7.162   9.163   9.079 -0.3333  3.1304  2.3654
 1015MOL0     H36973   7.290   9.171   9.198  1.7454 -3.8214  1.8961
 1015MOL0     H36974   7.354   9.078   8.970 -0.3689  0.7495  0.5716
 1015MOL0     H36975   7.276   8.931   9.003 -3.3101  4.0515 -3.3739
 1015MOL0     H36976   7.425   8.768   9.232  0.9180 -0.2260  1.0032
 1015MOL0     H36977   7.598   8.722   9.406 -2.7718  3.0276 -0.7016
 1015MOL0     H36978   7.712   8.718   9.282 -1.2896 -0.1708 -0.1932
 1015MOL0     H36979   7.736   8.945   9.483  1.3848  0.0101  0.3955
 1015MOL0     H36980   7.856   8.879   9.380  1.2380 -1.4580  1.3602
 1015MOL0     H36981   7.892   8.680   9.493 -3.1670 -1.3364 -0.6402
 1015MOL0     H36982   7.759   8.690   9.607  0.3754  0.1895  0.0195
 1015MOL0     H36983   7.868   8.887   9.708  0.9290  1.5200  0.5684
 1015MOL0     H36984   8.003   8.884   9.591 -1.0118  0.6017 -1.2618
 1015MOL0     H36985   8.128   8.582   9.880  3.8784  0.2041  0.6651
 1015MOL0     H36986   8.202   8.578  10.196 -3.9214 -0.8866 -1.5831
 1015MOL0     H36987   8.235   8.497  10.054 -1.0858  1.5695 -1.9936
 1015MOL0     H36988   8.355   8.606  10.120  0.1726 -2.1998 -0.4827
 1015MOL0     H36989   8.332   8.967  10.464 -0.9795  0.7387 -1.9625
 1015MOL0     H36990   8.525   9.042  10.611  1.2461  3.2724  0.4548
 1015MOL0     H36991   8.811   9.339  10.426 -1.5861  0.2241 -0.0740
 1015MOL0     H36992   8.836   9.373  10.585 -0.0439 -2.3195  2.5023
 1015MOL0     H36993   8.902   9.110  10.616 -0.1434  0.7427  1.2248
 1015MOL0     H36994   8.924   9.116  10.453 -0.6433  1.1270 -1.2725
 1015MOL0     H36995   9.066   9.320  10.468  2.6331 -0.7659 -0.9482
 1015MOL0     H36996   9.138   9.164  10.502 -0.6196 -0.8713 -0.4900
 1015MOL0     H36997   9.210   9.357  10.667  0.6594 -0.4952  3.1692
 1015MOL0     H36998   9.040   9.366  10.714 -0.9782  0.6497 -1.5383
 1015MOL0     H36999   9.229   9.127  10.746  2.6253  1.7653 -2.8694
 1015MOL0     H37000   9.054   9.135  10.796 -0.1858  1.9858  1.0319
 1015MOL0     H37001   9.305   9.288  10.878 -0.3097 -0.3791 -2.6064
 1015MOL0     H37002   9.136   9.328  10.944 -1.8095 -1.2618 -1.0373
 1015MOL0     H37003   9.329   9.108  10.992 -0.0475  0.5366  1.9175
 1015MOL0     H37004   9.162   9.064  11.012  0.4532 -1.4219 -2.5683
 1015MOL0     H37005   9.166   9.290  11.158  0.9073 -0.0943 -2.0373
 1015MOL0     H37006   9.334   9.242  11.184 -1.0198  0.3837  0.7893
 1015MOL0     H37007   8.645   9.313  10.300  1.5647 -1.1192  0.5709
 1015MOL0     H37008   8.481   9.207  10.142 -0.9163  1.4264  0.6823
 1015MOL0     H37009   8.169   9.053  10.018  1.9531  0.3531 -0.5787
 1015MOL0     H37010   8.043   9.005   9.807 -0.8269 -2.0419 -3.5685
 1015MOL0     H37011   6.709   9.262   9.785  0.4452 -1.5488 -0.8521
 1015MOL0     H37012   6.587   9.482   9.860  0.2389  2.4107 -3.7703
 1015MOL0     H37013   6.313   9.773   9.879  1.1889  0.6196  3.2691
 1015MOL0     H37014   6.174   9.991   9.935 -2.5809  0.8068 -2.1346
 1015MOL0     H37015   5.763   9.989  10.079 -0.2409  0.7213 -0.3595
 1015MOL0     H37016   5.878   9.899  10.179  0.1435  2.0890  4.7619
 1015MOL0     H37017   5.870  10.206  10.178  0.0368 -1.0094 -2.8226
 1015MOL0     H37018   5.966  10.103  10.273  0.9208  1.0762 -0.4527
 1015MOL0     H37019   5.685  10.002  10.324 -3.0116  2.8396 -1.1298
 1015MOL0     H37020   5.660  10.161  10.319 -1.1928 -1.8280 -2.0544
 1015MOL0     H37021   5.873  10.193  10.478  0.9760 -2.1946  0.3270
 1015MOL0     H37022   5.868  10.022  10.506  0.7437  0.8154  1.9820
 1015MOL0     H37023   5.551  10.136  10.750  0.0622 -1.1893 -0.9210
 1015MOL0     H37024   5.828   9.765   9.986 -0.4788 -1.6986 -2.2615
 1015MOL0     H37025   5.949   9.555   9.925  1.7131 -0.4477  0.6061
 1016MOL0     O37026   2.573   7.184   4.431  0.1906 -0.5788 -1.0676
 1016MOL0     C37027   2.559   7.281   4.510  0.3039  0.0309  0.7695
 1016MOL0     O37028   2.642   7.396   4.526  0.1591  0.2597 -0.1838
 1016MOL0     C37029   2.749   7.408   4.436 -0.0364 -0.8065 -0.3580
 1016MOL0     C37030   2.736   7.413   4.293  0.3569 -1.1076  0.0689
 1016MOL0     C37031   2.840   7.441   4.204  0.4036  0.4073  0.3322
 1016MOL0     C37032   2.963   7.465   4.255  0.1369  0.2305 -1.3672
 1016MOL0     O37033   3.066   7.491   4.172  0.3087 -0.7577 -0.0514
 1016MOL0     C37034   3.048   7.546   4.036  0.1253 -0.3507  0.6151
 1016MOL0     C37035   3.173   7.615   3.984 -0.2722  0.6972  0.3869
 1016MOL0     C37036   3.201   7.743   4.051 -0.2731 -0.9512 -0.1960
 1016MOL0     C37037   3.322   7.814   3.972 -0.0933  1.1865  0.1727
 1016MOL0     C37038   3.355   7.955   4.020 -0.3173  0.0636  0.1847
 1016MOL0     C37039   3.403   7.974   4.161 -0.6358 -0.0367  0.3150
 1016MOL0     C37040   3.457   8.121   4.164  0.6719 -0.1781  0.1820
 1016MOL0     C37041   3.464   8.185   4.303 -0.0231  0.3970 -0.6914
 1016MOL0     N37042   3.537   8.314   4.311 -1.2846  0.0532 -0.0650
 1016MOL0     C37043   3.504   8.436   4.241  0.6866 -0.5335 -0.5245
 1016MOL0     C37044   3.603   8.524   4.290  0.6396  0.3758 -0.5655
 1016MOL0     C37045   3.604   8.667   4.246 -0.1805 -1.3338 -1.0823
 1016MOL0     C37046   3.489   8.763   4.272  0.9927 -0.1149 -0.0668
 1016MOL0     C37047   3.514   8.912   4.236  0.6295 -0.2515  1.1212
 1016MOL0     C37048   3.556   9.000   4.358  0.8765  0.8304  0.7531
 1016MOL0     O37049   3.598   9.119   4.283  0.0635 -0.8105 -0.6024
 1016MOL0     C37050   3.677   9.204   4.358  0.4160  0.2248 -0.2168
 1016MOL0     C37051   3.815   9.186   4.376 -0.2904  1.1701 -0.2651
 1016MOL0     C37052   3.894   9.274   4.447  0.4084 -0.0567 -0.4567
 1016MOL0     C37053   4.052   9.262   4.463 -0.1910 -0.0764 -0.1262
 1016MOL0     C37054   3.832   9.383   4.513  0.2868 -0.3612  0.1328
 1016MOL0     C37055   3.907   9.480   4.592 -0.5468 -0.4853 -1.0586
 1016MOL0     O37056   4.012   9.542   4.533  0.0902 -0.2022 -0.7940
 1016MOL0     C37057   4.109   9.596   4.604 -0.7860  0.8794 -0.3295
 1016MOL0     C37058   4.166   9.552   4.724 -0.1422 -0.5605  0.1679
 1016MOL0     C37059   4.273   9.624   4.784 -0.5702  0.5776 -0.4101
 1016MOL0     C37060   4.338   9.729   4.716 -0.2562  0.1062 -0.4399
 1016MOL0     O37061   4.452   9.794   4.769  0.1110 -0.5639 -0.3133
 1016MOL0     C37062   4.481   9.797   4.905  0.0009 -0.3019 -1.1691
 1016MOL0     C37063   4.569   9.678   4.952 -0.2949  0.9585 -1.4131
 1016MOL0     C37064   4.712   9.671   4.898  0.4344 -0.1049 -0.5820
 1016MOL0     C37065   4.805   9.560   4.948 -0.3092  0.2828 -0.5519
 1016MOL0     C37066   4.786   9.418   4.890  0.2428  0.0925 -0.9105
 1016MOL0     C37067   4.816   9.412   4.736 -0.1042  0.4200 -0.0249
 1016MOL0     C37068   4.798   9.271   4.662 -0.9248  0.2657 -0.2332
 1016MOL0     C37069   4.684   9.179   4.700 -0.2421  0.5470  0.1074
 1016MOL0    Cl37070   4.536   9.277   4.717  0.1146  0.1925 -0.2863
 1016MOL0     C37071   4.278   9.768   4.593 -0.2129 -0.4607 -0.2927
 1016MOL0     C37072   4.172   9.703   4.541 -0.4242  0.4791 -0.7823
 1016MOL0     O37073   3.872   9.496   4.711 -0.3236 -0.7053  0.4217
 1016MOL0     C37074   3.692   9.392   4.504 -0.7494  0.0333 -0.2333
 1016MOL0     C37075   3.618   9.307   4.423  0.4983  0.0247 -0.6346
 1016MOL0     N37076   3.696   8.448   4.369  0.4872  0.1774  0.2494
 1016MOL0     N37077   3.654   8.323   4.382 -0.3579 -0.7904  0.2438
 1016MOL0     C37078   2.986   7.461   4.391 -0.5231 -0.6711 -0.5211
 1016MOL0     C37079   2.881   7.427   4.477  0.5259 -0.6268 -0.2222
 1016MOL0     C37080   2.421   7.293   4.576 -0.4916 -0.0583 -0.2071
 1016MOL0     C37081   2.383   7.423   4.621  0.2106  0.6426 -0.4477
 1016MOL0     C37082   2.262   7.426   4.705 -0.3101 -0.5030 -0.2389
 1016MOL0     C37083   2.181   7.312   4.732 -0.2676  0.4462 -0.3232
 1016MOL0     O37084   2.054   7.318   4.795 -0.4483 -0.1099  0.4730
 1016MOL0     C37085   2.007   7.443   4.843  0.7349 -0.5289  0.1624
 1016MOL0     C37086   1.852   7.426   4.866  0.0517 -0.2840 -0.7638
 1016MOL0     C37087   1.804   7.560   4.925  0.2491 -0.1552  0.0232
 1016MOL0     C37088   1.674   7.553   5.005  0.4730 -0.4394 -0.7151
 1016MOL0     C37089   1.563   7.620   4.940 -0.5660 -0.2061 -0.0358
 1016MOL0     C37090   1.469   7.661   4.877  0.0994  0.2741 -0.4687
 1016MOL0     C37091   2.232   7.187   4.685  0.0474  0.7956 -0.6232
 1016MOL0     C37092   2.343   7.178   4.597  0.3503 -0.0906  0.4406
 1016MOL0     H37093   2.637   7.414   4.250  1.9075 -1.2002 -4.0081
 1016MOL0     H37094   2.813   7.452   4.099 -1.4913  1.7949  0.9326
 1016MOL0     H37095   3.025   7.465   3.967  2.0356  0.4595 -1.0782
 1016MOL0     H37096   2.973   7.626   4.039  1.4876  1.1769 -2.2835
 1016MOL0     H37097   3.266   7.556   3.984  0.0393  1.1813  0.4995
 1016MOL0     H37098   3.152   7.637   3.879 -0.7333 -1.9502 -0.1702
 1016MOL0     H37099   3.118   7.813   4.057  1.1948  1.1460 -2.5047
 1016MOL0     H37100   3.239   7.728   4.153  3.0082  1.2217 -0.9425
 1016MOL0     H37101   3.416   7.759   3.974  0.0569  1.4654  1.4736
 1016MOL0     H37102   3.294   7.820   3.866  0.7979  3.6515  0.0098
 1016MOL0     H37103   3.435   7.989   3.955 -0.2280  1.6811  1.0979
 1016MOL0     H37104   3.274   8.028   4.007  0.1664  0.4235 -0.9035
 1016MOL0     H37105   3.330   7.955   4.241 -1.3291  0.6471 -0.1428
 1016MOL0     H37106   3.489   7.907   4.170 -1.7298 -1.4111  1.0265
 1016MOL0     H37107   3.558   8.101   4.128  0.4886 -2.0530  0.5719
 1016MOL0     H37108   3.403   8.182   4.092  2.8602 -0.4142 -1.7811
 1016MOL0     H37109   3.510   8.110   4.368  2.6382  1.3393 -1.3787
 1016MOL0     H37110   3.359   8.208   4.327 -0.0398  1.2981 -1.5555
 1016MOL0     H37111   3.415   8.455   4.181 -0.0094 -0.7773  0.4111
 1016MOL0     H37112   3.697   8.704   4.289 -1.1795  0.1382 -0.1378
 1016MOL0     H37113   3.619   8.663   4.137 -0.0317 -1.4263 -1.0588
 1016MOL0     H37114   3.449   8.759   4.374 -1.3973  2.4597 -0.7948
 1016MOL0     H37115   3.413   8.733   4.200  0.9281 -1.2386  0.4527
 1016MOL0     H37116   3.420   8.961   4.211  0.8672  2.0553  4.1341
 1016MOL0     H37117   3.586   8.926   4.156 -0.6250  1.0299  0.1838
 1016MOL0     H37118   3.633   8.945   4.412  0.9104  0.2661  0.1410
 1016MOL0     H37119   3.475   9.016   4.430  0.2490 -1.0188  0.5068
 1016MOL0     H37120   3.861   9.098   4.333  2.2394  1.6506  1.2452
 1016MOL0     H37121   4.093   9.292   4.560  2.3669 -0.7960 -0.9358
 1016MOL0     H37122   4.076   9.156   4.456  1.0514  0.2467 -0.9679
 1016MOL0     H37123   4.103   9.325   4.390  2.0707 -0.7942  0.7694
 1016MOL0     H37124   4.123   9.476   4.788  1.3657 -2.7447 -1.2884
 1016MOL0     H37125   4.320   9.582   4.873  0.7752 -4.1804 -3.0033
 1016MOL0     H37126   4.538   9.887   4.927 -1.4526  0.9029 -2.0849
 1016MOL0     H37127   4.392   9.808   4.968  2.2047 -2.8388  2.8159
 1016MOL0     H37128   4.578   9.678   5.061  1.5637 -0.9748 -1.5003
 1016MOL0     H37129   4.522   9.582   4.929  0.1431  0.2709  0.3525
 1016MOL0     H37130   4.761   9.768   4.910 -2.8098  1.4720  1.7444
 1016MOL0     H37131   4.698   9.664   4.790  0.3447 -0.3131 -0.5589
 1016MOL0     H37132   4.903   9.598   4.916 -0.2211 -0.1868 -0.8520
 1016MOL0     H37133   4.804   9.551   5.057  0.3743 -3.5271 -0.7282
 1016MOL0     H37134   4.692   9.369   4.917  0.3924  0.2987  0.0375
 1016MOL0     H37135   4.871   9.356   4.924 -0.3602  0.1204  0.7568
 1016MOL0     H37136   4.743   9.472   4.680  1.5448  2.0392 -0.5501
 1016MOL0     H37137   4.913   9.459   4.718 -0.2376 -0.1536 -2.6241
 1016MOL0     H37138   4.893   9.218   4.676  0.4242  2.9519  1.5593
 1016MOL0     H37139   4.794   9.282   4.553  1.7618  0.3708 -0.3963
 1016MOL0     H37140   4.698   9.142   4.802  2.9333 -0.0275 -0.4309
 1016MOL0     H37141   4.666   9.093   4.635  2.7330 -0.5582  0.5419
 1016MOL0     H37142   4.313   9.855   4.538 -1.1520  1.9693  2.6220
 1016MOL0     H37143   4.138   9.734   4.443 -0.1159  0.9175 -0.7500
 1016MOL0     H37144   3.630   9.463   4.557 -0.3476  0.5459 -0.4336
 1016MOL0     H37145   3.511   9.328   4.423  0.5689  0.4187  0.1476
 1016MOL0     H37146   3.083   7.476   4.439 -0.6460 -1.5883  0.0512
 1016MOL0     H37147   2.914   7.407   4.578  3.2319  0.0991 -0.8922
 1016MOL0     H37148   2.435   7.516   4.602 -1.6205  1.2815 -2.7097
 1016MOL0     H37149   2.233   7.523   4.744 -2.7678 -0.7425 -1.2869
 1016MOL0     H37150   2.052   7.459   4.941  1.4952  1.4970 -0.4707
 1016MOL0     H37151   2.016   7.527   4.774 -3.4406 -0.2607 -0.3257
 1016MOL0     H37152   1.829   7.343   4.934 -1.0364  0.5080 -0.1195
 1016MOL0     H37153   1.806   7.407   4.768  3.4304  0.0010 -2.5379
 1016MOL0     H37154   1.796   7.635   4.845 -3.4905  0.8637  1.1662
 1016MOL0     H37155   1.877   7.598   4.996 -0.2056 -0.6952  0.7881
 1016MOL0     H37156   1.689   7.612   5.096  2.6560  1.9848 -2.4709
 1016MOL0     H37157   1.640   7.453   5.032 -1.8847  0.7640  1.2404
 1016MOL0     H37158   1.392   7.690   4.810 -1.0101 -1.4446  0.0026
 1016MOL0     H37159   2.194   7.092   4.721  2.7943  0.5571  2.0476
 1016MOL0     H37160   2.371   7.084   4.553 -1.0623 -0.5725  0.5223
 1017MOL0     O37161   0.995  11.342   4.044  0.1142 -0.7277  0.0745
 1017MOL0     C37162   0.889  11.356   4.112 -1.6233 -0.9146 -0.6251
 1017MOL0     O37163   0.821  11.255   4.172  0.1905  0.0625 -0.6160
 1017MOL0     C37164   0.875  11.124   4.169 -0.4026 -0.5129 -0.0653
 1017MOL0     C37165   0.803  11.012   4.139  0.7438 -0.3874  0.5172
 1017MOL0     C37166   0.860  10.880   4.140 -0.8242  0.0324 -0.7569
 1017MOL0     C37167   0.995  10.872   4.195  0.1302  0.7118  0.7210
 1017MOL0     O37168   1.036  10.745   4.212  0.4160  0.5242 -0.0765
 1017MOL0     C37169   1.124  10.717   4.104  0.4217  0.7580  0.5986
 1017MOL0     C37170   1.124  10.559   4.073  1.1313 -0.8485 -0.0777
 1017MOL0     C37171   1.035  10.514   3.956 -0.8658 -0.3840  0.4588
 1017MOL0     C37172   1.109  10.398   3.874 -0.0864 -0.0826 -0.3716
 1017MOL0     C37173   1.023  10.331   3.760 -0.1190 -0.2755 -0.0126
 1017MOL0     C37174   1.107  10.221   3.692 -0.0588  0.8406  0.0765
 1017MOL0     C37175   1.243  10.261   3.629  0.6721 -0.6649  0.6730
 1017MOL0     C37176   1.316  10.141   3.559  0.0632 -0.4872 -1.1209
 1017MOL0     N37177   1.326  10.015   3.636 -0.0753 -0.1525 -0.9678
 1017MOL0     C37178   1.383  10.006   3.763 -0.7271 -0.2582 -1.1834
 1017MOL0     C37179   1.359   9.886   3.807 -0.5091  0.3385 -0.3189
 1017MOL0     C37180   1.400   9.824   3.939  0.4655 -0.9236 -0.7870
 1017MOL0     C37181   1.546   9.800   3.955 -0.0209  1.0683 -0.9331
 1017MOL0     C37182   1.580   9.711   4.075  0.4611  0.2606  0.3557
 1017MOL0     C37183   1.728   9.731   4.114  0.3738 -0.9457 -0.1842
 1017MOL0     O37184   1.837   9.675   4.032 -0.5259 -0.4365  0.3536
 1017MOL0     C37185   1.820   9.545   3.994  0.0015  0.2837 -0.2615
 1017MOL0     C37186   1.872   9.500   3.869 -0.6743 -0.2028 -0.0780
 1017MOL0     C37187   1.866   9.366   3.819  0.2672 -0.5260 -0.5404
 1017MOL0     C37188   1.917   9.331   3.684 -1.0594  0.1543  0.4117
 1017MOL0     C37189   1.824   9.264   3.908 -0.0441  0.4905 -0.6536
 1017MOL0     C37190   1.819   9.121   3.869 -0.3947 -0.3431 -0.2397
 1017MOL0     O37191   1.700   9.064   3.839  0.0661  0.1329  0.0459
 1017MOL0     C37192   1.590   9.141   3.834 -0.0546  0.0731 -0.1282
 1017MOL0     C37193   1.569   9.247   3.738  0.5779  0.1898 -1.1886
 1017MOL0     C37194   1.444   9.315   3.731  0.6025  0.4884  0.4144
 1017MOL0     C37195   1.341   9.276   3.812 -0.5783 -0.0787  0.4275
 1017MOL0     O37196   1.219   9.341   3.817 -0.4588  0.0237 -0.2511
 1017MOL0     C37197   1.187   9.442   3.729 -0.7861 -0.0412  0.2455
 1017MOL0     C37198   1.066   9.525   3.770  0.8540  0.0853 -0.2715
 1017MOL0     C37199   1.003   9.589   3.638 -0.4518  0.3713  0.0328
 1017MOL0     C37200   0.932   9.725   3.664 -0.0288  0.3809  0.0814
 1017MOL0     C37201   0.930   9.801   3.532  0.0383 -0.2391  0.5023
 1017MOL0     C37202   0.830   9.918   3.540 -0.1156  0.0129  0.0777
 1017MOL0     C37203   0.832  10.015   3.417 -0.7039  0.2295 -0.5151
 1017MOL0     C37204   0.738  10.128   3.429 -0.3026 -1.0872 -0.1022
 1017MOL0    Cl37205   0.580  10.053   3.451 -0.3769 -0.1090  0.1441
 1017MOL0     C37206   1.360   9.167   3.900  0.0089 -0.2503  0.2705
 1017MOL0     C37207   1.485   9.109   3.911 -0.4738  0.6042  0.0525
 1017MOL0     O37208   1.924   9.061   3.887  0.0726  0.0009  0.0166
 1017MOL0     C37209   1.788   9.301   4.042  0.3333 -0.2050  0.8605
 1017MOL0     C37210   1.769   9.437   4.078 -0.8289  0.6155 -0.3070
 1017MOL0     N37211   1.293   9.812   3.705  0.7589 -0.4764 -0.4472
 1017MOL0     N37212   1.290   9.894   3.600 -0.2341 -0.5974  0.1694
 1017MOL0     C37213   1.064  10.986   4.238  0.3085  1.7606  0.6201
 1017MOL0     C37214   1.002  11.107   4.225  0.0330  0.8042 -0.5243
 1017MOL0     C37215   0.840  11.502   4.112 -0.1574 -0.2687  0.4016
 1017MOL0     C37216   0.705  11.525   4.148 -0.4195  0.2506 -0.4898
 1017MOL0     C37217   0.662  11.649   4.167  0.0547 -0.4429  0.2277
 1017MOL0     C37218   0.746  11.762   4.154  0.1205 -0.0935 -0.0339
 1017MOL0     O37219   0.697  11.885   4.172 -0.5279 -0.7778  0.3462
 1017MOL0     C37220   0.719  11.941   4.307  0.1641  0.4993  0.4806
 1017MOL0     C37221   0.834  12.048   4.302 -0.3025 -0.1752 -0.2721
 1017MOL0     C37222   0.878  12.114   4.438 -0.6550  0.5894  0.5023
 1017MOL0     C37223   0.771  12.158   4.535 -0.4398  0.3528  0.1753
 1017MOL0     C37224   0.643  12.200   4.493  0.1619  0.3132  0.8640
 1017MOL0     C37225   0.532  12.231   4.452 -1.0700  1.2950 -1.0583
 1017MOL0     C37226   0.886  11.742   4.121 -0.0843 -0.2522 -0.0111
 1017MOL0     C37227   0.931  11.614   4.092 -0.0289  0.0726  0.0946
 1017MOL0     H37228   0.702  11.034   4.105  1.1135  3.7264  1.5117
 1017MOL0     H37229   0.813  10.789   4.105  4.4807 -3.1562 -0.6316
 1017MOL0     H37230   1.100  10.766   4.010 -1.9816 -1.9963 -0.3794
 1017MOL0     H37231   1.226  10.746   4.131  0.2488  1.7137  0.2424
 1017MOL0     H37232   1.225  10.524   4.047  0.8616 -2.5429  0.9645
 1017MOL0     H37233   1.093  10.507   4.164 -2.7278  2.0560  0.4949
 1017MOL0     H37234   0.936  10.479   3.985 -0.9716 -1.0478 -0.6310
 1017MOL0     H37235   1.014  10.599   3.892 -1.5195  0.4646  1.7626
 1017MOL0     H37236   1.207  10.429   3.837  0.7376  0.7265  2.2966
 1017MOL0     H37237   1.133  10.317   3.944 -1.1705  2.1759  2.8693
 1017MOL0     H37238   0.935  10.286   3.807 -1.1480  0.9076 -0.7259
 1017MOL0     H37239   0.975  10.405   3.695 -1.2971 -0.6122  0.4366
 1017MOL0     H37240   1.122  10.144   3.769 -0.6315 -0.5959 -1.1815
 1017MOL0     H37241   1.044  10.175   3.615  1.5351  0.2280 -0.9022
 1017MOL0     H37242   1.219  10.326   3.544 -1.0639 -2.8962 -0.6842
 1017MOL0     H37243   1.308  10.309   3.702 -1.8101  1.3499  1.7148
 1017MOL0     H37244   1.419  10.175   3.551  0.3872 -1.0229  0.4479
 1017MOL0     H37245   1.286  10.117   3.457 -0.8070 -4.2499 -0.1478
 1017MOL0     H37246   1.427  10.081   3.827 -0.0956 -2.1551  0.7499
 1017MOL0     H37247   1.350   9.871   4.024 -1.5166 -1.0992 -1.7770
 1017MOL0     H37248   1.360   9.722   3.941  1.8933 -1.5307  2.0405
 1017MOL0     H37249   1.587   9.901   3.961 -3.2780  2.4142  1.8287
 1017MOL0     H37250   1.583   9.751   3.864 -0.6680  3.0051 -2.3011
 1017MOL0     H37251   1.566   9.606   4.046  2.9054  0.2476 -1.0297
 1017MOL0     H37252   1.530   9.749   4.164  0.4489  2.4003 -0.4979
 1017MOL0     H37253   1.743   9.698   4.217  0.1396  3.8139  1.6450
 1017MOL0     H37254   1.746   9.839   4.108 -1.4063 -0.6667 -1.1344
 1017MOL0     H37255   1.916   9.578   3.807 -2.3749 -0.2024 -1.3519
 1017MOL0     H37256   1.978   9.242   3.698 -0.2292  0.8713  1.4734
 1017MOL0     H37257   1.835   9.317   3.612  2.0822 -2.3913 -3.0528
 1017MOL0     H37258   1.984   9.408   3.644  0.4118 -3.1236 -4.4199
 1017MOL0     H37259   1.645   9.263   3.662  0.4599 -1.0815 -1.5960
 1017MOL0     H37260   1.437   9.394   3.657 -5.6655  0.6365  0.6325
 1017MOL0     H37261   1.266   9.514   3.708  0.1861 -0.3334  2.6083
 1017MOL0     H37262   1.167   9.392   3.634 -2.0765  0.6875  0.1035
 1017MOL0     H37263   0.996   9.456   3.817  1.0121 -0.7935 -1.2853
 1017MOL0     H37264   1.088   9.600   3.846 -0.7087  0.0645  0.2337
 1017MOL0     H37265   0.919   9.528   3.606 -2.2215  1.9796  1.3454
 1017MOL0     H37266   1.082   9.590   3.563  1.2380 -3.8381  1.4165
 1017MOL0     H37267   0.831   9.695   3.695 -0.2520 -1.5171 -2.1993
 1017MOL0     H37268   0.982   9.785   3.740  1.9433 -2.1491  0.9072
 1017MOL0     H37269   0.917   9.735   3.446 -2.3622  2.5819 -1.4650
 1017MOL0     H37270   1.030   9.843   3.520  1.6432 -3.7135  0.3031
 1017MOL0     H37271   0.735   9.865   3.547 -0.0729  0.0600  1.1003
 1017MOL0     H37272   0.853   9.978   3.629 -1.0355 -1.1981  1.1634
 1017MOL0     H37273   0.809   9.958   3.327 -0.0077  0.8376 -1.0902
 1017MOL0     H37274   0.931  10.063   3.413 -0.7200  0.2103 -1.2439
 1017MOL0     H37275   0.738  10.186   3.336  2.6923 -0.5024  0.1695
 1017MOL0     H37276   0.766  10.195   3.512 -1.6135  0.7308 -1.0384
 1017MOL0     H37277   1.278   9.141   3.967  0.0573  1.7521  1.2032
 1017MOL0     H37278   1.502   9.026   3.980  2.4520  1.5941  0.6366
 1017MOL0     H37279   1.742   9.221   4.098  0.7024 -2.2741 -1.6346
 1017MOL0     H37280   1.734   9.457   4.179 -4.2681 -2.0441 -0.7793
 1017MOL0     H37281   1.158  10.976   4.291 -1.1388  3.1729  3.7533
 1017MOL0     H37282   1.059  11.194   4.256 -0.4173  0.1183  2.6299
 1017MOL0     H37283   0.640  11.442   4.171  0.1846 -1.2063 -3.5013
 1017MOL0     H37284   0.564  11.670   4.208  1.8135  4.2197  2.8575
 1017MOL0     H37285   0.625  11.989   4.334  0.0485  1.4342 -1.4023
 1017MOL0     H37286   0.739  11.863   4.381 -1.2487 -1.0261 -0.6518
 1017MOL0     H37287   0.801  12.135   4.245 -1.6751  1.7796  3.1754
 1017MOL0     H37288   0.928  12.016   4.258  0.2352  0.8000  0.1244
 1017MOL0     H37289   0.936  12.197   4.398 -1.2815  0.5351 -0.5593
 1017MOL0     H37290   0.947  12.047   4.490 -0.8393  0.1187  0.1529
 1017MOL0     H37291   0.824  12.227   4.602 -0.8387 -1.0472  2.0442
 1017MOL0     H37292   0.758  12.074   4.605  1.2830  1.5848  2.1003
 1017MOL0     H37293   0.437  12.257   4.409 -1.9331  1.4121  0.7908
 1017MOL0     H37294   0.956  11.825   4.129 -1.9421  1.3606  0.3069
 1017MOL0     H37295   1.036  11.601   4.070  0.1794 -1.0533  1.6287
 1018MOL0     O37296  10.109  10.282   3.158  0.6311 -0.1084 -0.3368
 1018MOL0     C37297  10.124  10.293   3.278 -1.1117 -0.8178  0.1971
 1018MOL0     O37298  10.239  10.286   3.341  0.2053  0.1780 -0.2676
 1018MOL0     C37299  10.369  10.256   3.290 -1.0323  0.3101  0.4028
 1018MOL0     C37300  10.410  10.306   3.160 -0.1009 -0.3856 -1.5810
 1018MOL0     C37301  10.531  10.277   3.117 -0.7762 -0.4185 -0.9216
 1018MOL0     C37302  10.626  10.202   3.186 -0.0805  0.1785 -0.4314
 1018MOL0     O37303  10.745  10.175   3.127 -0.8372 -0.5226  0.2549
 1018MOL0     C37304  10.745  10.064   3.038 -0.7598 -0.6144 -0.3744
 1018MOL0     C37305  10.696  10.101   2.893  0.3855  1.0944 -0.4051
 1018MOL0     C37306  10.803  10.204   2.835  0.3865  0.6341 -0.1106
 1018MOL0     C37307  10.794  10.219   2.692  0.2296 -0.1462 -0.3210
 1018MOL0     C37308  10.655  10.277   2.653  0.2267 -0.6626  0.6820
 1018MOL0     C37309  10.613  10.284   2.500 -0.2632 -0.5553 -0.0806
 1018MOL0     C37310  10.600  10.143   2.447  0.0028 -0.1311 -0.3960
 1018MOL0     C37311  10.556  10.135   2.304  0.2017 -0.3076 -0.2279
 1018MOL0     N37312  10.593  10.008   2.243 -0.1210  0.8957  0.7001
 1018MOL0     C37313  10.547   9.882   2.279 -0.2724 -0.9217 -0.3355
 1018MOL0     C37314  10.605   9.799   2.196 -0.3816 -0.1451 -0.3860
 1018MOL0     C37315  10.612   9.647   2.213  0.1958 -0.1404 -0.7160
 1018MOL0     C37316  10.708   9.617   2.316  0.3452  0.1860  0.4946
 1018MOL0     C37317  10.650   9.504   2.401 -0.4065 -0.2009  0.5876
 1018MOL0     C37318  10.724   9.485   2.527  0.1416  0.0511 -0.3411
 1018MOL0     O37319  10.645   9.406   2.614 -0.7553  0.0848  0.0346
 1018MOL0     C37320  10.711   9.331   2.713  0.1815 -0.7270 -0.0047
 1018MOL0     C37321  10.693   9.346   2.854 -1.0391  0.3942 -0.3160
 1018MOL0     C37322  10.746   9.246   2.944  0.0764  0.6053 -0.4075
 1018MOL0     C37323  10.699   9.243   3.084  0.5617 -0.2642 -0.6183
 1018MOL0     C37324  10.831   9.144   2.886 -0.6369  0.1488  0.0012
 1018MOL0     C37325  10.890   9.046   2.976 -0.3172 -0.5578 -0.4484
 1018MOL0     O37326  11.022   9.028   2.965  0.4176 -0.3708  0.6287
 1018MOL0     C37327  11.128   9.105   2.928  0.3880  0.5452 -0.0335
 1018MOL0     C37328  11.257   9.042   2.906 -0.0152  0.2139 -0.3931
 1018MOL0     C37329  11.364   9.125   2.889  0.4963 -0.3235  0.5479
 1018MOL0     C37330  11.354   9.268   2.893  0.8447  0.6592 -0.1238
 1018MOL0     O37331  11.456   9.350   2.867 -0.2120 -0.1441 -0.5399
 1018MOL0     C37332  11.563   9.300   2.786  0.8248  0.5887  0.2358
 1018MOL0     C37333  11.638   9.413   2.713  0.9904  0.6537 -0.1834
 1018MOL0     C37334  11.583   9.549   2.748 -0.3497  0.2782 -0.4067
 1018MOL0     C37335  11.616   9.588   2.901  0.2932  0.7675 -0.8926
 1018MOL0     C37336  11.557   9.721   2.937  0.2367  0.1746 -0.0985
 1018MOL0     C37337  11.414   9.749   2.889 -0.2941  0.1557 -0.1760
 1018MOL0     C37338  11.353   9.867   2.962 -0.6633 -0.1294  0.7837
 1018MOL0     C37339  11.203   9.892   2.917  0.4005  0.6763  0.1397
 1018MOL0    Cl37340  11.147  10.045   2.989  0.2580 -0.0884 -0.2419
 1018MOL0     C37341  11.232   9.325   2.926  0.4810 -0.4377  0.4104
 1018MOL0     C37342  11.126   9.243   2.952 -0.1364 -0.5644  0.7108
 1018MOL0     O37343  10.810   8.982   3.047 -0.0364 -0.2173 -0.0103
 1018MOL0     C37344  10.867   9.151   2.752  1.3089  0.3045 -0.2347
 1018MOL0     C37345  10.798   9.231   2.671 -0.1069  0.3178  0.0005
 1018MOL0     N37346  10.672   9.877   2.101  0.7812 -0.1915 -0.0824
 1018MOL0     N37347  10.658  10.005   2.127 -0.4586 -0.1638 -0.2273
 1018MOL0     C37348  10.589  10.136   3.304  0.5734  0.0748  0.4837
 1018MOL0     C37349  10.464  10.171   3.360 -0.3331  0.0693  0.3677
 1018MOL0     C37350  10.004  10.337   3.347  0.1989  0.1125  1.2043
 1018MOL0     C37351   9.998  10.319   3.483  0.5359  0.2303 -0.2448
 1018MOL0     C37352   9.890  10.376   3.555 -0.4268 -0.2212  0.2622
 1018MOL0     C37353   9.788  10.439   3.489  0.7449  0.4324 -0.4730
 1018MOL0     O37354   9.673  10.479   3.560 -0.6179  0.4408 -0.2302
 1018MOL0     C37355   9.698  10.578   3.670  0.5478  1.0028  0.7275
 1018MOL0     C37356   9.577  10.643   3.733 -0.1250 -0.0549 -0.4101
 1018MOL0     C37357   9.597  10.738   3.861  0.0374  0.4752  1.2272
 1018MOL0     C37358   9.468  10.820   3.896  0.7365 -0.2426 -1.0300
 1018MOL0     C37359   9.517  10.954   3.934 -0.4965 -0.9487 -0.1444
 1018MOL0     C37360   9.568  11.059   3.963 -0.2354  0.6516  0.6851
 1018MOL0     C37361   9.795  10.461   3.352  0.5057 -0.5981 -0.4021
 1018MOL0     C37362   9.905  10.415   3.280  0.3629 -0.6499  0.3136
 1018MOL0     H37363  10.344  10.381   3.116 -1.6452 -0.6745  0.1242
 1018MOL0     H37364  10.564  10.331   3.029  1.0831  0.3311  0.1763
 1018MOL0     H37365  10.846  10.022   3.032  1.1914  3.6918 -2.1821
 1018MOL0     H37366  10.678   9.988   3.079 -2.2585 -0.4282 -2.3418
 1018MOL0     H37367  10.701  10.007   2.837 -5.5863 -1.1730  2.0974
 1018MOL0     H37368  10.592  10.134   2.891  0.0373  0.0360 -1.8995
 1018MOL0     H37369  10.802  10.303   2.883 -2.7480  1.0290 -0.7436
 1018MOL0     H37370  10.903  10.165   2.854  1.1212  3.4899  2.9755
 1018MOL0     H37371  10.871  10.287   2.654  2.9242 -1.7578  1.8755
 1018MOL0     H37372  10.809  10.120   2.646  0.0255 -1.7814  2.8547
 1018MOL0     H37373  10.577  10.219   2.703 -0.9954  1.4217  1.3310
 1018MOL0     H37374  10.645  10.380   2.691 -0.3626 -0.2064 -0.6522
 1018MOL0     H37375  10.532  10.355   2.480  0.5859  1.0281  1.8074
 1018MOL0     H37376  10.700  10.331   2.453 -0.6873 -0.2703 -0.5815
 1018MOL0     H37377  10.695  10.091   2.461 -1.2890 -2.3380  0.7098
 1018MOL0     H37378  10.527  10.091   2.510  0.4871  0.2641  0.5172
 1018MOL0     H37379  10.603  10.209   2.239 -1.5515 -0.5540 -1.8687
 1018MOL0     H37380  10.448  10.152   2.300  0.4170  1.0364 -0.8896
 1018MOL0     H37381  10.495   9.857   2.371  2.7573  1.6007  2.3131
 1018MOL0     H37382  10.514   9.602   2.231 -0.2122  0.6404 -0.9358
 1018MOL0     H37383  10.637   9.585   2.126  1.3843 -1.0696  0.2471
 1018MOL0     H37384  10.734   9.705   2.376 -1.0467  0.9515  0.0192
 1018MOL0     H37385  10.797   9.582   2.265 -0.4769 -0.0547 -0.8166
 1018MOL0     H37386  10.664   9.406   2.354 -0.4611  0.4545 -0.8767
 1018MOL0     H37387  10.543   9.506   2.424 -0.0655 -1.7424  2.5440
 1018MOL0     H37388  10.734   9.584   2.573 -0.7506 -0.6395  1.4500
 1018MOL0     H37389  10.824   9.443   2.511 -0.6446 -1.8271 -0.5738
 1018MOL0     H37390  10.632   9.430   2.886  1.4767  2.6783 -1.0960
 1018MOL0     H37391  10.627   9.164   3.104 -2.2723  1.6210 -2.5607
 1018MOL0     H37392  10.787   9.232   3.148  0.7187  0.8807 -0.6085
 1018MOL0     H37393  10.653   9.337   3.116  1.4099  1.5402 -4.1472
 1018MOL0     H37394  11.271   8.935   2.912 -1.7080  0.0373  2.7753
 1018MOL0     H37395  11.465   9.087   2.888 -0.1119 -2.1295  1.6327
 1018MOL0     H37396  11.633   9.233   2.837 -1.0601 -0.7992  1.1371
 1018MOL0     H37397  11.519   9.239   2.707 -0.8484  0.3318  1.3174
 1018MOL0     H37398  11.741   9.399   2.746 -0.3894 -0.4724  4.4167
 1018MOL0     H37399  11.634   9.386   2.608 -0.6649  1.9704 -0.5090
 1018MOL0     H37400  11.480   9.552   2.710  0.3880 -0.2038 -2.6004
 1018MOL0     H37401  11.626   9.631   2.691 -0.3827  0.0701 -0.7334
 1018MOL0     H37402  11.582   9.516   2.975 -0.3987  1.4925 -0.4840
 1018MOL0     H37403  11.724   9.585   2.916  0.0901 -0.6446  0.4966
 1018MOL0     H37404  11.629   9.790   2.893  0.2797 -0.5151 -1.1448
 1018MOL0     H37405  11.560   9.747   3.043  4.1633 -1.8275  0.4670
 1018MOL0     H37406  11.414   9.772   2.783  0.8460  2.0315  0.1910
 1018MOL0     H37407  11.357   9.656   2.906  3.2369 -2.9663 -3.4748
 1018MOL0     H37408  11.404   9.963   2.947 -1.1202  0.4017  2.4115
 1018MOL0     H37409  11.347   9.847   3.069 -1.1595 -2.5756  0.3521
 1018MOL0     H37410  11.132   9.818   2.955  4.9118 -2.7622  2.9574
 1018MOL0     H37411  11.186   9.917   2.812  0.8474  3.9274  0.7475
 1018MOL0     H37412  11.228   9.431   2.947 -1.1347 -0.5979  1.0685
 1018MOL0     H37413  11.037   9.299   2.980  1.0121  3.1393 -2.1856
 1018MOL0     H37414  10.930   9.080   2.701  0.4787  0.0654 -0.9582
 1018MOL0     H37415  10.797   9.218   2.564  0.5017 -0.9759  0.1307
 1018MOL0     H37416  10.658  10.061   3.340  1.9589  1.0835  0.0695
 1018MOL0     H37417  10.425  10.119   3.447 -0.0534  0.0497  0.4817
 1018MOL0     H37418  10.078  10.266   3.534  0.7400  0.1091 -0.6883
 1018MOL0     H37419   9.884  10.343   3.658  1.7411 -4.3744 -0.7393
 1018MOL0     H37420   9.739  10.533   3.761 -1.9566 -0.6148  1.1300
 1018MOL0     H37421   9.759  10.662   3.634 -1.0001  2.1274  0.6638
 1018MOL0     H37422   9.510  10.563   3.766 -0.3814  0.3135 -0.0381
 1018MOL0     H37423   9.529  10.702   3.654  1.4834  0.2846 -1.1973
 1018MOL0     H37424   9.687  10.797   3.839  2.7500 -2.8173  2.5164
 1018MOL0     H37425   9.623  10.675   3.947  0.2139 -0.7308  0.3022
 1018MOL0     H37426   9.414  10.759   3.968 -0.4037  1.2224 -0.5908
 1018MOL0     H37427   9.405  10.831   3.807  2.5028 -0.5677 -2.3827
 1018MOL0     H37428   9.603  11.152   4.003  0.8103  0.5242  0.0904
 1018MOL0     H37429   9.720  10.521   3.301  0.1599 -0.9188 -0.2737
 1018MOL0     H37430   9.906  10.426   3.172  0.3321 -1.3915  0.2349
 1019MOL0     O37431   7.925  10.310   7.330 -0.1714 -0.6170 -0.0451
 1019MOL0     C37432   7.948  10.400   7.418 -0.2356  0.6300 -0.6303
 1019MOL0     O37433   7.867  10.503   7.441 -0.6161  1.4219 -0.4387
 1019MOL0     C37434   7.750  10.508   7.370 -0.9730 -0.7481  0.2048
 1019MOL0     C37435   7.636  10.428   7.384 -0.5313 -0.2344 -0.6302
 1019MOL0     C37436   7.518  10.448   7.314  0.5778 -0.5265 -0.1865
 1019MOL0     C37437   7.515  10.553   7.225 -0.3370 -0.6078  0.9491
 1019MOL0     O37438   7.398  10.594   7.174  0.1608  0.7073  0.3458
 1019MOL0     C37439   7.345  10.488   7.091  0.0248 -0.2246  0.1735
 1019MOL0     C37440   7.196  10.512   7.052  1.3346 -0.0246  0.7510
 1019MOL0     C37441   7.163  10.622   6.940 -0.6143  0.4288 -0.2960
 1019MOL0     C37442   7.018  10.661   6.929 -0.2823 -1.0721 -0.2585
 1019MOL0     C37443   6.989  10.746   6.798 -0.2842  0.6996 -0.3153
 1019MOL0     C37444   6.862  10.833   6.813 -0.0135 -0.7318  0.7977
 1019MOL0     C37445   6.797  10.857   6.676 -0.3133  0.1324  0.1181
 1019MOL0     C37446   6.870  10.938   6.571 -0.3463 -0.0543  0.2433
 1019MOL0     N37447   6.885  11.078   6.606  0.4359 -0.2868  0.5557
 1019MOL0     C37448   6.996  11.141   6.657  0.2189 -0.3179  0.0696
 1019MOL0     C37449   6.959  11.268   6.659 -0.0602  0.9970 -0.8643
 1019MOL0     C37450   7.032  11.388   6.724 -0.9026  0.6954 -0.3276
 1019MOL0     C37451   7.038  11.493   6.614  0.1834 -1.0058  0.8301
 1019MOL0     C37452   7.125  11.610   6.659  0.6424 -0.2468 -0.0164
 1019MOL0     C37453   7.120  11.716   6.549 -0.2031 -1.0515 -0.3138
 1019MOL0     O37454   7.173  11.678   6.424  0.0245  0.0215 -0.2076
 1019MOL0     C37455   7.181  11.767   6.321 -0.1656 -0.3385 -0.2248
 1019MOL0     C37456   7.134  11.899   6.322  0.1139 -0.5415  1.2320
 1019MOL0     C37457   7.155  11.988   6.215  0.0263 -0.7221  0.2827
 1019MOL0     C37458   7.108  12.129   6.237 -0.5796  0.5435  1.1630
 1019MOL0     C37459   7.237  11.950   6.105 -0.1210 -1.1146  0.7184
 1019MOL0     C37460   7.268  12.030   5.982 -0.4778 -0.3779 -0.3170
 1019MOL0     O37461   7.332  11.961   5.886  0.4975 -0.0673  0.2572
 1019MOL0     C37462   7.373  12.020   5.766 -0.0909  0.0328 -0.8622
 1019MOL0     C37463   7.302  12.118   5.687 -0.3407 -0.0726 -0.4787
 1019MOL0     C37464   7.337  12.151   5.552  0.2432 -1.0327  0.1025
 1019MOL0     C37465   7.448  12.088   5.493 -0.9555 -0.1308  0.3454
 1019MOL0     O37466   7.473  12.125   5.357  0.1186  0.0154  0.1702
 1019MOL0     C37467   7.595  12.088   5.297 -1.0109 -0.1618  0.7251
 1019MOL0     C37468   7.632  12.182   5.170 -0.4489 -0.7238  0.1005
 1019MOL0     C37469   7.600  12.327   5.197  0.0690 -0.1632 -1.1327
 1019MOL0     C37470   7.717  12.411   5.132  0.8503  0.4130  0.2683
 1019MOL0     C37471   7.668  12.555   5.141 -0.7251 -0.0633 -0.3182
 1019MOL0     C37472   7.781  12.641   5.096 -0.2451  0.0405  0.2729
 1019MOL0     C37473   7.747  12.782   5.098  0.0302  0.3826 -0.0361
 1019MOL0     C37474   7.631  12.830   5.017  0.1160  1.1458  0.2395
 1019MOL0    Cl37475   7.642  12.741   4.851 -0.2762 -0.6086 -0.3395
 1019MOL0     C37476   7.513  11.985   5.564  0.3610  0.3744  0.6354
 1019MOL0     C37477   7.479  11.950   5.702 -0.4115 -0.5871 -0.2421
 1019MOL0     O37478   7.236  12.151   5.986  0.0414  0.2908  0.4870
 1019MOL0     C37479   7.282  11.818   6.107  0.2706  0.5992 -0.3592
 1019MOL0     C37480   7.246  11.725   6.209 -0.8403 -0.4338  0.0489
 1019MOL0     N37481   6.826  11.282   6.608 -1.4534 -0.1297  0.1220
 1019MOL0     N37482   6.785  11.165   6.581  0.0561  0.1539 -0.6256
 1019MOL0     C37483   7.624  10.638   7.200 -0.2670 -0.2718 -1.3547
 1019MOL0     C37484   7.739  10.616   7.274 -0.3909  0.5871 -0.9251
 1019MOL0     C37485   8.070  10.379   7.498  0.3735 -0.5335 -0.2887
 1019MOL0     C37486   8.113  10.490   7.564 -0.2643  0.7822  0.1722
 1019MOL0     C37487   8.235  10.483   7.635  1.1185  0.3417 -1.0661
 1019MOL0     C37488   8.291  10.354   7.655  0.1485  0.4768  0.5927
 1019MOL0     O37489   8.408  10.338   7.730 -0.1578 -0.1133  0.9610
 1019MOL0     C37490   8.500  10.450   7.722 -0.4612 -0.2841 -0.4000
 1019MOL0     C37491   8.509  10.526   7.854 -0.2915  0.4851 -0.7639
 1019MOL0     C37492   8.543  10.432   7.966  0.0236  0.6114 -0.5373
 1019MOL0     C37493   8.569  10.499   8.100 -2.0409 -0.7811 -0.5288
 1019MOL0     C37494   8.692  10.578   8.091  0.2685  0.6918  0.5301
 1019MOL0     C37495   8.795  10.638   8.076  0.0706  0.0096 -0.7900
 1019MOL0     C37496   8.236  10.244   7.594 -0.9407  0.0650  0.5276
 1019MOL0     C37497   8.127  10.255   7.511 -0.9402  0.7863  0.3494
 1019MOL0     H37498   7.649  10.352   7.460  2.1168 -3.1336 -3.6632
 1019MOL0     H37499   7.439  10.381   7.345  1.8153 -2.3890 -0.9138
 1019MOL0     H37500   7.408  10.485   7.001  1.7878  2.9994  1.1350
 1019MOL0     H37501   7.355  10.392   7.143  0.5334 -0.7919 -0.9311
 1019MOL0     H37502   7.155  10.418   7.016  1.8238 -1.0200  2.6580
 1019MOL0     H37503   7.151  10.543   7.147  1.1312 -0.3292  0.7544
 1019MOL0     H37504   7.220  10.710   6.971  1.6181 -1.9507  3.0029
 1019MOL0     H37505   7.205  10.577   6.850  0.4815  2.4406 -0.8499
 1019MOL0     H37506   6.954  10.572   6.927 -1.4176 -0.2699 -1.0109
 1019MOL0     H37507   6.986  10.718   7.017 -1.9095 -0.7633 -1.0281
 1019MOL0     H37508   7.073  10.814   6.781  1.2516 -0.7477  1.0325
 1019MOL0     H37509   6.969  10.682   6.711 -1.2353  2.5911 -1.5518
 1019MOL0     H37510   6.789  10.776   6.872  0.4787  0.5035  2.7019
 1019MOL0     H37511   6.876  10.928   6.865  2.8072 -0.8277  0.3477
 1019MOL0     H37512   6.784  10.758   6.631  0.2592 -0.1081  0.4734
 1019MOL0     H37513   6.696  10.898   6.691 -0.4728 -0.0799 -0.3537
 1019MOL0     H37514   6.825  10.929   6.472  0.7055  1.9054 -0.4674
 1019MOL0     H37515   6.965  10.889   6.546  1.2304  2.7737  0.3122
 1019MOL0     H37516   7.090  11.104   6.696  2.0030  3.5259 -0.1373
 1019MOL0     H37517   6.978  11.424   6.812  0.1824 -1.3280  1.2598
 1019MOL0     H37518   7.135  11.360   6.748 -0.4954  0.1081 -2.5177
 1019MOL0     H37519   6.942  11.543   6.601 -0.5475 -2.7074 -0.7418
 1019MOL0     H37520   7.069  11.447   6.520 -3.1506  0.7886 -1.3173
 1019MOL0     H37521   7.228  11.575   6.673  1.3581  2.7162  3.8219
 1019MOL0     H37522   7.083  11.650   6.751  3.2316  0.5971  0.8887
 1019MOL0     H37523   7.185  11.796   6.586 -0.7962  0.0668 -1.6343
 1019MOL0     H37524   7.019  11.752   6.531  0.2718 -0.1416 -1.2449
 1019MOL0     H37525   7.088  11.926   6.416 -1.8257 -0.3908  0.3017
 1019MOL0     H37526   7.062  12.124   6.336 -0.3026  2.0609  1.3939
 1019MOL0     H37527   7.177  12.214   6.236 -2.3243  2.0928  2.5884
 1019MOL0     H37528   7.026  12.137   6.165  1.8041 -3.7454 -2.5318
 1019MOL0     H37529   7.217  12.169   5.732  1.2348  1.0799  1.3541
 1019MOL0     H37530   7.283  12.219   5.487 -0.3613 -3.3130 -1.9607
 1019MOL0     H37531   7.664  12.120   5.375 -1.0907  1.1732  0.2773
 1019MOL0     H37532   7.616  11.982   5.279 -0.3268  0.2305 -1.0928
 1019MOL0     H37533   7.738  12.170   5.144  0.0062  1.2794  0.8568
 1019MOL0     H37534   7.567  12.145   5.090 -2.0365  0.1409  0.9408
 1019MOL0     H37535   7.597  12.361   5.301 -1.5203 -0.0534 -1.1920
 1019MOL0     H37536   7.501  12.354   5.159 -2.3847  4.5791  6.3381
 1019MOL0     H37537   7.805  12.392   5.195  0.3775  0.8240  1.0700
 1019MOL0     H37538   7.736  12.381   5.029 -1.6358 -2.3369  0.4695
 1019MOL0     H37539   7.643  12.582   5.244 -0.0251 -0.1750 -0.1162
 1019MOL0     H37540   7.580  12.555   5.075 -2.0043  2.4325  1.2326
 1019MOL0     H37541   7.866  12.642   5.165 -1.0602 -0.0819  1.3099
 1019MOL0     H37542   7.817  12.610   4.997  2.9438  2.4757  0.5135
 1019MOL0     H37543   7.837  12.818   5.047  0.4996 -0.4012  0.2268
 1019MOL0     H37544   7.746  12.819   5.201  1.5837  0.1792  0.0771
 1019MOL0     H37545   7.641  12.938   5.005 -1.3916  1.6652  2.8261
 1019MOL0     H37546   7.528  12.825   5.052 -0.5594  1.6126 -1.5854
 1019MOL0     H37547   7.595  11.942   5.507 -0.3432 -0.5735  0.3262
 1019MOL0     H37548   7.534  11.865   5.740  1.0923 -0.5458 -2.1659
 1019MOL0     H37549   7.339  11.764   6.032 -1.0370 -0.9708 -0.3047
 1019MOL0     H37550   7.276  11.621   6.205 -1.0044 -0.4307 -2.8062
 1019MOL0     H37551   7.620  10.708   7.117 -1.8452  1.3091 -0.0334
 1019MOL0     H37552   7.830  10.669   7.248  0.4475 -0.7650 -0.8232
 1019MOL0     H37553   8.075  10.591   7.551 -0.1355  0.8079 -0.0035
 1019MOL0     H37554   8.268  10.571   7.688 -1.3127 -0.0623  1.3737
 1019MOL0     H37555   8.596  10.405   7.695  0.5426 -0.0337  2.4298
 1019MOL0     H37556   8.473  10.515   7.639 -2.3107 -3.9300 -2.9452
 1019MOL0     H37557   8.406  10.557   7.876  0.1371  0.1448  2.0603
 1019MOL0     H37558   8.584  10.606   7.851  2.2495 -1.4471  2.7839
 1019MOL0     H37559   8.635  10.380   7.940  1.0311  3.0744 -2.3427
 1019MOL0     H37560   8.476  10.349   7.991  0.4508  0.5378  0.4018
 1019MOL0     H37561   8.581  10.426   8.181 -1.1382  1.9923  2.0117
 1019MOL0     H37562   8.495  10.576   8.126  1.8068  1.8770  4.3192
 1019MOL0     H37563   8.890  10.686   8.066  0.2865 -0.8730 -4.4847
 1019MOL0     H37564   8.270  10.142   7.613  0.1852  0.1160 -1.0599
 1019MOL0     H37565   8.102  10.164   7.459  0.9514 -0.5361  1.6142
 1020MOL0     O37566  10.740   1.268  11.302  0.4924  0.4745  0.4570
 1020MOL0     C37567  10.793   1.356  11.373  0.5942  0.1657 -0.0307
 1020MOL0     O37568  10.795   1.493  11.345  0.7774 -0.4490 -0.6782
 1020MOL0     C37569  10.788   1.548  11.216 -0.1310 -0.1671 -0.1418
 1020MOL0     C37570  10.836   1.478  11.107  0.1418  0.4948  0.2013
 1020MOL0     C37571  10.854   1.536  10.983 -0.2007  0.9743 -0.0300
 1020MOL0     C37572  10.820   1.674  10.960 -0.3410  0.5871  0.2916
 1020MOL0     O37573  10.830   1.736  10.838  0.8186  0.1460  0.5482
 1020MOL0     C37574  10.914   1.682  10.734 -0.0903 -0.2367 -0.3846
 1020MOL0     C37575  10.980   1.797  10.656  0.3884  0.4903  0.3961
 1020MOL0     C37576  11.033   1.903  10.744 -1.0902 -0.8824  1.0183
 1020MOL0     C37577  11.133   1.851  10.855  0.1031  0.6624  0.5383
 1020MOL0     C37578  11.205   1.952  10.935 -0.3739 -0.0359 -0.8586
 1020MOL0     C37579  11.300   1.898  11.038 -1.0697 -0.0835 -0.5615
 1020MOL0     C37580  11.247   1.801  11.148  0.4598 -0.4591 -0.7100
 1020MOL0     C37581  11.360   1.745  11.232  0.2375 -0.3592  0.4892
 1020MOL0     N37582  11.442   1.854  11.297  0.2469  0.1856 -0.1227
 1020MOL0     C37583  11.571   1.891  11.245 -0.0365  0.1932  0.2737
 1020MOL0     C37584  11.610   1.978  11.330 -0.2230 -0.5858  0.8571
 1020MOL0     C37585  11.752   2.038  11.330 -0.2276 -0.3099 -0.6879
 1020MOL0     C37586  11.826   1.973  11.443  0.0592  0.2155 -1.4476
 1020MOL0     C37587  11.984   1.978  11.420  0.6125  0.3154  0.4164
 1020MOL0     C37588  12.021   2.125  11.389 -0.0499  0.1857 -0.3222
 1020MOL0     O37589  12.005   2.199  11.512 -0.0380  0.0604 -0.3171
 1020MOL0     C37590  12.130   2.253  11.552 -0.4323 -0.1371 -0.7921
 1020MOL0     C37591  12.196   2.340  11.468 -0.0272 -0.7040 -0.1296
 1020MOL0     C37592  12.325   2.386  11.505  0.5612 -0.3274  0.7450
 1020MOL0     C37593  12.396   2.488  11.410  0.2850  0.8303 -0.0277
 1020MOL0     C37594  12.379   2.350  11.638 -0.9851 -0.3402 -0.0524
 1020MOL0     C37595  12.509   2.406  11.696  0.5407  0.4980  0.0406
 1020MOL0     O37596  12.515   2.379  11.836 -0.1812 -0.7574 -0.0440
 1020MOL0     C37597  12.624   2.374  11.912 -0.3087  0.4279 -0.2763
 1020MOL0     C37598  12.608   2.360  12.047 -0.2804 -0.2215 -0.1674
 1020MOL0     C37599  12.711   2.318  12.133 -0.6407 -0.0314 -0.7339
 1020MOL0     C37600  12.837   2.289  12.089 -0.4041 -0.5307 -0.6360
 1020MOL0     O37601  12.930   2.230  12.170 -0.7377 -0.4344  0.6248
 1020MOL0     C37602  13.056   2.185  12.125  0.5127  0.5825 -0.9646
 1020MOL0     C37603  13.115   2.111  12.242  0.3309  0.6647  0.5416
 1020MOL0     C37604  13.156   2.206  12.352  0.4972  1.1847 -0.4375
 1020MOL0     C37605  13.172   2.129  12.483  0.3536 -0.6126  0.5392
 1020MOL0     C37606  13.215   2.225  12.588  0.6476 -0.7942 -0.0425
 1020MOL0     C37607  13.235   2.146  12.718  0.4326 -1.0615  0.1778
 1020MOL0     C37608  13.284   2.239  12.836 -0.8500  0.3734  0.1496
 1020MOL0     C37609  13.175   2.330  12.896  0.1760  0.2122 -0.1238
 1020MOL0    Cl37610  13.034   2.229  12.944  0.0660  0.2408 -0.5000
 1020MOL0     C37611  12.859   2.321  11.952 -0.5356 -0.6730  0.3602
 1020MOL0     C37612  12.759   2.365  11.864  0.4297 -0.0705 -0.2322
 1020MOL0     O37613  12.593   2.458  11.626  0.3895 -0.3764  0.3499
 1020MOL0     C37614  12.302   2.268  11.720 -0.1497  0.2954 -1.2166
 1020MOL0     C37615  12.179   2.227  11.686  0.6000 -0.7325 -0.3305
 1020MOL0     N37616  11.513   1.992  11.429  0.2143 -0.2882 -0.9891
 1020MOL0     N37617  11.424   1.905  11.417  0.0397  0.9978  0.2404
 1020MOL0     C37618  10.757   1.743  11.070 -0.9287 -0.1478 -0.9834
 1020MOL0     C37619  10.747   1.680  11.190  0.6322 -0.3778 -1.0618
 1020MOL0     C37620  10.840   1.307  11.506 -0.6689  0.0613  0.3572
 1020MOL0     C37621  10.904   1.391  11.598  0.5073 -0.1384 -0.6461
 1020MOL0     C37622  10.937   1.352  11.728 -0.2141  0.2076  0.7690
 1020MOL0     C37623  10.924   1.221  11.760 -0.6752  0.0900  0.4227
 1020MOL0     O37624  10.949   1.180  11.886  0.4031  0.3446 -0.2192
 1020MOL0     C37625  10.856   1.233  11.991  0.1362 -0.3184 -0.4841
 1020MOL0     C37626  10.859   1.129  12.101 -0.4304  1.0490 -1.4718
 1020MOL0     C37627  10.737   1.144  12.195 -0.6917 -0.1150 -0.0671
 1020MOL0     C37628  10.614   1.053  12.163 -0.8528 -1.3305  0.0280
 1020MOL0     C37629  10.576   1.048  12.026  0.0638 -0.0338 -1.0739
 1020MOL0     C37630  10.567   1.022  11.904  0.7919 -0.8303  0.3177
 1020MOL0     C37631  10.888   1.126  11.658  0.9193 -0.5330  0.8836
 1020MOL0     C37632  10.835   1.172  11.532 -0.9702  0.3292 -0.7080
 1020MOL0     H37633  10.882   1.381  11.124 -1.2191 -0.4315 -1.1234
 1020MOL0     H37634  10.905   1.477  10.908 -1.3871  0.5088 -0.5114
 1020MOL0     H37635  10.994   1.629  10.786 -1.7356 -3.8086 -1.2407
 1020MOL0     H37636  10.867   1.609  10.667 -0.1717 -0.2635 -0.2982
 1020MOL0     H37637  11.056   1.768  10.583 -0.0329  3.7540 -1.5519
 1020MOL0     H37638  10.893   1.835  10.601  0.9383  1.7023  0.3283
 1020MOL0     H37639  11.075   1.976  10.675 -0.2447  0.1332  2.5305
 1020MOL0     H37640  10.952   1.945  10.804 -1.8058  0.6013 -0.8833
 1020MOL0     H37641  11.075   1.781  10.916 -0.1761  0.9097  0.5601
 1020MOL0     H37642  11.210   1.792  10.806 -0.2212  1.1904 -0.6406
 1020MOL0     H37643  11.263   2.020  10.873 -1.9308  2.7488  0.5270
 1020MOL0     H37644  11.129   2.015  10.982  0.3850  0.7634 -0.6865
 1020MOL0     H37645  11.377   1.837  10.991 -1.1029 -1.2082  0.7864
 1020MOL0     H37646  11.348   1.987  11.080  0.3335 -0.2330 -1.7687
 1020MOL0     H37647  11.191   1.857  11.223  0.2329 -1.4928 -0.0854
 1020MOL0     H37648  11.189   1.717  11.109 -0.6548 -0.9295  1.7597
 1020MOL0     H37649  11.429   1.688  11.170 -2.0931 -4.2826  1.1398
 1020MOL0     H37650  11.321   1.676  11.308 -3.9349 -0.5778 -1.5686
 1020MOL0     H37651  11.627   1.859  11.157 -0.4746 -0.8437  0.3710
 1020MOL0     H37652  11.804   2.012  11.238  0.7125  0.1319 -0.2966
 1020MOL0     H37653  11.741   2.146  11.346 -1.1998 -0.5808  0.6072
 1020MOL0     H37654  11.802   1.866  11.447  1.0466  0.0174  0.0418
 1020MOL0     H37655  11.788   2.010  11.539 -0.8155 -5.5973  0.8644
 1020MOL0     H37656  12.002   1.919  11.330 -2.9329  2.5721 -2.0298
 1020MOL0     H37657  12.043   1.930  11.498 -0.7591 -0.7578  0.8337
 1020MOL0     H37658  11.973   2.177  11.306 -1.1841 -2.4186 -1.4180
 1020MOL0     H37659  12.125   2.115  11.356  0.3874 -1.7965  1.4093
 1020MOL0     H37660  12.157   2.386  11.377  2.9462  0.5792 -0.8878
 1020MOL0     H37661  12.415   2.581  11.464  2.9695 -1.1091  2.7133
 1020MOL0     H37662  12.500   2.456  11.397 -0.3519 -1.3204 -0.2637
 1020MOL0     H37663  12.341   2.501  11.317 -1.6470  0.4784  1.0182
 1020MOL0     H37664  12.508   2.389  12.079 -1.1487 -0.0418 -2.7808
 1020MOL0     H37665  12.692   2.294  12.237  0.9022  0.6853 -0.2672
 1020MOL0     H37666  13.053   2.112  12.044  3.3392 -0.9576  0.1741
 1020MOL0     H37667  13.120   2.271  12.102  1.2147  0.5801  0.8172
 1020MOL0     H37668  13.049   2.037  12.289  0.0719  0.4187 -0.1982
 1020MOL0     H37669  13.200   2.051  12.207  1.4160  2.0769  0.6819
 1020MOL0     H37670  13.083   2.287  12.365  0.2177  0.8465  0.1287
 1020MOL0     H37671  13.251   2.249  12.320  1.4776 -2.3785 -2.8173
 1020MOL0     H37672  13.081   2.079  12.515 -0.1818  0.5246  0.8507
 1020MOL0     H37673  13.245   2.049  12.470  0.3792 -0.2596 -1.9662
 1020MOL0     H37674  13.132   2.292  12.614  1.5449  0.0614  0.6637
 1020MOL0     H37675  13.307   2.275  12.559  1.2530 -0.4554  2.2503
 1020MOL0     H37676  13.153   2.082  12.752  1.7328 -2.7320  0.2914
 1020MOL0     H37677  13.320   2.079  12.710  2.4415  0.8239  3.3274
 1020MOL0     H37678  13.359   2.309  12.798 -2.5662  3.3304  1.8384
 1020MOL0     H37679  13.334   2.178  12.912  2.5373 -0.4559 -2.5169
 1020MOL0     H37680  13.145   2.400  12.818 -1.8040  0.2088  0.5848
 1020MOL0     H37681  13.218   2.382  12.982  0.4103  0.7354 -0.5547
 1020MOL0     H37682  12.954   2.292  11.907  0.0111 -1.2603  1.8034
 1020MOL0     H37683  12.769   2.379  11.757  0.6547  1.9290  0.0133
 1020MOL0     H37684  12.325   2.231  11.819 -1.9960 -1.8948 -1.5069
 1020MOL0     H37685  12.119   2.168  11.756  0.8348  0.5413  1.0112
 1020MOL0     H37686  10.736   1.849  11.063  0.8443  0.1691 -2.1816
 1020MOL0     H37687  10.718   1.738  11.278 -0.2420 -0.5178 -1.2504
 1020MOL0     H37688  10.915   1.495  11.570  1.5700  0.0520  0.3913
 1020MOL0     H37689  10.983   1.421  11.798  0.9569  2.0978 -1.6801
 1020MOL0     H37690  10.885   1.327  12.039  1.4152  0.5627 -2.8036
 1020MOL0     H37691  10.755   1.233  11.949 -0.5674  2.0830  0.9954
 1020MOL0     H37692  10.952   1.146  12.156 -1.1252 -3.3292  1.6106
 1020MOL0     H37693  10.876   1.027  12.065  0.5409  0.4076  0.6205
 1020MOL0     H37694  10.709   1.249  12.201  0.0552  0.2318 -1.9777
 1020MOL0     H37695  10.768   1.111  12.295 -1.9131 -1.2212 -0.0288
 1020MOL0     H37696  10.526   1.095  12.212 -1.2150 -0.9433 -0.9323
 1020MOL0     H37697  10.639   0.952  12.197 -3.2077 -1.1210  2.7531
 1020MOL0     H37698  10.553   0.984  11.805  0.9830 -1.3059  0.4693
 1020MOL0     H37699  10.878   1.019  11.673 -1.4332 -0.3945  0.6442
 1020MOL0     H37700  10.786   1.100  11.468 -0.2694  0.2054 -1.1243
 1021MOL0     O37701  10.576   0.066   8.458  0.9280  0.3748  0.1857
 1021MOL0     C37702  10.497  -0.025   8.476 -0.6843  0.5460 -0.1735
 1021MOL0     O37703  10.429  -0.096   8.383  0.9275 -0.0278  0.9780
 1021MOL0     C37704  10.455  -0.066   8.251  0.0358 -1.0427 -0.1847
 1021MOL0     C37705  10.353  -0.001   8.177 -0.2306 -0.0601 -1.1809
 1021MOL0     C37706  10.359   0.021   8.039 -0.6991  0.4207  1.0247
 1021MOL0     C37707  10.477  -0.007   7.967 -0.3557  0.0577 -0.2549
 1021MOL0     O37708  10.489   0.016   7.832  0.8689 -0.2173  0.8574
 1021MOL0     C37709  10.396  -0.040   7.739  0.2540  0.3109  0.6637
 1021MOL0     C37710  10.447  -0.045   7.601 -0.8477  0.1419  0.0118
 1021MOL0     C37711  10.345  -0.075   7.486 -0.5082 -0.1452  0.3872
 1021MOL0     C37712  10.411  -0.108   7.349  0.0891  0.5705  0.6081
 1021MOL0     C37713  10.519  -0.002   7.301  0.3693 -0.4712 -0.5120
 1021MOL0     C37714  10.567  -0.015   7.154 -0.7961 -0.3966  1.0236
 1021MOL0     C37715  10.470   0.051   7.055 -0.6957 -0.1248  0.2745
 1021MOL0     C37716  10.490   0.003   6.910  0.5838 -0.2976 -0.0177
 1021MOL0     N37717  10.489  -0.145   6.892 -0.3307  0.2173 -0.0896
 1021MOL0     C37718  10.409  -0.239   6.950  0.2459 -0.8901  0.2966
 1021MOL0     C37719  10.453  -0.361   6.906 -0.1852  0.1111  0.7702
 1021MOL0     C37720  10.422  -0.493   6.967  0.3720  0.6675 -0.7557
 1021MOL0     C37721  10.516  -0.527   7.071  0.4340  0.4513 -0.0250
 1021MOL0     C37722  10.472  -0.648   7.160 -0.0491 -1.1778  0.0612
 1021MOL0     C37723  10.593  -0.680   7.242 -0.5210 -0.4023 -0.3946
 1021MOL0     O37724  10.629  -0.563   7.320  0.6667  0.1095 -0.2799
 1021MOL0     C37725  10.661  -0.582   7.451 -0.4237 -0.9247 -0.3300
 1021MOL0     C37726  10.617  -0.488   7.545 -1.3607 -0.3646  0.6408
 1021MOL0     C37727  10.659  -0.498   7.677 -1.1279 -1.1371 -0.9412
 1021MOL0     C37728  10.612  -0.380   7.759 -0.9244  0.9516 -0.5165
 1021MOL0     C37729  10.738  -0.610   7.725 -0.3669 -0.4133  1.3463
 1021MOL0     C37730  10.775  -0.624   7.861 -1.1629  0.3378 -0.5647
 1021MOL0     O37731  10.864  -0.723   7.892  0.3873  0.2525 -0.3921
 1021MOL0     C37732  10.862  -0.767   8.022 -0.3246  0.2110  0.9463
 1021MOL0     C37733  10.798  -0.874   8.067 -0.6053 -0.2082 -0.0853
 1021MOL0     C37734  10.799  -0.920   8.201  0.2735 -1.3253 -0.9707
 1021MOL0     C37735  10.867  -0.847   8.301 -0.3430  0.3046  0.1043
 1021MOL0     O37736  10.877  -0.884   8.428  0.6409  0.5096  0.6917
 1021MOL0     C37737  10.756  -0.881   8.509 -0.0570  0.2145 -0.2209
 1021MOL0     C37738  10.787  -0.926   8.656 -0.7877  0.3966  0.6232
 1021MOL0     C37739  10.856  -0.816   8.747  0.5219  0.2876 -0.4096
 1021MOL0     C37740  10.914  -0.874   8.880 -0.8906  0.2038  0.6089
 1021MOL0     C37741  10.801  -0.904   8.985 -0.4710  0.2182 -0.3882
 1021MOL0     C37742  10.860  -0.938   9.127  0.0222  0.3360 -0.2347
 1021MOL0     C37743  10.750  -0.942   9.238 -0.4841 -0.5031  0.1725
 1021MOL0     C37744  10.678  -1.080   9.267  0.0559 -0.1018  0.5018
 1021MOL0    Cl37745  10.568  -1.069   9.400 -0.0816  0.1214  0.0243
 1021MOL0     C37746  10.935  -0.728   8.256  0.3317 -0.3461  0.5161
 1021MOL0     C37747  10.938  -0.702   8.117 -0.9204 -0.4449  0.0240
 1021MOL0     O37748  10.723  -0.548   7.943 -0.4058 -0.3104 -0.1924
 1021MOL0     C37749  10.773  -0.715   7.634 -0.2161 -0.1611 -0.3903
 1021MOL0     C37750  10.735  -0.696   7.502 -0.1965 -0.0193  0.0591
 1021MOL0     N37751  10.549  -0.341   6.809 -0.6512 -0.0549 -0.5167
 1021MOL0     N37752  10.581  -0.213   6.807 -0.0702  0.0101 -0.6611
 1021MOL0     C37753  10.583  -0.069   8.038  0.6932  0.9367 -0.9838
 1021MOL0     C37754  10.561  -0.102   8.181  0.2618  0.1450  0.6505
 1021MOL0     C37755  10.470  -0.055   8.627 -0.6157 -0.6733  0.0157
 1021MOL0     C37756  10.354  -0.120   8.661  0.9050 -0.6626  0.7816
 1021MOL0     C37757  10.324  -0.150   8.794 -0.8040  1.6311 -0.2572
 1021MOL0     C37758  10.403  -0.098   8.896 -0.3175  0.8770 -0.6940
 1021MOL0     O37759  10.349  -0.108   9.021 -0.0501 -0.2419  0.7900
 1021MOL0     C37760  10.444  -0.101   9.126  0.1068 -1.0138 -1.3855
 1021MOL0     C37761  10.359  -0.115   9.249  0.0551 -0.1024  0.6682
 1021MOL0     C37762  10.299  -0.260   9.260  0.0983 -0.2212 -0.5287
 1021MOL0     C37763  10.210  -0.281   9.387  0.4643 -0.0033 -0.1453
 1021MOL0     C37764  10.072  -0.223   9.378 -0.0473  1.1813  1.0526
 1021MOL0     C37765   9.964  -0.159   9.377 -0.3897  0.1907  0.7156
 1021MOL0     C37766  10.516  -0.020   8.863  0.4536 -0.3775 -0.1112
 1021MOL0     C37767  10.557  -0.002   8.729 -0.0636  0.0008  0.2447
 1021MOL0     H37768  10.264   0.021   8.234  1.6257 -4.8038  4.6473
 1021MOL0     H37769  10.275   0.057   7.979 -1.2403 -0.3579  1.3012
 1021MOL0     H37770  10.361  -0.140   7.767 -2.1265  0.7926 -0.3412
 1021MOL0     H37771  10.311   0.029   7.733  0.5661  0.6141 -0.3970
 1021MOL0     H37772  10.486   0.055   7.580 -1.2609 -0.2303 -2.8604
 1021MOL0     H37773  10.532  -0.113   7.594 -0.9527  0.0343 -0.2425
 1021MOL0     H37774  10.286  -0.163   7.513  2.0544 -1.2574  2.9120
 1021MOL0     H37775  10.276   0.009   7.477 -0.3359 -0.1172 -0.7763
 1021MOL0     H37776  10.455  -0.208   7.352 -5.5707 -2.2973  1.5608
 1021MOL0     H37777  10.336  -0.125   7.271  0.3624  0.0636  0.4537
 1021MOL0     H37778  10.481   0.098   7.326  2.3759  0.8292 -2.3417
 1021MOL0     H37779  10.612  -0.002   7.358  0.4431  2.3622 -0.4940
 1021MOL0     H37780  10.667   0.029   7.158 -1.0224  0.1122  1.2198
 1021MOL0     H37781  10.571  -0.124   7.141 -0.3629 -0.2836  0.1968
 1021MOL0     H37782  10.364   0.032   7.072 -0.6212 -0.5614  0.2793
 1021MOL0     H37783  10.491   0.158   7.054  1.5173 -0.4500 -2.4669
 1021MOL0     H37784  10.582   0.053   6.876  0.0248  0.2332 -0.8061
 1021MOL0     H37785  10.409   0.045   6.850  1.1608 -0.1697 -0.7260
 1021MOL0     H37786  10.340  -0.227   7.033  1.7943 -0.2704  1.5361
 1021MOL0     H37787  10.321  -0.471   7.003  0.5424  0.3427 -0.0713
 1021MOL0     H37788  10.423  -0.566   6.885  2.2181  0.7434 -0.8474
 1021MOL0     H37789  10.512  -0.438   7.134 -0.5534  1.2847 -1.2298
 1021MOL0     H37790  10.619  -0.526   7.033  0.0675 -0.1709 -1.0867
 1021MOL0     H37791  10.449  -0.734   7.097 -2.8773  1.3654 -2.7807
 1021MOL0     H37792  10.381  -0.629   7.216 -0.9866 -5.0833  0.0922
 1021MOL0     H37793  10.674  -0.717   7.179 -2.0796  1.9309 -4.1200
 1021MOL0     H37794  10.556  -0.756   7.311 -3.5920  1.2146 -0.0460
 1021MOL0     H37795  10.561  -0.404   7.506 -2.2226 -0.4363  1.6968
 1021MOL0     H37796  10.689  -0.318   7.805 -0.2429  0.9317 -1.6113
 1021MOL0     H37797  10.552  -0.318   7.692 -2.7546  2.1651  2.0451
 1021MOL0     H37798  10.546  -0.412   7.841 -1.8154  0.5334 -1.3742
 1021MOL0     H37799  10.736  -0.932   7.999 -1.7333 -1.1041  1.6221
 1021MOL0     H37800  10.737  -1.001   8.238 -2.2987  0.7269 -0.4265
 1021MOL0     H37801  10.716  -0.779   8.513 -2.1237 -0.4200 -2.6443
 1021MOL0     H37802  10.678  -0.941   8.462  0.2849 -1.9725  1.7919
 1021MOL0     H37803  10.694  -0.963   8.698 -0.7827  2.2106  2.3938
 1021MOL0     H37804  10.859  -1.008   8.641  1.4417  2.1504  1.0866
 1021MOL0     H37805  10.791  -0.732   8.772  2.3564  1.4041  0.8764
 1021MOL0     H37806  10.931  -0.779   8.676 -0.9374  0.1677 -2.0830
 1021MOL0     H37807  10.982  -0.957   8.861 -0.6673 -0.5022  3.7810
 1021MOL0     H37808  10.987  -0.803   8.919  0.3101 -0.4251 -0.4224
 1021MOL0     H37809  10.732  -0.986   8.960  0.6084  0.0865 -3.3134
 1021MOL0     H37810  10.746  -0.810   8.990  1.0979  1.1280  0.8556
 1021MOL0     H37811  10.903  -1.036   9.101 -0.7218  0.6554 -2.9525
 1021MOL0     H37812  10.939  -0.871   9.161  0.0270 -0.3361  1.1531
 1021MOL0     H37813  10.670  -0.867   9.229 -1.2732 -1.1083  1.7960
 1021MOL0     H37814  10.805  -0.909   9.326 -2.1541  1.1280  0.6653
 1021MOL0     H37815  10.754  -1.157   9.279 -1.6306 -2.1433 -1.0616
 1021MOL0     H37816  10.622  -1.112   9.178  0.6842 -0.5175  0.2465
 1021MOL0     H37817  10.996  -0.673   8.327  0.7115 -0.4722  0.2889
 1021MOL0     H37818  10.988  -0.611   8.088  1.3222 -1.3511  0.8347
 1021MOL0     H37819  10.820  -0.805   7.672  0.1032 -0.6711 -1.9190
 1021MOL0     H37820  10.762  -0.771   7.429 -0.7482  0.8918 -1.1170
 1021MOL0     H37821  10.661  -0.102   7.970 -0.3063 -2.7099 -0.5911
 1021MOL0     H37822  10.635  -0.160   8.235 -0.2508 -0.6896  0.4851
 1021MOL0     H37823  10.296  -0.167   8.582  1.7689  2.0419 -1.6718
 1021MOL0     H37824  10.243  -0.222   8.800  1.4284 -0.8931  2.8694
 1021MOL0     H37825  10.515  -0.184   9.123 -0.9565 -1.9871 -0.4112
 1021MOL0     H37826  10.500  -0.007   9.131  1.2211 -1.7087  1.2068
 1021MOL0     H37827  10.282  -0.037   9.248  1.9959  1.8836  0.5130
 1021MOL0     H37828  10.428  -0.095   9.331  1.2966  0.3816 -0.4522
 1021MOL0     H37829  10.381  -0.332   9.254  0.1126 -0.6052  2.6314
 1021MOL0     H37830  10.239  -0.283   9.172  1.2293  2.5159 -2.1549
 1021MOL0     H37831  10.257  -0.240   9.477 -1.0272 -2.5568  1.9412
 1021MOL0     H37832  10.183  -0.387   9.399 -0.1614  0.4830  6.0899
 1021MOL0     H37833   9.871  -0.105   9.377  0.7760  2.3470  2.1395
 1021MOL0     H37834  10.575   0.036   8.935  0.0854  0.9952 -0.8436
 1021MOL0     H37835  10.644   0.058   8.706 -0.5985  0.1127 -1.6455
 1022MOL0     O37836   7.763   0.462   0.810 -0.1145 -0.4467 -0.3008
 1022MOL0     C37837   7.690   0.544   0.857 -0.8298 -0.3117  0.6390
 1022MOL0     O37838   7.614   0.625   0.777 -0.5008  0.4687  0.4999
 1022MOL0     C37839   7.661   0.655   0.649  0.3234 -0.3806  0.5906
 1022MOL0     C37840   7.675   0.552   0.546 -0.0144 -0.2895  0.0642
 1022MOL0     C37841   7.724   0.592   0.414  1.9888  0.5601 -1.1361
 1022MOL0     C37842   7.738   0.725   0.378 -0.2935 -0.6061  0.4235
 1022MOL0     O37843   7.764   0.767   0.249 -0.2938 -0.7891 -0.1572
 1022MOL0     C37844   7.831   0.672   0.165  0.8630  0.3407 -0.5347
 1022MOL0     C37845   7.900   0.749   0.057 -0.7856  0.2554  0.0559
 1022MOL0     C37846   8.052   0.756   0.095 -0.0047  0.2571 -0.5470
 1022MOL0     C37847   8.139   0.820  -0.012 -0.3994 -0.0250  0.0280
 1022MOL0     C37848   8.290   0.808   0.019 -0.1040 -0.0302  0.4633
 1022MOL0     C37849   8.383   0.892  -0.079  0.6774 -0.9568 -0.1565
 1022MOL0     C37850   8.530   0.886  -0.042  0.6104 -0.1525 -0.1381
 1022MOL0     C37851   8.620   0.951  -0.151  0.1452  0.3210 -0.7223
 1022MOL0     N37852   8.619   0.884  -0.278  0.5556 -0.0956 -0.3641
 1022MOL0     C37853   8.564   0.935  -0.393 -0.2829 -1.1420  0.0252
 1022MOL0     C37854   8.597   0.842  -0.488 -0.0469  0.0516  0.5074
 1022MOL0     C37855   8.549   0.841  -0.639 -0.2900  0.2578 -0.3415
 1022MOL0     C37856   8.664   0.825  -0.730 -0.8942  0.1947  0.2518
 1022MOL0     C37857   8.624   0.802  -0.876  0.2683  0.0777 -0.2541
 1022MOL0     C37858   8.531   0.683  -0.906  0.9548 -0.3004  1.1568
 1022MOL0     O37859   8.599   0.564  -0.882 -0.0892  0.0810 -0.6611
 1022MOL0     C37860   8.572   0.487  -0.764 -0.5951 -0.6781 -0.6109
 1022MOL0     C37861   8.666   0.472  -0.665  0.3398 -0.2500  0.9978
 1022MOL0     C37862   8.630   0.400  -0.546  0.0325  0.2843  0.5256
 1022MOL0     C37863   8.738   0.394  -0.440 -0.9791  0.1342  0.0430
 1022MOL0     C37864   8.506   0.324  -0.532  0.5738 -0.5435 -1.4164
 1022MOL0     C37865   8.477   0.232  -0.421 -0.3449  0.6577  0.2998
 1022MOL0     O37866   8.345   0.196  -0.412  0.4741 -0.7891  0.2095
 1022MOL0     C37867   8.298   0.122  -0.303  0.4957 -0.8183 -0.0825
 1022MOL0     C37868   8.337   0.135  -0.168  0.6399  0.6606  0.1905
 1022MOL0     C37869   8.269   0.066  -0.068  0.1116  0.2015  1.7844
 1022MOL0     C37870   8.174  -0.035  -0.105 -0.5664 -1.2891  1.1277
 1022MOL0     O37871   8.132  -0.126  -0.014 -0.0793 -0.0586  0.0174
 1022MOL0     C37872   8.057  -0.071   0.094 -1.1704 -0.5878 -0.5027
 1022MOL0     C37873   7.994  -0.196   0.150  0.4153 -0.3038  0.4186
 1022MOL0     C37874   7.894  -0.261   0.052 -0.1619 -0.4638  1.4400
 1022MOL0     C37875   7.792  -0.344   0.133 -0.2538  0.6885 -0.4374
 1022MOL0     C37876   7.859  -0.466   0.197 -0.6107 -0.1270 -0.3930
 1022MOL0     C37877   7.816  -0.600   0.151 -0.5979 -0.0910  0.7980
 1022MOL0     C37878   7.861  -0.634   0.008  0.1857  0.1964 -0.0550
 1022MOL0     C37879   7.880  -0.785  -0.030  0.0155  0.1236  0.9065
 1022MOL0    Cl37880   7.962  -0.887   0.093 -0.2635  0.0505  0.5364
 1022MOL0     C37881   8.137  -0.047  -0.246  0.0691  0.0417  0.8148
 1022MOL0     C37882   8.196   0.039  -0.339  0.1711 -0.2499  0.2539
 1022MOL0     O37883   8.568   0.199  -0.343 -0.9413  0.0975 -0.0063
 1022MOL0     C37884   8.416   0.343  -0.646  0.1067 -0.3806 -0.4279
 1022MOL0     C37885   8.452   0.428  -0.753  0.5412 -0.4458  1.6165
 1022MOL0     N37886   8.672   0.743  -0.424  0.4136 -0.7298 -0.1331
 1022MOL0     N37887   8.688   0.768  -0.307  0.4739  0.3655 -0.4426
 1022MOL0     C37888   7.704   0.820   0.482 -0.4470 -0.8661  0.0173
 1022MOL0     C37889   7.667   0.791   0.612 -0.2622 -0.5967 -0.0890
 1022MOL0     C37890   7.691   0.552   0.996 -0.0116 -0.3347  0.5679
 1022MOL0     C37891   7.755   0.462   1.078 -0.2003 -0.4559  0.4309
 1022MOL0     C37892   7.761   0.498   1.215 -0.6611 -0.5986 -0.7968
 1022MOL0     C37893   7.690   0.605   1.271  0.9471 -0.4762  0.1433
 1022MOL0     O37894   7.683   0.639   1.404 -0.0048  0.1242 -0.5222
 1022MOL0     C37895   7.813   0.655   1.475 -1.1755 -0.5859 -0.2585
 1022MOL0     C37896   7.779   0.634   1.623 -0.9969  0.0615 -1.2612
 1022MOL0     C37897   7.747   0.486   1.655 -0.0494 -0.9180 -0.2431
 1022MOL0     C37898   7.737   0.485   1.811  0.0278 -0.6167  0.7187
 1022MOL0     C37899   7.873   0.464   1.876 -1.1463 -0.6531  0.6141
 1022MOL0     C37900   7.988   0.458   1.900 -0.8793  0.6497  0.3510
 1022MOL0     C37901   7.612   0.681   1.186 -0.3522  0.1232 -0.3083
 1022MOL0     C37902   7.620   0.665   1.047  0.2056 -0.0193 -0.7759
 1022MOL0     H37903   7.658   0.445   0.557  0.8061 -0.4076  0.2204
 1022MOL0     H37904   7.732   0.513   0.340 -1.4776 -0.0012 -1.1004
 1022MOL0     H37905   7.908   0.618   0.219  0.9985  0.2742 -0.7954
 1022MOL0     H37906   7.757   0.598   0.135  0.8522 -0.1751  0.7157
 1022MOL0     H37907   7.891   0.697  -0.038  0.5032 -2.5026  1.3243
 1022MOL0     H37908   7.864   0.852   0.048  0.0828  0.5751  0.1666
 1022MOL0     H37909   8.059   0.810   0.190 -1.9993  0.8585 -0.6993
 1022MOL0     H37910   8.080   0.652   0.114 -3.5988 -1.2277 -2.4069
 1022MOL0     H37911   8.126   0.775  -0.110 -1.7755 -0.3323  0.3247
 1022MOL0     H37912   8.117   0.927  -0.012  0.3457  0.1906 -2.6150
 1022MOL0     H37913   8.299   0.832   0.125 -2.6852  1.0800  0.5011
 1022MOL0     H37914   8.307   0.700   0.012  0.9893  0.0580  1.4825
 1022MOL0     H37915   8.373   0.854  -0.181 -0.9428  0.8327 -0.7178
 1022MOL0     H37916   8.359   0.998  -0.086 -0.8537 -1.3473 -1.3407
 1022MOL0     H37917   8.544   0.909   0.064 -0.2873 -2.9534  0.6760
 1022MOL0     H37918   8.552   0.779  -0.038 -0.1916 -0.3213 -0.0651
 1022MOL0     H37919   8.718   0.963  -0.104 -0.5686 -2.2053  1.6815
 1022MOL0     H37920   8.587   1.054  -0.172 -1.8800  0.1667  1.3500
 1022MOL0     H37921   8.511   1.030  -0.402 -0.4601 -1.4265 -2.8730
 1022MOL0     H37922   8.485   0.755  -0.659 -2.8285  1.5139  1.7099
 1022MOL0     H37923   8.502   0.934  -0.673 -2.3809 -1.1259 -1.4743
 1022MOL0     H37924   8.728   0.742  -0.697 -0.4714 -0.0182 -1.0687
 1022MOL0     H37925   8.719   0.919  -0.722 -3.0477  1.6687 -1.2888
 1022MOL0     H37926   8.717   0.788  -0.931  1.8998  1.0118  2.0651
 1022MOL0     H37927   8.571   0.892  -0.908 -1.3958 -0.3195  1.2016
 1022MOL0     H37928   8.508   0.702  -1.011 -0.8217  3.2657  2.0001
 1022MOL0     H37929   8.435   0.687  -0.853  0.9439  0.1141  1.1099
 1022MOL0     H37930   8.758   0.527  -0.683  2.0959 -1.9193  3.9612
 1022MOL0     H37931   8.809   0.473  -0.468 -1.6775  1.3356  1.5527
 1022MOL0     H37932   8.707   0.405  -0.336 -2.8116  0.3838 -0.5043
 1022MOL0     H37933   8.782   0.294  -0.435  2.9464  1.7433  1.5226
 1022MOL0     H37934   8.407   0.214  -0.143 -0.0995  1.3895 -0.0049
 1022MOL0     H37935   8.323   0.074   0.025  3.1991  2.7814 -0.0294
 1022MOL0     H37936   8.125  -0.024   0.166 -1.6347 -0.6182 -0.0407
 1022MOL0     H37937   7.978  -0.001   0.065 -1.2541 -0.4877 -0.0429
 1022MOL0     H37938   8.069  -0.270   0.181  2.2068  0.9945 -0.5687
 1022MOL0     H37939   7.940  -0.151   0.233  0.0329  0.8503 -0.4288
 1022MOL0     H37940   7.937  -0.323  -0.027 -3.1910 -1.1261  0.1384
 1022MOL0     H37941   7.835  -0.186  -0.003 -0.3912 -3.0331 -2.1711
 1022MOL0     H37942   7.746  -0.283   0.212 -1.6363 -1.3321  0.3986
 1022MOL0     H37943   7.704  -0.380   0.079  0.0206 -2.0610  0.7879
 1022MOL0     H37944   7.825  -0.452   0.300 -1.2130  1.8587 -0.8177
 1022MOL0     H37945   7.965  -0.447   0.215 -1.0942  2.3850  0.2035
 1022MOL0     H37946   7.856  -0.672   0.224 -1.3836 -3.3369 -1.7560
 1022MOL0     H37947   7.707  -0.588   0.154 -0.6539  0.3037 -1.4156
 1022MOL0     H37948   7.957  -0.583  -0.006  0.0098  0.4830 -0.2405
 1022MOL0     H37949   7.785  -0.592  -0.059  1.3271  0.0636 -1.5001
 1022MOL0     H37950   7.929  -0.789  -0.127  1.8784  2.2136  1.6761
 1022MOL0     H37951   7.786  -0.841  -0.037  1.2234 -1.8786  0.1770
 1022MOL0     H37952   8.059  -0.121  -0.256 -0.6277  0.9631 -1.2822
 1022MOL0     H37953   8.163   0.042  -0.442 -2.8692  0.8569  1.1516
 1022MOL0     H37954   8.317   0.299  -0.646 -0.2788  0.4530 -0.3054
 1022MOL0     H37955   8.397   0.437  -0.846  1.1436  1.7442  1.4093
 1022MOL0     H37956   7.716   0.928   0.479  1.9724 -1.0099  1.2958
 1022MOL0     H37957   7.642   0.870   0.682  0.5742  0.0780 -0.5322
 1022MOL0     H37958   7.802   0.370   1.043 -2.0861 -0.8012 -1.3198
 1022MOL0     H37959   7.803   0.416   1.273  0.6667  0.7733  0.2791
 1022MOL0     H37960   7.881   0.583   1.430  1.7007  0.4570  2.0759
 1022MOL0     H37961   7.849   0.757   1.462  0.1683 -0.9519  0.3526
 1022MOL0     H37962   7.700   0.703   1.654  1.2107  0.4878  4.7715
 1022MOL0     H37963   7.872   0.671   1.668 -1.1919 -0.9528  0.0397
 1022MOL0     H37964   7.826   0.425   1.612 -1.4909 -2.2953 -1.0056
 1022MOL0     H37965   7.647   0.469   1.614  0.3565 -0.6872 -1.3702
 1022MOL0     H37966   7.681   0.395   1.836  0.7373 -1.5493 -0.9009
 1022MOL0     H37967   7.686   0.570   1.858  0.7223  1.8987 -2.6665
 1022MOL0     H37968   8.090   0.444   1.930 -2.1043 -2.6965  3.8484
 1022MOL0     H37969   7.543   0.758   1.222 -0.8626  0.1774 -1.3608
 1022MOL0     H37970   7.572   0.739   0.983  0.9046 -0.4668 -1.8471
 1023MOL0     O37971   1.314   7.611   4.016  0.2045 -0.2832 -0.5312
 1023MOL0     C37972   1.333   7.491   3.991 -0.6502 -0.3998 -0.7317
 1023MOL0     O37973   1.409   7.429   3.891  0.2901 -0.0864 -0.6692
 1023MOL0     C37974   1.462   7.500   3.788 -0.2680 -0.7077 -0.3490
 1023MOL0     C37975   1.463   7.641   3.773 -0.4856  0.4141  0.9428
 1023MOL0     C37976   1.519   7.697   3.662  0.9095 -0.2088  0.4445
 1023MOL0     C37977   1.580   7.613   3.559  0.0719  0.4740 -0.5615
 1023MOL0     O37978   1.653   7.672   3.457  0.0849 -0.2891 -0.2526
 1023MOL0     C37979   1.599   7.785   3.386  0.4380  0.2781  0.6749
 1023MOL0     C37980   1.683   7.801   3.255 -0.4116  0.5314  0.3739
 1023MOL0     C37981   1.650   7.931   3.200 -0.5200  0.0484 -1.2123
 1023MOL0     C37982   1.687   7.937   3.050  0.5374  0.2862 -0.0180
 1023MOL0     C37983   1.840   7.962   3.031 -0.0880 -0.8194  0.5368
 1023MOL0     C37984   1.858   7.968   2.875  0.9602  0.6126  0.1694
 1023MOL0     C37985   1.855   7.826   2.803 -0.0563  0.6337  1.2025
 1023MOL0     C37986   1.912   7.840   2.665  0.7667 -0.0019  0.6849
 1023MOL0     N37987   1.830   7.926   2.580  0.4808 -0.8417  0.0453
 1023MOL0     C37988   1.695   7.927   2.561 -0.0859  0.8092  0.0403
 1023MOL0     C37989   1.666   8.027   2.484 -0.4917 -0.1791 -0.9173
 1023MOL0     C37990   1.522   8.051   2.452  0.1002 -0.1988  0.2468
 1023MOL0     C37991   1.494   8.197   2.403 -0.4009 -0.3793  0.3530
 1023MOL0     C37992   1.496   8.306   2.513  0.7822  0.2693 -1.1576
 1023MOL0     C37993   1.629   8.354   2.579  0.0732 -0.0250  0.4834
 1023MOL0     O37994   1.605   8.455   2.679  0.1115  0.5437  0.2084
 1023MOL0     C37995   1.669   8.445   2.795 -0.0197  0.4467  0.0127
 1023MOL0     C37996   1.599   8.490   2.907  0.1922  0.2560  0.4500
 1023MOL0     C37997   1.658   8.485   3.034  0.7524 -0.2050 -0.6419
 1023MOL0     C37998   1.596   8.577   3.138  1.0259  0.3067 -0.1172
 1023MOL0     C37999   1.768   8.411   3.053 -0.3168 -0.0263 -0.4518
 1023MOL0     C38000   1.834   8.397   3.183 -0.9081  0.2467 -0.3465
 1023MOL0     O38001   1.751   8.383   3.291 -0.3494 -0.2691  0.1519
 1023MOL0     C38002   1.781   8.300   3.405 -0.2753 -0.4991 -0.2071
 1023MOL0     C38003   1.875   8.201   3.399  0.2126  0.0615  0.1639
 1023MOL0     C38004   1.913   8.122   3.503 -0.6203 -0.2653  0.6820
 1023MOL0     C38005   1.832   8.136   3.616  0.2318 -0.2336 -0.2046
 1023MOL0     O38006   1.859   8.048   3.723 -0.4096 -1.2795 -0.2168
 1023MOL0     C38007   1.917   7.921   3.709 -0.4940 -0.8563  0.4148
 1023MOL0     C38008   1.882   7.865   3.852  0.7599 -0.1190  0.7111
 1023MOL0     C38009   1.867   7.717   3.866  0.0923  0.3592 -0.3261
 1023MOL0     C38010   1.837   7.671   4.011 -0.1097  0.2066 -0.1333
 1023MOL0     C38011   1.861   7.515   4.020  0.3101  0.0267 -0.1651
 1023MOL0     C38012   1.791   7.426   3.918  0.1067  0.9339 -0.6267
 1023MOL0     C38013   1.794   7.277   3.954  0.5618 -0.2108 -0.7304
 1023MOL0     C38014   1.715   7.185   3.860 -0.4938 -0.6193  0.2554
 1023MOL0    Cl38015   1.760   7.195   3.691 -0.4858  0.0047 -0.4007
 1023MOL0     C38016   1.714   8.222   3.617 -0.1111  0.2806 -0.2274
 1023MOL0     C38017   1.685   8.303   3.506 -0.4094 -0.2073  0.1294
 1023MOL0     O38018   1.958   8.389   3.184  0.2847 -0.0259  0.8607
 1023MOL0     C38019   1.827   8.350   2.946 -0.6202  0.6995  0.2996
 1023MOL0     C38020   1.778   8.370   2.819  0.9848 -0.5483  0.6556
 1023MOL0     N38021   1.786   8.097   2.459 -0.1679  0.4177 -0.3885
 1023MOL0     N38022   1.883   8.039   2.522  1.1663  0.3081 -0.6836
 1023MOL0     C38023   1.584   7.474   3.579 -0.1150 -1.0160 -1.5693
 1023MOL0     C38024   1.519   7.420   3.688  0.0335 -1.0173  0.3965
 1023MOL0     C38025   1.266   7.396   4.087 -0.0093 -0.4763 -0.6137
 1023MOL0     C38026   1.224   7.272   4.042  0.5228  0.6005 -0.7784
 1023MOL0     C38027   1.183   7.180   4.138  0.6381  0.3452  0.1488
 1023MOL0     C38028   1.188   7.207   4.278 -0.5856 -0.1805 -0.4844
 1023MOL0     O38029   1.116   7.115   4.351 -0.1717 -0.1553 -0.2869
 1023MOL0     C38030   1.198   7.026   4.434 -0.0055  0.7394  0.6736
 1023MOL0     C38031   1.171   6.876   4.393  0.9082 -0.2052  0.3605
 1023MOL0     C38032   1.023   6.848   4.386  0.4885  0.2242  0.3123
 1023MOL0     C38033   0.990   6.700   4.374 -0.6328  0.2849 -0.0664
 1023MOL0     C38034   1.002   6.619   4.503  0.7654 -0.6681 -0.3475
 1023MOL0     C38035   0.997   6.558   4.608 -0.3553 -0.7669 -0.4423
 1023MOL0     C38036   1.222   7.333   4.329  1.2234 -0.0832 -0.2499
 1023MOL0     C38037   1.270   7.423   4.226 -0.5065 -0.2066  0.0308
 1023MOL0     H38038   1.412   7.699   3.850 -0.2585 -0.6759  1.9389
 1023MOL0     H38039   1.528   7.803   3.644 -0.5650 -0.0826  0.3378
 1023MOL0     H38040   1.495   7.769   3.356  1.0872 -0.9493 -1.2080
 1023MOL0     H38041   1.613   7.879   3.440  3.9166  2.1885 -2.9870
 1023MOL0     H38042   1.790   7.802   3.281 -0.1647  0.0856 -0.5950
 1023MOL0     H38043   1.658   7.718   3.188 -3.0867  0.3475  1.4940
 1023MOL0     H38044   1.544   7.956   3.211 -0.4882 -1.0401  3.4214
 1023MOL0     H38045   1.691   8.015   3.258 -4.5993  0.9613  0.7547
 1023MOL0     H38046   1.634   7.862   2.992 -0.7527  1.5597 -0.5419
 1023MOL0     H38047   1.631   8.025   3.017 -2.3151 -1.6844 -0.7443
 1023MOL0     H38048   1.864   8.052   3.089 -2.3750 -1.0349  1.9535
 1023MOL0     H38049   1.904   7.886   3.078  3.7816  1.3751 -0.7300
 1023MOL0     H38050   1.783   8.033   2.830 -0.8768 -0.0129  2.1771
 1023MOL0     H38051   1.960   8.006   2.863  1.0804 -0.0099 -0.9182
 1023MOL0     H38052   1.915   7.747   2.850 -2.4232 -2.1627 -0.2032
 1023MOL0     H38053   1.750   7.797   2.801  0.4897 -1.4739  0.5676
 1023MOL0     H38054   1.904   7.739   2.623 -0.5863 -1.0301  3.1755
 1023MOL0     H38055   2.017   7.867   2.677  0.5612  1.0969  0.1183
 1023MOL0     H38056   1.629   7.856   2.610  1.8279 -0.5744  0.7425
 1023MOL0     H38057   1.504   7.990   2.363 -2.4199 -0.5510  0.9256
 1023MOL0     H38058   1.456   8.023   2.534 -0.0280 -2.3437 -0.5242
 1023MOL0     H38059   1.394   8.202   2.358  0.0765  2.2969 -0.5824
 1023MOL0     H38060   1.569   8.234   2.333 -1.8236  1.5518 -0.2547
 1023MOL0     H38061   1.421   8.273   2.585  1.8394 -1.1710 -0.6766
 1023MOL0     H38062   1.452   8.393   2.462 -2.1063 -0.4373 -0.1039
 1023MOL0     H38063   1.693   8.393   2.499 -0.7234 -1.3786 -0.8541
 1023MOL0     H38064   1.666   8.261   2.622 -0.1511  0.3141  1.4299
 1023MOL0     H38065   1.507   8.546   2.890 -0.9184 -0.9960  2.0589
 1023MOL0     H38066   1.527   8.657   3.110  3.8924  2.8918 -0.3314
 1023MOL0     H38067   1.556   8.506   3.211  2.0013 -0.5151 -0.3549
 1023MOL0     H38068   1.676   8.635   3.186 -1.1582  2.0469  1.6127
 1023MOL0     H38069   1.943   8.202   3.315 -0.6935  0.7876 -0.5946
 1023MOL0     H38070   1.997   8.054   3.499 -2.3029 -2.4030 -1.9777
 1023MOL0     H38071   1.867   7.869   3.626 -1.6091  0.1857  0.4079
 1023MOL0     H38072   2.022   7.936   3.684 -1.1223  0.9914 -1.3576
 1023MOL0     H38073   1.956   7.899   3.925  0.6770  2.7749 -0.4273
 1023MOL0     H38074   1.789   7.912   3.884  0.9733  1.4556 -0.8470
 1023MOL0     H38075   1.962   7.675   3.832  0.7440 -0.1909  1.9684
 1023MOL0     H38076   1.789   7.687   3.796  0.4077 -0.2684 -0.4233
 1023MOL0     H38077   1.883   7.727   4.093 -0.9142 -2.9682  2.7042
 1023MOL0     H38078   1.731   7.688   4.029  0.1309 -0.3410  2.2377
 1023MOL0     H38079   1.824   7.485   4.118 -1.8204  0.6670 -0.7180
 1023MOL0     H38080   1.970   7.506   4.024  0.2280 -0.5303  1.0098
 1023MOL0     H38081   1.686   7.456   3.917  0.1503  1.0902 -0.4485
 1023MOL0     H38082   1.837   7.430   3.818  0.6650 -0.1403 -0.4320
 1023MOL0     H38083   1.778   7.255   4.060  1.6600 -2.1915 -0.9240
 1023MOL0     H38084   1.897   7.245   3.939  0.0758 -1.0901 -2.3880
 1023MOL0     H38085   1.610   7.217   3.863 -0.5246 -0.6747 -0.2465
 1023MOL0     H38086   1.717   7.083   3.900 -1.4815  1.3951  6.5681
 1023MOL0     H38087   1.642   8.203   3.695  1.3505 -2.3022  0.6096
 1023MOL0     H38088   1.599   8.370   3.502 -1.6964 -1.8587 -1.0407
 1023MOL0     H38089   1.928   8.313   2.956 -1.4854 -2.2285 -0.8306
 1023MOL0     H38090   1.834   8.334   2.734 -1.1321 -1.0988 -0.5823
 1023MOL0     H38091   1.624   7.410   3.501 -0.7308 -2.6974 -0.5591
 1023MOL0     H38092   1.505   7.313   3.671 -2.5000 -0.4486 -2.0152
 1023MOL0     H38093   1.198   7.236   3.943 -2.6996 -2.0045  0.8123
 1023MOL0     H38094   1.149   7.083   4.104  0.6750  0.5512 -0.4958
 1023MOL0     H38095   1.304   7.048   4.421  0.3021 -0.0205  1.6765
 1023MOL0     H38096   1.169   7.031   4.540 -0.4856 -1.1106  0.6595
 1023MOL0     H38097   1.217   6.801   4.457 -1.0537 -2.5133 -0.8083
 1023MOL0     H38098   1.214   6.864   4.293  1.6292  1.2850  0.4545
 1023MOL0     H38099   0.991   6.887   4.289 -0.8540 -0.2957  0.5269
 1023MOL0     H38100   0.966   6.901   4.463  1.2347  0.4687  0.7091
 1023MOL0     H38101   1.046   6.667   4.285  0.2666 -1.4146  1.0795
 1023MOL0     H38102   0.886   6.685   4.345 -1.5111  2.0478  1.9214
 1023MOL0     H38103   0.985   6.498   4.696 -0.4666 -3.3897 -2.1316
 1023MOL0     H38104   1.218   7.375   4.429  1.4132  2.6408 -1.2863
 1023MOL0     H38105   1.309   7.521   4.253 -0.3457 -0.5272  1.0206
 1024MOL0     O38106   8.092   3.302   1.547  0.5073 -0.0168  0.3641
 1024MOL0     C38107   8.037   3.354   1.448 -0.1154 -0.0169 -0.9652
 1024MOL0     O38108   7.958   3.466   1.443  0.2204  0.3171  0.2196
 1024MOL0     C38109   7.921   3.537   1.559  0.2233 -0.0818  0.1103
 1024MOL0     C38110   8.009   3.565   1.667  0.0749  1.0984  1.0889
 1024MOL0     C38111   7.955   3.626   1.779  0.0011 -0.6195  0.0046
 1024MOL0     C38112   7.817   3.657   1.786 -0.1923 -0.6756 -0.1606
 1024MOL0     O38113   7.751   3.730   1.888 -0.7952  0.1391  0.0789
 1024MOL0     C38114   7.833   3.827   1.956 -0.1819 -0.9100 -0.9124
 1024MOL0     C38115   7.860   3.963   1.884  0.8786 -0.3999 -0.3943
 1024MOL0     C38116   7.881   4.088   1.965  0.3572 -0.8216 -0.2019
 1024MOL0     C38117   8.020   4.082   2.027  0.0243  0.0889  0.1363
 1024MOL0     C38118   8.049   4.184   2.133 -0.1034  0.1373  0.0343
 1024MOL0     C38119   8.183   4.162   2.213 -0.4866 -1.3519 -0.3980
 1024MOL0     C38120   8.174   4.234   2.353 -0.2528  0.6725 -0.1237
 1024MOL0     C38121   8.293   4.221   2.442 -0.2368  1.0137  0.4008
 1024MOL0     N38122   8.275   4.293   2.567 -0.6780  0.2981  0.4157
 1024MOL0     C38123   8.180   4.250   2.658 -0.4364  0.1053 -0.2416
 1024MOL0     C38124   8.209   4.322   2.773  0.2475  0.4846  0.3765
 1024MOL0     C38125   8.142   4.336   2.907  0.0298  0.5408  0.4942
 1024MOL0     C38126   8.227   4.371   3.030 -1.1235  0.5764  0.1680
 1024MOL0     C38127   8.131   4.344   3.151  0.3567 -0.5698 -0.5196
 1024MOL0     C38128   8.207   4.375   3.285 -0.2818 -0.8491  0.1719
 1024MOL0     O38129   8.270   4.507   3.285  0.7172  0.6048 -0.4014
 1024MOL0     C38130   8.383   4.524   3.368  0.3234 -0.1093 -0.8008
 1024MOL0     C38131   8.393   4.486   3.501  0.5819  0.1584 -0.4816
 1024MOL0     C38132   8.512   4.491   3.573  0.3128 -0.0027  0.0095
 1024MOL0     C38133   8.504   4.476   3.722 -0.2022  0.0619 -0.0240
 1024MOL0     C38134   8.627   4.545   3.517  0.2021  0.6277 -0.0815
 1024MOL0     C38135   8.763   4.564   3.579  1.2091  0.2789 -0.2995
 1024MOL0     O38136   8.781   4.499   3.693 -0.3054  0.5836 -1.0940
 1024MOL0     C38137   8.908   4.479   3.731  0.1534 -0.0187  1.1107
 1024MOL0     C38138   8.983   4.592   3.757 -0.3101  0.8322 -0.8926
 1024MOL0     C38139   9.122   4.577   3.774 -0.5829  0.0538  1.3257
 1024MOL0     C38140   9.175   4.452   3.799 -0.2730  0.9277  0.7302
 1024MOL0     O38141   9.305   4.445   3.833  0.4373 -0.1224  0.1799
 1024MOL0     C38142   9.353   4.357   3.929  0.1665 -0.4008 -0.1424
 1024MOL0     C38143   9.497   4.390   3.969 -0.1557  0.2457 -0.0322
 1024MOL0     C38144   9.526   4.298   4.092 -0.4156  0.0209 -1.0058
 1024MOL0     C38145   9.674   4.317   4.140  0.6133  0.8859 -0.1064
 1024MOL0     C38146   9.688   4.270   4.283  0.6583  0.0488 -0.6057
 1024MOL0     C38147   9.834   4.265   4.324  0.3965  0.9787  1.5922
 1024MOL0     C38148   9.908   4.132   4.285  0.2023 -0.1985  0.3390
 1024MOL0     C38149  10.044   4.099   4.326  0.3367  0.0065  0.4633
 1024MOL0    Cl38150  10.070   3.926   4.301  0.1791 -0.3663  0.0016
 1024MOL0     C38151   9.095   4.333   3.788  0.8118  0.2158 -0.2451
 1024MOL0     C38152   8.961   4.349   3.751 -0.5886  0.0326 -0.3995
 1024MOL0     O38153   8.852   4.628   3.513  0.1181  0.1718  0.3840
 1024MOL0     C38154   8.613   4.590   3.379  0.4256  0.1805 -0.2632
 1024MOL0     C38155   8.492   4.573   3.303  0.3056 -1.1079  0.3358
 1024MOL0     N38156   8.321   4.392   2.747  0.0850 -0.9190  0.3069
 1024MOL0     N38157   8.358   4.385   2.623 -0.1878 -0.3388  0.9678
 1024MOL0     C38158   7.741   3.626   1.677 -0.2975 -0.6454  0.3060
 1024MOL0     C38159   7.790   3.569   1.563  0.2382 -0.3424  0.9555
 1024MOL0     C38160   8.053   3.289   1.311  0.4124 -0.4674  0.6161
 1024MOL0     C38161   8.137   3.180   1.290 -0.2177 -0.1327  0.3724
 1024MOL0     C38162   8.163   3.120   1.172  0.6888  0.6910 -0.0207
 1024MOL0     C38163   8.103   3.161   1.054  0.1091 -0.6103  0.4729
 1024MOL0     O38164   8.149   3.097   0.938 -0.9487 -0.4014 -0.2484
 1024MOL0     C38165   8.185   3.179   0.826  0.1741  0.3571 -0.0758
 1024MOL0     C38166   8.257   3.084   0.725 -0.2376 -0.0519  0.4204
 1024MOL0     C38167   8.396   3.054   0.756  0.0082 -0.2833  0.1548
 1024MOL0     C38168   8.477   3.177   0.809 -0.7586 -0.1023  0.4232
 1024MOL0     C38169   8.474   3.181   0.957 -0.5266 -0.5535 -0.4356
 1024MOL0     C38170   8.480   3.186   1.078  0.6865  0.4230 -0.3909
 1024MOL0     C38171   7.999   3.257   1.066  0.1503  1.3407  0.3008
 1024MOL0     C38172   7.984   3.317   1.194  0.0385 -0.2867 -0.3719
 1024MOL0     H38173   8.111   3.527   1.673 -0.3705 -1.2165 -2.6712
 1024MOL0     H38174   8.028   3.652   1.855  0.0537 -2.4994  0.6409
 1024MOL0     H38175   7.776   3.858   2.044 -0.0926  1.7179 -1.7027
 1024MOL0     H38176   7.924   3.786   2.002 -2.2341  0.0442  4.8590
 1024MOL0     H38177   7.937   3.960   1.806 -0.1576  3.5615 -1.7956
 1024MOL0     H38178   7.765   3.981   1.834 -0.1258 -1.4650  1.0545
 1024MOL0     H38179   7.876   4.187   1.919  0.7066  1.0251  3.3713
 1024MOL0     H38180   7.808   4.090   2.047  1.4760 -2.0356  0.8638
 1024MOL0     H38181   8.030   3.989   2.083  0.6857  0.5122  0.7368
 1024MOL0     H38182   8.091   4.091   1.944 -3.0170  1.4676 -2.5611
 1024MOL0     H38183   8.063   4.276   2.075  2.9336  0.2712  0.8139
 1024MOL0     H38184   7.963   4.196   2.200  2.1275  3.2578  2.6432
 1024MOL0     H38185   8.213   4.058   2.227  0.3097 -1.1840 -0.7354
 1024MOL0     H38186   8.255   4.208   2.144 -1.2754  0.7658  0.1092
 1024MOL0     H38187   8.155   4.341   2.340  1.0492  0.8601 -0.6560
 1024MOL0     H38188   8.092   4.186   2.409 -0.3732  0.3442 -0.5738
 1024MOL0     H38189   8.384   4.251   2.389 -1.8248  5.4575 -0.2336
 1024MOL0     H38190   8.303   4.116   2.472  0.7762  1.3640  1.3919
 1024MOL0     H38191   8.102   4.181   2.627  1.0001 -0.5129 -2.8022
 1024MOL0     H38192   8.079   4.422   2.880 -0.2306 -1.1706 -6.2623
 1024MOL0     H38193   8.081   4.247   2.925  0.3004 -0.1896 -1.8762
 1024MOL0     H38194   8.260   4.475   3.020 -0.9208  0.6423  1.4526
 1024MOL0     H38195   8.306   4.296   3.042 -0.4181  1.5126  1.6314
 1024MOL0     H38196   8.089   4.244   3.167  0.1220 -0.0691  2.7419
 1024MOL0     H38197   8.046   4.412   3.147  0.2702 -0.6171  0.3630
 1024MOL0     H38198   8.283   4.296   3.293 -0.8764 -1.4559 -0.1147
 1024MOL0     H38199   8.138   4.367   3.369 -0.4131  0.4405  0.2030
 1024MOL0     H38200   8.305   4.439   3.544  3.2769 -2.3158  2.8938
 1024MOL0     H38201   8.532   4.376   3.754 -4.0636 -0.9652  0.6710
 1024MOL0     H38202   8.573   4.551   3.761  0.6329 -0.9997  0.5834
 1024MOL0     H38203   8.409   4.493   3.773  1.6422  3.5387  2.7548
 1024MOL0     H38204   8.932   4.687   3.765 -2.0847 -0.2320  1.7841
 1024MOL0     H38205   9.196   4.656   3.779  2.1398 -1.9575 -2.5986
 1024MOL0     H38206   9.295   4.367   4.021  1.5783 -0.3026  0.7678
 1024MOL0     H38207   9.357   4.252   3.898 -0.5346 -1.2247  2.3600
 1024MOL0     H38208   9.566   4.381   3.884 -1.1478  0.5032 -0.8886
 1024MOL0     H38209   9.514   4.496   3.991  0.8540  0.1264 -0.1704
 1024MOL0     H38210   9.508   4.192   4.072  2.9383 -0.8890  0.1689
 1024MOL0     H38211   9.459   4.326   4.173  1.2515  1.4398 -0.0462
 1024MOL0     H38212   9.736   4.247   4.082  0.2318  0.0792  0.4425
 1024MOL0     H38213   9.701   4.422   4.125 -1.6210  1.5202  0.0155
 1024MOL0     H38214   9.649   4.169   4.298  2.0660 -1.1316 -3.9578
 1024MOL0     H38215   9.636   4.346   4.343  3.1588  0.4598  1.1974
 1024MOL0     H38216   9.857   4.356   4.268 -2.8508  1.1051  0.2401
 1024MOL0     H38217   9.847   4.285   4.431 -2.1317  4.0325  1.4898
 1024MOL0     H38218   9.911   4.112   4.177  2.3043  1.5412  0.0050
 1024MOL0     H38219   9.839   4.056   4.321 -2.5748  2.1170  0.2316
 1024MOL0     H38220  10.050   4.112   4.434 -0.3133 -3.3444  0.9866
 1024MOL0     H38221  10.124   4.156   4.277  0.5297 -1.8195 -1.4867
 1024MOL0     H38222   9.137   4.237   3.816  1.5209  0.8189  0.8519
 1024MOL0     H38223   8.902   4.260   3.733 -1.4279 -0.3018  3.2441
 1024MOL0     H38224   8.692   4.642   3.325 -0.3486 -0.4321 -2.0809
 1024MOL0     H38225   8.494   4.610   3.201 -0.7440 -1.0585  0.3280
 1024MOL0     H38226   7.634   3.647   1.682 -0.3569  0.8487 -3.8213
 1024MOL0     H38227   7.729   3.545   1.477  0.9325  3.8571 -0.9476
 1024MOL0     H38228   8.182   3.126   1.373 -0.4611 -1.7005 -0.4775
 1024MOL0     H38229   8.228   3.034   1.180 -1.1046 -0.5629  3.1279
 1024MOL0     H38230   8.096   3.216   0.774 -0.9120 -1.0554  0.7006
 1024MOL0     H38231   8.248   3.264   0.853 -3.4130  3.1664  0.1386
 1024MOL0     H38232   8.263   3.137   0.630  0.9428 -2.7489 -1.1121
 1024MOL0     H38233   8.204   2.992   0.700  0.6647 -0.1916 -1.0816
 1024MOL0     H38234   8.441   3.007   0.668  1.3164  0.7548  0.2337
 1024MOL0     H38235   8.396   2.988   0.843  3.4677  0.8089  1.1246
 1024MOL0     H38236   8.433   3.265   0.761 -0.9631 -0.3941  0.0654
 1024MOL0     H38237   8.585   3.169   0.791 -0.0266  2.1868  3.0854
 1024MOL0     H38238   8.467   3.190   1.185  0.3948 -3.2722 -0.1656
 1024MOL0     H38239   7.949   3.298   0.980  0.5553 -1.3184 -1.3323
 1024MOL0     H38240   7.900   3.386   1.191  2.0362  2.2313 -2.2962
  11.47622  11.47622  11.47622
